<event>
 5    1  0.1717518E-003  0.9118800E+02  0.7818608E-02  0.1130116E+00
         25   -1    0    0    0    0  0.00000000000E+00  0.00000000000E+00  0.99999998245E-14  0.12500000000E+03  0.12500000000E+03 0.  0.
        -11    1    3    3    0    0 -0.48178162865E+01 -0.30719682449E+02 -0.44134633285E+02  0.53988666393E+02  0.51100000000E-03 0.  1.
         23    2    1    0    0    0 -0.21573538316E+02 -0.17106708239E+01 -0.21992672439E+02  0.94145152875E+02  0.88945422696E+02 0.  0.
         11    1    3    3    0    0 -0.16755722029E+02  0.29009011625E+02  0.22141960846E+02  0.40156486481E+02  0.51100000000E-03 0. -1.
         22    1    1    0    0    0  0.21573538316E+02  0.17106708239E+01  0.21992672439E+02  0.30854847125E+02  0.00000000000E+00 0.  1.
</event>
<event>
 5    1  0.1717518E-003  0.9118800E+02  0.7818608E-02  0.1130116E+00
         25   -1    0    0    0    0  0.00000000000E+00  0.00000000000E+00  0.99999998245E-14  0.12500000000E+03  0.12500000000E+03 0.  0.
        -11    1    3    3    0    0 -0.33977123277E+02  0.27118765486E+02  0.11341920372E+02  0.44927847774E+02  0.51100000000E-03 0.  1.
         23    2    1    0    0    0  0.15109514468E+02  0.26109866815E+02  0.41003227968E+01  0.94556031474E+02  0.89520991217E+02 0.  0.
         11    1    3    3    0    0  0.49086637745E+02 -0.10088986706E+01 -0.72415975752E+01  0.49628183700E+02  0.51100000000E-03 0. -1.
         22    1    1    0    0    0 -0.15109514468E+02 -0.26109866815E+02 -0.41003227968E+01  0.30443968526E+02  0.00000000000E+00 0. -1.
</event>
<event>
 5    1  0.1717518E-003  0.9118800E+02  0.7818608E-02  0.1130116E+00
         25   -1    0    0    0    0  0.00000000000E+00  0.00000000000E+00  0.99999998245E-14  0.12500000000E+03  0.12500000000E+03 0.  0.
        -11    1    3    3    0    0  0.46429578724E+02 -0.22514000550E+02  0.15721027920E+02  0.53941975496E+02  0.51100000000E-03 0. -1.
         23    2    1    0    0    0  0.12689451794E+02 -0.23933963486E+02 -0.97162766425E+01  0.96220444291E+02  0.91815636320E+02 0.  0.
         11    1    3    3    0    0 -0.33740126930E+02 -0.14199629356E+01 -0.25437304563E+02  0.42278468795E+02  0.51100000000E-03 0.  1.
         22    1    1    0    0    0 -0.12689451794E+02  0.23933963486E+02  0.97162766425E+01  0.28779555709E+02  0.00000000000E+00 0. -1.
</event>
<event>
 5    1  0.1717518E-003  0.9118800E+02  0.7818608E-02  0.1130116E+00
         25   -1    0    0    0    0  0.00000000000E+00  0.00000000000E+00  0.99999998245E-14  0.12500000000E+03  0.12500000000E+03 0.  0.
        -11    1    3    3    0    0  0.56642973750E+01 -0.97029565438E+01  0.57444698152E+02  0.58533110087E+02  0.51100000000E-03 0.  1.
         23    2    1    0    0    0 -0.68089479442E+01  0.72516817343E+01  0.31637508371E+02  0.91835552228E+02  0.85638122685E+02 0.  0.
         11    1    3    3    0    0 -0.12473245319E+02  0.16954638278E+02 -0.25807189781E+02  0.33302442141E+02  0.51100000000E-03 0. -1.
         22    1    1    0    0    0  0.68089479442E+01 -0.72516817343E+01 -0.31637508371E+02  0.33164447772E+02  0.00000000000E+00 0.  1.
</event>
<event>
 5    1  0.1717518E-003  0.9118800E+02  0.7818608E-02  0.1130116E+00
         25   -1    0    0    0    0  0.00000000000E+00  0.00000000000E+00  0.99999998245E-14  0.12500000000E+03  0.12500000000E+03 0.  0.
        -11    1    3    3    0    0 -0.60087081223E+01 -0.56027302197E+02 -0.60879560282E+01  0.56676506364E+02  0.51100000000E-03 0.  1.
         23    2    1    0    0    0  0.52982246615E+00 -0.26479112537E+02 -0.21729060518E+02  0.90742501790E+02  0.84027527915E+02 0.  0.
         11    1    3    3    0    0  0.65385305884E+01  0.29548189660E+02 -0.15641104490E+02  0.34065995426E+02  0.51100000000E-03 0. -1.
         22    1    1    0    0    0 -0.52982246615E+00  0.26479112537E+02  0.21729060518E+02  0.34257498210E+02  0.00000000000E+00 0.  1.
</event>
<event>
 5    1  0.1717518E-003  0.9118800E+02  0.7818608E-02  0.1130116E+00
         25   -1    0    0    0    0  0.00000000000E+00  0.00000000000E+00  0.99999998245E-14  0.12500000000E+03  0.12500000000E+03 0.  0.
        -11    1    3    3    0    0  0.33653208345E+02  0.11919436108E+02 -0.50829502939E+02  0.62114811103E+02  0.51100000000E-03 0.  1.
         23    2    1    0    0    0  0.17856729899E+02  0.99487970688E+01 -0.22571990809E+02  0.94547805746E+02  0.89509504727E+02 0.  0.
         11    1    3    3    0    0 -0.15796478446E+02 -0.19706390391E+01  0.28257512130E+02  0.32432994643E+02  0.51100000000E-03 0. -1.
         22    1    1    0    0    0 -0.17856729899E+02 -0.99487970688E+01  0.22571990809E+02  0.30452194254E+02  0.00000000000E+00 0.  1.
</event>
<event>
 5    1  0.1717518E-003  0.9118800E+02  0.7818608E-02  0.1130116E+00
         25   -1    0    0    0    0  0.00000000000E+00  0.00000000000E+00  0.99999998245E-14  0.12500000000E+03  0.12500000000E+03 0.  0.
        -11    1    3    3    0    0  0.30421162761E+02  0.39082314773E+02 -0.19633134379E+02  0.53276021225E+02  0.51100000000E-03 0. -1.
         23    2    1    0    0    0 -0.38720823506E+01  0.23382449665E+02  0.79489507321E+01  0.10000164422E+03  0.96826706308E+02 0.  0.
         11    1    3    3    0    0 -0.34293245111E+02 -0.15699865108E+02  0.27582085112E+02  0.46725622993E+02  0.51100000000E-03 0.  1.
         22    1    1    0    0    0  0.38720823506E+01 -0.23382449665E+02 -0.79489507321E+01  0.24998355782E+02  0.00000000000E+00 0. -1.
</event>
<event>
 5    1  0.1717518E-003  0.9118800E+02  0.7818608E-02  0.1130116E+00
         25   -1    0    0    0    0  0.00000000000E+00  0.00000000000E+00  0.99999998245E-14  0.12500000000E+03  0.12500000000E+03 0.  0.
        -11    1    3    3    0    0 -0.32848008953E+02  0.29840479155E+01 -0.27426875708E+02  0.42896733506E+02  0.51100000000E-03 0.  1.
         23    2    1    0    0    0 -0.10556001618E+02  0.22538292266E+02  0.15949420657E+02  0.95440097975E+02  0.90747035730E+02 0.  0.
         11    1    3    3    0    0  0.22292007335E+02  0.19554244350E+02  0.43376296365E+02  0.52543364469E+02  0.51100000000E-03 0. -1.
         22    1    1    0    0    0  0.10556001618E+02 -0.22538292266E+02 -0.15949420657E+02  0.29559902025E+02  0.00000000000E+00 0. -1.
</event>
<event>
 5    1  0.1717518E-003  0.9118800E+02  0.7818608E-02  0.1130116E+00
         25   -1    0    0    0    0  0.00000000000E+00  0.00000000000E+00  0.99999998245E-14  0.12500000000E+03  0.12500000000E+03 0.  0.
        -11    1    3    3    0    0 -0.13736406988E+02  0.45518150733E+02 -0.13816814799E+02  0.49512577134E+02  0.51100000000E-03 0.  1.
         23    2    1    0    0    0 -0.25565470244E+02 -0.99228648176E+00 -0.95424085072E+01  0.97693673602E+02  0.93799884864E+02 0.  0.
         11    1    3    3    0    0 -0.11829063256E+02 -0.46510437214E+02  0.42744062917E+01  0.48181096467E+02  0.51100000000E-03 0. -1.
         22    1    1    0    0    0  0.25565470244E+02  0.99228648176E+00  0.95424085072E+01  0.27306326398E+02  0.00000000000E+00 0.  1.
</event>
<event>
 5    1  0.1717518E-003  0.9118800E+02  0.7818608E-02  0.1130116E+00
         25   -1    0    0    0    0  0.00000000000E+00  0.00000000000E+00  0.99999998245E-14  0.12500000000E+03  0.12500000000E+03 0.  0.
        -11    1    3    3    0    0 -0.22948189114E+02 -0.12302632602E+02  0.22969206791E+02  0.34721155128E+02  0.51100000000E-03 0.  1.
         23    2    1    0    0    0  0.69705883378E+01  0.27462102946E+02 -0.10600884299E+02  0.94748802537E+02  0.89789757959E+02 0.  0.
         11    1    3    3    0    0  0.29918777451E+02  0.39764735549E+02 -0.33570091090E+02  0.60027647409E+02  0.51100000000E-03 0. -1.
         22    1    1    0    0    0 -0.69705883378E+01 -0.27462102946E+02  0.10600884299E+02  0.30251197463E+02  0.00000000000E+00 0. -1.
</event>
<event>
 5    1  0.1717518E-003  0.9118800E+02  0.7818608E-02  0.1130116E+00
         25   -1    0    0    0    0  0.00000000000E+00  0.00000000000E+00  0.99999998245E-14  0.12500000000E+03  0.12500000000E+03 0.  0.
        -11    1    3    3    0    0 -0.16139057075E+02  0.55007305115E+02 -0.19957823772E+02  0.60700803201E+02  0.51100000000E-03 0.  1.
         23    2    1    0    0    0 -0.11242460200E+00  0.37054330610E+02 -0.12416983570E+02  0.85920369280E+02  0.76518574999E+02 0.  0.
         11    1    3    3    0    0  0.16026632473E+02 -0.17952974505E+02  0.75408402020E+01  0.25219566079E+02  0.51100000000E-03 0. -1.
         22    1    1    0    0    0  0.11242460200E+00 -0.37054330610E+02  0.12416983570E+02  0.39079630720E+02  0.00000000000E+00 0.  1.
</event>
<event>
 5    1  0.1717518E-003  0.9118800E+02  0.7818608E-02  0.1130116E+00
         25   -1    0    0    0    0  0.00000000000E+00  0.00000000000E+00  0.99999998245E-14  0.12500000000E+03  0.12500000000E+03 0.  0.
        -11    1    3    3    0    0  0.85149170768E+01  0.36537049937E+02  0.33732343026E+02  0.50451271513E+02  0.51100000000E-03 0. -1.
         23    2    1    0    0    0 -0.21489945663E+02  0.95758350612E+01  0.22783690489E+02  0.92249260558E+02  0.86239869779E+02 0.  0.
         11    1    3    3    0    0 -0.30004862739E+02 -0.26961214876E+02 -0.10948652538E+02  0.41797989046E+02  0.51100000000E-03 0.  1.
         22    1    1    0    0    0  0.21489945663E+02 -0.95758350612E+01 -0.22783690489E+02  0.32750739442E+02  0.00000000000E+00 0. -1.
</event>
<event>
 5    1  0.1717518E-003  0.9118800E+02  0.7818608E-02  0.1130116E+00
         25   -1    0    0    0    0  0.00000000000E+00  0.00000000000E+00  0.99999998245E-14  0.12500000000E+03  0.12500000000E+03 0.  0.
        -11    1    3    3    0    0 -0.18697055527E+02  0.28043619534E+02 -0.22641524435E+02  0.40603732722E+02  0.51100000000E-03 0. -1.
         23    2    1    0    0    0 -0.13931638717E+02 -0.95387828198E+01  0.20778094494E+02  0.98226727024E+02  0.94507575125E+02 0.  0.
         11    1    3    3    0    0  0.47654168102E+01 -0.37582402354E+02  0.43419618930E+02  0.57622994302E+02  0.51100000000E-03 0.  1.
         22    1    1    0    0    0  0.13931638717E+02  0.95387828198E+01 -0.20778094494E+02  0.26773272976E+02  0.00000000000E+00 0.  1.
</event>
<event>
 5    1  0.1717518E-003  0.9118800E+02  0.7818608E-02  0.1130116E+00
         25   -1    0    0    0    0  0.00000000000E+00  0.00000000000E+00  0.99999998245E-14  0.12500000000E+03  0.12500000000E+03 0.  0.
        -11    1    3    3    0    0  0.32345098745E+02 -0.48341565510E+02 -0.20447278165E+02  0.61653901364E+02  0.51100000000E-03 0.  1.
         23    2    1    0    0    0  0.11284880306E+02 -0.27673225656E+02 -0.59620674107E+01  0.94525384505E+02  0.89478187992E+02 0.  0.
         11    1    3    3    0    0 -0.21060218439E+02  0.20668339854E+02  0.14485210754E+02  0.32871483141E+02  0.51100000000E-03 0. -1.
         22    1    1    0    0    0 -0.11284880306E+02  0.27673225656E+02  0.59620674107E+01  0.30474615495E+02  0.00000000000E+00 0.  1.
</event>
<event>
 5    1  0.1717518E-003  0.9118800E+02  0.7818608E-02  0.1130116E+00
         25   -1    0    0    0    0  0.00000000000E+00  0.00000000000E+00  0.99999998245E-14  0.12500000000E+03  0.12500000000E+03 0.  0.
        -11    1    3    3    0    0 -0.33846749517E+02  0.36248533510E+02  0.24421123541E+02  0.55280646793E+02  0.51100000000E-03 0.  1.
         23    2    1    0    0    0 -0.23542373952E+02  0.13161509915E+02  0.33363619461E+02  0.82097787725E+02  0.69996049398E+02 0.  0.
         11    1    3    3    0    0  0.10304375566E+02 -0.23087023595E+02  0.89424959195E+01  0.26817140933E+02  0.51100000000E-03 0. -1.
         22    1    1    0    0    0  0.23542373952E+02 -0.13161509915E+02 -0.33363619461E+02  0.42902212275E+02  0.00000000000E+00 0.  1.
</event>
<event>
 5    1  0.1717518E-003  0.9118800E+02  0.7818608E-02  0.1130116E+00
         25   -1    0    0    0    0  0.00000000000E+00  0.00000000000E+00  0.99999998245E-14  0.12500000000E+03  0.12500000000E+03 0.  0.
        -11    1    3    3    0    0 -0.31255482038E+02  0.22981820775E+02  0.21978721048E+01  0.38857430250E+02  0.51100000000E-03 0. -1.
         23    2    1    0    0    0  0.95410503227E+01 -0.18509037214E+02  0.16094375847E+02  0.98681849728E+02  0.95107636034E+02 0.  0.
         11    1    3    3    0    0  0.40796532360E+02 -0.41490857989E+02  0.13896503742E+02  0.59824419478E+02  0.51100000000E-03 0.  1.
         22    1    1    0    0    0 -0.95410503227E+01  0.18509037214E+02 -0.16094375847E+02  0.26318150272E+02  0.00000000000E+00 0.  1.
</event>
<event>
 5    1  0.1717518E-003  0.9118800E+02  0.7818608E-02  0.1130116E+00
         25   -1    0    0    0    0  0.00000000000E+00  0.00000000000E+00  0.99999998245E-14  0.12500000000E+03  0.12500000000E+03 0.  0.
        -11    1    3    3    0    0 -0.35567651820E+02  0.23571902327E+02  0.11443284911E+02  0.44177383412E+02  0.51100000000E-03 0. -1.
         23    2    1    0    0    0  0.13967964416E+02  0.25119820697E+02 -0.37512485436E+01  0.96014119172E+02  0.91534309376E+02 0.  0.
         11    1    3    3    0    0  0.49535616236E+02  0.15479183699E+01 -0.15194533454E+02  0.51836735760E+02  0.51100000000E-03 0.  1.
         22    1    1    0    0    0 -0.13967964416E+02 -0.25119820697E+02  0.37512485436E+01  0.28985880828E+02  0.00000000000E+00 0.  1.
</event>
<event>
 5    1  0.1717518E-003  0.9118800E+02  0.7818608E-02  0.1130116E+00
         25   -1    0    0    0    0  0.00000000000E+00  0.00000000000E+00  0.99999998245E-14  0.12500000000E+03  0.12500000000E+03 0.  0.
        -11    1    3    3    0    0 -0.79876846374E+01  0.20462149293E+02  0.29825186278E+02  0.37041117644E+02  0.51100000000E-03 0.  1.
         23    2    1    0    0    0 -0.16752090995E+02 -0.15040612440E+02 -0.17240571881E+02  0.96643521127E+02  0.92389827804E+02 0.  0.
         11    1    3    3    0    0 -0.87644063580E+01 -0.35502761733E+02 -0.47065758160E+02  0.59602403482E+02  0.51100000000E-03 0. -1.
         22    1    1    0    0    0  0.16752090995E+02  0.15040612440E+02  0.17240571881E+02  0.28356478873E+02  0.00000000000E+00 0. -1.
</event>
<event>
 5    1  0.1717518E-003  0.9118800E+02  0.7818608E-02  0.1130116E+00
         25   -1    0    0    0    0  0.00000000000E+00  0.00000000000E+00  0.99999998245E-14  0.12500000000E+03  0.12500000000E+03 0.  0.
        -11    1    3    3    0    0 -0.28400050305E+02 -0.22572887233E+02  0.36016831818E+02  0.51120546455E+02  0.51100000000E-03 0.  1.
         23    2    1    0    0    0  0.14151560285E+02 -0.24426945730E+01  0.19018451662E+02  0.10116861483E+03  0.98321684834E+02 0.  0.
         11    1    3    3    0    0  0.42551610590E+02  0.20130192660E+02 -0.16998380156E+02  0.50048068380E+02  0.51100000000E-03 0. -1.
         22    1    1    0    0    0 -0.14151560285E+02  0.24426945730E+01 -0.19018451662E+02  0.23831385166E+02  0.00000000000E+00 0.  1.
</event>
<event>
 4    1  0.1717518E-003  0.9118800E+02  0.7818608E-02  0.1130116E+00
         25   -1    0    0    0    0  0.00000000000E+00  0.00000000000E+00  0.99999998245E-14  0.12500000000E+03  0.12500000000E+03 0.  0.
        -11    1    1    0    0    0  0.34780892417E+02 -0.10729096526E+02  0.11527084289E+02  0.38179806994E+02  0.51100000000E-03 0. -1.
         11    1    1    0    0    0  0.19445069209E+02  0.36233498319E+01 -0.23621460443E+02  0.30809296880E+02  0.51100000000E-03 0.  1.
         22    1    1    0    0    0 -0.54225961626E+02  0.71057466937E+01  0.12094376153E+02  0.56010896126E+02  0.00000000000E+00 0. -1.
</event>
<event>
 5    1  0.1717518E-003  0.9118800E+02  0.7818608E-02  0.1130116E+00
         25   -1    0    0    0    0  0.00000000000E+00  0.00000000000E+00  0.99999998245E-14  0.12500000000E+03  0.12500000000E+03 0.  0.
        -11    1    3    3    0    0  0.49660818469E+02 -0.48617016594E+01 -0.35997275732E+02  0.61527529566E+02  0.51100000000E-03 0.  1.
         23    2    1    0    0    0  0.20925099442E+02 -0.89295812967E+01 -0.11493029087E+02  0.99511043050E+02  0.96191271759E+02 0.  0.
         11    1    3    3    0    0 -0.28735719027E+02 -0.40678796373E+01  0.24504246645E+02  0.37983513485E+02  0.51100000000E-03 0. -1.
         22    1    1    0    0    0 -0.20925099442E+02  0.89295812967E+01  0.11493029087E+02  0.25488956950E+02  0.00000000000E+00 0.  1.
</event>
<event>
 5    1  0.1717518E-003  0.9118800E+02  0.7818608E-02  0.1130116E+00
         25   -1    0    0    0    0  0.00000000000E+00  0.00000000000E+00  0.99999998245E-14  0.12500000000E+03  0.12500000000E+03 0.  0.
        -11    1    3    3    0    0 -0.57068744612E+02 -0.23185905598E+02  0.90484855553E+01  0.62259962425E+02  0.51100000000E-03 0. -1.
         23    2    1    0    0    0 -0.23000332974E+02 -0.12711573456E+02  0.60868759286E+01  0.98025021312E+02  0.94240412393E+02 0.  0.
         11    1    3    3    0    0  0.34068411638E+02  0.10474332142E+02 -0.29616096267E+01  0.35765058887E+02  0.51100000000E-03 0.  1.
         22    1    1    0    0    0  0.23000332974E+02  0.12711573456E+02 -0.60868759286E+01  0.26974978688E+02  0.00000000000E+00 0. -1.
</event>
<event>
 5    1  0.1717518E-003  0.9118800E+02  0.7818608E-02  0.1130116E+00
         25   -1    0    0    0    0  0.00000000000E+00  0.00000000000E+00  0.99999998245E-14  0.12500000000E+03  0.12500000000E+03 0.  0.
        -11    1    3    3    0    0 -0.17934332980E+02 -0.22298548811E+02  0.16897137563E+02  0.33232195784E+02  0.51100000000E-03 0. -1.
         23    2    1    0    0    0  0.21916417742E+02  0.17719011289E+02 -0.90724572026E+01  0.95392531223E+02  0.90681490977E+02 0.  0.
         11    1    3    3    0    0  0.39850750722E+02  0.40017560100E+02 -0.25969594765E+02  0.62160335440E+02  0.51100000000E-03 0.  1.
         22    1    1    0    0    0 -0.21916417742E+02 -0.17719011289E+02  0.90724572026E+01  0.29607468777E+02  0.00000000000E+00 0.  1.
</event>
<event>
 5    1  0.1717518E-003  0.9118800E+02  0.7818608E-02  0.1130116E+00
         25   -1    0    0    0    0  0.00000000000E+00  0.00000000000E+00  0.99999998245E-14  0.12500000000E+03  0.12500000000E+03 0.  0.
        -11    1    3    3    0    0  0.58117910563E+02  0.16632214958E+02 -0.42147788186E+01  0.60597743055E+02  0.51100000000E-03 0. -1.
         23    2    1    0    0    0  0.25073094544E+02  0.10939494965E+02  0.83378703648E+01  0.96401875895E+02  0.92062310278E+02 0.  0.
         11    1    3    3    0    0 -0.33044816018E+02 -0.56927199931E+01  0.12552649183E+02  0.35804132840E+02  0.51100000000E-03 0.  1.
         22    1    1    0    0    0 -0.25073094544E+02 -0.10939494965E+02 -0.83378703648E+01  0.28598124105E+02  0.00000000000E+00 0. -1.
</event>
<event>
 5    1  0.1717518E-003  0.9118800E+02  0.7818608E-02  0.1130116E+00
         25   -1    0    0    0    0  0.00000000000E+00  0.00000000000E+00  0.99999998245E-14  0.12500000000E+03  0.12500000000E+03 0.  0.
        -11    1    3    3    0    0  0.47083800204E+02  0.31542345046E+02  0.17309602103E+02  0.59257287298E+02  0.51100000000E-03 0. -1.
         23    2    1    0    0    0  0.12019410635E+02  0.20667812208E+02  0.16449180952E+02  0.95979313456E+02  0.91486766059E+02 0.  0.
         11    1    3    3    0    0 -0.35064389570E+02 -0.10874532838E+02 -0.86042115030E+00  0.36722026158E+02  0.51100000000E-03 0.  1.
         22    1    1    0    0    0 -0.12019410635E+02 -0.20667812208E+02 -0.16449180952E+02  0.29020686544E+02  0.00000000000E+00 0. -1.
</event>
<event>
 5    1  0.1717518E-003  0.9118800E+02  0.7818608E-02  0.1130116E+00
         25   -1    0    0    0    0  0.00000000000E+00  0.00000000000E+00  0.99999998245E-14  0.12500000000E+03  0.12500000000E+03 0.  0.
        -11    1    3    3    0    0 -0.23301418420E+02 -0.14243871518E+02  0.32977959896E+02  0.42818101492E+02  0.51100000000E-03 0. -1.
         23    2    1    0    0    0 -0.20731631227E+02  0.20738177516E+02 -0.58019335593E+01  0.95107944650E+02  0.90288350093E+02 0.  0.
         11    1    3    3    0    0  0.25697871935E+01  0.34982049034E+02 -0.38779893455E+02  0.52289843158E+02  0.51100000000E-03 0.  1.
         22    1    1    0    0    0  0.20731631227E+02 -0.20738177516E+02  0.58019335593E+01  0.29892055350E+02  0.00000000000E+00 0.  1.
</event>
<event>
 5    1  0.1717518E-003  0.9118800E+02  0.7818608E-02  0.1130116E+00
         25   -1    0    0    0    0  0.00000000000E+00  0.00000000000E+00  0.99999998245E-14  0.12500000000E+03  0.12500000000E+03 0.  0.
        -11    1    3    3    0    0  0.43943671296E+02 -0.57299450074E+01 -0.24651608111E+02  0.50710751321E+02  0.51100000000E-03 0. -1.
         23    2    1    0    0    0  0.23953548880E+02  0.38271129046E+01  0.15246935572E+02  0.96348850957E+02  0.91990286114E+02 0.  0.
         11    1    3    3    0    0 -0.19990122416E+02  0.95570579120E+01  0.39898543683E+02  0.45638099636E+02  0.51100000000E-03 0.  1.
         22    1    1    0    0    0 -0.23953548880E+02 -0.38271129046E+01 -0.15246935572E+02  0.28651149043E+02  0.00000000000E+00 0. -1.
</event>
<event>
 5    1  0.1717518E-003  0.9118800E+02  0.7818608E-02  0.1130116E+00
         25   -1    0    0    0    0  0.00000000000E+00  0.00000000000E+00  0.99999998245E-14  0.12500000000E+03  0.12500000000E+03 0.  0.
        -11    1    3    3    0    0  0.60943095577E+01  0.25491552939E+02 -0.27373337120E+02  0.37898014005E+02  0.51100000000E-03 0.  1.
         23    2    1    0    0    0 -0.25373217182E+02 -0.77902453991E+01  0.96139763443E+01  0.96770288441E+02  0.92561180364E+02 0.  0.
         11    1    3    3    0    0 -0.31467526740E+02 -0.33281798338E+02  0.36987313464E+02  0.58872274436E+02  0.51100000000E-03 0. -1.
         22    1    1    0    0    0  0.25373217182E+02  0.77902453991E+01 -0.96139763443E+01  0.28229711559E+02  0.00000000000E+00 0. -1.
</event>
<event>
 5    1  0.1717518E-003  0.9118800E+02  0.7818608E-02  0.1130116E+00
         25   -1    0    0    0    0  0.00000000000E+00  0.00000000000E+00  0.99999998245E-14  0.12500000000E+03  0.12500000000E+03 0.  0.
        -11    1    3    3    0    0  0.70216732522E+01 -0.43896788454E+02 -0.44696447784E+01  0.44678962125E+02  0.51100000000E-03 0. -1.
         23    2    1    0    0    0 -0.21478672902E+02 -0.56101620540E+01 -0.20252457998E+02  0.94950551372E+02  0.90070182874E+02 0.  0.
         11    1    3    3    0    0 -0.28500346154E+02  0.38286626400E+02 -0.15782813219E+02  0.50271589247E+02  0.51100000000E-03 0.  1.
         22    1    1    0    0    0  0.21478672902E+02  0.56101620540E+01  0.20252457998E+02  0.30049448628E+02  0.00000000000E+00 0.  1.
</event>
<event>
 5    1  0.1717518E-003  0.9118800E+02  0.7818608E-02  0.1130116E+00
         25   -1    0    0    0    0  0.00000000000E+00  0.00000000000E+00  0.99999998245E-14  0.12500000000E+03  0.12500000000E+03 0.  0.
        -11    1    3    3    0    0 -0.39493985602E+02 -0.64078368257E+01  0.23829849250E+02  0.46569270845E+02  0.51100000000E-03 0.  1.
         23    2    1    0    0    0 -0.29325019978E+01 -0.30494760626E+02  0.63436820593E+01  0.93714663248E+02  0.88338359799E+02 0.  0.
         11    1    3    3    0    0  0.36561483604E+02 -0.24086923800E+02 -0.17486167191E+02  0.47145392403E+02  0.51100000000E-03 0. -1.
         22    1    1    0    0    0  0.29325019978E+01  0.30494760626E+02 -0.63436820593E+01  0.31285336752E+02  0.00000000000E+00 0.  1.
</event>
<event>
 5    1  0.1717518E-003  0.9118800E+02  0.7818608E-02  0.1130116E+00
         25   -1    0    0    0    0  0.00000000000E+00  0.00000000000E+00  0.99999998245E-14  0.12500000000E+03  0.12500000000E+03 0.  0.
        -11    1    3    3    0    0 -0.41667727371E+01 -0.28805687144E+02 -0.55143786066E+02  0.62353562438E+02  0.51100000000E-03 0.  1.
         23    2    1    0    0    0 -0.40332194500E+01 -0.17722647331E+02 -0.28668962689E+02  0.91054919219E+02  0.84491004283E+02 0.  0.
         11    1    3    3    0    0  0.13355328717E+00  0.11083039812E+02  0.26474823377E+02  0.28701356781E+02  0.51100000000E-03 0. -1.
         22    1    1    0    0    0  0.40332194500E+01  0.17722647331E+02  0.28668962689E+02  0.33945080781E+02  0.00000000000E+00 0.  1.
</event>
<event>
 5    1  0.1717518E-003  0.9118800E+02  0.7818608E-02  0.1130116E+00
         25   -1    0    0    0    0  0.00000000000E+00  0.00000000000E+00  0.99999998245E-14  0.12500000000E+03  0.12500000000E+03 0.  0.
        -11    1    3    3    0    0  0.33267928565E+02 -0.65485015121E+01  0.12229103989E+02  0.36044263451E+02  0.51100000000E-03 0. -1.
         23    2    1    0    0    0 -0.20536069845E+02  0.18020545202E+02  0.11915115371E+02  0.95193286186E+02  0.90406424255E+02 0.  0.
         11    1    3    3    0    0 -0.53803998411E+02  0.24569046715E+02 -0.31398861787E+00  0.59149022735E+02  0.51100000000E-03 0.  1.
         22    1    1    0    0    0  0.20536069845E+02 -0.18020545202E+02 -0.11915115371E+02  0.29806713814E+02  0.00000000000E+00 0.  1.
</event>
<event>
 5    1  0.1717518E-003  0.9118800E+02  0.7818608E-02  0.1130116E+00
         25   -1    0    0    0    0  0.00000000000E+00  0.00000000000E+00  0.99999998245E-14  0.12500000000E+03  0.12500000000E+03 0.  0.
        -11    1    3    3    0    0 -0.27273092795E+02 -0.13004860102E+02 -0.20130509065E+02  0.36306822669E+02  0.51100000000E-03 0.  1.
         23    2    1    0    0    0  0.10413898204E+02 -0.44137865029E+01  0.26092211787E+02  0.96561745781E+02  0.92279122478E+02 0.  0.
         11    1    3    3    0    0  0.37686990998E+02  0.85910735986E+01  0.46222720851E+02  0.60254923112E+02  0.51100000000E-03 0. -1.
         22    1    1    0    0    0 -0.10413898204E+02  0.44137865029E+01 -0.26092211787E+02  0.28438254219E+02  0.00000000000E+00 0. -1.
</event>
<event>
 5    1  0.1717518E-003  0.9118800E+02  0.7818608E-02  0.1130116E+00
         25   -1    0    0    0    0  0.00000000000E+00  0.00000000000E+00  0.99999998245E-14  0.12500000000E+03  0.12500000000E+03 0.  0.
        -11    1    3    3    0    0 -0.20762792067E+02 -0.51421688685E+02  0.26377190971E+02  0.61408792574E+02  0.51100000000E-03 0.  1.
         23    2    1    0    0    0 -0.47232184803E+01 -0.29150039666E+02  0.81164158639E+01  0.94374686747E+02  0.89267416714E+02 0.  0.
         11    1    3    3    0    0  0.16039573586E+02  0.22271649019E+02 -0.18260775107E+02  0.32965894173E+02  0.51100000000E-03 0. -1.
         22    1    1    0    0    0  0.47232184803E+01  0.29150039666E+02 -0.81164158639E+01  0.30625313253E+02  0.00000000000E+00 0.  1.
</event>
<event>
 5    1  0.1717518E-003  0.9118800E+02  0.7818608E-02  0.1130116E+00
         25   -1    0    0    0    0  0.00000000000E+00  0.00000000000E+00  0.99999998245E-14  0.12500000000E+03  0.12500000000E+03 0.  0.
        -11    1    3    3    0    0 -0.21616520999E+02  0.21245865522E+02  0.20439000234E+02  0.36556989929E+02  0.51100000000E-03 0. -1.
         23    2    1    0    0    0  0.22674222532E+01 -0.95366291022E+01 -0.26022427854E+02  0.97192532483E+02  0.93129657579E+02 0.  0.
         11    1    3    3    0    0  0.23883943252E+02 -0.30782494624E+02 -0.46461428088E+02  0.60635542554E+02  0.51100000000E-03 0.  1.
         22    1    1    0    0    0 -0.22674222532E+01  0.95366291022E+01  0.26022427854E+02  0.27807467517E+02  0.00000000000E+00 0.  1.
</event>
<event>
 5    1  0.1717518E-003  0.9118800E+02  0.7818608E-02  0.1130116E+00
         25   -1    0    0    0    0  0.00000000000E+00  0.00000000000E+00  0.99999998245E-14  0.12500000000E+03  0.12500000000E+03 0.  0.
        -11    1    3    3    0    0  0.35701613329E+02  0.58946651291E+01 -0.20918389883E+01  0.36245386767E+02  0.51100000000E-03 0.  1.
         23    2    1    0    0    0 -0.22754164861E+02  0.17840099978E+02 -0.31204632140E+01  0.95918073028E+02  0.91403053871E+02 0.  0.
         11    1    3    3    0    0 -0.58455778190E+02  0.11945434849E+02 -0.10286242256E+01  0.59672686261E+02  0.51100000000E-03 0. -1.
         22    1    1    0    0    0  0.22754164861E+02 -0.17840099978E+02  0.31204632140E+01  0.29081926972E+02  0.00000000000E+00 0. -1.
</event>
<event>
 5    1  0.1717518E-003  0.9118800E+02  0.7818608E-02  0.1130116E+00
         25   -1    0    0    0    0  0.00000000000E+00  0.00000000000E+00  0.99999998245E-14  0.12500000000E+03  0.12500000000E+03 0.  0.
        -11    1    3    3    0    0 -0.12732424859E+02 -0.57260041167E+02 -0.21783219285E+01  0.58698995255E+02  0.51100000000E-03 0. -1.
         23    2    1    0    0    0 -0.16000408789E+02 -0.21984026272E+02 -0.11724411599E+02  0.95389658565E+02  0.90677531072E+02 0.  0.
         11    1    3    3    0    0 -0.32679839298E+01  0.35276014896E+02 -0.95460896705E+01  0.36690663310E+02  0.51100000000E-03 0.  1.
         22    1    1    0    0    0  0.16000408789E+02  0.21984026272E+02  0.11724411599E+02  0.29610341435E+02  0.00000000000E+00 0. -1.
</event>
<event>
 5    1  0.1717518E-003  0.9118800E+02  0.7818608E-02  0.1130116E+00
         25   -1    0    0    0    0  0.00000000000E+00  0.00000000000E+00  0.99999998245E-14  0.12500000000E+03  0.12500000000E+03 0.  0.
        -11    1    3    3    0    0 -0.29632942751E+02  0.26747774905E+02 -0.23325213773E+02  0.46234406628E+02  0.51100000000E-03 0.  1.
         23    2    1    0    0    0 -0.55586688144E+01  0.84894518405E+01 -0.42024664735E+02  0.81767581173E+02  0.69403856473E+02 0.  0.
         11    1    3    3    0    0  0.24074273937E+02 -0.18258323064E+02 -0.18699450962E+02  0.35533174545E+02  0.51100000000E-03 0. -1.
         22    1    1    0    0    0  0.55586688144E+01 -0.84894518405E+01  0.42024664735E+02  0.43232418827E+02  0.00000000000E+00 0. -1.
</event>
<event>
 5    1  0.1717518E-003  0.9118800E+02  0.7818608E-02  0.1130116E+00
         25   -1    0    0    0    0  0.00000000000E+00  0.00000000000E+00  0.99999998245E-14  0.12500000000E+03  0.12500000000E+03 0.  0.
        -11    1    3    3    0    0  0.13604737050E+02  0.37977253381E+02 -0.45733205633E+02  0.60982675755E+02  0.51100000000E-03 0. -1.
         23    2    1    0    0    0  0.10092938877E+02  0.22178257161E+02 -0.13276124489E+02  0.97251162415E+02  0.93208318319E+02 0.  0.
         11    1    3    3    0    0 -0.35117981731E+01 -0.15798996220E+02  0.32457081144E+02  0.36268486660E+02  0.51100000000E-03 0.  1.
         22    1    1    0    0    0 -0.10092938877E+02 -0.22178257161E+02  0.13276124489E+02  0.27748837585E+02  0.00000000000E+00 0. -1.
</event>
<event>
 5    1  0.1717518E-003  0.9118800E+02  0.7818608E-02  0.1130116E+00
         25   -1    0    0    0    0  0.00000000000E+00  0.00000000000E+00  0.99999998245E-14  0.12500000000E+03  0.12500000000E+03 0.  0.
        -11    1    3    3    0    0 -0.25348581070E+02 -0.32515134709E+02 -0.36822653069E+02  0.55278316967E+02  0.51100000000E-03 0.  1.
         23    2    1    0    0    0 -0.86067706227E+01  0.42280700761E+01 -0.26302671260E+02  0.97003864686E+02  0.92876079651E+02 0.  0.
         11    1    3    3    0    0  0.16741810447E+02  0.36743204785E+02  0.10519981809E+02  0.41725547719E+02  0.51100000000E-03 0. -1.
         22    1    1    0    0    0  0.86067706227E+01 -0.42280700761E+01  0.26302671260E+02  0.27996135314E+02  0.00000000000E+00 0.  1.
</event>
<event>
 5    1  0.1717518E-003  0.9118800E+02  0.7818608E-02  0.1130116E+00
         25   -1    0    0    0    0  0.00000000000E+00  0.00000000000E+00  0.99999998245E-14  0.12500000000E+03  0.12500000000E+03 0.  0.
        -11    1    3    3    0    0  0.23267819247E+02 -0.10050316407E+01 -0.44207133622E+02  0.49966710562E+02  0.51100000000E-03 0. -1.
         23    2    1    0    0    0 -0.16904700919E+02  0.41578896447E+01 -0.24327731356E+02  0.95085196434E+02  0.90256850757E+02 0.  0.
         11    1    3    3    0    0 -0.40172520166E+02  0.51629212853E+01  0.19879402266E+02  0.45118485872E+02  0.51100000000E-03 0.  1.
         22    1    1    0    0    0  0.16904700919E+02 -0.41578896447E+01  0.24327731356E+02  0.29914803566E+02  0.00000000000E+00 0.  1.
</event>
<event>
 5    1  0.1717518E-003  0.9118800E+02  0.7818608E-02  0.1130116E+00
         25   -1    0    0    0    0  0.00000000000E+00  0.00000000000E+00  0.99999998245E-14  0.12500000000E+03  0.12500000000E+03 0.  0.
        -11    1    3    3    0    0  0.20245186489E+02 -0.20308274917E+02  0.19094489408E+02  0.34451315390E+02  0.51100000000E-03 0.  1.
         23    2    1    0    0    0 -0.24530779921E+01  0.28423039778E+02 -0.89701111766E+01  0.95094320333E+02  0.90269485892E+02 0.  0.
         11    1    3    3    0    0 -0.22698264481E+02  0.48731314695E+02 -0.28064600584E+02  0.60643004943E+02  0.51100000000E-03 0. -1.
         22    1    1    0    0    0  0.24530779921E+01 -0.28423039778E+02  0.89701111766E+01  0.29905679667E+02  0.00000000000E+00 0. -1.
</event>
<event>
 5    1  0.1717518E-003  0.9118800E+02  0.7818608E-02  0.1130116E+00
         25   -1    0    0    0    0  0.00000000000E+00  0.00000000000E+00  0.99999998245E-14  0.12500000000E+03  0.12500000000E+03 0.  0.
        -11    1    3    3    0    0 -0.22262095348E+02 -0.23987874415E+01 -0.46880358653E+02  0.51953085550E+02  0.51100000000E-03 0.  1.
         23    2    1    0    0    0 -0.27139734910E+02 -0.80396112436E+01 -0.29167902024E+01  0.96544627484E+02  0.92255931360E+02 0.  0.
         11    1    3    3    0    0 -0.48776395619E+01 -0.56408238021E+01  0.43963568451E+02  0.44591541934E+02  0.51100000000E-03 0. -1.
         22    1    1    0    0    0  0.27139734910E+02  0.80396112436E+01  0.29167902024E+01  0.28455372516E+02  0.00000000000E+00 0.  1.
</event>
<event>
 5    1  0.1717518E-003  0.9118800E+02  0.7818608E-02  0.1130116E+00
         25   -1    0    0    0    0  0.00000000000E+00  0.00000000000E+00  0.99999998245E-14  0.12500000000E+03  0.12500000000E+03 0.  0.
        -11    1    3    3    0    0 -0.15635630803E+02 -0.36591128285E+02 -0.90393937612E+01  0.40805566528E+02  0.51100000000E-03 0. -1.
         23    2    1    0    0    0  0.16854967216E+02  0.52729217895E+01 -0.23375318963E+02  0.95703256825E+02  0.91108804219E+02 0.  0.
         11    1    3    3    0    0  0.32490598019E+02  0.41864050075E+02 -0.14335925202E+02  0.54897690297E+02  0.51100000000E-03 0.  1.
         22    1    1    0    0    0 -0.16854967216E+02 -0.52729217895E+01  0.23375318963E+02  0.29296743175E+02  0.00000000000E+00 0.  1.
</event>
<event>
 5    1  0.1717518E-003  0.9118800E+02  0.7818608E-02  0.1130116E+00
         25   -1    0    0    0    0  0.00000000000E+00  0.00000000000E+00  0.99999998245E-14  0.12500000000E+03  0.12500000000E+03 0.  0.
        -11    1    3    3    0    0 -0.53177776997E+01 -0.35525461652E+02 -0.39426484697E+01  0.36136984690E+02  0.51100000000E-03 0.  1.
         23    2    1    0    0    0  0.87412837430E+01  0.21341656097E+02 -0.17239409444E+02  0.96206362432E+02  0.91796462938E+02 0.  0.
         11    1    3    3    0    0  0.14059061443E+02  0.56867117749E+02 -0.13296760974E+02  0.60069377742E+02  0.51100000000E-03 0. -1.
         22    1    1    0    0    0 -0.87412837430E+01 -0.21341656097E+02  0.17239409444E+02  0.28793637568E+02  0.00000000000E+00 0. -1.
</event>
<event>
 5    1  0.1717518E-003  0.9118800E+02  0.7818608E-02  0.1130116E+00
         25   -1    0    0    0    0  0.00000000000E+00  0.00000000000E+00  0.99999998245E-14  0.12500000000E+03  0.12500000000E+03 0.  0.
        -11    1    3    3    0    0 -0.19741460329E+02 -0.46633023034E+02  0.23755088928E+02  0.55934500476E+02  0.51100000000E-03 0.  1.
         23    2    1    0    0    0 -0.84252904195E+01 -0.30777163644E+02 -0.69924116601E+01  0.92333302257E+02  0.86361597740E+02 0.  0.
         11    1    3    3    0    0  0.11316169909E+02  0.15855859390E+02 -0.30747500588E+02  0.36398801781E+02  0.51100000000E-03 0. -1.
         22    1    1    0    0    0  0.84252904195E+01  0.30777163644E+02  0.69924116601E+01  0.32666697743E+02  0.00000000000E+00 0.  1.
</event>
<event>
 5    1  0.1717518E-003  0.9118800E+02  0.7818608E-02  0.1130116E+00
         25   -1    0    0    0    0  0.00000000000E+00  0.00000000000E+00  0.99999998245E-14  0.12500000000E+03  0.12500000000E+03 0.  0.
        -11    1    3    3    0    0 -0.17301649066E+02 -0.33624537761E+02 -0.44922155525E+01  0.38080659145E+02  0.51100000000E-03 0. -1.
         23    2    1    0    0    0 -0.38901144910E+01  0.78378878303E+01  0.30058876247E+02  0.93693426926E+02  0.88308304998E+02 0.  0.
         11    1    3    3    0    0  0.13411534575E+02  0.41462425591E+02  0.34551091799E+02  0.55612767782E+02  0.51100000000E-03 0.  1.
         22    1    1    0    0    0  0.38901144910E+01 -0.78378878303E+01 -0.30058876247E+02  0.31306573074E+02  0.00000000000E+00 0.  1.
</event>
<event>
 5    1  0.1717518E-003  0.9118800E+02  0.7818608E-02  0.1130116E+00
         25   -1    0    0    0    0  0.00000000000E+00  0.00000000000E+00  0.99999998245E-14  0.12500000000E+03  0.12500000000E+03 0.  0.
        -11    1    3    3    0    0 -0.19307053602E+02  0.35257015143E+02 -0.31939501261E+01  0.40323947639E+02  0.51100000000E-03 0. -1.
         23    2    1    0    0    0  0.14416609607E+02  0.38023995166E+01  0.26088757786E+02  0.94951370124E+02  0.90071319136E+02 0.  0.
         11    1    3    3    0    0  0.33723663208E+02 -0.31454615626E+02  0.29282707912E+02  0.54627422484E+02  0.51100000000E-03 0.  1.
         22    1    1    0    0    0 -0.14416609607E+02 -0.38023995166E+01 -0.26088757786E+02  0.30048629876E+02  0.00000000000E+00 0. -1.
</event>
<event>
 5    1  0.1717518E-003  0.9118800E+02  0.7818608E-02  0.1130116E+00
         25   -1    0    0    0    0  0.00000000000E+00  0.00000000000E+00  0.99999998245E-14  0.12500000000E+03  0.12500000000E+03 0.  0.
        -11    1    3    3    0    0  0.12699364328E+02 -0.51032826111E+02 -0.11962048195E+02  0.53932492919E+02  0.51100000000E-03 0. -1.
         23    2    1    0    0    0  0.12164998300E+02 -0.21780999037E+02  0.16770885135E+02  0.94939033767E+02  0.90054197246E+02 0.  0.
         11    1    3    3    0    0 -0.53436602735E+00  0.29251827075E+02  0.28732933330E+02  0.41006540847E+02  0.51100000000E-03 0.  1.
         22    1    1    0    0    0 -0.12164998300E+02  0.21780999037E+02 -0.16770885135E+02  0.30060966233E+02  0.00000000000E+00 0.  1.
</event>
<event>
 5    1  0.1717518E-003  0.9118800E+02  0.7818608E-02  0.1130116E+00
         25   -1    0    0    0    0  0.00000000000E+00  0.00000000000E+00  0.99999998245E-14  0.12500000000E+03  0.12500000000E+03 0.  0.
        -11    1    3    3    0    0  0.79805036101E+01 -0.40726962798E+02 -0.17301934635E+01  0.41537543335E+02  0.51100000000E-03 0.  1.
         23    2    1    0    0    0 -0.23322379544E+01 -0.10858393015E+02  0.33997767862E+02  0.89234202758E+02  0.81752985814E+02 0.  0.
         11    1    3    3    0    0 -0.10312741565E+02  0.29868569783E+02  0.35727961325E+02  0.47696659423E+02  0.51100000000E-03 0. -1.
         22    1    1    0    0    0  0.23322379544E+01  0.10858393015E+02 -0.33997767862E+02  0.35765797242E+02  0.00000000000E+00 0. -1.
</event>
<event>
 5    1  0.1717518E-003  0.9118800E+02  0.7818608E-02  0.1130116E+00
         25   -1    0    0    0    0  0.00000000000E+00  0.00000000000E+00  0.99999998245E-14  0.12500000000E+03  0.12500000000E+03 0.  0.
        -11    1    3    3    0    0  0.36151698228E+02 -0.24088442132E+02  0.24397267784E+02  0.49823940076E+02  0.51100000000E-03 0. -1.
         23    2    1    0    0    0 -0.10262662278E+02 -0.20288189042E+02  0.16133874799E+02  0.97121069467E+02  0.93033689418E+02 0.  0.
         11    1    3    3    0    0 -0.46414360506E+02  0.38002530899E+01 -0.82633929844E+01  0.47297129391E+02  0.51100000000E-03 0.  1.
         22    1    1    0    0    0  0.10262662278E+02  0.20288189042E+02 -0.16133874799E+02  0.27878930533E+02  0.00000000000E+00 0.  1.
</event>
<event>
 5    1  0.1717518E-003  0.9118800E+02  0.7818608E-02  0.1130116E+00
         25   -1    0    0    0    0  0.00000000000E+00  0.00000000000E+00  0.99999998245E-14  0.12500000000E+03  0.12500000000E+03 0.  0.
        -11    1    3    3    0    0 -0.23009747139E+02 -0.48140622783E+02 -0.30807000136E+01  0.53445848652E+02  0.51100000000E-03 0. -1.
         23    2    1    0    0    0 -0.12685071116E+01 -0.21332889453E+02  0.20610510393E+02  0.95310028269E+02  0.90567693287E+02 0.  0.
         11    1    3    3    0    0  0.21741240028E+02  0.26807733329E+02  0.23691210407E+02  0.41864179617E+02  0.51100000000E-03 0.  1.
         22    1    1    0    0    0  0.12685071116E+01  0.21332889453E+02 -0.20610510393E+02  0.29689971731E+02  0.00000000000E+00 0. -1.
</event>
<event>
 5    1  0.1717518E-003  0.9118800E+02  0.7818608E-02  0.1130116E+00
         25   -1    0    0    0    0  0.00000000000E+00  0.00000000000E+00  0.99999998245E-14  0.12500000000E+03  0.12500000000E+03 0.  0.
        -11    1    3    3    0    0 -0.34121884732E+02  0.61539970026E+01 -0.11288049839E+02  0.36463608792E+02  0.51100000000E-03 0.  1.
         23    2    1    0    0    0  0.96109969279E+01  0.73782002107E+01  0.27510677856E+02  0.94939286495E+02  0.90054548046E+02 0.  0.
         11    1    3    3    0    0  0.43732881659E+02  0.12242032081E+01  0.38798727696E+02  0.58475677703E+02  0.51100000000E-03 0. -1.
         22    1    1    0    0    0 -0.96109969279E+01 -0.73782002107E+01 -0.27510677856E+02  0.30060713505E+02  0.00000000000E+00 0. -1.
</event>
<event>
 5    1  0.1717518E-003  0.9118800E+02  0.7818608E-02  0.1130116E+00
         25   -1    0    0    0    0  0.00000000000E+00  0.00000000000E+00  0.99999998245E-14  0.12500000000E+03  0.12500000000E+03 0.  0.
        -11    1    3    3    0    0  0.24443432315E+02 -0.39834430222E+02  0.15879342948E+02  0.49360072398E+02  0.51100000000E-03 0. -1.
         23    2    1    0    0    0  0.26230788452E+02 -0.47901291482E+00 -0.10467025034E+02  0.96753897096E+02  0.92539041891E+02 0.  0.
         11    1    3    3    0    0  0.17873561368E+01  0.39355417307E+02 -0.26346367982E+02  0.47393824698E+02  0.51100000000E-03 0.  1.
         22    1    1    0    0    0 -0.26230788452E+02  0.47901291482E+00  0.10467025034E+02  0.28246102904E+02  0.00000000000E+00 0. -1.
</event>
<event>
 5    1  0.1717518E-003  0.9118800E+02  0.7818608E-02  0.1130116E+00
         25   -1    0    0    0    0  0.00000000000E+00  0.00000000000E+00  0.99999998245E-14  0.12500000000E+03  0.12500000000E+03 0.  0.
        -11    1    3    3    0    0 -0.12569050265E+02  0.46345573160E+02 -0.37421999156E+02  0.60879382365E+02  0.51100000000E-03 0. -1.
         23    2    1    0    0    0 -0.11923129535E+02  0.14600998616E+02 -0.21523881444E+02  0.96388330162E+02  0.92043916369E+02 0.  0.
         11    1    3    3    0    0  0.64592073013E+00 -0.31744574544E+02  0.15898117712E+02  0.35508947797E+02  0.51100000000E-03 0.  1.
         22    1    1    0    0    0  0.11923129535E+02 -0.14600998616E+02  0.21523881444E+02  0.28611669838E+02  0.00000000000E+00 0. -1.
</event>
<event>
 5    1  0.1717518E-003  0.9118800E+02  0.7818608E-02  0.1130116E+00
         25   -1    0    0    0    0  0.00000000000E+00  0.00000000000E+00  0.99999998245E-14  0.12500000000E+03  0.12500000000E+03 0.  0.
        -11    1    3    3    0    0 -0.34990373854E+01 -0.27903331371E+02  0.38611881410E+02  0.47767316761E+02  0.51100000000E-03 0.  1.
         23    2    1    0    0    0 -0.21657492125E+02  0.10133367283E+02  0.19936086997E+02  0.93868349507E+02  0.88555560959E+02 0.  0.
         11    1    3    3    0    0 -0.18158454740E+02  0.38036698654E+02 -0.18675794413E+02  0.46101032746E+02  0.51100000000E-03 0. -1.
         22    1    1    0    0    0  0.21657492125E+02 -0.10133367283E+02 -0.19936086997E+02  0.31131650493E+02  0.00000000000E+00 0. -1.
</event>
<event>
 5    1  0.1717518E-003  0.9118800E+02  0.7818608E-02  0.1130116E+00
         25   -1    0    0    0    0  0.00000000000E+00  0.00000000000E+00  0.99999998245E-14  0.12500000000E+03  0.12500000000E+03 0.  0.
        -11    1    3    3    0    0  0.33658314517E+02 -0.15618781875E+02 -0.23066420460E+02  0.43690825542E+02  0.51100000000E-03 0. -1.
         23    2    1    0    0    0  0.16231911535E+01 -0.99573319231E+01 -0.42320750666E+02  0.81493343665E+02  0.68908170170E+02 0.  0.
         11    1    3    3    0    0 -0.32035123364E+02  0.56614499522E+01 -0.19254330206E+02  0.37802518123E+02  0.51100000000E-03 0.  1.
         22    1    1    0    0    0 -0.16231911535E+01  0.99573319231E+01  0.42320750666E+02  0.43506656335E+02  0.00000000000E+00 0.  1.
</event>
<event>
 5    1  0.1717518E-003  0.9118800E+02  0.7818608E-02  0.1130116E+00
         25   -1    0    0    0    0  0.00000000000E+00  0.00000000000E+00  0.99999998245E-14  0.12500000000E+03  0.12500000000E+03 0.  0.
        -11    1    3    3    0    0  0.37649044690E+02  0.38621992066E+02  0.21016267131E+02  0.57886028725E+02  0.51100000000E-03 0. -1.
         23    2    1    0    0    0  0.25141775146E+02  0.19871475767E+02 -0.52815355295E+01  0.92521098784E+02  0.86632988497E+02 0.  0.
         11    1    3    3    0    0 -0.12507269544E+02 -0.18750516299E+02 -0.26297802661E+02  0.34635070059E+02  0.51100000000E-03 0.  1.
         22    1    1    0    0    0 -0.25141775146E+02 -0.19871475767E+02  0.52815355295E+01  0.32478901216E+02  0.00000000000E+00 0. -1.
</event>
<event>
 5    1  0.1717518E-003  0.9118800E+02  0.7818608E-02  0.1130116E+00
         25   -1    0    0    0    0  0.00000000000E+00  0.00000000000E+00  0.99999998245E-14  0.12500000000E+03  0.12500000000E+03 0.  0.
        -11    1    3    3    0    0  0.25067382178E+02 -0.97362106554E+01  0.39962861254E+02  0.48168430813E+02  0.51100000000E-03 0.  1.
         23    2    1    0    0    0 -0.72531817876E+01  0.20213839942E+02  0.11320815331E+02  0.10072308028E+03  0.97753619219E+02 0.  0.
         11    1    3    3    0    0 -0.32320563965E+02  0.29950050598E+02 -0.28642045923E+02  0.52554649468E+02  0.51100000000E-03 0. -1.
         22    1    1    0    0    0  0.72531817876E+01 -0.20213839942E+02 -0.11320815331E+02  0.24276919718E+02  0.00000000000E+00 0. -1.
</event>
<event>
 5    1  0.1717518E-003  0.9118800E+02  0.7818608E-02  0.1130116E+00
         25   -1    0    0    0    0  0.00000000000E+00  0.00000000000E+00  0.99999998245E-14  0.12500000000E+03  0.12500000000E+03 0.  0.
        -11    1    3    3    0    0  0.34061360956E+02 -0.27688607036E+02  0.13809429430E+02  0.46016688398E+02  0.51100000000E-03 0. -1.
         23    2    1    0    0    0  0.19527353368E+02  0.15909978423E+02 -0.10148909195E+02  0.97844055884E+02  0.94000074314E+02 0.  0.
         11    1    3    3    0    0 -0.14534007588E+02  0.43598585459E+02 -0.23958338625E+02  0.51827367486E+02  0.51100000000E-03 0.  1.
         22    1    1    0    0    0 -0.19527353368E+02 -0.15909978423E+02  0.10148909195E+02  0.27155944116E+02  0.00000000000E+00 0.  1.
</event>
<event>
 5    1  0.1717518E-003  0.9118800E+02  0.7818608E-02  0.1130116E+00
         25   -1    0    0    0    0  0.00000000000E+00  0.00000000000E+00  0.99999998245E-14  0.12500000000E+03  0.12500000000E+03 0.  0.
        -11    1    3    3    0    0  0.12080081577E+02 -0.12740753834E+01 -0.47024706121E+02  0.48568247086E+02  0.51100000000E-03 0. -1.
         23    2    1    0    0    0 -0.11283440748E+01  0.27126385304E+02 -0.12729241007E+02  0.95014211422E+02  0.90158487429E+02 0.  0.
         11    1    3    3    0    0 -0.13208425651E+02  0.28400460688E+02  0.34295465114E+02  0.46445964336E+02  0.51100000000E-03 0.  1.
         22    1    1    0    0    0  0.11283440748E+01 -0.27126385304E+02  0.12729241007E+02  0.29985788578E+02  0.00000000000E+00 0. -1.
</event>
<event>
 5    1  0.1717518E-003  0.9118800E+02  0.7818608E-02  0.1130116E+00
         25   -1    0    0    0    0  0.00000000000E+00  0.00000000000E+00  0.99999998245E-14  0.12500000000E+03  0.12500000000E+03 0.  0.
        -11    1    3    3    0    0  0.28699613133E+02  0.14064932246E+02 -0.21310201712E+02  0.38413732054E+02  0.51100000000E-03 0.  1.
         23    2    1    0    0    0 -0.25426747690E+02 -0.52187664123E+01 -0.11084877092E+02  0.96775373854E+02  0.92568047746E+02 0.  0.
         11    1    3    3    0    0 -0.54126360822E+02 -0.19283698658E+02  0.10225324620E+02  0.58361641800E+02  0.51100000000E-03 0. -1.
         22    1    1    0    0    0  0.25426747690E+02  0.52187664123E+01  0.11084877092E+02  0.28224626146E+02  0.00000000000E+00 0. -1.
</event>
<event>
 5    1  0.1717518E-003  0.9118800E+02  0.7818608E-02  0.1130116E+00
         25   -1    0    0    0    0  0.00000000000E+00  0.00000000000E+00  0.99999998245E-14  0.12500000000E+03  0.12500000000E+03 0.  0.
        -11    1    3    3    0    0  0.35075418970E+02 -0.72218962109E+01  0.45156228711E+02  0.57632679900E+02  0.51100000000E-03 0. -1.
         23    2    1    0    0    0  0.12712513492E+02  0.13729338027E+02  0.22465452388E+02  0.95763049528E+02  0.91190802069E+02 0.  0.
         11    1    3    3    0    0 -0.22362905478E+02  0.20951234238E+02 -0.22690776324E+02  0.38130369627E+02  0.51100000000E-03 0.  1.
         22    1    1    0    0    0 -0.12712513492E+02 -0.13729338027E+02 -0.22465452388E+02  0.29236950472E+02  0.00000000000E+00 0. -1.
</event>
<event>
 5    1  0.1717518E-003  0.9118800E+02  0.7818608E-02  0.1130116E+00
         25   -1    0    0    0    0  0.00000000000E+00  0.00000000000E+00  0.99999998245E-14  0.12500000000E+03  0.12500000000E+03 0.  0.
        -11    1    3    3    0    0 -0.61547736416E+01  0.22799546012E+02 -0.24707911662E+02  0.34178669311E+02  0.51100000000E-03 0.  1.
         23    2    1    0    0    0  0.38770633971E+01 -0.14895972705E+02  0.23942794443E+02  0.96536356010E+02  0.92244723441E+02 0.  0.
         11    1    3    3    0    0  0.10031837039E+02 -0.37695518717E+02  0.48650706105E+02  0.62357686699E+02  0.51100000000E-03 0. -1.
         22    1    1    0    0    0 -0.38770633971E+01  0.14895972705E+02 -0.23942794443E+02  0.28463643990E+02  0.00000000000E+00 0. -1.
</event>
<event>
 5    1  0.1717518E-003  0.9118800E+02  0.7818608E-02  0.1130116E+00
         25   -1    0    0    0    0  0.00000000000E+00  0.00000000000E+00  0.99999998245E-14  0.12500000000E+03  0.12500000000E+03 0.  0.
        -11    1    3    3    0    0 -0.32180770015E+02 -0.38277541526E+02  0.35879290244E+02  0.61547506958E+02  0.51100000000E-03 0.  1.
         23    2    1    0    0    0 -0.82645709972E+01 -0.21726220088E+02  0.15523179235E+02  0.97048240365E+02  0.92935784773E+02 0.  0.
         11    1    3    3    0    0  0.23916199018E+02  0.16551321438E+02 -0.20356111009E+02  0.35500733407E+02  0.51100000000E-03 0. -1.
         22    1    1    0    0    0  0.82645709972E+01  0.21726220088E+02 -0.15523179235E+02  0.27951759635E+02  0.00000000000E+00 0.  1.
</event>
<event>
 5    1  0.1717518E-003  0.9118800E+02  0.7818608E-02  0.1130116E+00
         25   -1    0    0    0    0  0.00000000000E+00  0.00000000000E+00  0.99999998245E-14  0.12500000000E+03  0.12500000000E+03 0.  0.
        -11    1    3    3    0    0 -0.81637488236E+01  0.43633783520E+02 -0.17496598841E+02  0.47714618624E+02  0.51100000000E-03 0.  1.
         23    2    1    0    0    0 -0.44559067394E+01 -0.30109850389E+00 -0.30885141202E+02  0.93793627057E+02  0.88450024106E+02 0.  0.
         11    1    3    3    0    0  0.37078420842E+01 -0.43934882024E+02 -0.13388542361E+02  0.46079008433E+02  0.51100000000E-03 0. -1.
         22    1    1    0    0    0  0.44559067394E+01  0.30109850389E+00  0.30885141202E+02  0.31206372943E+02  0.00000000000E+00 0.  1.
</event>
<event>
 5    1  0.1717518E-003  0.9118800E+02  0.7818608E-02  0.1130116E+00
         25   -1    0    0    0    0  0.00000000000E+00  0.00000000000E+00  0.99999998245E-14  0.12500000000E+03  0.12500000000E+03 0.  0.
        -11    1    3    3    0    0 -0.20340477968E+02 -0.21590409889E+02  0.19881068596E+02  0.35709070723E+02  0.51100000000E-03 0.  1.
         23    2    1    0    0    0  0.23573539027E+02  0.84143332634E-01 -0.16078392419E+02  0.96465222532E+02  0.92148280684E+02 0.  0.
         11    1    3    3    0    0  0.43914016995E+02  0.21674553222E+02 -0.35959461015E+02  0.60756151809E+02  0.51100000000E-03 0. -1.
         22    1    1    0    0    0 -0.23573539027E+02 -0.84143332634E-01  0.16078392419E+02  0.28534777468E+02  0.00000000000E+00 0. -1.
</event>
<event>
 5    1  0.1717518E-003  0.9118800E+02  0.7818608E-02  0.1130116E+00
         25   -1    0    0    0    0  0.00000000000E+00  0.00000000000E+00  0.99999998245E-14  0.12500000000E+03  0.12500000000E+03 0.  0.
        -11    1    3    3    0    0  0.15658218841E+02  0.19406095679E+02  0.22352758665E+02  0.33487642302E+02  0.51100000000E-03 0.  1.
         23    2    1    0    0    0 -0.22609863222E+01 -0.30212458016E+02 -0.70646189586E+01  0.93890298626E+02  0.88586537671E+02 0.  0.
         11    1    3    3    0    0 -0.17919205163E+02 -0.49618553695E+02 -0.29417377623E+02  0.60402656324E+02  0.51100000000E-03 0. -1.
         22    1    1    0    0    0  0.22609863222E+01  0.30212458016E+02  0.70646189586E+01  0.31109701374E+02  0.00000000000E+00 0. -1.
</event>
<event>
 5    1  0.1717518E-003  0.9118800E+02  0.7818608E-02  0.1130116E+00
         25   -1    0    0    0    0  0.00000000000E+00  0.00000000000E+00  0.99999998245E-14  0.12500000000E+03  0.12500000000E+03 0.  0.
        -11    1    3    3    0    0 -0.29219916268E+01 -0.25812572145E+02  0.31444366851E+02  0.40786947946E+02  0.51100000000E-03 0.  1.
         23    2    1    0    0    0 -0.14920112993E+01  0.26032741064E+02  0.13253938758E+02  0.95749417140E+02  0.91172113528E+02 0.  0.
         11    1    3    3    0    0  0.14299803276E+01  0.51845313209E+02 -0.18190428093E+02  0.54962469194E+02  0.51100000000E-03 0. -1.
         22    1    1    0    0    0  0.14920112993E+01 -0.26032741064E+02 -0.13253938758E+02  0.29250582860E+02  0.00000000000E+00 0. -1.
</event>
<event>
 5    1  0.1717518E-003  0.9118800E+02  0.7818608E-02  0.1130116E+00
         25   -1    0    0    0    0  0.00000000000E+00  0.00000000000E+00  0.99999998245E-14  0.12500000000E+03  0.12500000000E+03 0.  0.
        -11    1    3    3    0    0  0.86395754732E+01 -0.30103541253E+02 -0.54589990596E+01  0.31790975627E+02  0.51100000000E-03 0.  1.
         23    2    1    0    0    0 -0.20539946198E+02  0.23976766820E+02 -0.78792582689E+00  0.93418429994E+02  0.87918186392E+02 0.  0.
         11    1    3    3    0    0 -0.29179521671E+02  0.54080308073E+02  0.46710732327E+01  0.61627454366E+02  0.51100000000E-03 0. -1.
         22    1    1    0    0    0  0.20539946198E+02 -0.23976766820E+02  0.78792582689E+00  0.31581570006E+02  0.00000000000E+00 0. -1.
</event>
<event>
 5    1  0.1717518E-003  0.9118800E+02  0.7818608E-02  0.1130116E+00
         25   -1    0    0    0    0  0.00000000000E+00  0.00000000000E+00  0.99999998245E-14  0.12500000000E+03  0.12500000000E+03 0.  0.
        -11    1    3    3    0    0  0.20133323380E+02 -0.48758418866E+02  0.99011977261E+01  0.53672784885E+02  0.51100000000E-03 0. -1.
         23    2    1    0    0    0  0.23762044036E+01 -0.23403470095E+02 -0.18026207746E+02  0.95363655327E+02  0.90641678227E+02 0.  0.
         11    1    3    3    0    0 -0.17757118977E+02  0.25354948771E+02 -0.27927405472E+02  0.41690870442E+02  0.51100000000E-03 0.  1.
         22    1    1    0    0    0 -0.23762044036E+01  0.23403470095E+02  0.18026207746E+02  0.29636344673E+02  0.00000000000E+00 0. -1.
</event>
<event>
 5    1  0.1717518E-003  0.9118800E+02  0.7818608E-02  0.1130116E+00
         25   -1    0    0    0    0  0.00000000000E+00  0.00000000000E+00  0.99999998245E-14  0.12500000000E+03  0.12500000000E+03 0.  0.
        -11    1    3    3    0    0  0.50767383540E+02  0.22181105292E+02  0.27706965809E+02  0.61943559941E+02  0.51100000000E-03 0.  1.
         23    2    1    0    0    0  0.22790413285E+02  0.13584655195E+02  0.77807994417E+01  0.97350648571E+02  0.93341642062E+02 0.  0.
         11    1    3    3    0    0 -0.27976970255E+02 -0.85964500967E+01 -0.19926166368E+02  0.35407088630E+02  0.51100000000E-03 0. -1.
         22    1    1    0    0    0 -0.22790413285E+02 -0.13584655195E+02 -0.77807994417E+01  0.27649351429E+02  0.00000000000E+00 0.  1.
</event>
<event>
 5    1  0.1717518E-003  0.9118800E+02  0.7818608E-02  0.1130116E+00
         25   -1    0    0    0    0  0.00000000000E+00  0.00000000000E+00  0.99999998245E-14  0.12500000000E+03  0.12500000000E+03 0.  0.
        -11    1    3    3    0    0 -0.38772634215E+01  0.41672710651E+01  0.35210372869E+02  0.35667487682E+02  0.51100000000E-03 0.  1.
         23    2    1    0    0    0 -0.12689561310E+02  0.11044200531E+02 -0.23870920698E+02  0.95796914777E+02  0.91237211127E+02 0.  0.
         11    1    3    3    0    0 -0.88122978887E+01  0.68769294656E+01 -0.59081293566E+02  0.60129427094E+02  0.51100000000E-03 0. -1.
         22    1    1    0    0    0  0.12689561310E+02 -0.11044200531E+02  0.23870920698E+02  0.29203085223E+02  0.00000000000E+00 0. -1.
</event>
<event>
 5    1  0.1717518E-003  0.9118800E+02  0.7818608E-02  0.1130116E+00
         25   -1    0    0    0    0  0.00000000000E+00  0.00000000000E+00  0.99999998245E-14  0.12500000000E+03  0.12500000000E+03 0.  0.
        -11    1    3    3    0    0  0.34906286728E+02 -0.44359424456E+02  0.37009449671E+01  0.56567697364E+02  0.51100000000E-03 0. -1.
         23    2    1    0    0    0  0.27276672557E+02 -0.79581002681E+01 -0.78664488728E+01  0.95517306034E+02  0.90853324146E+02 0.  0.
         11    1    3    3    0    0 -0.76296141713E+01  0.36401324188E+02 -0.11567393840E+02  0.38949608670E+02  0.51100000000E-03 0.  1.
         22    1    1    0    0    0 -0.27276672557E+02  0.79581002681E+01  0.78664488728E+01  0.29482693966E+02  0.00000000000E+00 0. -1.
</event>
<event>
 5    1  0.1717518E-003  0.9118800E+02  0.7818608E-02  0.1130116E+00
         25   -1    0    0    0    0  0.00000000000E+00  0.00000000000E+00  0.99999998245E-14  0.12500000000E+03  0.12500000000E+03 0.  0.
        -11    1    3    3    0    0 -0.14119730959E+02 -0.36879422248E+02  0.35405895335E+02  0.53038061922E+02  0.51100000000E-03 0. -1.
         23    2    1    0    0    0  0.16192850597E+02 -0.95762251685E+01  0.22161940828E+02  0.95930013412E+02  0.91419381715E+02 0.  0.
         11    1    3    3    0    0  0.30312581557E+02  0.27303197080E+02 -0.13243954507E+02  0.42891951490E+02  0.51100000000E-03 0.  1.
         22    1    1    0    0    0 -0.16192850597E+02  0.95762251685E+01 -0.22161940828E+02  0.29069986588E+02  0.00000000000E+00 0. -1.
</event>
<event>
 5    1  0.1717518E-003  0.9118800E+02  0.7818608E-02  0.1130116E+00
         25   -1    0    0    0    0  0.00000000000E+00  0.00000000000E+00  0.99999998245E-14  0.12500000000E+03  0.12500000000E+03 0.  0.
        -11    1    3    3    0    0  0.27089595607E+02  0.25486949352E+02 -0.96503557757E+01  0.38426034720E+02  0.51100000000E-03 0. -1.
         23    2    1    0    0    0 -0.18317497120E+02 -0.79229284414E+01 -0.21106184520E+02  0.95952202823E+02  0.91449716816E+02 0.  0.
         11    1    3    3    0    0 -0.45407092727E+02 -0.33409877794E+02 -0.11455828745E+02  0.57526168103E+02  0.51100000000E-03 0.  1.
         22    1    1    0    0    0  0.18317497120E+02  0.79229284414E+01  0.21106184520E+02  0.29047797177E+02  0.00000000000E+00 0.  1.
</event>
<event>
 5    1  0.1717518E-003  0.9118800E+02  0.7818608E-02  0.1130116E+00
         25   -1    0    0    0    0  0.00000000000E+00  0.00000000000E+00  0.99999998245E-14  0.12500000000E+03  0.12500000000E+03 0.  0.
        -11    1    3    3    0    0  0.35665507883E+02 -0.22436807033E+02  0.20223869140E+02  0.46738032111E+02  0.51100000000E-03 0.  1.
         23    2    1    0    0    0  0.22587518990E+02 -0.39348594137E+01 -0.21084037064E+02  0.93851713504E+02  0.88532075407E+02 0.  0.
         11    1    3    3    0    0 -0.13077988892E+02  0.18501947620E+02 -0.41307906204E+02  0.47113681393E+02  0.51100000000E-03 0. -1.
         22    1    1    0    0    0 -0.22587518990E+02  0.39348594137E+01  0.21084037064E+02  0.31148286496E+02  0.00000000000E+00 0.  1.
</event>
<event>
 5    1  0.1717518E-003  0.9118800E+02  0.7818608E-02  0.1130116E+00
         25   -1    0    0    0    0  0.00000000000E+00  0.00000000000E+00  0.99999998245E-14  0.12500000000E+03  0.12500000000E+03 0.  0.
        -11    1    3    3    0    0 -0.39891822299E+02  0.24038955354E+02  0.26826678876E+02  0.53748484264E+02  0.51100000000E-03 0. -1.
         23    2    1    0    0    0 -0.11410349681E+02 -0.66416741394E+01  0.26251776975E+02  0.95615246988E+02  0.90987975838E+02 0.  0.
         11    1    3    3    0    0  0.28481472618E+02 -0.30680629493E+02 -0.57490190131E+00  0.41866762725E+02  0.51100000000E-03 0.  1.
         22    1    1    0    0    0  0.11410349681E+02  0.66416741394E+01 -0.26251776975E+02  0.29384753012E+02  0.00000000000E+00 0. -1.
</event>
<event>
 5    1  0.1717518E-003  0.9118800E+02  0.7818608E-02  0.1130116E+00
         25   -1    0    0    0    0  0.00000000000E+00  0.00000000000E+00  0.99999998245E-14  0.12500000000E+03  0.12500000000E+03 0.  0.
        -11    1    3    3    0    0 -0.21456336650E+02  0.27754935531E+02  0.14235966757E+02  0.37859920477E+02  0.51100000000E-03 0.  1.
         23    2    1    0    0    0  0.27228047075E+02 -0.19590976914E+00  0.14817827506E+02  0.94000436452E+02  0.88741811526E+02 0.  0.
         11    1    3    3    0    0  0.48684383725E+02 -0.27950845300E+02  0.58186074902E+00  0.56140515975E+02  0.51100000000E-03 0. -1.
         22    1    1    0    0    0 -0.27228047075E+02  0.19590976914E+00 -0.14817827506E+02  0.30999563548E+02  0.00000000000E+00 0. -1.
</event>
<event>
 5    1  0.1717518E-003  0.9118800E+02  0.7818608E-02  0.1130116E+00
         25   -1    0    0    0    0  0.00000000000E+00  0.00000000000E+00  0.99999998245E-14  0.12500000000E+03  0.12500000000E+03 0.  0.
        -11    1    3    3    0    0 -0.19097885071E+02  0.16101932832E+02 -0.49967917485E+02  0.55864069250E+02  0.51100000000E-03 0. -1.
         23    2    1    0    0    0 -0.25068065901E+02 -0.12214692691E+01 -0.13922976066E+02  0.96298969047E+02  0.91922479633E+02 0.  0.
         11    1    3    3    0    0 -0.59701808306E+01 -0.17323402101E+02  0.36044941419E+02  0.40434899798E+02  0.51100000000E-03 0.  1.
         22    1    1    0    0    0  0.25068065901E+02  0.12214692691E+01  0.13922976066E+02  0.28701030953E+02  0.00000000000E+00 0. -1.
</event>
<event>
 5    1  0.1717518E-003  0.9118800E+02  0.7818608E-02  0.1130116E+00
         25   -1    0    0    0    0  0.00000000000E+00  0.00000000000E+00  0.99999998245E-14  0.12500000000E+03  0.12500000000E+03 0.  0.
        -11    1    3    3    0    0 -0.43316268788E+01  0.30759485874E+02  0.16828234323E+02  0.35328436610E+02  0.51100000000E-03 0. -1.
         23    2    1    0    0    0 -0.15155617698E+02 -0.25381701790E+02 -0.15848665920E+01  0.95395349425E+02  0.90685375647E+02 0.  0.
         11    1    3    3    0    0 -0.10823990819E+02 -0.56141187664E+02 -0.18413100915E+02  0.60066912815E+02  0.51100000000E-03 0.  1.
         22    1    1    0    0    0  0.15155617698E+02  0.25381701790E+02  0.15848665920E+01  0.29604650575E+02  0.00000000000E+00 0.  1.
</event>
<event>
 5    1  0.1717518E-003  0.9118800E+02  0.7818608E-02  0.1130116E+00
         25   -1    0    0    0    0  0.00000000000E+00  0.00000000000E+00  0.99999998245E-14  0.12500000000E+03  0.12500000000E+03 0.  0.
        -11    1    3    3    0    0 -0.94821194059E+01  0.17231069573E+02 -0.33568095876E+02  0.38905493289E+02  0.51100000000E-03 0. -1.
         23    2    1    0    0    0  0.23010749957E+02 -0.15670839317E+02  0.17691009142E+01  0.97103772002E+02  0.93010445653E+02 0.  0.
         11    1    3    3    0    0  0.32492869363E+02 -0.32901908890E+02  0.35337196790E+02  0.58198278714E+02  0.51100000000E-03 0.  1.
         22    1    1    0    0    0 -0.23010749957E+02  0.15670839317E+02 -0.17691009142E+01  0.27896227998E+02  0.00000000000E+00 0.  1.
</event>
<event>
 5    1  0.1717518E-003  0.9118800E+02  0.7818608E-02  0.1130116E+00
         25   -1    0    0    0    0  0.00000000000E+00  0.00000000000E+00  0.99999998245E-14  0.12500000000E+03  0.12500000000E+03 0.  0.
        -11    1    3    3    0    0  0.38118280935E+02  0.16444122550E+02 -0.24617037992E+02  0.48263972771E+02  0.51100000000E-03 0.  1.
         23    2    1    0    0    0  0.10066620487E+02 -0.18057973476E+02  0.73818400881E+01  0.10304735057E+03  0.10068186352E+03 0.  0.
         11    1    3    3    0    0 -0.28051660448E+02 -0.34502096026E+02  0.31998878080E+02  0.54783377796E+02  0.51100000000E-03 0. -1.
         22    1    1    0    0    0 -0.10066620487E+02  0.18057973476E+02 -0.73818400881E+01  0.21952649434E+02  0.00000000000E+00 0.  1.
</event>
<event>
 5    1  0.1717518E-003  0.9118800E+02  0.7818608E-02  0.1130116E+00
         25   -1    0    0    0    0  0.00000000000E+00  0.00000000000E+00  0.99999998245E-14  0.12500000000E+03  0.12500000000E+03 0.  0.
        -11    1    3    3    0    0  0.42976992317E+02  0.14600685600E+01 -0.40080328429E+02  0.58784235949E+02  0.51100000000E-03 0. -1.
         23    2    1    0    0    0  0.10199984131E+02  0.88146585024E+01 -0.26978386326E+02  0.94840901712E+02  0.89917881581E+02 0.  0.
         11    1    3    3    0    0 -0.32777008186E+02  0.73545899424E+01  0.13101942103E+02  0.36056665763E+02  0.51100000000E-03 0.  1.
         22    1    1    0    0    0 -0.10199984131E+02 -0.88146585024E+01  0.26978386326E+02  0.30159098288E+02  0.00000000000E+00 0. -1.
</event>
<event>
 5    1  0.1717518E-003  0.9118800E+02  0.7818608E-02  0.1130116E+00
         25   -1    0    0    0    0  0.00000000000E+00  0.00000000000E+00  0.99999998245E-14  0.12500000000E+03  0.12500000000E+03 0.  0.
        -11    1    3    3    0    0  0.25715833393E+02  0.16441196410E+02 -0.17273783512E+02  0.35071364723E+02  0.51100000000E-03 0. -1.
         23    2    1    0    0    0 -0.66248527504E+01 -0.20206517040E+02  0.19429870279E+02  0.96195280527E+02  0.91781371377E+02 0.  0.
         11    1    3    3    0    0 -0.32340686143E+02 -0.36647713450E+02  0.36703653791E+02  0.61123915804E+02  0.51100000000E-03 0.  1.
         22    1    1    0    0    0  0.66248527504E+01  0.20206517040E+02 -0.19429870279E+02  0.28804719473E+02  0.00000000000E+00 0.  1.
</event>
<event>
 5    1  0.1717518E-003  0.9118800E+02  0.7818608E-02  0.1130116E+00
         25   -1    0    0    0    0  0.00000000000E+00  0.00000000000E+00  0.99999998245E-14  0.12500000000E+03  0.12500000000E+03 0.  0.
        -11    1    3    3    0    0 -0.60683720622E+02 -0.89594800379E+01 -0.83883986458E+00  0.61347289130E+02  0.51100000000E-03 0. -1.
         23    2    1    0    0    0 -0.28230555533E+02 -0.55428881299E+01 -0.87579196164E+01  0.94926938458E+02  0.90037406751E+02 0.  0.
         11    1    3    3    0    0  0.32453165089E+02  0.34165919080E+01 -0.79190797518E+01  0.33579649327E+02  0.51100000000E-03 0.  1.
         22    1    1    0    0    0  0.28230555533E+02  0.55428881299E+01  0.87579196164E+01  0.30073061542E+02  0.00000000000E+00 0. -1.
</event>
<event>
 5    1  0.1717518E-003  0.9118800E+02  0.7818608E-02  0.1130116E+00
         25   -1    0    0    0    0  0.00000000000E+00  0.00000000000E+00  0.99999998245E-14  0.12500000000E+03  0.12500000000E+03 0.  0.
        -11    1    3    3    0    0  0.21440003732E+02 -0.26596214427E+02 -0.59634969966E+01  0.34678461306E+02  0.51100000000E-03 0. -1.
         23    2    1    0    0    0 -0.44486734513E+01  0.28192943352E+02 -0.81560420721E+01  0.95315765588E+02  0.90575611492E+02 0.  0.
         11    1    3    3    0    0 -0.25888677183E+02  0.54789157779E+02 -0.21925450754E+01  0.60637304282E+02  0.51100000000E-03 0.  1.
         22    1    1    0    0    0  0.44486734513E+01 -0.28192943352E+02  0.81560420721E+01  0.29684234412E+02  0.00000000000E+00 0.  1.
</event>
<event>
 5    1  0.1717518E-003  0.9118800E+02  0.7818608E-02  0.1130116E+00
         25   -1    0    0    0    0  0.00000000000E+00  0.00000000000E+00  0.99999998245E-14  0.12500000000E+03  0.12500000000E+03 0.  0.
        -11    1    3    3    0    0  0.19772049705E+02 -0.38777248762E+02 -0.21388259902E+01  0.43579623082E+02  0.51100000000E-03 0.  1.
         23    2    1    0    0    0  0.22140600410E+02  0.45766859170E+01  0.22165960960E+02  0.93338002815E+02  0.87803762469E+02 0.  0.
         11    1    3    3    0    0  0.23685507047E+01  0.43353934679E+02  0.24304786950E+02  0.49758379732E+02  0.51100000000E-03 0. -1.
         22    1    1    0    0    0 -0.22140600410E+02 -0.45766859170E+01 -0.22165960960E+02  0.31661997185E+02  0.00000000000E+00 0. -1.
</event>
<event>
 5    1  0.1717518E-003  0.9118800E+02  0.7818608E-02  0.1130116E+00
         25   -1    0    0    0    0  0.00000000000E+00  0.00000000000E+00  0.99999998245E-14  0.12500000000E+03  0.12500000000E+03 0.  0.
        -11    1    3    3    0    0 -0.25968393636E+02  0.47847401650E+01 -0.26531889168E+02  0.37432503918E+02  0.51100000000E-03 0.  1.
         23    2    1    0    0    0  0.28029230244E+02 -0.39917225804E+01 -0.13318089940E+02  0.93711933315E+02  0.88334496822E+02 0.  0.
         11    1    3    3    0    0  0.53997623880E+02 -0.87764627454E+01  0.13213799228E+02  0.56279429397E+02  0.51100000000E-03 0. -1.
         22    1    1    0    0    0 -0.28029230244E+02  0.39917225804E+01  0.13318089940E+02  0.31288066685E+02  0.00000000000E+00 0.  1.
</event>
<event>
 5    1  0.1717518E-003  0.9118800E+02  0.7818608E-02  0.1130116E+00
         25   -1    0    0    0    0  0.00000000000E+00  0.00000000000E+00  0.99999998245E-14  0.12500000000E+03  0.12500000000E+03 0.  0.
        -11    1    3    3    0    0  0.48542671111E+02 -0.20791919380E+02 -0.31171858925E+02  0.61321934242E+02  0.51100000000E-03 0.  1.
         23    2    1    0    0    0  0.25745802197E+02 -0.13641965180E+02 -0.75915675957E+01  0.94890509083E+02  0.89986817205E+02 0.  0.
         11    1    3    3    0    0 -0.22796868914E+02  0.71499542005E+01  0.23580291330E+02  0.33568574840E+02  0.51100000000E-03 0. -1.
         22    1    1    0    0    0 -0.25745802197E+02  0.13641965180E+02  0.75915675957E+01  0.30109490917E+02  0.00000000000E+00 0.  1.
</event>
<event>
 5    1  0.1717518E-003  0.9118800E+02  0.7818608E-02  0.1130116E+00
         25   -1    0    0    0    0  0.00000000000E+00  0.00000000000E+00  0.99999998245E-14  0.12500000000E+03  0.12500000000E+03 0.  0.
        -11    1    3    3    0    0 -0.19284552621E+02 -0.28171018180E+02 -0.30868239830E+02  0.46025519721E+02  0.51100000000E-03 0.  1.
         23    2    1    0    0    0  0.22579299420E+02 -0.74417977981E+01 -0.19865471856E+02  0.94018681616E+02  0.88767507591E+02 0.  0.
         11    1    3    3    0    0  0.41863852041E+02  0.20729220382E+02  0.11002767974E+02  0.47993161895E+02  0.51100000000E-03 0. -1.
         22    1    1    0    0    0 -0.22579299420E+02  0.74417977981E+01  0.19865471856E+02  0.30981318384E+02  0.00000000000E+00 0. -1.
</event>
<event>
 5    1  0.1717518E-003  0.9118800E+02  0.7818608E-02  0.1130116E+00
         25   -1    0    0    0    0  0.00000000000E+00  0.00000000000E+00  0.99999998245E-14  0.12500000000E+03  0.12500000000E+03 0.  0.
        -11    1    3    3    0    0 -0.34113374604E+02  0.18314759004E+02  0.27318061851E+02  0.47385960240E+02  0.51100000000E-03 0.  1.
         23    2    1    0    0    0 -0.52896469900E+01  0.25781953272E+02 -0.11474701321E+02  0.96288360371E+02  0.91908052382E+02 0.  0.
         11    1    3    3    0    0  0.28823727614E+02  0.74671942675E+01 -0.38792763172E+02  0.48902400131E+02  0.51100000000E-03 0. -1.
         22    1    1    0    0    0  0.52896469900E+01 -0.25781953272E+02  0.11474701321E+02  0.28711639629E+02  0.00000000000E+00 0.  1.
</event>
<event>
 5    1  0.1717518E-003  0.9118800E+02  0.7818608E-02  0.1130116E+00
         25   -1    0    0    0    0  0.00000000000E+00  0.00000000000E+00  0.99999998245E-14  0.12500000000E+03  0.12500000000E+03 0.  0.
        -11    1    3    3    0    0 -0.19018236675E+02  0.27596012718E+02  0.17128624334E+02  0.37638052766E+02  0.51100000000E-03 0.  1.
         23    2    1    0    0    0  0.94860491074E+01  0.96692352357E+01 -0.27971091885E+02  0.93921692148E+02  0.88630824418E+02 0.  0.
         11    1    3    3    0    0  0.28504285783E+02 -0.17926777482E+02 -0.45099716219E+02  0.56283639383E+02  0.51100000000E-03 0. -1.
         22    1    1    0    0    0 -0.94860491074E+01 -0.96692352357E+01  0.27971091885E+02  0.31078307852E+02  0.00000000000E+00 0. -1.
</event>
<event>
 5    1  0.1717518E-003  0.9118800E+02  0.7818608E-02  0.1130116E+00
         25   -1    0    0    0    0  0.00000000000E+00  0.00000000000E+00  0.99999998245E-14  0.12500000000E+03  0.12500000000E+03 0.  0.
        -11    1    3    3    0    0 -0.34755184735E+02 -0.12323417624E+02  0.19027547118E+02  0.41495024249E+02  0.51100000000E-03 0. -1.
         23    2    1    0    0    0 -0.14160913587E+02 -0.13389024897E+02 -0.26866661298E+02  0.91809414729E+02  0.85599963097E+02 0.  0.
         11    1    3    3    0    0  0.20594271147E+02 -0.10656072732E+01 -0.45894208416E+02  0.50314390480E+02  0.51100000000E-03 0.  1.
         22    1    1    0    0    0  0.14160913587E+02  0.13389024897E+02  0.26866661298E+02  0.33190585271E+02  0.00000000000E+00 0. -1.
</event>
<event>
 5    1  0.1717518E-003  0.9118800E+02  0.7818608E-02  0.1130116E+00
         25   -1    0    0    0    0  0.00000000000E+00  0.00000000000E+00  0.99999998245E-14  0.12500000000E+03  0.12500000000E+03 0.  0.
        -11    1    3    3    0    0 -0.38707527614E+02  0.82959683895E+01 -0.13448146628E+02  0.41808473226E+02  0.51100000000E-03 0. -1.
         23    2    1    0    0    0 -0.48633465259E+01  0.98604577486E+01  0.27751633241E+02  0.95149808812E+02  0.90346290477E+02 0.  0.
         11    1    3    3    0    0  0.33844181088E+02  0.15644893591E+01  0.41199779869E+02  0.53341335585E+02  0.51100000000E-03 0.  1.
         22    1    1    0    0    0  0.48633465259E+01 -0.98604577486E+01 -0.27751633241E+02  0.29850191188E+02  0.00000000000E+00 0.  1.
</event>
<event>
 5    1  0.1717518E-003  0.9118800E+02  0.7818608E-02  0.1130116E+00
         25   -1    0    0    0    0  0.00000000000E+00  0.00000000000E+00  0.99999998245E-14  0.12500000000E+03  0.12500000000E+03 0.  0.
        -11    1    3    3    0    0 -0.30679129830E+02 -0.25485578737E+02  0.10778015351E+02  0.41314517373E+02  0.51100000000E-03 0. -1.
         23    2    1    0    0    0  0.23646972284E+02 -0.13361521181E+02  0.60200152209E+01  0.97180040802E+02  0.93112889551E+02 0.  0.
         11    1    3    3    0    0  0.54326102114E+02  0.12124057555E+02 -0.47580001298E+01  0.55865523429E+02  0.51100000000E-03 0.  1.
         22    1    1    0    0    0 -0.23646972284E+02  0.13361521181E+02 -0.60200152209E+01  0.27819959198E+02  0.00000000000E+00 0.  1.
</event>
<event>
 5    1  0.1717518E-003  0.9118800E+02  0.7818608E-02  0.1130116E+00
         25   -1    0    0    0    0  0.00000000000E+00  0.00000000000E+00  0.99999998245E-14  0.12500000000E+03  0.12500000000E+03 0.  0.
        -11    1    3    3    0    0  0.39411102857E+02 -0.19580429659E+02 -0.14192218875E+02  0.46239023897E+02  0.51100000000E-03 0. -1.
         23    2    1    0    0    0  0.10626553098E+02 -0.12134551517E+02  0.24887187996E+02  0.95342908140E+02  0.90613062165E+02 0.  0.
         11    1    3    3    0    0 -0.28784549758E+02  0.74458781417E+01  0.39079406871E+02  0.49103884243E+02  0.51100000000E-03 0.  1.
         22    1    1    0    0    0 -0.10626553098E+02  0.12134551517E+02 -0.24887187996E+02  0.29657091860E+02  0.00000000000E+00 0. -1.
</event>
<event>
 5    1  0.1717518E-003  0.9118800E+02  0.7818608E-02  0.1130116E+00
         25   -1    0    0    0    0  0.00000000000E+00  0.00000000000E+00  0.99999998245E-14  0.12500000000E+03  0.12500000000E+03 0.  0.
        -11    1    3    3    0    0  0.39443402650E+02  0.25883609681E+02  0.35608865192E+02  0.59107821337E+02  0.51100000000E-03 0. -1.
         23    2    1    0    0    0  0.16713726264E+02  0.22931982696E+02  0.69871692238E+01  0.95775951517E+02  0.91208485785E+02 0.  0.
         11    1    3    3    0    0 -0.22729676386E+02 -0.29516269845E+01 -0.28621695969E+02  0.36668130179E+02  0.51100000000E-03 0.  1.
         22    1    1    0    0    0 -0.16713726264E+02 -0.22931982696E+02 -0.69871692238E+01  0.29224048483E+02  0.00000000000E+00 0. -1.
</event>
<event>
 5    1  0.1717518E-003  0.9118800E+02  0.7818608E-02  0.1130116E+00
         25   -1    0    0    0    0  0.00000000000E+00  0.00000000000E+00  0.99999998245E-14  0.12500000000E+03  0.12500000000E+03 0.  0.
        -11    1    3    3    0    0 -0.16998540459E+02  0.24074638532E+02  0.18487154987E+02  0.34789560186E+02  0.51100000000E-03 0.  1.
         23    2    1    0    0    0 -0.45145879983E+01 -0.24089582278E+02 -0.16358015905E+02  0.95533507785E+02  0.90875612495E+02 0.  0.
         11    1    3    3    0    0  0.12483952461E+02 -0.48164220809E+02 -0.34845170891E+02  0.60743947599E+02  0.51100000000E-03 0. -1.
         22    1    1    0    0    0  0.45145879983E+01  0.24089582278E+02  0.16358015905E+02  0.29466492215E+02  0.00000000000E+00 0. -1.
</event>
<event>
 5    1  0.1717518E-003  0.9118800E+02  0.7818608E-02  0.1130116E+00
         25   -1    0    0    0    0  0.00000000000E+00  0.00000000000E+00  0.99999998245E-14  0.12500000000E+03  0.12500000000E+03 0.  0.
        -11    1    3    3    0    0  0.23384479343E+02 -0.11892454455E+02 -0.16660123047E+02  0.31077709814E+02  0.51100000000E-03 0.  1.
         23    2    1    0    0    0 -0.34096463258E+02 -0.62658318671E+01 -0.69114999709E+01  0.89650342470E+02  0.82386804874E+02 0.  0.
         11    1    3    3    0    0 -0.57480942601E+02  0.56266225882E+01  0.97486230758E+01  0.58572632655E+02  0.51100000000E-03 0. -1.
         22    1    1    0    0    0  0.34096463258E+02  0.62658318671E+01  0.69114999709E+01  0.35349657530E+02  0.00000000000E+00 0. -1.
</event>
<event>
 5    1  0.1717518E-003  0.9118800E+02  0.7818608E-02  0.1130116E+00
         25   -1    0    0    0    0  0.00000000000E+00  0.00000000000E+00  0.99999998245E-14  0.12500000000E+03  0.12500000000E+03 0.  0.
        -11    1    3    3    0    0 -0.14312297636E+02 -0.47338103036E+02 -0.28555517460E+01  0.49536774609E+02  0.51100000000E-03 0.  1.
         23    2    1    0    0    0 -0.58169264175E+01 -0.10017647516E+02 -0.27568365412E+02  0.95096744890E+02  0.90272843216E+02 0.  0.
         11    1    3    3    0    0  0.84953712185E+01  0.37320455520E+02 -0.24712813666E+02  0.45559970280E+02  0.51100000000E-03 0. -1.
         22    1    1    0    0    0  0.58169264175E+01  0.10017647516E+02  0.27568365412E+02  0.29903255110E+02  0.00000000000E+00 0. -1.
</event>
<event>
 5    1  0.1717518E-003  0.9118800E+02  0.7818608E-02  0.1130116E+00
         25   -1    0    0    0    0  0.00000000000E+00  0.00000000000E+00  0.99999998245E-14  0.12500000000E+03  0.12500000000E+03 0.  0.
        -11    1    3    3    0    0 -0.70219407159E+01  0.37803610967E+02  0.16142098221E+02  0.41701174909E+02  0.51100000000E-03 0.  1.
         23    2    1    0    0    0 -0.24974595077E+02 -0.12769040869E+02  0.50777381592E+01  0.96494522828E+02  0.92188018240E+02 0.  0.
         11    1    3    3    0    0 -0.17952654361E+02 -0.50572651836E+02 -0.11064360061E+02  0.54793347919E+02  0.51100000000E-03 0. -1.
         22    1    1    0    0    0  0.24974595077E+02  0.12769040869E+02 -0.50777381592E+01  0.28505477172E+02  0.00000000000E+00 0. -1.
</event>
<event>
 5    1  0.1717518E-003  0.9118800E+02  0.7818608E-02  0.1130116E+00
         25   -1    0    0    0    0  0.00000000000E+00  0.00000000000E+00  0.99999998245E-14  0.12500000000E+03  0.12500000000E+03 0.  0.
        -11    1    3    3    0    0  0.16174106645E+02  0.53237693026E+02  0.14027341398E+02  0.57381355783E+02  0.51100000000E-03 0. -1.
         23    2    1    0    0    0  0.20092146386E+02  0.20583673282E+02 -0.56207706558E+01  0.95691724463E+02  0.91092980607E+02 0.  0.
         11    1    3    3    0    0  0.39180397417E+01 -0.32654019744E+02 -0.19648112054E+02  0.38310368680E+02  0.51100000000E-03 0.  1.
         22    1    1    0    0    0 -0.20092146386E+02 -0.20583673282E+02  0.56207706558E+01  0.29308275537E+02  0.00000000000E+00 0. -1.
</event>
<event>
 5    1  0.1717518E-003  0.9118800E+02  0.7818608E-02  0.1130116E+00
         25   -1    0    0    0    0  0.00000000000E+00  0.00000000000E+00  0.99999998245E-14  0.12500000000E+03  0.12500000000E+03 0.  0.
        -11    1    3    3    0    0  0.23404037203E+02  0.26273899503E+02  0.24780304897E+02  0.43036383021E+02  0.51100000000E-03 0. -1.
         23    2    1    0    0    0 -0.14712900774E+02  0.22728924233E+02 -0.11318788511E+02  0.95653988017E+02  0.91041183012E+02 0.  0.
         11    1    3    3    0    0 -0.38116937977E+02 -0.35449752697E+01 -0.36099093407E+02  0.52617604996E+02  0.51100000000E-03 0.  1.
         22    1    1    0    0    0  0.14712900774E+02 -0.22728924233E+02  0.11318788511E+02  0.29346011983E+02  0.00000000000E+00 0.  1.
</event>
<event>
 5    1  0.1717518E-003  0.9118800E+02  0.7818608E-02  0.1130116E+00
         25   -1    0    0    0    0  0.00000000000E+00  0.00000000000E+00  0.99999998245E-14  0.12500000000E+03  0.12500000000E+03 0.  0.
        -11    1    3    3    0    0 -0.10970404989E+02 -0.39895301310E+02 -0.12376959073E+02  0.43187659908E+02  0.51100000000E-03 0.  1.
         23    2    1    0    0    0  0.20372616749E+02  0.53024810941E+00 -0.21752257865E+02  0.95192527807E+02  0.90405375680E+02 0.  0.
         11    1    3    3    0    0  0.31343021738E+02  0.40425549419E+02 -0.93752987923E+01  0.52004867899E+02  0.51100000000E-03 0. -1.
         22    1    1    0    0    0 -0.20372616749E+02 -0.53024810941E+00  0.21752257865E+02  0.29807472193E+02  0.00000000000E+00 0. -1.
</event>
<event>
 5    1  0.1717518E-003  0.9118800E+02  0.7818608E-02  0.1130116E+00
         25   -1    0    0    0    0  0.00000000000E+00  0.00000000000E+00  0.99999998245E-14  0.12500000000E+03  0.12500000000E+03 0.  0.
        -11    1    3    3    0    0  0.52230149027E+01  0.14370085061E+02 -0.40658442755E+02  0.43438326359E+02  0.51100000000E-03 0.  1.
         23    2    1    0    0    0  0.97148465209E+01 -0.26512711867E+02 -0.89242359830E+01  0.95386757669E+02  0.90673532066E+02 0.  0.
         11    1    3    3    0    0  0.44918316182E+01 -0.40882796928E+02  0.31734206772E+02  0.51948431310E+02  0.51100000000E-03 0. -1.
         22    1    1    0    0    0 -0.97148465209E+01  0.26512711867E+02  0.89242359830E+01  0.29613242331E+02  0.00000000000E+00 0. -1.
</event>
<event>
 5    1  0.1717518E-003  0.9118800E+02  0.7818608E-02  0.1130116E+00
         25   -1    0    0    0    0  0.00000000000E+00  0.00000000000E+00  0.99999998245E-14  0.12500000000E+03  0.12500000000E+03 0.  0.
        -11    1    3    3    0    0  0.48842835233E+02 -0.20976960672E+02 -0.14360650928E+02  0.55062543784E+02  0.51100000000E-03 0. -1.
         23    2    1    0    0    0  0.17782013279E+02  0.54155601504E+01 -0.21645895772E+02  0.96468033861E+02  0.92152094199E+02 0.  0.
         11    1    3    3    0    0 -0.31060821954E+02  0.26392520822E+02 -0.72852448443E+01  0.41405490077E+02  0.51100000000E-03 0.  1.
         22    1    1    0    0    0 -0.17782013279E+02 -0.54155601504E+01  0.21645895772E+02  0.28531966139E+02  0.00000000000E+00 0. -1.
</event>
<event>
 5    1  0.1717518E-003  0.9118800E+02  0.7818608E-02  0.1130116E+00
         25   -1    0    0    0    0  0.00000000000E+00  0.00000000000E+00  0.99999998245E-14  0.12500000000E+03  0.12500000000E+03 0.  0.
        -11    1    3    3    0    0 -0.12278760902E+02 -0.22077069403E+02 -0.22971726442E+01  0.25366157871E+02  0.51100000000E-03 0. -1.
         23    2    1    0    0    0  0.34408503590E+02  0.17307611810E+02 -0.15905768779E+01  0.86450960055E+02  0.77380488586E+02 0.  0.
         11    1    3    3    0    0  0.46687264492E+02  0.39384681214E+02  0.70659576635E+00  0.61084802184E+02  0.51100000000E-03 0.  1.
         22    1    1    0    0    0 -0.34408503590E+02 -0.17307611810E+02  0.15905768779E+01  0.38549039945E+02  0.00000000000E+00 0.  1.
</event>
<event>
 5    1  0.1717518E-003  0.9118800E+02  0.7818608E-02  0.1130116E+00
         25   -1    0    0    0    0  0.00000000000E+00  0.00000000000E+00  0.99999998245E-14  0.12500000000E+03  0.12500000000E+03 0.  0.
        -11    1    3    3    0    0  0.36276902025E+02  0.75367884375E+01  0.18550698698E+02  0.41436037732E+02  0.51100000000E-03 0.  1.
         23    2    1    0    0    0  0.68679011421E+01 -0.24369211546E+02 -0.14356064390E+02  0.95894620390E+02  0.91370975137E+02 0.  0.
         11    1    3    3    0    0 -0.29409000883E+02 -0.31905999984E+02 -0.32906763088E+02  0.54458582658E+02  0.51100000000E-03 0. -1.
         22    1    1    0    0    0 -0.68679011421E+01  0.24369211546E+02  0.14356064390E+02  0.29105379610E+02  0.00000000000E+00 0. -1.
</event>
<event>
 5    1  0.1717518E-003  0.9118800E+02  0.7818608E-02  0.1130116E+00
         25   -1    0    0    0    0  0.00000000000E+00  0.00000000000E+00  0.99999998245E-14  0.12500000000E+03  0.12500000000E+03 0.  0.
        -11    1    3    3    0    0  0.36578423904E+02  0.17939947067E+02 -0.11265628609E+02  0.42269814103E+02  0.51100000000E-03 0. -1.
         23    2    1    0    0    0 -0.13639720542E+02 -0.15988160702E+02 -0.62124444338E+01  0.10308521675E+03  0.10072886472E+03 0.  0.
         11    1    3    3    0    0 -0.50218144446E+02 -0.33928107770E+02  0.50531841753E+01  0.60815402646E+02  0.51100000000E-03 0.  1.
         22    1    1    0    0    0  0.13639720542E+02  0.15988160702E+02  0.62124444338E+01  0.21914783251E+02  0.00000000000E+00 0.  1.
</event>
<event>
 5    1  0.1717518E-003  0.9118800E+02  0.7818608E-02  0.1130116E+00
         25   -1    0    0    0    0  0.00000000000E+00  0.00000000000E+00  0.99999998245E-14  0.12500000000E+03  0.12500000000E+03 0.  0.
        -11    1    3    3    0    0 -0.20674807904E+02 -0.44578102344E+02  0.21520208997E+02  0.53644890586E+02  0.51100000000E-03 0.  1.
         23    2    1    0    0    0 -0.27179558581E+02 -0.48873780977E+01  0.61068946442E+01  0.96717336909E+02  0.92489643891E+02 0.  0.
         11    1    3    3    0    0 -0.65047506773E+01  0.39690724247E+02 -0.15413314353E+02  0.43072446322E+02  0.51100000000E-03 0. -1.
         22    1    1    0    0    0  0.27179558581E+02  0.48873780977E+01 -0.61068946442E+01  0.28282663091E+02  0.00000000000E+00 0. -1.
</event>
<event>
 5    1  0.1717518E-003  0.9118800E+02  0.7818608E-02  0.1130116E+00
         25   -1    0    0    0    0  0.00000000000E+00  0.00000000000E+00  0.99999998245E-14  0.12500000000E+03  0.12500000000E+03 0.  0.
        -11    1    3    3    0    0  0.44553353748E+02 -0.15238846907E+02 -0.15474830276E+02  0.49565049759E+02  0.51100000000E-03 0.  1.
         23    2    1    0    0    0  0.22875014462E+02  0.11395932056E+02  0.14903975843E+02  0.95415171962E+02  0.90712694760E+02 0.  0.
         11    1    3    3    0    0 -0.21678339286E+02  0.26634778963E+02  0.30378806119E+02  0.45850122204E+02  0.51100000000E-03 0. -1.
         22    1    1    0    0    0 -0.22875014462E+02 -0.11395932056E+02 -0.14903975843E+02  0.29584828038E+02  0.00000000000E+00 0.  1.
</event>
<event>
 5    1  0.1717518E-003  0.9118800E+02  0.7818608E-02  0.1130116E+00
         25   -1    0    0    0    0  0.00000000000E+00  0.00000000000E+00  0.99999998245E-14  0.12500000000E+03  0.12500000000E+03 0.  0.
        -11    1    3    3    0    0 -0.15525877468E+02 -0.17444584446E+02 -0.23397045447E+02  0.33057346136E+02  0.51100000000E-03 0. -1.
         23    2    1    0    0    0  0.22432182694E+02  0.23189520253E+02 -0.18771943044E+01  0.92681576021E+02  0.86864227420E+02 0.  0.
         11    1    3    3    0    0  0.37958060162E+02  0.40634104699E+02  0.21519851142E+02  0.59624229886E+02  0.51100000000E-03 0.  1.
         22    1    1    0    0    0 -0.22432182694E+02 -0.23189520253E+02  0.18771943044E+01  0.32318423979E+02  0.00000000000E+00 0.  1.
</event>
<event>
 5    1  0.1717518E-003  0.9118800E+02  0.7818608E-02  0.1130116E+00
         25   -1    0    0    0    0  0.00000000000E+00  0.00000000000E+00  0.99999998245E-14  0.12500000000E+03  0.12500000000E+03 0.  0.
        -11    1    3    3    0    0  0.45712864660E+02  0.44389179824E+01  0.34051579988E+01  0.46053936743E+02  0.51100000000E-03 0.  1.
         23    2    1    0    0    0 -0.13653493008E+02 -0.72275574366E+01 -0.79714936379E+01  0.10761609455E+03  0.10620274779E+03 0.  0.
         11    1    3    3    0    0 -0.59366357667E+02 -0.11666475419E+02 -0.11376651637E+02  0.61562157809E+02  0.51100000000E-03 0. -1.
         22    1    1    0    0    0  0.13653493008E+02  0.72275574366E+01  0.79714936379E+01  0.17383905448E+02  0.00000000000E+00 0. -1.
</event>
<event>
 5    1  0.1717518E-003  0.9118800E+02  0.7818608E-02  0.1130116E+00
         25   -1    0    0    0    0  0.00000000000E+00  0.00000000000E+00  0.99999998245E-14  0.12500000000E+03  0.12500000000E+03 0.  0.
        -11    1    3    3    0    0  0.23005658813E+02 -0.12137047045E+01 -0.86051282243E+01  0.24592308728E+02  0.51100000000E-03 0. -1.
         23    2    1    0    0    0 -0.11784623227E+02 -0.27217119810E+02  0.30080452243E+02  0.82756863724E+02  0.71163304666E+02 0.  0.
         11    1    3    3    0    0 -0.34790282040E+02 -0.26003415105E+02  0.38685580467E+02  0.58164554996E+02  0.51100000000E-03 0.  1.
         22    1    1    0    0    0  0.11784623227E+02  0.27217119810E+02 -0.30080452243E+02  0.42243136276E+02  0.00000000000E+00 0.  1.
</event>
<event>
 5    1  0.1717518E-003  0.9118800E+02  0.7818608E-02  0.1130116E+00
         25   -1    0    0    0    0  0.00000000000E+00  0.00000000000E+00  0.99999998245E-14  0.12500000000E+03  0.12500000000E+03 0.  0.
        -11    1    3    3    0    0 -0.24329369581E+02  0.47629615551E+01 -0.19461508084E+02  0.31517524080E+02  0.51100000000E-03 0. -1.
         23    2    1    0    0    0 -0.65150994014E+01 -0.26846245756E+02  0.24190544175E+02  0.88280116301E+02  0.80280938430E+02 0.  0.
         11    1    3    3    0    0  0.17814270180E+02 -0.31609207311E+02  0.43652052259E+02  0.56762592220E+02  0.51100000000E-03 0.  1.
         22    1    1    0    0    0  0.65150994014E+01  0.26846245756E+02 -0.24190544175E+02  0.36719883699E+02  0.00000000000E+00 0.  1.
</event>
<event>
 5    1  0.1717518E-003  0.9118800E+02  0.7818608E-02  0.1130116E+00
         25   -1    0    0    0    0  0.00000000000E+00  0.00000000000E+00  0.99999998245E-14  0.12500000000E+03  0.12500000000E+03 0.  0.
        -11    1    3    3    0    0  0.17418149889E+02  0.39740519885E+02 -0.26250031343E+02  0.50712572524E+02  0.51100000000E-03 0. -1.
         23    2    1    0    0    0 -0.28884808510E+01 -0.39504571334E+01 -0.25641286086E+02  0.98895881832E+02  0.95388523722E+02 0.  0.
         11    1    3    3    0    0 -0.20306630740E+02 -0.43690977018E+02  0.60874525645E+00  0.48183309308E+02  0.51100000000E-03 0.  1.
         22    1    1    0    0    0  0.28884808510E+01  0.39504571334E+01  0.25641286086E+02  0.26104118168E+02  0.00000000000E+00 0. -1.
</event>
<event>
 5    1  0.1717518E-003  0.9118800E+02  0.7818608E-02  0.1130116E+00
         25   -1    0    0    0    0  0.00000000000E+00  0.00000000000E+00  0.99999998245E-14  0.12500000000E+03  0.12500000000E+03 0.  0.
        -11    1    3    3    0    0  0.33729753006E+01  0.34077638634E+02 -0.29961683825E+01  0.34374982800E+02  0.51100000000E-03 0.  1.
         23    2    1    0    0    0  0.91784641127E+01 -0.27314074880E+02 -0.28878117907E+01  0.96040677719E+02  0.91570570763E+02 0.  0.
         11    1    3    3    0    0  0.58054888121E+01 -0.61391713514E+02  0.10835659178E+00  0.61665694920E+02  0.51100000000E-03 0. -1.
         22    1    1    0    0    0 -0.91784641127E+01  0.27314074880E+02  0.28878117907E+01  0.28959322281E+02  0.00000000000E+00 0. -1.
</event>
<event>
 5    1  0.1717518E-003  0.9118800E+02  0.7818608E-02  0.1130116E+00
         25   -1    0    0    0    0  0.00000000000E+00  0.00000000000E+00  0.99999998245E-14  0.12500000000E+03  0.12500000000E+03 0.  0.
        -11    1    3    3    0    0 -0.50406187566E+02 -0.90432506587E+01  0.11686504391E+02  0.52527502440E+02  0.51100000000E-03 0. -1.
         23    2    1    0    0    0 -0.17699762702E+02  0.20726484042E+02  0.32467473517E+01  0.97551682951E+02  0.93610473440E+02 0.  0.
         11    1    3    3    0    0  0.32706424864E+02  0.29769734701E+02 -0.84397570391E+01  0.45024180511E+02  0.51100000000E-03 0.  1.
         22    1    1    0    0    0  0.17699762702E+02 -0.20726484042E+02 -0.32467473517E+01  0.27448317049E+02  0.00000000000E+00 0.  1.
</event>
<event>
 5    1  0.1717518E-003  0.9118800E+02  0.7818608E-02  0.1130116E+00
         25   -1    0    0    0    0  0.00000000000E+00  0.00000000000E+00  0.99999998245E-14  0.12500000000E+03  0.12500000000E+03 0.  0.
        -11    1    3    3    0    0  0.11703228958E+02 -0.47410222571E+02 -0.23862622374E+02  0.54351812473E+02  0.51100000000E-03 0.  1.
         23    2    1    0    0    0 -0.15922727693E+02 -0.15996472030E+02 -0.16871351653E+00  0.10242902663E+03  0.99911243900E+02 0.  0.
         11    1    3    3    0    0 -0.27625956651E+02  0.31413750541E+02  0.23693908858E+02  0.48077214157E+02  0.51100000000E-03 0. -1.
         22    1    1    0    0    0  0.15922727693E+02  0.15996472030E+02  0.16871351653E+00  0.22570973369E+02  0.00000000000E+00 0.  1.
</event>
<event>
 5    1  0.1717518E-003  0.9118800E+02  0.7818608E-02  0.1130116E+00
         25   -1    0    0    0    0  0.00000000000E+00  0.00000000000E+00  0.99999998245E-14  0.12500000000E+03  0.12500000000E+03 0.  0.
        -11    1    3    3    0    0  0.52941318037E+02 -0.17416989517E+02 -0.20224332341E+02  0.59288770422E+02  0.51100000000E-03 0. -1.
         23    2    1    0    0    0  0.22848443698E+02 -0.19160278168E+02 -0.75776586669E+00  0.95171459170E+02  0.90376240200E+02 0.  0.
         11    1    3    3    0    0 -0.30092874338E+02 -0.17432886510E+01  0.19466566474E+02  0.35882688748E+02  0.51100000000E-03 0.  1.
         22    1    1    0    0    0 -0.22848443698E+02  0.19160278168E+02  0.75776586669E+00  0.29828540830E+02  0.00000000000E+00 0. -1.
</event>
<event>
 5    1  0.1717518E-003  0.9118800E+02  0.7818608E-02  0.1130116E+00
         25   -1    0    0    0    0  0.00000000000E+00  0.00000000000E+00  0.99999998245E-14  0.12500000000E+03  0.12500000000E+03 0.  0.
        -11    1    3    3    0    0 -0.20703951435E+02 -0.13485717562E+02 -0.35152361035E+02  0.42967507140E+02  0.51100000000E-03 0.  1.
         23    2    1    0    0    0  0.21246338923E+02 -0.18922782431E+02 -0.24351617844E+01  0.96444639286E+02  0.92120355088E+02 0.  0.
         11    1    3    3    0    0  0.41950290358E+02 -0.54370648683E+01  0.32717199251E+02  0.53477132147E+02  0.51100000000E-03 0. -1.
         22    1    1    0    0    0 -0.21246338923E+02  0.18922782431E+02  0.24351617844E+01  0.28555360714E+02  0.00000000000E+00 0. -1.
</event>
<event>
 5    1  0.1717518E-003  0.9118800E+02  0.7818608E-02  0.1130116E+00
         25   -1    0    0    0    0  0.00000000000E+00  0.00000000000E+00  0.99999998245E-14  0.12500000000E+03  0.12500000000E+03 0.  0.
        -11    1    3    3    0    0  0.29933004403E+02  0.34589910438E+02 -0.19233758578E+01  0.45783687397E+02  0.51100000000E-03 0. -1.
         23    2    1    0    0    0  0.45325836089E+01 -0.15276094483E+02 -0.14848857636E+02  0.10321945938E+03  0.10089531626E+03 0.  0.
         11    1    3    3    0    0 -0.25400420794E+02 -0.49866004921E+02 -0.12925481778E+02  0.57435771978E+02  0.51100000000E-03 0.  1.
         22    1    1    0    0    0 -0.45325836089E+01  0.15276094483E+02  0.14848857636E+02  0.21780540625E+02  0.00000000000E+00 0.  1.
</event>
<event>
 5    1  0.1717518E-003  0.9118800E+02  0.7818608E-02  0.1130116E+00
         25   -1    0    0    0    0  0.00000000000E+00  0.00000000000E+00  0.99999998245E-14  0.12500000000E+03  0.12500000000E+03 0.  0.
        -11    1    3    3    0    0 -0.47872129841E+02 -0.58648866623E+01 -0.60849372414E+01  0.48612387028E+02  0.51100000000E-03 0. -1.
         23    2    1    0    0    0 -0.16207920859E+02  0.74862098299E+01  0.24547075931E+02  0.94647092842E+02  0.89648051905E+02 0.  0.
         11    1    3    3    0    0  0.31664208983E+02  0.13351096492E+02  0.30632013173E+02  0.46034705813E+02  0.51100000000E-03 0.  1.
         22    1    1    0    0    0  0.16207920859E+02 -0.74862098299E+01 -0.24547075931E+02  0.30352907158E+02  0.00000000000E+00 0. -1.
</event>
<event>
 5    1  0.1717518E-003  0.9118800E+02  0.7818608E-02  0.1130116E+00
         25   -1    0    0    0    0  0.00000000000E+00  0.00000000000E+00  0.99999998245E-14  0.12500000000E+03  0.12500000000E+03 0.  0.
        -11    1    3    3    0    0 -0.19714092379E+02 -0.25168088822E+01  0.56608939263E+02  0.59996264634E+02  0.51100000000E-03 0.  1.
         23    2    1    0    0    0  0.22898735410E+01 -0.50376461127E+01  0.29419029822E+02  0.95065058629E+02  0.90228956867E+02 0.  0.
         11    1    3    3    0    0  0.22003965920E+02 -0.25208372305E+01 -0.27189909441E+02  0.35068793995E+02  0.51100000000E-03 0. -1.
         22    1    1    0    0    0 -0.22898735410E+01  0.50376461127E+01 -0.29419029822E+02  0.29934941371E+02  0.00000000000E+00 0.  1.
</event>
<event>
 5    1  0.1717518E-003  0.9118800E+02  0.7818608E-02  0.1130116E+00
         25   -1    0    0    0    0  0.00000000000E+00  0.00000000000E+00  0.99999998245E-14  0.12500000000E+03  0.12500000000E+03 0.  0.
        -11    1    3    3    0    0  0.47149735838E+01  0.15972775135E+02  0.12139238004E+02  0.20608775339E+02  0.51100000000E-03 0.  1.
         23    2    1    0    0    0  0.28798010302E+02 -0.34879423796E+02  0.16035110793E+02  0.77010163786E+02  0.60229070609E+02 0.  0.
         11    1    3    3    0    0  0.24083036719E+02 -0.50852198931E+02  0.38958727888E+01  0.56401388447E+02  0.51100000000E-03 0. -1.
         22    1    1    0    0    0 -0.28798010302E+02  0.34879423796E+02 -0.16035110793E+02  0.47989836214E+02  0.00000000000E+00 0. -1.
</event>
<event>
 5    1  0.1717518E-003  0.9118800E+02  0.7818608E-02  0.1130116E+00
         25   -1    0    0    0    0  0.00000000000E+00  0.00000000000E+00  0.99999998245E-14  0.12500000000E+03  0.12500000000E+03 0.  0.
        -11    1    3    3    0    0  0.38998955308E+02  0.90121415360E+01  0.47397923509E+02  0.62037894575E+02  0.51100000000E-03 0.  1.
         23    2    1    0    0    0  0.13840996494E+02  0.76674342158E+01  0.22791384477E+02  0.97254551044E+02  0.93212862637E+02 0.  0.
         11    1    3    3    0    0 -0.25157958814E+02 -0.13447073203E+01 -0.24606539032E+02  0.35216656469E+02  0.51100000000E-03 0. -1.
         22    1    1    0    0    0 -0.13840996494E+02 -0.76674342158E+01 -0.22791384477E+02  0.27745448956E+02  0.00000000000E+00 0.  1.
</event>
<event>
 5    1  0.1717518E-003  0.9118800E+02  0.7818608E-02  0.1130116E+00
         25   -1    0    0    0    0  0.00000000000E+00  0.00000000000E+00  0.99999998245E-14  0.12500000000E+03  0.12500000000E+03 0.  0.
        -11    1    3    3    0    0  0.37267037729E+02  0.28601074268E+02  0.30245627675E+02  0.55871741911E+02  0.51100000000E-03 0.  1.
         23    2    1    0    0    0  0.59475718662E+01  0.24000007871E+01  0.27460497829E+02  0.96800486602E+02  0.92601952736E+02 0.  0.
         11    1    3    3    0    0 -0.31319465862E+02 -0.26201073481E+02 -0.27851298465E+01  0.40928744691E+02  0.51100000000E-03 0. -1.
         22    1    1    0    0    0 -0.59475718662E+01 -0.24000007871E+01 -0.27460497829E+02  0.28199513398E+02  0.00000000000E+00 0.  1.
</event>
<event>
 5    1  0.1717518E-003  0.9118800E+02  0.7818608E-02  0.1130116E+00
         25   -1    0    0    0    0  0.00000000000E+00  0.00000000000E+00  0.99999998245E-14  0.12500000000E+03  0.12500000000E+03 0.  0.
        -11    1    3    3    0    0  0.15998597928E+02  0.24818438687E+02  0.20078999370E+02  0.35708209847E+02  0.51100000000E-03 0. -1.
         23    2    1    0    0    0 -0.85346440421E+01 -0.73460475355E+01 -0.25785055012E+02  0.96863304649E+02  0.92686709739E+02 0.  0.
         11    1    3    3    0    0 -0.24533241970E+02 -0.32164486223E+02 -0.45864054382E+02  0.61155094801E+02  0.51100000000E-03 0.  1.
         22    1    1    0    0    0  0.85346440421E+01  0.73460475355E+01  0.25785055012E+02  0.28136695351E+02  0.00000000000E+00 0.  1.
</event>
<event>
 5    1  0.1717518E-003  0.9118800E+02  0.7818608E-02  0.1130116E+00
         25   -1    0    0    0    0  0.00000000000E+00  0.00000000000E+00  0.99999998245E-14  0.12500000000E+03  0.12500000000E+03 0.  0.
        -11    1    3    3    0    0 -0.29267899714E+02 -0.43196797766E+01 -0.15037830163E+02  0.33187436227E+02  0.51100000000E-03 0. -1.
         23    2    1    0    0    0  0.25665254774E+02 -0.11607159464E+02  0.11433703430E+02  0.94599983099E+02  0.89582340753E+02 0.  0.
         11    1    3    3    0    0  0.54933154488E+02 -0.72874796872E+01  0.26471533594E+02  0.61412546872E+02  0.51100000000E-03 0.  1.
         22    1    1    0    0    0 -0.25665254774E+02  0.11607159464E+02 -0.11433703430E+02  0.30400016901E+02  0.00000000000E+00 0.  1.
</event>
<event>
 5    1  0.1717518E-003  0.9118800E+02  0.7818608E-02  0.1130116E+00
         25   -1    0    0    0    0  0.00000000000E+00  0.00000000000E+00  0.99999998245E-14  0.12500000000E+03  0.12500000000E+03 0.  0.
        -11    1    3    3    0    0  0.86388991367E+01 -0.20772488546E+02  0.19975101258E+02  0.30085403923E+02  0.51100000000E-03 0.  1.
         23    2    1    0    0    0 -0.27157703174E+01  0.31919420998E+02  0.25202643656E+02  0.84239748621E+02  0.73722026255E+02 0.  0.
         11    1    3    3    0    0 -0.11354669454E+02  0.52691909544E+02  0.52275423980E+01  0.54154344697E+02  0.51100000000E-03 0. -1.
         22    1    1    0    0    0  0.27157703174E+01 -0.31919420998E+02 -0.25202643656E+02  0.40760251379E+02  0.00000000000E+00 0. -1.
</event>
<event>
 5    1  0.1717518E-003  0.9118800E+02  0.7818608E-02  0.1130116E+00
         25   -1    0    0    0    0  0.00000000000E+00  0.00000000000E+00  0.99999998245E-14  0.12500000000E+03  0.12500000000E+03 0.  0.
        -11    1    3    3    0    0 -0.10622624280E+02 -0.40250690086E+02  0.24728687977E+02  0.48419688230E+02  0.51100000000E-03 0. -1.
         23    2    1    0    0    0 -0.23705227244E+01 -0.21277484464E+02 -0.18731289400E+02  0.96553349482E+02  0.92267748269E+02 0.  0.
         11    1    3    3    0    0  0.82521015554E+01  0.18973205622E+02 -0.43459977377E+02  0.48133661252E+02  0.51100000000E-03 0.  1.
         22    1    1    0    0    0  0.23705227244E+01  0.21277484464E+02  0.18731289400E+02  0.28446650518E+02  0.00000000000E+00 0.  1.
</event>
<event>
 5    1  0.1717518E-003  0.9118800E+02  0.7818608E-02  0.1130116E+00
         25   -1    0    0    0    0  0.00000000000E+00  0.00000000000E+00  0.99999998245E-14  0.12500000000E+03  0.12500000000E+03 0.  0.
        -11    1    3    3    0    0 -0.21759042306E+02 -0.82749126999E+01  0.52290052183E+02  0.57237921519E+02  0.51100000000E-03 0.  1.
         23    2    1    0    0    0 -0.21865977392E+02  0.84998392794E+01  0.17934842459E+02  0.95469899948E+02  0.90788077339E+02 0.  0.
         11    1    3    3    0    0 -0.10693508594E+00  0.16774751979E+02 -0.34355209724E+02  0.38231978428E+02  0.51100000000E-03 0. -1.
         22    1    1    0    0    0  0.21865977392E+02 -0.84998392794E+01 -0.17934842459E+02  0.29530100052E+02  0.00000000000E+00 0.  1.
</event>
<event>
 5    1  0.1717518E-003  0.9118800E+02  0.7818608E-02  0.1130116E+00
         25   -1    0    0    0    0  0.00000000000E+00  0.00000000000E+00  0.99999998245E-14  0.12500000000E+03  0.12500000000E+03 0.  0.
        -11    1    3    3    0    0 -0.16315443219E+02  0.12657800855E+02 -0.52997686588E+02  0.56878540715E+02  0.51100000000E-03 0.  1.
         23    2    1    0    0    0 -0.23824615198E+02  0.59807150777E+01 -0.14919491794E+02  0.96260263091E+02  0.91869830591E+02 0.  0.
         11    1    3    3    0    0 -0.75091719790E+01 -0.66770857772E+01  0.38078194794E+02  0.39381722376E+02  0.51100000000E-03 0. -1.
         22    1    1    0    0    0  0.23824615198E+02 -0.59807150777E+01  0.14919491794E+02  0.28739736909E+02  0.00000000000E+00 0.  1.
</event>
<event>
 5    1  0.1717518E-003  0.9118800E+02  0.7818608E-02  0.1130116E+00
         25   -1    0    0    0    0  0.00000000000E+00  0.00000000000E+00  0.99999998245E-14  0.12500000000E+03  0.12500000000E+03 0.  0.
        -11    1    3    3    0    0 -0.78447469165E+01 -0.18430314976E+02  0.26643509155E+02  0.33333063835E+02  0.51100000000E-03 0.  1.
         23    2    1    0    0    0  0.21101751485E+00  0.16474075504E+02 -0.24318878008E+02  0.95625733717E+02  0.91002381448E+02 0.  0.
         11    1    3    3    0    0  0.80557644314E+01  0.34904390480E+02 -0.50962387163E+02  0.62292669882E+02  0.51100000000E-03 0. -1.
         22    1    1    0    0    0 -0.21101751485E+00 -0.16474075504E+02  0.24318878008E+02  0.29374266283E+02  0.00000000000E+00 0. -1.
</event>
<event>
 5    1  0.1717518E-003  0.9118800E+02  0.7818608E-02  0.1130116E+00
         25   -1    0    0    0    0  0.00000000000E+00  0.00000000000E+00  0.99999998245E-14  0.12500000000E+03  0.12500000000E+03 0.  0.
        -11    1    3    3    0    0  0.49049266793E+01 -0.30841358848E+02  0.29034411124E+02  0.42640881216E+02  0.51100000000E-03 0. -1.
         23    2    1    0    0    0 -0.18752841699E+02  0.15512353055E+02  0.14485119462E+02  0.96678261796E+02  0.92436818687E+02 0.  0.
         11    1    3    3    0    0 -0.23657768378E+02  0.46353711903E+02 -0.14549291662E+02  0.54037380580E+02  0.51100000000E-03 0.  1.
         22    1    1    0    0    0  0.18752841699E+02 -0.15512353055E+02 -0.14485119462E+02  0.28321738204E+02  0.00000000000E+00 0.  1.
</event>
<event>
 5    1  0.1717518E-003  0.9118800E+02  0.7818608E-02  0.1130116E+00
         25   -1    0    0    0    0  0.00000000000E+00  0.00000000000E+00  0.99999998245E-14  0.12500000000E+03  0.12500000000E+03 0.  0.
        -11    1    3    3    0    0 -0.34335404007E+02 -0.29239977969E+01  0.24898416433E+02  0.42513537521E+02  0.51100000000E-03 0.  1.
         23    2    1    0    0    0 -0.93616088367E+01 -0.17739107896E+02 -0.20445702278E+02  0.96358379748E+02  0.92003233297E+02 0.  0.
         11    1    3    3    0    0  0.24973795170E+02 -0.14815110100E+02 -0.45344118711E+02  0.53844842227E+02  0.51100000000E-03 0. -1.
         22    1    1    0    0    0  0.93616088367E+01  0.17739107896E+02  0.20445702278E+02  0.28641620252E+02  0.00000000000E+00 0. -1.
</event>
<event>
 5    1  0.1717518E-003  0.9118800E+02  0.7818608E-02  0.1130116E+00
         25   -1    0    0    0    0  0.00000000000E+00  0.00000000000E+00  0.99999998245E-14  0.12500000000E+03  0.12500000000E+03 0.  0.
        -11    1    3    3    0    0  0.21361154644E+02  0.48245609820E+02  0.23206169764E+02  0.57640819824E+02  0.51100000000E-03 0.  1.
         23    2    1    0    0    0  0.22416092479E+02  0.98603751876E+01  0.12501081827E+02  0.97504814100E+02  0.93547867559E+02 0.  0.
         11    1    3    3    0    0  0.10549378347E+01 -0.38385234632E+02 -0.10705087938E+02  0.39863994276E+02  0.51100000000E-03 0. -1.
         22    1    1    0    0    0 -0.22416092479E+02 -0.98603751876E+01 -0.12501081827E+02  0.27495185900E+02  0.00000000000E+00 0.  1.
</event>
<event>
 5    1  0.1717518E-003  0.9118800E+02  0.7818608E-02  0.1130116E+00
         25   -1    0    0    0    0  0.00000000000E+00  0.00000000000E+00  0.99999998245E-14  0.12500000000E+03  0.12500000000E+03 0.  0.
        -11    1    3    3    0    0 -0.75760132047E+01 -0.24344383856E+02 -0.32613491542E+02  0.41396676584E+02  0.51100000000E-03 0.  1.
         23    2    1    0    0    0 -0.31481706966E+02  0.30068656972E+01  0.41788194076E+01  0.93100130933E+02  0.87464465546E+02 0.  0.
         11    1    3    3    0    0 -0.23905693762E+02  0.27351249553E+02  0.36792310949E+02  0.51703454349E+02  0.51100000000E-03 0. -1.
         22    1    1    0    0    0  0.31481706966E+02 -0.30068656972E+01 -0.41788194076E+01  0.31899869067E+02  0.00000000000E+00 0.  1.
</event>
<event>
 5    1  0.1717518E-003  0.9118800E+02  0.7818608E-02  0.1130116E+00
         25   -1    0    0    0    0  0.00000000000E+00  0.00000000000E+00  0.99999998245E-14  0.12500000000E+03  0.12500000000E+03 0.  0.
        -11    1    3    3    0    0 -0.11675804185E+02 -0.25171052744E+02 -0.35692982884E+02  0.45209460592E+02  0.51100000000E-03 0.  1.
         23    2    1    0    0    0 -0.28035976470E+02  0.59919153711E+01  0.13396415082E+01  0.96299587706E+02  0.91923320907E+02 0.  0.
         11    1    3    3    0    0 -0.16360172286E+02  0.31162968115E+02  0.37032624392E+02  0.51090127115E+02  0.51100000000E-03 0. -1.
         22    1    1    0    0    0  0.28035976470E+02 -0.59919153711E+01 -0.13396415082E+01  0.28700412294E+02  0.00000000000E+00 0. -1.
</event>
<event>
 5    1  0.1717518E-003  0.9118800E+02  0.7818608E-02  0.1130116E+00
         25   -1    0    0    0    0  0.00000000000E+00  0.00000000000E+00  0.99999998245E-14  0.12500000000E+03  0.12500000000E+03 0.  0.
        -11    1    3    3    0    0 -0.10825082695E+02  0.38757069538E+02  0.46894919172E+02  0.61793416307E+02  0.51100000000E-03 0.  1.
         23    2    1    0    0    0  0.17778315448E+01  0.17792215601E+02  0.21102142437E+02  0.97340932112E+02  0.93328629198E+02 0.  0.
         11    1    3    3    0    0  0.12602914240E+02 -0.20964853937E+02 -0.25792776734E+02  0.35547515805E+02  0.51100000000E-03 0. -1.
         22    1    1    0    0    0 -0.17778315448E+01 -0.17792215601E+02 -0.21102142437E+02  0.27659067888E+02  0.00000000000E+00 0.  1.
</event>
<event>
 5    1  0.1717518E-003  0.9118800E+02  0.7818608E-02  0.1130116E+00
         25   -1    0    0    0    0  0.00000000000E+00  0.00000000000E+00  0.99999998245E-14  0.12500000000E+03  0.12500000000E+03 0.  0.
        -11    1    3    3    0    0 -0.18620985782E+02  0.40383524673E+02 -0.43714618185E+02  0.62358143172E+02  0.51100000000E-03 0. -1.
         23    2    1    0    0    0 -0.72930268065E+01  0.14435840591E+02 -0.19913622131E+02  0.99345875966E+02  0.95976398096E+02 0.  0.
         11    1    3    3    0    0  0.11327958976E+02 -0.25947684082E+02  0.23800996054E+02  0.36987732794E+02  0.51100000000E-03 0.  1.
         22    1    1    0    0    0  0.72930268065E+01 -0.14435840591E+02  0.19913622131E+02  0.25654124034E+02  0.00000000000E+00 0. -1.
</event>
<event>
 5    1  0.1717518E-003  0.9118800E+02  0.7818608E-02  0.1130116E+00
         25   -1    0    0    0    0  0.00000000000E+00  0.00000000000E+00  0.99999998245E-14  0.12500000000E+03  0.12500000000E+03 0.  0.
        -11    1    3    3    0    0 -0.11323062278E+01 -0.14787549098E+01  0.40722696071E+02  0.40765264736E+02  0.51100000000E-03 0.  1.
         23    2    1    0    0    0  0.71379140477E+01 -0.26443919374E+02 -0.82853097965E+01  0.96383972196E+02  0.92037997855E+02 0.  0.
         11    1    3    3    0    0  0.82702202755E+01 -0.24965164464E+02 -0.49008005868E+02  0.55618707460E+02  0.51100000000E-03 0. -1.
         22    1    1    0    0    0 -0.71379140477E+01  0.26443919374E+02  0.82853097965E+01  0.28616027804E+02  0.00000000000E+00 0. -1.
</event>
<event>
 5    1  0.1717518E-003  0.9118800E+02  0.7818608E-02  0.1130116E+00
         25   -1    0    0    0    0  0.00000000000E+00  0.00000000000E+00  0.99999998245E-14  0.12500000000E+03  0.12500000000E+03 0.  0.
        -11    1    3    3    0    0  0.27902262950E+02 -0.25556102880E+01  0.16600089219E+02  0.32567320799E+02  0.51100000000E-03 0. -1.
         23    2    1    0    0    0 -0.25732673242E+02  0.14520091511E+02 -0.85836548178E+01  0.94231791413E+02  0.89067097478E+02 0.  0.
         11    1    3    3    0    0 -0.53634936191E+02  0.17075701799E+02 -0.25183744037E+02  0.61664470614E+02  0.51100000000E-03 0.  1.
         22    1    1    0    0    0  0.25732673242E+02 -0.14520091511E+02  0.85836548178E+01  0.30768208587E+02  0.00000000000E+00 0.  1.
</event>
<event>
 5    1  0.1717518E-003  0.9118800E+02  0.7818608E-02  0.1130116E+00
         25   -1    0    0    0    0  0.00000000000E+00  0.00000000000E+00  0.99999998245E-14  0.12500000000E+03  0.12500000000E+03 0.  0.
        -11    1    3    3    0    0 -0.17126174060E+02 -0.14645507437E+02  0.32493905877E+02  0.39543022715E+02  0.51100000000E-03 0. -1.
         23    2    1    0    0    0  0.28859605937E+02 -0.18443776208E+01  0.23771152802E+01  0.95983982687E+02  0.91493145491E+02 0.  0.
         11    1    3    3    0    0  0.45985779997E+02  0.12801129816E+02 -0.30116790597E+02  0.56440959972E+02  0.51100000000E-03 0.  1.
         22    1    1    0    0    0 -0.28859605937E+02  0.18443776208E+01 -0.23771152802E+01  0.29016017313E+02  0.00000000000E+00 0.  1.
</event>
<event>
 5    1  0.1717518E-003  0.9118800E+02  0.7818608E-02  0.1130116E+00
         25   -1    0    0    0    0  0.00000000000E+00  0.00000000000E+00  0.99999998245E-14  0.12500000000E+03  0.12500000000E+03 0.  0.
        -11    1    3    3    0    0 -0.41615356120E+02 -0.70300554766E+01 -0.16419356537E+02  0.45286364552E+02  0.51100000000E-03 0. -1.
         23    2    1    0    0    0 -0.49271271332E+01 -0.32630365670E+02 -0.37213262576E+01  0.91790579429E+02  0.85572453847E+02 0.  0.
         11    1    3    3    0    0  0.36688228986E+02 -0.25600310193E+02  0.12698030279E+02  0.46504214878E+02  0.51100000000E-03 0.  1.
         22    1    1    0    0    0  0.49271271332E+01  0.32630365670E+02  0.37213262576E+01  0.33209420571E+02  0.00000000000E+00 0.  1.
</event>
<event>
 5    1  0.1717518E-003  0.9118800E+02  0.7818608E-02  0.1130116E+00
         25   -1    0    0    0    0  0.00000000000E+00  0.00000000000E+00  0.99999998245E-14  0.12500000000E+03  0.12500000000E+03 0.  0.
        -11    1    3    3    0    0  0.36017402582E+02  0.21684142470E+02  0.93634659143E+01  0.43071217972E+02  0.51100000000E-03 0. -1.
         23    2    1    0    0    0 -0.43460972110E+01 -0.88079860493E+01  0.26703880802E+02  0.96547119142E+02  0.92259307311E+02 0.  0.
         11    1    3    3    0    0 -0.40363499793E+02 -0.30492128519E+02  0.17340414888E+02  0.53475901170E+02  0.51100000000E-03 0.  1.
         22    1    1    0    0    0  0.43460972110E+01  0.88079860493E+01 -0.26703880802E+02  0.28452880858E+02  0.00000000000E+00 0.  1.
</event>
<event>
 5    1  0.1717518E-003  0.9118800E+02  0.7818608E-02  0.1130116E+00
         25   -1    0    0    0    0  0.00000000000E+00  0.00000000000E+00  0.99999998245E-14  0.12500000000E+03  0.12500000000E+03 0.  0.
        -11    1    3    3    0    0 -0.18113983680E+02 -0.22552368391E+02  0.49072152603E+02  0.56963162537E+02  0.51100000000E-03 0. -1.
         23    2    1    0    0    0  0.18422323841E+01 -0.26149206284E+02  0.22063729339E+02  0.90736565237E+02  0.84018696188E+02 0.  0.
         11    1    3    3    0    0  0.19956216064E+02 -0.35968378931E+01 -0.27008423265E+02  0.33773402700E+02  0.51100000000E-03 0.  1.
         22    1    1    0    0    0 -0.18422323841E+01  0.26149206284E+02 -0.22063729339E+02  0.34263434763E+02  0.00000000000E+00 0. -1.
</event>
<event>
 5    1  0.1717518E-003  0.9118800E+02  0.7818608E-02  0.1130116E+00
         25   -1    0    0    0    0  0.00000000000E+00  0.00000000000E+00  0.99999998245E-14  0.12500000000E+03  0.12500000000E+03 0.  0.
        -11    1    3    3    0    0 -0.58650599823E+02 -0.31236157223E+01 -0.12553734643E+02  0.60060353716E+02  0.51100000000E-03 0. -1.
         23    2    1    0    0    0 -0.26891701913E+02  0.10823883828E+02 -0.68588909125E+01  0.95211336427E+02  0.90431377889E+02 0.  0.
         11    1    3    3    0    0  0.31758897910E+02  0.13947499550E+02  0.56948437303E+01  0.35150982711E+02  0.51100000000E-03 0.  1.
         22    1    1    0    0    0  0.26891701913E+02 -0.10823883828E+02  0.68588909125E+01  0.29788663573E+02  0.00000000000E+00 0. -1.
</event>
<event>
 5    1  0.1717518E-003  0.9118800E+02  0.7818608E-02  0.1130116E+00
         25   -1    0    0    0    0  0.00000000000E+00  0.00000000000E+00  0.99999998245E-14  0.12500000000E+03  0.12500000000E+03 0.  0.
        -11    1    3    3    0    0  0.39919614348E+02 -0.36678863626E+02  0.73152842205E+01  0.54703089768E+02  0.51100000000E-03 0. -1.
         23    2    1    0    0    0  0.16074382710E+02 -0.12700859588E+02 -0.18617108097E+02  0.97317978259E+02  0.93297880816E+02 0.  0.
         11    1    3    3    0    0 -0.23845231639E+02  0.23978004038E+02 -0.25932392317E+02  0.42614888491E+02  0.51100000000E-03 0.  1.
         22    1    1    0    0    0 -0.16074382710E+02  0.12700859588E+02  0.18617108097E+02  0.27682021741E+02  0.00000000000E+00 0. -1.
</event>
<event>
 5    1  0.1717518E-003  0.9118800E+02  0.7818608E-02  0.1130116E+00
         25   -1    0    0    0    0  0.00000000000E+00  0.00000000000E+00  0.99999998245E-14  0.12500000000E+03  0.12500000000E+03 0.  0.
        -11    1    3    3    0    0  0.11290139277E+02 -0.40576680404E+02 -0.22264867277E+02  0.47640933583E+02  0.51100000000E-03 0.  1.
         23    2    1    0    0    0 -0.98440666324E+01 -0.21550329642E+02  0.16797098144E+02  0.95957533479E+02  0.91457002847E+02 0.  0.
         11    1    3    3    0    0 -0.21134205909E+02  0.19026350761E+02  0.39061965422E+02  0.48316599897E+02  0.51100000000E-03 0. -1.
         22    1    1    0    0    0  0.98440666324E+01  0.21550329642E+02 -0.16797098144E+02  0.29042466521E+02  0.00000000000E+00 0. -1.
</event>
<event>
 5    1  0.1717518E-003  0.9118800E+02  0.7818608E-02  0.1130116E+00
         25   -1    0    0    0    0  0.00000000000E+00  0.00000000000E+00  0.99999998245E-14  0.12500000000E+03  0.12500000000E+03 0.  0.
        -11    1    3    3    0    0  0.15243222783E+02  0.46576731507E+02  0.36388170387E+01  0.49142535023E+02  0.51100000000E-03 0.  1.
         23    2    1    0    0    0 -0.66857690662E+01  0.17073416008E+02 -0.23758091747E+02  0.94989202516E+02  0.90123807227E+02 0.  0.
         11    1    3    3    0    0 -0.21928991850E+02 -0.29503315500E+02 -0.27396908785E+02  0.45846667493E+02  0.51100000000E-03 0. -1.
         22    1    1    0    0    0  0.66857690662E+01 -0.17073416008E+02  0.23758091747E+02  0.30010797484E+02  0.00000000000E+00 0.  1.
</event>
<event>
 5    1  0.1717518E-003  0.9118800E+02  0.7818608E-02  0.1130116E+00
         25   -1    0    0    0    0  0.00000000000E+00  0.00000000000E+00  0.99999998245E-14  0.12500000000E+03  0.12500000000E+03 0.  0.
        -11    1    3    3    0    0 -0.21705354751E+02 -0.19684261233E+01 -0.43037313007E+02  0.48241138434E+02  0.51100000000E-03 0. -1.
         23    2    1    0    0    0 -0.15176535882E+02  0.24815514473E+02 -0.45886479921E+01  0.95551864400E+02  0.90900858631E+02 0.  0.
         11    1    3    3    0    0  0.65288188693E+01  0.26783940597E+02  0.38448665015E+02  0.47310725966E+02  0.51100000000E-03 0.  1.
         22    1    1    0    0    0  0.15176535882E+02 -0.24815514473E+02  0.45886479921E+01  0.29448135600E+02  0.00000000000E+00 0. -1.
</event>
<event>
 5    1  0.1717518E-003  0.9118800E+02  0.7818608E-02  0.1130116E+00
         25   -1    0    0    0    0  0.00000000000E+00  0.00000000000E+00  0.99999998245E-14  0.12500000000E+03  0.12500000000E+03 0.  0.
        -11    1    3    3    0    0  0.20643645894E+02  0.42792881760E+02 -0.40601528452E+02  0.62496999593E+02  0.51100000000E-03 0.  1.
         23    2    1    0    0    0  0.96438248140E+01  0.19438546818E+02 -0.18071170753E+02  0.96761238132E+02  0.92548957493E+02 0.  0.
         11    1    3    3    0    0 -0.10999821080E+02 -0.23354334942E+02  0.22530357700E+02  0.34264238540E+02  0.51100000000E-03 0. -1.
         22    1    1    0    0    0 -0.96438248140E+01 -0.19438546818E+02  0.18071170753E+02  0.28238761868E+02  0.00000000000E+00 0.  1.
</event>
<event>
 5    1  0.1717518E-003  0.9118800E+02  0.7818608E-02  0.1130116E+00
         25   -1    0    0    0    0  0.00000000000E+00  0.00000000000E+00  0.99999998245E-14  0.12500000000E+03  0.12500000000E+03 0.  0.
        -11    1    3    3    0    0  0.15338527030E+02  0.35823944670E+02  0.41743617302E+02  0.57106523348E+02  0.51100000000E-03 0. -1.
         23    2    1    0    0    0  0.45057027872E+01  0.10343855921E+01  0.28887172228E+02  0.95745256274E+02  0.91166408663E+02 0.  0.
         11    1    3    3    0    0 -0.10832824243E+02 -0.34789559078E+02 -0.12856445074E+02  0.38638732926E+02  0.51100000000E-03 0.  1.
         22    1    1    0    0    0 -0.45057027872E+01 -0.10343855921E+01 -0.28887172228E+02  0.29254743726E+02  0.00000000000E+00 0. -1.
</event>
<event>
 5    1  0.1717518E-003  0.9118800E+02  0.7818608E-02  0.1130116E+00
         25   -1    0    0    0    0  0.00000000000E+00  0.00000000000E+00  0.99999998245E-14  0.12500000000E+03  0.12500000000E+03 0.  0.
        -11    1    3    3    0    0  0.59219498319E+01 -0.18366061759E+02 -0.34076299237E+02  0.39160897388E+02  0.51100000000E-03 0. -1.
         23    2    1    0    0    0  0.25744209187E+02  0.53350367413E+01  0.13155444213E+02  0.95601145666E+02  0.90968601267E+02 0.  0.
         11    1    3    3    0    0  0.19822259355E+02  0.23701098500E+02  0.47231743450E+02  0.56440248278E+02  0.51100000000E-03 0.  1.
         22    1    1    0    0    0 -0.25744209187E+02 -0.53350367413E+01 -0.13155444213E+02  0.29398854334E+02  0.00000000000E+00 0.  1.
</event>
<event>
 5    1  0.1717518E-003  0.9118800E+02  0.7818608E-02  0.1130116E+00
         25   -1    0    0    0    0  0.00000000000E+00  0.00000000000E+00  0.99999998245E-14  0.12500000000E+03  0.12500000000E+03 0.  0.
        -11    1    3    3    0    0  0.21189812507E+02  0.66450774839E+01  0.27664326314E+02  0.35475063911E+02  0.51100000000E-03 0.  1.
         23    2    1    0    0    0 -0.23609614818E+02  0.17178294619E+02 -0.91423386105E+01  0.94404410887E+02  0.89309029341E+02 0.  0.
         11    1    3    3    0    0 -0.44799427325E+02  0.10533217135E+02 -0.36806664925E+02  0.58929346976E+02  0.51100000000E-03 0. -1.
         22    1    1    0    0    0  0.23609614818E+02 -0.17178294619E+02  0.91423386105E+01  0.30595589113E+02  0.00000000000E+00 0.  1.
</event>
<event>
 5    1  0.1717518E-003  0.9118800E+02  0.7818608E-02  0.1130116E+00
         25   -1    0    0    0    0  0.00000000000E+00  0.00000000000E+00  0.99999998245E-14  0.12500000000E+03  0.12500000000E+03 0.  0.
        -11    1    3    3    0    0 -0.31179794500E+02 -0.21692071295E+02 -0.12893305296E+02  0.40111879336E+02  0.51100000000E-03 0.  1.
         23    2    1    0    0    0  0.23729581226E+02 -0.15824447288E+02 -0.68768556502E+01  0.95660652687E+02  0.91050333177E+02 0.  0.
         11    1    3    3    0    0  0.54909375726E+02  0.58676240076E+01  0.60164496453E+01  0.55548773351E+02  0.51100000000E-03 0. -1.
         22    1    1    0    0    0 -0.23729581226E+02  0.15824447288E+02  0.68768556502E+01  0.29339347313E+02  0.00000000000E+00 0. -1.
</event>
<event>
 5    1  0.1717518E-003  0.9118800E+02  0.7818608E-02  0.1130116E+00
         25   -1    0    0    0    0  0.00000000000E+00  0.00000000000E+00  0.99999998245E-14  0.12500000000E+03  0.12500000000E+03 0.  0.
        -11    1    3    3    0    0  0.38231359461E+02  0.54046463646E+01  0.84876808377E+01  0.39533375455E+02  0.51100000000E-03 0.  1.
         23    2    1    0    0    0 -0.53584142469E+01  0.62788042432E+01 -0.27639037691E+02  0.96154681655E+02  0.91726061802E+02 0.  0.
         11    1    3    3    0    0 -0.43589773708E+02  0.87415787858E+00 -0.36126718529E+02  0.56621306200E+02  0.51100000000E-03 0. -1.
         22    1    1    0    0    0  0.53584142469E+01 -0.62788042432E+01  0.27639037691E+02  0.28845318345E+02  0.00000000000E+00 0. -1.
</event>
<event>
 5    1  0.1717518E-003  0.9118800E+02  0.7818608E-02  0.1130116E+00
         25   -1    0    0    0    0  0.00000000000E+00  0.00000000000E+00  0.99999998245E-14  0.12500000000E+03  0.12500000000E+03 0.  0.
        -11    1    3    3    0    0 -0.53115940388E+02  0.14426114127E+02  0.25256025627E+01  0.55098044980E+02  0.51100000000E-03 0. -1.
         23    2    1    0    0    0 -0.16250456121E+02  0.15964856906E+02  0.18836876382E+02  0.95440198039E+02  0.90747173563E+02 0.  0.
         11    1    3    3    0    0  0.36865484267E+02  0.15387427793E+01  0.16311273819E+02  0.40342153059E+02  0.51100000000E-03 0.  1.
         22    1    1    0    0    0  0.16250456121E+02 -0.15964856906E+02 -0.18836876382E+02  0.29559801961E+02  0.00000000000E+00 0. -1.
</event>
<event>
 5    1  0.1717518E-003  0.9118800E+02  0.7818608E-02  0.1130116E+00
         25   -1    0    0    0    0  0.00000000000E+00  0.00000000000E+00  0.99999998245E-14  0.12500000000E+03  0.12500000000E+03 0.  0.
        -11    1    3    3    0    0 -0.14637588352E+02 -0.28168118871E+02  0.11440303005E+02  0.33742887349E+02  0.51100000000E-03 0.  1.
         23    2    1    0    0    0  0.90987537313E+01  0.26735469510E+02  0.13722512698E+02  0.93601273845E+02  0.88177766253E+02 0.  0.
         11    1    3    3    0    0  0.23736342084E+02  0.54903588381E+02  0.22822096927E+01  0.59858386497E+02  0.51100000000E-03 0. -1.
         22    1    1    0    0    0 -0.90987537313E+01 -0.26735469510E+02 -0.13722512698E+02  0.31398726155E+02  0.00000000000E+00 0. -1.
</event>
<event>
 5    1  0.1717518E-003  0.9118800E+02  0.7818608E-02  0.1130116E+00
         25   -1    0    0    0    0  0.00000000000E+00  0.00000000000E+00  0.99999998245E-14  0.12500000000E+03  0.12500000000E+03 0.  0.
        -11    1    3    3    0    0 -0.50181721182E+02 -0.31364418315E+02 -0.19821096229E+02  0.62408394732E+02  0.51100000000E-03 0. -1.
         23    2    1    0    0    0 -0.22035339418E+02 -0.16517421871E+02 -0.86406498377E+01  0.96137528897E+02  0.91702683844E+02 0.  0.
         11    1    3    3    0    0  0.28146381764E+02  0.14846996444E+02  0.11180446391E+02  0.33729134165E+02  0.51100000000E-03 0.  1.
         22    1    1    0    0    0  0.22035339418E+02  0.16517421871E+02  0.86406498377E+01  0.28862471103E+02  0.00000000000E+00 0. -1.
</event>
<event>
 5    1  0.1717518E-003  0.9118800E+02  0.7818608E-02  0.1130116E+00
         25   -1    0    0    0    0  0.00000000000E+00  0.00000000000E+00  0.99999998245E-14  0.12500000000E+03  0.12500000000E+03 0.  0.
        -11    1    3    3    0    0 -0.16826330030E+02  0.22654571564E+02 -0.18741577389E+01  0.28281928197E+02  0.51100000000E-03 0.  1.
         23    2    1    0    0    0  0.17167500003E+02 -0.22309502274E+02  0.21775934007E+02  0.89410278872E+02  0.82021763685E+02 0.  0.
         11    1    3    3    0    0  0.33993830033E+02 -0.44964073838E+02  0.23650091746E+02  0.61128350675E+02  0.51100000000E-03 0. -1.
         22    1    1    0    0    0 -0.17167500003E+02  0.22309502274E+02 -0.21775934007E+02  0.35589721128E+02  0.00000000000E+00 0. -1.
</event>
<event>
 5    1  0.1717518E-003  0.9118800E+02  0.7818608E-02  0.1130116E+00
         25   -1    0    0    0    0  0.00000000000E+00  0.00000000000E+00  0.99999998245E-14  0.12500000000E+03  0.12500000000E+03 0.  0.
        -11    1    3    3    0    0 -0.24895546205E+02  0.36727152073E+02 -0.39690793415E+02  0.59531764650E+02  0.51100000000E-03 0. -1.
         23    2    1    0    0    0 -0.85168428842E+01  0.50772629132E+01 -0.25050408263E+02  0.98058616117E+02  0.94284961841E+02 0.  0.
         11    1    3    3    0    0  0.16378703321E+02 -0.31649889160E+02  0.14640385152E+02  0.38526851467E+02  0.51100000000E-03 0.  1.
         22    1    1    0    0    0  0.85168428842E+01 -0.50772629132E+01  0.25050408263E+02  0.26941383883E+02  0.00000000000E+00 0. -1.
</event>
<event>
 5    1  0.1717518E-003  0.9118800E+02  0.7818608E-02  0.1130116E+00
         25   -1    0    0    0    0  0.00000000000E+00  0.00000000000E+00  0.99999998245E-14  0.12500000000E+03  0.12500000000E+03 0.  0.
        -11    1    3    3    0    0 -0.50425387650E+02 -0.19386564580E+02  0.30533407661E+02  0.62055197925E+02  0.51100000000E-03 0.  1.
         23    2    1    0    0    0 -0.20206369005E+02 -0.10499527177E+02  0.18070009918E+02  0.95930038223E+02  0.91419415639E+02 0.  0.
         11    1    3    3    0    0  0.30219018645E+02  0.88870374034E+01 -0.12463397743E+02  0.33874840298E+02  0.51100000000E-03 0. -1.
         22    1    1    0    0    0  0.20206369005E+02  0.10499527177E+02 -0.18070009918E+02  0.29069961777E+02  0.00000000000E+00 0.  1.
</event>
<event>
 5    1  0.1717518E-003  0.9118800E+02  0.7818608E-02  0.1130116E+00
         25   -1    0    0    0    0  0.00000000000E+00  0.00000000000E+00  0.99999998245E-14  0.12500000000E+03  0.12500000000E+03 0.  0.
        -11    1    3    3    0    0 -0.20593662245E+02  0.33821505111E+02 -0.10250996014E+01  0.39611159565E+02  0.51100000000E-03 0.  1.
         23    2    1    0    0    0 -0.12004434174E+02 -0.20775039919E+02 -0.15108731906E+02  0.96645414775E+02  0.92392389804E+02 0.  0.
         11    1    3    3    0    0  0.85892280707E+01 -0.54596545031E+02 -0.14083632304E+02  0.57034255209E+02  0.51100000000E-03 0. -1.
         22    1    1    0    0    0  0.12004434174E+02  0.20775039919E+02  0.15108731906E+02  0.28354585225E+02  0.00000000000E+00 0.  1.
</event>
<event>
 5    1  0.1717518E-003  0.9118800E+02  0.7818608E-02  0.1130116E+00
         25   -1    0    0    0    0  0.00000000000E+00  0.00000000000E+00  0.99999998245E-14  0.12500000000E+03  0.12500000000E+03 0.  0.
        -11    1    3    3    0    0  0.18067555175E+02 -0.35705120402E+02 -0.45767035676E+02  0.60794027073E+02  0.51100000000E-03 0.  1.
         23    2    1    0    0    0  0.17122163436E+02 -0.11409359300E+02 -0.18455165429E+02  0.97360624259E+02  0.93355000212E+02 0.  0.
         11    1    3    3    0    0 -0.94539173975E+00  0.24295761103E+02  0.27311870246E+02  0.36566597185E+02  0.51100000000E-03 0. -1.
         22    1    1    0    0    0 -0.17122163436E+02  0.11409359300E+02  0.18455165429E+02  0.27639375741E+02  0.00000000000E+00 0.  1.
</event>
<event>
 5    1  0.1717518E-003  0.9118800E+02  0.7818608E-02  0.1130116E+00
         25   -1    0    0    0    0  0.00000000000E+00  0.00000000000E+00  0.99999998245E-14  0.12500000000E+03  0.12500000000E+03 0.  0.
        -11    1    3    3    0    0 -0.11173284813E+02 -0.15699706901E+01  0.43574535203E+02  0.45011634273E+02  0.51100000000E-03 0.  1.
         23    2    1    0    0    0 -0.24952872076E+02 -0.12752317782E+02 -0.48277533354E+01  0.96564553179E+02  0.92282925261E+02 0.  0.
         11    1    3    3    0    0 -0.13779587263E+02 -0.11182347092E+02 -0.48402288539E+02  0.51552918905E+02  0.51100000000E-03 0. -1.
         22    1    1    0    0    0  0.24952872076E+02  0.12752317782E+02  0.48277533354E+01  0.28435446821E+02  0.00000000000E+00 0. -1.
</event>
<event>
 5    1  0.1717518E-003  0.9118800E+02  0.7818608E-02  0.1130116E+00
         25   -1    0    0    0    0  0.00000000000E+00  0.00000000000E+00  0.99999998245E-14  0.12500000000E+03  0.12500000000E+03 0.  0.
        -11    1    3    3    0    0  0.22517610700E+02 -0.72543004263E+01  0.30352347819E+02  0.38482888206E+02  0.51100000000E-03 0. -1.
         23    2    1    0    0    0 -0.78840284337E+01 -0.26043514306E+02 -0.13145854581E+02  0.94780204593E+02  0.89833463410E+02 0.  0.
         11    1    3    3    0    0 -0.30401639133E+02 -0.18789213880E+02 -0.43498202399E+02  0.56297316388E+02  0.51100000000E-03 0.  1.
         22    1    1    0    0    0  0.78840284337E+01  0.26043514306E+02  0.13145854581E+02  0.30219795407E+02  0.00000000000E+00 0.  1.
</event>
<event>
 5    1  0.1717518E-003  0.9118800E+02  0.7818608E-02  0.1130116E+00
         25   -1    0    0    0    0  0.00000000000E+00  0.00000000000E+00  0.99999998245E-14  0.12500000000E+03  0.12500000000E+03 0.  0.
        -11    1    3    3    0    0  0.21949850181E+02  0.35660466736E+02  0.28979477608E+02  0.50924207736E+02  0.51100000000E-03 0. -1.
         23    2    1    0    0    0  0.16410313356E+02 -0.63335148894E+01  0.26291094802E+02  0.93367209083E+02  0.87845331525E+02 0.  0.
         11    1    3    3    0    0 -0.55395368247E+01 -0.41993981626E+02 -0.26883828057E+01  0.42443001347E+02  0.51100000000E-03 0.  1.
         22    1    1    0    0    0 -0.16410313356E+02  0.63335148894E+01 -0.26291094802E+02  0.31632790917E+02  0.00000000000E+00 0.  1.
</event>
<event>
 5    1  0.1717518E-003  0.9118800E+02  0.7818608E-02  0.1130116E+00
         25   -1    0    0    0    0  0.00000000000E+00  0.00000000000E+00  0.99999998245E-14  0.12500000000E+03  0.12500000000E+03 0.  0.
        -11    1    3    3    0    0  0.14795612850E+02  0.50231075945E+02 -0.15575045380E+02  0.54631979545E+02  0.51100000000E-03 0. -1.
         23    2    1    0    0    0  0.28587402642E+01  0.11653509287E+02 -0.26023055057E+02  0.96343830174E+02  0.91983463424E+02 0.  0.
         11    1    3    3    0    0 -0.11936872586E+02 -0.38577566658E+02 -0.10448009677E+02  0.41711850628E+02  0.51100000000E-03 0.  1.
         22    1    1    0    0    0 -0.28587402642E+01 -0.11653509287E+02  0.26023055057E+02  0.28656169826E+02  0.00000000000E+00 0. -1.
</event>
<event>
 5    1  0.1717518E-003  0.9118800E+02  0.7818608E-02  0.1130116E+00
         25   -1    0    0    0    0  0.00000000000E+00  0.00000000000E+00  0.99999998245E-14  0.12500000000E+03  0.12500000000E+03 0.  0.
        -11    1    3    3    0    0  0.10690787535E+02 -0.58013780760E+01 -0.32340076839E+02  0.34551837808E+02  0.51100000000E-03 0.  1.
         23    2    1    0    0    0 -0.10140406371E+02  0.17670625639E+02  0.20556847056E+02  0.96057594904E+02  0.91593660948E+02 0.  0.
         11    1    3    3    0    0 -0.20831193906E+02  0.23472003715E+02  0.52896923896E+02  0.61505757095E+02  0.51100000000E-03 0. -1.
         22    1    1    0    0    0  0.10140406371E+02 -0.17670625639E+02 -0.20556847056E+02  0.28942405096E+02  0.00000000000E+00 0. -1.
</event>
<event>
 5    1  0.1717518E-003  0.9118800E+02  0.7818608E-02  0.1130116E+00
         25   -1    0    0    0    0  0.00000000000E+00  0.00000000000E+00  0.99999998245E-14  0.12500000000E+03  0.12500000000E+03 0.  0.
        -11    1    3    3    0    0  0.19055464347E+02 -0.35559995014E+02 -0.36572127477E+02  0.54453140179E+02  0.51100000000E-03 0. -1.
         23    2    1    0    0    0  0.16946554786E+02 -0.23135562593E+02  0.31715449544E+01  0.96146946903E+02  0.91715520637E+02 0.  0.
         11    1    3    3    0    0 -0.21089095603E+01  0.12424432421E+02  0.39743672431E+02  0.41693806724E+02  0.51100000000E-03 0.  1.
         22    1    1    0    0    0 -0.16946554786E+02  0.23135562593E+02 -0.31715449544E+01  0.28853053097E+02  0.00000000000E+00 0. -1.
</event>
<event>
 5    1  0.1717518E-003  0.9118800E+02  0.7818608E-02  0.1130116E+00
         25   -1    0    0    0    0  0.00000000000E+00  0.00000000000E+00  0.99999998245E-14  0.12500000000E+03  0.12500000000E+03 0.  0.
        -11    1    3    3    0    0  0.72922048256E+01 -0.28599285255E+02 -0.37498041689E+02  0.47720001039E+02  0.51100000000E-03 0.  1.
         23    2    1    0    0    0  0.14012397993E+02 -0.22555640738E+02  0.10414035531E+02  0.96477090565E+02  0.92164378375E+02 0.  0.
         11    1    3    3    0    0  0.67201931672E+01  0.60436445173E+01  0.47912077220E+02  0.48757089526E+02  0.51100000000E-03 0. -1.
         22    1    1    0    0    0 -0.14012397993E+02  0.22555640738E+02 -0.10414035531E+02  0.28522909435E+02  0.00000000000E+00 0.  1.
</event>
<event>
 5    1  0.1717518E-003  0.9118800E+02  0.7818608E-02  0.1130116E+00
         25   -1    0    0    0    0  0.00000000000E+00  0.00000000000E+00  0.99999998245E-14  0.12500000000E+03  0.12500000000E+03 0.  0.
        -11    1    3    3    0    0 -0.59391243556E+02 -0.47999886308E+01 -0.43899619074E+01  0.59746392927E+02  0.51100000000E-03 0.  1.
         23    2    1    0    0    0 -0.23151539394E+02 -0.10886101416E+02 -0.11119596824E+02  0.97104724165E+02  0.93011725290E+02 0.  0.
         11    1    3    3    0    0  0.36239704162E+02 -0.60861127848E+01 -0.67296349167E+01  0.37358331239E+02  0.51100000000E-03 0. -1.
         22    1    1    0    0    0  0.23151539394E+02  0.10886101416E+02  0.11119596824E+02  0.27895275835E+02  0.00000000000E+00 0.  1.
</event>
<event>
 5    1  0.1717518E-003  0.9118800E+02  0.7818608E-02  0.1130116E+00
         25   -1    0    0    0    0  0.00000000000E+00  0.00000000000E+00  0.99999998245E-14  0.12500000000E+03  0.12500000000E+03 0.  0.
        -11    1    3    3    0    0 -0.34291126929E+02 -0.39716391434E+01 -0.27810059789E+02  0.44328937832E+02  0.51100000000E-03 0. -1.
         23    2    1    0    0    0  0.84207775957E+01  0.22601912707E+02 -0.16169624774E+02  0.95961874739E+02  0.91462936126E+02 0.  0.
         11    1    3    3    0    0  0.42711904525E+02  0.26573551850E+02  0.11640435015E+02  0.51632936907E+02  0.51100000000E-03 0.  1.
         22    1    1    0    0    0 -0.84207775957E+01 -0.22601912707E+02  0.16169624774E+02  0.29038125261E+02  0.00000000000E+00 0. -1.
</event>
<event>
 5    1  0.1717518E-003  0.9118800E+02  0.7818608E-02  0.1130116E+00
         25   -1    0    0    0    0  0.00000000000E+00  0.00000000000E+00  0.99999998245E-14  0.12500000000E+03  0.12500000000E+03 0.  0.
        -11    1    3    3    0    0  0.30758232202E+02  0.21321297781E+02  0.33277066675E+01  0.37573131613E+02  0.51100000000E-03 0. -1.
         23    2    1    0    0    0  0.68485288330E+01 -0.27853118837E+02 -0.11294666268E+02  0.94173581748E+02  0.88985366421E+02 0.  0.
         11    1    3    3    0    0 -0.23909703369E+02 -0.49174416618E+02 -0.14622372936E+02  0.56600450135E+02  0.51100000000E-03 0.  1.
         22    1    1    0    0    0 -0.68485288330E+01  0.27853118837E+02  0.11294666268E+02  0.30826418252E+02  0.00000000000E+00 0.  1.
</event>
<event>
 5    1  0.1717518E-003  0.9118800E+02  0.7818608E-02  0.1130116E+00
         25   -1    0    0    0    0  0.00000000000E+00  0.00000000000E+00  0.99999998245E-14  0.12500000000E+03  0.12500000000E+03 0.  0.
        -11    1    3    3    0    0  0.30552975050E+02 -0.60536908943E+01  0.93026928348E+01  0.32506484770E+02  0.51100000000E-03 0. -1.
         23    2    1    0    0    0 -0.27057198435E+02 -0.50869453658E+01 -0.13331232236E+02  0.94410937359E+02  0.89318163549E+02 0.  0.
         11    1    3    3    0    0 -0.57610173486E+02  0.96674552855E+00 -0.22633925071E+02  0.61904452589E+02  0.51100000000E-03 0.  1.
         22    1    1    0    0    0  0.27057198435E+02  0.50869453658E+01  0.13331232236E+02  0.30589062641E+02  0.00000000000E+00 0.  1.
</event>
<event>
 5    1  0.1717518E-003  0.9118800E+02  0.7818608E-02  0.1130116E+00
         25   -1    0    0    0    0  0.00000000000E+00  0.00000000000E+00  0.99999998245E-14  0.12500000000E+03  0.12500000000E+03 0.  0.
        -11    1    3    3    0    0  0.31314909558E+02 -0.14011049340E+02  0.21392468419E+02  0.40429825248E+02  0.51100000000E-03 0.  1.
         23    2    1    0    0    0 -0.92013034011E+01  0.21289771172E+02  0.20299115160E+02  0.94178377442E+02  0.88992102799E+02 0.  0.
         11    1    3    3    0    0 -0.40516212959E+02  0.35300820512E+02 -0.10933532593E+01  0.53748552194E+02  0.51100000000E-03 0. -1.
         22    1    1    0    0    0  0.92013034011E+01 -0.21289771172E+02 -0.20299115160E+02  0.30821622558E+02  0.00000000000E+00 0. -1.
</event>
<event>
 5    1  0.1717518E-003  0.9118800E+02  0.7818608E-02  0.1130116E+00
         25   -1    0    0    0    0  0.00000000000E+00  0.00000000000E+00  0.99999998245E-14  0.12500000000E+03  0.12500000000E+03 0.  0.
        -11    1    3    3    0    0  0.12593443113E+02 -0.51626964789E+02 -0.30469264332E+02  0.61256137422E+02  0.51100000000E-03 0. -1.
         23    2    1    0    0    0  0.10833345981E+02 -0.18022461413E+02 -0.18562656648E+02  0.96951065575E+02  0.92804991212E+02 0.  0.
         11    1    3    3    0    0 -0.17600971320E+01  0.33604503376E+02  0.11906607683E+02  0.35694928153E+02  0.51100000000E-03 0.  1.
         22    1    1    0    0    0 -0.10833345981E+02  0.18022461413E+02  0.18562656648E+02  0.28048934425E+02  0.00000000000E+00 0. -1.
</event>
<event>
 5    1  0.1717518E-003  0.9118800E+02  0.7818608E-02  0.1130116E+00
         25   -1    0    0    0    0  0.00000000000E+00  0.00000000000E+00  0.99999998245E-14  0.12500000000E+03  0.12500000000E+03 0.  0.
        -11    1    3    3    0    0  0.44799830760E+02  0.18231250469E+02  0.10924384341E+02  0.49585738911E+02  0.51100000000E-03 0. -1.
         23    2    1    0    0    0  0.29500999486E+01  0.13548941429E+02  0.26989395657E+02  0.94656889060E+02  0.89661710139E+02 0.  0.
         11    1    3    3    0    0 -0.41849730812E+02 -0.46823090392E+01  0.16065011316E+02  0.45071150150E+02  0.51100000000E-03 0.  1.
         22    1    1    0    0    0 -0.29500999486E+01 -0.13548941429E+02 -0.26989395657E+02  0.30343110940E+02  0.00000000000E+00 0. -1.
</event>
<event>
 5    1  0.1717518E-003  0.9118800E+02  0.7818608E-02  0.1130116E+00
         25   -1    0    0    0    0  0.00000000000E+00  0.00000000000E+00  0.99999998245E-14  0.12500000000E+03  0.12500000000E+03 0.  0.
        -11    1    3    3    0    0 -0.45791242695E+02  0.27717334131E+02 -0.14450124010E+02  0.55442714608E+02  0.51100000000E-03 0. -1.
         23    2    1    0    0    0 -0.21927098287E+02  0.18648741451E+02  0.13422138693E+02  0.93239537093E+02  0.87663471716E+02 0.  0.
         11    1    3    3    0    0  0.23864144408E+02 -0.90685926804E+01  0.27872262703E+02  0.37796822485E+02  0.51100000000E-03 0.  1.
         22    1    1    0    0    0  0.21927098287E+02 -0.18648741451E+02 -0.13422138693E+02  0.31760462907E+02  0.00000000000E+00 0. -1.
</event>
<event>
 5    1  0.1717518E-003  0.9118800E+02  0.7818608E-02  0.1130116E+00
         25   -1    0    0    0    0  0.00000000000E+00  0.00000000000E+00  0.99999998245E-14  0.12500000000E+03  0.12500000000E+03 0.  0.
        -11    1    3    3    0    0 -0.27481840582E+02 -0.42981534651E+02  0.10699892733E+02  0.52126304180E+02  0.51100000000E-03 0. -1.
         23    2    1    0    0    0 -0.28192252391E+02 -0.30688519728E+00 -0.22180999370E+01  0.96718959695E+02  0.92491837065E+02 0.  0.
         11    1    3    3    0    0 -0.71041180968E+00  0.42674649454E+02 -0.12917992670E+02  0.44592655515E+02  0.51100000000E-03 0.  1.
         22    1    1    0    0    0  0.28192252391E+02  0.30688519728E+00  0.22180999370E+01  0.28281040305E+02  0.00000000000E+00 0.  1.
</event>
<event>
 5    1  0.1717518E-003  0.9118800E+02  0.7818608E-02  0.1130116E+00
         25   -1    0    0    0    0  0.00000000000E+00  0.00000000000E+00  0.99999998245E-14  0.12500000000E+03  0.12500000000E+03 0.  0.
        -11    1    3    3    0    0 -0.16181871334E+02  0.34861081049E+02 -0.73313454965E+01  0.39126673240E+02  0.51100000000E-03 0. -1.
         23    2    1    0    0    0 -0.98357398720E+01 -0.14676612518E+02  0.21796255249E+02  0.96942532603E+02  0.92793497352E+02 0.  0.
         11    1    3    3    0    0  0.63461314618E+01 -0.49537693567E+02  0.29127600746E+02  0.57815859363E+02  0.51100000000E-03 0.  1.
         22    1    1    0    0    0  0.98357398720E+01  0.14676612518E+02 -0.21796255249E+02  0.28057467397E+02  0.00000000000E+00 0.  1.
</event>
<event>
 5    1  0.1717518E-003  0.9118800E+02  0.7818608E-02  0.1130116E+00
         25   -1    0    0    0    0  0.00000000000E+00  0.00000000000E+00  0.99999998245E-14  0.12500000000E+03  0.12500000000E+03 0.  0.
        -11    1    3    3    0    0  0.28876650349E+02  0.43428588779E+02  0.54246311998E+00  0.52155512894E+02  0.51100000000E-03 0. -1.
         23    2    1    0    0    0 -0.61025512589E+01  0.25404475315E+02 -0.15467502430E+02  0.94637652770E+02  0.89634888255E+02 0.  0.
         11    1    3    3    0    0 -0.34979201608E+02 -0.18024113464E+02 -0.16009965550E+02  0.42482139876E+02  0.51100000000E-03 0.  1.
         22    1    1    0    0    0  0.61025512589E+01 -0.25404475315E+02  0.15467502430E+02  0.30362347230E+02  0.00000000000E+00 0. -1.
</event>
<event>
 5    1  0.1717518E-003  0.9118800E+02  0.7818608E-02  0.1130116E+00
         25   -1    0    0    0    0  0.00000000000E+00  0.00000000000E+00  0.99999998245E-14  0.12500000000E+03  0.12500000000E+03 0.  0.
        -11    1    3    3    0    0 -0.20628209630E+00 -0.28604284236E+02 -0.23224017289E+02  0.36845659286E+02  0.51100000000E-03 0. -1.
         23    2    1    0    0    0 -0.22929443170E+02  0.72184319190E+01  0.17198402654E+02  0.95442426059E+02  0.90750242505E+02 0.  0.
         11    1    3    3    0    0 -0.22723161074E+02  0.35822716155E+02  0.40422419943E+02  0.58596766772E+02  0.51100000000E-03 0.  1.
         22    1    1    0    0    0  0.22929443170E+02 -0.72184319190E+01 -0.17198402654E+02  0.29557573941E+02  0.00000000000E+00 0.  1.
</event>
<event>
 5    1  0.1717518E-003  0.9118800E+02  0.7818608E-02  0.1130116E+00
         25   -1    0    0    0    0  0.00000000000E+00  0.00000000000E+00  0.99999998245E-14  0.12500000000E+03  0.12500000000E+03 0.  0.
        -11    1    3    3    0    0 -0.49615598667E+02  0.23058609864E+02 -0.14948240396E+02  0.56717343125E+02  0.51100000000E-03 0.  1.
         23    2    1    0    0    0 -0.28592377375E+02  0.91960455820E+01  0.11129747295E+02  0.92969349473E+02  0.87277358853E+02 0.  0.
         11    1    3    3    0    0  0.21023221292E+02 -0.13862564283E+02  0.26077987691E+02  0.36252006348E+02  0.51100000000E-03 0. -1.
         22    1    1    0    0    0  0.28592377375E+02 -0.91960455820E+01 -0.11129747295E+02  0.32030650527E+02  0.00000000000E+00 0.  1.
</event>
<event>
 5    1  0.1717518E-003  0.9118800E+02  0.7818608E-02  0.1130116E+00
         25   -1    0    0    0    0  0.00000000000E+00  0.00000000000E+00  0.99999998245E-14  0.12500000000E+03  0.12500000000E+03 0.  0.
        -11    1    3    3    0    0 -0.21996903360E+02 -0.53690463623E+02  0.61468509446E+01  0.58346494481E+02  0.51100000000E-03 0.  1.
         23    2    1    0    0    0  0.16139694345E+01 -0.26857101397E+02  0.13592472375E+02  0.94855944234E+02  0.89938790621E+02 0.  0.
         11    1    3    3    0    0  0.23610872794E+02  0.26833362226E+02  0.74456214303E+01  0.36509449752E+02  0.51100000000E-03 0. -1.
         22    1    1    0    0    0 -0.16139694345E+01  0.26857101397E+02 -0.13592472375E+02  0.30144055766E+02  0.00000000000E+00 0.  1.
</event>
<event>
 5    1  0.1717518E-003  0.9118800E+02  0.7818608E-02  0.1130116E+00
         25   -1    0    0    0    0  0.00000000000E+00  0.00000000000E+00  0.99999998245E-14  0.12500000000E+03  0.12500000000E+03 0.  0.
        -11    1    3    3    0    0 -0.28054995215E+02 -0.34934441526E+02 -0.83571649782E+01  0.45577847338E+02  0.51100000000E-03 0.  1.
         23    2    1    0    0    0 -0.20719829341E+02  0.70366566752E+01  0.18839508891E+02  0.96125219302E+02  0.91685903091E+02 0.  0.
         11    1    3    3    0    0  0.73351658740E+01  0.41971098202E+02  0.27196673869E+02  0.50547371964E+02  0.51100000000E-03 0. -1.
         22    1    1    0    0    0  0.20719829341E+02 -0.70366566752E+01 -0.18839508891E+02  0.28874780698E+02  0.00000000000E+00 0. -1.
</event>
<event>
 5    1  0.1717518E-003  0.9118800E+02  0.7818608E-02  0.1130116E+00
         25   -1    0    0    0    0  0.00000000000E+00  0.00000000000E+00  0.99999998245E-14  0.12500000000E+03  0.12500000000E+03 0.  0.
        -11    1    3    3    0    0 -0.43409634913E+02  0.10397062357E+02 -0.34880297462E+02  0.56649187639E+02  0.51100000000E-03 0.  1.
         23    2    1    0    0    0 -0.66395539545E+01  0.16385005545E+02 -0.23479087065E+02  0.95609191695E+02  0.90979656648E+02 0.  0.
         11    1    3    3    0    0  0.36770080958E+02  0.59879431876E+01  0.11401210397E+02  0.38960004056E+02  0.51100000000E-03 0. -1.
         22    1    1    0    0    0  0.66395539545E+01 -0.16385005545E+02  0.23479087065E+02  0.29390808305E+02  0.00000000000E+00 0.  1.
</event>
<event>
 5    1  0.1717518E-003  0.9118800E+02  0.7818608E-02  0.1130116E+00
         25   -1    0    0    0    0  0.00000000000E+00  0.00000000000E+00  0.99999998245E-14  0.12500000000E+03  0.12500000000E+03 0.  0.
        -11    1    3    3    0    0  0.41565390733E+01 -0.94117274425E+01  0.51175031544E+02  0.52199054439E+02  0.51100000000E-03 0. -1.
         23    2    1    0    0    0  0.22966756314E+02  0.82869320528E+01  0.16114930324E+02  0.95745323147E+02  0.91166500354E+02 0.  0.
         11    1    3    3    0    0  0.18810217240E+02  0.17698659495E+02 -0.35060101221E+02  0.43546268708E+02  0.51100000000E-03 0.  1.
         22    1    1    0    0    0 -0.22966756314E+02 -0.82869320528E+01 -0.16114930324E+02  0.29254676853E+02  0.00000000000E+00 0.  1.
</event>
<event>
 5    1  0.1717518E-003  0.9118800E+02  0.7818608E-02  0.1130116E+00
         25   -1    0    0    0    0  0.00000000000E+00  0.00000000000E+00  0.99999998245E-14  0.12500000000E+03  0.12500000000E+03 0.  0.
        -11    1    3    3    0    0 -0.11847628185E+02  0.28335214187E+01 -0.57058180260E+02  0.58344074867E+02  0.51100000000E-03 0.  1.
         23    2    1    0    0    0  0.12901457769E+01 -0.13364608108E+02 -0.25688854564E+02  0.96013891692E+02  0.91533998728E+02 0.  0.
         11    1    3    3    0    0  0.13137773962E+02 -0.16198129526E+02  0.31369325695E+02  0.37669816826E+02  0.51100000000E-03 0. -1.
         22    1    1    0    0    0 -0.12901457769E+01  0.13364608108E+02  0.25688854564E+02  0.28986108308E+02  0.00000000000E+00 0.  1.
</event>
<event>
 5    1  0.1717518E-003  0.9118800E+02  0.7818608E-02  0.1130116E+00
         25   -1    0    0    0    0  0.00000000000E+00  0.00000000000E+00  0.99999998245E-14  0.12500000000E+03  0.12500000000E+03 0.  0.
        -11    1    3    3    0    0 -0.25303262254E+02  0.18733368450E+02 -0.21999833784E+02  0.38408161385E+02  0.51100000000E-03 0. -1.
         23    2    1    0    0    0  0.11502764960E+02 -0.24009430426E+02 -0.12423612042E+02  0.95621223864E+02  0.90996186546E+02 0.  0.
         11    1    3    3    0    0  0.36806027214E+02 -0.42742798876E+02  0.95762217424E+01  0.57213062479E+02  0.51100000000E-03 0.  1.
         22    1    1    0    0    0 -0.11502764960E+02  0.24009430426E+02  0.12423612042E+02  0.29378776136E+02  0.00000000000E+00 0.  1.
</event>
<event>
 5    1  0.1717518E-003  0.9118800E+02  0.7818608E-02  0.1130116E+00
         25   -1    0    0    0    0  0.00000000000E+00  0.00000000000E+00  0.99999998245E-14  0.12500000000E+03  0.12500000000E+03 0.  0.
        -11    1    3    3    0    0 -0.92321401322E+01  0.12266158517E+02 -0.39678258889E+02  0.42544744504E+02  0.51100000000E-03 0.  1.
         23    2    1    0    0    0  0.26379756094E+02  0.13274401009E+02 -0.54800414976E+00  0.95463555355E+02  0.90779341476E+02 0.  0.
         11    1    3    3    0    0  0.35611896226E+02  0.10082424917E+01  0.39130254739E+02  0.52918810851E+02  0.51100000000E-03 0. -1.
         22    1    1    0    0    0 -0.26379756094E+02 -0.13274401009E+02  0.54800414976E+00  0.29536444645E+02  0.00000000000E+00 0. -1.
</event>
<event>
 5    1  0.1717518E-003  0.9118800E+02  0.7818608E-02  0.1130116E+00
         25   -1    0    0    0    0  0.00000000000E+00  0.00000000000E+00  0.99999998245E-14  0.12500000000E+03  0.12500000000E+03 0.  0.
        -11    1    3    3    0    0 -0.36645189655E+02  0.14656382315E+02  0.40869204836E+02  0.56815238903E+02  0.51100000000E-03 0.  1.
         23    2    1    0    0    0 -0.18632758570E+02  0.21496271794E+02  0.71235042588E+01  0.95674009720E+02  0.91068668761E+02 0.  0.
         11    1    3    3    0    0  0.18012431084E+02  0.68398894792E+01 -0.33745700578E+02  0.38858770817E+02  0.51100000000E-03 0. -1.
         22    1    1    0    0    0  0.18632758570E+02 -0.21496271794E+02 -0.71235042588E+01  0.29325990280E+02  0.00000000000E+00 0.  1.
</event>
<event>
 5    1  0.1717518E-003  0.9118800E+02  0.7818608E-02  0.1130116E+00
         25   -1    0    0    0    0  0.00000000000E+00  0.00000000000E+00  0.99999998245E-14  0.12500000000E+03  0.12500000000E+03 0.  0.
        -11    1    3    3    0    0 -0.13007071194E+02  0.29241045850E+02 -0.20963898198E+02  0.38258432945E+02  0.51100000000E-03 0. -1.
         23    2    1    0    0    0  0.20287652797E+02  0.95794531460E+01  0.20254232262E+02  0.94774370096E+02  0.89825344553E+02 0.  0.
         11    1    3    3    0    0  0.33294723991E+02 -0.19661592704E+02  0.41218130460E+02  0.56515937152E+02  0.51100000000E-03 0.  1.
         22    1    1    0    0    0 -0.20287652797E+02 -0.95794531460E+01 -0.20254232262E+02  0.30225629904E+02  0.00000000000E+00 0. -1.
</event>
<event>
 5    1  0.1717518E-003  0.9118800E+02  0.7818608E-02  0.1130116E+00
         25   -1    0    0    0    0  0.00000000000E+00  0.00000000000E+00  0.99999998245E-14  0.12500000000E+03  0.12500000000E+03 0.  0.
        -11    1    3    3    0    0 -0.28700379425E+02  0.21609924927E+02 -0.77131193446E+01  0.36744970333E+02  0.51100000000E-03 0.  1.
         23    2    1    0    0    0  0.10001009429E+02 -0.21400366440E+02 -0.17729520748E+02  0.95464736681E+02  0.90780968106E+02 0.  0.
         11    1    3    3    0    0  0.38701388854E+02 -0.43010291366E+02 -0.10016401404E+02  0.58719766348E+02  0.51100000000E-03 0. -1.
         22    1    1    0    0    0 -0.10001009429E+02  0.21400366440E+02  0.17729520748E+02  0.29535263319E+02  0.00000000000E+00 0. -1.
</event>
<event>
 5    1  0.1717518E-003  0.9118800E+02  0.7818608E-02  0.1130116E+00
         25   -1    0    0    0    0  0.00000000000E+00  0.00000000000E+00  0.99999998245E-14  0.12500000000E+03  0.12500000000E+03 0.  0.
        -11    1    3    3    0    0  0.32136663836E+02  0.18913391813E+02  0.98516905900E+01  0.38568605887E+02  0.51100000000E-03 0.  1.
         23    2    1    0    0    0 -0.16779818729E+02  0.13091153964E+02 -0.19687464219E+02  0.96007985995E+02  0.91525933476E+02 0.  0.
         11    1    3    3    0    0 -0.48916482565E+02 -0.58222378485E+01 -0.29539154809E+02  0.57439380108E+02  0.51100000000E-03 0. -1.
         22    1    1    0    0    0  0.16779818729E+02 -0.13091153964E+02  0.19687464219E+02  0.28992014005E+02  0.00000000000E+00 0. -1.
</event>
<event>
 5    1  0.1717518E-003  0.9118800E+02  0.7818608E-02  0.1130116E+00
         25   -1    0    0    0    0  0.00000000000E+00  0.00000000000E+00  0.99999998245E-14  0.12500000000E+03  0.12500000000E+03 0.  0.
        -11    1    3    3    0    0 -0.27963548082E+02 -0.15231715827E+01 -0.21672941534E+02  0.35411812549E+02  0.51100000000E-03 0.  1.
         23    2    1    0    0    0  0.23871284710E+02 -0.20407738352E+02 -0.40028324205E+01  0.93340298711E+02  0.87807030913E+02 0.  0.
         11    1    3    3    0    0  0.51834832792E+02 -0.18884566769E+02  0.17670109114E+02  0.57928486162E+02  0.51100000000E-03 0. -1.
         22    1    1    0    0    0 -0.23871284710E+02  0.20407738352E+02  0.40028324205E+01  0.31659701289E+02  0.00000000000E+00 0. -1.
</event>
<event>
 5    1  0.1717518E-003  0.9118800E+02  0.7818608E-02  0.1130116E+00
         25   -1    0    0    0    0  0.00000000000E+00  0.00000000000E+00  0.99999998245E-14  0.12500000000E+03  0.12500000000E+03 0.  0.
        -11    1    3    3    0    0 -0.27909739377E+02  0.28050041651E+02 -0.28913294569E+02  0.49007519747E+02  0.51100000000E-03 0. -1.
         23    2    1    0    0    0 -0.15499832921E+02 -0.14733085972E+02 -0.22405833208E+02  0.94026947122E+02  0.88779146090E+02 0.  0.
         11    1    3    3    0    0  0.12409906456E+02 -0.42783127623E+02  0.65074613603E+01  0.45019427374E+02  0.51100000000E-03 0.  1.
         22    1    1    0    0    0  0.15499832921E+02  0.14733085972E+02  0.22405833208E+02  0.30973052878E+02  0.00000000000E+00 0.  1.
</event>
<event>
 5    1  0.1717518E-003  0.9118800E+02  0.7818608E-02  0.1130116E+00
         25   -1    0    0    0    0  0.00000000000E+00  0.00000000000E+00  0.99999998245E-14  0.12500000000E+03  0.12500000000E+03 0.  0.
        -11    1    3    3    0    0 -0.14261864325E+01  0.58126255106E+00  0.42088969077E+02  0.42117136561E+02  0.51100000000E-03 0.  1.
         23    2    1    0    0    0  0.21537124374E+02  0.20405063669E+02 -0.15803238570E+01  0.95289534283E+02  0.90539403415E+02 0.  0.
         11    1    3    3    0    0  0.22963310806E+02  0.19823801118E+02 -0.43669292934E+02  0.53172397722E+02  0.51100000000E-03 0. -1.
         22    1    1    0    0    0 -0.21537124374E+02 -0.20405063669E+02  0.15803238570E+01  0.29710465717E+02  0.00000000000E+00 0. -1.
</event>
<event>
 5    1  0.1717518E-003  0.9118800E+02  0.7818608E-02  0.1130116E+00
         25   -1    0    0    0    0  0.00000000000E+00  0.00000000000E+00  0.99999998245E-14  0.12500000000E+03  0.12500000000E+03 0.  0.
        -11    1    3    3    0    0 -0.17350765335E+02  0.21048147978E+02  0.43887109382E+02  0.51673513149E+02  0.51100000000E-03 0.  1.
         23    2    1    0    0    0  0.13908570250E+02  0.16275854069E+01  0.31540956476E+02  0.90490156533E+02  0.83651294869E+02 0.  0.
         11    1    3    3    0    0  0.31259335585E+02 -0.19420562571E+02 -0.12346152906E+02  0.38816643384E+02  0.51100000000E-03 0. -1.
         22    1    1    0    0    0 -0.13908570250E+02 -0.16275854069E+01 -0.31540956476E+02  0.34509843467E+02  0.00000000000E+00 0.  1.
</event>
<event>
 5    1  0.1717518E-003  0.9118800E+02  0.7818608E-02  0.1130116E+00
         25   -1    0    0    0    0  0.00000000000E+00  0.00000000000E+00  0.99999998245E-14  0.12500000000E+03  0.12500000000E+03 0.  0.
        -11    1    3    3    0    0  0.39366669605E+02 -0.56263078477E+01 -0.31795571366E+02  0.50915109492E+02  0.51100000000E-03 0. -1.
         23    2    1    0    0    0  0.20116217269E+02 -0.20961005580E+02  0.53352346020E+01  0.95462046780E+02  0.90777264197E+02 0.  0.
         11    1    3    3    0    0 -0.19250452336E+02 -0.15334697733E+02  0.37130805968E+02  0.44546937289E+02  0.51100000000E-03 0.  1.
         22    1    1    0    0    0 -0.20116217269E+02  0.20961005580E+02 -0.53352346020E+01  0.29537953220E+02  0.00000000000E+00 0.  1.
</event>
<event>
 5    1  0.1717518E-003  0.9118800E+02  0.7818608E-02  0.1130116E+00
         25   -1    0    0    0    0  0.00000000000E+00  0.00000000000E+00  0.99999998245E-14  0.12500000000E+03  0.12500000000E+03 0.  0.
        -11    1    3    3    0    0  0.27902931664E+02  0.54357130897E+02 -0.14983700685E+00  0.61100685153E+02  0.51100000000E-03 0.  1.
         23    2    1    0    0    0  0.56828027919E+01  0.28522275029E+02 -0.49034039885E+01  0.95506648358E+02  0.90838659664E+02 0.  0.
         11    1    3    3    0    0 -0.22220128872E+02 -0.25834855868E+02 -0.47535669817E+01  0.34405963205E+02  0.51100000000E-03 0. -1.
         22    1    1    0    0    0 -0.56828027919E+01 -0.28522275029E+02  0.49034039885E+01  0.29493351642E+02  0.00000000000E+00 0.  1.
</event>
<event>
 5    1  0.1717518E-003  0.9118800E+02  0.7818608E-02  0.1130116E+00
         25   -1    0    0    0    0  0.00000000000E+00  0.00000000000E+00  0.99999998245E-14  0.12500000000E+03  0.12500000000E+03 0.  0.
        -11    1    3    3    0    0 -0.19170089881E+02 -0.25687936630E+02 -0.52486497109E+02  0.61499551326E+02  0.51100000000E-03 0.  1.
         23    2    1    0    0    0 -0.45245241459E+01 -0.65576219219E+01 -0.28148601135E+02  0.95745641866E+02  0.91166937354E+02 0.  0.
         11    1    3    3    0    0  0.14645565735E+02  0.19130314708E+02  0.24337895974E+02  0.34246090539E+02  0.51100000000E-03 0. -1.
         22    1    1    0    0    0  0.45245241459E+01  0.65576219219E+01  0.28148601135E+02  0.29254358134E+02  0.00000000000E+00 0.  1.
</event>
<event>
 5    1  0.1717518E-003  0.9118800E+02  0.7818608E-02  0.1130116E+00
         25   -1    0    0    0    0  0.00000000000E+00  0.00000000000E+00  0.99999998245E-14  0.12500000000E+03  0.12500000000E+03 0.  0.
        -11    1    3    3    0    0 -0.37241085824E+02  0.10154462589E+02  0.18382502772E+02  0.42754274550E+02  0.51100000000E-03 0.  1.
         23    2    1    0    0    0 -0.60194928676E+01  0.55821398337E+01 -0.26296074891E+02  0.97452257186E+02  0.93477613878E+02 0.  0.
         11    1    3    3    0    0  0.31221592957E+02 -0.45723227553E+01 -0.44678577663E+02  0.54697982636E+02  0.51100000000E-03 0. -1.
         22    1    1    0    0    0  0.60194928676E+01 -0.55821398337E+01  0.26296074891E+02  0.27547742814E+02  0.00000000000E+00 0. -1.
</event>
<event>
 5    1  0.1717518E-003  0.9118800E+02  0.7818608E-02  0.1130116E+00
         25   -1    0    0    0    0  0.00000000000E+00  0.00000000000E+00  0.99999998245E-14  0.12500000000E+03  0.12500000000E+03 0.  0.
        -11    1    3    3    0    0 -0.90689392549E+01  0.48150301012E+02 -0.41674121893E+01  0.49173818962E+02  0.51100000000E-03 0. -1.
         23    2    1    0    0    0 -0.21945226618E+02  0.90318478047E+01  0.17315309901E+02  0.95623356164E+02  0.90999115605E+02 0.  0.
         11    1    3    3    0    0 -0.12876287363E+02 -0.39118453207E+02  0.21482722091E+02  0.46449537202E+02  0.51100000000E-03 0.  1.
         22    1    1    0    0    0  0.21945226618E+02 -0.90318478047E+01 -0.17315309901E+02  0.29376643836E+02  0.00000000000E+00 0.  1.
</event>
<event>
 5    1  0.1717518E-003  0.9118800E+02  0.7818608E-02  0.1130116E+00
         25   -1    0    0    0    0  0.00000000000E+00  0.00000000000E+00  0.99999998245E-14  0.12500000000E+03  0.12500000000E+03 0.  0.
        -11    1    3    3    0    0 -0.21464842007E+02 -0.23050216584E+02 -0.13782573841E+02  0.34380390761E+02  0.51100000000E-03 0. -1.
         23    2    1    0    0    0  0.13420592240E+02  0.26038873541E+02 -0.31056625920E+01  0.95541887849E+02  0.90887138597E+02 0.  0.
         11    1    3    3    0    0  0.34885434248E+02  0.49089090125E+02  0.10676911249E+02  0.61161497088E+02  0.51100000000E-03 0.  1.
         22    1    1    0    0    0 -0.13420592240E+02 -0.26038873541E+02  0.31056625920E+01  0.29458112151E+02  0.00000000000E+00 0.  1.
</event>
<event>
 5    1  0.1717518E-003  0.9118800E+02  0.7818608E-02  0.1130116E+00
         25   -1    0    0    0    0  0.00000000000E+00  0.00000000000E+00  0.99999998245E-14  0.12500000000E+03  0.12500000000E+03 0.  0.
        -11    1    3    3    0    0  0.55558263390E+01 -0.16162280425E+02  0.46086549435E+02  0.49153398193E+02  0.51100000000E-03 0.  1.
         23    2    1    0    0    0 -0.14827590898E+02  0.16162724123E+02  0.18821465870E+02  0.96097773781E+02  0.91648477594E+02 0.  0.
         11    1    3    3    0    0 -0.20383417237E+02  0.32325004548E+02 -0.27265083565E+02  0.46944375588E+02  0.51100000000E-03 0. -1.
         22    1    1    0    0    0  0.14827590898E+02 -0.16162724123E+02 -0.18821465870E+02  0.28902226219E+02  0.00000000000E+00 0. -1.
</event>
<event>
 5    1  0.1717518E-003  0.9118800E+02  0.7818608E-02  0.1130116E+00
         25   -1    0    0    0    0  0.00000000000E+00  0.00000000000E+00  0.99999998245E-14  0.12500000000E+03  0.12500000000E+03 0.  0.
        -11    1    3    3    0    0  0.24226271287E+02 -0.38865220186E+02 -0.18386129549E+02  0.49350454108E+02  0.51100000000E-03 0.  1.
         23    2    1    0    0    0  0.85244412359E+01 -0.18558589092E+02  0.20576667156E+02  0.96008853787E+02  0.91527118642E+02 0.  0.
         11    1    3    3    0    0 -0.15701830052E+02  0.20306631094E+02  0.38962796705E+02  0.46658399680E+02  0.51100000000E-03 0. -1.
         22    1    1    0    0    0 -0.85244412359E+01  0.18558589092E+02 -0.20576667156E+02  0.28991146213E+02  0.00000000000E+00 0.  1.
</event>
<event>
 5    1  0.1717518E-003  0.9118800E+02  0.7818608E-02  0.1130116E+00
         25   -1    0    0    0    0  0.00000000000E+00  0.00000000000E+00  0.99999998245E-14  0.12500000000E+03  0.12500000000E+03 0.  0.
        -11    1    3    3    0    0 -0.18056299255E+02  0.55968408122E+02  0.81107911818E+01  0.59365626286E+02  0.51100000000E-03 0.  1.
         23    2    1    0    0    0  0.39485325456E+01  0.31367665583E+02 -0.12795195364E+00  0.93384533451E+02  0.87869979872E+02 0.  0.
         11    1    3    3    0    0  0.22004831800E+02 -0.24600742538E+02 -0.82387431354E+01  0.34018907165E+02  0.51100000000E-03 0. -1.
         22    1    1    0    0    0 -0.39485325456E+01 -0.31367665583E+02  0.12795195364E+00  0.31615466549E+02  0.00000000000E+00 0.  1.
</event>
<event>
 5    1  0.1717518E-003  0.9118800E+02  0.7818608E-02  0.1130116E+00
         25   -1    0    0    0    0  0.00000000000E+00  0.00000000000E+00  0.99999998245E-14  0.12500000000E+03  0.12500000000E+03 0.  0.
        -11    1    3    3    0    0  0.51923849343E+02 -0.20410013110E+01 -0.21293568576E+02  0.56157527367E+02  0.51100000000E-03 0.  1.
         23    2    1    0    0    0  0.27419419469E+02 -0.16256540841E+02  0.23222971695E+01  0.93039199818E+02  0.87377342340E+02 0.  0.
         11    1    3    3    0    0 -0.24504429874E+02 -0.14215539530E+02  0.23615865746E+02  0.36881672451E+02  0.51100000000E-03 0. -1.
         22    1    1    0    0    0 -0.27419419469E+02  0.16256540841E+02 -0.23222971695E+01  0.31960800182E+02  0.00000000000E+00 0.  1.
</event>
<event>
 5    1  0.1717518E-003  0.9118800E+02  0.7818608E-02  0.1130116E+00
         25   -1    0    0    0    0  0.00000000000E+00  0.00000000000E+00  0.99999998245E-14  0.12500000000E+03  0.12500000000E+03 0.  0.
        -11    1    3    3    0    0 -0.38246054958E+02 -0.43775496928E+02  0.14151409702E+02  0.59827395463E+02  0.51100000000E-03 0. -1.
         23    2    1    0    0    0 -0.11027373283E+02 -0.25993254561E+02 -0.30329157562E+01  0.96601922209E+02  0.92333528863E+02 0.  0.
         11    1    3    3    0    0  0.27218681675E+02  0.17782242366E+02 -0.17184325458E+02  0.36774526746E+02  0.51100000000E-03 0.  1.
         22    1    1    0    0    0  0.11027373283E+02  0.25993254561E+02  0.30329157562E+01  0.28398077791E+02  0.00000000000E+00 0. -1.
</event>
<event>
 5    1  0.1717518E-003  0.9118800E+02  0.7818608E-02  0.1130116E+00
         25   -1    0    0    0    0  0.00000000000E+00  0.00000000000E+00  0.99999998245E-14  0.12500000000E+03  0.12500000000E+03 0.  0.
        -11    1    3    3    0    0 -0.27846714202E+02 -0.45815786073E+01 -0.53607230938E+02  0.60581891383E+02  0.51100000000E-03 0.  1.
         23    2    1    0    0    0 -0.48953228934E+01  0.45352763999E+01 -0.28229250931E+02  0.95992698740E+02  0.91505052784E+02 0.  0.
         11    1    3    3    0    0  0.22951391308E+02  0.91168550072E+01  0.25377980007E+02  0.35410807357E+02  0.51100000000E-03 0. -1.
         22    1    1    0    0    0  0.48953228934E+01 -0.45352763999E+01  0.28229250931E+02  0.29007301260E+02  0.00000000000E+00 0.  1.
</event>
<event>
 5    1  0.1717518E-003  0.9118800E+02  0.7818608E-02  0.1130116E+00
         25   -1    0    0    0    0  0.00000000000E+00  0.00000000000E+00  0.99999998245E-14  0.12500000000E+03  0.12500000000E+03 0.  0.
        -11    1    3    3    0    0 -0.11818565910E+01 -0.30192478765E+02  0.17136855378E+02  0.34736930946E+02  0.51100000000E-03 0. -1.
         23    2    1    0    0    0  0.14615726030E+02  0.26230710439E+02  0.59596255355E+01  0.94386493927E+02  0.89283948624E+02 0.  0.
         11    1    3    3    0    0  0.15797582621E+02  0.56423189205E+02 -0.11177229843E+02  0.59649562982E+02  0.51100000000E-03 0.  1.
         22    1    1    0    0    0 -0.14615726030E+02 -0.26230710439E+02 -0.59596255355E+01  0.30613506073E+02  0.00000000000E+00 0.  1.
</event>
<event>
 5    1  0.1717518E-003  0.9118800E+02  0.7818608E-02  0.1130116E+00
         25   -1    0    0    0    0  0.00000000000E+00  0.00000000000E+00  0.99999998245E-14  0.12500000000E+03  0.12500000000E+03 0.  0.
        -11    1    3    3    0    0  0.23317763047E+02  0.42601135730E+01  0.57444690373E+02  0.62143053461E+02  0.51100000000E-03 0.  1.
         23    2    1    0    0    0  0.11731058022E+02 -0.26375654659E+01  0.27883362201E+02  0.94634619029E+02  0.89630657463E+02 0.  0.
         11    1    3    3    0    0 -0.11586705025E+02 -0.68976790388E+01 -0.29561328172E+02  0.32491565567E+02  0.51100000000E-03 0. -1.
         22    1    1    0    0    0 -0.11731058022E+02  0.26375654659E+01 -0.27883362201E+02  0.30365380971E+02  0.00000000000E+00 0.  1.
</event>
<event>
 5    1  0.1717518E-003  0.9118800E+02  0.7818608E-02  0.1130116E+00
         25   -1    0    0    0    0  0.00000000000E+00  0.00000000000E+00  0.99999998245E-14  0.12500000000E+03  0.12500000000E+03 0.  0.
        -11    1    3    3    0    0 -0.56208350209E+02  0.14602237548E+01 -0.17262966463E+02  0.58817692049E+02  0.51100000000E-03 0. -1.
         23    2    1    0    0    0 -0.28364579193E+02  0.11737012162E+02  0.20610524823E+01  0.94233870172E+02  0.89070014836E+02 0.  0.
         11    1    3    3    0    0  0.27843771016E+02  0.10276788407E+02  0.19324018945E+02  0.35416178123E+02  0.51100000000E-03 0.  1.
         22    1    1    0    0    0  0.28364579193E+02 -0.11737012162E+02 -0.20610524823E+01  0.30766129828E+02  0.00000000000E+00 0. -1.
</event>
<event>
 5    1  0.1717518E-003  0.9118800E+02  0.7818608E-02  0.1130116E+00
         25   -1    0    0    0    0  0.00000000000E+00  0.00000000000E+00  0.99999998245E-14  0.12500000000E+03  0.12500000000E+03 0.  0.
        -11    1    3    3    0    0 -0.49351872719E+01  0.41230475638E+02  0.40360895335E+02  0.57907772080E+02  0.51100000000E-03 0.  1.
         23    2    1    0    0    0  0.10648246192E+02  0.10728724626E+02  0.25739801632E+02  0.95149906749E+02  0.90346425979E+02 0.  0.
         11    1    3    3    0    0  0.15583433464E+02 -0.30501751013E+02 -0.14621093703E+02  0.37242134669E+02  0.51100000000E-03 0. -1.
         22    1    1    0    0    0 -0.10648246192E+02 -0.10728724626E+02 -0.25739801632E+02  0.29850093251E+02  0.00000000000E+00 0.  1.
</event>
<event>
 5    1  0.1717518E-003  0.9118800E+02  0.7818608E-02  0.1130116E+00
         25   -1    0    0    0    0  0.00000000000E+00  0.00000000000E+00  0.99999998245E-14  0.12500000000E+03  0.12500000000E+03 0.  0.
        -11    1    3    3    0    0 -0.30421179011E+02 -0.96392236743E+01  0.34714106092E+02  0.47153281196E+02  0.51100000000E-03 0. -1.
         23    2    1    0    0    0 -0.25899616067E+02  0.91987090635E+01 -0.98957408382E+01  0.95788152273E+02  0.91225205225E+02 0.  0.
         11    1    3    3    0    0  0.45215629438E+01  0.18837932738E+02 -0.44609846931E+02  0.48634871077E+02  0.51100000000E-03 0.  1.
         22    1    1    0    0    0  0.25899616067E+02 -0.91987090635E+01  0.98957408382E+01  0.29211847727E+02  0.00000000000E+00 0. -1.
</event>
<event>
 5    1  0.1717518E-003  0.9118800E+02  0.7818608E-02  0.1130116E+00
         25   -1    0    0    0    0  0.00000000000E+00  0.00000000000E+00  0.99999998245E-14  0.12500000000E+03  0.12500000000E+03 0.  0.
        -11    1    3    3    0    0 -0.26995457412E+02 -0.29841396089E+02  0.29679381035E+02  0.50001292986E+02  0.51100000000E-03 0.  1.
         23    2    1    0    0    0 -0.24672879449E+02 -0.19832847064E+02 -0.10635850072E+02  0.91605178400E+02  0.85301199288E+02 0.  0.
         11    1    3    3    0    0  0.23225779632E+01  0.10008549025E+02 -0.40315231107E+02  0.41603885413E+02  0.51100000000E-03 0. -1.
         22    1    1    0    0    0  0.24672879449E+02  0.19832847064E+02  0.10635850072E+02  0.33394821600E+02  0.00000000000E+00 0.  1.
</event>
<event>
 5    1  0.1717518E-003  0.9118800E+02  0.7818608E-02  0.1130116E+00
         25   -1    0    0    0    0  0.00000000000E+00  0.00000000000E+00  0.99999998245E-14  0.12500000000E+03  0.12500000000E+03 0.  0.
        -11    1    3    3    0    0 -0.45114574586E+02 -0.49730836229E+01  0.11692910850E+02  0.46869825743E+02  0.51100000000E-03 0. -1.
         23    2    1    0    0    0 -0.13089852671E+02 -0.33408313306E+01 -0.25600520558E+02  0.96053634947E+02  0.91588256544E+02 0.  0.
         11    1    3    3    0    0  0.32024721915E+02  0.16322522923E+01 -0.37293431408E+02  0.49183809203E+02  0.51100000000E-03 0.  1.
         22    1    1    0    0    0  0.13089852671E+02  0.33408313306E+01  0.25600520558E+02  0.28946365053E+02  0.00000000000E+00 0.  1.
</event>
<event>
 5    1  0.1717518E-003  0.9118800E+02  0.7818608E-02  0.1130116E+00
         25   -1    0    0    0    0  0.00000000000E+00  0.00000000000E+00  0.99999998245E-14  0.12500000000E+03  0.12500000000E+03 0.  0.
        -11    1    3    3    0    0  0.30210280889E+02 -0.97383191080E+01 -0.17447077402E+02  0.36220110996E+02  0.51100000000E-03 0. -1.
         23    2    1    0    0    0 -0.17507884771E+02  0.23054057849E+02 -0.29888035134E+01  0.95897619361E+02  0.91375077785E+02 0.  0.
         11    1    3    3    0    0 -0.47718165660E+02  0.32792376957E+02  0.14458273889E+02  0.59677508364E+02  0.51100000000E-03 0.  1.
         22    1    1    0    0    0  0.17507884771E+02 -0.23054057849E+02  0.29888035134E+01  0.29102380639E+02  0.00000000000E+00 0.  1.
</event>
<event>
 5    1  0.1717518E-003  0.9118800E+02  0.7818608E-02  0.1130116E+00
         25   -1    0    0    0    0  0.00000000000E+00  0.00000000000E+00  0.99999998245E-14  0.12500000000E+03  0.12500000000E+03 0.  0.
        -11    1    3    3    0    0 -0.48382435834E+00 -0.31892372577E+02  0.20041728784E+02  0.37669993463E+02  0.51100000000E-03 0. -1.
         23    2    1    0    0    0  0.14046901713E+01 -0.90936528619E-01 -0.28899405838E+02  0.96066333075E+02  0.91605585358E+02 0.  0.
         11    1    3    3    0    0  0.18885145296E+01  0.31801436048E+02 -0.48941134621E+02  0.58396339613E+02  0.51100000000E-03 0.  1.
         22    1    1    0    0    0 -0.14046901713E+01  0.90936528619E-01  0.28899405838E+02  0.28933666925E+02  0.00000000000E+00 0.  1.
</event>
<event>
 5    1  0.1717518E-003  0.9118800E+02  0.7818608E-02  0.1130116E+00
         25   -1    0    0    0    0  0.00000000000E+00  0.00000000000E+00  0.99999998245E-14  0.12500000000E+03  0.12500000000E+03 0.  0.
        -11    1    3    3    0    0  0.12570499777E+02  0.55580078671E+02  0.11495837935E+02  0.58131892278E+02  0.51100000000E-03 0.  1.
         23    2    1    0    0    0  0.21058859730E+02  0.41618880415E+02  0.16972729306E+02  0.75364525587E+02  0.56710946004E+02 0.  0.
         11    1    3    3    0    0  0.84883599529E+01 -0.13961198256E+02  0.54768913707E+01  0.17232633309E+02  0.51100000000E-03 0. -1.
         22    1    1    0    0    0 -0.21058859730E+02 -0.41618880415E+02 -0.16972729306E+02  0.49635474413E+02  0.00000000000E+00 0.  1.
</event>
<event>
 5    1  0.1717518E-003  0.9118800E+02  0.7818608E-02  0.1130116E+00
         25   -1    0    0    0    0  0.00000000000E+00  0.00000000000E+00  0.99999998245E-14  0.12500000000E+03  0.12500000000E+03 0.  0.
        -11    1    3    3    0    0 -0.53091456452E+02  0.42601561622E+01 -0.21234732106E+02  0.57339040161E+02  0.51100000000E-03 0. -1.
         23    2    1    0    0    0 -0.20099808080E+02  0.82124411082E+01  0.82602517221E+01  0.10176902429E+03  0.99082067365E+02 0.  0.
         11    1    3    3    0    0  0.32991648373E+02  0.39522849460E+01  0.29494983828E+02  0.44429984132E+02  0.51100000000E-03 0.  1.
         22    1    1    0    0    0  0.20099808080E+02 -0.82124411082E+01 -0.82602517221E+01  0.23230975707E+02  0.00000000000E+00 0. -1.
</event>
<event>
 5    1  0.1717518E-003  0.9118800E+02  0.7818608E-02  0.1130116E+00
         25   -1    0    0    0    0  0.00000000000E+00  0.00000000000E+00  0.99999998245E-14  0.12500000000E+03  0.12500000000E+03 0.  0.
        -11    1    3    3    0    0 -0.44586556810E+01 -0.27476600861E+02  0.42343304106E+02  0.50673450723E+02  0.51100000000E-03 0. -1.
         23    2    1    0    0    0 -0.56372518079E+01 -0.30508482397E+02 -0.82496547391E+00  0.93964106681E+02  0.88690623350E+02 0.  0.
         11    1    3    3    0    0 -0.11785961269E+01 -0.30318815360E+01 -0.43168269580E+02  0.43290655957E+02  0.51100000000E-03 0.  1.
         22    1    1    0    0    0  0.56372518079E+01  0.30508482397E+02  0.82496547391E+00  0.31035893319E+02  0.00000000000E+00 0. -1.
</event>
<event>
 5    1  0.1717518E-003  0.9118800E+02  0.7818608E-02  0.1130116E+00
         25   -1    0    0    0    0  0.00000000000E+00  0.00000000000E+00  0.99999998245E-14  0.12500000000E+03  0.12500000000E+03 0.  0.
        -11    1    3    3    0    0 -0.21033930726E+02 -0.81750930704E+01  0.30162111707E+02  0.37669767339E+02  0.51100000000E-03 0.  1.
         23    2    1    0    0    0  0.28692603984E+02 -0.12127074301E+01 -0.72869295811E-01  0.96281687156E+02  0.91898975995E+02 0.  0.
         11    1    3    3    0    0  0.49726534710E+02  0.69623856404E+01 -0.30234981003E+02  0.58611919817E+02  0.51100000000E-03 0. -1.
         22    1    1    0    0    0 -0.28692603984E+02  0.12127074301E+01  0.72869295811E-01  0.28718312844E+02  0.00000000000E+00 0. -1.
</event>
<event>
 5    1  0.1717518E-003  0.9118800E+02  0.7818608E-02  0.1130116E+00
         25   -1    0    0    0    0  0.00000000000E+00  0.00000000000E+00  0.99999998245E-14  0.12500000000E+03  0.12500000000E+03 0.  0.
        -11    1    3    3    0    0 -0.15801758605E+01  0.22674293567E+02  0.19806399662E+02  0.30148200814E+02  0.51100000000E-03 0.  1.
         23    2    1    0    0    0 -0.96308553459E+01 -0.29840840862E+02 -0.11248120339E+02  0.91687099057E+02  0.85421161104E+02 0.  0.
         11    1    3    3    0    0 -0.80506794853E+01 -0.52515134429E+02 -0.31054520000E+02  0.61538898243E+02  0.51100000000E-03 0. -1.
         22    1    1    0    0    0  0.96308553459E+01  0.29840840862E+02  0.11248120339E+02  0.33312900943E+02  0.00000000000E+00 0. -1.
</event>
<event>
 5    1  0.1717518E-003  0.9118800E+02  0.7818608E-02  0.1130116E+00
         25   -1    0    0    0    0  0.00000000000E+00  0.00000000000E+00  0.99999998245E-14  0.12500000000E+03  0.12500000000E+03 0.  0.
        -11    1    3    3    0    0  0.24664221644E+02  0.22497317559E+02 -0.35401234704E+02  0.48659023269E+02  0.51100000000E-03 0.  1.
         23    2    1    0    0    0 -0.55713134779E+01 -0.94454763983E+01 -0.30104841644E+02  0.92960055420E+02  0.87264046749E+02 0.  0.
         11    1    3    3    0    0 -0.30235535122E+02 -0.31942793957E+02  0.52963930603E+01  0.44301032151E+02  0.51100000000E-03 0. -1.
         22    1    1    0    0    0  0.55713134779E+01  0.94454763983E+01  0.30104841644E+02  0.32039944580E+02  0.00000000000E+00 0. -1.
</event>
<event>
 5    1  0.1717518E-003  0.9118800E+02  0.7818608E-02  0.1130116E+00
         25   -1    0    0    0    0  0.00000000000E+00  0.00000000000E+00  0.99999998245E-14  0.12500000000E+03  0.12500000000E+03 0.  0.
        -11    1    3    3    0    0 -0.23078414347E+02 -0.76868138268E+01 -0.56365929158E+02  0.61390701948E+02  0.51100000000E-03 0. -1.
         23    2    1    0    0    0 -0.26603432321E+01 -0.33727712648E+01 -0.28357808135E+02  0.96318676908E+02  0.91949275293E+02 0.  0.
         11    1    3    3    0    0  0.20418071115E+02  0.43140425620E+01  0.28008121023E+02  0.34927974960E+02  0.51100000000E-03 0.  1.
         22    1    1    0    0    0  0.26603432321E+01  0.33727712648E+01  0.28357808135E+02  0.28681323092E+02  0.00000000000E+00 0. -1.
</event>
<event>
 5    1  0.1717518E-003  0.9118800E+02  0.7818608E-02  0.1130116E+00
         25   -1    0    0    0    0  0.00000000000E+00  0.00000000000E+00  0.99999998245E-14  0.12500000000E+03  0.12500000000E+03 0.  0.
        -11    1    3    3    0    0 -0.17917798018E+02  0.19540476046E+02  0.27797787059E+02  0.38413469715E+02  0.51100000000E-03 0. -1.
         23    2    1    0    0    0 -0.14802613016E+02 -0.24136293776E+02 -0.86594462481E+01  0.95391487058E+02  0.90680051635E+02 0.  0.
         11    1    3    3    0    0  0.31151850024E+01 -0.43676769821E+02 -0.36457233307E+02  0.56978017343E+02  0.51100000000E-03 0.  1.
         22    1    1    0    0    0  0.14802613016E+02  0.24136293776E+02  0.86594462481E+01  0.29608512942E+02  0.00000000000E+00 0.  1.
</event>
<event>
 5    1  0.1717518E-003  0.9118800E+02  0.7818608E-02  0.1130116E+00
         25   -1    0    0    0    0  0.00000000000E+00  0.00000000000E+00  0.99999998245E-14  0.12500000000E+03  0.12500000000E+03 0.  0.
        -11    1    3    3    0    0  0.11285791514E+02 -0.28887566184E+02 -0.23835335539E+02  0.39115007231E+02  0.51100000000E-03 0.  1.
         23    2    1    0    0    0 -0.16022936624E+02 -0.14194040466E+02  0.21902436811E+02  0.94374487416E+02  0.89267137593E+02 0.  0.
         11    1    3    3    0    0 -0.27308728138E+02  0.14693525719E+02  0.45737772350E+02  0.55259480185E+02  0.51100000000E-03 0. -1.
         22    1    1    0    0    0  0.16022936624E+02  0.14194040466E+02 -0.21902436811E+02  0.30625512584E+02  0.00000000000E+00 0. -1.
</event>
<event>
 5    1  0.1717518E-003  0.9118800E+02  0.7818608E-02  0.1130116E+00
         25   -1    0    0    0    0  0.00000000000E+00  0.00000000000E+00  0.99999998245E-14  0.12500000000E+03  0.12500000000E+03 0.  0.
        -11    1    3    3    0    0  0.35891256084E+02 -0.99110412668E+00  0.20289740487E+02  0.41241218701E+02  0.51100000000E-03 0.  1.
         23    2    1    0    0    0  0.32114035137E+01 -0.10667232419E+02 -0.24829269057E+02  0.97786114538E+02  0.93922993109E+02 0.  0.
         11    1    3    3    0    0 -0.32679852570E+02 -0.96761282926E+01 -0.45119009544E+02  0.56544895837E+02  0.51100000000E-03 0. -1.
         22    1    1    0    0    0 -0.32114035137E+01  0.10667232419E+02  0.24829269057E+02  0.27213885462E+02  0.00000000000E+00 0. -1.
</event>
<event>
 5    1  0.1717518E-003  0.9118800E+02  0.7818608E-02  0.1130116E+00
         25   -1    0    0    0    0  0.00000000000E+00  0.00000000000E+00  0.99999998245E-14  0.12500000000E+03  0.12500000000E+03 0.  0.
        -11    1    3    3    0    0  0.17315746944E+02 -0.16206825971E+02  0.28518955775E+02  0.37092143899E+02  0.51100000000E-03 0.  1.
         23    2    1    0    0    0 -0.26685542388E+02 -0.35487135976E+01 -0.93424674816E+01  0.96504504928E+02  0.92201552221E+02 0.  0.
         11    1    3    3    0    0 -0.44001289332E+02  0.12658112373E+02 -0.37861423256E+02  0.59412361029E+02  0.51100000000E-03 0. -1.
         22    1    1    0    0    0  0.26685542388E+02  0.35487135976E+01  0.93424674816E+01  0.28495495072E+02  0.00000000000E+00 0. -1.
</event>
<event>
 5    1  0.1717518E-003  0.9118800E+02  0.7818608E-02  0.1130116E+00
         25   -1    0    0    0    0  0.00000000000E+00  0.00000000000E+00  0.99999998245E-14  0.12500000000E+03  0.12500000000E+03 0.  0.
        -11    1    3    3    0    0  0.16378438286E+02 -0.26710335727E+02 -0.32291701074E+02  0.44993879960E+02  0.51100000000E-03 0. -1.
         23    2    1    0    0    0 -0.11723506804E+02 -0.21227955462E+02  0.12162629196E+02  0.97870749111E+02  0.94035563898E+02 0.  0.
         11    1    3    3    0    0 -0.28101945090E+02  0.54823802650E+01  0.44454330269E+02  0.52876869151E+02  0.51100000000E-03 0.  1.
         22    1    1    0    0    0  0.11723506804E+02  0.21227955462E+02 -0.12162629196E+02  0.27129250889E+02  0.00000000000E+00 0.  1.
</event>
<event>
 5    1  0.1717518E-003  0.9118800E+02  0.7818608E-02  0.1130116E+00
         25   -1    0    0    0    0  0.00000000000E+00  0.00000000000E+00  0.99999998245E-14  0.12500000000E+03  0.12500000000E+03 0.  0.
        -11    1    3    3    0    0  0.52064940872E+02  0.26664428917E+02  0.16710696838E+02  0.60835821902E+02  0.51100000000E-03 0.  1.
         23    2    1    0    0    0  0.24771551801E+02  0.15107951747E+02 -0.20483174488E+01  0.95912621483E+02  0.91395598202E+02 0.  0.
         11    1    3    3    0    0 -0.27293389071E+02 -0.11556477170E+02 -0.18759014287E+02  0.35076799581E+02  0.51100000000E-03 0. -1.
         22    1    1    0    0    0 -0.24771551801E+02 -0.15107951747E+02  0.20483174488E+01  0.29087378517E+02  0.00000000000E+00 0.  1.
</event>
<event>
 5    1  0.1717518E-003  0.9118800E+02  0.7818608E-02  0.1130116E+00
         25   -1    0    0    0    0  0.00000000000E+00  0.00000000000E+00  0.99999998245E-14  0.12500000000E+03  0.12500000000E+03 0.  0.
        -11    1    3    3    0    0 -0.36598976729E+02 -0.15137528019E+02 -0.51464266009E+01  0.39938897821E+02  0.51100000000E-03 0.  1.
         23    2    1    0    0    0  0.72701195640E+01 -0.18145995358E+02  0.25008879136E+02  0.93257665151E+02  0.87689316840E+02 0.  0.
         11    1    3    3    0    0  0.43869096293E+02 -0.30084673390E+01  0.30155305737E+02  0.53318767331E+02  0.51100000000E-03 0. -1.
         22    1    1    0    0    0 -0.72701195640E+01  0.18145995358E+02 -0.25008879136E+02  0.31742334849E+02  0.00000000000E+00 0.  1.
</event>
<event>
 5    1  0.1717518E-003  0.9118800E+02  0.7818608E-02  0.1130116E+00
         25   -1    0    0    0    0  0.00000000000E+00  0.00000000000E+00  0.99999998245E-14  0.12500000000E+03  0.12500000000E+03 0.  0.
        -11    1    3    3    0    0 -0.37469920661E+02 -0.11268858533E+02  0.53236256710E+01  0.39488265568E+02  0.51100000000E-03 0.  1.
         23    2    1    0    0    0 -0.10515376056E+02  0.23501238483E+02  0.26272018078E+02  0.88215488617E+02  0.80180247905E+02 0.  0.
         11    1    3    3    0    0  0.26954544605E+02  0.34770097016E+02  0.20948392407E+02  0.48727223049E+02  0.51100000000E-03 0. -1.
         22    1    1    0    0    0  0.10515376056E+02 -0.23501238483E+02 -0.26272018078E+02  0.36784511383E+02  0.00000000000E+00 0.  1.
</event>
<event>
 5    1  0.1717518E-003  0.9118800E+02  0.7818608E-02  0.1130116E+00
         25   -1    0    0    0    0  0.00000000000E+00  0.00000000000E+00  0.99999998245E-14  0.12500000000E+03  0.12500000000E+03 0.  0.
        -11    1    3    3    0    0 -0.23556211572E+01 -0.20454039445E+02 -0.48869008569E+02  0.53029205910E+02  0.51100000000E-03 0.  1.
         23    2    1    0    0    0 -0.24124568518E+02 -0.76645370938E+01 -0.14017521112E+02  0.96065058612E+02  0.91603846278E+02 0.  0.
         11    1    3    3    0    0 -0.21768947361E+02  0.12789502352E+02  0.34851487457E+02  0.43035852702E+02  0.51100000000E-03 0. -1.
         22    1    1    0    0    0  0.24124568518E+02  0.76645370938E+01  0.14017521112E+02  0.28934941388E+02  0.00000000000E+00 0.  1.
</event>
<event>
 5    1  0.1717518E-003  0.9118800E+02  0.7818608E-02  0.1130116E+00
         25   -1    0    0    0    0  0.00000000000E+00  0.00000000000E+00  0.99999998245E-14  0.12500000000E+03  0.12500000000E+03 0.  0.
        -11    1    3    3    0    0 -0.36954101423E+02  0.93669204018E+00  0.41262680661E+02  0.55399384650E+02  0.51100000000E-03 0.  1.
         23    2    1    0    0    0 -0.15178267340E+02 -0.20066841718E+02  0.13575085651E+02  0.96410825713E+02  0.92074461324E+02 0.  0.
         11    1    3    3    0    0  0.21775834083E+02 -0.21003533759E+02 -0.27687595010E+02  0.41011441063E+02  0.51100000000E-03 0. -1.
         22    1    1    0    0    0  0.15178267340E+02  0.20066841718E+02 -0.13575085651E+02  0.28589174287E+02  0.00000000000E+00 0.  1.
</event>
<event>
 5    1  0.1717518E-003  0.9118800E+02  0.7818608E-02  0.1130116E+00
         25   -1    0    0    0    0  0.00000000000E+00  0.00000000000E+00  0.99999998245E-14  0.12500000000E+03  0.12500000000E+03 0.  0.
        -11    1    3    3    0    0 -0.31308350713E+02  0.38308550369E+02 -0.22366003451E+02  0.54295450697E+02  0.51100000000E-03 0.  1.
         23    2    1    0    0    0 -0.26102763520E+02  0.78699940795E+01  0.69388418797E+01  0.96867481506E+02  0.92692342599E+02 0.  0.
         11    1    3    3    0    0  0.52055871926E+01 -0.30438556290E+02  0.29304845331E+02  0.42572030809E+02  0.51100000000E-03 0. -1.
         22    1    1    0    0    0  0.26102763520E+02 -0.78699940795E+01 -0.69388418797E+01  0.28132518494E+02  0.00000000000E+00 0.  1.
</event>
<event>
 5    1  0.1717518E-003  0.9118800E+02  0.7818608E-02  0.1130116E+00
         25   -1    0    0    0    0  0.00000000000E+00  0.00000000000E+00  0.99999998245E-14  0.12500000000E+03  0.12500000000E+03 0.  0.
        -11    1    3    3    0    0  0.17446376488E+02 -0.16824228048E+02  0.54550542919E+02  0.59692482231E+02  0.51100000000E-03 0. -1.
         23    2    1    0    0    0  0.15778291587E+02  0.26686559420E+01  0.20131522450E+02  0.99283188259E+02  0.95894718650E+02 0.  0.
         11    1    3    3    0    0 -0.16680849004E+01  0.19492883990E+02 -0.34419020469E+02  0.39590706028E+02  0.51100000000E-03 0.  1.
         22    1    1    0    0    0 -0.15778291587E+02 -0.26686559420E+01 -0.20131522450E+02  0.25716811741E+02  0.00000000000E+00 0. -1.
</event>
<event>
 5    1  0.1717518E-003  0.9118800E+02  0.7818608E-02  0.1130116E+00
         25   -1    0    0    0    0  0.00000000000E+00  0.00000000000E+00  0.99999998245E-14  0.12500000000E+03  0.12500000000E+03 0.  0.
        -11    1    3    3    0    0 -0.35151731349E+02 -0.44006876393E+02  0.21298828815E+02  0.60215359302E+02  0.51100000000E-03 0. -1.
         23    2    1    0    0    0 -0.19537625293E+02 -0.22163726981E+02 -0.14672281085E+01  0.95417871035E+02  0.90716413943E+02 0.  0.
         11    1    3    3    0    0  0.15614106056E+02  0.21843149412E+02 -0.22766056924E+02  0.35202511733E+02  0.51100000000E-03 0.  1.
         22    1    1    0    0    0  0.19537625293E+02  0.22163726981E+02  0.14672281085E+01  0.29582128965E+02  0.00000000000E+00 0. -1.
</event>
<event>
 5    1  0.1717518E-003  0.9118800E+02  0.7818608E-02  0.1130116E+00
         25   -1    0    0    0    0  0.00000000000E+00  0.00000000000E+00  0.99999998245E-14  0.12500000000E+03  0.12500000000E+03 0.  0.
        -11    1    3    3    0    0 -0.71355144140E+01  0.48767269651E+01 -0.32403768418E+02  0.33536580622E+02  0.51100000000E-03 0.  1.
         23    2    1    0    0    0 -0.23759977847E+02  0.12493661147E+02  0.21594954275E+02  0.90547566612E+02  0.83737038717E+02 0.  0.
         11    1    3    3    0    0 -0.16624463433E+02  0.76169341823E+01  0.53998722694E+02  0.57010985990E+02  0.51100000000E-03 0. -1.
         22    1    1    0    0    0  0.23759977847E+02 -0.12493661147E+02 -0.21594954275E+02  0.34452433388E+02  0.00000000000E+00 0. -1.
</event>
<event>
 5    1  0.1717518E-003  0.9118800E+02  0.7818608E-02  0.1130116E+00
         25   -1    0    0    0    0  0.00000000000E+00  0.00000000000E+00  0.99999998245E-14  0.12500000000E+03  0.12500000000E+03 0.  0.
        -11    1    3    3    0    0 -0.11127689706E+02 -0.12983120300E+01 -0.44149660228E+02  0.45548914266E+02  0.51100000000E-03 0. -1.
         23    2    1    0    0    0  0.11025433405E+02  0.25264647615E+02 -0.64927390643E+01  0.96680073068E+02  0.92439267993E+02 0.  0.
         11    1    3    3    0    0  0.22153123110E+02  0.26562959645E+02  0.37656921164E+02  0.51131158802E+02  0.51100000000E-03 0.  1.
         22    1    1    0    0    0 -0.11025433405E+02 -0.25264647615E+02  0.64927390643E+01  0.28319926932E+02  0.00000000000E+00 0.  1.
</event>
<event>
 5    1  0.1717518E-003  0.9118800E+02  0.7818608E-02  0.1130116E+00
         25   -1    0    0    0    0  0.00000000000E+00  0.00000000000E+00  0.99999998245E-14  0.12500000000E+03  0.12500000000E+03 0.  0.
        -11    1    3    3    0    0 -0.38786845318E+02  0.20912373209E+02  0.17509468425E+02  0.47416539390E+02  0.51100000000E-03 0. -1.
         23    2    1    0    0    0 -0.22697657918E+02 -0.49297183080E+00 -0.20835007662E+02  0.94185648790E+02  0.89002315687E+02 0.  0.
         11    1    3    3    0    0  0.16089187400E+02 -0.21405345039E+02 -0.38344476087E+02  0.46769109401E+02  0.51100000000E-03 0.  1.
         22    1    1    0    0    0  0.22697657918E+02  0.49297183080E+00  0.20835007662E+02  0.30814351210E+02  0.00000000000E+00 0. -1.
</event>
<event>
 5    1  0.1717518E-003  0.9118800E+02  0.7818608E-02  0.1130116E+00
         25   -1    0    0    0    0  0.00000000000E+00  0.00000000000E+00  0.99999998245E-14  0.12500000000E+03  0.12500000000E+03 0.  0.
        -11    1    3    3    0    0 -0.31817749002E+02  0.40533538980E+02  0.33693005688E+02  0.61567487900E+02  0.51100000000E-03 0. -1.
         23    2    1    0    0    0 -0.86903831382E+01  0.19442280231E+02  0.20183654933E+02  0.95658818256E+02  0.91047814713E+02 0.  0.
         11    1    3    3    0    0  0.23127365863E+02 -0.21091258749E+02 -0.13509350754E+02  0.34091330356E+02  0.51100000000E-03 0.  1.
         22    1    1    0    0    0  0.86903831382E+01 -0.19442280231E+02 -0.20183654933E+02  0.29341181744E+02  0.00000000000E+00 0. -1.
</event>
<event>
 5    1  0.1717518E-003  0.9118800E+02  0.7818608E-02  0.1130116E+00
         25   -1    0    0    0    0  0.00000000000E+00  0.00000000000E+00  0.99999998245E-14  0.12500000000E+03  0.12500000000E+03 0.  0.
        -11    1    3    3    0    0  0.86406845548E+01 -0.13793147111E+01  0.55262578405E+02  0.55951018855E+02  0.51100000000E-03 0.  1.
         23    2    1    0    0    0 -0.98938063274E+00  0.16171163870E+02  0.87544671036E+01  0.10658462302E+03  0.10498169248E+03 0.  0.
         11    1    3    3    0    0 -0.96300651876E+01  0.17550478581E+02 -0.46508111302E+02  0.50633604168E+02  0.51100000000E-03 0. -1.
         22    1    1    0    0    0  0.98938063274E+00 -0.16171163870E+02 -0.87544671036E+01  0.18415376977E+02  0.00000000000E+00 0.  1.
</event>
<event>
 5    1  0.1717518E-003  0.9118800E+02  0.7818608E-02  0.1130116E+00
         25   -1    0    0    0    0  0.00000000000E+00  0.00000000000E+00  0.99999998245E-14  0.12500000000E+03  0.12500000000E+03 0.  0.
        -11    1    3    3    0    0 -0.23517221063E+02  0.30753117110E+02  0.33090333988E+02  0.50929206770E+02  0.51100000000E-03 0.  1.
         23    2    1    0    0    0 -0.32810986280E+02  0.18951565727E+02  0.17678219226E+00  0.87108656449E+02  0.78435732369E+02 0.  0.
         11    1    3    3    0    0 -0.92937652165E+01 -0.11801551383E+02 -0.32913551796E+02  0.36179449679E+02  0.51100000000E-03 0. -1.
         22    1    1    0    0    0  0.32810986280E+02 -0.18951565727E+02 -0.17678219226E+00  0.37891343551E+02  0.00000000000E+00 0.  1.
</event>
<event>
 5    1  0.1717518E-003  0.9118800E+02  0.7818608E-02  0.1130116E+00
         25   -1    0    0    0    0  0.00000000000E+00  0.00000000000E+00  0.99999998245E-14  0.12500000000E+03  0.12500000000E+03 0.  0.
        -11    1    3    3    0    0  0.34513213663E+02  0.16895967196E+02 -0.80391349934E+00  0.38435425092E+02  0.51100000000E-03 0.  1.
         23    2    1    0    0    0 -0.20882005400E+02  0.13361203547E+02 -0.15380969619E+02  0.95825453968E+02  0.91276303014E+02 0.  0.
         11    1    3    3    0    0 -0.55395219063E+02 -0.35347636485E+01 -0.14577056120E+02  0.57390028876E+02  0.51100000000E-03 0. -1.
         22    1    1    0    0    0  0.20882005400E+02 -0.13361203547E+02  0.15380969619E+02  0.29174546032E+02  0.00000000000E+00 0. -1.
</event>
<event>
 5    1  0.1717518E-003  0.9118800E+02  0.7818608E-02  0.1130116E+00
         25   -1    0    0    0    0  0.00000000000E+00  0.00000000000E+00  0.99999998245E-14  0.12500000000E+03  0.12500000000E+03 0.  0.
        -11    1    3    3    0    0  0.14730478249E+02  0.27968066227E+02 -0.22549929511E+02  0.38829100417E+02  0.51100000000E-03 0.  1.
         23    2    1    0    0    0  0.27832408969E+02 -0.17708738320E+02  0.12767018095E+01  0.91986784928E+02  0.85858582751E+02 0.  0.
         11    1    3    3    0    0  0.13101930720E+02 -0.45676804547E+02  0.23826631321E+02  0.53157684511E+02  0.51100000000E-03 0. -1.
         22    1    1    0    0    0 -0.27832408969E+02  0.17708738320E+02 -0.12767018095E+01  0.33013215072E+02  0.00000000000E+00 0.  1.
</event>
<event>
 5    1  0.1717518E-003  0.9118800E+02  0.7818608E-02  0.1130116E+00
         25   -1    0    0    0    0  0.00000000000E+00  0.00000000000E+00  0.99999998245E-14  0.12500000000E+03  0.12500000000E+03 0.  0.
        -11    1    3    3    0    0 -0.80815703977E+01 -0.61536150155E+02 -0.51847226038E+01  0.62280742648E+02  0.51100000000E-03 0. -1.
         23    2    1    0    0    0 -0.57385049667E+01 -0.28780402048E+02 -0.56037156340E+01  0.95122858065E+02  0.90308994658E+02 0.  0.
         11    1    3    3    0    0  0.23430654309E+01  0.32755748107E+02 -0.41899303016E+00  0.32842115417E+02  0.51100000000E-03 0.  1.
         22    1    1    0    0    0  0.57385049667E+01  0.28780402048E+02  0.56037156340E+01  0.29877141935E+02  0.00000000000E+00 0. -1.
</event>
<event>
 5    1  0.1717518E-003  0.9118800E+02  0.7818608E-02  0.1130116E+00
         25   -1    0    0    0    0  0.00000000000E+00  0.00000000000E+00  0.99999998245E-14  0.12500000000E+03  0.12500000000E+03 0.  0.
        -11    1    3    3    0    0 -0.12556384309E+02  0.15163204139E+02 -0.32370166380E+02  0.37886847565E+02  0.51100000000E-03 0. -1.
         23    2    1    0    0    0  0.40155257643E+01 -0.12286548520E+02  0.21112489917E+02  0.10024477929E+03  0.97140078358E+02 0.  0.
         11    1    3    3    0    0  0.16571910074E+02 -0.27449752659E+02  0.53482656298E+02  0.62357931729E+02  0.51100000000E-03 0.  1.
         22    1    1    0    0    0 -0.40155257643E+01  0.12286548520E+02 -0.21112489917E+02  0.24755220706E+02  0.00000000000E+00 0.  1.
</event>
<event>
 5    1  0.1717518E-003  0.9118800E+02  0.7818608E-02  0.1130116E+00
         25   -1    0    0    0    0  0.00000000000E+00  0.00000000000E+00  0.99999998245E-14  0.12500000000E+03  0.12500000000E+03 0.  0.
        -11    1    3    3    0    0  0.16774436997E+02  0.45290059234E+02 -0.15777480886E+02  0.50808464898E+02  0.51100000000E-03 0. -1.
         23    2    1    0    0    0  0.27891421437E+02  0.74300613614E+01  0.54673654981E+01  0.95622639889E+02  0.90998131696E+02 0.  0.
         11    1    3    3    0    0  0.11116984440E+02 -0.37859997872E+02  0.21244846384E+02  0.44814174990E+02  0.51100000000E-03 0.  1.
         22    1    1    0    0    0 -0.27891421437E+02 -0.74300613614E+01 -0.54673654981E+01  0.29377360111E+02  0.00000000000E+00 0. -1.
</event>
<event>
 5    1  0.1717518E-003  0.9118800E+02  0.7818608E-02  0.1130116E+00
         25   -1    0    0    0    0  0.00000000000E+00  0.00000000000E+00  0.99999998245E-14  0.12500000000E+03  0.12500000000E+03 0.  0.
        -11    1    3    3    0    0 -0.91993357663E+01 -0.18349016273E+02 -0.35816248940E+02  0.41280962502E+02  0.51100000000E-03 0. -1.
         23    2    1    0    0    0  0.63520706453E+01 -0.72447184153E+01  0.21360827587E+02  0.10156669674E+03  0.98826485242E+02 0.  0.
         11    1    3    3    0    0  0.15551406412E+02  0.11104297858E+02  0.57177076527E+02  0.60285734239E+02  0.51100000000E-03 0.  1.
         22    1    1    0    0    0 -0.63520706453E+01  0.72447184153E+01 -0.21360827587E+02  0.23433303259E+02  0.00000000000E+00 0.  1.
</event>
<event>
 5    1  0.1717518E-003  0.9118800E+02  0.7818608E-02  0.1130116E+00
         25   -1    0    0    0    0  0.00000000000E+00  0.00000000000E+00  0.99999998245E-14  0.12500000000E+03  0.12500000000E+03 0.  0.
        -11    1    3    3    0    0 -0.25036983188E+02  0.13912800469E+02 -0.27972322787E+02  0.40035826285E+02  0.51100000000E-03 0.  1.
         23    2    1    0    0    0  0.26768633133E+02  0.49961956876E+01 -0.13757130333E+02  0.94491307368E+02  0.89430569952E+02 0.  0.
         11    1    3    3    0    0  0.51805616320E+02 -0.89166047814E+01  0.14215192454E+02  0.54455481082E+02  0.51100000000E-03 0. -1.
         22    1    1    0    0    0 -0.26768633133E+02 -0.49961956876E+01  0.13757130333E+02  0.30508692632E+02  0.00000000000E+00 0. -1.
</event>
<event>
 5    1  0.1717518E-003  0.9118800E+02  0.7818608E-02  0.1130116E+00
         25   -1    0    0    0    0  0.00000000000E+00  0.00000000000E+00  0.99999998245E-14  0.12500000000E+03  0.12500000000E+03 0.  0.
        -11    1    3    3    0    0 -0.20040997824E+02 -0.29481133073E+02 -0.11093276885E+02  0.37334161211E+02  0.51100000000E-03 0.  1.
         23    2    1    0    0    0 -0.61376727449E+01  0.27390356139E+02 -0.72649012569E+01  0.96005493168E+02  0.91522528877E+02 0.  0.
         11    1    3    3    0    0  0.13903325079E+02  0.56871489212E+02  0.38283756285E+01  0.58671331957E+02  0.51100000000E-03 0. -1.
         22    1    1    0    0    0  0.61376727449E+01 -0.27390356139E+02  0.72649012569E+01  0.28994506832E+02  0.00000000000E+00 0. -1.
</event>
<event>
 5    1  0.1717518E-003  0.9118800E+02  0.7818608E-02  0.1130116E+00
         25   -1    0    0    0    0  0.00000000000E+00  0.00000000000E+00  0.99999998245E-14  0.12500000000E+03  0.12500000000E+03 0.  0.
        -11    1    3    3    0    0 -0.14455414565E+02  0.55480816698E+02  0.19422073682E+02  0.60533436861E+02  0.51100000000E-03 0. -1.
         23    2    1    0    0    0  0.20961714962E+01  0.29047016614E+02  0.31604386697E+01  0.95706460068E+02  0.91113198918E+02 0.  0.
         11    1    3    3    0    0  0.16551586062E+02 -0.26433800084E+02 -0.16261635013E+02  0.35173023208E+02  0.51100000000E-03 0.  1.
         22    1    1    0    0    0 -0.20961714962E+01 -0.29047016614E+02 -0.31604386697E+01  0.29293539932E+02  0.00000000000E+00 0. -1.
</event>
<event>
 5    1  0.1717518E-003  0.9118800E+02  0.7818608E-02  0.1130116E+00
         25   -1    0    0    0    0  0.00000000000E+00  0.00000000000E+00  0.99999998245E-14  0.12500000000E+03  0.12500000000E+03 0.  0.
        -11    1    3    3    0    0 -0.21186881414E+02  0.24348492050E+02  0.29891835522E+02  0.43991531461E+02  0.51100000000E-03 0.  1.
         23    2    1    0    0    0 -0.45178614843E+01  0.64188058867E+01 -0.22148018882E+02  0.10150219411E+03  0.98744865824E+02 0.  0.
         11    1    3    3    0    0  0.16669019929E+02 -0.17929686163E+02 -0.52039854404E+02  0.57510662646E+02  0.51100000000E-03 0. -1.
         22    1    1    0    0    0  0.45178614843E+01 -0.64188058867E+01  0.22148018882E+02  0.23497805894E+02  0.00000000000E+00 0. -1.
</event>
<event>
 5    1  0.1717518E-003  0.9118800E+02  0.7818608E-02  0.1130116E+00
         25   -1    0    0    0    0  0.00000000000E+00  0.00000000000E+00  0.99999998245E-14  0.12500000000E+03  0.12500000000E+03 0.  0.
        -11    1    3    3    0    0  0.55197163875E+02  0.23112737542E+02  0.16057334493E+02  0.61957755994E+02  0.51100000000E-03 0.  1.
         23    2    1    0    0    0  0.29222950194E+02  0.59489911297E+01  0.73513456550E+01  0.94284961396E+02  0.89141686932E+02 0.  0.
         11    1    3    3    0    0 -0.25974213681E+02 -0.17163746412E+02 -0.87059888376E+01  0.32327205402E+02  0.51100000000E-03 0. -1.
         22    1    1    0    0    0 -0.29222950194E+02 -0.59489911297E+01 -0.73513456550E+01  0.30715038604E+02  0.00000000000E+00 0.  1.
</event>
<event>
 5    1  0.1717518E-003  0.9118800E+02  0.7818608E-02  0.1130116E+00
         25   -1    0    0    0    0  0.00000000000E+00  0.00000000000E+00  0.99999998245E-14  0.12500000000E+03  0.12500000000E+03 0.  0.
        -11    1    3    3    0    0 -0.11651738810E+02 -0.19178904364E+02 -0.70447474730E+01  0.23520668722E+02  0.51100000000E-03 0.  1.
         23    2    1    0    0    0  0.56832810823E+01  0.27701719758E+02  0.28498075907E+02  0.84852455968E+02  0.74753688819E+02 0.  0.
         11    1    3    3    0    0  0.17335019892E+02  0.46880624122E+02  0.35542823380E+02  0.61331787246E+02  0.51100000000E-03 0. -1.
         22    1    1    0    0    0 -0.56832810823E+01 -0.27701719758E+02 -0.28498075907E+02  0.40147544032E+02  0.00000000000E+00 0. -1.
</event>
<event>
 5    1  0.1717518E-003  0.9118800E+02  0.7818608E-02  0.1130116E+00
         25   -1    0    0    0    0  0.00000000000E+00  0.00000000000E+00  0.99999998245E-14  0.12500000000E+03  0.12500000000E+03 0.  0.
        -11    1    3    3    0    0 -0.27518457136E+02 -0.28509662622E+02  0.21955654850E+01  0.39684844135E+02  0.51100000000E-03 0. -1.
         23    2    1    0    0    0 -0.91783335647E+01  0.23784881785E+02  0.13362384222E+02  0.96216050989E+02  0.91809654978E+02 0.  0.
         11    1    3    3    0    0  0.18340123572E+02  0.52294544407E+02  0.11166818737E+02  0.56531206854E+02  0.51100000000E-03 0.  1.
         22    1    1    0    0    0  0.91783335647E+01 -0.23784881785E+02 -0.13362384222E+02  0.28783949011E+02  0.00000000000E+00 0. -1.
</event>
<event>
 5    1  0.1717518E-003  0.9118800E+02  0.7818608E-02  0.1130116E+00
         25   -1    0    0    0    0  0.00000000000E+00  0.00000000000E+00  0.99999998245E-14  0.12500000000E+03  0.12500000000E+03 0.  0.
        -11    1    3    3    0    0 -0.85048834090E+01 -0.46780096101E+02 -0.31376572719E+02  0.56966654710E+02  0.51100000000E-03 0.  1.
         23    2    1    0    0    0  0.10042585112E+02 -0.25279260238E+02 -0.21524568970E+01  0.97713967225E+02  0.93826924740E+02 0.  0.
         11    1    3    3    0    0  0.18547468521E+02  0.21500835863E+02  0.29224115822E+02  0.40747312515E+02  0.51100000000E-03 0. -1.
         22    1    1    0    0    0 -0.10042585112E+02  0.25279260238E+02  0.21524568970E+01  0.27286032775E+02  0.00000000000E+00 0.  1.
</event>
<event>
 5    1  0.1717518E-003  0.9118800E+02  0.7818608E-02  0.1130116E+00
         25   -1    0    0    0    0  0.00000000000E+00  0.00000000000E+00  0.99999998245E-14  0.12500000000E+03  0.12500000000E+03 0.  0.
        -11    1    3    3    0    0 -0.24445831991E+02 -0.37895613130E+02  0.25260616058E+02  0.51689214737E+02  0.51100000000E-03 0.  1.
         23    2    1    0    0    0  0.58810225774E+01 -0.29689017140E+02 -0.38127443056E+01  0.94494899043E+02  0.89435590012E+02 0.  0.
         11    1    3    3    0    0  0.30326854568E+02  0.82065959909E+01 -0.29073360364E+02  0.42805684306E+02  0.51100000000E-03 0. -1.
         22    1    1    0    0    0 -0.58810225774E+01  0.29689017140E+02  0.38127443056E+01  0.30505100957E+02  0.00000000000E+00 0.  1.
</event>
<event>
 5    1  0.1717518E-003  0.9118800E+02  0.7818608E-02  0.1130116E+00
         25   -1    0    0    0    0  0.00000000000E+00  0.00000000000E+00  0.99999998245E-14  0.12500000000E+03  0.12500000000E+03 0.  0.
        -11    1    3    3    0    0  0.37043702802E+02 -0.21903936484E+02  0.11894843986E+02  0.44648691633E+02  0.51100000000E-03 0. -1.
         23    2    1    0    0    0  0.85234771401E+01 -0.46042068176E+01 -0.27250557303E+02  0.96078705833E+02  0.91622466995E+02 0.  0.
         11    1    3    3    0    0 -0.28520225662E+02  0.17299729666E+02 -0.39145401289E+02  0.51430014201E+02  0.51100000000E-03 0.  1.
         22    1    1    0    0    0 -0.85234771401E+01  0.46042068176E+01  0.27250557303E+02  0.28921294167E+02  0.00000000000E+00 0.  1.
</event>
<event>
 5    1  0.1717518E-003  0.9118800E+02  0.7818608E-02  0.1130116E+00
         25   -1    0    0    0    0  0.00000000000E+00  0.00000000000E+00  0.99999998245E-14  0.12500000000E+03  0.12500000000E+03 0.  0.
        -11    1    3    3    0    0 -0.33256014669E+01  0.37775365597E+02  0.10312217320E+02  0.39298596634E+02  0.51100000000E-03 0.  1.
         23    2    1    0    0    0  0.29190086315E+02  0.81023364327E+00 -0.12099905448E+02  0.93391056179E+02  0.87879258330E+02 0.  0.
         11    1    3    3    0    0  0.32515687782E+02 -0.36965131954E+02 -0.22412122767E+02  0.54092459544E+02  0.51100000000E-03 0. -1.
         22    1    1    0    0    0 -0.29190086315E+02 -0.81023364327E+00  0.12099905448E+02  0.31608943821E+02  0.00000000000E+00 0. -1.
</event>
<event>
 5    1  0.1717518E-003  0.9118800E+02  0.7818608E-02  0.1130116E+00
         25   -1    0    0    0    0  0.00000000000E+00  0.00000000000E+00  0.99999998245E-14  0.12500000000E+03  0.12500000000E+03 0.  0.
        -11    1    3    3    0    0  0.12328897702E+02 -0.29416531797E+02  0.10583334758E+02  0.33605669706E+02  0.51100000000E-03 0.  1.
         23    2    1    0    0    0 -0.70960899198E+01  0.14260601737E+02 -0.26483689389E+02  0.94095225972E+02  0.88875229918E+02 0.  0.
         11    1    3    3    0    0 -0.19424987622E+02  0.43677133534E+02 -0.37067024147E+02  0.60489556266E+02  0.51100000000E-03 0. -1.
         22    1    1    0    0    0  0.70960899198E+01 -0.14260601737E+02  0.26483689389E+02  0.30904774028E+02  0.00000000000E+00 0. -1.
</event>
<event>
 5    1  0.1717518E-003  0.9118800E+02  0.7818608E-02  0.1130116E+00
         25   -1    0    0    0    0  0.00000000000E+00  0.00000000000E+00  0.99999998245E-14  0.12500000000E+03  0.12500000000E+03 0.  0.
        -11    1    3    3    0    0  0.53743794809E+02 -0.29504705088E+02  0.11681617610E+02  0.62413005801E+02  0.51100000000E-03 0. -1.
         23    2    1    0    0    0  0.22760777123E+02 -0.99247054716E+01  0.43146266311E+01  0.99797445429E+02  0.96562732755E+02 0.  0.
         11    1    3    3    0    0 -0.30983017686E+02  0.19579999617E+02 -0.73669909789E+01  0.37384439628E+02  0.51100000000E-03 0.  1.
         22    1    1    0    0    0 -0.22760777123E+02  0.99247054716E+01 -0.43146266311E+01  0.25202554571E+02  0.00000000000E+00 0. -1.
</event>
<event>
 5    1  0.1717518E-003  0.9118800E+02  0.7818608E-02  0.1130116E+00
         25   -1    0    0    0    0  0.00000000000E+00  0.00000000000E+00  0.99999998245E-14  0.12500000000E+03  0.12500000000E+03 0.  0.
        -11    1    3    3    0    0 -0.28217460764E+02  0.13841767039E+02  0.21458309860E+02  0.38056256634E+02  0.51100000000E-03 0.  1.
         23    2    1    0    0    0 -0.78602530415E+01 -0.16508262610E+02 -0.23007060799E+02  0.95612397871E+02  0.90984061614E+02 0.  0.
         11    1    3    3    0    0  0.20357207722E+02 -0.30350029650E+02 -0.44465370659E+02  0.57556141237E+02  0.51100000000E-03 0. -1.
         22    1    1    0    0    0  0.78602530415E+01  0.16508262610E+02  0.23007060799E+02  0.29387602129E+02  0.00000000000E+00 0. -1.
</event>
<event>
 5    1  0.1717518E-003  0.9118800E+02  0.7818608E-02  0.1130116E+00
         25   -1    0    0    0    0  0.00000000000E+00  0.00000000000E+00  0.99999998245E-14  0.12500000000E+03  0.12500000000E+03 0.  0.
        -11    1    3    3    0    0 -0.79018451651E+01 -0.45497350770E+00  0.51975092425E+02  0.52574294011E+02  0.51100000000E-03 0. -1.
         23    2    1    0    0    0 -0.25236430473E+02  0.65037458068E+00  0.10280729479E+02  0.97742087227E+02  0.93864379861E+02 0.  0.
         11    1    3    3    0    0 -0.17334585308E+02  0.11053480884E+01 -0.41694362946E+02  0.45167793216E+02  0.51100000000E-03 0.  1.
         22    1    1    0    0    0  0.25236430473E+02 -0.65037458068E+00 -0.10280729479E+02  0.27257912773E+02  0.00000000000E+00 0. -1.
</event>
<event>
 5    1  0.1717518E-003  0.9118800E+02  0.7818608E-02  0.1130116E+00
         25   -1    0    0    0    0  0.00000000000E+00  0.00000000000E+00  0.99999998245E-14  0.12500000000E+03  0.12500000000E+03 0.  0.
        -11    1    3    3    0    0  0.43362051258E+02 -0.18658641310E+02 -0.14662715689E+02  0.49430836696E+02  0.51100000000E-03 0.  1.
         23    2    1    0    0    0  0.57419579568E+01 -0.32774994948E+02 -0.11728856463E+02  0.89719177320E+02  0.82491177286E+02 0.  0.
         11    1    3    3    0    0 -0.37620093301E+02 -0.14116353638E+02  0.29338592259E+01  0.40288340624E+02  0.51100000000E-03 0. -1.
         22    1    1    0    0    0 -0.57419579568E+01  0.32774994948E+02  0.11728856463E+02  0.35280822680E+02  0.00000000000E+00 0.  1.
</event>
<event>
 5    1  0.1717518E-003  0.9118800E+02  0.7818608E-02  0.1130116E+00
         25   -1    0    0    0    0  0.00000000000E+00  0.00000000000E+00  0.99999998245E-14  0.12500000000E+03  0.12500000000E+03 0.  0.
        -11    1    3    3    0    0  0.44569784479E+02  0.62461651232E+01  0.10951856542E+02  0.46318715756E+02  0.51100000000E-03 0.  1.
         23    2    1    0    0    0  0.66560364950E+01 -0.97793597089E+01 -0.22645345831E+02  0.99451019865E+02  0.96113240327E+02 0.  0.
         11    1    3    3    0    0 -0.37913747984E+02 -0.16025524832E+02 -0.33597202374E+02  0.53132304109E+02  0.51100000000E-03 0. -1.
         22    1    1    0    0    0 -0.66560364950E+01  0.97793597089E+01  0.22645345831E+02  0.25548980135E+02  0.00000000000E+00 0. -1.
</event>
<event>
 5    1  0.1717518E-003  0.9118800E+02  0.7818608E-02  0.1130116E+00
         25   -1    0    0    0    0  0.00000000000E+00  0.00000000000E+00  0.99999998245E-14  0.12500000000E+03  0.12500000000E+03 0.  0.
        -11    1    3    3    0    0 -0.76849255489E+00  0.17635773531E+02  0.51359091831E+02  0.54308078615E+02  0.51100000000E-03 0. -1.
         23    2    1    0    0    0  0.23857067417E+01 -0.14277908751E+02  0.26193808814E+02  0.95072322256E+02  0.90239019077E+02 0.  0.
         11    1    3    3    0    0  0.31541992966E+01 -0.31913682282E+02 -0.25165283018E+02  0.40764243641E+02  0.51100000000E-03 0.  1.
         22    1    1    0    0    0 -0.23857067417E+01  0.14277908751E+02 -0.26193808814E+02  0.29927677744E+02  0.00000000000E+00 0. -1.
</event>
<event>
 5    1  0.1717518E-003  0.9118800E+02  0.7818608E-02  0.1130116E+00
         25   -1    0    0    0    0  0.00000000000E+00  0.00000000000E+00  0.99999998245E-14  0.12500000000E+03  0.12500000000E+03 0.  0.
        -11    1    3    3    0    0  0.17444047274E+02  0.44834303205E+02  0.24694315446E+02  0.54076045942E+02  0.51100000000E-03 0.  1.
         23    2    1    0    0    0  0.24459923427E+02  0.38274318828E+01  0.71155184280E+01  0.99240192327E+02  0.95838656511E+02 0.  0.
         11    1    3    3    0    0  0.70158761529E+01 -0.41006871322E+02 -0.17578797018E+02  0.45164146385E+02  0.51100000000E-03 0. -1.
         22    1    1    0    0    0 -0.24459923427E+02 -0.38274318828E+01 -0.71155184280E+01  0.25759807673E+02  0.00000000000E+00 0.  1.
</event>
<event>
 5    1  0.1717518E-003  0.9118800E+02  0.7818608E-02  0.1130116E+00
         25   -1    0    0    0    0  0.00000000000E+00  0.00000000000E+00  0.99999998245E-14  0.12500000000E+03  0.12500000000E+03 0.  0.
        -11    1    3    3    0    0  0.25066148694E+02  0.74107521696E+01  0.38617962604E+02  0.46632371739E+02  0.51100000000E-03 0.  1.
         23    2    1    0    0    0  0.25432147097E+02  0.10342163191E+02 -0.10327736960E+02  0.95667141357E+02  0.91059240823E+02 0.  0.
         11    1    3    3    0    0  0.36599840308E+00  0.29314110214E+01 -0.48945699564E+02  0.49034769618E+02  0.51100000000E-03 0. -1.
         22    1    1    0    0    0 -0.25432147097E+02 -0.10342163191E+02  0.10327736960E+02  0.29332858643E+02  0.00000000000E+00 0.  1.
</event>
<event>
 5    1  0.1717518E-003  0.9118800E+02  0.7818608E-02  0.1130116E+00
         25   -1    0    0    0    0  0.00000000000E+00  0.00000000000E+00  0.99999998245E-14  0.12500000000E+03  0.12500000000E+03 0.  0.
        -11    1    3    3    0    0  0.17818910609E+02 -0.28213514108E+02 -0.50715062742E+02  0.60708595296E+02  0.51100000000E-03 0.  1.
         23    2    1    0    0    0  0.14358097742E+02 -0.51334656024E+01 -0.27066516478E+02  0.93933880929E+02  0.88648013132E+02 0.  0.
         11    1    3    3    0    0 -0.34608128665E+01  0.23080048505E+02  0.23648546264E+02  0.33225285633E+02  0.51100000000E-03 0. -1.
         22    1    1    0    0    0 -0.14358097742E+02  0.51334656024E+01  0.27066516478E+02  0.31066119071E+02  0.00000000000E+00 0.  1.
</event>
<event>
 5    1  0.1717518E-003  0.9118800E+02  0.7818608E-02  0.1130116E+00
         25   -1    0    0    0    0  0.00000000000E+00  0.00000000000E+00  0.99999998245E-14  0.12500000000E+03  0.12500000000E+03 0.  0.
        -11    1    3    3    0    0 -0.25612831563E+02 -0.22315295719E+02  0.36268303883E+02  0.49692850899E+02  0.51100000000E-03 0. -1.
         23    2    1    0    0    0 -0.11020266337E+02 -0.27427047086E+02 -0.61214851422E+01  0.94814543861E+02  0.89881232553E+02 0.  0.
         11    1    3    3    0    0  0.14592565226E+02 -0.51117513671E+01 -0.42389789025E+02  0.45121692962E+02  0.51100000000E-03 0.  1.
         22    1    1    0    0    0  0.11020266337E+02  0.27427047086E+02  0.61214851422E+01  0.30185456139E+02  0.00000000000E+00 0.  1.
</event>
<event>
 5    1  0.1717518E-003  0.9118800E+02  0.7818608E-02  0.1130116E+00
         25   -1    0    0    0    0  0.00000000000E+00  0.00000000000E+00  0.99999998245E-14  0.12500000000E+03  0.12500000000E+03 0.  0.
        -11    1    3    3    0    0 -0.52676745733E+02  0.14839731960E+02 -0.21492365394E+02  0.58796079428E+02  0.51100000000E-03 0. -1.
         23    2    1    0    0    0 -0.22583839551E+02 -0.63538475541E+01 -0.17319818665E+02  0.95838770496E+02  0.91294537755E+02 0.  0.
         11    1    3    3    0    0  0.30092906181E+02 -0.21193579514E+02  0.41725467293E+01  0.37042691068E+02  0.51100000000E-03 0.  1.
         22    1    1    0    0    0  0.22583839551E+02  0.63538475541E+01  0.17319818665E+02  0.29161229504E+02  0.00000000000E+00 0. -1.
</event>
<event>
 5    1  0.1717518E-003  0.9118800E+02  0.7818608E-02  0.1130116E+00
         25   -1    0    0    0    0  0.00000000000E+00  0.00000000000E+00  0.99999998245E-14  0.12500000000E+03  0.12500000000E+03 0.  0.
        -11    1    3    3    0    0 -0.24701722580E+02 -0.25226451566E+02  0.60603409126E+01  0.35822851496E+02  0.51100000000E-03 0. -1.
         23    2    1    0    0    0  0.55909683119E+01  0.25514395562E+02 -0.99507557008E+01  0.97048956253E+02  0.92936747647E+02 0.  0.
         11    1    3    3    0    0  0.30292690892E+02  0.50740847127E+02 -0.16011096613E+02  0.61226104757E+02  0.51100000000E-03 0.  1.
         22    1    1    0    0    0 -0.55909683119E+01 -0.25514395562E+02  0.99507557008E+01  0.27951043747E+02  0.00000000000E+00 0.  1.
</event>
<event>
 5    1  0.1717518E-003  0.9118800E+02  0.7818608E-02  0.1130116E+00
         25   -1    0    0    0    0  0.00000000000E+00  0.00000000000E+00  0.99999998245E-14  0.12500000000E+03  0.12500000000E+03 0.  0.
        -11    1    3    3    0    0 -0.27745846526E+01 -0.23034534054E+02  0.35826155293E+02  0.42682566493E+02  0.51100000000E-03 0.  1.
         23    2    1    0    0    0 -0.23551591060E+02  0.49640534169E+01 -0.88519815572E+01  0.99354789039E+02  0.95988005811E+02 0.  0.
         11    1    3    3    0    0 -0.20777006407E+02  0.27998587471E+02 -0.44678136850E+02  0.56672222546E+02  0.51100000000E-03 0. -1.
         22    1    1    0    0    0  0.23551591060E+02 -0.49640534169E+01  0.88519815572E+01  0.25645210961E+02  0.00000000000E+00 0. -1.
</event>
<event>
 5    1  0.1717518E-003  0.9118800E+02  0.7818608E-02  0.1130116E+00
         25   -1    0    0    0    0  0.00000000000E+00  0.00000000000E+00  0.99999998245E-14  0.12500000000E+03  0.12500000000E+03 0.  0.
        -11    1    3    3    0    0  0.50367517761E+02 -0.24440900085E+02 -0.21907216785E+01  0.56027169338E+02  0.51100000000E-03 0.  1.
         23    2    1    0    0    0  0.28177847422E+02  0.81322048057E+01 -0.35135637267E+01  0.95462414276E+02  0.90777770235E+02 0.  0.
         11    1    3    3    0    0 -0.22189670338E+02  0.32573104890E+02 -0.13228420483E+01  0.39435244937E+02  0.51100000000E-03 0. -1.
         22    1    1    0    0    0 -0.28177847422E+02 -0.81322048057E+01  0.35135637267E+01  0.29537585724E+02  0.00000000000E+00 0.  1.
</event>
<event>
 5    1  0.1717518E-003  0.9118800E+02  0.7818608E-02  0.1130116E+00
         25   -1    0    0    0    0  0.00000000000E+00  0.00000000000E+00  0.99999998245E-14  0.12500000000E+03  0.12500000000E+03 0.  0.
        -11    1    3    3    0    0  0.65566889353E+01 -0.22433801175E+01 -0.32401250201E+02  0.33134029924E+02  0.51100000000E-03 0.  1.
         23    2    1    0    0    0 -0.22429976749E+01  0.63233873936E+01  0.28735259020E+02  0.95491842185E+02  0.90818283106E+02 0.  0.
         11    1    3    3    0    0 -0.87996866102E+01  0.85667675112E+01  0.61136509221E+02  0.62357812261E+02  0.51100000000E-03 0. -1.
         22    1    1    0    0    0  0.22429976749E+01 -0.63233873936E+01 -0.28735259020E+02  0.29508157815E+02  0.00000000000E+00 0. -1.
</event>
<event>
 5    1  0.1717518E-003  0.9118800E+02  0.7818608E-02  0.1130116E+00
         25   -1    0    0    0    0  0.00000000000E+00  0.00000000000E+00  0.99999998245E-14  0.12500000000E+03  0.12500000000E+03 0.  0.
        -11    1    3    3    0    0 -0.45687685633E+01  0.27725681150E+02  0.29799026670E+02  0.40958137557E+02  0.51100000000E-03 0. -1.
         23    2    1    0    0    0 -0.31197242792E+02  0.10884936351E+01 -0.63289895326E+01  0.93148643911E+02  0.87533770498E+02 0.  0.
         11    1    3    3    0    0 -0.26628474229E+02 -0.26637187515E+02 -0.36128016202E+02  0.52190506354E+02  0.51100000000E-03 0.  1.
         22    1    1    0    0    0  0.31197242792E+02 -0.10884936351E+01  0.63289895326E+01  0.31851356089E+02  0.00000000000E+00 0. -1.
</event>
<event>
 5    1  0.1717518E-003  0.9118800E+02  0.7818608E-02  0.1130116E+00
         25   -1    0    0    0    0  0.00000000000E+00  0.00000000000E+00  0.99999998245E-14  0.12500000000E+03  0.12500000000E+03 0.  0.
        -11    1    3    3    0    0  0.23849212736E+01  0.33834321426E+02  0.51813575784E+01  0.34311741758E+02  0.51100000000E-03 0.  1.
         23    2    1    0    0    0  0.86363186458E+00 -0.26228359301E+02  0.14351551815E+02  0.95089471233E+02  0.90262770887E+02 0.  0.
         11    1    3    3    0    0 -0.15212894090E+01 -0.60062680727E+02  0.91701942368E+01  0.60777729475E+02  0.51100000000E-03 0. -1.
         22    1    1    0    0    0 -0.86363186458E+00  0.26228359301E+02 -0.14351551815E+02  0.29910528767E+02  0.00000000000E+00 0. -1.
</event>
<event>
 5    1  0.1717518E-003  0.9118800E+02  0.7818608E-02  0.1130116E+00
         25   -1    0    0    0    0  0.00000000000E+00  0.00000000000E+00  0.99999998245E-14  0.12500000000E+03  0.12500000000E+03 0.  0.
        -11    1    3    3    0    0 -0.24309030849E+02  0.41479498122E+02 -0.32058086754E+02  0.57785799916E+02  0.51100000000E-03 0.  1.
         23    2    1    0    0    0  0.29968000239E+01  0.27468139281E+02 -0.98626604440E+01  0.95661432261E+02  0.91051403423E+02 0.  0.
         11    1    3    3    0    0  0.27305830873E+02 -0.14011358841E+02  0.22195426310E+02  0.37875632346E+02  0.51100000000E-03 0. -1.
         22    1    1    0    0    0 -0.29968000239E+01 -0.27468139281E+02  0.98626604440E+01  0.29338567739E+02  0.00000000000E+00 0.  1.
</event>
<event>
 5    1  0.1717518E-003  0.9118800E+02  0.7818608E-02  0.1130116E+00
         25   -1    0    0    0    0  0.00000000000E+00  0.00000000000E+00  0.99999998245E-14  0.12500000000E+03  0.12500000000E+03 0.  0.
        -11    1    3    3    0    0 -0.14268664760E+01  0.38292017762E+01  0.23315725297E+02  0.23671117012E+02  0.51100000000E-03 0.  1.
         23    2    1    0    0    0  0.37519400203E+02 -0.28134030025E+02  0.29606170572E+01  0.78010700256E+02  0.62270980914E+02 0.  0.
         11    1    3    3    0    0  0.38946266679E+02 -0.31963231802E+02 -0.20355108240E+02  0.54339583244E+02  0.51100000000E-03 0. -1.
         22    1    1    0    0    0 -0.37519400203E+02  0.28134030025E+02 -0.29606170572E+01  0.46989299744E+02  0.00000000000E+00 0. -1.
</event>
<event>
 5    1  0.1717518E-003  0.9118800E+02  0.7818608E-02  0.1130116E+00
         25   -1    0    0    0    0  0.00000000000E+00  0.00000000000E+00  0.99999998245E-14  0.12500000000E+03  0.12500000000E+03 0.  0.
        -11    1    3    3    0    0  0.34425968745E+02 -0.12826685152E+02 -0.11370049482E+02  0.38457108595E+02  0.51100000000E-03 0. -1.
         23    2    1    0    0    0 -0.13303278488E+02  0.19993165243E+02 -0.15318159110E+02  0.96515796071E+02  0.92216858641E+02 0.  0.
         11    1    3    3    0    0 -0.47729247233E+02  0.32819850395E+02 -0.39481096286E+01  0.58058687475E+02  0.51100000000E-03 0.  1.
         22    1    1    0    0    0  0.13303278488E+02 -0.19993165243E+02  0.15318159110E+02  0.28484203929E+02  0.00000000000E+00 0.  1.
</event>
<event>
 5    1  0.1717518E-003  0.9118800E+02  0.7818608E-02  0.1130116E+00
         25   -1    0    0    0    0  0.00000000000E+00  0.00000000000E+00  0.99999998245E-14  0.12500000000E+03  0.12500000000E+03 0.  0.
        -11    1    3    3    0    0  0.29828001682E+01 -0.32044116588E+02 -0.18128993461E+01  0.32233664220E+02  0.51100000000E-03 0.  1.
         23    2    1    0    0    0 -0.25718140727E+01  0.30058502065E+02  0.24673923844E+01  0.94730943206E+02  0.89764891809E+02 0.  0.
         11    1    3    3    0    0 -0.55546142408E+01  0.62102618654E+02  0.42802917304E+01  0.62497278985E+02  0.51100000000E-03 0. -1.
         22    1    1    0    0    0  0.25718140727E+01 -0.30058502065E+02 -0.24673923844E+01  0.30269056794E+02  0.00000000000E+00 0. -1.
</event>
<event>
 5    1  0.1717518E-003  0.9118800E+02  0.7818608E-02  0.1130116E+00
         25   -1    0    0    0    0  0.00000000000E+00  0.00000000000E+00  0.99999998245E-14  0.12500000000E+03  0.12500000000E+03 0.  0.
        -11    1    3    3    0    0 -0.46908014133E+02  0.16506576484E+02  0.26674084678E+02  0.56429918047E+02  0.51100000000E-03 0.  1.
         23    2    1    0    0    0 -0.79679980465E+01  0.16474983435E+02  0.23093705235E+02  0.95534201292E+02  0.90876566413E+02 0.  0.
         11    1    3    3    0    0  0.38940016086E+02 -0.31593049444E-01 -0.35803794432E+01  0.39104283245E+02  0.51100000000E-03 0. -1.
         22    1    1    0    0    0  0.79679980465E+01 -0.16474983435E+02 -0.23093705235E+02  0.29465798708E+02  0.00000000000E+00 0.  1.
</event>
<event>
 5    1  0.1717518E-003  0.9118800E+02  0.7818608E-02  0.1130116E+00
         25   -1    0    0    0    0  0.00000000000E+00  0.00000000000E+00  0.99999998245E-14  0.12500000000E+03  0.12500000000E+03 0.  0.
        -11    1    3    3    0    0  0.17007640568E+02 -0.28525393954E+02 -0.34685944688E+02  0.48021585741E+02  0.51100000000E-03 0.  1.
         23    2    1    0    0    0 -0.42323119427E+01  0.12306856437E+02 -0.27460803901E+02  0.94611401305E+02  0.89598271893E+02 0.  0.
         11    1    3    3    0    0 -0.21239952511E+02  0.40832250391E+02  0.72251407867E+01  0.46589815564E+02  0.51100000000E-03 0. -1.
         22    1    1    0    0    0  0.42323119427E+01 -0.12306856437E+02  0.27460803901E+02  0.30388598695E+02  0.00000000000E+00 0. -1.
</event>
<event>
 5    1  0.1717518E-003  0.9118800E+02  0.7818608E-02  0.1130116E+00
         25   -1    0    0    0    0  0.00000000000E+00  0.00000000000E+00  0.99999998245E-14  0.12500000000E+03  0.12500000000E+03 0.  0.
        -11    1    3    3    0    0  0.23193489709E+02  0.29273181776E+02  0.28807011943E+02  0.47166736940E+02  0.51100000000E-03 0.  1.
         23    2    1    0    0    0  0.50670106382E+01  0.24909194856E+02 -0.15493702015E+02  0.95230932375E+02  0.90458460597E+02 0.  0.
         11    1    3    3    0    0 -0.18126479071E+02 -0.43639869202E+01 -0.44300713958E+02  0.48064195435E+02  0.51100000000E-03 0. -1.
         22    1    1    0    0    0 -0.50670106382E+01 -0.24909194856E+02  0.15493702015E+02  0.29769067625E+02  0.00000000000E+00 0.  1.
</event>
<event>
 5    1  0.1717518E-003  0.9118800E+02  0.7818608E-02  0.1130116E+00
         25   -1    0    0    0    0  0.00000000000E+00  0.00000000000E+00  0.99999998245E-14  0.12500000000E+03  0.12500000000E+03 0.  0.
        -11    1    3    3    0    0 -0.95069426515E+01 -0.24912806800E+01 -0.56958395472E+02  0.57800062743E+02  0.51100000000E-03 0. -1.
         23    2    1    0    0    0 -0.15843915460E+02 -0.12809049800E+02 -0.21006938726E+02  0.95735808767E+02  0.91153454085E+02 0.  0.
         11    1    3    3    0    0 -0.63369728085E+01 -0.10317769120E+02  0.35951456746E+02  0.37935746024E+02  0.51100000000E-03 0.  1.
         22    1    1    0    0    0  0.15843915460E+02  0.12809049800E+02  0.21006938726E+02  0.29264191233E+02  0.00000000000E+00 0. -1.
</event>
<event>
 5    1  0.1717518E-003  0.9118800E+02  0.7818608E-02  0.1130116E+00
         25   -1    0    0    0    0  0.00000000000E+00  0.00000000000E+00  0.99999998245E-14  0.12500000000E+03  0.12500000000E+03 0.  0.
        -11    1    3    3    0    0 -0.20218641060E+00 -0.29856793791E+02 -0.16523900681E+02  0.34124892803E+02  0.51100000000E-03 0. -1.
         23    2    1    0    0    0  0.12973877665E+02  0.19814351091E+02  0.17321192955E+02  0.95657986842E+02  0.91046673253E+02 0.  0.
         11    1    3    3    0    0  0.13176064076E+02  0.49671144882E+02  0.33845093636E+02  0.61533094038E+02  0.51100000000E-03 0.  1.
         22    1    1    0    0    0 -0.12973877665E+02 -0.19814351091E+02 -0.17321192955E+02  0.29342013158E+02  0.00000000000E+00 0.  1.
</event>
<event>
 5    1  0.1717518E-003  0.9118800E+02  0.7818608E-02  0.1130116E+00
         25   -1    0    0    0    0  0.00000000000E+00  0.00000000000E+00  0.99999998245E-14  0.12500000000E+03  0.12500000000E+03 0.  0.
        -11    1    3    3    0    0  0.34306716452E+01 -0.64621929794E+00 -0.52673358304E+02  0.52788917233E+02  0.51100000000E-03 0.  1.
         23    2    1    0    0    0 -0.19858483003E+02 -0.10383315679E+02 -0.15385643858E+02  0.97817457283E+02  0.93964697204E+02 0.  0.
         11    1    3    3    0    0 -0.23289154648E+02 -0.97370963808E+01  0.37287714446E+02  0.45028540050E+02  0.51100000000E-03 0. -1.
         22    1    1    0    0    0  0.19858483003E+02  0.10383315679E+02  0.15385643858E+02  0.27182542717E+02  0.00000000000E+00 0.  1.
</event>
<event>
 5    1  0.1717518E-003  0.9118800E+02  0.7818608E-02  0.1130116E+00
         25   -1    0    0    0    0  0.00000000000E+00  0.00000000000E+00  0.99999998245E-14  0.12500000000E+03  0.12500000000E+03 0.  0.
        -11    1    3    3    0    0  0.28703320178E+02  0.22606491398E+02 -0.57856670642E+01  0.36991998949E+02  0.51100000000E-03 0.  1.
         23    2    1    0    0    0 -0.15028962555E+02 -0.15024958817E+02 -0.19349577853E+02  0.96259344718E+02  0.91868581025E+02 0.  0.
         11    1    3    3    0    0 -0.43732282733E+02 -0.37631450215E+02 -0.13563910789E+02  0.59267345769E+02  0.51100000000E-03 0. -1.
         22    1    1    0    0    0  0.15028962555E+02  0.15024958817E+02  0.19349577853E+02  0.28740655282E+02  0.00000000000E+00 0. -1.
</event>
<event>
 5    1  0.1717518E-003  0.9118800E+02  0.7818608E-02  0.1130116E+00
         25   -1    0    0    0    0  0.00000000000E+00  0.00000000000E+00  0.99999998245E-14  0.12500000000E+03  0.12500000000E+03 0.  0.
        -11    1    3    3    0    0 -0.25798409276E+02 -0.18425700220E+02  0.14469486529E+02  0.34848678460E+02  0.51100000000E-03 0.  1.
         23    2    1    0    0    0  0.24273391624E+02  0.12327546078E+02  0.15602916231E+02  0.93621393783E+02  0.88206283482E+02 0.  0.
         11    1    3    3    0    0  0.50071800900E+02  0.30753246298E+02  0.11334297024E+01  0.58772715322E+02  0.51100000000E-03 0. -1.
         22    1    1    0    0    0 -0.24273391624E+02 -0.12327546078E+02 -0.15602916231E+02  0.31378606217E+02  0.00000000000E+00 0. -1.
</event>
<event>
 5    1  0.1717518E-003  0.9118800E+02  0.7818608E-02  0.1130116E+00
         25   -1    0    0    0    0  0.00000000000E+00  0.00000000000E+00  0.99999998245E-14  0.12500000000E+03  0.12500000000E+03 0.  0.
        -11    1    3    3    0    0 -0.12100088495E+02 -0.18703515417E+02  0.32555104604E+02  0.39447033686E+02  0.51100000000E-03 0. -1.
         23    2    1    0    0    0 -0.21820524429E+02  0.71854456082E+01 -0.17153038962E+02  0.96329585622E+02  0.91964103897E+02 0.  0.
         11    1    3    3    0    0 -0.97204359339E+01  0.25888961025E+02 -0.49708143566E+02  0.56882551936E+02  0.51100000000E-03 0.  1.
         22    1    1    0    0    0  0.21820524429E+02 -0.71854456082E+01  0.17153038962E+02  0.28670414378E+02  0.00000000000E+00 0.  1.
</event>
<event>
 5    1  0.1717518E-003  0.9118800E+02  0.7818608E-02  0.1130116E+00
         25   -1    0    0    0    0  0.00000000000E+00  0.00000000000E+00  0.99999998245E-14  0.12500000000E+03  0.12500000000E+03 0.  0.
        -11    1    3    3    0    0 -0.56708007227E+01 -0.26513499528E+02  0.47417080444E+02  0.54621453260E+02  0.51100000000E-03 0. -1.
         23    2    1    0    0    0 -0.23689518418E+02 -0.63471302721E+01  0.18014834798E+02  0.94569528127E+02  0.89539834889E+02 0.  0.
         11    1    3    3    0    0 -0.18018717696E+02  0.20166369256E+02 -0.29402245646E+02  0.39948074868E+02  0.51100000000E-03 0.  1.
         22    1    1    0    0    0  0.23689518418E+02  0.63471302721E+01 -0.18014834798E+02  0.30430471873E+02  0.00000000000E+00 0. -1.
</event>
<event>
 5    1  0.1717518E-003  0.9118800E+02  0.7818608E-02  0.1130116E+00
         25   -1    0    0    0    0  0.00000000000E+00  0.00000000000E+00  0.99999998245E-14  0.12500000000E+03  0.12500000000E+03 0.  0.
        -11    1    3    3    0    0 -0.18004182902E+02 -0.47284439930E+02  0.33710393657E+02  0.60797693231E+02  0.51100000000E-03 0.  1.
         23    2    1    0    0    0 -0.71544767059E+00 -0.17914510983E+02  0.21513428175E+02  0.96995193967E+02  0.92864409177E+02 0.  0.
         11    1    3    3    0    0  0.17288735231E+02  0.29369928948E+02 -0.12196965482E+02  0.36197500736E+02  0.51100000000E-03 0. -1.
         22    1    1    0    0    0  0.71544767059E+00  0.17914510983E+02 -0.21513428175E+02  0.28004806033E+02  0.00000000000E+00 0.  1.
</event>
<event>
 5    1  0.1717518E-003  0.9118800E+02  0.7818608E-02  0.1130116E+00
         25   -1    0    0    0    0  0.00000000000E+00  0.00000000000E+00  0.99999998245E-14  0.12500000000E+03  0.12500000000E+03 0.  0.
        -11    1    3    3    0    0 -0.22389900333E+02 -0.40961330940E+02 -0.26479084551E+02  0.53668241896E+02  0.51100000000E-03 0.  1.
         23    2    1    0    0    0  0.11458828991E+02 -0.15430014212E+02 -0.21185780606E+02  0.96395325552E+02  0.92053415949E+02 0.  0.
         11    1    3    3    0    0  0.33848729324E+02  0.25531316728E+02  0.52933039456E+01  0.42727083655E+02  0.51100000000E-03 0. -1.
         22    1    1    0    0    0 -0.11458828991E+02  0.15430014212E+02  0.21185780606E+02  0.28604674448E+02  0.00000000000E+00 0.  1.
</event>
<event>
 5    1  0.1717518E-003  0.9118800E+02  0.7818608E-02  0.1130116E+00
         25   -1    0    0    0    0  0.00000000000E+00  0.00000000000E+00  0.99999998245E-14  0.12500000000E+03  0.12500000000E+03 0.  0.
        -11    1    3    3    0    0 -0.10550142787E+02 -0.22574195328E+02 -0.23067129129E+02  0.33955739633E+02  0.51100000000E-03 0. -1.
         23    2    1    0    0    0  0.15584750842E+02  0.34834791475E+01  0.25474567445E+02  0.94933861699E+02  0.90047017856E+02 0.  0.
         11    1    3    3    0    0  0.26134893629E+02  0.26057674475E+02  0.48541696575E+02  0.60978122066E+02  0.51100000000E-03 0.  1.
         22    1    1    0    0    0 -0.15584750842E+02 -0.34834791475E+01 -0.25474567445E+02  0.30066138301E+02  0.00000000000E+00 0.  1.
</event>
<event>
 5    1  0.1717518E-003  0.9118800E+02  0.7818608E-02  0.1130116E+00
         25   -1    0    0    0    0  0.00000000000E+00  0.00000000000E+00  0.99999998245E-14  0.12500000000E+03  0.12500000000E+03 0.  0.
        -11    1    3    3    0    0  0.20782536666E+02  0.15685695359E+02  0.25248348956E+02  0.36268912231E+02  0.51100000000E-03 0. -1.
         23    2    1    0    0    0 -0.14869430483E+02 -0.25342176678E+02  0.15146743092E+01  0.95578577194E+02  0.90937584630E+02 0.  0.
         11    1    3    3    0    0 -0.35651967149E+02 -0.41027872037E+02 -0.23733674646E+02  0.59309664963E+02  0.51100000000E-03 0.  1.
         22    1    1    0    0    0  0.14869430483E+02  0.25342176678E+02 -0.15146743092E+01  0.29421422806E+02  0.00000000000E+00 0.  1.
</event>
<event>
 5    1  0.1717518E-003  0.9118800E+02  0.7818608E-02  0.1130116E+00
         25   -1    0    0    0    0  0.00000000000E+00  0.00000000000E+00  0.99999998245E-14  0.12500000000E+03  0.12500000000E+03 0.  0.
        -11    1    3    3    0    0 -0.72657427600E+01  0.18612569214E+02  0.52725339498E+02  0.56384219211E+02  0.51100000000E-03 0.  1.
         23    2    1    0    0    0  0.81150571080E+01  0.25125294270E+02  0.25703276728E+02  0.88151757184E+02  0.80080829766E+02 0.  0.
         11    1    3    3    0    0  0.15380799868E+02  0.65127250567E+01 -0.27022062770E+02  0.31767537973E+02  0.51100000000E-03 0. -1.
         22    1    1    0    0    0 -0.81150571080E+01 -0.25125294270E+02 -0.25703276728E+02  0.36848242816E+02  0.00000000000E+00 0.  1.
</event>
<event>
 5    1  0.1717518E-003  0.9118800E+02  0.7818608E-02  0.1130116E+00
         25   -1    0    0    0    0  0.00000000000E+00  0.00000000000E+00  0.99999998245E-14  0.12500000000E+03  0.12500000000E+03 0.  0.
        -11    1    3    3    0    0 -0.80683263120E+01 -0.91957004431E+01 -0.41883688696E+02  0.43633727496E+02  0.51100000000E-03 0.  1.
         23    2    1    0    0    0 -0.27902315880E+02 -0.71899572460E+01  0.60591365907E+01  0.95556021789E+02  0.90906575380E+02 0.  0.
         11    1    3    3    0    0 -0.19833989568E+02  0.20057431971E+01  0.47942825287E+02  0.51922294293E+02  0.51100000000E-03 0. -1.
         22    1    1    0    0    0  0.27902315880E+02  0.71899572460E+01 -0.60591365907E+01  0.29443978211E+02  0.00000000000E+00 0.  1.
</event>
<event>
 5    1  0.1717518E-003  0.9118800E+02  0.7818608E-02  0.1130116E+00
         25   -1    0    0    0    0  0.00000000000E+00  0.00000000000E+00  0.99999998245E-14  0.12500000000E+03  0.12500000000E+03 0.  0.
        -11    1    3    3    0    0 -0.23309751674E+02 -0.23032273214E+02  0.23545942118E+02  0.40351474856E+02  0.51100000000E-03 0.  1.
         23    2    1    0    0    0 -0.10253854427E+02  0.27213236993E+02  0.49197118985E+01  0.95505841876E+02  0.90837549885E+02 0.  0.
         11    1    3    3    0    0  0.13055897248E+02  0.50245510208E+02 -0.18626230220E+02  0.55154367020E+02  0.51100000000E-03 0. -1.
         22    1    1    0    0    0  0.10253854427E+02 -0.27213236993E+02 -0.49197118985E+01  0.29494158124E+02  0.00000000000E+00 0. -1.
</event>
<event>
 5    1  0.1717518E-003  0.9118800E+02  0.7818608E-02  0.1130116E+00
         25   -1    0    0    0    0  0.00000000000E+00  0.00000000000E+00  0.99999998245E-14  0.12500000000E+03  0.12500000000E+03 0.  0.
        -11    1    3    3    0    0  0.19946574916E+02  0.16442505590E+02  0.41283463680E+02  0.48708789911E+02  0.51100000000E-03 0. -1.
         23    2    1    0    0    0 -0.15627440361E+02 -0.85982287241E+01  0.22990284332E+02  0.95901896916E+02  0.91380929241E+02 0.  0.
         11    1    3    3    0    0 -0.35574015277E+02 -0.25040734314E+02 -0.18293179348E+02  0.47193107005E+02  0.51100000000E-03 0.  1.
         22    1    1    0    0    0  0.15627440361E+02  0.85982287241E+01 -0.22990284332E+02  0.29098103084E+02  0.00000000000E+00 0. -1.
</event>
<event>
 5    1  0.1717518E-003  0.9118800E+02  0.7818608E-02  0.1130116E+00
         25   -1    0    0    0    0  0.00000000000E+00  0.00000000000E+00  0.99999998245E-14  0.12500000000E+03  0.12500000000E+03 0.  0.
        -11    1    3    3    0    0 -0.32899281599E+02  0.12384746853E+02 -0.43167714543E+02  0.55670425394E+02  0.51100000000E-03 0. -1.
         23    2    1    0    0    0 -0.28582740658E+02 -0.13447037799E+01 -0.56779903400E+01  0.95827738071E+02  0.91279430968E+02 0.  0.
         11    1    3    3    0    0  0.43165409420E+01 -0.13729450633E+02  0.37489724203E+02  0.40157312677E+02  0.51100000000E-03 0.  1.
         22    1    1    0    0    0  0.28582740658E+02  0.13447037799E+01  0.56779903400E+01  0.29172261929E+02  0.00000000000E+00 0. -1.
</event>
<event>
 5    1  0.1717518E-003  0.9118800E+02  0.7818608E-02  0.1130116E+00
         25   -1    0    0    0    0  0.00000000000E+00  0.00000000000E+00  0.99999998245E-14  0.12500000000E+03  0.12500000000E+03 0.  0.
        -11    1    3    3    0    0  0.47141453595E+02 -0.97409169972E+01  0.36072461312E+02  0.60153342188E+02  0.51100000000E-03 0.  1.
         23    2    1    0    0    0  0.20113260317E+02  0.53729840034E+01  0.23579031037E+02  0.93545542409E+02  0.88098726451E+02 0.  0.
         11    1    3    3    0    0 -0.27028193278E+02  0.15113901001E+02 -0.12493430275E+02  0.33392200221E+02  0.51100000000E-03 0. -1.
         22    1    1    0    0    0 -0.20113260317E+02 -0.53729840034E+01 -0.23579031037E+02  0.31454457591E+02  0.00000000000E+00 0.  1.
</event>
<event>
 5    1  0.1717518E-003  0.9118800E+02  0.7818608E-02  0.1130116E+00
         25   -1    0    0    0    0  0.00000000000E+00  0.00000000000E+00  0.99999998245E-14  0.12500000000E+03  0.12500000000E+03 0.  0.
        -11    1    3    3    0    0 -0.16756211731E+02  0.10526630156E+02  0.56430017763E+02  0.59799059182E+02  0.51100000000E-03 0.  1.
         23    2    1    0    0    0  0.49396115716E+01  0.71913130977E+01  0.27722832327E+02  0.95936789943E+02  0.91428646965E+02 0.  0.
         11    1    3    3    0    0  0.21695823303E+02 -0.33353170587E+01 -0.28707185436E+02  0.36137730761E+02  0.51100000000E-03 0. -1.
         22    1    1    0    0    0 -0.49396115716E+01 -0.71913130977E+01 -0.27722832327E+02  0.29063210057E+02  0.00000000000E+00 0.  1.
</event>
<event>
 5    1  0.1717518E-003  0.9118800E+02  0.7818608E-02  0.1130116E+00
         25   -1    0    0    0    0  0.00000000000E+00  0.00000000000E+00  0.99999998245E-14  0.12500000000E+03  0.12500000000E+03 0.  0.
        -11    1    3    3    0    0 -0.13785442512E+02 -0.37581422969E+02  0.39199011050E+02  0.56026460223E+02  0.51100000000E-03 0.  1.
         23    2    1    0    0    0  0.31136582106E+01 -0.29376685594E+02  0.50094184667E+01  0.95037042914E+02  0.90190136537E+02 0.  0.
         11    1    3    3    0    0  0.16899100722E+02  0.82047373747E+01 -0.34189592583E+02  0.39010582691E+02  0.51100000000E-03 0. -1.
         22    1    1    0    0    0 -0.31136582106E+01  0.29376685594E+02 -0.50094184667E+01  0.29962957086E+02  0.00000000000E+00 0.  1.
</event>
<event>
 5    1  0.1717518E-003  0.9118800E+02  0.7818608E-02  0.1130116E+00
         25   -1    0    0    0    0  0.00000000000E+00  0.00000000000E+00  0.99999998245E-14  0.12500000000E+03  0.12500000000E+03 0.  0.
        -11    1    3    3    0    0  0.11859331878E+02  0.21926518530E+02 -0.33096689081E+02  0.41434367328E+02  0.51100000000E-03 0. -1.
         23    2    1    0    0    0 -0.29123898109E+02  0.19137195995E+01 -0.22208750337E+02  0.88324499249E+02  0.80350014389E+02 0.  0.
         11    1    3    3    0    0 -0.40983229988E+02 -0.20012798931E+02  0.10887938744E+02  0.46890131921E+02  0.51100000000E-03 0.  1.
         22    1    1    0    0    0  0.29123898109E+02 -0.19137195995E+01  0.22208750337E+02  0.36675500751E+02  0.00000000000E+00 0.  1.
</event>
<event>
 5    1  0.1717518E-003  0.9118800E+02  0.7818608E-02  0.1130116E+00
         25   -1    0    0    0    0  0.00000000000E+00  0.00000000000E+00  0.99999998245E-14  0.12500000000E+03  0.12500000000E+03 0.  0.
        -11    1    3    3    0    0 -0.16814600993E+02 -0.27983926406E+02 -0.61329103295E+01  0.33218120552E+02  0.51100000000E-03 0.  1.
         23    2    1    0    0    0  0.14040248111E+02  0.18535249288E+02  0.19508874843E+02  0.94647401580E+02  0.89648482391E+02 0.  0.
         11    1    3    3    0    0  0.30854849104E+02  0.46519175694E+02  0.25641785173E+02  0.61429281028E+02  0.51100000000E-03 0. -1.
         22    1    1    0    0    0 -0.14040248111E+02 -0.18535249288E+02 -0.19508874843E+02  0.30352598420E+02  0.00000000000E+00 0. -1.
</event>
<event>
 5    1  0.1717518E-003  0.9118800E+02  0.7818608E-02  0.1130116E+00
         25   -1    0    0    0    0  0.00000000000E+00  0.00000000000E+00  0.99999998245E-14  0.12500000000E+03  0.12500000000E+03 0.  0.
        -11    1    3    3    0    0 -0.14497016558E+02 -0.55301191137E+02 -0.14952764025E+02  0.59092896210E+02  0.51100000000E-03 0. -1.
         23    2    1    0    0    0 -0.16944353743E+02 -0.26237034340E+02  0.34452051799E+01  0.93577674602E+02  0.88144305831E+02 0.  0.
         11    1    3    3    0    0 -0.24473371845E+01  0.29064156797E+02  0.18397969205E+02  0.34484778392E+02  0.51100000000E-03 0.  1.
         22    1    1    0    0    0  0.16944353743E+02  0.26237034340E+02 -0.34452051799E+01  0.31422325398E+02  0.00000000000E+00 0. -1.
</event>
<event>
 5    1  0.1717518E-003  0.9118800E+02  0.7818608E-02  0.1130116E+00
         25   -1    0    0    0    0  0.00000000000E+00  0.00000000000E+00  0.99999998245E-14  0.12500000000E+03  0.12500000000E+03 0.  0.
        -11    1    3    3    0    0  0.85221839207E+01 -0.73602366055E+01 -0.49767249050E+02  0.51025285692E+02  0.51100000000E-03 0. -1.
         23    2    1    0    0    0 -0.16939366616E+02 -0.18298189078E+02 -0.13572548532E+02  0.96610214186E+02  0.92344753758E+02 0.  0.
         11    1    3    3    0    0 -0.25461550537E+02 -0.10937952473E+02  0.36194700518E+02  0.45584928495E+02  0.51100000000E-03 0.  1.
         22    1    1    0    0    0  0.16939366616E+02  0.18298189078E+02  0.13572548532E+02  0.28389785814E+02  0.00000000000E+00 0. -1.
</event>
<event>
 5    1  0.1717518E-003  0.9118800E+02  0.7818608E-02  0.1130116E+00
         25   -1    0    0    0    0  0.00000000000E+00  0.00000000000E+00  0.99999998245E-14  0.12500000000E+03  0.12500000000E+03 0.  0.
        -11    1    3    3    0    0  0.52999200494E+02  0.69028321854E+01 -0.31701708244E+02  0.62141472875E+02  0.51100000000E-03 0.  1.
         23    2    1    0    0    0  0.28611895022E+02  0.88997022356E+00 -0.12470433435E+02  0.93775902034E+02  0.88424971069E+02 0.  0.
         11    1    3    3    0    0 -0.24387305473E+02 -0.60128619619E+01  0.19231274809E+02  0.31634429159E+02  0.51100000000E-03 0. -1.
         22    1    1    0    0    0 -0.28611895022E+02 -0.88997022356E+00  0.12470433435E+02  0.31224097966E+02  0.00000000000E+00 0.  1.
</event>
<event>
 5    1  0.1717518E-003  0.9118800E+02  0.7818608E-02  0.1130116E+00
         25   -1    0    0    0    0  0.00000000000E+00  0.00000000000E+00  0.99999998245E-14  0.12500000000E+03  0.12500000000E+03 0.  0.
        -11    1    3    3    0    0 -0.41321430339E+02  0.27188570065E+02 -0.36484757812E+02  0.61463944718E+02  0.51100000000E-03 0. -1.
         23    2    1    0    0    0 -0.22437614482E+02  0.53237664320E+01 -0.17779152869E+02  0.95881495412E+02  0.91353017756E+02 0.  0.
         11    1    3    3    0    0  0.18883815857E+02 -0.21864803633E+02  0.18705604943E+02  0.34417550694E+02  0.51100000000E-03 0.  1.
         22    1    1    0    0    0  0.22437614482E+02 -0.53237664320E+01  0.17779152869E+02  0.29118504588E+02  0.00000000000E+00 0. -1.
</event>
<event>
 5    1  0.1717518E-003  0.9118800E+02  0.7818608E-02  0.1130116E+00
         25   -1    0    0    0    0  0.00000000000E+00  0.00000000000E+00  0.99999998245E-14  0.12500000000E+03  0.12500000000E+03 0.  0.
        -11    1    3    3    0    0 -0.34318223682E+02  0.18535223823E+02  0.12179582312E+01  0.39022793613E+02  0.51100000000E-03 0. -1.
         23    2    1    0    0    0  0.93168175494E+01 -0.22528215360E+01 -0.27933842350E+02  0.95467342778E+02  0.90784556476E+02 0.  0.
         11    1    3    3    0    0  0.43635041231E+02 -0.20788045359E+02 -0.29151800581E+02  0.56444549166E+02  0.51100000000E-03 0.  1.
         22    1    1    0    0    0 -0.93168175494E+01  0.22528215360E+01  0.27933842350E+02  0.29532657222E+02  0.00000000000E+00 0.  1.
</event>
<event>
 5    1  0.1717518E-003  0.9118800E+02  0.7818608E-02  0.1130116E+00
         25   -1    0    0    0    0  0.00000000000E+00  0.00000000000E+00  0.99999998245E-14  0.12500000000E+03  0.12500000000E+03 0.  0.
        -11    1    3    3    0    0  0.17018311109E+02  0.30861900612E+02 -0.13804036324E+02  0.37850115475E+02  0.51100000000E-03 0.  1.
         23    2    1    0    0    0 -0.30050573133E+02  0.17943367923E+02  0.39268461021E+01  0.89780381626E+02  0.82583868925E+02 0.  0.
         11    1    3    3    0    0 -0.47068884242E+02 -0.12918532689E+02  0.17730882426E+02  0.51930266151E+02  0.51100000000E-03 0. -1.
         22    1    1    0    0    0  0.30050573133E+02 -0.17943367923E+02 -0.39268461021E+01  0.35219618374E+02  0.00000000000E+00 0. -1.
</event>
<event>
 5    1  0.1717518E-003  0.9118800E+02  0.7818608E-02  0.1130116E+00
         25   -1    0    0    0    0  0.00000000000E+00  0.00000000000E+00  0.99999998245E-14  0.12500000000E+03  0.12500000000E+03 0.  0.
        -11    1    3    3    0    0  0.27471270468E+02  0.26943636692E+02  0.31106811253E+02  0.49479934983E+02  0.51100000000E-03 0. -1.
         23    2    1    0    0    0  0.29273150393E+02 -0.98038884865E+00 -0.51314608629E+01  0.95264324679E+02  0.90504591982E+02 0.  0.
         11    1    3    3    0    0  0.18018799251E+01 -0.27924025541E+02 -0.36238272116E+02  0.45784389696E+02  0.51100000000E-03 0.  1.
         22    1    1    0    0    0 -0.29273150393E+02  0.98038884865E+00  0.51314608629E+01  0.29735675321E+02  0.00000000000E+00 0. -1.
</event>
<event>
 5    1  0.1717518E-003  0.9118800E+02  0.7818608E-02  0.1130116E+00
         25   -1    0    0    0    0  0.00000000000E+00  0.00000000000E+00  0.99999998245E-14  0.12500000000E+03  0.12500000000E+03 0.  0.
        -11    1    3    3    0    0 -0.20399584377E+02  0.37179762148E+02 -0.72388430768E+01  0.43021838705E+02  0.51100000000E-03 0. -1.
         23    2    1    0    0    0 -0.16530142870E+02 -0.15488513954E+02 -0.16937675606E+02  0.96715294897E+02  0.92486884066E+02 0.  0.
         11    1    3    3    0    0  0.38694415070E+01 -0.52668276103E+02 -0.96988325292E+01  0.53693456193E+02  0.51100000000E-03 0.  1.
         22    1    1    0    0    0  0.16530142870E+02  0.15488513954E+02  0.16937675606E+02  0.28284705103E+02  0.00000000000E+00 0.  1.
</event>
<event>
 5    1  0.1717518E-003  0.9118800E+02  0.7818608E-02  0.1130116E+00
         25   -1    0    0    0    0  0.00000000000E+00  0.00000000000E+00  0.99999998245E-14  0.12500000000E+03  0.12500000000E+03 0.  0.
        -11    1    3    3    0    0 -0.46318488884E+02  0.37867838398E+01  0.58817483867E+01  0.46843752078E+02  0.51100000000E-03 0. -1.
         23    2    1    0    0    0 -0.11237572465E+02 -0.22319309547E+02 -0.15576936293E+02  0.95553853260E+02  0.90903593520E+02 0.  0.
         11    1    3    3    0    0  0.35080916419E+02 -0.26106093387E+02 -0.21458684679E+02  0.48710101182E+02  0.51100000000E-03 0.  1.
         22    1    1    0    0    0  0.11237572465E+02  0.22319309547E+02  0.15576936293E+02  0.29446146740E+02  0.00000000000E+00 0.  1.
</event>
<event>
 5    1  0.1717518E-003  0.9118800E+02  0.7818608E-02  0.1130116E+00
         25   -1    0    0    0    0  0.00000000000E+00  0.00000000000E+00  0.99999998245E-14  0.12500000000E+03  0.12500000000E+03 0.  0.
        -11    1    3    3    0    0  0.44502625718E+02 -0.57374614985E+01  0.39806792139E+02  0.59983188152E+02  0.51100000000E-03 0.  1.
         23    2    1    0    0    0  0.27573912039E+02 -0.50744722120E+01  0.82929335487E+01  0.95762290784E+02  0.91189762013E+02 0.  0.
         11    1    3    3    0    0 -0.16928713679E+02  0.66298928644E+00 -0.31513858590E+02  0.35779102632E+02  0.51100000000E-03 0. -1.
         22    1    1    0    0    0 -0.27573912039E+02  0.50744722120E+01 -0.82929335487E+01  0.29237709216E+02  0.00000000000E+00 0.  1.
</event>
<event>
 5    1  0.1717518E-003  0.9118800E+02  0.7818608E-02  0.1130116E+00
         25   -1    0    0    0    0  0.00000000000E+00  0.00000000000E+00  0.99999998245E-14  0.12500000000E+03  0.12500000000E+03 0.  0.
        -11    1    3    3    0    0  0.28819053981E+02 -0.17238198306E+02 -0.10716866557E+02  0.35249745847E+02  0.51100000000E-03 0. -1.
         23    2    1    0    0    0 -0.28707730022E+02 -0.34849460768E+01  0.28739449317E+01  0.95939061067E+02  0.91431751962E+02 0.  0.
         11    1    3    3    0    0 -0.57526784004E+02  0.13753252229E+02  0.13590811488E+02  0.60689315220E+02  0.51100000000E-03 0.  1.
         22    1    1    0    0    0  0.28707730022E+02  0.34849460768E+01 -0.28739449317E+01  0.29060938933E+02  0.00000000000E+00 0.  1.
</event>
<event>
 5    1  0.1717518E-003  0.9118800E+02  0.7818608E-02  0.1130116E+00
         25   -1    0    0    0    0  0.00000000000E+00  0.00000000000E+00  0.99999998245E-14  0.12500000000E+03  0.12500000000E+03 0.  0.
        -11    1    3    3    0    0 -0.23558172609E+02 -0.13327069385E+02  0.22173506182E+02  0.34989464868E+02  0.51100000000E-03 0. -1.
         23    2    1    0    0    0  0.11906285041E+02  0.14431078379E+01 -0.25858682231E+02  0.96495375280E+02  0.92189174093E+02 0.  0.
         11    1    3    3    0    0  0.35464457650E+02  0.14770177223E+02 -0.48032188413E+02  0.61505910412E+02  0.51100000000E-03 0.  1.
         22    1    1    0    0    0 -0.11906285041E+02 -0.14431078379E+01  0.25858682231E+02  0.28504624720E+02  0.00000000000E+00 0.  1.
</event>
<event>
 5    1  0.1717518E-003  0.9118800E+02  0.7818608E-02  0.1130116E+00
         25   -1    0    0    0    0  0.00000000000E+00  0.00000000000E+00  0.99999998245E-14  0.12500000000E+03  0.12500000000E+03 0.  0.
        -11    1    3    3    0    0  0.22395205351E+02 -0.35435954543E+02  0.38549672415E+02  0.56950235651E+02  0.51100000000E-03 0.  1.
         23    2    1    0    0    0  0.71296353855E+01 -0.13615944058E+00  0.26952726640E+02  0.97119904708E+02  0.93032124436E+02 0.  0.
         11    1    3    3    0    0 -0.15265569966E+02  0.35299795103E+02 -0.11596945774E+02  0.40169669058E+02  0.51100000000E-03 0. -1.
         22    1    1    0    0    0 -0.71296353855E+01  0.13615944058E+00 -0.26952726640E+02  0.27880095292E+02  0.00000000000E+00 0.  1.
</event>
<event>
 5    1  0.1717518E-003  0.9118800E+02  0.7818608E-02  0.1130116E+00
         25   -1    0    0    0    0  0.00000000000E+00  0.00000000000E+00  0.99999998245E-14  0.12500000000E+03  0.12500000000E+03 0.  0.
        -11    1    3    3    0    0  0.25542547812E+02  0.32461997839E+02 -0.38045111425E+02  0.56157221762E+02  0.51100000000E-03 0. -1.
         23    2    1    0    0    0  0.14508984661E+02 -0.44993901665E+01 -0.22733824022E+02  0.97658055986E+02  0.93752407951E+02 0.  0.
         11    1    3    3    0    0 -0.11033563151E+02 -0.36961388006E+02  0.15311287403E+02  0.41500834224E+02  0.51100000000E-03 0.  1.
         22    1    1    0    0    0 -0.14508984661E+02  0.44993901665E+01  0.22733824022E+02  0.27341944014E+02  0.00000000000E+00 0. -1.
</event>
<event>
 5    1  0.1717518E-003  0.9118800E+02  0.7818608E-02  0.1130116E+00
         25   -1    0    0    0    0  0.00000000000E+00  0.00000000000E+00  0.99999998245E-14  0.12500000000E+03  0.12500000000E+03 0.  0.
        -11    1    3    3    0    0 -0.45206926982E+02  0.10293443770E+02  0.58311900073E+01  0.46729262877E+02  0.51100000000E-03 0.  1.
         23    2    1    0    0    0 -0.13591903039E+02 -0.26308382327E+02  0.54078777536E+00  0.95383057884E+02  0.90668431502E+02 0.  0.
         11    1    3    3    0    0  0.31615023943E+02 -0.36601826097E+02 -0.52904022319E+01  0.48653795008E+02  0.51100000000E-03 0. -1.
         22    1    1    0    0    0  0.13591903039E+02  0.26308382327E+02 -0.54078777536E+00  0.29616942116E+02  0.00000000000E+00 0.  1.
</event>
<event>
 5    1  0.1717518E-003  0.9118800E+02  0.7818608E-02  0.1130116E+00
         25   -1    0    0    0    0  0.00000000000E+00  0.00000000000E+00  0.99999998245E-14  0.12500000000E+03  0.12500000000E+03 0.  0.
        -11    1    3    3    0    0  0.29272975073E+02 -0.48999616392E+02  0.18582308950E+02  0.60026424867E+02  0.51100000000E-03 0.  1.
         23    2    1    0    0    0  0.14039358842E+02 -0.20490600979E+02  0.21045853005E+02  0.92443952115E+02  0.86521604404E+02 0.  0.
         11    1    3    3    0    0 -0.15233616231E+02  0.28509015413E+02  0.24635440553E+01  0.32417527247E+02  0.51100000000E-03 0. -1.
         22    1    1    0    0    0 -0.14039358842E+02  0.20490600979E+02 -0.21045853005E+02  0.32556047885E+02  0.00000000000E+00 0.  1.
</event>
<event>
 5    1  0.1717518E-003  0.9118800E+02  0.7818608E-02  0.1130116E+00
         25   -1    0    0    0    0  0.00000000000E+00  0.00000000000E+00  0.99999998245E-14  0.12500000000E+03  0.12500000000E+03 0.  0.
        -11    1    3    3    0    0 -0.51486760760E+02  0.25064315049E+02 -0.12956265743E+02  0.58710912484E+02  0.51100000000E-03 0. -1.
         23    2    1    0    0    0 -0.16036339920E+02  0.13888113955E+02 -0.19182384312E+02  0.96399164783E+02  0.92058629121E+02 0.  0.
         11    1    3    3    0    0  0.35450420840E+02 -0.11176201094E+02 -0.62261185687E+01  0.37688252299E+02  0.51100000000E-03 0.  1.
         22    1    1    0    0    0  0.16036339920E+02 -0.13888113955E+02  0.19182384312E+02  0.28600835217E+02  0.00000000000E+00 0. -1.
</event>
<event>
 5    1  0.1717518E-003  0.9118800E+02  0.7818608E-02  0.1130116E+00
         25   -1    0    0    0    0  0.00000000000E+00  0.00000000000E+00  0.99999998245E-14  0.12500000000E+03  0.12500000000E+03 0.  0.
        -11    1    3    3    0    0 -0.13489098726E+02  0.37284921083E+02  0.22381255971E+02  0.45530668167E+02  0.51100000000E-03 0.  1.
         23    2    1    0    0    0 -0.43336111055E+01  0.17637386572E+02 -0.22923418688E+02  0.95753791449E+02  0.91178110653E+02 0.  0.
         11    1    3    3    0    0  0.91554876203E+01 -0.19647534512E+02 -0.45304674659E+02  0.50223123282E+02  0.51100000000E-03 0. -1.
         22    1    1    0    0    0  0.43336111055E+01 -0.17637386572E+02  0.22923418688E+02  0.29246208551E+02  0.00000000000E+00 0. -1.
</event>
<event>
 5    1  0.1717518E-003  0.9118800E+02  0.7818608E-02  0.1130116E+00
         25   -1    0    0    0    0  0.00000000000E+00  0.00000000000E+00  0.99999998245E-14  0.12500000000E+03  0.12500000000E+03 0.  0.
        -11    1    3    3    0    0 -0.42203986586E+02 -0.91265970353E+00  0.37964329660E+02  0.56774111691E+02  0.51100000000E-03 0. -1.
         23    2    1    0    0    0 -0.50422223232E+01  0.59451818340E+01  0.28112838988E+02  0.95826366202E+02  0.91277552282E+02 0.  0.
         11    1    3    3    0    0  0.37161764263E+02  0.68578415375E+01 -0.98514906723E+01  0.39052254511E+02  0.51100000000E-03 0.  1.
         22    1    1    0    0    0  0.50422223232E+01 -0.59451818340E+01 -0.28112838988E+02  0.29173633798E+02  0.00000000000E+00 0. -1.
</event>
<event>
 5    1  0.1717518E-003  0.9118800E+02  0.7818608E-02  0.1130116E+00
         25   -1    0    0    0    0  0.00000000000E+00  0.00000000000E+00  0.99999998245E-14  0.12500000000E+03  0.12500000000E+03 0.  0.
        -11    1    3    3    0    0 -0.14631466414E+02  0.22464426859E+02 -0.36472254028E+02  0.45265390727E+02  0.51100000000E-03 0. -1.
         23    2    1    0    0    0 -0.28792471479E+02 -0.30957761775E+01  0.46070798890E+01  0.95677390479E+02  0.91073309042E+02 0.  0.
         11    1    3    3    0    0 -0.14161005065E+02 -0.25560203036E+02  0.41079333917E+02  0.50411999752E+02  0.51100000000E-03 0.  1.
         22    1    1    0    0    0  0.28792471479E+02  0.30957761775E+01 -0.46070798890E+01  0.29322609521E+02  0.00000000000E+00 0.  1.
</event>
<event>
 5    1  0.1717518E-003  0.9118800E+02  0.7818608E-02  0.1130116E+00
         25   -1    0    0    0    0  0.00000000000E+00  0.00000000000E+00  0.99999998245E-14  0.12500000000E+03  0.12500000000E+03 0.  0.
        -11    1    3    3    0    0  0.48399522228E+02  0.51042811885E+01  0.38980468014E+02  0.62354184504E+02  0.51100000000E-03 0. -1.
         23    2    1    0    0    0  0.24963543541E+02  0.69135478120E-01  0.17820173485E+02  0.94328484406E+02  0.89202696716E+02 0.  0.
         11    1    3    3    0    0 -0.23435978687E+02 -0.50351457104E+01 -0.21160294529E+02  0.31974299901E+02  0.51100000000E-03 0.  1.
         22    1    1    0    0    0 -0.24963543541E+02 -0.69135478120E-01 -0.17820173485E+02  0.30671515594E+02  0.00000000000E+00 0. -1.
</event>
<event>
 5    1  0.1717518E-003  0.9118800E+02  0.7818608E-02  0.1130116E+00
         25   -1    0    0    0    0  0.00000000000E+00  0.00000000000E+00  0.99999998245E-14  0.12500000000E+03  0.12500000000E+03 0.  0.
        -11    1    3    3    0    0 -0.16460660354E+02  0.49311414722E+02  0.23338118491E+02  0.56984530674E+02  0.51100000000E-03 0.  1.
         23    2    1    0    0    0 -0.28735461994E+01  0.33843229151E+02 -0.35503822110E+01  0.90849939371E+02  0.84187201182E+02 0.  0.
         11    1    3    3    0    0  0.13587114155E+02 -0.15468185572E+02 -0.26888500702E+02  0.33865408697E+02  0.51100000000E-03 0. -1.
         22    1    1    0    0    0  0.28735461994E+01 -0.33843229151E+02  0.35503822110E+01  0.34150060629E+02  0.00000000000E+00 0.  1.
</event>
<event>
 5    1  0.1717518E-003  0.9118800E+02  0.7818608E-02  0.1130116E+00
         25   -1    0    0    0    0  0.00000000000E+00  0.00000000000E+00  0.99999998245E-14  0.12500000000E+03  0.12500000000E+03 0.  0.
        -11    1    3    3    0    0 -0.12184173196E+02 -0.44101832472E+02  0.30503139378E+01  0.45855535318E+02  0.51100000000E-03 0.  1.
         23    2    1    0    0    0  0.11671878189E+02 -0.36956278468E+00 -0.20845675946E+02  0.10110624511E+03  0.98242359894E+02 0.  0.
         11    1    3    3    0    0  0.23856051385E+02  0.43732269688E+02 -0.23895989884E+02  0.55250709792E+02  0.51100000000E-03 0. -1.
         22    1    1    0    0    0 -0.11671878189E+02  0.36956278468E+00  0.20845675946E+02  0.23893754890E+02  0.00000000000E+00 0. -1.
</event>
<event>
 5    1  0.1717518E-003  0.9118800E+02  0.7818608E-02  0.1130116E+00
         25   -1    0    0    0    0  0.00000000000E+00  0.00000000000E+00  0.99999998245E-14  0.12500000000E+03  0.12500000000E+03 0.  0.
        -11    1    3    3    0    0 -0.26458650182E+01  0.20053466331E+02  0.31872920356E+02  0.37749505505E+02  0.51100000000E-03 0. -1.
         23    2    1    0    0    0 -0.25273736343E+02  0.21583583575E+01 -0.16973678184E+02  0.94479088962E+02  0.89413490260E+02 0.  0.
         11    1    3    3    0    0 -0.22627871324E+02 -0.17895107973E+02 -0.48846598540E+02  0.56729583457E+02  0.51100000000E-03 0.  1.
         22    1    1    0    0    0  0.25273736343E+02 -0.21583583575E+01  0.16973678184E+02  0.30520911038E+02  0.00000000000E+00 0.  1.
</event>
<event>
 5    1  0.1717518E-003  0.9118800E+02  0.7818608E-02  0.1130116E+00
         25   -1    0    0    0    0  0.00000000000E+00  0.00000000000E+00  0.99999998245E-14  0.12500000000E+03  0.12500000000E+03 0.  0.
        -11    1    3    3    0    0 -0.27130831930E+02  0.77265959086E+00  0.26987934036E+02  0.38275679326E+02  0.51100000000E-03 0.  1.
         23    2    1    0    0    0  0.27470626827E+02 -0.21291067411E+01  0.11817216716E+02  0.95019755760E+02  0.90166174035E+02 0.  0.
         11    1    3    3    0    0  0.54601458756E+02 -0.29017663320E+01 -0.15170717320E+02  0.56744076435E+02  0.51100000000E-03 0. -1.
         22    1    1    0    0    0 -0.27470626827E+02  0.21291067411E+01 -0.11817216716E+02  0.29980244240E+02  0.00000000000E+00 0. -1.
</event>
<event>
 5    1  0.1717518E-003  0.9118800E+02  0.7818608E-02  0.1130116E+00
         25   -1    0    0    0    0  0.00000000000E+00  0.00000000000E+00  0.99999998245E-14  0.12500000000E+03  0.12500000000E+03 0.  0.
        -11    1    3    3    0    0  0.40049753369E+02 -0.29694689641E+00  0.46054377695E+02  0.61033405833E+02  0.51100000000E-03 0.  1.
         23    2    1    0    0    0  0.13230392802E+02  0.71946633993E+01  0.24476880107E+02  0.96261104146E+02  0.91870974941E+02 0.  0.
         11    1    3    3    0    0 -0.26819360567E+02  0.74916102957E+01 -0.21577497588E+02  0.35227698314E+02  0.51100000000E-03 0. -1.
         22    1    1    0    0    0 -0.13230392802E+02 -0.71946633993E+01 -0.24476880107E+02  0.28738895854E+02  0.00000000000E+00 0.  1.
</event>
<event>
 5    1  0.1717518E-003  0.9118800E+02  0.7818608E-02  0.1130116E+00
         25   -1    0    0    0    0  0.00000000000E+00  0.00000000000E+00  0.99999998245E-14  0.12500000000E+03  0.12500000000E+03 0.  0.
        -11    1    3    3    0    0 -0.25068458161E+02 -0.40438149365E+02 -0.16592280068E+02  0.50388245423E+02  0.51100000000E-03 0. -1.
         23    2    1    0    0    0 -0.34158348197E+01 -0.44079715994E+01 -0.29981008001E+02  0.94504771162E+02  0.89449386753E+02 0.  0.
         11    1    3    3    0    0  0.21652623341E+02  0.36030177766E+02 -0.13388727933E+02  0.44116525740E+02  0.51100000000E-03 0.  1.
         22    1    1    0    0    0  0.34158348197E+01  0.44079715994E+01  0.29981008001E+02  0.30495228838E+02  0.00000000000E+00 0.  1.
</event>
<event>
 5    1  0.1717518E-003  0.9118800E+02  0.7818608E-02  0.1130116E+00
         25   -1    0    0    0    0  0.00000000000E+00  0.00000000000E+00  0.99999998245E-14  0.12500000000E+03  0.12500000000E+03 0.  0.
        -11    1    3    3    0    0 -0.18144982186E+01 -0.58749183369E+01 -0.50759089696E+02  0.51130150169E+02  0.51100000000E-03 0. -1.
         23    2    1    0    0    0 -0.36281865023E+01 -0.27044123918E+02 -0.12296693356E+02  0.95070799488E+02  0.90236909699E+02 0.  0.
         11    1    3    3    0    0 -0.18136882837E+01 -0.21169205581E+02  0.38462396340E+02  0.43940649319E+02  0.51100000000E-03 0.  1.
         22    1    1    0    0    0  0.36281865023E+01  0.27044123918E+02  0.12296693356E+02  0.29929200512E+02  0.00000000000E+00 0.  1.
</event>
<event>
 5    1  0.1717518E-003  0.9118800E+02  0.7818608E-02  0.1130116E+00
         25   -1    0    0    0    0  0.00000000000E+00  0.00000000000E+00  0.99999998245E-14  0.12500000000E+03  0.12500000000E+03 0.  0.
        -11    1    3    3    0    0  0.13630980562E+02 -0.14982731598E+02  0.43009459468E+02  0.47540503586E+02  0.51100000000E-03 0.  1.
         23    2    1    0    0    0  0.13601978315E+02  0.22846898187E+02  0.18103506874E+02  0.92832756848E+02  0.87081509013E+02 0.  0.
         11    1    3    3    0    0 -0.29002247237E-01  0.37829629785E+02 -0.24905952593E+02  0.45292253263E+02  0.51100000000E-03 0. -1.
         22    1    1    0    0    0 -0.13601978315E+02 -0.22846898187E+02 -0.18103506874E+02  0.32167243152E+02  0.00000000000E+00 0.  1.
</event>
<event>
 5    1  0.1717518E-003  0.9118800E+02  0.7818608E-02  0.1130116E+00
         25   -1    0    0    0    0  0.00000000000E+00  0.00000000000E+00  0.99999998245E-14  0.12500000000E+03  0.12500000000E+03 0.  0.
        -11    1    3    3    0    0  0.31664999272E+02  0.14073191605E+01 -0.21451215643E+02  0.38272802078E+02  0.51100000000E-03 0. -1.
         23    2    1    0    0    0 -0.10586739329E+02 -0.29170205447E+02 -0.13993875394E+02  0.90958723820E+02  0.84348568185E+02 0.  0.
         11    1    3    3    0    0 -0.42251738600E+02 -0.30577524608E+02  0.74573402490E+01  0.52685921741E+02  0.51100000000E-03 0.  1.
         22    1    1    0    0    0  0.10586739329E+02  0.29170205447E+02  0.13993875394E+02  0.34041276180E+02  0.00000000000E+00 0.  1.
</event>
<event>
 5    1  0.1717518E-003  0.9118800E+02  0.7818608E-02  0.1130116E+00
         25   -1    0    0    0    0  0.00000000000E+00  0.00000000000E+00  0.99999998245E-14  0.12500000000E+03  0.12500000000E+03 0.  0.
        -11    1    3    3    0    0  0.48283401639E+02 -0.31587374440E+02 -0.26948620254E-01  0.57697918717E+02  0.51100000000E-03 0. -1.
         23    2    1    0    0    0  0.10547772471E+02 -0.26649515161E+02 -0.43908503721E+01  0.96004625724E+02  0.91521344128E+02 0.  0.
         11    1    3    3    0    0 -0.37735629168E+02  0.49378592787E+01 -0.43639017518E+01  0.38306707007E+02  0.51100000000E-03 0.  1.
         22    1    1    0    0    0 -0.10547772471E+02  0.26649515161E+02  0.43908503721E+01  0.28995374276E+02  0.00000000000E+00 0. -1.
</event>
<event>
 5    1  0.1717518E-003  0.9118800E+02  0.7818608E-02  0.1130116E+00
         25   -1    0    0    0    0  0.00000000000E+00  0.00000000000E+00  0.99999998245E-14  0.12500000000E+03  0.12500000000E+03 0.  0.
        -11    1    3    3    0    0  0.11097337166E+02 -0.73806584623E+01 -0.32911097708E+02  0.35507257908E+02  0.51100000000E-03 0.  1.
         23    2    1    0    0    0 -0.21528804257E+02 -0.53374996827E+01  0.18287861058E+02  0.96252405706E+02  0.91859139047E+02 0.  0.
         11    1    3    3    0    0 -0.32626141424E+02  0.20431587796E+01  0.51198958766E+02  0.60745147798E+02  0.51100000000E-03 0. -1.
         22    1    1    0    0    0  0.21528804257E+02  0.53374996827E+01 -0.18287861058E+02  0.28747594294E+02  0.00000000000E+00 0. -1.
</event>
<event>
 5    1  0.1717518E-003  0.9118800E+02  0.7818608E-02  0.1130116E+00
         25   -1    0    0    0    0  0.00000000000E+00  0.00000000000E+00  0.99999998245E-14  0.12500000000E+03  0.12500000000E+03 0.  0.
        -11    1    3    3    0    0  0.35909641787E+02  0.17594473011E+02 -0.13799345277E+02  0.42302361449E+02  0.51100000000E-03 0. -1.
         23    2    1    0    0    0  0.11902975238E+02 -0.75800213875E+01  0.26156770502E+02  0.95279397939E+02  0.90525407952E+02 0.  0.
         11    1    3    3    0    0 -0.24006666549E+02 -0.25174494398E+02  0.39956115778E+02  0.52977036491E+02  0.51100000000E-03 0.  1.
         22    1    1    0    0    0 -0.11902975238E+02  0.75800213875E+01 -0.26156770502E+02  0.29720602061E+02  0.00000000000E+00 0.  1.
</event>
<event>
 5    1  0.1717518E-003  0.9118800E+02  0.7818608E-02  0.1130116E+00
         25   -1    0    0    0    0  0.00000000000E+00  0.00000000000E+00  0.99999998245E-14  0.12500000000E+03  0.12500000000E+03 0.  0.
        -11    1    3    3    0    0  0.42856909719E+01  0.53496791756E+02  0.16546514800E+02  0.56161027658E+02  0.51100000000E-03 0.  1.
         23    2    1    0    0    0 -0.10795636590E+02  0.25599676943E+02 -0.78015079070E+01  0.96142544211E+02  0.91709519968E+02 0.  0.
         11    1    3    3    0    0 -0.15081327562E+02 -0.27897114813E+02 -0.24348022707E+02  0.39981516553E+02  0.51100000000E-03 0. -1.
         22    1    1    0    0    0  0.10795636590E+02 -0.25599676943E+02  0.78015079070E+01  0.28857455789E+02  0.00000000000E+00 0.  1.
</event>
<event>
 5    1  0.1717518E-003  0.9118800E+02  0.7818608E-02  0.1130116E+00
         25   -1    0    0    0    0  0.00000000000E+00  0.00000000000E+00  0.99999998245E-14  0.12500000000E+03  0.12500000000E+03 0.  0.
        -11    1    3    3    0    0 -0.30113458136E+02  0.41226256000E+02 -0.23627014136E+02  0.56255313899E+02  0.51100000000E-03 0.  1.
         23    2    1    0    0    0 -0.24360966652E+02  0.14602540217E+02  0.54306114099E+01  0.96083181065E+02  0.91628572325E+02 0.  0.
         11    1    3    3    0    0  0.57524914836E+01 -0.26623715783E+02  0.29057625545E+02  0.39827867166E+02  0.51100000000E-03 0. -1.
         22    1    1    0    0    0  0.24360966652E+02 -0.14602540217E+02 -0.54306114099E+01  0.28916818935E+02  0.00000000000E+00 0.  1.
</event>
<event>
 5    1  0.1717518E-003  0.9118800E+02  0.7818608E-02  0.1130116E+00
         25   -1    0    0    0    0  0.00000000000E+00  0.00000000000E+00  0.99999998245E-14  0.12500000000E+03  0.12500000000E+03 0.  0.
        -11    1    3    3    0    0  0.46649324786E+01 -0.34020268233E+02  0.23861944615E+02  0.41815459423E+02  0.51100000000E-03 0. -1.
         23    2    1    0    0    0 -0.28225022337E+02  0.43292976494E+01  0.37225655628E+01  0.96203260628E+02  0.91792239090E+02 0.  0.
         11    1    3    3    0    0 -0.32889954816E+02  0.38349565882E+02 -0.20139379052E+02  0.54387801206E+02  0.51100000000E-03 0.  1.
         22    1    1    0    0    0  0.28225022337E+02 -0.43292976494E+01 -0.37225655628E+01  0.28796739372E+02  0.00000000000E+00 0.  1.
</event>
<event>
 5    1  0.1717518E-003  0.9118800E+02  0.7818608E-02  0.1130116E+00
         25   -1    0    0    0    0  0.00000000000E+00  0.00000000000E+00  0.99999998245E-14  0.12500000000E+03  0.12500000000E+03 0.  0.
        -11    1    3    3    0    0  0.10484056613E+02  0.42846959978E+02 -0.40672092400E+02  0.59999971024E+02  0.51100000000E-03 0. -1.
         23    2    1    0    0    0 -0.34059353366E+01  0.32802173343E+02 -0.21946837222E+02  0.85386282230E+02  0.75641063963E+02 0.  0.
         11    1    3    3    0    0 -0.13889991950E+02 -0.10044786635E+02  0.18725255178E+02  0.25386311206E+02  0.51100000000E-03 0.  1.
         22    1    1    0    0    0  0.34059353366E+01 -0.32802173343E+02  0.21946837222E+02  0.39613717770E+02  0.00000000000E+00 0. -1.
</event>
<event>
 5    1  0.1717518E-003  0.9118800E+02  0.7818608E-02  0.1130116E+00
         25   -1    0    0    0    0  0.00000000000E+00  0.00000000000E+00  0.99999998245E-14  0.12500000000E+03  0.12500000000E+03 0.  0.
        -11    1    3    3    0    0 -0.58868264356E+02  0.10738998641E+01 -0.59819541148E+01  0.59181159033E+02  0.51100000000E-03 0. -1.
         23    2    1    0    0    0 -0.25057778407E+02  0.12892930909E+02  0.44143336932E+01  0.96476215748E+02  0.92163191877E+02 0.  0.
         11    1    3    3    0    0  0.33810485948E+02  0.11819031045E+02  0.10396287808E+02  0.37295056715E+02  0.51100000000E-03 0.  1.
         22    1    1    0    0    0  0.25057778407E+02 -0.12892930909E+02 -0.44143336932E+01  0.28523784252E+02  0.00000000000E+00 0. -1.
</event>
<event>
 5    1  0.1717518E-003  0.9118800E+02  0.7818608E-02  0.1130116E+00
         25   -1    0    0    0    0  0.00000000000E+00  0.00000000000E+00  0.99999998245E-14  0.12500000000E+03  0.12500000000E+03 0.  0.
        -11    1    3    3    0    0  0.73301036313E+01  0.30204265855E+02 -0.33475559492E+02  0.45679767717E+02  0.51100000000E-03 0.  1.
         23    2    1    0    0    0  0.12767388229E+02 -0.15026003886E+02 -0.26808774711E+02  0.91720916532E+02  0.85470633161E+02 0.  0.
         11    1    3    3    0    0  0.54372845973E+01 -0.45230269741E+02  0.66667847811E+01  0.46041148815E+02  0.51100000000E-03 0. -1.
         22    1    1    0    0    0 -0.12767388229E+02  0.15026003886E+02  0.26808774711E+02  0.33279083468E+02  0.00000000000E+00 0. -1.
</event>
<event>
 5    1  0.1717518E-003  0.9118800E+02  0.7818608E-02  0.1130116E+00
         25   -1    0    0    0    0  0.00000000000E+00  0.00000000000E+00  0.99999998245E-14  0.12500000000E+03  0.12500000000E+03 0.  0.
        -11    1    3    3    0    0  0.13984164380E+02  0.33178725947E+02 -0.69280991800E+01  0.36665832425E+02  0.51100000000E-03 0.  1.
         23    2    1    0    0    0  0.12629832520E+02 -0.25978005124E+02 -0.18593086778E+01  0.96054768122E+02  0.91589803092E+02 0.  0.
         11    1    3    3    0    0 -0.13543318595E+01 -0.59156731071E+02  0.50687905022E+01  0.59388935697E+02  0.51100000000E-03 0. -1.
         22    1    1    0    0    0 -0.12629832520E+02  0.25978005124E+02  0.18593086778E+01  0.28945231878E+02  0.00000000000E+00 0. -1.
</event>
<event>
 5    1  0.1717518E-003  0.9118800E+02  0.7818608E-02  0.1130116E+00
         25   -1    0    0    0    0  0.00000000000E+00  0.00000000000E+00  0.99999998245E-14  0.12500000000E+03  0.12500000000E+03 0.  0.
        -11    1    3    3    0    0 -0.13156166918E+02  0.25463622383E+02 -0.33385952334E+02  0.44001165966E+02  0.51100000000E-03 0.  1.
         23    2    1    0    0    0  0.25522843390E+02 -0.30535864102E+01 -0.10396777228E+02  0.97272163781E+02  0.93236478619E+02 0.  0.
         11    1    3    3    0    0  0.38679010308E+02 -0.28517208793E+02  0.22989175107E+02  0.53270997815E+02  0.51100000000E-03 0. -1.
         22    1    1    0    0    0 -0.25522843390E+02  0.30535864102E+01  0.10396777228E+02  0.27727836219E+02  0.00000000000E+00 0. -1.
</event>
<event>
 5    1  0.1717518E-003  0.9118800E+02  0.7818608E-02  0.1130116E+00
         25   -1    0    0    0    0  0.00000000000E+00  0.00000000000E+00  0.99999998245E-14  0.12500000000E+03  0.12500000000E+03 0.  0.
        -11    1    3    3    0    0  0.27976230596E+02 -0.44055447084E+02 -0.15803267868E+02  0.54527930198E+02  0.51100000000E-03 0. -1.
         23    2    1    0    0    0  0.13194207290E+02 -0.90492077972E+01 -0.26536113921E+02  0.94013864233E+02  0.88760723624E+02 0.  0.
         11    1    3    3    0    0 -0.14782023306E+02  0.35006239286E+02 -0.10732846053E+02  0.39485934035E+02  0.51100000000E-03 0.  1.
         22    1    1    0    0    0 -0.13194207290E+02  0.90492077972E+01  0.26536113921E+02  0.30986135767E+02  0.00000000000E+00 0.  1.
</event>
<event>
 5    1  0.1717518E-003  0.9118800E+02  0.7818608E-02  0.1130116E+00
         25   -1    0    0    0    0  0.00000000000E+00  0.00000000000E+00  0.99999998245E-14  0.12500000000E+03  0.12500000000E+03 0.  0.
        -11    1    3    3    0    0  0.13601181387E+02  0.16379463291E+02  0.28889595256E+02  0.35887151840E+02  0.51100000000E-03 0. -1.
         23    2    1    0    0    0 -0.13626607212E+02 -0.18695337020E+02 -0.14277593574E+02  0.97814530928E+02  0.93960804232E+02 0.  0.
         11    1    3    3    0    0 -0.27227788600E+02 -0.35074800312E+02 -0.43167188830E+02  0.61927379088E+02  0.51100000000E-03 0.  1.
         22    1    1    0    0    0  0.13626607212E+02  0.18695337020E+02  0.14277593574E+02  0.27185469072E+02  0.00000000000E+00 0.  1.
</event>
<event>
 5    1  0.1717518E-003  0.9118800E+02  0.7818608E-02  0.1130116E+00
         25   -1    0    0    0    0  0.00000000000E+00  0.00000000000E+00  0.99999998245E-14  0.12500000000E+03  0.12500000000E+03 0.  0.
        -11    1    3    3    0    0 -0.32272986668E+02  0.91534669469E+01 -0.46192540575E+01  0.33862503362E+02  0.51100000000E-03 0.  1.
         23    2    1    0    0    0  0.18851018174E+02 -0.10149087117E+02  0.21699493901E+02  0.94516678477E+02  0.89466024944E+02 0.  0.
         11    1    3    3    0    0  0.51124004843E+02 -0.19302554064E+02  0.26318747958E+02  0.60654175115E+02  0.51100000000E-03 0. -1.
         22    1    1    0    0    0 -0.18851018174E+02  0.10149087117E+02 -0.21699493901E+02  0.30483321523E+02  0.00000000000E+00 0. -1.
</event>
<event>
 5    1  0.1717518E-003  0.9118800E+02  0.7818608E-02  0.1130116E+00
         25   -1    0    0    0    0  0.00000000000E+00  0.00000000000E+00  0.99999998245E-14  0.12500000000E+03  0.12500000000E+03 0.  0.
        -11    1    3    3    0    0  0.42661156199E+02 -0.55018492958E+01  0.11833901441E+02  0.44612619487E+02  0.51100000000E-03 0.  1.
         23    2    1    0    0    0  0.63466371732E+01  0.27573471787E+02 -0.44432473364E+01  0.96358795474E+02  0.92003798120E+02 0.  0.
         11    1    3    3    0    0 -0.36314519025E+02  0.33075321083E+02 -0.16277148777E+02  0.51746175988E+02  0.51100000000E-03 0. -1.
         22    1    1    0    0    0 -0.63466371732E+01 -0.27573471787E+02  0.44432473364E+01  0.28641204526E+02  0.00000000000E+00 0.  1.
</event>
<event>
 5    1  0.1717518E-003  0.9118800E+02  0.7818608E-02  0.1130116E+00
         25   -1    0    0    0    0  0.00000000000E+00  0.00000000000E+00  0.99999998245E-14  0.12500000000E+03  0.12500000000E+03 0.  0.
        -11    1    3    3    0    0  0.31898972452E+02  0.51858662950E+01  0.22036224723E+02  0.39115634381E+02  0.51100000000E-03 0. -1.
         23    2    1    0    0    0  0.22443940124E+01 -0.12120619713E+02 -0.24868292173E+02  0.97244303606E+02  0.93199119639E+02 0.  0.
         11    1    3    3    0    0 -0.29654578439E+02 -0.17306486008E+02 -0.46904516896E+02  0.58128669225E+02  0.51100000000E-03 0.  1.
         22    1    1    0    0    0 -0.22443940124E+01  0.12120619713E+02  0.24868292173E+02  0.27755696394E+02  0.00000000000E+00 0.  1.
</event>
<event>
 5    1  0.1717518E-003  0.9118800E+02  0.7818608E-02  0.1130116E+00
         25   -1    0    0    0    0  0.00000000000E+00  0.00000000000E+00  0.99999998245E-14  0.12500000000E+03  0.12500000000E+03 0.  0.
        -11    1    3    3    0    0  0.12930886165E+02 -0.19650743245E+02  0.25222091134E+02  0.34489323109E+02  0.51100000000E-03 0. -1.
         23    2    1    0    0    0 -0.13240489021E+02  0.36269845019E-01 -0.26309354470E+02  0.95546748946E+02  0.90893823974E+02 0.  0.
         11    1    3    3    0    0 -0.26171375186E+02  0.19687013090E+02 -0.51531445604E+02  0.61057425837E+02  0.51100000000E-03 0.  1.
         22    1    1    0    0    0  0.13240489021E+02 -0.36269845019E-01  0.26309354470E+02  0.29453251054E+02  0.00000000000E+00 0.  1.
</event>
<event>
 5    1  0.1717518E-003  0.9118800E+02  0.7818608E-02  0.1130116E+00
         25   -1    0    0    0    0  0.00000000000E+00  0.00000000000E+00  0.99999998245E-14  0.12500000000E+03  0.12500000000E+03 0.  0.
        -11    1    3    3    0    0  0.17297920117E+02 -0.49506661374E+02 -0.69766699070E+01  0.52903700098E+02  0.51100000000E-03 0. -1.
         23    2    1    0    0    0 -0.38482377357E+01 -0.16370049728E+02 -0.23962538858E+02  0.95725595988E+02  0.91139448084E+02 0.  0.
         11    1    3    3    0    0 -0.21146157853E+02  0.33136611647E+02 -0.16985868951E+02  0.42821895890E+02  0.51100000000E-03 0.  1.
         22    1    1    0    0    0  0.38482377357E+01  0.16370049728E+02  0.23962538858E+02  0.29274404012E+02  0.00000000000E+00 0. -1.
</event>
<event>
 5    1  0.1717518E-003  0.9118800E+02  0.7818608E-02  0.1130116E+00
         25   -1    0    0    0    0  0.00000000000E+00  0.00000000000E+00  0.99999998245E-14  0.12500000000E+03  0.12500000000E+03 0.  0.
        -11    1    3    3    0    0 -0.24122107599E+02 -0.30723687652E+02  0.46412265279E+02  0.60662339441E+02  0.51100000000E-03 0. -1.
         23    2    1    0    0    0 -0.18582344656E+02 -0.65067880293E+01  0.21591894646E+02  0.95779258432E+02  0.91213017755E+02 0.  0.
         11    1    3    3    0    0  0.55397629428E+01  0.24216899622E+02 -0.24820370633E+02  0.35116918991E+02  0.51100000000E-03 0.  1.
         22    1    1    0    0    0  0.18582344656E+02  0.65067880293E+01 -0.21591894646E+02  0.29220741568E+02  0.00000000000E+00 0. -1.
</event>
<event>
 5    1  0.1717518E-003  0.9118800E+02  0.7818608E-02  0.1130116E+00
         25   -1    0    0    0    0  0.00000000000E+00  0.00000000000E+00  0.99999998245E-14  0.12500000000E+03  0.12500000000E+03 0.  0.
        -11    1    3    3    0    0 -0.43888348404E+02 -0.36838076701E+02  0.16166886209E+02  0.59536536939E+02  0.51100000000E-03 0.  1.
         23    2    1    0    0    0 -0.27095819558E+02 -0.77336745699E+01  0.64689987426E-02  0.96822115024E+02  0.92631143554E+02 0.  0.
         11    1    3    3    0    0  0.16792528847E+02  0.29104402131E+02 -0.16160417211E+02  0.37285578085E+02  0.51100000000E-03 0. -1.
         22    1    1    0    0    0  0.27095819558E+02  0.77336745699E+01 -0.64689987426E-02  0.28177884976E+02  0.00000000000E+00 0.  1.
</event>
<event>
 5    1  0.1717518E-003  0.9118800E+02  0.7818608E-02  0.1130116E+00
         25   -1    0    0    0    0  0.00000000000E+00  0.00000000000E+00  0.99999998245E-14  0.12500000000E+03  0.12500000000E+03 0.  0.
        -11    1    3    3    0    0  0.35944765405E+00  0.31849940091E+02  0.11588757416E+02  0.33894648326E+02  0.51100000000E-03 0. -1.
         23    2    1    0    0    0 -0.10369368919E+02 -0.27294763761E+02 -0.26932351340E+01  0.95677969783E+02  0.91074104145E+02 0.  0.
         11    1    3    3    0    0 -0.10728816573E+02 -0.59144703852E+02 -0.14281992550E+02  0.61783321457E+02  0.51100000000E-03 0.  1.
         22    1    1    0    0    0  0.10369368919E+02  0.27294763761E+02  0.26932351340E+01  0.29322030217E+02  0.00000000000E+00 0.  1.
</event>
<event>
 5    1  0.1717518E-003  0.9118800E+02  0.7818608E-02  0.1130116E+00
         25   -1    0    0    0    0  0.00000000000E+00  0.00000000000E+00  0.99999998245E-14  0.12500000000E+03  0.12500000000E+03 0.  0.
        -11    1    3    3    0    0  0.22663597895E+02  0.30923100503E+02 -0.14692857159E+02  0.41057969580E+02  0.51100000000E-03 0.  1.
         23    2    1    0    0    0  0.20134826932E+02 -0.21902772079E+02 -0.58655912499E+01  0.94675952760E+02  0.89688283460E+02 0.  0.
         11    1    3    3    0    0 -0.25287709634E+01 -0.52825872582E+02  0.88272659091E+01  0.53617983180E+02  0.51100000000E-03 0. -1.
         22    1    1    0    0    0 -0.20134826932E+02  0.21902772079E+02  0.58655912499E+01  0.30324047240E+02  0.00000000000E+00 0. -1.
</event>
<event>
 5    1  0.1717518E-003  0.9118800E+02  0.7818608E-02  0.1130116E+00
         25   -1    0    0    0    0  0.00000000000E+00  0.00000000000E+00  0.99999998245E-14  0.12500000000E+03  0.12500000000E+03 0.  0.
        -11    1    3    3    0    0 -0.15536976264E+01  0.60986083645E+02 -0.69212605897E+00  0.61009797684E+02  0.51100000000E-03 0. -1.
         23    2    1    0    0    0 -0.79200625426E+01  0.26803695661E+02  0.59893418690E+01  0.96416128538E+02  0.92081660142E+02 0.  0.
         11    1    3    3    0    0 -0.63663649162E+01 -0.34182387985E+02  0.66814679280E+01  0.35406330854E+02  0.51100000000E-03 0.  1.
         22    1    1    0    0    0  0.79200625426E+01 -0.26803695661E+02 -0.59893418690E+01  0.28583871462E+02  0.00000000000E+00 0. -1.
</event>
<event>
 5    1  0.1717518E-003  0.9118800E+02  0.7818608E-02  0.1130116E+00
         25   -1    0    0    0    0  0.00000000000E+00  0.00000000000E+00  0.99999998245E-14  0.12500000000E+03  0.12500000000E+03 0.  0.
        -11    1    3    3    0    0  0.35698868427E+01 -0.13236041355E+02  0.59505881944E+02  0.61064612248E+02  0.51100000000E-03 0. -1.
         23    2    1    0    0    0  0.87403783411E+01  0.31643388715E+00  0.25753902389E+02  0.97801510480E+02  0.93943480987E+02 0.  0.
         11    1    3    3    0    0  0.51704914984E+01  0.13552475242E+02 -0.33751979555E+02  0.36736898232E+02  0.51100000000E-03 0.  1.
         22    1    1    0    0    0 -0.87403783411E+01 -0.31643388715E+00 -0.25753902389E+02  0.27198489520E+02  0.00000000000E+00 0. -1.
</event>
<event>
 5    1  0.1717518E-003  0.9118800E+02  0.7818608E-02  0.1130116E+00
         25   -1    0    0    0    0  0.00000000000E+00  0.00000000000E+00  0.99999998245E-14  0.12500000000E+03  0.12500000000E+03 0.  0.
        -11    1    3    3    0    0 -0.18605708464E+02  0.29892616822E+02 -0.42774184821E+02  0.55401911657E+02  0.51100000000E-03 0.  1.
         23    2    1    0    0    0 -0.49576364680E+01 -0.51419870268E+01 -0.28498670893E+02  0.95619863298E+02  0.90994317540E+02 0.  0.
         11    1    3    3    0    0  0.13648071996E+02 -0.35034603848E+02  0.14275513928E+02  0.40217951641E+02  0.51100000000E-03 0. -1.
         22    1    1    0    0    0  0.49576364680E+01  0.51419870268E+01  0.28498670893E+02  0.29380136702E+02  0.00000000000E+00 0.  1.
</event>
<event>
 5    1  0.1717518E-003  0.9118800E+02  0.7818608E-02  0.1130116E+00
         25   -1    0    0    0    0  0.00000000000E+00  0.00000000000E+00  0.99999998245E-14  0.12500000000E+03  0.12500000000E+03 0.  0.
        -11    1    3    3    0    0 -0.12623329189E+02  0.25936031984E+02 -0.46144692757E+02  0.54418368818E+02  0.51100000000E-03 0.  1.
         23    2    1    0    0    0 -0.19018249382E+02  0.21826363164E+02 -0.57973562513E+01  0.95475547794E+02  0.90795853146E+02 0.  0.
         11    1    3    3    0    0 -0.63949201932E+01 -0.41096688202E+01  0.40347336506E+02  0.41057178976E+02  0.51100000000E-03 0. -1.
         22    1    1    0    0    0  0.19018249382E+02 -0.21826363164E+02  0.57973562513E+01  0.29524452206E+02  0.00000000000E+00 0.  1.
</event>
<event>
 5    1  0.1717518E-003  0.9118800E+02  0.7818608E-02  0.1130116E+00
         25   -1    0    0    0    0  0.00000000000E+00  0.00000000000E+00  0.99999998245E-14  0.12500000000E+03  0.12500000000E+03 0.  0.
        -11    1    3    3    0    0  0.39629747786E+02  0.30899407596E+02  0.27084337205E+01  0.50325201568E+02  0.51100000000E-03 0. -1.
         23    2    1    0    0    0 -0.33195878314E+01  0.26273655198E+02 -0.11955336729E+02  0.95943938720E+02  0.91438420152E+02 0.  0.
         11    1    3    3    0    0 -0.42949335618E+02 -0.46257523981E+01 -0.14663770449E+02  0.45618737151E+02  0.51100000000E-03 0.  1.
         22    1    1    0    0    0  0.33195878314E+01 -0.26273655198E+02  0.11955336729E+02  0.29056061280E+02  0.00000000000E+00 0. -1.
</event>
<event>
 5    1  0.1717518E-003  0.9118800E+02  0.7818608E-02  0.1130116E+00
         25   -1    0    0    0    0  0.00000000000E+00  0.00000000000E+00  0.99999998245E-14  0.12500000000E+03  0.12500000000E+03 0.  0.
        -11    1    3    3    0    0  0.29308850153E+02 -0.12177293031E+02  0.20804372835E+02  0.37948874716E+02  0.51100000000E-03 0.  1.
         23    2    1    0    0    0 -0.19509696258E+02  0.40820663355E+01 -0.14500621258E+02  0.10035127730E+03  0.97277023629E+02 0.  0.
         11    1    3    3    0    0 -0.48818546411E+02  0.16259359367E+02 -0.35304994093E+02  0.62402402589E+02  0.51100000000E-03 0. -1.
         22    1    1    0    0    0  0.19509696258E+02 -0.40820663355E+01  0.14500621258E+02  0.24648722695E+02  0.00000000000E+00 0. -1.
</event>
<event>
 5    1  0.1717518E-003  0.9118800E+02  0.7818608E-02  0.1130116E+00
         25   -1    0    0    0    0  0.00000000000E+00  0.00000000000E+00  0.99999998245E-14  0.12500000000E+03  0.12500000000E+03 0.  0.
        -11    1    3    3    0    0  0.49270552250E+01  0.15796038666E+02  0.36263173595E+02  0.39859860389E+02  0.51100000000E-03 0.  1.
         23    2    1    0    0    0 -0.24331024356E+02 -0.16436368428E+02  0.14462418577E+01  0.95601963181E+02  0.90969724608E+02 0.  0.
         11    1    3    3    0    0 -0.29258079581E+02 -0.32232407094E+02 -0.34816931738E+02  0.55742102792E+02  0.51100000000E-03 0. -1.
         22    1    1    0    0    0  0.24331024356E+02  0.16436368428E+02 -0.14462418577E+01  0.29398036819E+02  0.00000000000E+00 0. -1.
</event>
<event>
 5    1  0.1717518E-003  0.9118800E+02  0.7818608E-02  0.1130116E+00
         25   -1    0    0    0    0  0.00000000000E+00  0.00000000000E+00  0.99999998245E-14  0.12500000000E+03  0.12500000000E+03 0.  0.
        -11    1    3    3    0    0 -0.44381065812E+00 -0.36306694398E+02  0.41662468943E+02  0.55264223008E+02  0.51100000000E-03 0.  1.
         23    2    1    0    0    0 -0.47666183575E+01 -0.29116841940E+02  0.24165633309E+01  0.95396775286E+02  0.90687341022E+02 0.  0.
         11    1    3    3    0    0 -0.43228076994E+01  0.71898524586E+01 -0.39245905612E+02  0.40132552278E+02  0.51100000000E-03 0. -1.
         22    1    1    0    0    0  0.47666183575E+01  0.29116841940E+02 -0.24165633309E+01  0.29603224714E+02  0.00000000000E+00 0.  1.
</event>
<event>
 5    1  0.1717518E-003  0.9118800E+02  0.7818608E-02  0.1130116E+00
         25   -1    0    0    0    0  0.00000000000E+00  0.00000000000E+00  0.99999998245E-14  0.12500000000E+03  0.12500000000E+03 0.  0.
        -11    1    3    3    0    0  0.11102480061E+01  0.41012435481E+02  0.88718235741E+01  0.41975728326E+02  0.51100000000E-03 0.  1.
         23    2    1    0    0    0 -0.27365466255E+02 -0.51799990392E+01  0.70482214994E+01  0.96270597645E+02  0.91883890923E+02 0.  0.
         11    1    3    3    0    0 -0.28475714261E+02 -0.46192434520E+02 -0.18236020747E+01  0.54294869319E+02  0.51100000000E-03 0. -1.
         22    1    1    0    0    0  0.27365466255E+02  0.51799990392E+01 -0.70482214994E+01  0.28729402355E+02  0.00000000000E+00 0. -1.
</event>
<event>
 5    1  0.1717518E-003  0.9118800E+02  0.7818608E-02  0.1130116E+00
         25   -1    0    0    0    0  0.00000000000E+00  0.00000000000E+00  0.99999998245E-14  0.12500000000E+03  0.12500000000E+03 0.  0.
        -11    1    3    3    0    0  0.32726897229E+02 -0.37210142812E+01  0.20892355707E+02  0.39004951952E+02  0.51100000000E-03 0.  1.
         23    2    1    0    0    0  0.11756762948E+02  0.10407365968E+02 -0.27344971397E+02  0.93467759323E+02  0.87988293714E+02 0.  0.
         11    1    3    3    0    0 -0.20970134281E+02  0.14128380249E+02 -0.48237327104E+02  0.54462807371E+02  0.51100000000E-03 0. -1.
         22    1    1    0    0    0 -0.11756762948E+02 -0.10407365968E+02  0.27344971397E+02  0.31532240677E+02  0.00000000000E+00 0.  1.
</event>
<event>
 5    1  0.1717518E-003  0.9118800E+02  0.7818608E-02  0.1130116E+00
         25   -1    0    0    0    0  0.00000000000E+00  0.00000000000E+00  0.99999998245E-14  0.12500000000E+03  0.12500000000E+03 0.  0.
        -11    1    3    3    0    0  0.13840738141E+02  0.18897758625E+02 -0.47862326532E+02  0.53286899091E+02  0.51100000000E-03 0.  1.
         23    2    1    0    0    0 -0.10015133591E+02  0.23663224311E+02 -0.11953560539E+02  0.96660298251E+02  0.92412523842E+02 0.  0.
         11    1    3    3    0    0 -0.23855871733E+02  0.47654656862E+01  0.35908765993E+02  0.43373399160E+02  0.51100000000E-03 0. -1.
         22    1    1    0    0    0  0.10015133591E+02 -0.23663224311E+02  0.11953560539E+02  0.28339701749E+02  0.00000000000E+00 0.  1.
</event>
<event>
 5    1  0.1717518E-003  0.9118800E+02  0.7818608E-02  0.1130116E+00
         25   -1    0    0    0    0  0.00000000000E+00  0.00000000000E+00  0.99999998245E-14  0.12500000000E+03  0.12500000000E+03 0.  0.
        -11    1    3    3    0    0  0.43056421683E+02  0.10549999468E+02  0.63734333900E+01  0.44785919554E+02  0.51100000000E-03 0. -1.
         23    2    1    0    0    0 -0.17208503509E+01  0.15705942327E+02 -0.21901924118E+02  0.97993848287E+02  0.94199055577E+02 0.  0.
         11    1    3    3    0    0 -0.44777272034E+02  0.51559428586E+01 -0.28275357508E+02  0.53207928732E+02  0.51100000000E-03 0.  1.
         22    1    1    0    0    0  0.17208503509E+01 -0.15705942327E+02  0.21901924118E+02  0.27006151713E+02  0.00000000000E+00 0.  1.
</event>
<event>
 5    1  0.1717518E-003  0.9118800E+02  0.7818608E-02  0.1130116E+00
         25   -1    0    0    0    0  0.00000000000E+00  0.00000000000E+00  0.99999998245E-14  0.12500000000E+03  0.12500000000E+03 0.  0.
        -11    1    3    3    0    0 -0.25625364849E+02 -0.42701162115E+01 -0.28092798276E+02  0.38263540496E+02  0.51100000000E-03 0.  1.
         23    2    1    0    0    0  0.13502480375E+02 -0.26146458728E+02  0.64715499629E+01  0.94869695667E+02  0.89957900802E+02 0.  0.
         11    1    3    3    0    0  0.39127845224E+02 -0.21876342516E+02  0.34564348238E+02  0.56606155171E+02  0.51100000000E-03 0. -1.
         22    1    1    0    0    0 -0.13502480375E+02  0.26146458728E+02 -0.64715499629E+01  0.30130304333E+02  0.00000000000E+00 0. -1.
</event>
<event>
 5    1  0.1717518E-003  0.9118800E+02  0.7818608E-02  0.1130116E+00
         25   -1    0    0    0    0  0.00000000000E+00  0.00000000000E+00  0.99999998245E-14  0.12500000000E+03  0.12500000000E+03 0.  0.
        -11    1    3    3    0    0 -0.31678363720E+02  0.24484602667E+02  0.22225437581E+02  0.45792844110E+02  0.51100000000E-03 0.  1.
         23    2    1    0    0    0 -0.53200322674E+00  0.18846539069E+02 -0.19308517270E+02  0.98013079067E+02  0.94224570929E+02 0.  0.
         11    1    3    3    0    0  0.31146360494E+02 -0.56380635985E+01 -0.41533954851E+02  0.52220234957E+02  0.51100000000E-03 0. -1.
         22    1    1    0    0    0  0.53200322674E+00 -0.18846539069E+02  0.19308517270E+02  0.26986920933E+02  0.00000000000E+00 0. -1.
</event>
<event>
 5    1  0.1717518E-003  0.9118800E+02  0.7818608E-02  0.1130116E+00
         25   -1    0    0    0    0  0.00000000000E+00  0.00000000000E+00  0.99999998245E-14  0.12500000000E+03  0.12500000000E+03 0.  0.
        -11    1    3    3    0    0  0.62369342264E+01  0.29948670184E+02  0.24643474235E+02  0.39282604508E+02  0.51100000000E-03 0. -1.
         23    2    1    0    0    0  0.18161540742E+02  0.38322994516E+01 -0.23327723343E+02  0.95188747803E+02  0.90400149064E+02 0.  0.
         11    1    3    3    0    0  0.11924606515E+02 -0.26116370732E+02 -0.47971197578E+02  0.55906143295E+02  0.51100000000E-03 0.  1.
         22    1    1    0    0    0 -0.18161540742E+02 -0.38322994516E+01  0.23327723343E+02  0.29811252197E+02  0.00000000000E+00 0.  1.
</event>
<event>
 5    1  0.1717518E-003  0.9118800E+02  0.7818608E-02  0.1130116E+00
         25   -1    0    0    0    0  0.00000000000E+00  0.00000000000E+00  0.99999998245E-14  0.12500000000E+03  0.12500000000E+03 0.  0.
        -11    1    3    3    0    0  0.26505084074E+02  0.13182181493E+02  0.26697065613E+02  0.39862547626E+02  0.51100000000E-03 0.  1.
         23    2    1    0    0    0  0.15407867229E+02 -0.16914942935E+02 -0.18700474433E+02  0.95449612336E+02  0.90760140392E+02 0.  0.
         11    1    3    3    0    0 -0.11097216844E+02 -0.30097124429E+02 -0.45397540046E+02  0.55587064710E+02  0.51100000000E-03 0. -1.
         22    1    1    0    0    0 -0.15407867229E+02  0.16914942935E+02  0.18700474433E+02  0.29550387664E+02  0.00000000000E+00 0. -1.
</event>
<event>
 5    1  0.1717518E-003  0.9118800E+02  0.7818608E-02  0.1130116E+00
         25   -1    0    0    0    0  0.00000000000E+00  0.00000000000E+00  0.99999998245E-14  0.12500000000E+03  0.12500000000E+03 0.  0.
        -11    1    3    3    0    0  0.21727172710E+01  0.34160154621E+02 -0.21600256814E+01  0.34297267753E+02  0.51100000000E-03 0. -1.
         23    2    1    0    0    0 -0.10119745353E+02 -0.23058004930E+02  0.15504262617E+02  0.95428679491E+02  0.90731305913E+02 0.  0.
         11    1    3    3    0    0 -0.12292462624E+02 -0.57218159551E+02  0.17664288298E+02  0.61131411738E+02  0.51100000000E-03 0.  1.
         22    1    1    0    0    0  0.10119745353E+02  0.23058004930E+02 -0.15504262617E+02  0.29571320509E+02  0.00000000000E+00 0.  1.
</event>
<event>
 5    1  0.1717518E-003  0.9118800E+02  0.7818608E-02  0.1130116E+00
         25   -1    0    0    0    0  0.00000000000E+00  0.00000000000E+00  0.99999998245E-14  0.12500000000E+03  0.12500000000E+03 0.  0.
        -11    1    3    3    0    0 -0.40701915290E+02 -0.31977508447E+02  0.10183469848E+02  0.52753293861E+02  0.51100000000E-03 0.  1.
         23    2    1    0    0    0 -0.25554901966E+02  0.21370675388E+01 -0.12541944868E+02  0.96453188388E+02  0.92131954809E+02 0.  0.
         11    1    3    3    0    0  0.15147013324E+02  0.34114575986E+02 -0.22725414716E+02  0.43699894526E+02  0.51100000000E-03 0. -1.
         22    1    1    0    0    0  0.25554901966E+02 -0.21370675388E+01  0.12541944868E+02  0.28546811612E+02  0.00000000000E+00 0.  1.
</event>
<event>
 5    1  0.1717518E-003  0.9118800E+02  0.7818608E-02  0.1130116E+00
         25   -1    0    0    0    0  0.00000000000E+00  0.00000000000E+00  0.99999998245E-14  0.12500000000E+03  0.12500000000E+03 0.  0.
        -11    1    3    3    0    0 -0.90606115587E+01 -0.16600877607E+02  0.49446263145E+02  0.52939746490E+02  0.51100000000E-03 0.  1.
         23    2    1    0    0    0  0.16602205343E+00  0.13422150546E+02  0.35005286145E+02  0.87509311200E+02  0.79071662434E+02 0.  0.
         11    1    3    3    0    0  0.92266336121E+01  0.30023028153E+02 -0.14440977000E+02  0.34569564710E+02  0.51100000000E-03 0. -1.
         22    1    1    0    0    0 -0.16602205343E+00 -0.13422150546E+02 -0.35005286145E+02  0.37490688800E+02  0.00000000000E+00 0.  1.
</event>
<event>
 5    1  0.1717518E-003  0.9118800E+02  0.7818608E-02  0.1130116E+00
         25   -1    0    0    0    0  0.00000000000E+00  0.00000000000E+00  0.99999998245E-14  0.12500000000E+03  0.12500000000E+03 0.  0.
        -11    1    3    3    0    0  0.33678273690E+02 -0.34855350423E+02 -0.36166519228E+02  0.60474281187E+02  0.51100000000E-03 0. -1.
         23    2    1    0    0    0  0.24918578730E+02 -0.98084386321E+01 -0.15975023584E+02  0.93817594499E+02  0.88483889069E+02 0.  0.
         11    1    3    3    0    0 -0.87596949595E+01  0.25046911790E+02  0.20191495644E+02  0.33343313312E+02  0.51100000000E-03 0.  1.
         22    1    1    0    0    0 -0.24918578730E+02  0.98084386321E+01  0.15975023584E+02  0.31182405501E+02  0.00000000000E+00 0. -1.
</event>
<event>
 5    1  0.1717518E-003  0.9118800E+02  0.7818608E-02  0.1130116E+00
         25   -1    0    0    0    0  0.00000000000E+00  0.00000000000E+00  0.99999998245E-14  0.12500000000E+03  0.12500000000E+03 0.  0.
        -11    1    3    3    0    0 -0.79789661480E+01 -0.22561249629E+02  0.48663469177E+02  0.54229209087E+02  0.51100000000E-03 0. -1.
         23    2    1    0    0    0 -0.12874826576E+02 -0.24318106913E+02  0.64811879234E+01  0.96730983743E+02  0.92508085786E+02 0.  0.
         11    1    3    3    0    0 -0.48958604283E+01 -0.17568572844E+01 -0.42182281254E+02  0.42501774656E+02  0.51100000000E-03 0.  1.
         22    1    1    0    0    0  0.12874826576E+02  0.24318106913E+02 -0.64811879234E+01  0.28269016257E+02  0.00000000000E+00 0. -1.
</event>
<event>
 5    1  0.1717518E-003  0.9118800E+02  0.7818608E-02  0.1130116E+00
         25   -1    0    0    0    0  0.00000000000E+00  0.00000000000E+00  0.99999998245E-14  0.12500000000E+03  0.12500000000E+03 0.  0.
        -11    1    3    3    0    0 -0.28039538681E+02  0.25981777948E+02  0.25723970082E+02  0.46075928117E+02  0.51100000000E-03 0.  1.
         23    2    1    0    0    0 -0.16147616602E+02  0.93377317123E+01 -0.20898009323E+02  0.96988117716E+02  0.92854883711E+02 0.  0.
         11    1    3    3    0    0  0.11891922079E+02 -0.16644046236E+02 -0.46621979405E+02  0.50912189599E+02  0.51100000000E-03 0. -1.
         22    1    1    0    0    0  0.16147616602E+02 -0.93377317123E+01  0.20898009323E+02  0.28011882284E+02  0.00000000000E+00 0. -1.
</event>
<event>
 5    1  0.1717518E-003  0.9118800E+02  0.7818608E-02  0.1130116E+00
         25   -1    0    0    0    0  0.00000000000E+00  0.00000000000E+00  0.99999998245E-14  0.12500000000E+03  0.12500000000E+03 0.  0.
        -11    1    3    3    0    0  0.22448769037E+02  0.40551358596E+01  0.22875149212E+02  0.32305786011E+02  0.51100000000E-03 0.  1.
         23    2    1    0    0    0 -0.31457518508E+02  0.42377533030E+01 -0.47933846402E+01  0.92898433682E+02  0.87175732980E+02 0.  0.
         11    1    3    3    0    0 -0.53906287545E+02  0.18261744342E+00 -0.27668533852E+02  0.60592647671E+02  0.51100000000E-03 0. -1.
         22    1    1    0    0    0  0.31457518508E+02 -0.42377533030E+01  0.47933846402E+01  0.32101566318E+02  0.00000000000E+00 0. -1.
</event>
<event>
 5    1  0.1717518E-003  0.9118800E+02  0.7818608E-02  0.1130116E+00
         25   -1    0    0    0    0  0.00000000000E+00  0.00000000000E+00  0.99999998245E-14  0.12500000000E+03  0.12500000000E+03 0.  0.
        -11    1    3    3    0    0  0.17760171255E+02 -0.34840763554E+02  0.20614975059E+02  0.44207235663E+02  0.51100000000E-03 0. -1.
         23    2    1    0    0    0  0.28542802489E+02  0.46389799266E+01 -0.89890317379E+01  0.94717754372E+02  0.89746524128E+02 0.  0.
         11    1    3    3    0    0  0.10782631234E+02  0.39479743480E+02 -0.29604006797E+02  0.50510518709E+02  0.51100000000E-03 0.  1.
         22    1    1    0    0    0 -0.28542802489E+02 -0.46389799266E+01  0.89890317379E+01  0.30282245628E+02  0.00000000000E+00 0.  1.
</event>
<event>
 5    1  0.1717518E-003  0.9118800E+02  0.7818608E-02  0.1130116E+00
         25   -1    0    0    0    0  0.00000000000E+00  0.00000000000E+00  0.99999998245E-14  0.12500000000E+03  0.12500000000E+03 0.  0.
        -11    1    3    3    0    0 -0.34012638085E+01 -0.53864089723E+02  0.33787215938E+01  0.54077023929E+02  0.51100000000E-03 0.  1.
         23    2    1    0    0    0  0.20085598915E+02 -0.19635458768E+02 -0.51159234163E+01  0.96449077122E+02  0.92126376682E+02 0.  0.
         11    1    3    3    0    0  0.23486862723E+02  0.34228630955E+02 -0.84946450101E+01  0.42372053193E+02  0.51100000000E-03 0. -1.
         22    1    1    0    0    0 -0.20085598915E+02  0.19635458768E+02  0.51159234163E+01  0.28550922878E+02  0.00000000000E+00 0.  1.
</event>
<event>
 5    1  0.1717518E-003  0.9118800E+02  0.7818608E-02  0.1130116E+00
         25   -1    0    0    0    0  0.00000000000E+00  0.00000000000E+00  0.99999998245E-14  0.12500000000E+03  0.12500000000E+03 0.  0.
        -11    1    3    3    0    0 -0.15408561607E+02  0.43514691335E+02  0.33105851902E+02  0.56806245811E+02  0.51100000000E-03 0. -1.
         23    2    1    0    0    0 -0.37503871224E+01  0.56813812910E+01  0.27355114580E+02  0.96810537596E+02  0.92615519212E+02 0.  0.
         11    1    3    3    0    0  0.11658174485E+02 -0.37833310044E+02 -0.57507373217E+01  0.40004291785E+02  0.51100000000E-03 0.  1.
         22    1    1    0    0    0  0.37503871224E+01 -0.56813812910E+01 -0.27355114580E+02  0.28189462404E+02  0.00000000000E+00 0. -1.
</event>
<event>
 5    1  0.1717518E-003  0.9118800E+02  0.7818608E-02  0.1130116E+00
         25   -1    0    0    0    0  0.00000000000E+00  0.00000000000E+00  0.99999998245E-14  0.12500000000E+03  0.12500000000E+03 0.  0.
        -11    1    3    3    0    0 -0.18852136849E+02 -0.24656610980E+02  0.23535373598E+02  0.38952090310E+02  0.51100000000E-03 0. -1.
         23    2    1    0    0    0 -0.13963899469E+02 -0.32760273511E+02 -0.20443082126E+02  0.83937296537E+02  0.73207404914E+02 0.  0.
         11    1    3    3    0    0  0.48882373799E+01 -0.81036625301E+01 -0.43978455725E+02  0.44985206227E+02  0.51100000000E-03 0.  1.
         22    1    1    0    0    0  0.13963899469E+02  0.32760273511E+02  0.20443082126E+02  0.41062703463E+02  0.00000000000E+00 0. -1.
</event>
<event>
 5    1  0.1717518E-003  0.9118800E+02  0.7818608E-02  0.1130116E+00
         25   -1    0    0    0    0  0.00000000000E+00  0.00000000000E+00  0.99999998245E-14  0.12500000000E+03  0.12500000000E+03 0.  0.
        -11    1    3    3    0    0 -0.27016902276E+02  0.32687818172E+02 -0.12239470899E+02  0.44138544534E+02  0.51100000000E-03 0. -1.
         23    2    1    0    0    0 -0.89956645930E+01 -0.10698334464E+02 -0.28010955251E+02  0.93695208739E+02  0.88310827110E+02 0.  0.
         11    1    3    3    0    0  0.18021237683E+02 -0.43386152636E+02 -0.15771484352E+02  0.49556664205E+02  0.51100000000E-03 0.  1.
         22    1    1    0    0    0  0.89956645930E+01  0.10698334464E+02  0.28010955251E+02  0.31304791261E+02  0.00000000000E+00 0.  1.
</event>
<event>
 5    1  0.1717518E-003  0.9118800E+02  0.7818608E-02  0.1130116E+00
         25   -1    0    0    0    0  0.00000000000E+00  0.00000000000E+00  0.99999998245E-14  0.12500000000E+03  0.12500000000E+03 0.  0.
        -11    1    3    3    0    0  0.26309265646E+02 -0.44923804265E+02 -0.20994915152E+02  0.56134767400E+02  0.51100000000E-03 0.  1.
         23    2    1    0    0    0  0.67086380784E+01 -0.26926785098E+02  0.86139957658E+01  0.95943873217E+02  0.91438330607E+02 0.  0.
         11    1    3    3    0    0 -0.19600627568E+02  0.17997019167E+02  0.29608910918E+02  0.39809105817E+02  0.51100000000E-03 0. -1.
         22    1    1    0    0    0 -0.67086380784E+01  0.26926785098E+02 -0.86139957658E+01  0.29056126783E+02  0.00000000000E+00 0.  1.
</event>
<event>
 5    1  0.1717518E-003  0.9118800E+02  0.7818608E-02  0.1130116E+00
         25   -1    0    0    0    0  0.00000000000E+00  0.00000000000E+00  0.99999998245E-14  0.12500000000E+03  0.12500000000E+03 0.  0.
        -11    1    3    3    0    0 -0.39957713526E+02  0.16287006436E+02 -0.19507042121E+02  0.47354093186E+02  0.51100000000E-03 0. -1.
         23    2    1    0    0    0 -0.23349685200E+02 -0.17372721293E+02  0.90556658379E+01  0.94520099609E+02  0.89470804748E+02 0.  0.
         11    1    3    3    0    0  0.16608028326E+02 -0.33659727730E+02  0.28562707959E+02  0.47166006423E+02  0.51100000000E-03 0.  1.
         22    1    1    0    0    0  0.23349685200E+02  0.17372721293E+02 -0.90556658379E+01  0.30479900391E+02  0.00000000000E+00 0.  1.
</event>
<event>
 5    1  0.1717518E-003  0.9118800E+02  0.7818608E-02  0.1130116E+00
         25   -1    0    0    0    0  0.00000000000E+00  0.00000000000E+00  0.99999998245E-14  0.12500000000E+03  0.12500000000E+03 0.  0.
        -11    1    3    3    0    0 -0.71535845981E+01 -0.20520504033E+02  0.22255498241E+02  0.31105820365E+02  0.51100000000E-03 0. -1.
         23    2    1    0    0    0  0.20903620862E+02  0.21254161753E+02 -0.12926518219E+02  0.92506991056E+02  0.86612630511E+02 0.  0.
         11    1    3    3    0    0  0.28057205460E+02  0.41774665786E+02 -0.35182016460E+02  0.61401170691E+02  0.51100000000E-03 0.  1.
         22    1    1    0    0    0 -0.20903620862E+02 -0.21254161753E+02  0.12926518219E+02  0.32493008944E+02  0.00000000000E+00 0.  1.
</event>
<event>
 5    1  0.1717518E-003  0.9118800E+02  0.7818608E-02  0.1130116E+00
         25   -1    0    0    0    0  0.00000000000E+00  0.00000000000E+00  0.99999998245E-14  0.12500000000E+03  0.12500000000E+03 0.  0.
        -11    1    3    3    0    0  0.24193823549E+02 -0.17297196252E+01 -0.30924322728E+02  0.39301994407E+02  0.51100000000E-03 0.  1.
         23    2    1    0    0    0  0.72637789952E+01 -0.16829422706E+02  0.21692038347E+02  0.96600414060E+02  0.92331487127E+02 0.  0.
         11    1    3    3    0    0 -0.16930044554E+02 -0.15099703081E+02  0.52616361075E+02  0.57298419653E+02  0.51100000000E-03 0. -1.
         22    1    1    0    0    0 -0.72637789952E+01  0.16829422706E+02 -0.21692038347E+02  0.28399585940E+02  0.00000000000E+00 0. -1.
</event>
<event>
 5    1  0.1717518E-003  0.9118800E+02  0.7818608E-02  0.1130116E+00
         25   -1    0    0    0    0  0.00000000000E+00  0.00000000000E+00  0.99999998245E-14  0.12500000000E+03  0.12500000000E+03 0.  0.
        -11    1    3    3    0    0  0.28007297662E+02 -0.19238031907E+02  0.99716651956E+00  0.33992718858E+02  0.51100000000E-03 0.  1.
         23    2    1    0    0    0 -0.15155741773E+02  0.24314863565E+02 -0.60571867386E+01  0.95715215384E+02  0.91125209717E+02 0.  0.
         11    1    3    3    0    0 -0.43163039435E+02  0.43552895472E+02 -0.70543532581E+01  0.61722496526E+02  0.51100000000E-03 0. -1.
         22    1    1    0    0    0  0.15155741773E+02 -0.24314863565E+02  0.60571867386E+01  0.29284784616E+02  0.00000000000E+00 0. -1.
</event>
<event>
 5    1  0.1717518E-003  0.9118800E+02  0.7818608E-02  0.1130116E+00
         25   -1    0    0    0    0  0.00000000000E+00  0.00000000000E+00  0.99999998245E-14  0.12500000000E+03  0.12500000000E+03 0.  0.
        -11    1    3    3    0    0 -0.82951869303E+01 -0.16414563851E+02  0.27545779746E+02  0.33121262275E+02  0.51100000000E-03 0. -1.
         23    2    1    0    0    0  0.16891890941E+02 -0.97983451096E+01 -0.25893635143E+02  0.92568165526E+02  0.86700873014E+02 0.  0.
         11    1    3    3    0    0  0.25187077871E+02  0.66162187418E+01 -0.53439414889E+02  0.59446903250E+02  0.51100000000E-03 0.  1.
         22    1    1    0    0    0 -0.16891890941E+02  0.97983451096E+01  0.25893635143E+02  0.32431834474E+02  0.00000000000E+00 0.  1.
</event>
<event>
 5    1  0.1717518E-003  0.9118800E+02  0.7818608E-02  0.1130116E+00
         25   -1    0    0    0    0  0.00000000000E+00  0.00000000000E+00  0.99999998245E-14  0.12500000000E+03  0.12500000000E+03 0.  0.
        -11    1    3    3    0    0 -0.22940438894E+02  0.47751577798E+02 -0.29754240836E+02  0.60760116580E+02  0.51100000000E-03 0. -1.
         23    2    1    0    0    0 -0.11026444546E+01  0.25560844950E+02 -0.16209506644E+02  0.94712696968E+02  0.89739479840E+02 0.  0.
         11    1    3    3    0    0  0.21837794440E+02 -0.22190732849E+02  0.13544734192E+02  0.33952580387E+02  0.51100000000E-03 0.  1.
         22    1    1    0    0    0  0.11026444546E+01 -0.25560844950E+02  0.16209506644E+02  0.30287303032E+02  0.00000000000E+00 0. -1.
</event>
<event>
 5    1  0.1717518E-003  0.9118800E+02  0.7818608E-02  0.1130116E+00
         25   -1    0    0    0    0  0.00000000000E+00  0.00000000000E+00  0.99999998245E-14  0.12500000000E+03  0.12500000000E+03 0.  0.
        -11    1    3    3    0    0  0.10321148918E+02 -0.26275378645E+02 -0.24430439441E+02  0.37333202507E+02  0.51100000000E-03 0.  1.
         23    2    1    0    0    0 -0.18025618154E+02  0.21856976325E+02 -0.78409601194E+01  0.95603895165E+02  0.90972379276E+02 0.  0.
         11    1    3    3    0    0 -0.28346767072E+02  0.48132354970E+02  0.16589479322E+02  0.58270692657E+02  0.51100000000E-03 0. -1.
         22    1    1    0    0    0  0.18025618154E+02 -0.21856976325E+02  0.78409601194E+01  0.29396104835E+02  0.00000000000E+00 0. -1.
</event>
<event>
 5    1  0.1717518E-003  0.9118800E+02  0.7818608E-02  0.1130116E+00
         25   -1    0    0    0    0  0.00000000000E+00  0.00000000000E+00  0.99999998245E-14  0.12500000000E+03  0.12500000000E+03 0.  0.
        -11    1    3    3    0    0  0.20284494843E+02  0.36521694157E+02 -0.12492971825E+02  0.43604692642E+02  0.51100000000E-03 0.  1.
         23    2    1    0    0    0  0.62808939613E+01 -0.13030979032E+02 -0.24563136713E+02  0.96493794909E+02  0.92187031231E+02 0.  0.
         11    1    3    3    0    0 -0.14003600882E+02 -0.49552673190E+02 -0.12070164888E+02  0.52889102267E+02  0.51100000000E-03 0. -1.
         22    1    1    0    0    0 -0.62808939613E+01  0.13030979032E+02  0.24563136713E+02  0.28506205091E+02  0.00000000000E+00 0. -1.
</event>
<event>
 5    1  0.1717518E-003  0.9118800E+02  0.7818608E-02  0.1130116E+00
         25   -1    0    0    0    0  0.00000000000E+00  0.00000000000E+00  0.99999998245E-14  0.12500000000E+03  0.12500000000E+03 0.  0.
        -11    1    3    3    0    0 -0.39005259029E+02 -0.30565023813E+02  0.10101298570E+01  0.49564617170E+02  0.51100000000E-03 0. -1.
         23    2    1    0    0    0 -0.15787180238E+02  0.85197549229E+01  0.19375307050E+02  0.98595004127E+02  0.94993426255E+02 0.  0.
         11    1    3    3    0    0  0.23218078791E+02  0.39084778736E+02  0.18365177193E+02  0.49030386957E+02  0.51100000000E-03 0.  1.
         22    1    1    0    0    0  0.15787180238E+02 -0.85197549229E+01 -0.19375307050E+02  0.26404995873E+02  0.00000000000E+00 0. -1.
</event>
<event>
 5    1  0.1717518E-003  0.9118800E+02  0.7818608E-02  0.1130116E+00
         25   -1    0    0    0    0  0.00000000000E+00  0.00000000000E+00  0.99999998245E-14  0.12500000000E+03  0.12500000000E+03 0.  0.
        -11    1    3    3    0    0 -0.34600484036E+02 -0.24570664240E+02  0.33866414017E+02  0.54294060774E+02  0.51100000000E-03 0. -1.
         23    2    1    0    0    0 -0.26625891124E+02 -0.64400537999E+01 -0.42779184102E+01  0.97274326752E+02  0.93239378420E+02 0.  0.
         11    1    3    3    0    0  0.79745929111E+01  0.18130610440E+02 -0.38144332427E+02  0.42980265978E+02  0.51100000000E-03 0.  1.
         22    1    1    0    0    0  0.26625891124E+02  0.64400537999E+01  0.42779184102E+01  0.27725673248E+02  0.00000000000E+00 0. -1.
</event>
<event>
 5    1  0.1717518E-003  0.9118800E+02  0.7818608E-02  0.1130116E+00
         25   -1    0    0    0    0  0.00000000000E+00  0.00000000000E+00  0.99999998245E-14  0.12500000000E+03  0.12500000000E+03 0.  0.
        -11    1    3    3    0    0 -0.34553456608E+02 -0.31333815155E+02  0.33046760183E+02  0.57165004107E+02  0.51100000000E-03 0. -1.
         23    2    1    0    0    0 -0.26316396289E+02 -0.35145985854E+00  0.92024893710E+01  0.97118786822E+02  0.93030622407E+02 0.  0.
         11    1    3    3    0    0  0.82370603189E+01  0.30982355296E+02 -0.23844270812E+02  0.39953782715E+02  0.51100000000E-03 0.  1.
         22    1    1    0    0    0  0.26316396289E+02  0.35145985854E+00 -0.92024893710E+01  0.27881213178E+02  0.00000000000E+00 0. -1.
</event>
<event>
 5    1  0.1717518E-003  0.9118800E+02  0.7818608E-02  0.1130116E+00
         25   -1    0    0    0    0  0.00000000000E+00  0.00000000000E+00  0.99999998245E-14  0.12500000000E+03  0.12500000000E+03 0.  0.
        -11    1    3    3    0    0  0.18040372278E+02 -0.10858859063E+02 -0.30141632078E+02  0.36768027369E+02  0.51100000000E-03 0.  1.
         23    2    1    0    0    0  0.11215904032E+02  0.21122513577E+02  0.18071008374E+02  0.95024703059E+02  0.90173032358E+02 0.  0.
         11    1    3    3    0    0 -0.68244682454E+01  0.31981372640E+02  0.48212640452E+02  0.58256675689E+02  0.51100000000E-03 0. -1.
         22    1    1    0    0    0 -0.11215904032E+02 -0.21122513577E+02 -0.18071008374E+02  0.29975296941E+02  0.00000000000E+00 0. -1.
</event>
<event>
 5    1  0.1717518E-003  0.9118800E+02  0.7818608E-02  0.1130116E+00
         25   -1    0    0    0    0  0.00000000000E+00  0.00000000000E+00  0.99999998245E-14  0.12500000000E+03  0.12500000000E+03 0.  0.
        -11    1    3    3    0    0 -0.41469970667E+02 -0.69429403485E+01 -0.42218341569E+02  0.59584824015E+02  0.51100000000E-03 0. -1.
         23    2    1    0    0    0 -0.16899850372E+02  0.96993350677E+01 -0.22602598543E+02  0.95157756380E+02  0.90357285789E+02 0.  0.
         11    1    3    3    0    0  0.24570120295E+02  0.16642275416E+02  0.19615743026E+02  0.35572932365E+02  0.51100000000E-03 0.  1.
         22    1    1    0    0    0  0.16899850372E+02 -0.96993350677E+01  0.22602598543E+02  0.29842243620E+02  0.00000000000E+00 0. -1.
</event>
<event>
 5    1  0.1717518E-003  0.9118800E+02  0.7818608E-02  0.1130116E+00
         25   -1    0    0    0    0  0.00000000000E+00  0.00000000000E+00  0.99999998245E-14  0.12500000000E+03  0.12500000000E+03 0.  0.
        -11    1    3    3    0    0 -0.11311697900E+02 -0.41207925703E+02 -0.90755329683E+01  0.43685385990E+02  0.51100000000E-03 0. -1.
         23    2    1    0    0    0  0.66073628210E+01 -0.28898737634E+01  0.25613305053E+02  0.98390790888E+02  0.94724324870E+02 0.  0.
         11    1    3    3    0    0  0.17919060721E+02  0.38318051940E+02  0.34688838021E+02  0.54705404899E+02  0.51100000000E-03 0.  1.
         22    1    1    0    0    0 -0.66073628210E+01  0.28898737634E+01 -0.25613305053E+02  0.26609209112E+02  0.00000000000E+00 0.  1.
</event>
<event>
 5    1  0.1717518E-003  0.9118800E+02  0.7818608E-02  0.1130116E+00
         25   -1    0    0    0    0  0.00000000000E+00  0.00000000000E+00  0.99999998245E-14  0.12500000000E+03  0.12500000000E+03 0.  0.
        -11    1    3    3    0    0 -0.15364779650E+02 -0.30554647316E+02 -0.16307563859E+02  0.37889306744E+02  0.51100000000E-03 0. -1.
         23    2    1    0    0    0  0.28091108229E+02  0.14410133027E+01  0.59263901889E+01  0.96254409354E+02  0.91861865530E+02 0.  0.
         11    1    3    3    0    0  0.43455887879E+02  0.31995660619E+02  0.22233954048E+02  0.58365102610E+02  0.51100000000E-03 0.  1.
         22    1    1    0    0    0 -0.28091108229E+02 -0.14410133027E+01 -0.59263901889E+01  0.28745590646E+02  0.00000000000E+00 0.  1.
</event>
<event>
 5    1  0.1717518E-003  0.9118800E+02  0.7818608E-02  0.1130116E+00
         25   -1    0    0    0    0  0.00000000000E+00  0.00000000000E+00  0.99999998245E-14  0.12500000000E+03  0.12500000000E+03 0.  0.
        -11    1    3    3    0    0 -0.88987435355E+01  0.24965096299E+02  0.35697176496E+02  0.44460455236E+02  0.51100000000E-03 0.  1.
         23    2    1    0    0    0  0.97427756164E+01  0.25787730688E+02 -0.11437802846E+02  0.95154530249E+02  0.90352822658E+02 0.  0.
         11    1    3    3    0    0  0.18641519152E+02  0.82263438864E+00 -0.47134979342E+02  0.50694075013E+02  0.51100000000E-03 0. -1.
         22    1    1    0    0    0 -0.97427756164E+01 -0.25787730688E+02  0.11437802846E+02  0.29845469751E+02  0.00000000000E+00 0. -1.
</event>
<event>
 5    1  0.1717518E-003  0.9118800E+02  0.7818608E-02  0.1130116E+00
         25   -1    0    0    0    0  0.00000000000E+00  0.00000000000E+00  0.99999998245E-14  0.12500000000E+03  0.12500000000E+03 0.  0.
        -11    1    3    3    0    0  0.44276595382E+02  0.13329403528E+02  0.33446018989E+02  0.57067732419E+02  0.51100000000E-03 0. -1.
         23    2    1    0    0    0  0.12625183216E+02 -0.77377610688E+01  0.24887233786E+02  0.96040673297E+02  0.91570564725E+02 0.  0.
         11    1    3    3    0    0 -0.31651412166E+02 -0.21067164597E+02 -0.85587852023E+01  0.38972940878E+02  0.51100000000E-03 0.  1.
         22    1    1    0    0    0 -0.12625183216E+02  0.77377610688E+01 -0.24887233786E+02  0.28959326703E+02  0.00000000000E+00 0. -1.
</event>
<event>
 5    1  0.1717518E-003  0.9118800E+02  0.7818608E-02  0.1130116E+00
         25   -1    0    0    0    0  0.00000000000E+00  0.00000000000E+00  0.99999998245E-14  0.12500000000E+03  0.12500000000E+03 0.  0.
        -11    1    3    3    0    0  0.27081772773E+02  0.35993901387E+02 -0.27075029556E+02  0.52555119440E+02  0.51100000000E-03 0.  1.
         23    2    1    0    0    0 -0.20110116101E+01  0.31529776625E+02  0.12192757529E+01  0.93382637442E+02  0.87867282652E+02 0.  0.
         11    1    3    3    0    0 -0.29092784383E+02 -0.44641247616E+01  0.28294305309E+02  0.40827518003E+02  0.51100000000E-03 0. -1.
         22    1    1    0    0    0  0.20110116101E+01 -0.31529776625E+02 -0.12192757529E+01  0.31617362558E+02  0.00000000000E+00 0.  1.
</event>
<event>
 5    1  0.1717518E-003  0.9118800E+02  0.7818608E-02  0.1130116E+00
         25   -1    0    0    0    0  0.00000000000E+00  0.00000000000E+00  0.99999998245E-14  0.12500000000E+03  0.12500000000E+03 0.  0.
        -11    1    3    3    0    0  0.38428790993E+02 -0.76138621902E+01  0.48073290027E+02  0.62014386145E+02  0.51100000000E-03 0.  1.
         23    2    1    0    0    0  0.20887893607E+02 -0.71463465568E+01  0.19504991237E+02  0.95541231329E+02  0.90886235659E+02 0.  0.
         11    1    3    3    0    0 -0.17540897386E+02  0.46751563343E+00 -0.28568298790E+02  0.33526845184E+02  0.51100000000E-03 0. -1.
         22    1    1    0    0    0 -0.20887893607E+02  0.71463465568E+01 -0.19504991237E+02  0.29458768671E+02  0.00000000000E+00 0.  1.
</event>
<event>
 5    1  0.1717518E-003  0.9118800E+02  0.7818608E-02  0.1130116E+00
         25   -1    0    0    0    0  0.00000000000E+00  0.00000000000E+00  0.99999998245E-14  0.12500000000E+03  0.12500000000E+03 0.  0.
        -11    1    3    3    0    0  0.17948289165E+02  0.39216821950E+02  0.10565786844E+02  0.44404234705E+02  0.51100000000E-03 0.  1.
         23    2    1    0    0    0  0.76888581909E+01 -0.86268402981E+01  0.26683437569E+02  0.95921713354E+02  0.91408032133E+02 0.  0.
         11    1    3    3    0    0 -0.10259430974E+02 -0.47843662248E+02  0.16117650724E+02  0.51517478649E+02  0.51100000000E-03 0. -1.
         22    1    1    0    0    0 -0.76888581909E+01  0.86268402981E+01 -0.26683437569E+02  0.29078286646E+02  0.00000000000E+00 0. -1.
</event>
<event>
 5    1  0.1717518E-003  0.9118800E+02  0.7818608E-02  0.1130116E+00
         25   -1    0    0    0    0  0.00000000000E+00  0.00000000000E+00  0.99999998245E-14  0.12500000000E+03  0.12500000000E+03 0.  0.
        -11    1    3    3    0    0 -0.47318974726E+00  0.53322225124E+02 -0.18464576064E+02  0.56430702372E+02  0.51100000000E-03 0.  1.
         23    2    1    0    0    0 -0.77416073629E+01  0.27426118055E+02  0.92377832665E+01  0.95042345288E+02  0.90197485121E+02 0.  0.
         11    1    3    3    0    0 -0.72684176157E+01 -0.25896107069E+02  0.27702359331E+02  0.38611642916E+02  0.51100000000E-03 0. -1.
         22    1    1    0    0    0  0.77416073629E+01 -0.27426118055E+02 -0.92377832665E+01  0.29957654712E+02  0.00000000000E+00 0.  1.
</event>
<event>
 5    1  0.1717518E-003  0.9118800E+02  0.7818608E-02  0.1130116E+00
         25   -1    0    0    0    0  0.00000000000E+00  0.00000000000E+00  0.99999998245E-14  0.12500000000E+03  0.12500000000E+03 0.  0.
        -11    1    3    3    0    0 -0.16691869680E+01 -0.38522197699E+02 -0.18882493698E+02  0.42933605360E+02  0.51100000000E-03 0.  1.
         23    2    1    0    0    0  0.26793067315E+02  0.25954851833E+01 -0.17369278814E+02  0.92964131883E+02  0.87269885818E+02 0.  0.
         11    1    3    3    0    0  0.28462254283E+02  0.41117682883E+02  0.15132148838E+01  0.50030526522E+02  0.51100000000E-03 0. -1.
         22    1    1    0    0    0 -0.26793067315E+02 -0.25954851833E+01  0.17369278814E+02  0.32035868117E+02  0.00000000000E+00 0. -1.
</event>
<event>
 5    1  0.1717518E-003  0.9118800E+02  0.7818608E-02  0.1130116E+00
         25   -1    0    0    0    0  0.00000000000E+00  0.00000000000E+00  0.99999998245E-14  0.12500000000E+03  0.12500000000E+03 0.  0.
        -11    1    3    3    0    0  0.26168284675E+01  0.29195454024E+02  0.26247011226E+02  0.39346256816E+02  0.51100000000E-03 0.  1.
         23    2    1    0    0    0 -0.12254998119E+02 -0.68982963631E+01 -0.20431131736E+02  0.10019672168E+03  0.97078218046E+02 0.  0.
         11    1    3    3    0    0 -0.14871826587E+02 -0.36093750387E+02 -0.46678142962E+02  0.60850464860E+02  0.51100000000E-03 0. -1.
         22    1    1    0    0    0  0.12254998119E+02  0.68982963631E+01  0.20431131736E+02  0.24803278324E+02  0.00000000000E+00 0. -1.
</event>
<event>
 5    1  0.1717518E-003  0.9118800E+02  0.7818608E-02  0.1130116E+00
         25   -1    0    0    0    0  0.00000000000E+00  0.00000000000E+00  0.99999998245E-14  0.12500000000E+03  0.12500000000E+03 0.  0.
        -11    1    3    3    0    0 -0.32772106570E+02 -0.16671382690E+02  0.26916119921E+02  0.45567789958E+02  0.51100000000E-03 0. -1.
         23    2    1    0    0    0  0.14839538069E+02 -0.21787177406E+02  0.13938920282E+02  0.95180769828E+02  0.90389116917E+02 0.  0.
         11    1    3    3    0    0  0.47611644639E+02 -0.51157947159E+01 -0.12977199638E+02  0.49612979870E+02  0.51100000000E-03 0.  1.
         22    1    1    0    0    0 -0.14839538069E+02  0.21787177406E+02 -0.13938920282E+02  0.29819230172E+02  0.00000000000E+00 0.  1.
</event>
<event>
 5    1  0.1717518E-003  0.9118800E+02  0.7818608E-02  0.1130116E+00
         25   -1    0    0    0    0  0.00000000000E+00  0.00000000000E+00  0.99999998245E-14  0.12500000000E+03  0.12500000000E+03 0.  0.
        -11    1    3    3    0    0  0.36401767477E+02 -0.14107778115E+02  0.29003503921E+02  0.48634569174E+02  0.51100000000E-03 0. -1.
         23    2    1    0    0    0  0.24597815679E+02 -0.90233434516E+01 -0.15227961519E+02  0.94695477643E+02  0.89715491476E+02 0.  0.
         11    1    3    3    0    0 -0.11803951798E+02  0.50844346631E+01 -0.44231465439E+02  0.46060908470E+02  0.51100000000E-03 0.  1.
         22    1    1    0    0    0 -0.24597815679E+02  0.90233434516E+01  0.15227961519E+02  0.30304522357E+02  0.00000000000E+00 0. -1.
</event>
<event>
 5    1  0.1717518E-003  0.9118800E+02  0.7818608E-02  0.1130116E+00
         25   -1    0    0    0    0  0.00000000000E+00  0.00000000000E+00  0.99999998245E-14  0.12500000000E+03  0.12500000000E+03 0.  0.
        -11    1    3    3    0    0 -0.90423615968E+01  0.49211634268E+02 -0.41690605675E+01  0.50208866915E+02  0.51100000000E-03 0.  1.
         23    2    1    0    0    0 -0.17252753563E+02  0.12390290352E+02  0.20657413783E+02  0.95370529118E+02  0.90651157078E+02 0.  0.
         11    1    3    3    0    0 -0.82103919666E+01 -0.36821343916E+02  0.24826474351E+02  0.45161662203E+02  0.51100000000E-03 0. -1.
         22    1    1    0    0    0  0.17252753563E+02 -0.12390290352E+02 -0.20657413783E+02  0.29629470882E+02  0.00000000000E+00 0.  1.
</event>
<event>
 5    1  0.1717518E-003  0.9118800E+02  0.7818608E-02  0.1130116E+00
         25   -1    0    0    0    0  0.00000000000E+00  0.00000000000E+00  0.99999998245E-14  0.12500000000E+03  0.12500000000E+03 0.  0.
        -11    1    3    3    0    0 -0.33228466665E+02  0.80749036168E+01 -0.64394126617E+01  0.34796567374E+02  0.51100000000E-03 0.  1.
         23    2    1    0    0    0  0.25436471811E+02 -0.19512640008E+01 -0.15724434433E+02  0.95032027636E+02  0.90183185289E+02 0.  0.
         11    1    3    3    0    0  0.58664938476E+02 -0.10026167618E+02 -0.92850217711E+01  0.60235460262E+02  0.51100000000E-03 0. -1.
         22    1    1    0    0    0 -0.25436471811E+02  0.19512640008E+01  0.15724434433E+02  0.29967972364E+02  0.00000000000E+00 0. -1.
</event>
<event>
 4    1  0.1717518E-003  0.9118800E+02  0.7818608E-02  0.1130116E+00
         25   -1    0    0    0    0  0.00000000000E+00  0.00000000000E+00  0.99999998245E-14  0.12500000000E+03  0.12500000000E+03 0.  0.
        -11    1    1    0    0    0  0.22074932206E+02 -0.17455149399E+02  0.30322118324E+02  0.41369260719E+02  0.51100000000E-03 0.  1.
         11    1    1    0    0    0 -0.17655196885E+02 -0.26152848475E+02 -0.23660920330E+01  0.31642943166E+02  0.51100000000E-03 0. -1.
         22    1    1    0    0    0 -0.44197353213E+01  0.43607997875E+02 -0.27956026291E+02  0.51987796115E+02  0.00000000000E+00 0. -1.
</event>
<event>
 5    1  0.1717518E-003  0.9118800E+02  0.7818608E-02  0.1130116E+00
         25   -1    0    0    0    0  0.00000000000E+00  0.00000000000E+00  0.99999998245E-14  0.12500000000E+03  0.12500000000E+03 0.  0.
        -11    1    3    3    0    0 -0.23289822141E+02 -0.32179434681E+01  0.48129542075E+02  0.53565136013E+02  0.51100000000E-03 0. -1.
         23    2    1    0    0    0 -0.27920816931E+02 -0.11298966414E+02  0.93289061160E+01  0.93467998011E+02  0.87988632805E+02 0.  0.
         11    1    3    3    0    0 -0.46309947896E+01 -0.80810229456E+01 -0.38800635959E+02  0.39902861998E+02  0.51100000000E-03 0.  1.
         22    1    1    0    0    0  0.27920816931E+02  0.11298966414E+02 -0.93289061160E+01  0.31532001989E+02  0.00000000000E+00 0. -1.
</event>
<event>
 5    1  0.1717518E-003  0.9118800E+02  0.7818608E-02  0.1130116E+00
         25   -1    0    0    0    0  0.00000000000E+00  0.00000000000E+00  0.99999998245E-14  0.12500000000E+03  0.12500000000E+03 0.  0.
        -11    1    3    3    0    0  0.18380294076E+02  0.27013822304E+02  0.15409322012E+02  0.36125185272E+02  0.51100000000E-03 0. -1.
         23    2    1    0    0    0 -0.17077686841E+02 -0.79674332880E+01 -0.20215545995E+02  0.97363146328E+02  0.93358377138E+02 0.  0.
         11    1    3    3    0    0 -0.35457980917E+02 -0.34981255592E+02 -0.35624868007E+02  0.61237961056E+02  0.51100000000E-03 0.  1.
         22    1    1    0    0    0  0.17077686841E+02  0.79674332880E+01  0.20215545995E+02  0.27636853672E+02  0.00000000000E+00 0.  1.
</event>
<event>
 5    1  0.1717518E-003  0.9118800E+02  0.7818608E-02  0.1130116E+00
         25   -1    0    0    0    0  0.00000000000E+00  0.00000000000E+00  0.99999998245E-14  0.12500000000E+03  0.12500000000E+03 0.  0.
        -11    1    3    3    0    0  0.44593920848E+01 -0.46775323078E+02 -0.26541947428E+02  0.53965655748E+02  0.51100000000E-03 0.  1.
         23    2    1    0    0    0  0.76904473825E+01 -0.30042478345E+01 -0.25852346533E+02  0.97861239762E+02  0.94022922421E+02 0.  0.
         11    1    3    3    0    0  0.32310552976E+01  0.43771075243E+02  0.68960089467E+00  0.43895584014E+02  0.51100000000E-03 0. -1.
         22    1    1    0    0    0 -0.76904473825E+01  0.30042478345E+01  0.25852346533E+02  0.27138760238E+02  0.00000000000E+00 0. -1.
</event>
<event>
 5    1  0.1717518E-003  0.9118800E+02  0.7818608E-02  0.1130116E+00
         25   -1    0    0    0    0  0.00000000000E+00  0.00000000000E+00  0.99999998245E-14  0.12500000000E+03  0.12500000000E+03 0.  0.
        -11    1    3    3    0    0  0.16834554944E+02 -0.74768646883E+01 -0.31294783254E+02  0.36313485166E+02  0.51100000000E-03 0.  1.
         23    2    1    0    0    0 -0.21476167125E+02  0.15606400884E+02  0.94533157096E+01  0.96819320788E+02  0.92627372828E+02 0.  0.
         11    1    3    3    0    0 -0.38310722068E+02  0.23083265572E+02  0.40748098964E+02  0.60505835622E+02  0.51100000000E-03 0. -1.
         22    1    1    0    0    0  0.21476167125E+02 -0.15606400884E+02 -0.94533157096E+01  0.28180679212E+02  0.00000000000E+00 0. -1.
</event>
<event>
 5    1  0.1717518E-003  0.9118800E+02  0.7818608E-02  0.1130116E+00
         25   -1    0    0    0    0  0.00000000000E+00  0.00000000000E+00  0.99999998245E-14  0.12500000000E+03  0.12500000000E+03 0.  0.
        -11    1    3    3    0    0  0.19862652179E+02 -0.23223676249E+02  0.15752879181E+02  0.34380478368E+02  0.51100000000E-03 0.  1.
         23    2    1    0    0    0 -0.22809048205E+01  0.22753272233E+02 -0.18284138130E+02  0.95721618364E+02  0.91133992511E+02 0.  0.
         11    1    3    3    0    0 -0.22143556999E+02  0.45976948482E+02 -0.34037017311E+02  0.61341139995E+02  0.51100000000E-03 0. -1.
         22    1    1    0    0    0  0.22809048205E+01 -0.22753272233E+02  0.18284138130E+02  0.29278381636E+02  0.00000000000E+00 0. -1.
</event>
<event>
 5    1  0.1717518E-003  0.9118800E+02  0.7818608E-02  0.1130116E+00
         25   -1    0    0    0    0  0.00000000000E+00  0.00000000000E+00  0.99999998245E-14  0.12500000000E+03  0.12500000000E+03 0.  0.
        -11    1    3    3    0    0 -0.11721803656E+02  0.19330184121E+02 -0.27131930391E+02  0.35315695464E+02  0.51100000000E-03 0.  1.
         23    2    1    0    0    0  0.27968947056E+02  0.10190191414E+01  0.12527129747E+02  0.94336840033E+02  0.89214404713E+02 0.  0.
         11    1    3    3    0    0  0.39690750712E+02 -0.18311164979E+02  0.39659060138E+02  0.59021144570E+02  0.51100000000E-03 0. -1.
         22    1    1    0    0    0 -0.27968947056E+02 -0.10190191414E+01 -0.12527129747E+02  0.30663159967E+02  0.00000000000E+00 0. -1.
</event>
<event>
 5    1  0.1717518E-003  0.9118800E+02  0.7818608E-02  0.1130116E+00
         25   -1    0    0    0    0  0.00000000000E+00  0.00000000000E+00  0.99999998245E-14  0.12500000000E+03  0.12500000000E+03 0.  0.
        -11    1    3    3    0    0  0.17837317932E+02  0.20502028435E+01  0.39895287026E+02  0.43749367651E+02  0.51100000000E-03 0. -1.
         23    2    1    0    0    0  0.43841962160E+02  0.12940167520E+00  0.18768165841E+02  0.77309556095E+02  0.60847259788E+02 0.  0.
         11    1    3    3    0    0  0.26004644228E+02 -0.19208011683E+01 -0.21127121185E+02  0.33560188444E+02  0.51100000000E-03 0.  1.
         22    1    1    0    0    0 -0.43841962160E+02 -0.12940167520E+00 -0.18768165841E+02  0.47690443905E+02  0.00000000000E+00 0. -1.
</event>
<event>
 5    1  0.1717518E-003  0.9118800E+02  0.7818608E-02  0.1130116E+00
         25   -1    0    0    0    0  0.00000000000E+00  0.00000000000E+00  0.99999998245E-14  0.12500000000E+03  0.12500000000E+03 0.  0.
        -11    1    3    3    0    0 -0.15551000492E+02 -0.30305441824E+02  0.11658949641E+02  0.36002562790E+02  0.51100000000E-03 0. -1.
         23    2    1    0    0    0  0.17772570834E+02  0.13925955065E+02 -0.15430295056E+02  0.97652413196E+02  0.93744884122E+02 0.  0.
         11    1    3    3    0    0  0.33323571326E+02  0.44231396889E+02 -0.27089244697E+02  0.61649850406E+02  0.51100000000E-03 0.  1.
         22    1    1    0    0    0 -0.17772570834E+02 -0.13925955065E+02  0.15430295056E+02  0.27347586804E+02  0.00000000000E+00 0.  1.
</event>
<event>
 5    1  0.1717518E-003  0.9118800E+02  0.7818608E-02  0.1130116E+00
         25   -1    0    0    0    0  0.00000000000E+00  0.00000000000E+00  0.99999998245E-14  0.12500000000E+03  0.12500000000E+03 0.  0.
        -11    1    3    3    0    0 -0.45480635082E+02  0.20941882844E+02  0.11498004681E+02  0.51373677466E+02  0.51100000000E-03 0.  1.
         23    2    1    0    0    0 -0.38416311740E+01  0.16761286187E+02  0.24385287070E+02  0.95161416418E+02  0.90362348931E+02 0.  0.
         11    1    3    3    0    0  0.41639003908E+02 -0.41805966564E+01  0.12887282389E+02  0.43787738952E+02  0.51100000000E-03 0. -1.
         22    1    1    0    0    0  0.38416311740E+01 -0.16761286187E+02 -0.24385287070E+02  0.29838583582E+02  0.00000000000E+00 0. -1.
</event>
<event>
 5    1  0.1717518E-003  0.9118800E+02  0.7818608E-02  0.1130116E+00
         25   -1    0    0    0    0  0.00000000000E+00  0.00000000000E+00  0.99999998245E-14  0.12500000000E+03  0.12500000000E+03 0.  0.
        -11    1    3    3    0    0 -0.37914138355E+02  0.23844378379E+02 -0.40870810852E+02  0.60633814390E+02  0.51100000000E-03 0. -1.
         23    2    1    0    0    0 -0.15884319707E+02  0.21356929746E+02 -0.16028667685E+02  0.93929946114E+02  0.88642464589E+02 0.  0.
         11    1    3    3    0    0  0.22029818648E+02 -0.24874486333E+01  0.24842143168E+02  0.33296131724E+02  0.51100000000E-03 0.  1.
         22    1    1    0    0    0  0.15884319707E+02 -0.21356929746E+02  0.16028667685E+02  0.31070053886E+02  0.00000000000E+00 0. -1.
</event>
<event>
 5    1  0.1717518E-003  0.9118800E+02  0.7818608E-02  0.1130116E+00
         25   -1    0    0    0    0  0.00000000000E+00  0.00000000000E+00  0.99999998245E-14  0.12500000000E+03  0.12500000000E+03 0.  0.
        -11    1    3    3    0    0  0.22916875321E+02  0.42810004715E+02 -0.61792442209E+01  0.48949593845E+02  0.51100000000E-03 0.  1.
         23    2    1    0    0    0 -0.39825857312E+00  0.12224204431E+02 -0.28899921848E+02  0.93618552190E+02  0.88202256476E+02 0.  0.
         11    1    3    3    0    0 -0.23315133895E+02 -0.30585800284E+02 -0.22720677627E+02  0.44668958345E+02  0.51100000000E-03 0. -1.
         22    1    1    0    0    0  0.39825857312E+00 -0.12224204431E+02  0.28899921848E+02  0.31381447810E+02  0.00000000000E+00 0. -1.
</event>
<event>
 5    1  0.1717518E-003  0.9118800E+02  0.7818608E-02  0.1130116E+00
         25   -1    0    0    0    0  0.00000000000E+00  0.00000000000E+00  0.99999998245E-14  0.12500000000E+03  0.12500000000E+03 0.  0.
        -11    1    3    3    0    0  0.35979479760E+02  0.17469585377E+02 -0.38127748179E+02  0.55257891369E+02  0.51100000000E-03 0.  1.
         23    2    1    0    0    0  0.64017993078E+01  0.25599943098E+02 -0.10305116420E+02  0.96670941678E+02  0.92426919344E+02 0.  0.
         11    1    3    3    0    0 -0.29577680453E+02  0.81303577207E+01  0.27822631759E+02  0.41413050309E+02  0.51100000000E-03 0. -1.
         22    1    1    0    0    0 -0.64017993078E+01 -0.25599943098E+02  0.10305116420E+02  0.28329058322E+02  0.00000000000E+00 0.  1.
</event>
<event>
 5    1  0.1717518E-003  0.9118800E+02  0.7818608E-02  0.1130116E+00
         25   -1    0    0    0    0  0.00000000000E+00  0.00000000000E+00  0.99999998245E-14  0.12500000000E+03  0.12500000000E+03 0.  0.
        -11    1    3    3    0    0  0.16802533807E+01  0.46685410573E+02 -0.13574585894E+02  0.48647920760E+02  0.51100000000E-03 0.  1.
         23    2    1    0    0    0 -0.25679828004E+02  0.14730300972E+02  0.55846084644E+01  0.94873214829E+02  0.89962790682E+02 0.  0.
         11    1    3    3    0    0 -0.27360081385E+02 -0.31955109601E+02  0.19159194359E+02  0.46225294069E+02  0.51100000000E-03 0. -1.
         22    1    1    0    0    0  0.25679828004E+02 -0.14730300972E+02 -0.55846084644E+01  0.30126785171E+02  0.00000000000E+00 0.  1.
</event>
<event>
 5    1  0.1717518E-003  0.9118800E+02  0.7818608E-02  0.1130116E+00
         25   -1    0    0    0    0  0.00000000000E+00  0.00000000000E+00  0.99999998245E-14  0.12500000000E+03  0.12500000000E+03 0.  0.
        -11    1    3    3    0    0  0.77300401006E+01  0.21003296255E+02 -0.51346716793E+02  0.56012295964E+02  0.51100000000E-03 0.  1.
         23    2    1    0    0    0  0.19886385729E+02 -0.20666938250E+01 -0.22718863335E+02  0.94736386337E+02  0.89772471193E+02 0.  0.
         11    1    3    3    0    0  0.12156345629E+02 -0.23069990080E+02  0.28627853458E+02  0.38724090373E+02  0.51100000000E-03 0. -1.
         22    1    1    0    0    0 -0.19886385729E+02  0.20666938250E+01  0.22718863335E+02  0.30263613663E+02  0.00000000000E+00 0.  1.
</event>
<event>
 5    1  0.1717518E-003  0.9118800E+02  0.7818608E-02  0.1130116E+00
         25   -1    0    0    0    0  0.00000000000E+00  0.00000000000E+00  0.99999998245E-14  0.12500000000E+03  0.12500000000E+03 0.  0.
        -11    1    3    3    0    0 -0.34434647381E+02 -0.41710099582E+02  0.16490272025E+02  0.56545613615E+02  0.51100000000E-03 0.  1.
         23    2    1    0    0    0 -0.13658084519E+02 -0.31201473077E+02 -0.76576577415E+01  0.90089902364E+02  0.83051042082E+02 0.  0.
         11    1    3    3    0    0  0.20776562862E+02  0.10508626505E+02 -0.24147929767E+02  0.33544288749E+02  0.51100000000E-03 0. -1.
         22    1    1    0    0    0  0.13658084519E+02  0.31201473077E+02  0.76576577415E+01  0.34910097636E+02  0.00000000000E+00 0.  1.
</event>
<event>
 5    1  0.1717518E-003  0.9118800E+02  0.7818608E-02  0.1130116E+00
         25   -1    0    0    0    0  0.00000000000E+00  0.00000000000E+00  0.99999998245E-14  0.12500000000E+03  0.12500000000E+03 0.  0.
        -11    1    3    3    0    0  0.82766128655E+01  0.37769189874E+02 -0.48220595994E+00  0.38668417955E+02  0.51100000000E-03 0.  1.
         23    2    1    0    0    0 -0.17461855114E+02 -0.92974033934E+01  0.20721528888E+02  0.96351442386E+02  0.91993807382E+02 0.  0.
         11    1    3    3    0    0 -0.25738467980E+02 -0.47066593268E+02  0.21203734848E+02  0.57683024431E+02  0.51100000000E-03 0. -1.
         22    1    1    0    0    0  0.17461855114E+02  0.92974033934E+01 -0.20721528888E+02  0.28648557614E+02  0.00000000000E+00 0. -1.
</event>
<event>
 5    1  0.1717518E-003  0.9118800E+02  0.7818608E-02  0.1130116E+00
         25   -1    0    0    0    0  0.00000000000E+00  0.00000000000E+00  0.99999998245E-14  0.12500000000E+03  0.12500000000E+03 0.  0.
        -11    1    3    3    0    0 -0.49996339650E+02 -0.26622522240E+02  0.45085332842E+01  0.56821822758E+02  0.51100000000E-03 0. -1.
         23    2    1    0    0    0 -0.22849949176E+02 -0.80845819560E+01 -0.16358838989E+02  0.95758039467E+02  0.91183934258E+02 0.  0.
         11    1    3    3    0    0  0.27146390474E+02  0.18537940284E+02 -0.20867372273E+02  0.38936216709E+02  0.51100000000E-03 0.  1.
         22    1    1    0    0    0  0.22849949176E+02  0.80845819560E+01  0.16358838989E+02  0.29241960533E+02  0.00000000000E+00 0. -1.
</event>
<event>
 5    1  0.1717518E-003  0.9118800E+02  0.7818608E-02  0.1130116E+00
         25   -1    0    0    0    0  0.00000000000E+00  0.00000000000E+00  0.99999998245E-14  0.12500000000E+03  0.12500000000E+03 0.  0.
        -11    1    3    3    0    0  0.32748332706E+02 -0.47193899550E+02  0.12012305821E+02  0.58685713263E+02  0.51100000000E-03 0.  1.
         23    2    1    0    0    0  0.22737562033E+01 -0.30050826451E+02  0.35990843906E+01  0.94649126106E+02  0.89650886926E+02 0.  0.
         11    1    3    3    0    0 -0.30474576502E+02  0.17143073099E+02 -0.84132214307E+01  0.35963412844E+02  0.51100000000E-03 0. -1.
         22    1    1    0    0    0 -0.22737562033E+01  0.30050826451E+02 -0.35990843906E+01  0.30350873894E+02  0.00000000000E+00 0.  1.
</event>
<event>
 5    1  0.1717518E-003  0.9118800E+02  0.7818608E-02  0.1130116E+00
         25   -1    0    0    0    0  0.00000000000E+00  0.00000000000E+00  0.99999998245E-14  0.12500000000E+03  0.12500000000E+03 0.  0.
        -11    1    3    3    0    0  0.28901061145E+02 -0.81949247528E+01  0.21226908506E+02  0.36783281147E+02  0.51100000000E-03 0.  1.
         23    2    1    0    0    0 -0.72723468341E+01  0.28528867898E+02 -0.58099083658E+01  0.94991028555E+02  0.90126339872E+02 0.  0.
         11    1    3    3    0    0 -0.36173407979E+02  0.36723792650E+02 -0.27036816871E+02  0.58207747407E+02  0.51100000000E-03 0. -1.
         22    1    1    0    0    0  0.72723468341E+01 -0.28528867898E+02  0.58099083658E+01  0.30008971445E+02  0.00000000000E+00 0. -1.
</event>
<event>
 5    1  0.1717518E-003  0.9118800E+02  0.7818608E-02  0.1130116E+00
         25   -1    0    0    0    0  0.00000000000E+00  0.00000000000E+00  0.99999998245E-14  0.12500000000E+03  0.12500000000E+03 0.  0.
        -11    1    3    3    0    0  0.63397874077E+01 -0.86946430512E+01  0.50216063240E+02  0.51356038883E+02  0.51100000000E-03 0.  1.
         23    2    1    0    0    0  0.27877950370E+02 -0.10547043741E+02  0.17913416717E+02  0.90224854464E+02  0.83253910515E+02 0.  0.
         11    1    3    3    0    0  0.21538162963E+02 -0.18524006901E+01 -0.32302646522E+02  0.38868815582E+02  0.51100000000E-03 0. -1.
         22    1    1    0    0    0 -0.27877950370E+02  0.10547043741E+02 -0.17913416717E+02  0.34775145536E+02  0.00000000000E+00 0. -1.
</event>
<event>
 5    1  0.1717518E-003  0.9118800E+02  0.7818608E-02  0.1130116E+00
         25   -1    0    0    0    0  0.00000000000E+00  0.00000000000E+00  0.99999998245E-14  0.12500000000E+03  0.12500000000E+03 0.  0.
        -11    1    3    3    0    0  0.41677442662E+02 -0.28164128316E+02 -0.31528601187E+02  0.59365647000E+02  0.51100000000E-03 0.  1.
         23    2    1    0    0    0  0.16692479928E+02 -0.22935481101E+01 -0.23275041594E+02  0.96266277473E+02  0.91878013519E+02 0.  0.
         11    1    3    3    0    0 -0.24984962735E+02  0.25870580206E+02  0.82535595937E+01  0.36900630473E+02  0.51100000000E-03 0. -1.
         22    1    1    0    0    0 -0.16692479928E+02  0.22935481101E+01  0.23275041594E+02  0.28733722527E+02  0.00000000000E+00 0.  1.
</event>
<event>
 5    1  0.1717518E-003  0.9118800E+02  0.7818608E-02  0.1130116E+00
         25   -1    0    0    0    0  0.00000000000E+00  0.00000000000E+00  0.99999998245E-14  0.12500000000E+03  0.12500000000E+03 0.  0.
        -11    1    3    3    0    0 -0.10634607618E+02  0.56782529810E+02  0.99545563980E+01  0.58621188696E+02  0.51100000000E-03 0.  1.
         23    2    1    0    0    0  0.95802716249E+01  0.24994635504E+02  0.10367707929E+02  0.96294551456E+02  0.91916472213E+02 0.  0.
         11    1    3    3    0    0  0.20214879243E+02 -0.31787894305E+02  0.41315153083E+00  0.37673362760E+02  0.51100000000E-03 0. -1.
         22    1    1    0    0    0 -0.95802716249E+01 -0.24994635504E+02 -0.10367707929E+02  0.28705448544E+02  0.00000000000E+00 0.  1.
</event>
<event>
 5    1  0.1717518E-003  0.9118800E+02  0.7818608E-02  0.1130116E+00
         25   -1    0    0    0    0  0.00000000000E+00  0.00000000000E+00  0.99999998245E-14  0.12500000000E+03  0.12500000000E+03 0.  0.
        -11    1    3    3    0    0  0.44337061748E+02  0.36638442595E+02  0.22527878728E+02  0.61770995139E+02  0.51100000000E-03 0. -1.
         23    2    1    0    0    0  0.17028229495E+02  0.20075399096E+02  0.15420711088E+02  0.94491303222E+02  0.89430564157E+02 0.  0.
         11    1    3    3    0    0 -0.27308832252E+02 -0.16563043499E+02 -0.71071676406E+01  0.32720308083E+02  0.51100000000E-03 0.  1.
         22    1    1    0    0    0 -0.17028229495E+02 -0.20075399096E+02 -0.15420711088E+02  0.30508696778E+02  0.00000000000E+00 0. -1.
</event>
<event>
 5    1  0.1717518E-003  0.9118800E+02  0.7818608E-02  0.1130116E+00
         25   -1    0    0    0    0  0.00000000000E+00  0.00000000000E+00  0.99999998245E-14  0.12500000000E+03  0.12500000000E+03 0.  0.
        -11    1    3    3    0    0 -0.16940791364E+02 -0.20382103130E+02  0.23353007393E+02  0.35323979031E+02  0.51100000000E-03 0.  1.
         23    2    1    0    0    0  0.21433436397E+02  0.20896749235E+02  0.11597348269E+02  0.92897588701E+02  0.87174521365E+02 0.  0.
         11    1    3    3    0    0  0.38374227760E+02  0.41278852365E+02 -0.11755659124E+02  0.57573609670E+02  0.51100000000E-03 0. -1.
         22    1    1    0    0    0 -0.21433436397E+02 -0.20896749235E+02 -0.11597348269E+02  0.32102411299E+02  0.00000000000E+00 0. -1.
</event>
<event>
 5    1  0.1717518E-003  0.9118800E+02  0.7818608E-02  0.1130116E+00
         25   -1    0    0    0    0  0.00000000000E+00  0.00000000000E+00  0.99999998245E-14  0.12500000000E+03  0.12500000000E+03 0.  0.
        -11    1    3    3    0    0  0.16001966689E+02 -0.85443010345E+01 -0.37821344996E+02  0.41946658456E+02  0.51100000000E-03 0.  1.
         23    2    1    0    0    0 -0.19158358168E+02 -0.22891610616E+02 -0.56754272735E+00  0.95143834321E+02  0.90338024000E+02 0.  0.
         11    1    3    3    0    0 -0.35160324857E+02 -0.14347309582E+02  0.37253802268E+02  0.53197175865E+02  0.51100000000E-03 0. -1.
         22    1    1    0    0    0  0.19158358168E+02  0.22891610616E+02  0.56754272735E+00  0.29856165679E+02  0.00000000000E+00 0. -1.
</event>
<event>
 5    1  0.1717518E-003  0.9118800E+02  0.7818608E-02  0.1130116E+00
         25   -1    0    0    0    0  0.00000000000E+00  0.00000000000E+00  0.99999998245E-14  0.12500000000E+03  0.12500000000E+03 0.  0.
        -11    1    3    3    0    0 -0.29593496212E+02  0.24712411624E+02 -0.22650854765E+02  0.44716211021E+02  0.51100000000E-03 0. -1.
         23    2    1    0    0    0 -0.33245830736E+02 -0.99741157191E+01 -0.28509027377E+02  0.80083044541E+02  0.66300536463E+02 0.  0.
         11    1    3    3    0    0 -0.36523345244E+01 -0.34686527343E+02 -0.58581726129E+01  0.35366833520E+02  0.51100000000E-03 0.  1.
         22    1    1    0    0    0  0.33245830736E+02  0.99741157191E+01  0.28509027377E+02  0.44916955459E+02  0.00000000000E+00 0. -1.
</event>
<event>
 5    1  0.1717518E-003  0.9118800E+02  0.7818608E-02  0.1130116E+00
         25   -1    0    0    0    0  0.00000000000E+00  0.00000000000E+00  0.99999998245E-14  0.12500000000E+03  0.12500000000E+03 0.  0.
        -11    1    3    3    0    0 -0.23388761967E+02 -0.45836185881E+01 -0.24957682249E+02  0.34509848583E+02  0.51100000000E-03 0. -1.
         23    2    1    0    0    0  0.64118112612E+01  0.58894023300E+01  0.27727087603E+02  0.95938207722E+02  0.91430585312E+02 0.  0.
         11    1    3    3    0    0  0.29800573229E+02  0.10473020918E+02  0.52684769852E+02  0.61428359139E+02  0.51100000000E-03 0.  1.
         22    1    1    0    0    0 -0.64118112612E+01 -0.58894023300E+01 -0.27727087603E+02  0.29061792278E+02  0.00000000000E+00 0.  1.
</event>
<event>
 5    1  0.1717518E-003  0.9118800E+02  0.7818608E-02  0.1130116E+00
         25   -1    0    0    0    0  0.00000000000E+00  0.00000000000E+00  0.99999998245E-14  0.12500000000E+03  0.12500000000E+03 0.  0.
        -11    1    3    3    0    0 -0.59656128152E+01 -0.20476126191E+02  0.31814532545E+02  0.38301759247E+02  0.51100000000E-03 0. -1.
         23    2    1    0    0    0 -0.25501089774E+02  0.41056630382E+01 -0.15343703895E+02  0.94956842745E+02  0.90078913660E+02 0.  0.
         11    1    3    3    0    0 -0.19535476958E+02  0.24581789229E+02 -0.47158236441E+02  0.56655083498E+02  0.51100000000E-03 0.  1.
         22    1    1    0    0    0  0.25501089774E+02 -0.41056630382E+01  0.15343703895E+02  0.30043157255E+02  0.00000000000E+00 0.  1.
</event>
<event>
 5    1  0.1717518E-003  0.9118800E+02  0.7818608E-02  0.1130116E+00
         25   -1    0    0    0    0  0.00000000000E+00  0.00000000000E+00  0.99999998245E-14  0.12500000000E+03  0.12500000000E+03 0.  0.
        -11    1    3    3    0    0 -0.22785367412E+02 -0.26509720979E+02  0.39618023454E+01  0.35180024908E+02  0.51100000000E-03 0.  1.
         23    2    1    0    0    0  0.25034216375E+02  0.66458870471E+01 -0.13310407438E+02  0.95878757747E+02  0.91349271682E+02 0.  0.
         11    1    3    3    0    0  0.47819583788E+02  0.33155608026E+02 -0.17272209784E+02  0.60698732839E+02  0.51100000000E-03 0. -1.
         22    1    1    0    0    0 -0.25034216375E+02 -0.66458870471E+01  0.13310407438E+02  0.29121242253E+02  0.00000000000E+00 0. -1.
</event>
<event>
 5    1  0.1717518E-003  0.9118800E+02  0.7818608E-02  0.1130116E+00
         25   -1    0    0    0    0  0.00000000000E+00  0.00000000000E+00  0.99999998245E-14  0.12500000000E+03  0.12500000000E+03 0.  0.
        -11    1    3    3    0    0 -0.35024210937E+02  0.88510202313E+01  0.25055854529E+02  0.43963982501E+02  0.51100000000E-03 0.  1.
         23    2    1    0    0    0  0.12889581938E+02  0.23604174672E+02  0.99531889203E+01  0.96323104175E+02  0.91955293723E+02 0.  0.
         11    1    3    3    0    0  0.47913792875E+02  0.14753154441E+02 -0.15102665609E+02  0.52359121673E+02  0.51100000000E-03 0. -1.
         22    1    1    0    0    0 -0.12889581938E+02 -0.23604174672E+02 -0.99531889203E+01  0.28676895825E+02  0.00000000000E+00 0. -1.
</event>
<event>
 5    1  0.1717518E-003  0.9118800E+02  0.7818608E-02  0.1130116E+00
         25   -1    0    0    0    0  0.00000000000E+00  0.00000000000E+00  0.99999998245E-14  0.12500000000E+03  0.12500000000E+03 0.  0.
        -11    1    3    3    0    0  0.56866820597E+01  0.45524231315E+02 -0.24329310121E+02  0.51929849998E+02  0.51100000000E-03 0.  1.
         23    2    1    0    0    0  0.82917214808E+01  0.24898888137E+02  0.13793467024E+02  0.95352622239E+02  0.90626461698E+02 0.  0.
         11    1    3    3    0    0  0.26050394210E+01 -0.20625343178E+02  0.38122777145E+02  0.43422772241E+02  0.51100000000E-03 0. -1.
         22    1    1    0    0    0 -0.82917214808E+01 -0.24898888137E+02 -0.13793467024E+02  0.29647377761E+02  0.00000000000E+00 0.  1.
</event>
<event>
 5    1  0.1717518E-003  0.9118800E+02  0.7818608E-02  0.1130116E+00
         25   -1    0    0    0    0  0.00000000000E+00  0.00000000000E+00  0.99999998245E-14  0.12500000000E+03  0.12500000000E+03 0.  0.
        -11    1    3    3    0    0  0.30492156034E+02 -0.25692322939E+02 -0.45299948163E+01  0.40129638559E+02  0.51100000000E-03 0. -1.
         23    2    1    0    0    0 -0.88270518923E+01  0.63365023286E+01 -0.27222843823E+02  0.95688716632E+02  0.91088853094E+02 0.  0.
         11    1    3    3    0    0 -0.39319207926E+02  0.32028825268E+02 -0.22692849007E+02  0.55559078073E+02  0.51100000000E-03 0.  1.
         22    1    1    0    0    0  0.88270518923E+01 -0.63365023286E+01  0.27222843823E+02  0.29311283368E+02  0.00000000000E+00 0.  1.
</event>
<event>
 5    1  0.1717518E-003  0.9118800E+02  0.7818608E-02  0.1130116E+00
         25   -1    0    0    0    0  0.00000000000E+00  0.00000000000E+00  0.99999998245E-14  0.12500000000E+03  0.12500000000E+03 0.  0.
        -11    1    3    3    0    0 -0.45615763033E+01 -0.93188390206E+01 -0.29665378877E+02  0.31427431382E+02  0.51100000000E-03 0.  1.
         23    2    1    0    0    0 -0.25720112192E+01  0.21529916539E+02  0.23561410655E+02  0.92979809183E+02  0.87292338127E+02 0.  0.
         11    1    3    3    0    0  0.19895650841E+01  0.30848755560E+02  0.53226789532E+02  0.61552377801E+02  0.51100000000E-03 0. -1.
         22    1    1    0    0    0  0.25720112192E+01 -0.21529916539E+02 -0.23561410655E+02  0.32020190817E+02  0.00000000000E+00 0. -1.
</event>
<event>
 5    1  0.1717518E-003  0.9118800E+02  0.7818608E-02  0.1130116E+00
         25   -1    0    0    0    0  0.00000000000E+00  0.00000000000E+00  0.99999998245E-14  0.12500000000E+03  0.12500000000E+03 0.  0.
        -11    1    3    3    0    0  0.17876051713E+01 -0.33144071177E+02  0.12001405699E+02  0.35295307414E+02  0.51100000000E-03 0.  1.
         23    2    1    0    0    0  0.15520039897E-01  0.27269419580E+02  0.10575813343E+02  0.95751592984E+02  0.91175096633E+02 0.  0.
         11    1    3    3    0    0 -0.17720851314E+01  0.60413490757E+02 -0.14255923564E+01  0.60456285570E+02  0.51100000000E-03 0. -1.
         22    1    1    0    0    0 -0.15520039897E-01 -0.27269419580E+02 -0.10575813343E+02  0.29248407016E+02  0.00000000000E+00 0. -1.
</event>
<event>
 5    1  0.1717518E-003  0.9118800E+02  0.7818608E-02  0.1130116E+00
         25   -1    0    0    0    0  0.00000000000E+00  0.00000000000E+00  0.99999998245E-14  0.12500000000E+03  0.12500000000E+03 0.  0.
        -11    1    3    3    0    0  0.31301274670E+02  0.23955164748E+02  0.28310076824E+02  0.48529168178E+02  0.51100000000E-03 0. -1.
         23    2    1    0    0    0  0.11640716287E+01  0.29221382793E+02 -0.66739910601E+01  0.95003559681E+02  0.90143718141E+02 0.  0.
         11    1    3    3    0    0 -0.30137203041E+02  0.52662180455E+01 -0.34984067884E+02  0.46474391503E+02  0.51100000000E-03 0.  1.
         22    1    1    0    0    0 -0.11640716287E+01 -0.29221382793E+02  0.66739910601E+01  0.29996440319E+02  0.00000000000E+00 0.  1.
</event>
<event>
 5    1  0.1717518E-003  0.9118800E+02  0.7818608E-02  0.1130116E+00
         25   -1    0    0    0    0  0.00000000000E+00  0.00000000000E+00  0.99999998245E-14  0.12500000000E+03  0.12500000000E+03 0.  0.
        -11    1    3    3    0    0 -0.31216017528E+02 -0.37819678537E+01  0.14412426543E+02  0.34589898385E+02  0.51100000000E-03 0.  1.
         23    2    1    0    0    0  0.24053005487E+02  0.69806461805E+01 -0.12511851467E+02  0.97003162300E+02  0.92875134320E+02 0.  0.
         11    1    3    3    0    0  0.55269023015E+02  0.10762614034E+02 -0.26924278010E+02  0.62413263915E+02  0.51100000000E-03 0. -1.
         22    1    1    0    0    0 -0.24053005487E+02 -0.69806461805E+01  0.12511851467E+02  0.27996837700E+02  0.00000000000E+00 0. -1.
</event>
<event>
 5    1  0.1717518E-003  0.9118800E+02  0.7818608E-02  0.1130116E+00
         25   -1    0    0    0    0  0.00000000000E+00  0.00000000000E+00  0.99999998245E-14  0.12500000000E+03  0.12500000000E+03 0.  0.
        -11    1    3    3    0    0 -0.28229005449E+02 -0.16430286905E+02  0.29319086670E+02  0.43891228279E+02  0.51100000000E-03 0. -1.
         23    2    1    0    0    0 -0.12500365305E+02 -0.21909063758E+02 -0.17971026355E+02  0.94028658476E+02  0.88781555624E+02 0.  0.
         11    1    3    3    0    0  0.15728640144E+02 -0.54787768526E+01 -0.47290113025E+02  0.50137430197E+02  0.51100000000E-03 0.  1.
         22    1    1    0    0    0  0.12500365305E+02  0.21909063758E+02  0.17971026355E+02  0.30971341524E+02  0.00000000000E+00 0.  1.
</event>
<event>
 5    1  0.1717518E-003  0.9118800E+02  0.7818608E-02  0.1130116E+00
         25   -1    0    0    0    0  0.00000000000E+00  0.00000000000E+00  0.99999998245E-14  0.12500000000E+03  0.12500000000E+03 0.  0.
        -11    1    3    3    0    0 -0.24410801145E+02 -0.19784158822E+02 -0.20077876833E+02  0.37288353292E+02  0.51100000000E-03 0. -1.
         23    2    1    0    0    0  0.26057285801E+01  0.38392452068E+01  0.27627483152E+02  0.96985584952E+02  0.92851474075E+02 0.  0.
         11    1    3    3    0    0  0.27016529726E+02  0.23623404029E+02  0.47705359985E+02  0.59697231660E+02  0.51100000000E-03 0.  1.
         22    1    1    0    0    0 -0.26057285801E+01 -0.38392452068E+01 -0.27627483152E+02  0.28014415048E+02  0.00000000000E+00 0.  1.
</event>
<event>
 5    1  0.1717518E-003  0.9118800E+02  0.7818608E-02  0.1130116E+00
         25   -1    0    0    0    0  0.00000000000E+00  0.00000000000E+00  0.99999998245E-14  0.12500000000E+03  0.12500000000E+03 0.  0.
        -11    1    3    3    0    0 -0.25224178148E+02  0.29930069134E+02  0.30110206873E+02  0.49383122216E+02  0.51100000000E-03 0. -1.
         23    2    1    0    0    0 -0.28014533107E+02 -0.68265346002E+01  0.13561407315E+01  0.96133847545E+02  0.91697665654E+02 0.  0.
         11    1    3    3    0    0 -0.27903549585E+01 -0.36756603734E+02 -0.28754066142E+02  0.46750725329E+02  0.51100000000E-03 0.  1.
         22    1    1    0    0    0  0.28014533107E+02  0.68265346002E+01 -0.13561407315E+01  0.28866152455E+02  0.00000000000E+00 0.  1.
</event>
<event>
 5    1  0.1717518E-003  0.9118800E+02  0.7818608E-02  0.1130116E+00
         25   -1    0    0    0    0  0.00000000000E+00  0.00000000000E+00  0.99999998245E-14  0.12500000000E+03  0.12500000000E+03 0.  0.
        -11    1    3    3    0    0 -0.32668363341E+02  0.34900433910E+01 -0.19089357957E+02  0.37997446674E+02  0.51100000000E-03 0.  1.
         23    2    1    0    0    0  0.23675736692E+02  0.10766977793E+02 -0.15044394779E+02  0.94953334079E+02  0.90074044651E+02 0.  0.
         11    1    3    3    0    0  0.56344100033E+02  0.72769344016E+01  0.40449631779E+01  0.56955887406E+02  0.51100000000E-03 0. -1.
         22    1    1    0    0    0 -0.23675736692E+02 -0.10766977793E+02  0.15044394779E+02  0.30046665921E+02  0.00000000000E+00 0. -1.
</event>
<event>
 5    1  0.1717518E-003  0.9118800E+02  0.7818608E-02  0.1130116E+00
         25   -1    0    0    0    0  0.00000000000E+00  0.00000000000E+00  0.99999998245E-14  0.12500000000E+03  0.12500000000E+03 0.  0.
        -11    1    3    3    0    0 -0.59437804138E+01 -0.38897416647E+02 -0.27180458995E+02  0.47823790093E+02  0.51100000000E-03 0. -1.
         23    2    1    0    0    0 -0.53478275849E+01 -0.33001829550E+02  0.13508318472E+02  0.88941787600E+02  0.81304654849E+02 0.  0.
         11    1    3    3    0    0  0.59595282894E+00  0.58955870971E+01  0.40688777467E+02  0.41117997507E+02  0.51100000000E-03 0.  1.
         22    1    1    0    0    0  0.53478275849E+01  0.33001829550E+02 -0.13508318472E+02  0.36058212400E+02  0.00000000000E+00 0.  1.
</event>
<event>
 5    1  0.1717518E-003  0.9118800E+02  0.7818608E-02  0.1130116E+00
         25   -1    0    0    0    0  0.00000000000E+00  0.00000000000E+00  0.99999998245E-14  0.12500000000E+03  0.12500000000E+03 0.  0.
        -11    1    3    3    0    0 -0.15104418790E+02  0.51928003133E+02  0.29703548133E+02  0.61700581426E+02  0.51100000000E-03 0. -1.
         23    2    1    0    0    0 -0.88038100237E+01  0.19810140774E+02  0.19106885317E+02  0.96103255980E+02  0.91655954499E+02 0.  0.
         11    1    3    3    0    0  0.63006087662E+01 -0.32117862359E+02 -0.10596662816E+02  0.34402674554E+02  0.51100000000E-03 0.  1.
         22    1    1    0    0    0  0.88038100237E+01 -0.19810140774E+02 -0.19106885317E+02  0.28896744020E+02  0.00000000000E+00 0. -1.
</event>
<event>
 5    1  0.1717518E-003  0.9118800E+02  0.7818608E-02  0.1130116E+00
         25   -1    0    0    0    0  0.00000000000E+00  0.00000000000E+00  0.99999998245E-14  0.12500000000E+03  0.12500000000E+03 0.  0.
        -11    1    3    3    0    0  0.14714979266E+02 -0.21765325376E+02 -0.37120275495E+02  0.45477190509E+02  0.51100000000E-03 0. -1.
         23    2    1    0    0    0 -0.30022128376E+01  0.21026263696E+02 -0.22533455602E+02  0.94034314665E+02  0.88789518898E+02 0.  0.
         11    1    3    3    0    0 -0.17717192104E+02  0.42791589072E+02  0.14586819893E+02  0.48557124155E+02  0.51100000000E-03 0.  1.
         22    1    1    0    0    0  0.30022128376E+01 -0.21026263696E+02  0.22533455602E+02  0.30965685335E+02  0.00000000000E+00 0.  1.
</event>
<event>
 5    1  0.1717518E-003  0.9118800E+02  0.7818608E-02  0.1130116E+00
         25   -1    0    0    0    0  0.00000000000E+00  0.00000000000E+00  0.99999998245E-14  0.12500000000E+03  0.12500000000E+03 0.  0.
        -11    1    3    3    0    0 -0.28185096344E+02 -0.30607884608E+02 -0.28158817635E+01  0.41703374521E+02  0.51100000000E-03 0.  1.
         23    2    1    0    0    0  0.84329334980E+01  0.57337750724E+01  0.23328216201E+02  0.99540302141E+02  0.96229286265E+02 0.  0.
         11    1    3    3    0    0  0.36618029842E+02  0.36341659680E+02  0.26144097965E+02  0.57836927620E+02  0.51100000000E-03 0. -1.
         22    1    1    0    0    0 -0.84329334980E+01 -0.57337750724E+01 -0.23328216201E+02  0.25459697859E+02  0.00000000000E+00 0. -1.
</event>
<event>
 5    1  0.1717518E-003  0.9118800E+02  0.7818608E-02  0.1130116E+00
         25   -1    0    0    0    0  0.00000000000E+00  0.00000000000E+00  0.99999998245E-14  0.12500000000E+03  0.12500000000E+03 0.  0.
        -11    1    3    3    0    0  0.89120584333E+01 -0.65884604948E+00 -0.34222780494E+02  0.35370292176E+02  0.51100000000E-03 0.  1.
         23    2    1    0    0    0  0.11968869317E+02 -0.37653540800E+01  0.26200253310E+02  0.95950301248E+02  0.91447117571E+02 0.  0.
         11    1    3    3    0    0  0.30568108838E+01 -0.31065080305E+01  0.60423033803E+02  0.60580009072E+02  0.51100000000E-03 0. -1.
         22    1    1    0    0    0 -0.11968869317E+02  0.37653540800E+01 -0.26200253310E+02  0.29049698752E+02  0.00000000000E+00 0. -1.
</event>
<event>
 5    1  0.1717518E-003  0.9118800E+02  0.7818608E-02  0.1130116E+00
         25   -1    0    0    0    0  0.00000000000E+00  0.00000000000E+00  0.99999998245E-14  0.12500000000E+03  0.12500000000E+03 0.  0.
        -11    1    3    3    0    0  0.30747921719E+02 -0.10612369378E+02 -0.25019813030E+02  0.41037155337E+02  0.51100000000E-03 0. -1.
         23    2    1    0    0    0 -0.19505281107E+02 -0.21119118914E+02 -0.74260967821E+01  0.95307912027E+02  0.90564772439E+02 0.  0.
         11    1    3    3    0    0 -0.50253202826E+02 -0.10506749535E+02  0.17593716248E+02  0.54270756690E+02  0.51100000000E-03 0.  1.
         22    1    1    0    0    0  0.19505281107E+02  0.21119118914E+02  0.74260967821E+01  0.29692087973E+02  0.00000000000E+00 0.  1.
</event>
<event>
 5    1  0.1717518E-003  0.9118800E+02  0.7818608E-02  0.1130116E+00
         25   -1    0    0    0    0  0.00000000000E+00  0.00000000000E+00  0.99999998245E-14  0.12500000000E+03  0.12500000000E+03 0.  0.
        -11    1    3    3    0    0  0.55303425264E+02 -0.21627630592E+02  0.92273081936E+01  0.60094645915E+02  0.51100000000E-03 0.  1.
         23    2    1    0    0    0  0.20075947315E+02 -0.18899912870E+02  0.10614556241E+02  0.95454794445E+02  0.90767277205E+02 0.  0.
         11    1    3    3    0    0 -0.35227477949E+02  0.27277177219E+01  0.13872480476E+01  0.35360148529E+02  0.51100000000E-03 0. -1.
         22    1    1    0    0    0 -0.20075947315E+02  0.18899912870E+02 -0.10614556241E+02  0.29545205555E+02  0.00000000000E+00 0.  1.
</event>
<event>
 5    1  0.1717518E-003  0.9118800E+02  0.7818608E-02  0.1130116E+00
         25   -1    0    0    0    0  0.00000000000E+00  0.00000000000E+00  0.99999998245E-14  0.12500000000E+03  0.12500000000E+03 0.  0.
        -11    1    3    3    0    0 -0.43056948509E+02 -0.85765788546E+01 -0.35396414814E+01  0.44045290121E+02  0.51100000000E-03 0. -1.
         23    2    1    0    0    0  0.63194378363E+01  0.71780210686E+01 -0.23533942880E+02  0.99597131097E+02  0.96303077699E+02 0.  0.
         11    1    3    3    0    0  0.49376386345E+02  0.15754599923E+02 -0.19994301398E+02  0.55551840977E+02  0.51100000000E-03 0.  1.
         22    1    1    0    0    0 -0.63194378363E+01 -0.71780210686E+01  0.23533942880E+02  0.25402868903E+02  0.00000000000E+00 0.  1.
</event>
<event>
 5    1  0.1717518E-003  0.9118800E+02  0.7818608E-02  0.1130116E+00
         25   -1    0    0    0    0  0.00000000000E+00  0.00000000000E+00  0.99999998245E-14  0.12500000000E+03  0.12500000000E+03 0.  0.
        -11    1    3    3    0    0 -0.55551665017E+02  0.27197828058E+02  0.59325431779E+00  0.61855163796E+02  0.51100000000E-03 0.  1.
         23    2    1    0    0    0 -0.24003621198E+02  0.15174679628E+02  0.58001103411E+01  0.96015762691E+02  0.91536553752E+02 0.  0.
         11    1    3    3    0    0  0.31548043819E+02 -0.12023148431E+02  0.52068560233E+01  0.34160598895E+02  0.51100000000E-03 0. -1.
         22    1    1    0    0    0  0.24003621198E+02 -0.15174679628E+02 -0.58001103411E+01  0.28984237309E+02  0.00000000000E+00 0.  1.
</event>
<event>
 5    1  0.1717518E-003  0.9118800E+02  0.7818608E-02  0.1130116E+00
         25   -1    0    0    0    0  0.00000000000E+00  0.00000000000E+00  0.99999998245E-14  0.12500000000E+03  0.12500000000E+03 0.  0.
        -11    1    3    3    0    0  0.15465436562E+02 -0.24299852330E+02  0.31134700940E+02  0.42414999165E+02  0.51100000000E-03 0.  1.
         23    2    1    0    0    0  0.21936352171E+02 -0.84198232992E+01 -0.18606083044E+02  0.95028625370E+02  0.90178469396E+02 0.  0.
         11    1    3    3    0    0  0.64709156093E+01  0.15880029031E+02 -0.49740783984E+02  0.52613626205E+02  0.51100000000E-03 0. -1.
         22    1    1    0    0    0 -0.21936352171E+02  0.84198232992E+01  0.18606083044E+02  0.29971374630E+02  0.00000000000E+00 0. -1.
</event>
<event>
 5    1  0.1717518E-003  0.9118800E+02  0.7818608E-02  0.1130116E+00
         25   -1    0    0    0    0  0.00000000000E+00  0.00000000000E+00  0.99999998245E-14  0.12500000000E+03  0.12500000000E+03 0.  0.
        -11    1    3    3    0    0  0.32628001395E+02 -0.32392104306E+02 -0.12798653185E+02  0.47724631167E+02  0.51100000000E-03 0.  1.
         23    2    1    0    0    0 -0.93293377157E+01 -0.96284700620E+01 -0.24678058257E+02  0.96915297094E+02  0.92756801764E+02 0.  0.
         11    1    3    3    0    0 -0.41957339110E+02  0.22763634244E+02 -0.11879405072E+02  0.49190665927E+02  0.51100000000E-03 0. -1.
         22    1    1    0    0    0  0.93293377157E+01  0.96284700620E+01  0.24678058257E+02  0.28084702906E+02  0.00000000000E+00 0.  1.
</event>
<event>
 5    1  0.1717518E-003  0.9118800E+02  0.7818608E-02  0.1130116E+00
         25   -1    0    0    0    0  0.00000000000E+00  0.00000000000E+00  0.99999998245E-14  0.12500000000E+03  0.12500000000E+03 0.  0.
        -11    1    3    3    0    0  0.46981499985E+01  0.54135164922E+02  0.47239334467E+01  0.54543599460E+02  0.51100000000E-03 0.  1.
         23    2    1    0    0    0  0.92681913215E+01  0.14063416101E+02  0.21038693980E+02  0.98049940869E+02  0.94273459771E+02 0.  0.
         11    1    3    3    0    0  0.45700413229E+01 -0.40071748821E+02  0.16314760533E+02  0.43506341409E+02  0.51100000000E-03 0. -1.
         22    1    1    0    0    0 -0.92681913215E+01 -0.14063416101E+02 -0.21038693980E+02  0.26950059131E+02  0.00000000000E+00 0.  1.
</event>
<event>
 5    1  0.1717518E-003  0.9118800E+02  0.7818608E-02  0.1130116E+00
         25   -1    0    0    0    0  0.00000000000E+00  0.00000000000E+00  0.99999998245E-14  0.12500000000E+03  0.12500000000E+03 0.  0.
        -11    1    3    3    0    0 -0.26959419787E+02  0.30084869140E+02  0.80261583637E+01  0.41186513385E+02  0.51100000000E-03 0.  1.
         23    2    1    0    0    0  0.66824359521E+01  0.13647143492E+01 -0.26712469433E+02  0.97430570940E+02  0.93448610128E+02 0.  0.
         11    1    3    3    0    0  0.33641855739E+02 -0.28720154791E+02 -0.34738627797E+02  0.56244057555E+02  0.51100000000E-03 0. -1.
         22    1    1    0    0    0 -0.66824359521E+01 -0.13647143492E+01  0.26712469433E+02  0.27569429060E+02  0.00000000000E+00 0. -1.
</event>
<event>
 5    1  0.1717518E-003  0.9118800E+02  0.7818608E-02  0.1130116E+00
         25   -1    0    0    0    0  0.00000000000E+00  0.00000000000E+00  0.99999998245E-14  0.12500000000E+03  0.12500000000E+03 0.  0.
        -11    1    3    3    0    0 -0.33427308356E+02 -0.22351330274E+02  0.39806777444E+02  0.56582209568E+02  0.51100000000E-03 0. -1.
         23    2    1    0    0    0 -0.84436547536E+01 -0.26265906153E+02  0.10041131022E+02  0.95639866420E+02  0.91021791923E+02 0.  0.
         11    1    3    3    0    0  0.24983653602E+02 -0.39145758794E+01 -0.29765646421E+02  0.39057656852E+02  0.51100000000E-03 0.  1.
         22    1    1    0    0    0  0.84436547536E+01  0.26265906153E+02 -0.10041131022E+02  0.29360133580E+02  0.00000000000E+00 0. -1.
</event>
<event>
 5    1  0.1717518E-003  0.9118800E+02  0.7818608E-02  0.1130116E+00
         25   -1    0    0    0    0  0.00000000000E+00  0.00000000000E+00  0.99999998245E-14  0.12500000000E+03  0.12500000000E+03 0.  0.
        -11    1    3    3    0    0  0.90701664781E+01 -0.24379264774E+02  0.40442616448E+02  0.48085566403E+02  0.51100000000E-03 0.  1.
         23    2    1    0    0    0  0.24283749097E+02 -0.16214090639E+02 -0.37778288934E+01  0.95557357513E+02  0.90908412032E+02 0.  0.
         11    1    3    3    0    0  0.15213582619E+02  0.81651741348E+01 -0.44220445341E+02  0.47471791110E+02  0.51100000000E-03 0. -1.
         22    1    1    0    0    0 -0.24283749097E+02  0.16214090639E+02  0.37778288934E+01  0.29442642487E+02  0.00000000000E+00 0.  1.
</event>
<event>
 5    1  0.1717518E-003  0.9118800E+02  0.7818608E-02  0.1130116E+00
         25   -1    0    0    0    0  0.00000000000E+00  0.00000000000E+00  0.99999998245E-14  0.12500000000E+03  0.12500000000E+03 0.  0.
        -11    1    3    3    0    0  0.49634423978E+02  0.73144472564E+01  0.32401084969E+02  0.59723592405E+02  0.51100000000E-03 0. -1.
         23    2    1    0    0    0  0.11975944272E+02  0.58305022826E+01  0.22766438208E+02  0.98623330257E+02  0.95030692748E+02 0.  0.
         11    1    3    3    0    0 -0.37658479706E+02 -0.14839449738E+01 -0.96346467619E+01  0.38899737852E+02  0.51100000000E-03 0.  1.
         22    1    1    0    0    0 -0.11975944272E+02 -0.58305022826E+01 -0.22766438208E+02  0.26376669743E+02  0.00000000000E+00 0. -1.
</event>
<event>
 5    1  0.1717518E-003  0.9118800E+02  0.7818608E-02  0.1130116E+00
         25   -1    0    0    0    0  0.00000000000E+00  0.00000000000E+00  0.99999998245E-14  0.12500000000E+03  0.12500000000E+03 0.  0.
        -11    1    3    3    0    0  0.28524839094E+02  0.21111096845E+02 -0.45588567933E+02  0.57772505413E+02  0.51100000000E-03 0.  1.
         23    2    1    0    0    0  0.14350408692E+02 -0.71255752450E+01 -0.24383769549E+02  0.95823360892E+02  0.91273436568E+02 0.  0.
         11    1    3    3    0    0 -0.14174430402E+02 -0.28236672090E+02  0.21204798383E+02  0.38050855479E+02  0.51100000000E-03 0. -1.
         22    1    1    0    0    0 -0.14350408692E+02  0.71255752450E+01  0.24383769549E+02  0.29176639108E+02  0.00000000000E+00 0.  1.
</event>
<event>
 5    1  0.1717518E-003  0.9118800E+02  0.7818608E-02  0.1130116E+00
         25   -1    0    0    0    0  0.00000000000E+00  0.00000000000E+00  0.99999998245E-14  0.12500000000E+03  0.12500000000E+03 0.  0.
        -11    1    3    3    0    0  0.18256606332E+02 -0.26478037646E+02 -0.23094854832E+02  0.39594980393E+02  0.51100000000E-03 0. -1.
         23    2    1    0    0    0 -0.27724126179E+02 -0.18062873825E+01  0.12773363934E+01  0.97187746680E+02  0.93123233782E+02 0.  0.
         11    1    3    3    0    0 -0.45980732510E+02  0.24671750263E+02  0.24372191225E+02  0.57592766287E+02  0.51100000000E-03 0.  1.
         22    1    1    0    0    0  0.27724126179E+02  0.18062873825E+01 -0.12773363934E+01  0.27812253320E+02  0.00000000000E+00 0.  1.
</event>
<event>
 5    1  0.1717518E-003  0.9118800E+02  0.7818608E-02  0.1130116E+00
         25   -1    0    0    0    0  0.00000000000E+00  0.00000000000E+00  0.99999998245E-14  0.12500000000E+03  0.12500000000E+03 0.  0.
        -11    1    3    3    0    0 -0.52734052156E+02  0.29287417556E+02  0.49375567386E+01  0.60522826691E+02  0.51100000000E-03 0. -1.
         23    2    1    0    0    0 -0.28009020744E+02  0.11721892578E+02  0.13100284652E+02  0.91931503412E+02  0.85778061606E+02 0.  0.
         11    1    3    3    0    0  0.24725031412E+02 -0.17565524978E+02  0.81627279138E+01  0.31408676720E+02  0.51100000000E-03 0.  1.
         22    1    1    0    0    0  0.28009020744E+02 -0.11721892578E+02 -0.13100284652E+02  0.33068496588E+02  0.00000000000E+00 0. -1.
</event>
<event>
 5    1  0.1717518E-003  0.9118800E+02  0.7818608E-02  0.1130116E+00
         25   -1    0    0    0    0  0.00000000000E+00  0.00000000000E+00  0.99999998245E-14  0.12500000000E+03  0.12500000000E+03 0.  0.
        -11    1    3    3    0    0  0.23613207232E+02  0.18669178552E+02  0.22097171911E+02  0.37341756658E+02  0.51100000000E-03 0.  1.
         23    2    1    0    0    0 -0.22233270218E+02 -0.15250802123E+02  0.12909668877E+02  0.95107445400E+02  0.90287658902E+02 0.  0.
         11    1    3    3    0    0 -0.45846477450E+02 -0.33919980675E+02 -0.91875030337E+01  0.57765688742E+02  0.51100000000E-03 0. -1.
         22    1    1    0    0    0  0.22233270218E+02  0.15250802123E+02 -0.12909668877E+02  0.29892554600E+02  0.00000000000E+00 0. -1.
</event>
<event>
 5    1  0.1717518E-003  0.9118800E+02  0.7818608E-02  0.1130116E+00
         25   -1    0    0    0    0  0.00000000000E+00  0.00000000000E+00  0.99999998245E-14  0.12500000000E+03  0.12500000000E+03 0.  0.
        -11    1    3    3    0    0  0.88474396935E+01  0.35645018403E+02  0.23335747391E+02  0.43513235144E+02  0.51100000000E-03 0. -1.
         23    2    1    0    0    0  0.19803512112E+02 -0.15633486733E+02  0.37270370047E+01  0.99495572850E+02  0.96171166223E+02 0.  0.
         11    1    3    3    0    0  0.10956072418E+02 -0.51278505136E+02 -0.19608710386E+02  0.55982337707E+02  0.51100000000E-03 0.  1.
         22    1    1    0    0    0 -0.19803512112E+02  0.15633486733E+02 -0.37270370047E+01  0.25504427150E+02  0.00000000000E+00 0.  1.
</event>
<event>
 5    1  0.1717518E-003  0.9118800E+02  0.7818608E-02  0.1130116E+00
         25   -1    0    0    0    0  0.00000000000E+00  0.00000000000E+00  0.99999998245E-14  0.12500000000E+03  0.12500000000E+03 0.  0.
        -11    1    3    3    0    0 -0.24034021485E+02 -0.31194446464E+02  0.57152519720E+01  0.39791855754E+02  0.51100000000E-03 0. -1.
         23    2    1    0    0    0 -0.17557824871E+02  0.23749731401E+02 -0.47008959246E+00  0.95461077541E+02  0.90775929547E+02 0.  0.
         11    1    3    3    0    0  0.64761966143E+01  0.54944177865E+02 -0.61853415644E+01  0.55669221787E+02  0.51100000000E-03 0.  1.
         22    1    1    0    0    0  0.17557824871E+02 -0.23749731401E+02  0.47008959246E+00  0.29538922459E+02  0.00000000000E+00 0.  1.
</event>
<event>
 5    1  0.1717518E-003  0.9118800E+02  0.7818608E-02  0.1130116E+00
         25   -1    0    0    0    0  0.00000000000E+00  0.00000000000E+00  0.99999998245E-14  0.12500000000E+03  0.12500000000E+03 0.  0.
        -11    1    3    3    0    0  0.21835280534E+02  0.22655562292E+02  0.26638252060E+02  0.41226817144E+02  0.51100000000E-03 0.  1.
         23    2    1    0    0    0  0.27687750327E+02 -0.16632189955E+02 -0.53924329482E+01  0.92253708699E+02  0.86246316876E+02 0.  0.
         11    1    3    3    0    0  0.58524697935E+01 -0.39287752247E+02 -0.32030685009E+02  0.51026891554E+02  0.51100000000E-03 0. -1.
         22    1    1    0    0    0 -0.27687750327E+02  0.16632189955E+02  0.53924329482E+01  0.32746291301E+02  0.00000000000E+00 0. -1.
</event>
<event>
 5    1  0.1717518E-003  0.9118800E+02  0.7818608E-02  0.1130116E+00
         25   -1    0    0    0    0  0.00000000000E+00  0.00000000000E+00  0.99999998245E-14  0.12500000000E+03  0.12500000000E+03 0.  0.
        -11    1    3    3    0    0  0.40641583756E+02 -0.39252755829E+02  0.12090914266E+02  0.57781548772E+02  0.51100000000E-03 0.  1.
         23    2    1    0    0    0  0.94248773218E+01 -0.28130047659E+02 -0.47514541629E+01  0.94954963629E+02  0.90076306026E+02 0.  0.
         11    1    3    3    0    0 -0.31216706435E+02  0.11122708170E+02 -0.16842368429E+02  0.37173414858E+02  0.51100000000E-03 0. -1.
         22    1    1    0    0    0 -0.94248773218E+01  0.28130047659E+02  0.47514541629E+01  0.30045036371E+02  0.00000000000E+00 0.  1.
</event>
<event>
 5    1  0.1717518E-003  0.9118800E+02  0.7818608E-02  0.1130116E+00
         25   -1    0    0    0    0  0.00000000000E+00  0.00000000000E+00  0.99999998245E-14  0.12500000000E+03  0.12500000000E+03 0.  0.
        -11    1    3    3    0    0 -0.25646233019E+02  0.20759929222E+02  0.11740239346E+02  0.35021952395E+02  0.51100000000E-03 0.  1.
         23    2    1    0    0    0  0.90911105044E+01 -0.11178106848E+01 -0.30039221205E+02  0.93595341086E+02  0.88169355625E+02 0.  0.
         11    1    3    3    0    0  0.34737343524E+02 -0.21877739907E+02 -0.41779460551E+02  0.58573388691E+02  0.51100000000E-03 0. -1.
         22    1    1    0    0    0 -0.90911105044E+01  0.11178106848E+01  0.30039221205E+02  0.31404658914E+02  0.00000000000E+00 0. -1.
</event>
<event>
 5    1  0.1717518E-003  0.9118800E+02  0.7818608E-02  0.1130116E+00
         25   -1    0    0    0    0  0.00000000000E+00  0.00000000000E+00  0.99999998245E-14  0.12500000000E+03  0.12500000000E+03 0.  0.
        -11    1    3    3    0    0 -0.18119327110E+01 -0.25463799134E+02 -0.42394848785E+02  0.49487487006E+02  0.51100000000E-03 0.  1.
         23    2    1    0    0    0 -0.26421226479E+02 -0.98306101376E+01 -0.58995996327E+01  0.96198483023E+02  0.91785732856E+02 0.  0.
         11    1    3    3    0    0 -0.24609293768E+02  0.15633188996E+02  0.36495249152E+02  0.46710996017E+02  0.51100000000E-03 0. -1.
         22    1    1    0    0    0  0.26421226479E+02  0.98306101376E+01  0.58995996327E+01  0.28801516977E+02  0.00000000000E+00 0. -1.
</event>
<event>
 5    1  0.1717518E-003  0.9118800E+02  0.7818608E-02  0.1130116E+00
         25   -1    0    0    0    0  0.00000000000E+00  0.00000000000E+00  0.99999998245E-14  0.12500000000E+03  0.12500000000E+03 0.  0.
        -11    1    3    3    0    0  0.76146892557E-01  0.60799473933E+02 -0.50639292945E+01  0.61010041871E+02  0.51100000000E-03 0.  1.
         23    2    1    0    0    0 -0.87437698013E+01  0.27281259559E+02 -0.62027847438E+01  0.95687968818E+02  0.91087826873E+02 0.  0.
         11    1    3    3    0    0 -0.88199166938E+01 -0.33518214374E+02 -0.11388554493E+01  0.34677926947E+02  0.51100000000E-03 0. -1.
         22    1    1    0    0    0  0.87437698013E+01 -0.27281259559E+02  0.62027847438E+01  0.29312031182E+02  0.00000000000E+00 0.  1.
</event>
<event>
 5    1  0.1717518E-003  0.9118800E+02  0.7818608E-02  0.1130116E+00
         25   -1    0    0    0    0  0.00000000000E+00  0.00000000000E+00  0.99999998245E-14  0.12500000000E+03  0.12500000000E+03 0.  0.
        -11    1    3    3    0    0 -0.44623647360E+02  0.25519381240E+01 -0.37999804546E+02  0.58666578541E+02  0.51100000000E-03 0. -1.
         23    2    1    0    0    0 -0.28488969539E+02  0.46116713656E+01 -0.46548522409E+01  0.95767200826E+02  0.91196492292E+02 0.  0.
         11    1    3    3    0    0  0.16134677821E+02  0.20597332415E+01  0.33344952305E+02  0.37100622285E+02  0.51100000000E-03 0.  1.
         22    1    1    0    0    0  0.28488969539E+02 -0.46116713656E+01  0.46548522409E+01  0.29232799174E+02  0.00000000000E+00 0. -1.
</event>
<event>
 5    1  0.1717518E-003  0.9118800E+02  0.7818608E-02  0.1130116E+00
         25   -1    0    0    0    0  0.00000000000E+00  0.00000000000E+00  0.99999998245E-14  0.12500000000E+03  0.12500000000E+03 0.  0.
        -11    1    3    3    0    0 -0.22758342118E+02 -0.41995690364E+02  0.88510578711E+01  0.48579021921E+02  0.51100000000E-03 0. -1.
         23    2    1    0    0    0  0.80938660008E+01 -0.90456945006E+01  0.25554091856E+02  0.96709597627E+02  0.92479183640E+02 0.  0.
         11    1    3    3    0    0  0.30852208119E+02  0.32949995864E+02  0.16703033985E+02  0.48130575706E+02  0.51100000000E-03 0.  1.
         22    1    1    0    0    0 -0.80938660008E+01  0.90456945006E+01 -0.25554091856E+02  0.28290402373E+02  0.00000000000E+00 0. -1.
</event>
<event>
 5    1  0.1717518E-003  0.9118800E+02  0.7818608E-02  0.1130116E+00
         25   -1    0    0    0    0  0.00000000000E+00  0.00000000000E+00  0.99999998245E-14  0.12500000000E+03  0.12500000000E+03 0.  0.
        -11    1    3    3    0    0  0.54328957505E+02  0.23201324500E+02 -0.17181910084E+02  0.61523614300E+02  0.51100000000E-03 0. -1.
         23    2    1    0    0    0  0.25543920056E+02  0.13305759205E+02 -0.58602880037E+00  0.96192387992E+02  0.91777431856E+02 0.  0.
         11    1    3    3    0    0 -0.28785037450E+02 -0.98955652947E+01  0.16595881283E+02  0.34668773692E+02  0.51100000000E-03 0.  1.
         22    1    1    0    0    0 -0.25543920056E+02 -0.13305759205E+02  0.58602880037E+00  0.28807612008E+02  0.00000000000E+00 0. -1.
</event>
<event>
 5    1  0.1717518E-003  0.9118800E+02  0.7818608E-02  0.1130116E+00
         25   -1    0    0    0    0  0.00000000000E+00  0.00000000000E+00  0.99999998245E-14  0.12500000000E+03  0.12500000000E+03 0.  0.
        -11    1    3    3    0    0 -0.29252237301E+02  0.24337488988E+02 -0.26061260696E+02  0.46121535823E+02  0.51100000000E-03 0. -1.
         23    2    1    0    0    0 -0.26417265401E+02 -0.15175217338E+01  0.14892051332E+02  0.94636403764E+02  0.89633146442E+02 0.  0.
         11    1    3    3    0    0  0.28349718993E+01 -0.25855010722E+02  0.40953312028E+02  0.48514867942E+02  0.51100000000E-03 0.  1.
         22    1    1    0    0    0  0.26417265401E+02  0.15175217338E+01 -0.14892051332E+02  0.30363596236E+02  0.00000000000E+00 0.  1.
</event>
<event>
 5    1  0.1717518E-003  0.9118800E+02  0.7818608E-02  0.1130116E+00
         25   -1    0    0    0    0  0.00000000000E+00  0.00000000000E+00  0.99999998245E-14  0.12500000000E+03  0.12500000000E+03 0.  0.
        -11    1    3    3    0    0 -0.46670171598E+02 -0.14174102470E+02  0.20333809268E+01  0.48817463434E+02  0.51100000000E-03 0. -1.
         23    2    1    0    0    0 -0.37416872316E+01 -0.23370195343E+02 -0.16161204063E+02  0.96340782103E+02  0.91979321185E+02 0.  0.
         11    1    3    3    0    0  0.42928484367E+02 -0.91960928730E+01 -0.18194584990E+02  0.47523318669E+02  0.51100000000E-03 0.  1.
         22    1    1    0    0    0  0.37416872316E+01  0.23370195343E+02  0.16161204063E+02  0.28659217897E+02  0.00000000000E+00 0. -1.
</event>
<event>
 5    1  0.1717518E-003  0.9118800E+02  0.7818608E-02  0.1130116E+00
         25   -1    0    0    0    0  0.00000000000E+00  0.00000000000E+00  0.99999998245E-14  0.12500000000E+03  0.12500000000E+03 0.  0.
        -11    1    3    3    0    0 -0.26846949949E+02 -0.10331052692E+02 -0.14573060465E+02  0.32246914005E+02  0.51100000000E-03 0. -1.
         23    2    1    0    0    0  0.24732791587E+02  0.65066656843E+01  0.16298988942E+02  0.94673366186E+02  0.89684678437E+02 0.  0.
         11    1    3    3    0    0  0.51579741536E+02  0.16837718376E+02  0.30872049407E+02  0.62426452180E+02  0.51100000000E-03 0.  1.
         22    1    1    0    0    0 -0.24732791587E+02 -0.65066656843E+01 -0.16298988942E+02  0.30326633814E+02  0.00000000000E+00 0.  1.
</event>
<event>
 5    1  0.1717518E-003  0.9118800E+02  0.7818608E-02  0.1130116E+00
         25   -1    0    0    0    0  0.00000000000E+00  0.00000000000E+00  0.99999998245E-14  0.12500000000E+03  0.12500000000E+03 0.  0.
        -11    1    3    3    0    0  0.18842120229E+02  0.32593603164E+01  0.36804037403E+02  0.41475126206E+02  0.51100000000E-03 0. -1.
         23    2    1    0    0    0 -0.24639765559E+02  0.13586916135E+02  0.47714757241E+01  0.96460740769E+02  0.92142200930E+02 0.  0.
         11    1    3    3    0    0 -0.43481885788E+02  0.10327555819E+02 -0.32032561679E+02  0.54985614563E+02  0.51100000000E-03 0.  1.
         22    1    1    0    0    0  0.24639765559E+02 -0.13586916135E+02 -0.47714757241E+01  0.28539259231E+02  0.00000000000E+00 0.  1.
</event>
<event>
 5    1  0.1717518E-003  0.9118800E+02  0.7818608E-02  0.1130116E+00
         25   -1    0    0    0    0  0.00000000000E+00  0.00000000000E+00  0.99999998245E-14  0.12500000000E+03  0.12500000000E+03 0.  0.
        -11    1    3    3    0    0  0.23369379992E+02  0.25674758337E+02  0.35354268924E+02  0.49550433583E+02  0.51100000000E-03 0.  1.
         23    2    1    0    0    0 -0.16826115471E+02  0.34060038083E+01  0.21380884625E+02  0.97579911540E+02  0.93648160073E+02 0.  0.
         11    1    3    3    0    0 -0.40195495463E+02 -0.22268754528E+02 -0.13973384299E+02  0.48029477957E+02  0.51100000000E-03 0. -1.
         22    1    1    0    0    0  0.16826115471E+02 -0.34060038083E+01 -0.21380884625E+02  0.27420088460E+02  0.00000000000E+00 0. -1.
</event>
<event>
 5    1  0.1717518E-003  0.9118800E+02  0.7818608E-02  0.1130116E+00
         25   -1    0    0    0    0  0.00000000000E+00  0.00000000000E+00  0.99999998245E-14  0.12500000000E+03  0.12500000000E+03 0.  0.
        -11    1    3    3    0    0 -0.72724887111E+01  0.23849352127E+02  0.41132916785E+02  0.48099870399E+02  0.51100000000E-03 0.  1.
         23    2    1    0    0    0 -0.56325410904E+01 -0.19380629909E+02  0.21190378862E+02  0.95736259789E+02  0.91154072577E+02 0.  0.
         11    1    3    3    0    0  0.16399476207E+01 -0.43229982036E+02 -0.19942537923E+02  0.47636389390E+02  0.51100000000E-03 0. -1.
         22    1    1    0    0    0  0.56325410904E+01  0.19380629909E+02 -0.21190378862E+02  0.29263740211E+02  0.00000000000E+00 0. -1.
</event>
<event>
 5    1  0.1717518E-003  0.9118800E+02  0.7818608E-02  0.1130116E+00
         25   -1    0    0    0    0  0.00000000000E+00  0.00000000000E+00  0.99999998245E-14  0.12500000000E+03  0.12500000000E+03 0.  0.
        -11    1    3    3    0    0  0.33745221027E+02 -0.73192242394E+01  0.46046873809E+02  0.57555413068E+02  0.51100000000E-03 0. -1.
         23    2    1    0    0    0  0.15328025803E+02  0.14210646792E+02  0.20979187279E+02  0.95385524551E+02  0.90671832107E+02 0.  0.
         11    1    3    3    0    0 -0.18417195224E+02  0.21529871031E+02 -0.25067686530E+02  0.37830111482E+02  0.51100000000E-03 0.  1.
         22    1    1    0    0    0 -0.15328025803E+02 -0.14210646792E+02 -0.20979187279E+02  0.29614475449E+02  0.00000000000E+00 0.  1.
</event>
<event>
 5    1  0.1717518E-003  0.9118800E+02  0.7818608E-02  0.1130116E+00
         25   -1    0    0    0    0  0.00000000000E+00  0.00000000000E+00  0.99999998245E-14  0.12500000000E+03  0.12500000000E+03 0.  0.
        -11    1    3    3    0    0  0.25951270549E+02  0.44586802461E+02  0.20561952659E+02  0.55535981978E+02  0.51100000000E-03 0. -1.
         23    2    1    0    0    0 -0.62590032509E+01  0.28002570046E+02  0.20166845580E+01  0.96235680653E+02  0.91836377124E+02 0.  0.
         11    1    3    3    0    0 -0.32210273800E+02 -0.16584232415E+02 -0.18545268101E+02  0.40699698676E+02  0.51100000000E-03 0.  1.
         22    1    1    0    0    0  0.62590032509E+01 -0.28002570046E+02 -0.20166845580E+01  0.28764319347E+02  0.00000000000E+00 0. -1.
</event>
<event>
 5    1  0.1717518E-003  0.9118800E+02  0.7818608E-02  0.1130116E+00
         25   -1    0    0    0    0  0.00000000000E+00  0.00000000000E+00  0.99999998245E-14  0.12500000000E+03  0.12500000000E+03 0.  0.
        -11    1    3    3    0    0  0.21035028759E+02  0.15000181784E+02 -0.29729165978E+02  0.39386561141E+02  0.51100000000E-03 0. -1.
         23    2    1    0    0    0  0.73979452745E+01 -0.29148619847E+02  0.10543796484E+01  0.94908749616E+02  0.90012151424E+02 0.  0.
         11    1    3    3    0    0 -0.13637083485E+02 -0.44148801631E+02  0.30783545627E+02  0.55522188475E+02  0.51100000000E-03 0.  1.
         22    1    1    0    0    0 -0.73979452745E+01  0.29148619847E+02 -0.10543796484E+01  0.30091250384E+02  0.00000000000E+00 0.  1.
</event>
<event>
 5    1  0.1717518E-003  0.9118800E+02  0.7818608E-02  0.1130116E+00
         25   -1    0    0    0    0  0.00000000000E+00  0.00000000000E+00  0.99999998245E-14  0.12500000000E+03  0.12500000000E+03 0.  0.
        -11    1    3    3    0    0  0.29039732351E+02 -0.24730434148E+02  0.10707754896E+02  0.39617627937E+02  0.51100000000E-03 0.  1.
         23    2    1    0    0    0  0.12968449822E+02  0.20880048196E+02 -0.16776112401E+02  0.95241050913E+02  0.90472441817E+02 0.  0.
         11    1    3    3    0    0 -0.16071282529E+02  0.45610482344E+02 -0.27483867297E+02  0.55623422977E+02  0.51100000000E-03 0. -1.
         22    1    1    0    0    0 -0.12968449822E+02 -0.20880048196E+02  0.16776112401E+02  0.29758949087E+02  0.00000000000E+00 0. -1.
</event>
<event>
 5    1  0.1717518E-003  0.9118800E+02  0.7818608E-02  0.1130116E+00
         25   -1    0    0    0    0  0.00000000000E+00  0.00000000000E+00  0.99999998245E-14  0.12500000000E+03  0.12500000000E+03 0.  0.
        -11    1    3    3    0    0 -0.53517279292E+02 -0.74814928467E+01 -0.10497473728E+02  0.55047878006E+02  0.51100000000E-03 0.  1.
         23    2    1    0    0    0 -0.16843182636E+02 -0.23342425711E+02 -0.61554850659E+00  0.96208672498E+02  0.91799608520E+02 0.  0.
         11    1    3    3    0    0  0.36674096656E+02 -0.15860932864E+02  0.98819252210E+01  0.41160794492E+02  0.51100000000E-03 0. -1.
         22    1    1    0    0    0  0.16843182636E+02  0.23342425711E+02  0.61554850659E+00  0.28791327502E+02  0.00000000000E+00 0.  1.
</event>
<event>
 5    1  0.1717518E-003  0.9118800E+02  0.7818608E-02  0.1130116E+00
         25   -1    0    0    0    0  0.00000000000E+00  0.00000000000E+00  0.99999998245E-14  0.12500000000E+03  0.12500000000E+03 0.  0.
        -11    1    3    3    0    0  0.15540728945E+02 -0.10349924468E+02 -0.32632063625E+02  0.37596366438E+02  0.51100000000E-03 0.  1.
         23    2    1    0    0    0  0.53187726538E+01 -0.10326850717E+02  0.25689165457E+02  0.96806624711E+02  0.92610237975E+02 0.  0.
         11    1    3    3    0    0 -0.10221956291E+02  0.23073750949E-01  0.58321229083E+02  0.59210258273E+02  0.51100000000E-03 0. -1.
         22    1    1    0    0    0 -0.53187726538E+01  0.10326850717E+02 -0.25689165457E+02  0.28193375289E+02  0.00000000000E+00 0. -1.
</event>
<event>
 5    1  0.1717518E-003  0.9118800E+02  0.7818608E-02  0.1130116E+00
         25   -1    0    0    0    0  0.00000000000E+00  0.00000000000E+00  0.99999998245E-14  0.12500000000E+03  0.12500000000E+03 0.  0.
        -11    1    3    3    0    0 -0.45683632392E+02  0.50473262512E+01 -0.20151385685E+02  0.50185138399E+02  0.51100000000E-03 0.  1.
         23    2    1    0    0    0 -0.19614252257E+02 -0.21444044177E+02  0.56029459470E+01  0.95403396723E+02  0.90696467300E+02 0.  0.
         11    1    3    3    0    0  0.26069380135E+02 -0.26491370428E+02  0.25754331632E+02  0.45218258324E+02  0.51100000000E-03 0. -1.
         22    1    1    0    0    0  0.19614252257E+02  0.21444044177E+02 -0.56029459470E+01  0.29596603277E+02  0.00000000000E+00 0.  1.
</event>
<event>
 5    1  0.1717518E-003  0.9118800E+02  0.7818608E-02  0.1130116E+00
         25   -1    0    0    0    0  0.00000000000E+00  0.00000000000E+00  0.99999998245E-14  0.12500000000E+03  0.12500000000E+03 0.  0.
        -11    1    3    3    0    0 -0.40527654218E+02  0.11623337311E+02 -0.35373895406E+02  0.55035490396E+02  0.51100000000E-03 0.  1.
         23    2    1    0    0    0 -0.15679808130E+01  0.16958862395E+02 -0.23238430427E+02  0.96188782978E+02  0.91772521729E+02 0.  0.
         11    1    3    3    0    0  0.38959673405E+02  0.53355250839E+01  0.12135464979E+02  0.41153292581E+02  0.51100000000E-03 0. -1.
         22    1    1    0    0    0  0.15679808130E+01 -0.16958862395E+02  0.23238430427E+02  0.28811217022E+02  0.00000000000E+00 0.  1.
</event>
<event>
 5    1  0.1717518E-003  0.9118800E+02  0.7818608E-02  0.1130116E+00
         25   -1    0    0    0    0  0.00000000000E+00  0.00000000000E+00  0.99999998245E-14  0.12500000000E+03  0.12500000000E+03 0.  0.
        -11    1    3    3    0    0 -0.25230762005E+02  0.16092050013E+02 -0.22894272776E+02  0.37678815682E+02  0.51100000000E-03 0.  1.
         23    2    1    0    0    0  0.43996059918E+01 -0.28762919164E+02 -0.54520933362E+00  0.95897434736E+02  0.91374825220E+02 0.  0.
         11    1    3    3    0    0  0.29630367997E+02 -0.44854969177E+02  0.22349063443E+02  0.58218619054E+02  0.51100000000E-03 0. -1.
         22    1    1    0    0    0 -0.43996059918E+01  0.28762919164E+02  0.54520933362E+00  0.29102565264E+02  0.00000000000E+00 0. -1.
</event>
<event>
 5    1  0.1717518E-003  0.9118800E+02  0.7818608E-02  0.1130116E+00
         25   -1    0    0    0    0  0.00000000000E+00  0.00000000000E+00  0.99999998245E-14  0.12500000000E+03  0.12500000000E+03 0.  0.
        -11    1    3    3    0    0 -0.29421329521E+02  0.16558125477E+02  0.12187814922E+02  0.35893299972E+02  0.51100000000E-03 0. -1.
         23    2    1    0    0    0  0.22954363421E+02 -0.13010036412E+02  0.11939582158E+02  0.96039380711E+02  0.91568800242E+02 0.  0.
         11    1    3    3    0    0  0.52375692941E+02 -0.29568161888E+02 -0.24823276421E+00  0.60146080739E+02  0.51100000000E-03 0.  1.
         22    1    1    0    0    0 -0.22954363421E+02  0.13010036412E+02 -0.11939582158E+02  0.28960619289E+02  0.00000000000E+00 0.  1.
</event>
<event>
 5    1  0.1717518E-003  0.9118800E+02  0.7818608E-02  0.1130116E+00
         25   -1    0    0    0    0  0.00000000000E+00  0.00000000000E+00  0.99999998245E-14  0.12500000000E+03  0.12500000000E+03 0.  0.
        -11    1    3    3    0    0 -0.10665581419E+01  0.15016437004E+02 -0.56440173331E+02  0.58413389668E+02  0.51100000000E-03 0. -1.
         23    2    1    0    0    0 -0.90072228528E+01  0.19619763169E+02 -0.21527845600E+02  0.94512079334E+02  0.89459598890E+02 0.  0.
         11    1    3    3    0    0 -0.79406647109E+01  0.46033261649E+01  0.34912327731E+02  0.36098689667E+02  0.51100000000E-03 0.  1.
         22    1    1    0    0    0  0.90072228528E+01 -0.19619763169E+02  0.21527845600E+02  0.30487920666E+02  0.00000000000E+00 0. -1.
</event>
<event>
 5    1  0.1717518E-003  0.9118800E+02  0.7818608E-02  0.1130116E+00
         25   -1    0    0    0    0  0.00000000000E+00  0.00000000000E+00  0.99999998245E-14  0.12500000000E+03  0.12500000000E+03 0.  0.
        -11    1    3    3    0    0 -0.13506918582E+02 -0.49228481454E+02 -0.11660377481E+02  0.52362626358E+02  0.51100000000E-03 0.  1.
         23    2    1    0    0    0 -0.12629707888E+02 -0.18383195154E+02  0.18880066525E+02  0.95778290649E+02  0.91211691478E+02 0.  0.
         11    1    3    3    0    0  0.87721069404E+00  0.30845286300E+02  0.30540444006E+02  0.43415664291E+02  0.51100000000E-03 0. -1.
         22    1    1    0    0    0  0.12629707888E+02  0.18383195154E+02 -0.18880066525E+02  0.29221709351E+02  0.00000000000E+00 0.  1.
</event>
<event>
 5    1  0.1717518E-003  0.9118800E+02  0.7818608E-02  0.1130116E+00
         25   -1    0    0    0    0  0.00000000000E+00  0.00000000000E+00  0.99999998245E-14  0.12500000000E+03  0.12500000000E+03 0.  0.
        -11    1    3    3    0    0 -0.31369327511E+02 -0.13910918613E+02  0.23269203799E+02  0.41460875664E+02  0.51100000000E-03 0. -1.
         23    2    1    0    0    0 -0.15222063400E+02  0.15712164445E+02 -0.19333474236E+02  0.95804682709E+02  0.91247853001E+02 0.  0.
         11    1    3    3    0    0  0.16147264111E+02  0.29623083058E+02 -0.42602678035E+02  0.54343807045E+02  0.51100000000E-03 0.  1.
         22    1    1    0    0    0  0.15222063400E+02 -0.15712164445E+02  0.19333474236E+02  0.29195317291E+02  0.00000000000E+00 0.  1.
</event>
<event>
 5    1  0.1717518E-003  0.9118800E+02  0.7818608E-02  0.1130116E+00
         25   -1    0    0    0    0  0.00000000000E+00  0.00000000000E+00  0.99999998245E-14  0.12500000000E+03  0.12500000000E+03 0.  0.
        -11    1    3    3    0    0 -0.74289597837E+01  0.27271798241E+02 -0.29043419659E+02  0.40527282768E+02  0.51100000000E-03 0.  1.
         23    2    1    0    0    0 -0.27171992725E+02  0.28779016464E+01  0.14395109996E+02  0.94116044646E+02  0.88904505856E+02 0.  0.
         11    1    3    3    0    0 -0.19743032941E+02 -0.24393896595E+02  0.43438529655E+02  0.53588761878E+02  0.51100000000E-03 0. -1.
         22    1    1    0    0    0  0.27171992725E+02 -0.28779016464E+01 -0.14395109996E+02  0.30883955354E+02  0.00000000000E+00 0.  1.
</event>
<event>
 5    1  0.1717518E-003  0.9118800E+02  0.7818608E-02  0.1130116E+00
         25   -1    0    0    0    0  0.00000000000E+00  0.00000000000E+00  0.99999998245E-14  0.12500000000E+03  0.12500000000E+03 0.  0.
        -11    1    3    3    0    0  0.31397414493E+02 -0.92500965604E+01  0.11716266400E+02  0.34765396904E+02  0.51100000000E-03 0. -1.
         23    2    1    0    0    0 -0.25017485161E+02 -0.10852517632E+01 -0.12871129434E+02  0.96844746350E+02  0.92661678096E+02 0.  0.
         11    1    3    3    0    0 -0.56414899655E+02  0.81648447972E+01 -0.24587395834E+02  0.62079349447E+02  0.51100000000E-03 0.  1.
         22    1    1    0    0    0  0.25017485161E+02  0.10852517632E+01  0.12871129434E+02  0.28155253650E+02  0.00000000000E+00 0.  1.
</event>
<event>
 5    1  0.1717518E-003  0.9118800E+02  0.7818608E-02  0.1130116E+00
         25   -1    0    0    0    0  0.00000000000E+00  0.00000000000E+00  0.99999998245E-14  0.12500000000E+03  0.12500000000E+03 0.  0.
        -11    1    3    3    0    0 -0.64561273624E+01 -0.28220817224E+02  0.34226940811E+02  0.44828334598E+02  0.51100000000E-03 0.  1.
         23    2    1    0    0    0  0.24414781365E+02  0.61153369668E+01  0.19058273169E+02  0.93429496813E+02  0.87933919526E+02 0.  0.
         11    1    3    3    0    0  0.30870908728E+02  0.34336154191E+02 -0.15168667642E+02  0.48601162214E+02  0.51100000000E-03 0. -1.
         22    1    1    0    0    0 -0.24414781365E+02 -0.61153369668E+01 -0.19058273169E+02  0.31570503187E+02  0.00000000000E+00 0. -1.
</event>
<event>
 5    1  0.1717518E-003  0.9118800E+02  0.7818608E-02  0.1130116E+00
         25   -1    0    0    0    0  0.00000000000E+00  0.00000000000E+00  0.99999998245E-14  0.12500000000E+03  0.12500000000E+03 0.  0.
        -11    1    3    3    0    0 -0.31718244548E+02  0.89136582216E+01  0.90318680658E+01  0.34162479142E+02  0.51100000000E-03 0.  1.
         23    2    1    0    0    0  0.20060972123E+02 -0.95006660847E+01 -0.18933689045E+02  0.95824842084E+02  0.91275465055E+02 0.  0.
         11    1    3    3    0    0  0.51779216671E+02 -0.18414324306E+02 -0.27965557111E+02  0.61662362942E+02  0.51100000000E-03 0. -1.
         22    1    1    0    0    0 -0.20060972123E+02  0.95006660847E+01  0.18933689045E+02  0.29175157916E+02  0.00000000000E+00 0. -1.
</event>
<event>
 5    1  0.1717518E-003  0.9118800E+02  0.7818608E-02  0.1130116E+00
         25   -1    0    0    0    0  0.00000000000E+00  0.00000000000E+00  0.99999998245E-14  0.12500000000E+03  0.12500000000E+03 0.  0.
        -11    1    3    3    0    0  0.14893865291E+01  0.36167464373E+02 -0.10211756380E+02  0.37610952129E+02  0.51100000000E-03 0. -1.
         23    2    1    0    0    0  0.17660084873E+02 -0.15271978860E+02 -0.22126934200E+02  0.92833042526E+02  0.87081919085E+02 0.  0.
         11    1    3    3    0    0  0.16170698343E+02 -0.51439443234E+02 -0.11915177820E+02  0.55222090397E+02  0.51100000000E-03 0.  1.
         22    1    1    0    0    0 -0.17660084873E+02  0.15271978860E+02  0.22126934200E+02  0.32166957474E+02  0.00000000000E+00 0.  1.
</event>
<event>
 5    1  0.1717518E-003  0.9118800E+02  0.7818608E-02  0.1130116E+00
         25   -1    0    0    0    0  0.00000000000E+00  0.00000000000E+00  0.99999998245E-14  0.12500000000E+03  0.12500000000E+03 0.  0.
        -11    1    3    3    0    0  0.36472662882E+02 -0.20151700217E+02  0.34044076435E+02  0.53808412910E+02  0.51100000000E-03 0. -1.
         23    2    1    0    0    0  0.19896183343E+02 -0.19738445146E+02 -0.52757880720E+01  0.96481615260E+02  0.92170514889E+02 0.  0.
         11    1    3    3    0    0 -0.16576479539E+02  0.41325507062E+00 -0.39319864507E+02  0.42673202349E+02  0.51100000000E-03 0.  1.
         22    1    1    0    0    0 -0.19896183343E+02  0.19738445146E+02  0.52757880720E+01  0.28518384740E+02  0.00000000000E+00 0. -1.
</event>
<event>
 5    1  0.1717518E-003  0.9118800E+02  0.7818608E-02  0.1130116E+00
         25   -1    0    0    0    0  0.00000000000E+00  0.00000000000E+00  0.99999998245E-14  0.12500000000E+03  0.12500000000E+03 0.  0.
        -11    1    3    3    0    0 -0.42909746143E+02 -0.41261596111E+02 -0.76378583878E+00  0.59534435386E+02  0.51100000000E-03 0.  1.
         23    2    1    0    0    0 -0.14712196778E+02 -0.19832397472E+02  0.12462477835E+02  0.97339810606E+02  0.93327127093E+02 0.  0.
         11    1    3    3    0    0  0.28197549364E+02  0.21429198639E+02  0.13226263674E+02  0.37805375220E+02  0.51100000000E-03 0. -1.
         22    1    1    0    0    0  0.14712196778E+02  0.19832397472E+02 -0.12462477835E+02  0.27660189394E+02  0.00000000000E+00 0.  1.
</event>
<event>
 5    1  0.1717518E-003  0.9118800E+02  0.7818608E-02  0.1130116E+00
         25   -1    0    0    0    0  0.00000000000E+00  0.00000000000E+00  0.99999998245E-14  0.12500000000E+03  0.12500000000E+03 0.  0.
        -11    1    3    3    0    0 -0.14089719018E+02 -0.23066432572E+02  0.22069526922E+02  0.34894763396E+02  0.51100000000E-03 0.  1.
         23    2    1    0    0    0 -0.77351873915E+01  0.27150244287E+02 -0.10268227616E+02  0.94959936964E+02  0.90083207320E+02 0.  0.
         11    1    3    3    0    0  0.63545316265E+01  0.50216676859E+02 -0.32337754539E+02  0.60065173568E+02  0.51100000000E-03 0. -1.
         22    1    1    0    0    0  0.77351873915E+01 -0.27150244287E+02  0.10268227616E+02  0.30040063036E+02  0.00000000000E+00 0. -1.
</event>
<event>
 5    1  0.1717518E-003  0.9118800E+02  0.7818608E-02  0.1130116E+00
         25   -1    0    0    0    0  0.00000000000E+00  0.00000000000E+00  0.99999998245E-14  0.12500000000E+03  0.12500000000E+03 0.  0.
        -11    1    3    3    0    0  0.34709862256E+02 -0.39922219254E+02 -0.15421885253E+02  0.55103472422E+02  0.51100000000E-03 0.  1.
         23    2    1    0    0    0  0.22186648965E+02 -0.13129375148E+02  0.13005016147E+02  0.96125126337E+02  0.91685776346E+02 0.  0.
         11    1    3    3    0    0 -0.12523213290E+02  0.26792844106E+02  0.28426901400E+02  0.41021653914E+02  0.51100000000E-03 0. -1.
         22    1    1    0    0    0 -0.22186648965E+02  0.13129375148E+02 -0.13005016147E+02  0.28874873663E+02  0.00000000000E+00 0. -1.
</event>
<event>
 5    1  0.1717518E-003  0.9118800E+02  0.7818608E-02  0.1130116E+00
         25   -1    0    0    0    0  0.00000000000E+00  0.00000000000E+00  0.99999998245E-14  0.12500000000E+03  0.12500000000E+03 0.  0.
        -11    1    3    3    0    0  0.21165494810E+01  0.35500180303E+02  0.10270157514E+02  0.37016465510E+02  0.51100000000E-03 0.  1.
         23    2    1    0    0    0 -0.22198239702E+02 -0.17718730413E+02 -0.89768306881E+00  0.96583084470E+02  0.92308023040E+02 0.  0.
         11    1    3    3    0    0 -0.24314789183E+02 -0.53218910716E+02 -0.11167840583E+02  0.59566618960E+02  0.51100000000E-03 0. -1.
         22    1    1    0    0    0  0.22198239702E+02  0.17718730413E+02  0.89768306881E+00  0.28416915530E+02  0.00000000000E+00 0. -1.
</event>
<event>
 5    1  0.1717518E-003  0.9118800E+02  0.7818608E-02  0.1130116E+00
         25   -1    0    0    0    0  0.00000000000E+00  0.00000000000E+00  0.99999998245E-14  0.12500000000E+03  0.12500000000E+03 0.  0.
        -11    1    3    3    0    0 -0.11075604884E+02 -0.43105897425E+02 -0.32654258751E+02  0.55200435064E+02  0.51100000000E-03 0. -1.
         23    2    1    0    0    0  0.44664593077E+01 -0.28594099270E+02  0.21426070350E+01  0.95979963185E+02  0.91487653792E+02 0.  0.
         11    1    3    3    0    0  0.15542064192E+02  0.14511798155E+02  0.34796865786E+02  0.40779528122E+02  0.51100000000E-03 0.  1.
         22    1    1    0    0    0 -0.44664593077E+01  0.28594099270E+02 -0.21426070350E+01  0.29020036815E+02  0.00000000000E+00 0. -1.
</event>
<event>
 5    1  0.1717518E-003  0.9118800E+02  0.7818608E-02  0.1130116E+00
         25   -1    0    0    0    0  0.00000000000E+00  0.00000000000E+00  0.99999998245E-14  0.12500000000E+03  0.12500000000E+03 0.  0.
        -11    1    3    3    0    0  0.27601112415E+02 -0.47941927787E+02 -0.36963262019E+01  0.55442877578E+02  0.51100000000E-03 0. -1.
         23    2    1    0    0    0  0.96321367032E+01 -0.17255936734E+02 -0.21991823400E+02  0.95433368361E+02  0.90737765513E+02 0.  0.
         11    1    3    3    0    0 -0.17968975712E+02  0.30685991053E+02 -0.18295497198E+02  0.39990490783E+02  0.51100000000E-03 0.  1.
         22    1    1    0    0    0 -0.96321367032E+01  0.17255936734E+02  0.21991823400E+02  0.29566631639E+02  0.00000000000E+00 0. -1.
</event>
<event>
 5    1  0.1717518E-003  0.9118800E+02  0.7818608E-02  0.1130116E+00
         25   -1    0    0    0    0  0.00000000000E+00  0.00000000000E+00  0.99999998245E-14  0.12500000000E+03  0.12500000000E+03 0.  0.
        -11    1    3    3    0    0  0.44240721017E+02 -0.96559833542E+01 -0.12171056587E+02  0.46889380774E+02  0.51100000000E-03 0.  1.
         23    2    1    0    0    0 -0.94098393463E+00 -0.42056882199E+01 -0.29202523940E+02  0.95481181110E+02  0.90803608285E+02 0.  0.
         11    1    3    3    0    0 -0.45181704952E+02  0.54502951342E+01 -0.17031467353E+02  0.48591800336E+02  0.51100000000E-03 0. -1.
         22    1    1    0    0    0  0.94098393463E+00  0.42056882199E+01  0.29202523940E+02  0.29518818890E+02  0.00000000000E+00 0. -1.
</event>
<event>
 5    1  0.1717518E-003  0.9118800E+02  0.7818608E-02  0.1130116E+00
         25   -1    0    0    0    0  0.00000000000E+00  0.00000000000E+00  0.99999998245E-14  0.12500000000E+03  0.12500000000E+03 0.  0.
        -11    1    3    3    0    0  0.13444618478E+02 -0.31929654906E+02 -0.27537202615E+02  0.44255600285E+02  0.51100000000E-03 0. -1.
         23    2    1    0    0    0  0.24482241258E+02  0.13887787023E+02 -0.53341716752E+01  0.96352065469E+02  0.91994654015E+02 0.  0.
         11    1    3    3    0    0  0.11037622780E+02  0.45817441929E+02  0.22203030940E+02  0.52096465184E+02  0.51100000000E-03 0.  1.
         22    1    1    0    0    0 -0.24482241258E+02 -0.13887787023E+02  0.53341716752E+01  0.28647934531E+02  0.00000000000E+00 0.  1.
</event>
<event>
 5    1  0.1717518E-003  0.9118800E+02  0.7818608E-02  0.1130116E+00
         25   -1    0    0    0    0  0.00000000000E+00  0.00000000000E+00  0.99999998245E-14  0.12500000000E+03  0.12500000000E+03 0.  0.
        -11    1    3    3    0    0  0.41202120144E+02  0.28075887356E+02  0.25238567975E+01  0.49922339775E+02  0.51100000000E-03 0. -1.
         23    2    1    0    0    0  0.24711992586E+02 -0.11542332552E+02  0.13998171553E+02  0.94342915581E+02  0.89222916872E+02 0.  0.
         11    1    3    3    0    0 -0.16490127559E+02 -0.39618219908E+02  0.11474314755E+02  0.44420575806E+02  0.51100000000E-03 0.  1.
         22    1    1    0    0    0 -0.24711992586E+02  0.11542332552E+02 -0.13998171553E+02  0.30657084419E+02  0.00000000000E+00 0. -1.
</event>
<event>
 5    1  0.1717518E-003  0.9118800E+02  0.7818608E-02  0.1130116E+00
         25   -1    0    0    0    0  0.00000000000E+00  0.00000000000E+00  0.99999998245E-14  0.12500000000E+03  0.12500000000E+03 0.  0.
        -11    1    3    3    0    0  0.96875229321E+01 -0.17693943134E+01 -0.33323866278E+02  0.34748509620E+02  0.51100000000E-03 0.  1.
         23    2    1    0    0    0  0.87259593502E+01  0.10352224867E+02  0.26203623974E+02  0.95505240539E+02  0.90836722392E+02 0.  0.
         11    1    3    3    0    0 -0.96156358186E+00  0.12121619181E+02  0.59527490252E+02  0.60756730920E+02  0.51100000000E-03 0. -1.
         22    1    1    0    0    0 -0.87259593502E+01 -0.10352224867E+02 -0.26203623974E+02  0.29494759461E+02  0.00000000000E+00 0. -1.
</event>
<event>
 5    1  0.1717518E-003  0.9118800E+02  0.7818608E-02  0.1130116E+00
         25   -1    0    0    0    0  0.00000000000E+00  0.00000000000E+00  0.99999998245E-14  0.12500000000E+03  0.12500000000E+03 0.  0.
        -11    1    3    3    0    0 -0.35356784399E+02  0.76266865230E+01 -0.34876047040E+01  0.36337748103E+02  0.51100000000E-03 0. -1.
         23    2    1    0    0    0  0.14736223303E+02  0.15746289106E+02 -0.25456983797E+02  0.91635948659E+02  0.85346277978E+02 0.  0.
         11    1    3    3    0    0  0.50093007702E+02  0.81196025833E+01 -0.21969379093E+02  0.55298200556E+02  0.51100000000E-03 0.  1.
         22    1    1    0    0    0 -0.14736223303E+02 -0.15746289106E+02  0.25456983797E+02  0.33364051341E+02  0.00000000000E+00 0.  1.
</event>
<event>
 5    1  0.1717518E-003  0.9118800E+02  0.7818608E-02  0.1130116E+00
         25   -1    0    0    0    0  0.00000000000E+00  0.00000000000E+00  0.99999998245E-14  0.12500000000E+03  0.12500000000E+03 0.  0.
        -11    1    3    3    0    0  0.30298238883E+02 -0.21113376221E+02 -0.33154756101E+01  0.37077625513E+02  0.51100000000E-03 0. -1.
         23    2    1    0    0    0  0.45124757115E+01  0.27884456614E+02  0.11667902190E+02  0.94437845312E+02  0.89355813062E+02 0.  0.
         11    1    3    3    0    0 -0.25785763172E+02  0.48997832835E+02  0.14983377800E+02  0.57360219799E+02  0.51100000000E-03 0.  1.
         22    1    1    0    0    0 -0.45124757115E+01 -0.27884456614E+02 -0.11667902190E+02  0.30562154688E+02  0.00000000000E+00 0.  1.
</event>
<event>
 5    1  0.1717518E-003  0.9118800E+02  0.7818608E-02  0.1130116E+00
         25   -1    0    0    0    0  0.00000000000E+00  0.00000000000E+00  0.99999998245E-14  0.12500000000E+03  0.12500000000E+03 0.  0.
        -11    1    3    3    0    0  0.84548214658E+01  0.74254736537E+01 -0.60780102159E+02  0.61812963719E+02  0.51100000000E-03 0.  1.
         23    2    1    0    0    0 -0.20608345386E+01  0.59143453253E+00 -0.28123178126E+02  0.96795213496E+02  0.92594834489E+02 0.  0.
         11    1    3    3    0    0 -0.10515656004E+02 -0.68340391212E+01  0.32656924033E+02  0.34982249777E+02  0.51100000000E-03 0. -1.
         22    1    1    0    0    0  0.20608345386E+01 -0.59143453253E+00  0.28123178126E+02  0.28204786504E+02  0.00000000000E+00 0.  1.
</event>
<event>
 5    1  0.1717518E-003  0.9118800E+02  0.7818608E-02  0.1130116E+00
         25   -1    0    0    0    0  0.00000000000E+00  0.00000000000E+00  0.99999998245E-14  0.12500000000E+03  0.12500000000E+03 0.  0.
        -11    1    3    3    0    0 -0.35677246097E+02  0.10696937754E+02  0.48709135506E+02  0.61317780850E+02  0.51100000000E-03 0.  1.
         23    2    1    0    0    0 -0.21085229960E+02 -0.19294490686E+01  0.20249971587E+02  0.95702030012E+02  0.91107121033E+02 0.  0.
         11    1    3    3    0    0  0.14592016136E+02 -0.12626386823E+02 -0.28459163920E+02  0.34384249161E+02  0.51100000000E-03 0. -1.
         22    1    1    0    0    0  0.21085229960E+02  0.19294490686E+01 -0.20249971587E+02  0.29297969988E+02  0.00000000000E+00 0.  1.
</event>
<event>
 5    1  0.1717518E-003  0.9118800E+02  0.7818608E-02  0.1130116E+00
         25   -1    0    0    0    0  0.00000000000E+00  0.00000000000E+00  0.99999998245E-14  0.12500000000E+03  0.12500000000E+03 0.  0.
        -11    1    3    3    0    0 -0.45476688882E+02 -0.35470378252E+02 -0.54775979984E+01  0.57933419070E+02  0.51100000000E-03 0.  1.
         23    2    1    0    0    0 -0.20968702630E+02 -0.15345963207E+02  0.14333250727E+02  0.95324637270E+02  0.90587854139E+02 0.  0.
         11    1    3    3    0    0  0.24507986252E+02  0.20124415045E+02  0.19810848726E+02  0.37391218200E+02  0.51100000000E-03 0. -1.
         22    1    1    0    0    0  0.20968702630E+02  0.15345963207E+02 -0.14333250727E+02  0.29675362730E+02  0.00000000000E+00 0.  1.
</event>
<event>
 5    1  0.1717518E-003  0.9118800E+02  0.7818608E-02  0.1130116E+00
         25   -1    0    0    0    0  0.00000000000E+00  0.00000000000E+00  0.99999998245E-14  0.12500000000E+03  0.12500000000E+03 0.  0.
        -11    1    3    3    0    0 -0.79112731718E+01 -0.47646667551E+02 -0.13043870587E+02  0.50029348707E+02  0.51100000000E-03 0. -1.
         23    2    1    0    0    0  0.21282773720E+01 -0.17518230318E+02  0.21653860042E+02  0.97066013303E+02  0.92959686563E+02 0.  0.
         11    1    3    3    0    0  0.10039550544E+02  0.30128437233E+02  0.34697730630E+02  0.47036664596E+02  0.51100000000E-03 0.  1.
         22    1    1    0    0    0 -0.21282773720E+01  0.17518230318E+02 -0.21653860042E+02  0.27933986697E+02  0.00000000000E+00 0. -1.
</event>
<event>
 5    1  0.1717518E-003  0.9118800E+02  0.7818608E-02  0.1130116E+00
         25   -1    0    0    0    0  0.00000000000E+00  0.00000000000E+00  0.99999998245E-14  0.12500000000E+03  0.12500000000E+03 0.  0.
        -11    1    3    3    0    0  0.35949871994E+02 -0.77695726783E+01  0.20730570200E+02  0.42219854300E+02  0.51100000000E-03 0.  1.
         23    2    1    0    0    0 -0.53682880144E+01 -0.29247485201E+02 -0.40821907900E+01  0.94985033926E+02  0.90118025287E+02 0.  0.
         11    1    3    3    0    0 -0.41318160008E+02 -0.21477912522E+02 -0.24812760990E+02  0.52765179627E+02  0.51100000000E-03 0. -1.
         22    1    1    0    0    0  0.53682880144E+01  0.29247485201E+02  0.40821907900E+01  0.30014966074E+02  0.00000000000E+00 0. -1.
</event>
<event>
 5    1  0.1717518E-003  0.9118800E+02  0.7818608E-02  0.1130116E+00
         25   -1    0    0    0    0  0.00000000000E+00  0.00000000000E+00  0.99999998245E-14  0.12500000000E+03  0.12500000000E+03 0.  0.
        -11    1    3    3    0    0 -0.54352413107E+02 -0.16966615601E+02 -0.19198333523E+02  0.60088491958E+02  0.51100000000E-03 0. -1.
         23    2    1    0    0    0 -0.29445137816E+02 -0.43283121484E+01  0.20283291623E+01  0.95169402516E+02  0.90373395581E+02 0.  0.
         11    1    3    3    0    0  0.24907275291E+02  0.12638303452E+02  0.21226662685E+02  0.35080910558E+02  0.51100000000E-03 0.  1.
         22    1    1    0    0    0  0.29445137816E+02  0.43283121484E+01 -0.20283291623E+01  0.29830597484E+02  0.00000000000E+00 0. -1.
</event>
<event>
 5    1  0.1717518E-003  0.9118800E+02  0.7818608E-02  0.1130116E+00
         25   -1    0    0    0    0  0.00000000000E+00  0.00000000000E+00  0.99999998245E-14  0.12500000000E+03  0.12500000000E+03 0.  0.
        -11    1    3    3    0    0  0.46444415072E+02 -0.25220111185E+01 -0.61814930579E+01  0.46921797580E+02  0.51100000000E-03 0. -1.
         23    2    1    0    0    0  0.12011350958E+02 -0.23762702725E+02  0.16864318021E+02  0.93482642640E+02  0.88009435063E+02 0.  0.
         11    1    3    3    0    0 -0.34433064114E+02 -0.21240691606E+02  0.23045811079E+02  0.46560845060E+02  0.51100000000E-03 0.  1.
         22    1    1    0    0    0 -0.12011350958E+02  0.23762702725E+02 -0.16864318021E+02  0.31517357360E+02  0.00000000000E+00 0.  1.
</event>
<event>
 5    1  0.1717518E-003  0.9118800E+02  0.7818608E-02  0.1130116E+00
         25   -1    0    0    0    0  0.00000000000E+00  0.00000000000E+00  0.99999998245E-14  0.12500000000E+03  0.12500000000E+03 0.  0.
        -11    1    3    3    0    0  0.35387245416E+02  0.20924343804E+00 -0.21499335914E+02  0.41406791303E+02  0.51100000000E-03 0. -1.
         23    2    1    0    0    0  0.10658466227E+02 -0.30093452617E+02  0.99126176534E+01  0.91571288067E+02  0.85251522079E+02 0.  0.
         11    1    3    3    0    0 -0.24728779189E+02 -0.30302696056E+02  0.31411953568E+02  0.50164496764E+02  0.51100000000E-03 0.  1.
         22    1    1    0    0    0 -0.10658466227E+02  0.30093452617E+02 -0.99126176534E+01  0.33428711933E+02  0.00000000000E+00 0.  1.
</event>
<event>
 5    1  0.1717518E-003  0.9118800E+02  0.7818608E-02  0.1130116E+00
         25   -1    0    0    0    0  0.00000000000E+00  0.00000000000E+00  0.99999998245E-14  0.12500000000E+03  0.12500000000E+03 0.  0.
        -11    1    3    3    0    0  0.34302611998E+02  0.26781790907E+02  0.22524444498E+02  0.49002899039E+02  0.51100000000E-03 0. -1.
         23    2    1    0    0    0  0.22172349833E+02 -0.16098021044E+02  0.13436956917E+02  0.94482608404E+02  0.89418410302E+02 0.  0.
         11    1    3    3    0    0 -0.12130262165E+02 -0.42879811951E+02 -0.90874875809E+01  0.45479709365E+02  0.51100000000E-03 0.  1.
         22    1    1    0    0    0 -0.22172349833E+02  0.16098021044E+02 -0.13436956917E+02  0.30517391596E+02  0.00000000000E+00 0. -1.
</event>
<event>
 5    1  0.1717518E-003  0.9118800E+02  0.7818608E-02  0.1130116E+00
         25   -1    0    0    0    0  0.00000000000E+00  0.00000000000E+00  0.99999998245E-14  0.12500000000E+03  0.12500000000E+03 0.  0.
        -11    1    3    3    0    0 -0.44794041785E+02  0.57359951805E+01  0.30202162603E+02  0.54328431289E+02  0.51100000000E-03 0. -1.
         23    2    1    0    0    0 -0.14607401580E+02 -0.18510530060E+02  0.19233496779E+02  0.94570683504E+02  0.89541447811E+02 0.  0.
         11    1    3    3    0    0  0.30186640205E+02 -0.24246525241E+02 -0.10968665824E+02  0.40242252215E+02  0.51100000000E-03 0.  1.
         22    1    1    0    0    0  0.14607401580E+02  0.18510530060E+02 -0.19233496779E+02  0.30429316496E+02  0.00000000000E+00 0. -1.
</event>
<event>
 5    1  0.1717518E-003  0.9118800E+02  0.7818608E-02  0.1130116E+00
         25   -1    0    0    0    0  0.00000000000E+00  0.00000000000E+00  0.99999998245E-14  0.12500000000E+03  0.12500000000E+03 0.  0.
        -11    1    3    3    0    0  0.41035709681E+02 -0.39537193935E+02  0.36228538593E+01  0.57098548524E+02  0.51100000000E-03 0.  1.
         23    2    1    0    0    0  0.18221631043E+02 -0.16004824278E+02 -0.16599435391E+02  0.95610826937E+02  0.90981903333E+02 0.  0.
         11    1    3    3    0    0 -0.22814078637E+02  0.23532369657E+02 -0.20222289250E+02  0.38512278412E+02  0.51100000000E-03 0. -1.
         22    1    1    0    0    0 -0.18221631043E+02  0.16004824278E+02  0.16599435391E+02  0.29389173063E+02  0.00000000000E+00 0.  1.
</event>
<event>
 5    1  0.1717518E-003  0.9118800E+02  0.7818608E-02  0.1130116E+00
         25   -1    0    0    0    0  0.00000000000E+00  0.00000000000E+00  0.99999998245E-14  0.12500000000E+03  0.12500000000E+03 0.  0.
        -11    1    3    3    0    0  0.12509467891E+02 -0.32224195037E+02 -0.29565471060E+02  0.45486290374E+02  0.51100000000E-03 0.  1.
         23    2    1    0    0    0  0.72392453751E+01 -0.17663957225E+02  0.19962789780E+02  0.97378721350E+02  0.93379228619E+02 0.  0.
         11    1    3    3    0    0 -0.52702225158E+01  0.14560237812E+02  0.49528260840E+02  0.51892430976E+02  0.51100000000E-03 0. -1.
         22    1    1    0    0    0 -0.72392453751E+01  0.17663957225E+02 -0.19962789780E+02  0.27621278650E+02  0.00000000000E+00 0. -1.
</event>
<event>
 5    1  0.1717518E-003  0.9118800E+02  0.7818608E-02  0.1130116E+00
         25   -1    0    0    0    0  0.00000000000E+00  0.00000000000E+00  0.99999998245E-14  0.12500000000E+03  0.12500000000E+03 0.  0.
        -11    1    3    3    0    0  0.56342582040E+02  0.93531862911E+00  0.26519603388E+02  0.62278814504E+02  0.51100000000E-03 0.  1.
         23    2    1    0    0    0  0.26074960556E+02 -0.32460865241E+01  0.12771607951E+02  0.95784342975E+02  0.91219985441E+02 0.  0.
         11    1    3    3    0    0 -0.30267621484E+02 -0.41814051533E+01 -0.13747995437E+02  0.33505528471E+02  0.51100000000E-03 0. -1.
         22    1    1    0    0    0 -0.26074960556E+02  0.32460865241E+01 -0.12771607951E+02  0.29215657025E+02  0.00000000000E+00 0.  1.
</event>
<event>
 5    1  0.1717518E-003  0.9118800E+02  0.7818608E-02  0.1130116E+00
         25   -1    0    0    0    0  0.00000000000E+00  0.00000000000E+00  0.99999998245E-14  0.12500000000E+03  0.12500000000E+03 0.  0.
        -11    1    3    3    0    0 -0.30920883378E+01 -0.11537718459E+02 -0.31635008984E+02  0.33814992994E+02  0.51100000000E-03 0. -1.
         23    2    1    0    0    0  0.10982673747E+02  0.21436706051E+02  0.17919359137E+02  0.94979091938E+02  0.90109782957E+02 0.  0.
         11    1    3    3    0    0  0.14074762085E+02  0.32974424510E+02  0.49554368121E+02  0.61164098944E+02  0.51100000000E-03 0.  1.
         22    1    1    0    0    0 -0.10982673747E+02 -0.21436706051E+02 -0.17919359137E+02  0.30020908062E+02  0.00000000000E+00 0.  1.
</event>
<event>
 5    1  0.1717518E-003  0.9118800E+02  0.7818608E-02  0.1130116E+00
         25   -1    0    0    0    0  0.00000000000E+00  0.00000000000E+00  0.99999998245E-14  0.12500000000E+03  0.12500000000E+03 0.  0.
        -11    1    3    3    0    0  0.82935860229E+01 -0.47701813794E+02 -0.88895559308E+01  0.49226728647E+02  0.51100000000E-03 0. -1.
         23    2    1    0    0    0  0.14184938855E+02 -0.43936678638E+01 -0.25094331440E+02  0.95841085788E+02  0.91297707786E+02 0.  0.
         11    1    3    3    0    0  0.58913528317E+01  0.43308145930E+02 -0.16204775510E+02  0.46614357141E+02  0.51100000000E-03 0.  1.
         22    1    1    0    0    0 -0.14184938855E+02  0.43936678638E+01  0.25094331440E+02  0.29158914212E+02  0.00000000000E+00 0.  1.
</event>
<event>
 5    1  0.1717518E-003  0.9118800E+02  0.7818608E-02  0.1130116E+00
         25   -1    0    0    0    0  0.00000000000E+00  0.00000000000E+00  0.99999998245E-14  0.12500000000E+03  0.12500000000E+03 0.  0.
        -11    1    3    3    0    0 -0.13419552770E+01 -0.67628360572E+01  0.35555194124E+02  0.36217518205E+02  0.51100000000E-03 0.  1.
         23    2    1    0    0    0  0.37617965374E+00 -0.23627883745E+02 -0.19837622165E+02  0.94146318623E+02  0.88947060972E+02 0.  0.
         11    1    3    3    0    0  0.17181349307E+01 -0.16865047688E+02 -0.55392816288E+02  0.57928800417E+02  0.51100000000E-03 0. -1.
         22    1    1    0    0    0 -0.37617965374E+00  0.23627883745E+02  0.19837622165E+02  0.30853681377E+02  0.00000000000E+00 0. -1.
</event>
<event>
 5    1  0.1717518E-003  0.9118800E+02  0.7818608E-02  0.1130116E+00
         25   -1    0    0    0    0  0.00000000000E+00  0.00000000000E+00  0.99999998245E-14  0.12500000000E+03  0.12500000000E+03 0.  0.
        -11    1    3    3    0    0  0.28730714698E+02 -0.48285171785E+02 -0.15050024630E+02  0.58167130091E+02  0.51100000000E-03 0. -1.
         23    2    1    0    0    0  0.15770521170E+02 -0.19296233886E+02  0.95257760727E+01  0.98320524931E+02  0.94631555164E+02 0.  0.
         11    1    3    3    0    0 -0.12960193527E+02  0.28988937899E+02  0.24575800702E+02  0.40153394841E+02  0.51100000000E-03 0.  1.
         22    1    1    0    0    0 -0.15770521170E+02  0.19296233886E+02 -0.95257760727E+01  0.26679475069E+02  0.00000000000E+00 0. -1.
</event>
<event>
 5    1  0.1717518E-003  0.9118800E+02  0.7818608E-02  0.1130116E+00
         25   -1    0    0    0    0  0.00000000000E+00  0.00000000000E+00  0.99999998245E-14  0.12500000000E+03  0.12500000000E+03 0.  0.
        -11    1    3    3    0    0 -0.17925440487E+02 -0.14324614737E+02 -0.23974058751E+02  0.33185410910E+02  0.51100000000E-03 0. -1.
         23    2    1    0    0    0  0.61602304105E+01  0.17276281524E+02  0.23562141923E+02  0.95140447525E+02  0.90333337596E+02 0.  0.
         11    1    3    3    0    0  0.24085670897E+02  0.31600896261E+02  0.47536200674E+02  0.61955036615E+02  0.51100000000E-03 0.  1.
         22    1    1    0    0    0 -0.61602304105E+01 -0.17276281524E+02 -0.23562141923E+02  0.29859552475E+02  0.00000000000E+00 0.  1.
</event>
<event>
 5    1  0.1717518E-003  0.9118800E+02  0.7818608E-02  0.1130116E+00
         25   -1    0    0    0    0  0.00000000000E+00  0.00000000000E+00  0.99999998245E-14  0.12500000000E+03  0.12500000000E+03 0.  0.
        -11    1    3    3    0    0 -0.56844480723E+00 -0.31661085790E+02 -0.40798057427E+02  0.51645222170E+02  0.51100000000E-03 0.  1.
         23    2    1    0    0    0  0.25083413105E+02 -0.11353112020E+02 -0.13115214672E+02  0.94502793219E+02  0.89446622658E+02 0.  0.
         11    1    3    3    0    0  0.25651857912E+02  0.20307973770E+02  0.27682842755E+02  0.42857571050E+02  0.51100000000E-03 0. -1.
         22    1    1    0    0    0 -0.25083413105E+02  0.11353112020E+02  0.13115214672E+02  0.30497206781E+02  0.00000000000E+00 0. -1.
</event>
<event>
 5    1  0.1717518E-003  0.9118800E+02  0.7818608E-02  0.1130116E+00
         25   -1    0    0    0    0  0.00000000000E+00  0.00000000000E+00  0.99999998245E-14  0.12500000000E+03  0.12500000000E+03 0.  0.
        -11    1    3    3    0    0  0.38045348467E+02  0.20814099282E+01  0.87225478248E+01  0.39087896440E+02  0.51100000000E-03 0.  1.
         23    2    1    0    0    0 -0.14283588030E+02  0.73593794570E+01  0.25989787558E+02  0.94444306417E+02  0.89364851056E+02 0.  0.
         11    1    3    3    0    0 -0.52328936497E+02  0.52779695288E+01  0.17267239734E+02  0.55356409977E+02  0.51100000000E-03 0. -1.
         22    1    1    0    0    0  0.14283588030E+02 -0.73593794570E+01 -0.25989787558E+02  0.30555693583E+02  0.00000000000E+00 0. -1.
</event>
<event>
 5    1  0.1717518E-003  0.9118800E+02  0.7818608E-02  0.1130116E+00
         25   -1    0    0    0    0  0.00000000000E+00  0.00000000000E+00  0.99999998245E-14  0.12500000000E+03  0.12500000000E+03 0.  0.
        -11    1    3    3    0    0 -0.20115432538E+02 -0.47240954103E+02 -0.87531333679E+01  0.52086041458E+02  0.51100000000E-03 0. -1.
         23    2    1    0    0    0 -0.29109049505E+02 -0.72368267827E+01  0.33008721184E+01  0.94823781189E+02  0.89894078211E+02 0.  0.
         11    1    3    3    0    0 -0.89936169672E+01  0.40004127320E+02  0.12054005486E+02  0.42737739731E+02  0.51100000000E-03 0.  1.
         22    1    1    0    0    0  0.29109049505E+02  0.72368267827E+01 -0.33008721184E+01  0.30176218811E+02  0.00000000000E+00 0. -1.
</event>
<event>
 5    1  0.1717518E-003  0.9118800E+02  0.7818608E-02  0.1130116E+00
         25   -1    0    0    0    0  0.00000000000E+00  0.00000000000E+00  0.99999998245E-14  0.12500000000E+03  0.12500000000E+03 0.  0.
        -11    1    3    3    0    0 -0.78264208722E+01  0.31809913645E+02  0.11279084769E+02  0.34645940935E+02  0.51100000000E-03 0. -1.
         23    2    1    0    0    0  0.15843546202E+02 -0.23133551470E+02  0.12063160932E+02  0.94476254956E+02  0.89409528234E+02 0.  0.
         11    1    3    3    0    0  0.23669967074E+02 -0.54943465115E+02  0.78407616260E+00  0.59830314021E+02  0.51100000000E-03 0.  1.
         22    1    1    0    0    0 -0.15843546202E+02  0.23133551470E+02 -0.12063160932E+02  0.30523745044E+02  0.00000000000E+00 0.  1.
</event>
<event>
 5    1  0.1717518E-003  0.9118800E+02  0.7818608E-02  0.1130116E+00
         25   -1    0    0    0    0  0.00000000000E+00  0.00000000000E+00  0.99999998245E-14  0.12500000000E+03  0.12500000000E+03 0.  0.
        -11    1    3    3    0    0 -0.92791710799E+01  0.47102472979E+02  0.18947472733E+02  0.51611555875E+02  0.51100000000E-03 0. -1.
         23    2    1    0    0    0 -0.60037781465E+00  0.25965418673E+02 -0.16821683254E+02  0.94055978802E+02  0.88820012950E+02 0.  0.
         11    1    3    3    0    0  0.86787932652E+01 -0.21137054305E+02 -0.35769155987E+02  0.42444422926E+02  0.51100000000E-03 0.  1.
         22    1    1    0    0    0  0.60037781465E+00 -0.25965418673E+02  0.16821683254E+02  0.30944021198E+02  0.00000000000E+00 0. -1.
</event>
<event>
 5    1  0.1717518E-003  0.9118800E+02  0.7818608E-02  0.1130116E+00
         25   -1    0    0    0    0  0.00000000000E+00  0.00000000000E+00  0.99999998245E-14  0.12500000000E+03  0.12500000000E+03 0.  0.
        -11    1    3    3    0    0 -0.19499212664E+02  0.21408902360E+02  0.24867557148E+02  0.38170090300E+02  0.51100000000E-03 0.  1.
         23    2    1    0    0    0 -0.13892331340E+02 -0.24905212819E+02 -0.81690388018E+01  0.95335211267E+02  0.90602443769E+02 0.  0.
         11    1    3    3    0    0  0.56068813248E+01 -0.46314115179E+02 -0.33036595949E+02  0.57165120967E+02  0.51100000000E-03 0. -1.
         22    1    1    0    0    0  0.13892331340E+02  0.24905212819E+02  0.81690388018E+01  0.29664788733E+02  0.00000000000E+00 0. -1.
</event>
<event>
 5    1  0.1717518E-003  0.9118800E+02  0.7818608E-02  0.1130116E+00
         25   -1    0    0    0    0  0.00000000000E+00  0.00000000000E+00  0.99999998245E-14  0.12500000000E+03  0.12500000000E+03 0.  0.
        -11    1    3    3    0    0 -0.31108656459E+02  0.23077991409E+02  0.19442382361E+02  0.43339917239E+02  0.51100000000E-03 0.  1.
         23    2    1    0    0    0 -0.10782307950E+02 -0.24861758503E+02  0.89815726164E+01  0.96451202350E+02  0.92129260213E+02 0.  0.
         11    1    3    3    0    0  0.20326348509E+02 -0.47939749912E+02 -0.10460809745E+02  0.53111285111E+02  0.51100000000E-03 0. -1.
         22    1    1    0    0    0  0.10782307950E+02  0.24861758503E+02 -0.89815726164E+01  0.28548797650E+02  0.00000000000E+00 0. -1.
</event>
<event>
 5    1  0.1717518E-003  0.9118800E+02  0.7818608E-02  0.1130116E+00
         25   -1    0    0    0    0  0.00000000000E+00  0.00000000000E+00  0.99999998245E-14  0.12500000000E+03  0.12500000000E+03 0.  0.
        -11    1    3    3    0    0  0.34023066860E+02  0.21465067434E+02  0.43736949680E+02  0.59424228780E+02  0.51100000000E-03 0.  1.
         23    2    1    0    0    0  0.12436325722E+02  0.23006934662E+02  0.30622476293E+02  0.84729448796E+02  0.74547717597E+02 0.  0.
         11    1    3    3    0    0 -0.21586741139E+02  0.15418672281E+01 -0.13114473388E+02  0.25305220016E+02  0.51100000000E-03 0. -1.
         22    1    1    0    0    0 -0.12436325722E+02 -0.23006934662E+02 -0.30622476293E+02  0.40270551204E+02  0.00000000000E+00 0.  1.
</event>
<event>
 5    1  0.1717518E-003  0.9118800E+02  0.7818608E-02  0.1130116E+00
         25   -1    0    0    0    0  0.00000000000E+00  0.00000000000E+00  0.99999998245E-14  0.12500000000E+03  0.12500000000E+03 0.  0.
        -11    1    3    3    0    0 -0.10678010542E+02 -0.20814950863E+02  0.31079350982E+02  0.38899976173E+02  0.51100000000E-03 0.  1.
         23    2    1    0    0    0 -0.20325455891E+01  0.29287566512E+02  0.93795599312E+01  0.94180056161E+02  0.88994460727E+02 0.  0.
         11    1    3    3    0    0  0.86454649525E+01  0.50102517375E+02 -0.21699791051E+02  0.55280079987E+02  0.51100000000E-03 0. -1.
         22    1    1    0    0    0  0.20325455891E+01 -0.29287566512E+02 -0.93795599312E+01  0.30819943839E+02  0.00000000000E+00 0. -1.
</event>
<event>
 5    1  0.1717518E-003  0.9118800E+02  0.7818608E-02  0.1130116E+00
         25   -1    0    0    0    0  0.00000000000E+00  0.00000000000E+00  0.99999998245E-14  0.12500000000E+03  0.12500000000E+03 0.  0.
        -11    1    3    3    0    0 -0.24021354862E+02  0.28684973483E+02 -0.10247116162E+02  0.38792481011E+02  0.51100000000E-03 0. -1.
         23    2    1    0    0    0  0.26187707287E+02  0.68224137366E+01  0.84353201164E+01  0.96653995562E+02  0.92403998238E+02 0.  0.
         11    1    3    3    0    0  0.50209062149E+02 -0.21862559747E+02  0.18682436278E+02  0.57861514550E+02  0.51100000000E-03 0.  1.
         22    1    1    0    0    0 -0.26187707287E+02 -0.68224137366E+01 -0.84353201164E+01  0.28346004438E+02  0.00000000000E+00 0.  1.
</event>
<event>
 5    1  0.1717518E-003  0.9118800E+02  0.7818608E-02  0.1130116E+00
         25   -1    0    0    0    0  0.00000000000E+00  0.00000000000E+00  0.99999998245E-14  0.12500000000E+03  0.12500000000E+03 0.  0.
        -11    1    3    3    0    0  0.40473306790E+02  0.25734580567E+02  0.10269856197E+02  0.49049231860E+02  0.51100000000E-03 0. -1.
         23    2    1    0    0    0  0.16816261001E+02  0.74276443565E+01 -0.24148719173E+02  0.94650087769E+02  0.89652227759E+02 0.  0.
         11    1    3    3    0    0 -0.23657045789E+02 -0.18306936211E+02 -0.34418575370E+02  0.45600855909E+02  0.51100000000E-03 0.  1.
         22    1    1    0    0    0 -0.16816261001E+02 -0.74276443565E+01  0.24148719173E+02  0.30349912231E+02  0.00000000000E+00 0.  1.
</event>
<event>
 5    1  0.1717518E-003  0.9118800E+02  0.7818608E-02  0.1130116E+00
         25   -1    0    0    0    0  0.00000000000E+00  0.00000000000E+00  0.99999998245E-14  0.12500000000E+03  0.12500000000E+03 0.  0.
        -11    1    3    3    0    0  0.32229162870E+02 -0.18808681180E+02 -0.50733002728E+01  0.37659312301E+02  0.51100000000E-03 0.  1.
         23    2    1    0    0    0 -0.19815357934E+02 -0.85843333353E+01  0.19306162965E+02  0.96033344735E+02  0.91560560197E+02 0.  0.
         11    1    3    3    0    0 -0.52044520804E+02  0.10224347845E+02  0.24379463237E+02  0.58374032434E+02  0.51100000000E-03 0. -1.
         22    1    1    0    0    0  0.19815357934E+02  0.85843333353E+01 -0.19306162965E+02  0.28966655265E+02  0.00000000000E+00 0. -1.
</event>
<event>
 5    1  0.1717518E-003  0.9118800E+02  0.7818608E-02  0.1130116E+00
         25   -1    0    0    0    0  0.00000000000E+00  0.00000000000E+00  0.99999998245E-14  0.12500000000E+03  0.12500000000E+03 0.  0.
        -11    1    3    3    0    0 -0.64263826695E+01  0.42902466351E+02 -0.19275667075E+02  0.47470742091E+02  0.51100000000E-03 0.  1.
         23    2    1    0    0    0  0.12942695350E+02 -0.13140628005E+00 -0.26780504026E+02  0.95255655556E+02  0.90492617870E+02 0.  0.
         11    1    3    3    0    0  0.19369078019E+02 -0.43033872631E+02 -0.75048369519E+01  0.47784913465E+02  0.51100000000E-03 0. -1.
         22    1    1    0    0    0 -0.12942695350E+02  0.13140628005E+00  0.26780504026E+02  0.29744344444E+02  0.00000000000E+00 0.  1.
</event>
<event>
 5    1  0.1717518E-003  0.9118800E+02  0.7818608E-02  0.1130116E+00
         25   -1    0    0    0    0  0.00000000000E+00  0.00000000000E+00  0.99999998245E-14  0.12500000000E+03  0.12500000000E+03 0.  0.
        -11    1    3    3    0    0  0.40921399694E+01 -0.33548915620E+02  0.22781991087E+01  0.33874260734E+02  0.51100000000E-03 0.  1.
         23    2    1    0    0    0 -0.16803790340E+02  0.19631175666E+02 -0.16875074027E+02  0.94137100732E+02  0.88934105848E+02 0.  0.
         11    1    3    3    0    0 -0.20895930309E+02  0.53180091286E+02 -0.19153273136E+02  0.60262839999E+02  0.51100000000E-03 0. -1.
         22    1    1    0    0    0  0.16803790340E+02 -0.19631175666E+02  0.16875074027E+02  0.30862899268E+02  0.00000000000E+00 0. -1.
</event>
<event>
 5    1  0.1717518E-003  0.9118800E+02  0.7818608E-02  0.1130116E+00
         25   -1    0    0    0    0  0.00000000000E+00  0.00000000000E+00  0.99999998245E-14  0.12500000000E+03  0.12500000000E+03 0.  0.
        -11    1    3    3    0    0 -0.28322856698E+02 -0.15004940841E+02 -0.11851382533E+02  0.34172909290E+02  0.51100000000E-03 0. -1.
         23    2    1    0    0    0  0.16664863154E+02  0.13322914981E+02 -0.28057532534E+02  0.89751697070E+02  0.82540440195E+02 0.  0.
         11    1    3    3    0    0  0.44987719852E+02  0.28327855822E+02 -0.16206150000E+02  0.55578787780E+02  0.51100000000E-03 0.  1.
         22    1    1    0    0    0 -0.16664863154E+02 -0.13322914981E+02  0.28057532534E+02  0.35248302930E+02  0.00000000000E+00 0.  1.
</event>
<event>
 5    1  0.1717518E-003  0.9118800E+02  0.7818608E-02  0.1130116E+00
         25   -1    0    0    0    0  0.00000000000E+00  0.00000000000E+00  0.99999998245E-14  0.12500000000E+03  0.12500000000E+03 0.  0.
        -11    1    3    3    0    0  0.28944865318E+01  0.35496139021E+02  0.86877952459E+01  0.36658310438E+02  0.51100000000E-03 0. -1.
         23    2    1    0    0    0 -0.22397106075E+02 -0.15775019302E+02 -0.84325180573E+01  0.96336626938E+02  0.91973674138E+02 0.  0.
         11    1    3    3    0    0 -0.25291592607E+02 -0.51271158323E+02 -0.17120313303E+02  0.59678316500E+02  0.51100000000E-03 0.  1.
         22    1    1    0    0    0  0.22397106075E+02  0.15775019302E+02  0.84325180573E+01  0.28663373062E+02  0.00000000000E+00 0.  1.
</event>
<event>
 5    1  0.1717518E-003  0.9118800E+02  0.7818608E-02  0.1130116E+00
         25   -1    0    0    0    0  0.00000000000E+00  0.00000000000E+00  0.99999998245E-14  0.12500000000E+03  0.12500000000E+03 0.  0.
        -11    1    3    3    0    0 -0.21999278015E+01 -0.91706028482E+01 -0.32873975623E+02  0.34199969480E+02  0.51100000000E-03 0.  1.
         23    2    1    0    0    0 -0.17720463001E+02 -0.22025394908E+02  0.19726428563E+02  0.90528782823E+02  0.83708994175E+02 0.  0.
         11    1    3    3    0    0 -0.15520535199E+02 -0.12854792059E+02  0.52600404186E+02  0.56328813343E+02  0.51100000000E-03 0. -1.
         22    1    1    0    0    0  0.17720463001E+02  0.22025394908E+02 -0.19726428563E+02  0.34471217177E+02  0.00000000000E+00 0. -1.
</event>
<event>
 5    1  0.1717518E-003  0.9118800E+02  0.7818608E-02  0.1130116E+00
         25   -1    0    0    0    0  0.00000000000E+00  0.00000000000E+00  0.99999998245E-14  0.12500000000E+03  0.12500000000E+03 0.  0.
        -11    1    3    3    0    0  0.53379861436E+02  0.32482082775E+02  0.12455142142E+01  0.62498372893E+02  0.51100000000E-03 0.  1.
         23    2    1    0    0    0  0.26554908223E+02  0.16131261465E+02  0.30124125970E+00  0.93927962837E+02  0.88639667808E+02 0.  0.
         11    1    3    3    0    0 -0.26824953213E+02 -0.16350821310E+02 -0.94427295450E+00  0.31429589944E+02  0.51100000000E-03 0. -1.
         22    1    1    0    0    0 -0.26554908223E+02 -0.16131261465E+02 -0.30124125970E+00  0.31072037163E+02  0.00000000000E+00 0.  1.
</event>
<event>
 5    1  0.1717518E-003  0.9118800E+02  0.7818608E-02  0.1130116E+00
         25   -1    0    0    0    0  0.00000000000E+00  0.00000000000E+00  0.99999998245E-14  0.12500000000E+03  0.12500000000E+03 0.  0.
        -11    1    3    3    0    0 -0.20582920005E+02 -0.48840715816E+02  0.25277428282E+02  0.58719847566E+02  0.51100000000E-03 0. -1.
         23    2    1    0    0    0 -0.20101327506E+02 -0.17984359218E+02  0.95809484148E+00  0.98010770858E+02  0.94221508767E+02 0.  0.
         11    1    3    3    0    0  0.48159249917E+00  0.30856356599E+02 -0.24319333440E+02  0.39290923292E+02  0.51100000000E-03 0.  1.
         22    1    1    0    0    0  0.20101327506E+02  0.17984359218E+02 -0.95809484148E+00  0.26989229142E+02  0.00000000000E+00 0. -1.
</event>
<event>
 5    1  0.1717518E-003  0.9118800E+02  0.7818608E-02  0.1130116E+00
         25   -1    0    0    0    0  0.00000000000E+00  0.00000000000E+00  0.99999998245E-14  0.12500000000E+03  0.12500000000E+03 0.  0.
        -11    1    3    3    0    0  0.17617431419E+01  0.42336497104E+02 -0.45789209809E+02  0.62386973489E+02  0.51100000000E-03 0.  1.
         23    2    1    0    0    0  0.33977868374E+01  0.19922218959E+02 -0.20690460108E+02  0.96077086884E+02  0.91620258245E+02 0.  0.
         11    1    3    3    0    0  0.16360436956E+01 -0.22414278145E+02  0.25098749701E+02  0.33690113394E+02  0.51100000000E-03 0. -1.
         22    1    1    0    0    0 -0.33977868374E+01 -0.19922218959E+02  0.20690460108E+02  0.28922913116E+02  0.00000000000E+00 0.  1.
</event>
<event>
 5    1  0.1717518E-003  0.9118800E+02  0.7818608E-02  0.1130116E+00
         25   -1    0    0    0    0  0.00000000000E+00  0.00000000000E+00  0.99999998245E-14  0.12500000000E+03  0.12500000000E+03 0.  0.
        -11    1    3    3    0    0 -0.57418861530E+02  0.59054533397E+01  0.10907112981E+02  0.58743213671E+02  0.51100000000E-03 0. -1.
         23    2    1    0    0    0 -0.16223143813E+02  0.15459789846E+02 -0.64218041993E+00  0.10258108181E+03  0.10010130095E+03 0.  0.
         11    1    3    3    0    0  0.41195717717E+02  0.95543365065E+01 -0.11549293401E+02  0.43837868135E+02  0.51100000000E-03 0.  1.
         22    1    1    0    0    0  0.16223143813E+02 -0.15459789846E+02  0.64218041993E+00  0.22418918193E+02  0.00000000000E+00 0. -1.
</event>
<event>
 5    1  0.1717518E-003  0.9118800E+02  0.7818608E-02  0.1130116E+00
         25   -1    0    0    0    0  0.00000000000E+00  0.00000000000E+00  0.99999998245E-14  0.12500000000E+03  0.12500000000E+03 0.  0.
        -11    1    3    3    0    0  0.22965234988E+02 -0.29117720514E+02 -0.29279394750E+02  0.47249620350E+02  0.51100000000E-03 0.  1.
         23    2    1    0    0    0 -0.17875252262E+02 -0.40021859898E+01 -0.22988796546E+02  0.95605665465E+02  0.90974811714E+02 0.  0.
         11    1    3    3    0    0 -0.40840487249E+02  0.25115534524E+02  0.62905982046E+01  0.48356045116E+02  0.51100000000E-03 0. -1.
         22    1    1    0    0    0  0.17875252262E+02  0.40021859898E+01  0.22988796546E+02  0.29394334535E+02  0.00000000000E+00 0.  1.
</event>
<event>
 5    1  0.1717518E-003  0.9118800E+02  0.7818608E-02  0.1130116E+00
         25   -1    0    0    0    0  0.00000000000E+00  0.00000000000E+00  0.99999998245E-14  0.12500000000E+03  0.12500000000E+03 0.  0.
        -11    1    3    3    0    0 -0.39557484456E+01  0.32389597903E+02 -0.15670275053E+02  0.36197949094E+02  0.51100000000E-03 0. -1.
         23    2    1    0    0    0  0.26635125921E+02 -0.37988893138E+01  0.16469195602E+02  0.93454859382E+02  0.87969965588E+02 0.  0.
         11    1    3    3    0    0  0.30590874366E+02 -0.36188487217E+02  0.32139470655E+02  0.57256910288E+02  0.51100000000E-03 0.  1.
         22    1    1    0    0    0 -0.26635125921E+02  0.37988893138E+01 -0.16469195602E+02  0.31545140618E+02  0.00000000000E+00 0.  1.
</event>
<event>
 5    1  0.1717518E-003  0.9118800E+02  0.7818608E-02  0.1130116E+00
         25   -1    0    0    0    0  0.00000000000E+00  0.00000000000E+00  0.99999998245E-14  0.12500000000E+03  0.12500000000E+03 0.  0.
        -11    1    3    3    0    0 -0.22393214609E+02  0.48594378944E+02 -0.19717100893E+02  0.57023098770E+02  0.51100000000E-03 0.  1.
         23    2    1    0    0    0 -0.21624035726E+02  0.18543459849E+02  0.51694815634E+01  0.96048620692E+02  0.91581412813E+02 0.  0.
         11    1    3    3    0    0  0.76917888377E+00 -0.30050919095E+02  0.24886582456E+02  0.39025521921E+02  0.51100000000E-03 0. -1.
         22    1    1    0    0    0  0.21624035726E+02 -0.18543459849E+02 -0.51694815634E+01  0.28951379308E+02  0.00000000000E+00 0.  1.
</event>
<event>
 5    1  0.1717518E-003  0.9118800E+02  0.7818608E-02  0.1130116E+00
         25   -1    0    0    0    0  0.00000000000E+00  0.00000000000E+00  0.99999998245E-14  0.12500000000E+03  0.12500000000E+03 0.  0.
        -11    1    3    3    0    0  0.41153513742E+02  0.21947642579E+02  0.64774476930E+01  0.47087875690E+02  0.51100000000E-03 0.  1.
         23    2    1    0    0    0 -0.37146254437E+01  0.29661032283E+02 -0.64609220287E+01  0.94417017939E+02  0.89326672863E+02 0.  0.
         11    1    3    3    0    0 -0.44868139186E+02  0.77133897040E+01 -0.12938369722E+02  0.47329142249E+02  0.51100000000E-03 0. -1.
         22    1    1    0    0    0  0.37146254437E+01 -0.29661032283E+02  0.64609220287E+01  0.30582982061E+02  0.00000000000E+00 0. -1.
</event>
<event>
 5    1  0.1717518E-003  0.9118800E+02  0.7818608E-02  0.1130116E+00
         25   -1    0    0    0    0  0.00000000000E+00  0.00000000000E+00  0.99999998245E-14  0.12500000000E+03  0.12500000000E+03 0.  0.
        -11    1    3    3    0    0 -0.46506912729E+02 -0.35448257896E+02  0.65846877292E+01  0.58845815758E+02  0.51100000000E-03 0.  1.
         23    2    1    0    0    0 -0.17855575060E+02 -0.17092083095E+02 -0.11897111302E+02  0.97568227863E+02  0.93632563597E+02 0.  0.
         11    1    3    3    0    0  0.28651337669E+02  0.18356174801E+02 -0.18481799031E+02  0.38722412105E+02  0.51100000000E-03 0. -1.
         22    1    1    0    0    0  0.17855575060E+02  0.17092083095E+02  0.11897111302E+02  0.27431772137E+02  0.00000000000E+00 0.  1.
</event>
<event>
 5    1  0.1717518E-003  0.9118800E+02  0.7818608E-02  0.1130116E+00
         25   -1    0    0    0    0  0.00000000000E+00  0.00000000000E+00  0.99999998245E-14  0.12500000000E+03  0.12500000000E+03 0.  0.
        -11    1    3    3    0    0 -0.17495058061E+02 -0.41524838729E+02 -0.23076363208E+02  0.50625169898E+02  0.51100000000E-03 0. -1.
         23    2    1    0    0    0 -0.12306326642E+02  0.43566487673E+01 -0.24954200750E+02  0.96837290631E+02  0.92651619834E+02 0.  0.
         11    1    3    3    0    0  0.51887314188E+01  0.45881487496E+02 -0.18778375421E+01  0.46212120733E+02  0.51100000000E-03 0.  1.
         22    1    1    0    0    0  0.12306326642E+02 -0.43566487673E+01  0.24954200750E+02  0.28162709369E+02  0.00000000000E+00 0. -1.
</event>
<event>
 5    1  0.1717518E-003  0.9118800E+02  0.7818608E-02  0.1130116E+00
         25   -1    0    0    0    0  0.00000000000E+00  0.00000000000E+00  0.99999998245E-14  0.12500000000E+03  0.12500000000E+03 0.  0.
        -11    1    3    3    0    0 -0.43735209793E+01  0.53579910121E+02 -0.21438240850E+02  0.57875146871E+02  0.51100000000E-03 0. -1.
         23    2    1    0    0    0  0.14732374622E+02  0.24230660863E+02 -0.67566898586E+01  0.95848316589E+02  0.91307607281E+02 0.  0.
         11    1    3    3    0    0  0.19105895601E+02 -0.29349249258E+02  0.14681550991E+02  0.37973169719E+02  0.51100000000E-03 0.  1.
         22    1    1    0    0    0 -0.14732374622E+02 -0.24230660863E+02  0.67566898586E+01  0.29151683411E+02  0.00000000000E+00 0. -1.
</event>
<event>
 5    1  0.1717518E-003  0.9118800E+02  0.7818608E-02  0.1130116E+00
         25   -1    0    0    0    0  0.00000000000E+00  0.00000000000E+00  0.99999998245E-14  0.12500000000E+03  0.12500000000E+03 0.  0.
        -11    1    3    3    0    0 -0.39600367951E+02  0.39644184283E+02  0.22501820818E+02  0.60383627166E+02  0.51100000000E-03 0.  1.
         23    2    1    0    0    0 -0.18007959209E+02  0.13139872549E+02  0.20638670979E+02  0.94620770496E+02  0.89611342050E+02 0.  0.
         11    1    3    3    0    0  0.21592408741E+02 -0.26504311735E+02 -0.18631498392E+01  0.34237143330E+02  0.51100000000E-03 0. -1.
         22    1    1    0    0    0  0.18007959209E+02 -0.13139872549E+02 -0.20638670979E+02  0.30379229504E+02  0.00000000000E+00 0.  1.
</event>
<event>
 5    1  0.1717518E-003  0.9118800E+02  0.7818608E-02  0.1130116E+00
         25   -1    0    0    0    0  0.00000000000E+00  0.00000000000E+00  0.99999998245E-14  0.12500000000E+03  0.12500000000E+03 0.  0.
        -11    1    3    3    0    0 -0.34646475437E+02 -0.57616897563E+01 -0.30791186028E+02  0.46708376833E+02  0.51100000000E-03 0. -1.
         23    2    1    0    0    0 -0.54500843339E+00  0.22946743648E+02 -0.23984905044E+02  0.91801720704E+02  0.85588726921E+02 0.  0.
         11    1    3    3    0    0  0.34101467004E+02  0.28708433405E+02  0.68062809835E+01  0.45093343871E+02  0.51100000000E-03 0.  1.
         22    1    1    0    0    0  0.54500843339E+00 -0.22946743648E+02  0.23984905044E+02  0.33198279296E+02  0.00000000000E+00 0. -1.
</event>
<event>
 5    1  0.1717518E-003  0.9118800E+02  0.7818608E-02  0.1130116E+00
         25   -1    0    0    0    0  0.00000000000E+00  0.00000000000E+00  0.99999998245E-14  0.12500000000E+03  0.12500000000E+03 0.  0.
        -11    1    3    3    0    0 -0.23641927885E+02 -0.10007657697E+02  0.55822810429E+02  0.61443308270E+02  0.51100000000E-03 0. -1.
         23    2    1    0    0    0 -0.57699627917E+01 -0.84118981164E+01  0.32907984796E+02  0.90547308322E+02  0.83736653149E+02 0.  0.
         11    1    3    3    0    0  0.17871965094E+02  0.15957595802E+01 -0.22914825634E+02  0.29104000052E+02  0.51100000000E-03 0.  1.
         22    1    1    0    0    0  0.57699627917E+01  0.84118981164E+01 -0.32907984796E+02  0.34452691678E+02  0.00000000000E+00 0. -1.
</event>
<event>
 5    1  0.1717518E-003  0.9118800E+02  0.7818608E-02  0.1130116E+00
         25   -1    0    0    0    0  0.00000000000E+00  0.00000000000E+00  0.99999998245E-14  0.12500000000E+03  0.12500000000E+03 0.  0.
        -11    1    3    3    0    0  0.46252671873E+02 -0.12744049238E+02  0.30513506255E+02  0.56857668881E+02  0.51100000000E-03 0.  1.
         23    2    1    0    0    0  0.27948378055E+02 -0.31198571389E+01 -0.34963948486E+01  0.96661508131E+02  0.92414160348E+02 0.  0.
         11    1    3    3    0    0 -0.18304293818E+02  0.96241920989E+01 -0.34009901103E+02  0.39803839250E+02  0.51100000000E-03 0. -1.
         22    1    1    0    0    0 -0.27948378055E+02  0.31198571389E+01  0.34963948486E+01  0.28338491869E+02  0.00000000000E+00 0.  1.
</event>
<event>
 5    1  0.1717518E-003  0.9118800E+02  0.7818608E-02  0.1130116E+00
         25   -1    0    0    0    0  0.00000000000E+00  0.00000000000E+00  0.99999998245E-14  0.12500000000E+03  0.12500000000E+03 0.  0.
        -11    1    3    3    0    0  0.78297931816E+01 -0.48675939737E+02 -0.19700521379E+02  0.53092026834E+02  0.51100000000E-03 0.  1.
         23    2    1    0    0    0 -0.18416719669E+00 -0.70000615977E+01 -0.27829584725E+02  0.96302951966E+02  0.91927895611E+02 0.  0.
         11    1    3    3    0    0 -0.80139603783E+01  0.41675878139E+02 -0.81290633458E+01  0.43210925132E+02  0.51100000000E-03 0. -1.
         22    1    1    0    0    0  0.18416719669E+00  0.70000615977E+01  0.27829584725E+02  0.28697048034E+02  0.00000000000E+00 0.  1.
</event>
<event>
 5    1  0.1717518E-003  0.9118800E+02  0.7818608E-02  0.1130116E+00
         25   -1    0    0    0    0  0.00000000000E+00  0.00000000000E+00  0.99999998245E-14  0.12500000000E+03  0.12500000000E+03 0.  0.
        -11    1    3    3    0    0  0.51121201496E+02 -0.15113979784E+02 -0.28842857296E+01  0.53386596929E+02  0.51100000000E-03 0.  1.
         23    2    1    0    0    0  0.19746498947E+02 -0.11294183090E+02  0.21801968083E+02  0.93491134507E+02  0.88021495254E+02 0.  0.
         11    1    3    3    0    0 -0.31374702548E+02  0.38197966943E+01  0.24686253813E+02  0.40104537578E+02  0.51100000000E-03 0. -1.
         22    1    1    0    0    0 -0.19746498947E+02  0.11294183090E+02 -0.21801968083E+02  0.31508865493E+02  0.00000000000E+00 0.  1.
</event>
<event>
 5    1  0.1717518E-003  0.9118800E+02  0.7818608E-02  0.1130116E+00
         25   -1    0    0    0    0  0.00000000000E+00  0.00000000000E+00  0.99999998245E-14  0.12500000000E+03  0.12500000000E+03 0.  0.
        -11    1    3    3    0    0  0.39944991624E+02  0.23580732633E+02 -0.29217151638E+01  0.46477841248E+02  0.51100000000E-03 0. -1.
         23    2    1    0    0    0 -0.61874359477E+01  0.28872363571E+02 -0.10765935682E+02  0.93570664772E+02  0.88134364427E+02 0.  0.
         11    1    3    3    0    0 -0.46132427572E+02  0.52916309379E+01 -0.78442205183E+01  0.47092823524E+02  0.51100000000E-03 0.  1.
         22    1    1    0    0    0  0.61874359477E+01 -0.28872363571E+02  0.10765935682E+02  0.31429335228E+02  0.00000000000E+00 0.  1.
</event>
<event>
 5    1  0.1717518E-003  0.9118800E+02  0.7818608E-02  0.1130116E+00
         25   -1    0    0    0    0  0.00000000000E+00  0.00000000000E+00  0.99999998245E-14  0.12500000000E+03  0.12500000000E+03 0.  0.
        -11    1    3    3    0    0  0.88777443706E+01 -0.24827712137E+01 -0.33006665227E+02  0.34269789139E+02  0.51100000000E-03 0.  1.
         23    2    1    0    0    0 -0.15232464966E+02  0.30675738568E+01  0.23997384509E+02  0.96411322844E+02  0.92075136225E+02 0.  0.
         11    1    3    3    0    0 -0.24110209336E+02  0.55503450705E+01  0.57004049735E+02  0.62141533704E+02  0.51100000000E-03 0. -1.
         22    1    1    0    0    0  0.15232464966E+02 -0.30675738568E+01 -0.23997384509E+02  0.28588677156E+02  0.00000000000E+00 0. -1.
</event>
<event>
 5    1  0.1717518E-003  0.9118800E+02  0.7818608E-02  0.1130116E+00
         25   -1    0    0    0    0  0.00000000000E+00  0.00000000000E+00  0.99999998245E-14  0.12500000000E+03  0.12500000000E+03 0.  0.
        -11    1    3    3    0    0 -0.56441927871E+01  0.43386841841E+02  0.62290212114E+01  0.44193615633E+02  0.51100000000E-03 0.  1.
         23    2    1    0    0    0 -0.28012428432E+02 -0.34382200849E+01  0.62802878875E+01  0.96087035435E+02  0.91633830318E+02 0.  0.
         11    1    3    3    0    0 -0.22368235645E+02 -0.46825061926E+02  0.51266676124E-01  0.51893419802E+02  0.51100000000E-03 0. -1.
         22    1    1    0    0    0  0.28012428432E+02  0.34382200849E+01 -0.62802878875E+01  0.28912964565E+02  0.00000000000E+00 0.  1.
</event>
<event>
 5    1  0.1717518E-003  0.9118800E+02  0.7818608E-02  0.1130116E+00
         25   -1    0    0    0    0  0.00000000000E+00  0.00000000000E+00  0.99999998245E-14  0.12500000000E+03  0.12500000000E+03 0.  0.
        -11    1    3    3    0    0  0.28168536983E+02 -0.13198762966E+02 -0.67132159536E+01  0.31823593265E+02  0.51100000000E-03 0.  1.
         23    2    1    0    0    0 -0.26377642295E+02  0.15924842671E+02  0.12151808614E+01  0.94164026014E+02  0.88971942226E+02 0.  0.
         11    1    3    3    0    0 -0.54546179278E+02  0.29123605636E+02  0.79283968150E+01  0.62340432749E+02  0.51100000000E-03 0. -1.
         22    1    1    0    0    0  0.26377642295E+02 -0.15924842671E+02 -0.12151808614E+01  0.30835973986E+02  0.00000000000E+00 0. -1.
</event>
<event>
 5    1  0.1717518E-003  0.9118800E+02  0.7818608E-02  0.1130116E+00
         25   -1    0    0    0    0  0.00000000000E+00  0.00000000000E+00  0.99999998245E-14  0.12500000000E+03  0.12500000000E+03 0.  0.
        -11    1    3    3    0    0 -0.30390421354E+00 -0.33169083491E+02  0.48725333900E+02  0.58944368869E+02  0.51100000000E-03 0.  1.
         23    2    1    0    0    0  0.10285558131E+02 -0.56521451993E+01  0.26973145395E+02  0.95584187519E+02  0.90945296084E+02 0.  0.
         11    1    3    3    0    0  0.10589462344E+02  0.27516938292E+02 -0.21752188505E+02  0.36639818650E+02  0.51100000000E-03 0. -1.
         22    1    1    0    0    0 -0.10285558131E+02  0.56521451993E+01 -0.26973145395E+02  0.29415812481E+02  0.00000000000E+00 0.  1.
</event>
<event>
 5    1  0.1717518E-003  0.9118800E+02  0.7818608E-02  0.1130116E+00
         25   -1    0    0    0    0  0.00000000000E+00  0.00000000000E+00  0.99999998245E-14  0.12500000000E+03  0.12500000000E+03 0.  0.
        -11    1    3    3    0    0  0.13126828115E+02 -0.27965323432E+02 -0.22313797280E+02  0.38108771698E+02  0.51100000000E-03 0. -1.
         23    2    1    0    0    0  0.65208412220E+01  0.56850792040E+01  0.26137511721E+02  0.97468000168E+02  0.93498663316E+02 0.  0.
         11    1    3    3    0    0 -0.66059868934E+01  0.33650402636E+02  0.48451309001E+02  0.59359228470E+02  0.51100000000E-03 0.  1.
         22    1    1    0    0    0 -0.65208412220E+01 -0.56850792040E+01 -0.26137511721E+02  0.27531999832E+02  0.00000000000E+00 0.  1.
</event>
<event>
 5    1  0.1717518E-003  0.9118800E+02  0.7818608E-02  0.1130116E+00
         25   -1    0    0    0    0  0.00000000000E+00  0.00000000000E+00  0.99999998245E-14  0.12500000000E+03  0.12500000000E+03 0.  0.
        -11    1    3    3    0    0 -0.23293556608E+02  0.15803305145E+02  0.36805175949E+02  0.46335248029E+02  0.51100000000E-03 0.  1.
         23    2    1    0    0    0 -0.25031065109E+02  0.12008749691E+02 -0.11593766805E+02  0.94913795216E+02  0.90019157983E+02 0.  0.
         11    1    3    3    0    0 -0.17375085004E+01 -0.37945554545E+01 -0.48398942753E+02  0.48578547187E+02  0.51100000000E-03 0. -1.
         22    1    1    0    0    0  0.25031065109E+02 -0.12008749691E+02  0.11593766805E+02  0.30086204784E+02  0.00000000000E+00 0.  1.
</event>
<event>
 5    1  0.1717518E-003  0.9118800E+02  0.7818608E-02  0.1130116E+00
         25   -1    0    0    0    0  0.00000000000E+00  0.00000000000E+00  0.99999998245E-14  0.12500000000E+03  0.12500000000E+03 0.  0.
        -11    1    3    3    0    0 -0.52872599559E+01  0.34502456260E+02  0.13505679226E+02  0.37426968584E+02  0.51100000000E-03 0.  1.
         23    2    1    0    0    0  0.97179002695E+00 -0.22303528022E+02  0.20105198170E+02  0.94956519317E+02  0.90078464847E+02 0.  0.
         11    1    3    3    0    0  0.62590499829E+01 -0.56805984282E+02  0.65995189440E+01  0.57529550732E+02  0.51100000000E-03 0. -1.
         22    1    1    0    0    0 -0.97179002695E+00  0.22303528022E+02 -0.20105198170E+02  0.30043480683E+02  0.00000000000E+00 0. -1.
</event>
<event>
 5    1  0.1717518E-003  0.9118800E+02  0.7818608E-02  0.1130116E+00
         25   -1    0    0    0    0  0.00000000000E+00  0.00000000000E+00  0.99999998245E-14  0.12500000000E+03  0.12500000000E+03 0.  0.
        -11    1    3    3    0    0 -0.30133309463E+02 -0.28087015296E+02 -0.34779215402E+02  0.53911878020E+02  0.51100000000E-03 0.  1.
         23    2    1    0    0    0  0.43292887706E+01 -0.41437773768E+01 -0.27934266380E+02  0.96430140525E+02  0.92100679321E+02 0.  0.
         11    1    3    3    0    0  0.34462598234E+02  0.23943237919E+02  0.68449490221E+01  0.42518262505E+02  0.51100000000E-03 0. -1.
         22    1    1    0    0    0 -0.43292887706E+01  0.41437773768E+01  0.27934266380E+02  0.28569859475E+02  0.00000000000E+00 0.  1.
</event>
<event>
 5    1  0.1717518E-003  0.9118800E+02  0.7818608E-02  0.1130116E+00
         25   -1    0    0    0    0  0.00000000000E+00  0.00000000000E+00  0.99999998245E-14  0.12500000000E+03  0.12500000000E+03 0.  0.
        -11    1    3    3    0    0 -0.52025972251E+02 -0.43583906764E+01 -0.80230945679E+01  0.52821088636E+02  0.51100000000E-03 0.  1.
         23    2    1    0    0    0 -0.13038956699E+02 -0.23392196736E+02 -0.10398648477E+02  0.96271248721E+02  0.91884776651E+02 0.  0.
         11    1    3    3    0    0  0.38987015552E+02 -0.19033806059E+02 -0.23755539093E+01  0.43450160085E+02  0.51100000000E-03 0. -1.
         22    1    1    0    0    0  0.13038956699E+02  0.23392196736E+02  0.10398648477E+02  0.28728751279E+02  0.00000000000E+00 0. -1.
</event>
<event>
 5    1  0.1717518E-003  0.9118800E+02  0.7818608E-02  0.1130116E+00
         25   -1    0    0    0    0  0.00000000000E+00  0.00000000000E+00  0.99999998245E-14  0.12500000000E+03  0.12500000000E+03 0.  0.
        -11    1    3    3    0    0  0.26043658275E+02  0.15678245529E+02  0.53730023781E+02  0.61733256637E+02  0.51100000000E-03 0.  1.
         23    2    1    0    0    0  0.15223630934E+02  0.79964003507E+01  0.42626646183E+02  0.79035531960E+02  0.64295279688E+02 0.  0.
         11    1    3    3    0    0 -0.10820027342E+02 -0.76818451786E+01 -0.11103377598E+02  0.17302275324E+02  0.51100000000E-03 0. -1.
         22    1    1    0    0    0 -0.15223630934E+02 -0.79964003507E+01 -0.42626646183E+02  0.45964468040E+02  0.00000000000E+00 0.  1.
</event>
<event>
 5    1  0.1717518E-003  0.9118800E+02  0.7818608E-02  0.1130116E+00
         25   -1    0    0    0    0  0.00000000000E+00  0.00000000000E+00  0.99999998245E-14  0.12500000000E+03  0.12500000000E+03 0.  0.
        -11    1    3    3    0    0  0.54337528777E+02 -0.20226785350E+02  0.11599446605E+02  0.59128986470E+02  0.51100000000E-03 0. -1.
         23    2    1    0    0    0  0.19399969611E+02 -0.13549018355E+02  0.17998320601E+02  0.95269977065E+02  0.90512398412E+02 0.  0.
         11    1    3    3    0    0 -0.34937559166E+02  0.66777669958E+01  0.63988739952E+01  0.36140990595E+02  0.51100000000E-03 0.  1.
         22    1    1    0    0    0 -0.19399969611E+02  0.13549018355E+02 -0.17998320601E+02  0.29730022935E+02  0.00000000000E+00 0. -1.
</event>
<event>
 5    1  0.1717518E-003  0.9118800E+02  0.7818608E-02  0.1130116E+00
         25   -1    0    0    0    0  0.00000000000E+00  0.00000000000E+00  0.99999998245E-14  0.12500000000E+03  0.12500000000E+03 0.  0.
        -11    1    3    3    0    0  0.27857594188E+02  0.19132176250E+02  0.22885110004E+02  0.40814384501E+02  0.51100000000E-03 0. -1.
         23    2    1    0    0    0  0.80746074747E+01 -0.27882358701E+02  0.14658857001E+02  0.92480662658E+02  0.86574624830E+02 0.  0.
         11    1    3    3    0    0 -0.19782986714E+02 -0.47014534950E+02 -0.82262530027E+01  0.51666278157E+02  0.51100000000E-03 0.  1.
         22    1    1    0    0    0 -0.80746074747E+01  0.27882358701E+02 -0.14658857001E+02  0.32519337342E+02  0.00000000000E+00 0.  1.
</event>
<event>
 5    1  0.1717518E-003  0.9118800E+02  0.7818608E-02  0.1130116E+00
         25   -1    0    0    0    0  0.00000000000E+00  0.00000000000E+00  0.99999998245E-14  0.12500000000E+03  0.12500000000E+03 0.  0.
        -11    1    3    3    0    0 -0.36329614802E+02  0.38482332587E+02 -0.32881471622E+02  0.62305072099E+02  0.51100000000E-03 0.  1.
         23    2    1    0    0    0 -0.17494043257E+02  0.16243299619E+02 -0.18466971152E+02  0.94818625685E+02  0.89886909065E+02 0.  0.
         11    1    3    3    0    0  0.18835571544E+02 -0.22239032968E+02  0.14414500470E+02  0.32513553586E+02  0.51100000000E-03 0. -1.
         22    1    1    0    0    0  0.17494043257E+02 -0.16243299619E+02  0.18466971152E+02  0.30181374315E+02  0.00000000000E+00 0.  1.
</event>
<event>
 5    1  0.1717518E-003  0.9118800E+02  0.7818608E-02  0.1130116E+00
         25   -1    0    0    0    0  0.00000000000E+00  0.00000000000E+00  0.99999998245E-14  0.12500000000E+03  0.12500000000E+03 0.  0.
        -11    1    3    3    0    0 -0.55403918418E+01 -0.13267946982E+02 -0.34437121041E+02  0.37318221618E+02  0.51100000000E-03 0. -1.
         23    2    1    0    0    0 -0.17711787222E+01 -0.57758318672E+01  0.25986190248E+02  0.98320806020E+02  0.94631926457E+02 0.  0.
         11    1    3    3    0    0  0.37692131196E+01  0.74921151145E+01  0.60423311289E+02  0.61002584402E+02  0.51100000000E-03 0.  1.
         22    1    1    0    0    0  0.17711787222E+01  0.57758318672E+01 -0.25986190248E+02  0.26679193980E+02  0.00000000000E+00 0.  1.
</event>
<event>
 5    1  0.1717518E-003  0.9118800E+02  0.7818608E-02  0.1130116E+00
         25   -1    0    0    0    0  0.00000000000E+00  0.00000000000E+00  0.99999998245E-14  0.12500000000E+03  0.12500000000E+03 0.  0.
        -11    1    3    3    0    0  0.29198780665E+02  0.35853539705E+02  0.95424228043E+00  0.46248845178E+02  0.51100000000E-03 0.  1.
         23    2    1    0    0    0  0.38818228062E+02  0.18954004707E+01  0.13725949958E+02  0.83782903121E+02  0.72943305247E+02 0.  0.
         11    1    3    3    0    0  0.96194473976E+01 -0.33958139234E+02  0.12771707677E+02  0.37534057944E+02  0.51100000000E-03 0. -1.
         22    1    1    0    0    0 -0.38818228062E+02 -0.18954004707E+01 -0.13725949958E+02  0.41217096879E+02  0.00000000000E+00 0.  1.
</event>
<event>
 5    1  0.1717518E-003  0.9118800E+02  0.7818608E-02  0.1130116E+00
         25   -1    0    0    0    0  0.00000000000E+00  0.00000000000E+00  0.99999998245E-14  0.12500000000E+03  0.12500000000E+03 0.  0.
        -11    1    3    3    0    0 -0.43324690302E+02 -0.23417481579E+02 -0.71282763735E+01  0.49761627361E+02  0.51100000000E-03 0.  1.
         23    2    1    0    0    0 -0.15052340925E+02 -0.98284816967E+01  0.24700618225E+02  0.94450162677E+02  0.89373042184E+02 0.  0.
         11    1    3    3    0    0  0.28272349377E+02  0.13588999883E+02  0.31828894598E+02  0.44688535316E+02  0.51100000000E-03 0. -1.
         22    1    1    0    0    0  0.15052340925E+02  0.98284816967E+01 -0.24700618225E+02  0.30549837323E+02  0.00000000000E+00 0.  1.
</event>
<event>
 5    1  0.1717518E-003  0.9118800E+02  0.7818608E-02  0.1130116E+00
         25   -1    0    0    0    0  0.00000000000E+00  0.00000000000E+00  0.99999998245E-14  0.12500000000E+03  0.12500000000E+03 0.  0.
        -11    1    3    3    0    0 -0.46438401003E+02 -0.26880818679E+02 -0.16698650504E+02  0.56195626427E+02  0.51100000000E-03 0. -1.
         23    2    1    0    0    0 -0.31141953053E+02  0.84015424635E-01 -0.20920889432E+02  0.87483178264E+02  0.79030339528E+02 0.  0.
         11    1    3    3    0    0  0.15296447950E+02  0.26964834104E+02 -0.42222389280E+01  0.31287551837E+02  0.51100000000E-03 0.  1.
         22    1    1    0    0    0  0.31141953053E+02 -0.84015424635E-01  0.20920889432E+02  0.37516821736E+02  0.00000000000E+00 0. -1.
</event>
<event>
 5    1  0.1717518E-003  0.9118800E+02  0.7818608E-02  0.1130116E+00
         25   -1    0    0    0    0  0.00000000000E+00  0.00000000000E+00  0.99999998245E-14  0.12500000000E+03  0.12500000000E+03 0.  0.
        -11    1    3    3    0    0 -0.31773380519E+02  0.25591867243E+01 -0.84459971969E+01  0.32976234097E+02  0.51100000000E-03 0.  1.
         23    2    1    0    0    0  0.26985887990E+02 -0.13309223208E+02 -0.80917886894E+01  0.93841524151E+02  0.88517687712E+02 0.  0.
         11    1    3    3    0    0  0.58759268509E+02 -0.15868409932E+02  0.35420850750E+00  0.60865290055E+02  0.51100000000E-03 0. -1.
         22    1    1    0    0    0 -0.26985887990E+02  0.13309223208E+02  0.80917886894E+01  0.31158475849E+02  0.00000000000E+00 0. -1.
</event>
<event>
 5    1  0.1717518E-003  0.9118800E+02  0.7818608E-02  0.1130116E+00
         25   -1    0    0    0    0  0.00000000000E+00  0.00000000000E+00  0.99999998245E-14  0.12500000000E+03  0.12500000000E+03 0.  0.
        -11    1    3    3    0    0 -0.44737494827E+02  0.10072493686E+01  0.41856622083E+02  0.61273442919E+02  0.51100000000E-03 0. -1.
         23    2    1    0    0    0 -0.15214832255E+02  0.57101568400E+00  0.26209158052E+02  0.94689322917E+02  0.89706915727E+02 0.  0.
         11    1    3    3    0    0  0.29522662572E+02 -0.43623368461E+00 -0.15647464032E+02  0.33415879998E+02  0.51100000000E-03 0.  1.
         22    1    1    0    0    0  0.15214832255E+02 -0.57101568400E+00 -0.26209158052E+02  0.30310677083E+02  0.00000000000E+00 0. -1.
</event>
<event>
 5    1  0.1717518E-003  0.9118800E+02  0.7818608E-02  0.1130116E+00
         25   -1    0    0    0    0  0.00000000000E+00  0.00000000000E+00  0.99999998245E-14  0.12500000000E+03  0.12500000000E+03 0.  0.
        -11    1    3    3    0    0  0.38159519438E+02 -0.29956031861E+02  0.32779382175E+02  0.58549130350E+02  0.51100000000E-03 0.  1.
         23    2    1    0    0    0  0.25768716629E+02 -0.43152482509E+00  0.15287771026E+02  0.95034537992E+02  0.90186664746E+02 0.  0.
         11    1    3    3    0    0 -0.12390802809E+02  0.29524507036E+02 -0.17491611149E+02  0.36485407642E+02  0.51100000000E-03 0. -1.
         22    1    1    0    0    0 -0.25768716629E+02  0.43152482509E+00 -0.15287771026E+02  0.29965462008E+02  0.00000000000E+00 0.  1.
</event>
<event>
 5    1  0.1717518E-003  0.9118800E+02  0.7818608E-02  0.1130116E+00
         25   -1    0    0    0    0  0.00000000000E+00  0.00000000000E+00  0.99999998245E-14  0.12500000000E+03  0.12500000000E+03 0.  0.
        -11    1    3    3    0    0 -0.26357147200E+02  0.12674503574E+02 -0.99957813967E+01  0.30907246648E+02  0.51100000000E-03 0. -1.
         23    2    1    0    0    0  0.26651565952E+02  0.17982967630E+02  0.14725017472E+02  0.89637318653E+02  0.82367042337E+02 0.  0.
         11    1    3    3    0    0  0.53008713153E+02  0.53084640561E+01  0.24720798869E+02  0.58730072005E+02  0.51100000000E-03 0.  1.
         22    1    1    0    0    0 -0.26651565952E+02 -0.17982967630E+02 -0.14725017472E+02  0.35362681347E+02  0.00000000000E+00 0.  1.
</event>
<event>
 5    1  0.1717518E-003  0.9118800E+02  0.7818608E-02  0.1130116E+00
         25   -1    0    0    0    0  0.00000000000E+00  0.00000000000E+00  0.99999998245E-14  0.12500000000E+03  0.12500000000E+03 0.  0.
        -11    1    3    3    0    0  0.34653428106E+02 -0.43873136085E+02  0.51092220798E+01  0.56141039356E+02  0.51100000000E-03 0.  1.
         23    2    1    0    0    0  0.11075279534E+02 -0.17891924283E+02  0.21544257734E+02  0.94884591774E+02  0.89978597142E+02 0.  0.
         11    1    3    3    0    0 -0.23578148572E+02  0.25981211802E+02  0.16435035654E+02  0.38743552419E+02  0.51100000000E-03 0. -1.
         22    1    1    0    0    0 -0.11075279534E+02  0.17891924283E+02 -0.21544257734E+02  0.30115408226E+02  0.00000000000E+00 0.  1.
</event>
<event>
 5    1  0.1717518E-003  0.9118800E+02  0.7818608E-02  0.1130116E+00
         25   -1    0    0    0    0  0.00000000000E+00  0.00000000000E+00  0.99999998245E-14  0.12500000000E+03  0.12500000000E+03 0.  0.
        -11    1    3    3    0    0  0.15652889789E+02  0.46801577488E+02  0.19658718670E+01  0.49388918459E+02  0.51100000000E-03 0. -1.
         23    2    1    0    0    0  0.21615323647E+02  0.54415466309E+01 -0.18605517059E+02  0.95965573691E+02  0.91467991246E+02 0.  0.
         11    1    3    3    0    0  0.59624338576E+01 -0.41360030857E+02 -0.20571388926E+02  0.46576655232E+02  0.51100000000E-03 0.  1.
         22    1    1    0    0    0 -0.21615323647E+02 -0.54415466309E+01  0.18605517059E+02  0.29034426309E+02  0.00000000000E+00 0. -1.
</event>
<event>
 5    1  0.1717518E-003  0.9118800E+02  0.7818608E-02  0.1130116E+00
         25   -1    0    0    0    0  0.00000000000E+00  0.00000000000E+00  0.99999998245E-14  0.12500000000E+03  0.12500000000E+03 0.  0.
        -11    1    3    3    0    0 -0.43484168518E+02  0.22213877152E+02  0.28245513648E+02  0.56410444877E+02  0.51100000000E-03 0.  1.
         23    2    1    0    0    0 -0.19533751602E+02  0.19977355187E+02 -0.41426900661E+01  0.96754220619E+02  0.92539478898E+02 0.  0.
         11    1    3    3    0    0  0.23950416916E+02 -0.22365219650E+01 -0.32388203714E+02  0.40343775741E+02  0.51100000000E-03 0. -1.
         22    1    1    0    0    0  0.19533751602E+02 -0.19977355187E+02  0.41426900661E+01  0.28245779381E+02  0.00000000000E+00 0.  1.
</event>
<event>
 5    1  0.1717518E-003  0.9118800E+02  0.7818608E-02  0.1130116E+00
         25   -1    0    0    0    0  0.00000000000E+00  0.00000000000E+00  0.99999998245E-14  0.12500000000E+03  0.12500000000E+03 0.  0.
        -11    1    3    3    0    0  0.51680182560E+01  0.15303441947E+02  0.30648233277E+02  0.34644161866E+02  0.51100000000E-03 0.  1.
         23    2    1    0    0    0 -0.16583246529E+02 -0.16107903983E+02 -0.17424164416E+02  0.96050558870E+02  0.91584058206E+02 0.  0.
         11    1    3    3    0    0 -0.21751264785E+02 -0.31411345930E+02 -0.48072397693E+02  0.61406397004E+02  0.51100000000E-03 0. -1.
         22    1    1    0    0    0  0.16583246529E+02  0.16107903983E+02  0.17424164416E+02  0.28949441130E+02  0.00000000000E+00 0. -1.
</event>
<event>
 5    1  0.1717518E-003  0.9118800E+02  0.7818608E-02  0.1130116E+00
         25   -1    0    0    0    0  0.00000000000E+00  0.00000000000E+00  0.99999998245E-14  0.12500000000E+03  0.12500000000E+03 0.  0.
        -11    1    3    3    0    0 -0.56611744523E+02  0.15275379784E+02 -0.15160806659E+02  0.60564650617E+02  0.51100000000E-03 0.  1.
         23    2    1    0    0    0 -0.30332681677E+02 -0.31530638525E+01 -0.63320923799E+01  0.93853430633E+02  0.88534499820E+02 0.  0.
         11    1    3    3    0    0  0.26279062846E+02 -0.18428443636E+02  0.88287142790E+01  0.33288780017E+02  0.51100000000E-03 0. -1.
         22    1    1    0    0    0  0.30332681677E+02  0.31530638525E+01  0.63320923799E+01  0.31146569367E+02  0.00000000000E+00 0.  1.
</event>
<event>
 5    1  0.1717518E-003  0.9118800E+02  0.7818608E-02  0.1130116E+00
         25   -1    0    0    0    0  0.00000000000E+00  0.00000000000E+00  0.99999998245E-14  0.12500000000E+03  0.12500000000E+03 0.  0.
        -11    1    3    3    0    0 -0.39049251172E+01 -0.43785674405E+02  0.97692093279E+01  0.45031890638E+02  0.51100000000E-03 0.  1.
         23    2    1    0    0    0  0.29605681531E+02 -0.87410777755E+01  0.31214900824E+01  0.93973454592E+02  0.88703797259E+02 0.  0.
         11    1    3    3    0    0  0.33510606648E+02  0.35044596630E+02 -0.66477192456E+01  0.48941563954E+02  0.51100000000E-03 0. -1.
         22    1    1    0    0    0 -0.29605681531E+02  0.87410777755E+01 -0.31214900824E+01  0.31026545408E+02  0.00000000000E+00 0. -1.
</event>
<event>
 5    1  0.1717518E-003  0.9118800E+02  0.7818608E-02  0.1130116E+00
         25   -1    0    0    0    0  0.00000000000E+00  0.00000000000E+00  0.99999998245E-14  0.12500000000E+03  0.12500000000E+03 0.  0.
        -11    1    3    3    0    0  0.14878885261E+02 -0.26729774048E+02  0.18840836695E+02  0.35928250373E+02  0.51100000000E-03 0. -1.
         23    2    1    0    0    0  0.17987765616E+02  0.27350223624E+02  0.45571131002E+01  0.91949104037E+02  0.85803706268E+02 0.  0.
         11    1    3    3    0    0  0.31088803549E+01  0.54079997672E+02 -0.14283723594E+02  0.56020853664E+02  0.51100000000E-03 0.  1.
         22    1    1    0    0    0 -0.17987765616E+02 -0.27350223624E+02 -0.45571131002E+01  0.33050895963E+02  0.00000000000E+00 0. -1.
</event>
<event>
 5    1  0.1717518E-003  0.9118800E+02  0.7818608E-02  0.1130116E+00
         25   -1    0    0    0    0  0.00000000000E+00  0.00000000000E+00  0.99999998245E-14  0.12500000000E+03  0.12500000000E+03 0.  0.
        -11    1    3    3    0    0  0.10935394937E+02 -0.13308977415E+02  0.58469474182E+02  0.60954008512E+02  0.51100000000E-03 0.  1.
         23    2    1    0    0    0 -0.38463492453E+01 -0.72411687467E+01  0.32802346731E+02  0.91188420942E+02  0.84688282752E+02 0.  0.
         11    1    3    3    0    0 -0.14781744183E+02  0.60678086679E+01 -0.25667127451E+02  0.30234412430E+02  0.51100000000E-03 0. -1.
         22    1    1    0    0    0  0.38463492453E+01  0.72411687467E+01 -0.32802346731E+02  0.33811579058E+02  0.00000000000E+00 0.  1.
</event>
<event>
 5    1  0.1717518E-003  0.9118800E+02  0.7818608E-02  0.1130116E+00
         25   -1    0    0    0    0  0.00000000000E+00  0.00000000000E+00  0.99999998245E-14  0.12500000000E+03  0.12500000000E+03 0.  0.
        -11    1    3    3    0    0 -0.27932086287E+02  0.21723654667E+02  0.38749548029E+02  0.52475194989E+02  0.51100000000E-03 0.  1.
         23    2    1    0    0    0 -0.22430804486E+02  0.18626916916E+02 -0.38949719339E+01  0.95584462778E+02  0.90945674414E+02 0.  0.
         11    1    3    3    0    0  0.55012818007E+01 -0.30967377515E+01 -0.42644519963E+02  0.43109267789E+02  0.51100000000E-03 0. -1.
         22    1    1    0    0    0  0.22430804486E+02 -0.18626916916E+02  0.38949719339E+01  0.29415537222E+02  0.00000000000E+00 0.  1.
</event>
<event>
 5    1  0.1717518E-003  0.9118800E+02  0.7818608E-02  0.1130116E+00
         25   -1    0    0    0    0  0.00000000000E+00  0.00000000000E+00  0.99999998245E-14  0.12500000000E+03  0.12500000000E+03 0.  0.
        -11    1    3    3    0    0  0.42756893295E+01 -0.13533502228E+02 -0.33270608256E+02  0.36171405499E+02  0.51100000000E-03 0.  1.
         23    2    1    0    0    0  0.10285982424E+01 -0.14275468645E+02  0.25885488500E+02  0.95421197889E+02  0.90720997968E+02 0.  0.
         11    1    3    3    0    0 -0.32470910870E+01 -0.74196641756E+00  0.59156096756E+02  0.59249792391E+02  0.51100000000E-03 0. -1.
         22    1    1    0    0    0 -0.10285982424E+01  0.14275468645E+02 -0.25885488500E+02  0.29578802111E+02  0.00000000000E+00 0. -1.
</event>
<event>
 5    1  0.1717518E-003  0.9118800E+02  0.7818608E-02  0.1130116E+00
         25   -1    0    0    0    0  0.00000000000E+00  0.00000000000E+00  0.99999998245E-14  0.12500000000E+03  0.12500000000E+03 0.  0.
        -11    1    3    3    0    0 -0.31331909741E+02 -0.80659784121E+01  0.31282653399E+02  0.45003921826E+02  0.51100000000E-03 0.  1.
         23    2    1    0    0    0  0.15420735770E+02 -0.15744310721E+02  0.23080730910E+02  0.93087579987E+02  0.87446526498E+02 0.  0.
         11    1    3    3    0    0  0.46752645511E+02 -0.76783323087E+01 -0.82019224892E+01  0.48083658161E+02  0.51100000000E-03 0. -1.
         22    1    1    0    0    0 -0.15420735770E+02  0.15744310721E+02 -0.23080730910E+02  0.31912420013E+02  0.00000000000E+00 0. -1.
</event>
<event>
 5    1  0.1717518E-003  0.9118800E+02  0.7818608E-02  0.1130116E+00
         25   -1    0    0    0    0  0.00000000000E+00  0.00000000000E+00  0.99999998245E-14  0.12500000000E+03  0.12500000000E+03 0.  0.
        -11    1    3    3    0    0  0.29837518419E+02  0.12321553843E+02  0.83563899321E+01  0.33345576131E+02  0.51100000000E-03 0. -1.
         23    2    1    0    0    0 -0.28868753033E+02 -0.38209339237E+01  0.98778580301E+01  0.94249772082E+02  0.89092328629E+02 0.  0.
         11    1    3    3    0    0 -0.58706271452E+02 -0.16142487766E+02  0.15214680981E+01  0.60904195952E+02  0.51100000000E-03 0.  1.
         22    1    1    0    0    0  0.28868753033E+02  0.38209339237E+01 -0.98778580301E+01  0.30750227918E+02  0.00000000000E+00 0.  1.
</event>
<event>
 5    1  0.1717518E-003  0.9118800E+02  0.7818608E-02  0.1130116E+00
         25   -1    0    0    0    0  0.00000000000E+00  0.00000000000E+00  0.99999998245E-14  0.12500000000E+03  0.12500000000E+03 0.  0.
        -11    1    3    3    0    0 -0.94318691831E+01  0.23786288784E+02 -0.54050070338E+02  0.59800984893E+02  0.51100000000E-03 0.  1.
         23    2    1    0    0    0 -0.13207717451E+02  0.15087695898E+01 -0.25807765999E+02  0.95969654294E+02  0.91473567623E+02 0.  0.
         11    1    3    3    0    0 -0.37758482680E+01 -0.22277519194E+02  0.28242304339E+02  0.36168669401E+02  0.51100000000E-03 0. -1.
         22    1    1    0    0    0  0.13207717451E+02 -0.15087695898E+01  0.25807765999E+02  0.29030345706E+02  0.00000000000E+00 0.  1.
</event>
<event>
 5    1  0.1717518E-003  0.9118800E+02  0.7818608E-02  0.1130116E+00
         25   -1    0    0    0    0  0.00000000000E+00  0.00000000000E+00  0.99999998245E-14  0.12500000000E+03  0.12500000000E+03 0.  0.
        -11    1    3    3    0    0 -0.12960668950E+01 -0.45846722569E+02  0.57967571089E+01  0.46229905396E+02  0.51100000000E-03 0.  1.
         23    2    1    0    0    0 -0.17543923022E+02 -0.21335018819E+01  0.23050160059E+02  0.95954330030E+02  0.91452624388E+02 0.  0.
         11    1    3    3    0    0 -0.16247856127E+02  0.43713220687E+02  0.17253402951E+02  0.49724424634E+02  0.51100000000E-03 0. -1.
         22    1    1    0    0    0  0.17543923022E+02  0.21335018819E+01 -0.23050160059E+02  0.29045669970E+02  0.00000000000E+00 0. -1.
</event>
<event>
 5    1  0.1717518E-003  0.9118800E+02  0.7818608E-02  0.1130116E+00
         25   -1    0    0    0    0  0.00000000000E+00  0.00000000000E+00  0.99999998245E-14  0.12500000000E+03  0.12500000000E+03 0.  0.
        -11    1    3    3    0    0 -0.57664183125E+01  0.45225928689E+02 -0.25646200467E+02  0.52310264810E+02  0.51100000000E-03 0.  1.
         23    2    1    0    0    0 -0.21161934698E+02  0.20149158097E+02  0.56186223368E+01  0.95244580844E+02  0.90477318766E+02 0.  0.
         11    1    3    3    0    0 -0.15395516386E+02 -0.25076770592E+02  0.31264822803E+02  0.42934316034E+02  0.51100000000E-03 0. -1.
         22    1    1    0    0    0  0.21161934698E+02 -0.20149158097E+02 -0.56186223368E+01  0.29755419156E+02  0.00000000000E+00 0.  1.
</event>
<event>
 5    1  0.1717518E-003  0.9118800E+02  0.7818608E-02  0.1130116E+00
         25   -1    0    0    0    0  0.00000000000E+00  0.00000000000E+00  0.99999998245E-14  0.12500000000E+03  0.12500000000E+03 0.  0.
        -11    1    3    3    0    0  0.30315271800E+02  0.29643211904E+02 -0.36559988871E+01  0.42557044592E+02  0.51100000000E-03 0.  1.
         23    2    1    0    0    0 -0.15612316294E+02  0.58968636950E+01 -0.21971864018E+02  0.97408692855E+02  0.93419340684E+02 0.  0.
         11    1    3    3    0    0 -0.45927588094E+02 -0.23746348209E+02 -0.18315865131E+02  0.54851648263E+02  0.51100000000E-03 0. -1.
         22    1    1    0    0    0  0.15612316294E+02 -0.58968636950E+01  0.21971864018E+02  0.27591307145E+02  0.00000000000E+00 0. -1.
</event>
<event>
 5    1  0.1717518E-003  0.9118800E+02  0.7818608E-02  0.1130116E+00
         25   -1    0    0    0    0  0.00000000000E+00  0.00000000000E+00  0.99999998245E-14  0.12500000000E+03  0.12500000000E+03 0.  0.
        -11    1    3    3    0    0  0.19402121493E+02  0.31327347227E+02 -0.58923249014E+01  0.37317080482E+02  0.51100000000E-03 0.  1.
         23    2    1    0    0    0 -0.21209222510E+02 -0.36831521455E+01  0.18865898346E+02  0.96376253746E+02  0.92027514563E+02 0.  0.
         11    1    3    3    0    0 -0.40611344003E+02 -0.35010499373E+02  0.24758223247E+02  0.59059173264E+02  0.51100000000E-03 0. -1.
         22    1    1    0    0    0  0.21209222510E+02  0.36831521455E+01 -0.18865898346E+02  0.28623746254E+02  0.00000000000E+00 0. -1.
</event>
<event>
 5    1  0.1717518E-003  0.9118800E+02  0.7818608E-02  0.1130116E+00
         25   -1    0    0    0    0  0.00000000000E+00  0.00000000000E+00  0.99999998245E-14  0.12500000000E+03  0.12500000000E+03 0.  0.
        -11    1    3    3    0    0 -0.32558036607E+02  0.16693106068E+02  0.13703286271E+02  0.39070008866E+02  0.51100000000E-03 0.  1.
         23    2    1    0    0    0  0.10368442006E+02  0.14492204499E+02 -0.23217364933E+02  0.95732703997E+02  0.91149196372E+02 0.  0.
         11    1    3    3    0    0  0.42926478613E+02 -0.22009015689E+01 -0.36920651204E+02  0.56662695131E+02  0.51100000000E-03 0. -1.
         22    1    1    0    0    0 -0.10368442006E+02 -0.14492204499E+02  0.23217364933E+02  0.29267296003E+02  0.00000000000E+00 0. -1.
</event>
<event>
 5    1  0.1717518E-003  0.9118800E+02  0.7818608E-02  0.1130116E+00
         25   -1    0    0    0    0  0.00000000000E+00  0.00000000000E+00  0.99999998245E-14  0.12500000000E+03  0.12500000000E+03 0.  0.
        -11    1    3    3    0    0  0.40096612050E+01  0.24142184771E+02  0.21535827344E+02  0.32599299504E+02  0.51100000000E-03 0.  1.
         23    2    1    0    0    0 -0.62243873281E+01 -0.21537961984E+02 -0.19829632366E+02  0.95069394864E+02  0.90234963933E+02 0.  0.
         11    1    3    3    0    0 -0.10234048533E+02 -0.45680146755E+02 -0.41365459710E+02  0.62470095360E+02  0.51100000000E-03 0. -1.
         22    1    1    0    0    0  0.62243873281E+01  0.21537961984E+02  0.19829632366E+02  0.29930605136E+02  0.00000000000E+00 0. -1.
</event>
<event>
 5    1  0.1717518E-003  0.9118800E+02  0.7818608E-02  0.1130116E+00
         25   -1    0    0    0    0  0.00000000000E+00  0.00000000000E+00  0.99999998245E-14  0.12500000000E+03  0.12500000000E+03 0.  0.
        -11    1    3    3    0    0 -0.16468316084E+02 -0.39953927712E+02  0.31363423155E+02  0.53396498823E+02  0.51100000000E-03 0.  1.
         23    2    1    0    0    0 -0.27727728209E+02 -0.57104903015E+01  0.13095207154E+02  0.93808317431E+02  0.88470782508E+02 0.  0.
         11    1    3    3    0    0 -0.11259412125E+02  0.34243437410E+02 -0.18268216001E+02  0.40411818608E+02  0.51100000000E-03 0. -1.
         22    1    1    0    0    0  0.27727728209E+02  0.57104903015E+01 -0.13095207154E+02  0.31191682569E+02  0.00000000000E+00 0.  1.
</event>
<event>
 5    1  0.1717518E-003  0.9118800E+02  0.7818608E-02  0.1130116E+00
         25   -1    0    0    0    0  0.00000000000E+00  0.00000000000E+00  0.99999998245E-14  0.12500000000E+03  0.12500000000E+03 0.  0.
        -11    1    3    3    0    0  0.43888764806E+02 -0.26058956981E+02  0.13548442430E+02  0.52809593898E+02  0.51100000000E-03 0.  1.
         23    2    1    0    0    0  0.19101609166E+02  0.65690509425E+01  0.22512084912E+02  0.94754043739E+02  0.89797054155E+02 0.  0.
         11    1    3    3    0    0 -0.24787155639E+02  0.32628007923E+02  0.89636424822E+01  0.41944449842E+02  0.51100000000E-03 0. -1.
         22    1    1    0    0    0 -0.19101609166E+02 -0.65690509425E+01 -0.22512084912E+02  0.30245956261E+02  0.00000000000E+00 0.  1.
</event>
<event>
 5    1  0.1717518E-003  0.9118800E+02  0.7818608E-02  0.1130116E+00
         25   -1    0    0    0    0  0.00000000000E+00  0.00000000000E+00  0.99999998245E-14  0.12500000000E+03  0.12500000000E+03 0.  0.
        -11    1    3    3    0    0  0.47220639913E+01 -0.22322512878E+02  0.32893255048E+02  0.40031970941E+02  0.51100000000E-03 0.  1.
         23    2    1    0    0    0 -0.19836438385E+02 -0.19528808785E+02 -0.14596479168E+02  0.93568871092E+02  0.88131820433E+02 0.  0.
         11    1    3    3    0    0 -0.24558502376E+02  0.27937040928E+01 -0.47489734216E+02  0.53536900150E+02  0.51100000000E-03 0. -1.
         22    1    1    0    0    0  0.19836438385E+02  0.19528808785E+02  0.14596479168E+02  0.31431128908E+02  0.00000000000E+00 0. -1.
</event>
<event>
 5    1  0.1717518E-003  0.9118800E+02  0.7818608E-02  0.1130116E+00
         25   -1    0    0    0    0  0.00000000000E+00  0.00000000000E+00  0.99999998245E-14  0.12500000000E+03  0.12500000000E+03 0.  0.
        -11    1    3    3    0    0 -0.19792426019E+02 -0.51032261988E+02  0.17407810194E+02  0.57437476854E+02  0.51100000000E-03 0.  1.
         23    2    1    0    0    0 -0.63322569343E+01 -0.13344631184E+02  0.22815678609E+02  0.97820378043E+02  0.93968582573E+02 0.  0.
         11    1    3    3    0    0  0.13460169085E+02  0.37687630804E+02  0.54078684147E+01  0.40382901189E+02  0.51100000000E-03 0. -1.
         22    1    1    0    0    0  0.63322569343E+01  0.13344631184E+02 -0.22815678609E+02  0.27179621957E+02  0.00000000000E+00 0.  1.
</event>
<event>
 5    1  0.1717518E-003  0.9118800E+02  0.7818608E-02  0.1130116E+00
         25   -1    0    0    0    0  0.00000000000E+00  0.00000000000E+00  0.99999998245E-14  0.12500000000E+03  0.12500000000E+03 0.  0.
        -11    1    3    3    0    0  0.32734198037E+02 -0.79316023109E+01 -0.92313063928E+01  0.34923560161E+02  0.51100000000E-03 0. -1.
         23    2    1    0    0    0 -0.19294086733E+02  0.21957826171E+02  0.79908779909E+00  0.95758822624E+02  0.91185007847E+02 0.  0.
         11    1    3    3    0    0 -0.52028284770E+02  0.29889428482E+02  0.10030394192E+02  0.60835262463E+02  0.51100000000E-03 0.  1.
         22    1    1    0    0    0  0.19294086733E+02 -0.21957826171E+02 -0.79908779909E+00  0.29241177376E+02  0.00000000000E+00 0.  1.
</event>
<event>
 5    1  0.1717518E-003  0.9118800E+02  0.7818608E-02  0.1130116E+00
         25   -1    0    0    0    0  0.00000000000E+00  0.00000000000E+00  0.99999998245E-14  0.12500000000E+03  0.12500000000E+03 0.  0.
        -11    1    3    3    0    0  0.13693361585E+02 -0.32844536617E+02  0.39524660401E+01  0.35803543472E+02  0.51100000000E-03 0.  1.
         23    2    1    0    0    0 -0.18989629221E+02  0.56002568345E+01 -0.24317108322E+02  0.93642534355E+02  0.88236237390E+02 0.  0.
         11    1    3    3    0    0 -0.32682990806E+02  0.38444793451E+02 -0.28269574362E+02  0.57838990883E+02  0.51100000000E-03 0. -1.
         22    1    1    0    0    0  0.18989629221E+02 -0.56002568345E+01  0.24317108322E+02  0.31357465645E+02  0.00000000000E+00 0. -1.
</event>
<event>
 5    1  0.1717518E-003  0.9118800E+02  0.7818608E-02  0.1130116E+00
         25   -1    0    0    0    0  0.00000000000E+00  0.00000000000E+00  0.99999998245E-14  0.12500000000E+03  0.12500000000E+03 0.  0.
        -11    1    3    3    0    0 -0.25247568934E+02  0.53751381537E+02  0.19265508492E+02  0.62432448069E+02  0.51100000000E-03 0.  1.
         23    2    1    0    0    0 -0.12327617813E+02  0.22266538905E+02  0.70593413369E+01  0.98587820691E+02  0.94983973241E+02 0.  0.
         11    1    3    3    0    0  0.12919951122E+02 -0.31484842632E+02 -0.12206167155E+02  0.36155372622E+02  0.51100000000E-03 0. -1.
         22    1    1    0    0    0  0.12327617813E+02 -0.22266538905E+02 -0.70593413369E+01  0.26412179309E+02  0.00000000000E+00 0.  1.
</event>
<event>
 5    1  0.1717518E-003  0.9118800E+02  0.7818608E-02  0.1130116E+00
         25   -1    0    0    0    0  0.00000000000E+00  0.00000000000E+00  0.99999998245E-14  0.12500000000E+03  0.12500000000E+03 0.  0.
        -11    1    3    3    0    0  0.16594842253E+02  0.16268720569E+02  0.29312711596E+02  0.37407153323E+02  0.51100000000E-03 0.  1.
         23    2    1    0    0    0 -0.25805320823E+02  0.11515470651E+02 -0.96028820533E+01  0.95154799535E+02  0.90353195205E+02 0.  0.
         11    1    3    3    0    0 -0.42400163076E+02 -0.47532499181E+01 -0.38915593649E+02  0.57747646212E+02  0.51100000000E-03 0. -1.
         22    1    1    0    0    0  0.25805320823E+02 -0.11515470651E+02  0.96028820533E+01  0.29845200465E+02  0.00000000000E+00 0. -1.
</event>
<event>
 5    1  0.1717518E-003  0.9118800E+02  0.7818608E-02  0.1130116E+00
         25   -1    0    0    0    0  0.00000000000E+00  0.00000000000E+00  0.99999998245E-14  0.12500000000E+03  0.12500000000E+03 0.  0.
        -11    1    3    3    0    0  0.13146116122E+02  0.58022013339E+02 -0.13238391978E+02  0.60947759790E+02  0.51100000000E-03 0.  1.
         23    2    1    0    0    0  0.15654834082E+02  0.24636285940E+02 -0.61802243507E+01  0.95163519174E+02  0.90365257668E+02 0.  0.
         11    1    3    3    0    0  0.25087179601E+01 -0.33385727398E+02  0.70581676270E+01  0.34215759384E+02  0.51100000000E-03 0. -1.
         22    1    1    0    0    0 -0.15654834082E+02 -0.24636285940E+02  0.61802243507E+01  0.29836480826E+02  0.00000000000E+00 0.  1.
</event>
<event>
 5    1  0.1717518E-003  0.9118800E+02  0.7818608E-02  0.1130116E+00
         25   -1    0    0    0    0  0.00000000000E+00  0.00000000000E+00  0.99999998245E-14  0.12500000000E+03  0.12500000000E+03 0.  0.
        -11    1    3    3    0    0  0.22315502369E+01  0.23845494953E+02 -0.43371551897E+02  0.49544716774E+02  0.51100000000E-03 0.  1.
         23    2    1    0    0    0  0.26569661464E+02  0.81199173145E+01 -0.64513141780E+01  0.96478088736E+02  0.92165732157E+02 0.  0.
         11    1    3    3    0    0  0.24338111228E+02 -0.15725577638E+02  0.36920237719E+02  0.46933371962E+02  0.51100000000E-03 0. -1.
         22    1    1    0    0    0 -0.26569661464E+02 -0.81199173145E+01  0.64513141780E+01  0.28521911264E+02  0.00000000000E+00 0. -1.
</event>
<event>
 5    1  0.1717518E-003  0.9118800E+02  0.7818608E-02  0.1130116E+00
         25   -1    0    0    0    0  0.00000000000E+00  0.00000000000E+00  0.99999998245E-14  0.12500000000E+03  0.12500000000E+03 0.  0.
        -11    1    3    3    0    0  0.40588677823E+02 -0.25338241629E+02 -0.39108413581E+02  0.61797534492E+02  0.51100000000E-03 0.  1.
         23    2    1    0    0    0  0.17590168950E+02 -0.65033592799E+01 -0.21982548895E+02  0.96104668516E+02  0.91657880889E+02 0.  0.
         11    1    3    3    0    0 -0.22998508873E+02  0.18834882349E+02  0.17125864685E+02  0.34307134024E+02  0.51100000000E-03 0. -1.
         22    1    1    0    0    0 -0.17590168950E+02  0.65033592799E+01  0.21982548895E+02  0.28895331484E+02  0.00000000000E+00 0.  1.
</event>
<event>
 5    1  0.1717518E-003  0.9118800E+02  0.7818608E-02  0.1130116E+00
         25   -1    0    0    0    0  0.00000000000E+00  0.00000000000E+00  0.99999998245E-14  0.12500000000E+03  0.12500000000E+03 0.  0.
        -11    1    3    3    0    0 -0.51083768025E+02 -0.15441098630E+02 -0.18073422477E+02  0.56343832696E+02  0.51100000000E-03 0.  1.
         23    2    1    0    0    0 -0.89700820776E+01 -0.16823842772E+02 -0.18431343741E+02  0.98481732896E+02  0.94844257728E+02 0.  0.
         11    1    3    3    0    0  0.42113685947E+02 -0.13827441422E+01 -0.35792126364E+00  0.42137900201E+02  0.51100000000E-03 0. -1.
         22    1    1    0    0    0  0.89700820776E+01  0.16823842772E+02  0.18431343741E+02  0.26518267104E+02  0.00000000000E+00 0.  1.
</event>
<event>
 5    1  0.1717518E-003  0.9118800E+02  0.7818608E-02  0.1130116E+00
         25   -1    0    0    0    0  0.00000000000E+00  0.00000000000E+00  0.99999998245E-14  0.12500000000E+03  0.12500000000E+03 0.  0.
        -11    1    3    3    0    0  0.34099936669E+02  0.97901737807E+01 -0.21682871477E+02  0.41578841966E+02  0.51100000000E-03 0. -1.
         23    2    1    0    0    0 -0.19234773186E+02 -0.41967843542E+00 -0.21856109710E+02  0.95882270673E+02  0.91354078553E+02 0.  0.
         11    1    3    3    0    0 -0.53334709855E+02 -0.10209852216E+02 -0.17323823285E+00  0.54303428707E+02  0.51100000000E-03 0.  1.
         22    1    1    0    0    0  0.19234773186E+02  0.41967843542E+00  0.21856109710E+02  0.29117729327E+02  0.00000000000E+00 0.  1.
</event>
<event>
 5    1  0.1717518E-003  0.9118800E+02  0.7818608E-02  0.1130116E+00
         25   -1    0    0    0    0  0.00000000000E+00  0.00000000000E+00  0.99999998245E-14  0.12500000000E+03  0.12500000000E+03 0.  0.
        -11    1    3    3    0    0  0.17614844460E+02 -0.48462525783E+01 -0.39910422666E+02  0.43893174265E+02  0.51100000000E-03 0. -1.
         23    2    1    0    0    0  0.46773072557E+00 -0.29661834139E+02  0.16993151617E+01  0.95285847673E+02  0.90534313485E+02 0.  0.
         11    1    3    3    0    0 -0.17147113735E+02 -0.24815581560E+02  0.41609737828E+02  0.51392673408E+02  0.51100000000E-03 0.  1.
         22    1    1    0    0    0 -0.46773072557E+00  0.29661834139E+02 -0.16993151617E+01  0.29714152327E+02  0.00000000000E+00 0. -1.
</event>
<event>
 5    1  0.1717518E-003  0.9118800E+02  0.7818608E-02  0.1130116E+00
         25   -1    0    0    0    0  0.00000000000E+00  0.00000000000E+00  0.99999998245E-14  0.12500000000E+03  0.12500000000E+03 0.  0.
        -11    1    3    3    0    0 -0.22472947776E+02  0.82426258974E+01 -0.28885609799E+02  0.37514700014E+02  0.51100000000E-03 0. -1.
         23    2    1    0    0    0  0.21375894882E+01 -0.26071822197E+02  0.11934719047E+02  0.96246796348E+02  0.91851505633E+02 0.  0.
         11    1    3    3    0    0  0.24610537264E+02 -0.34314448095E+02  0.40820328846E+02  0.58732096334E+02  0.51100000000E-03 0.  1.
         22    1    1    0    0    0 -0.21375894882E+01  0.26071822197E+02 -0.11934719047E+02  0.28753203652E+02  0.00000000000E+00 0.  1.
</event>
<event>
 5    1  0.1717518E-003  0.9118800E+02  0.7818608E-02  0.1130116E+00
         25   -1    0    0    0    0  0.00000000000E+00  0.00000000000E+00  0.99999998245E-14  0.12500000000E+03  0.12500000000E+03 0.  0.
        -11    1    3    3    0    0  0.43595092174E+02  0.31344574900E+02 -0.31535741507E+02  0.62269715191E+02  0.51100000000E-03 0.  1.
         23    2    1    0    0    0  0.18457616174E+02  0.17760687742E+02 -0.16099695704E+02  0.94745647822E+02  0.89785366044E+02 0.  0.
         11    1    3    3    0    0 -0.25137475999E+02 -0.13583887158E+02  0.15436045803E+02  0.32475932631E+02  0.51100000000E-03 0. -1.
         22    1    1    0    0    0 -0.18457616174E+02 -0.17760687742E+02  0.16099695704E+02  0.30254352178E+02  0.00000000000E+00 0.  1.
</event>
<event>
 5    1  0.1717518E-003  0.9118800E+02  0.7818608E-02  0.1130116E+00
         25   -1    0    0    0    0  0.00000000000E+00  0.00000000000E+00  0.99999998245E-14  0.12500000000E+03  0.12500000000E+03 0.  0.
        -11    1    3    3    0    0  0.32834669343E+02  0.24638968126E+02 -0.14469640705E+02  0.43526598346E+02  0.51100000000E-03 0.  1.
         23    2    1    0    0    0  0.59066777866E-01  0.17355523905E+02  0.24506626348E+02  0.94970140962E+02  0.90097365336E+02 0.  0.
         11    1    3    3    0    0 -0.32775602565E+02 -0.72834442211E+01  0.38976267054E+02  0.51443542616E+02  0.51100000000E-03 0. -1.
         22    1    1    0    0    0 -0.59066777866E-01 -0.17355523905E+02 -0.24506626348E+02  0.30029859038E+02  0.00000000000E+00 0. -1.
</event>
<event>
 5    1  0.1717518E-003  0.9118800E+02  0.7818608E-02  0.1130116E+00
         25   -1    0    0    0    0  0.00000000000E+00  0.00000000000E+00  0.99999998245E-14  0.12500000000E+03  0.12500000000E+03 0.  0.
        -11    1    3    3    0    0  0.29520472431E+02  0.52926492791E+02  0.13714099991E+02  0.62134921506E+02  0.51100000000E-03 0.  1.
         23    2    1    0    0    0  0.11750940230E+02  0.30560447039E+02  0.61424843374E+01  0.91687005038E+02  0.85421023522E+02 0.  0.
         11    1    3    3    0    0 -0.17769532200E+02 -0.22366045753E+02 -0.75716156532E+01  0.29552083532E+02  0.51100000000E-03 0. -1.
         22    1    1    0    0    0 -0.11750940230E+02 -0.30560447039E+02 -0.61424843374E+01  0.33312994962E+02  0.00000000000E+00 0.  1.
</event>
<event>
 5    1  0.1717518E-003  0.9118800E+02  0.7818608E-02  0.1130116E+00
         25   -1    0    0    0    0  0.00000000000E+00  0.00000000000E+00  0.99999998245E-14  0.12500000000E+03  0.12500000000E+03 0.  0.
        -11    1    3    3    0    0  0.13128280605E+02  0.84082948758E+01  0.49194071080E+02  0.51605307906E+02  0.51100000000E-03 0.  1.
         23    2    1    0    0    0  0.48082934398E+00  0.27271653203E+02  0.11964165012E+02  0.95215515621E+02  0.90437154451E+02 0.  0.
         11    1    3    3    0    0 -0.12647451261E+02  0.18863358327E+02 -0.37229906068E+02  0.43610207715E+02  0.51100000000E-03 0. -1.
         22    1    1    0    0    0 -0.48082934398E+00 -0.27271653203E+02 -0.11964165012E+02  0.29784484379E+02  0.00000000000E+00 0.  1.
</event>
<event>
 5    1  0.1717518E-003  0.9118800E+02  0.7818608E-02  0.1130116E+00
         25   -1    0    0    0    0  0.00000000000E+00  0.00000000000E+00  0.99999998245E-14  0.12500000000E+03  0.12500000000E+03 0.  0.
        -11    1    3    3    0    0 -0.18842710206E+02 -0.42931927081E+02  0.31268536006E+02  0.56355296424E+02  0.51100000000E-03 0.  1.
         23    2    1    0    0    0 -0.44594183389E+01 -0.32823026237E+02  0.40702369261E+00  0.91872924495E+02  0.85692655016E+02 0.  0.
         11    1    3    3    0    0  0.14383291867E+02  0.10108900845E+02 -0.30861512314E+02  0.35517628071E+02  0.51100000000E-03 0. -1.
         22    1    1    0    0    0  0.44594183389E+01  0.32823026237E+02 -0.40702369261E+00  0.33127075505E+02  0.00000000000E+00 0.  1.
</event>
<event>
 5    1  0.1717518E-003  0.9118800E+02  0.7818608E-02  0.1130116E+00
         25   -1    0    0    0    0  0.00000000000E+00  0.00000000000E+00  0.99999998245E-14  0.12500000000E+03  0.12500000000E+03 0.  0.
        -11    1    3    3    0    0 -0.11130153525E+02 -0.17002576338E+02  0.29577732246E+02  0.35886072015E+02  0.51100000000E-03 0. -1.
         23    2    1    0    0    0  0.18908575227E+02 -0.65134600112E+01 -0.21229720763E+02  0.95833916579E+02  0.91287891556E+02 0.  0.
         11    1    3    3    0    0  0.30038728752E+02  0.10489116326E+02 -0.50807453009E+02  0.59947844564E+02  0.51100000000E-03 0.  1.
         22    1    1    0    0    0 -0.18908575227E+02  0.65134600112E+01  0.21229720763E+02  0.29166083421E+02  0.00000000000E+00 0.  1.
</event>
<event>
 5    1  0.1717518E-003  0.9118800E+02  0.7818608E-02  0.1130116E+00
         25   -1    0    0    0    0  0.00000000000E+00  0.00000000000E+00  0.99999998245E-14  0.12500000000E+03  0.12500000000E+03 0.  0.
        -11    1    3    3    0    0 -0.36362700052E+02 -0.15048087272E+02  0.34048155334E+02  0.52038137625E+02  0.51100000000E-03 0.  1.
         23    2    1    0    0    0 -0.14095516479E+02 -0.26067624434E+02 -0.14075531132E+01  0.95332073982E+02  0.90598115298E+02 0.  0.
         11    1    3    3    0    0  0.22267183573E+02 -0.11019537162E+02 -0.35455708447E+02  0.43293936357E+02  0.51100000000E-03 0. -1.
         22    1    1    0    0    0  0.14095516479E+02  0.26067624434E+02  0.14075531132E+01  0.29667926018E+02  0.00000000000E+00 0. -1.
</event>
<event>
 5    1  0.1717518E-003  0.9118800E+02  0.7818608E-02  0.1130116E+00
         25   -1    0    0    0    0  0.00000000000E+00  0.00000000000E+00  0.99999998245E-14  0.12500000000E+03  0.12500000000E+03 0.  0.
        -11    1    3    3    0    0 -0.23091228163E+02 -0.24895222859E+02 -0.10304648025E+02  0.35484682759E+02  0.51100000000E-03 0. -1.
         23    2    1    0    0    0 -0.26615000868E+02  0.16880656010E+02 -0.29714536120E+02  0.81684085195E+02  0.69253312548E+02 0.  0.
         11    1    3    3    0    0 -0.35237727051E+01  0.41775878869E+02 -0.19409888095E+02  0.46199402437E+02  0.51100000000E-03 0.  1.
         22    1    1    0    0    0  0.26615000868E+02 -0.16880656010E+02  0.29714536120E+02  0.43315914805E+02  0.00000000000E+00 0.  1.
</event>
<event>
 5    1  0.1717518E-003  0.9118800E+02  0.7818608E-02  0.1130116E+00
         25   -1    0    0    0    0  0.00000000000E+00  0.00000000000E+00  0.99999998245E-14  0.12500000000E+03  0.12500000000E+03 0.  0.
        -11    1    3    3    0    0 -0.33106570873E+02  0.26738898237E+02  0.44596603793E+02  0.61643091941E+02  0.51100000000E-03 0.  1.
         23    2    1    0    0    0 -0.13173346516E+02  0.72825069808E+01  0.25409915360E+02  0.95466362145E+02  0.90783206246E+02 0.  0.
         11    1    3    3    0    0  0.19933224357E+02 -0.19456391257E+02 -0.19186688433E+02  0.33823270204E+02  0.51100000000E-03 0. -1.
         22    1    1    0    0    0  0.13173346516E+02 -0.72825069808E+01 -0.25409915360E+02  0.29533637855E+02  0.00000000000E+00 0.  1.
</event>
<event>
 5    1  0.1717518E-003  0.9118800E+02  0.7818608E-02  0.1130116E+00
         25   -1    0    0    0    0  0.00000000000E+00  0.00000000000E+00  0.99999998245E-14  0.12500000000E+03  0.12500000000E+03 0.  0.
        -11    1    3    3    0    0 -0.12152161995E+02  0.33050837044E+02 -0.18769128656E+02  0.39903797579E+02  0.51100000000E-03 0. -1.
         23    2    1    0    0    0 -0.12158096724E+02  0.36652103063E+01  0.27496553606E+02  0.94712815536E+02  0.89739644996E+02 0.  0.
         11    1    3    3    0    0 -0.59347283897E-02 -0.29385626738E+02  0.46265682262E+02  0.54809017957E+02  0.51100000000E-03 0.  1.
         22    1    1    0    0    0  0.12158096724E+02 -0.36652103063E+01 -0.27496553606E+02  0.30287184464E+02  0.00000000000E+00 0.  1.
</event>
<event>
 5    1  0.1717518E-003  0.9118800E+02  0.7818608E-02  0.1130116E+00
         25   -1    0    0    0    0  0.00000000000E+00  0.00000000000E+00  0.99999998245E-14  0.12500000000E+03  0.12500000000E+03 0.  0.
        -11    1    3    3    0    0  0.13794668216E+02 -0.41968097098E+02  0.29396819497E+02  0.53063990069E+02  0.51100000000E-03 0.  1.
         23    2    1    0    0    0 -0.25896237451E+01  0.21022711446E+01  0.24430308091E+02  0.10034304057E+03  0.97266438927E+02 0.  0.
         11    1    3    3    0    0 -0.16384291961E+02  0.44070368242E+02 -0.49665114062E+01  0.47279050497E+02  0.51100000000E-03 0. -1.
         22    1    1    0    0    0  0.25896237451E+01 -0.21022711446E+01 -0.24430308091E+02  0.24656959434E+02  0.00000000000E+00 0.  1.
</event>
<event>
 5    1  0.1717518E-003  0.9118800E+02  0.7818608E-02  0.1130116E+00
         25   -1    0    0    0    0  0.00000000000E+00  0.00000000000E+00  0.99999998245E-14  0.12500000000E+03  0.12500000000E+03 0.  0.
        -11    1    3    3    0    0  0.42759066636E+02 -0.93417370926E+00  0.19980568088E+02  0.47206287308E+02  0.51100000000E-03 0.  1.
         23    2    1    0    0    0  0.17187652670E+02 -0.97204239525E+01 -0.20917732133E+02  0.96234507414E+02  0.91834780195E+02 0.  0.
         11    1    3    3    0    0 -0.25571413966E+02 -0.87862502432E+01 -0.40898300221E+02  0.49028220106E+02  0.51100000000E-03 0. -1.
         22    1    1    0    0    0 -0.17187652670E+02  0.97204239525E+01  0.20917732133E+02  0.28765492586E+02  0.00000000000E+00 0. -1.
</event>
<event>
 5    1  0.1717518E-003  0.9118800E+02  0.7818608E-02  0.1130116E+00
         25   -1    0    0    0    0  0.00000000000E+00  0.00000000000E+00  0.99999998245E-14  0.12500000000E+03  0.12500000000E+03 0.  0.
        -11    1    3    3    0    0 -0.20019587648E+02 -0.35031594337E+01  0.48413437859E+02  0.52506351817E+02  0.51100000000E-03 0.  1.
         23    2    1    0    0    0  0.99190615788E+01 -0.18053625690E+02  0.20338303266E+02  0.96052327159E+02  0.91586471653E+02 0.  0.
         11    1    3    3    0    0  0.29938649227E+02 -0.14550466257E+02 -0.28075134593E+02  0.43545975342E+02  0.51100000000E-03 0. -1.
         22    1    1    0    0    0 -0.99190615788E+01  0.18053625690E+02 -0.20338303266E+02  0.28947672841E+02  0.00000000000E+00 0.  1.
</event>
<event>
 5    1  0.1717518E-003  0.9118800E+02  0.7818608E-02  0.1130116E+00
         25   -1    0    0    0    0  0.00000000000E+00  0.00000000000E+00  0.99999998245E-14  0.12500000000E+03  0.12500000000E+03 0.  0.
        -11    1    3    3    0    0 -0.33380850829E+02 -0.26376061928E+02 -0.29162054149E+02  0.51579097000E+02  0.51100000000E-03 0.  1.
         23    2    1    0    0    0  0.65409208219E+01 -0.27304241146E+01 -0.25961506525E+02  0.98088316997E+02  0.94324330102E+02 0.  0.
         11    1    3    3    0    0  0.39921771651E+02  0.23645637813E+02  0.32005476243E+01  0.46509219997E+02  0.51100000000E-03 0. -1.
         22    1    1    0    0    0 -0.65409208219E+01  0.27304241146E+01  0.25961506525E+02  0.26911683003E+02  0.00000000000E+00 0.  1.
</event>
<event>
 5    1  0.1717518E-003  0.9118800E+02  0.7818608E-02  0.1130116E+00
         25   -1    0    0    0    0  0.00000000000E+00  0.00000000000E+00  0.99999998245E-14  0.12500000000E+03  0.12500000000E+03 0.  0.
        -11    1    3    3    0    0  0.12106049191E+02  0.29597745784E+02 -0.45991344611E+02  0.56015950959E+02  0.51100000000E-03 0.  1.
         23    2    1    0    0    0  0.10338252212E+02 -0.84105012796E+01 -0.13129523898E+02  0.10629170269E+03  0.10463233569E+03 0.  0.
         11    1    3    3    0    0 -0.17677969787E+01 -0.38008247063E+02  0.32861820713E+02  0.50275751728E+02  0.51100000000E-03 0. -1.
         22    1    1    0    0    0 -0.10338252212E+02  0.84105012796E+01  0.13129523898E+02  0.18708297313E+02  0.00000000000E+00 0.  1.
</event>
<event>
 5    1  0.1717518E-003  0.9118800E+02  0.7818608E-02  0.1130116E+00
         25   -1    0    0    0    0  0.00000000000E+00  0.00000000000E+00  0.99999998245E-14  0.12500000000E+03  0.12500000000E+03 0.  0.
        -11    1    3    3    0    0  0.32669692712E+02 -0.22770575889E+02 -0.38646438372E+02  0.55491937679E+02  0.51100000000E-03 0. -1.
         23    2    1    0    0    0  0.17442724879E+01 -0.26225631349E+02 -0.13790392689E+02  0.95318336356E+02  0.90579159242E+02 0.  0.
         11    1    3    3    0    0 -0.30925420224E+02 -0.34550554602E+01  0.24856045684E+02  0.39826398677E+02  0.51100000000E-03 0.  1.
         22    1    1    0    0    0 -0.17442724879E+01  0.26225631349E+02  0.13790392689E+02  0.29681663644E+02  0.00000000000E+00 0. -1.
</event>
<event>
 5    1  0.1717518E-003  0.9118800E+02  0.7818608E-02  0.1130116E+00
         25   -1    0    0    0    0  0.00000000000E+00  0.00000000000E+00  0.99999998245E-14  0.12500000000E+03  0.12500000000E+03 0.  0.
        -11    1    3    3    0    0  0.99830481585E+01 -0.39733897806E+02 -0.84020746276E+00  0.40977430791E+02  0.51100000000E-03 0.  1.
         23    2    1    0    0    0  0.10224276131E+02  0.17918711782E+02 -0.13941721484E+02  0.10010044875E+03  0.96954175714E+02 0.  0.
         11    1    3    3    0    0  0.24122797271E+00  0.57652609587E+02 -0.13101514021E+02  0.59123017963E+02  0.51100000000E-03 0. -1.
         22    1    1    0    0    0 -0.10224276131E+02 -0.17918711782E+02  0.13941721484E+02  0.24899551246E+02  0.00000000000E+00 0. -1.
</event>
<event>
 5    1  0.1717518E-003  0.9118800E+02  0.7818608E-02  0.1130116E+00
         25   -1    0    0    0    0  0.00000000000E+00  0.00000000000E+00  0.99999998245E-14  0.12500000000E+03  0.12500000000E+03 0.  0.
        -11    1    3    3    0    0  0.41456709807E+01 -0.27247403615E+02 -0.20200513891E+02  0.34171162599E+02  0.51100000000E-03 0. -1.
         23    2    1    0    0    0 -0.68891101153E+01  0.16657564614E+02  0.22341056686E+02  0.96293605052E+02  0.91915185160E+02 0.  0.
         11    1    3    3    0    0 -0.11034781096E+02  0.43904968229E+02  0.42541570577E+02  0.62122442454E+02  0.51100000000E-03 0.  1.
         22    1    1    0    0    0  0.68891101153E+01 -0.16657564614E+02 -0.22341056686E+02  0.28706394948E+02  0.00000000000E+00 0.  1.
</event>
<event>
 5    1  0.1717518E-003  0.9118800E+02  0.7818608E-02  0.1130116E+00
         25   -1    0    0    0    0  0.00000000000E+00  0.00000000000E+00  0.99999998245E-14  0.12500000000E+03  0.12500000000E+03 0.  0.
        -11    1    3    3    0    0  0.40675327281E+02  0.18662361566E+02 -0.70452129704E+00  0.44757818749E+02  0.51100000000E-03 0. -1.
         23    2    1    0    0    0  0.17429747321E+02 -0.25153614026E+02 -0.14432902104E+01  0.94363690221E+02  0.89252017094E+02 0.  0.
         11    1    3    3    0    0 -0.23245579961E+02 -0.43815975592E+02 -0.73876891333E+00  0.49605871472E+02  0.51100000000E-03 0.  1.
         22    1    1    0    0    0 -0.17429747321E+02  0.25153614026E+02  0.14432902104E+01  0.30636309779E+02  0.00000000000E+00 0.  1.
</event>
<event>
 5    1  0.1717518E-003  0.9118800E+02  0.7818608E-02  0.1130116E+00
         25   -1    0    0    0    0  0.00000000000E+00  0.00000000000E+00  0.99999998245E-14  0.12500000000E+03  0.12500000000E+03 0.  0.
        -11    1    3    3    0    0  0.16553666900E+02  0.14998204956E+02 -0.19652174067E+02  0.29751940871E+02  0.51100000000E-03 0.  1.
         23    2    1    0    0    0 -0.30410294020E+01 -0.28923761472E+02  0.17969501872E+02  0.90813235967E+02  0.84132686821E+02 0.  0.
         11    1    3    3    0    0 -0.19594696302E+02 -0.43921966428E+02  0.37621675940E+02  0.61061295096E+02  0.51100000000E-03 0. -1.
         22    1    1    0    0    0  0.30410294020E+01  0.28923761472E+02 -0.17969501872E+02  0.34186764033E+02  0.00000000000E+00 0. -1.
</event>
<event>
 5    1  0.1717518E-003  0.9118800E+02  0.7818608E-02  0.1130116E+00
         25   -1    0    0    0    0  0.00000000000E+00  0.00000000000E+00  0.99999998245E-14  0.12500000000E+03  0.12500000000E+03 0.  0.
        -11    1    3    3    0    0 -0.55368524589E+01 -0.43750134873E+02 -0.30067996260E+02  0.53374295648E+02  0.51100000000E-03 0.  1.
         23    2    1    0    0    0  0.20697573290E+02 -0.18599559252E+02 -0.74033365325E+01  0.96205164764E+02  0.91794832049E+02 0.  0.
         11    1    3    3    0    0  0.26234425749E+02  0.25150575620E+02  0.22664659727E+02  0.42830869116E+02  0.51100000000E-03 0. -1.
         22    1    1    0    0    0 -0.20697573290E+02  0.18599559252E+02  0.74033365325E+01  0.28794835236E+02  0.00000000000E+00 0.  1.
</event>
<event>
 5    1  0.1717518E-003  0.9118800E+02  0.7818608E-02  0.1130116E+00
         25   -1    0    0    0    0  0.00000000000E+00  0.00000000000E+00  0.99999998245E-14  0.12500000000E+03  0.12500000000E+03 0.  0.
        -11    1    3    3    0    0 -0.26881743177E+02  0.31876679297E+02 -0.50182827908E+01  0.41999213822E+02  0.51100000000E-03 0. -1.
         23    2    1    0    0    0  0.20380202226E+02  0.11381883459E+02 -0.18461598093E+02  0.95238774924E+02  0.90469297173E+02 0.  0.
         11    1    3    3    0    0  0.47261945403E+02 -0.20494795838E+02 -0.13443315302E+02  0.53239561102E+02  0.51100000000E-03 0.  1.
         22    1    1    0    0    0 -0.20380202226E+02 -0.11381883459E+02  0.18461598093E+02  0.29761225076E+02  0.00000000000E+00 0.  1.
</event>
<event>
 5    1  0.1717518E-003  0.9118800E+02  0.7818608E-02  0.1130116E+00
         25   -1    0    0    0    0  0.00000000000E+00  0.00000000000E+00  0.99999998245E-14  0.12500000000E+03  0.12500000000E+03 0.  0.
        -11    1    3    3    0    0 -0.26605340466E+02 -0.22967675213E+02  0.11482633133E+02  0.36975790863E+02  0.51100000000E-03 0. -1.
         23    2    1    0    0    0  0.76703893475E+01  0.24457780419E+02  0.14467046450E+02  0.95566798870E+02  0.90921393068E+02 0.  0.
         11    1    3    3    0    0  0.34275729814E+02  0.47425455632E+02  0.29844133167E+01  0.58591008007E+02  0.51100000000E-03 0.  1.
         22    1    1    0    0    0 -0.76703893475E+01 -0.24457780419E+02 -0.14467046450E+02  0.29433201130E+02  0.00000000000E+00 0.  1.
</event>
<event>
 5    1  0.1717518E-003  0.9118800E+02  0.7818608E-02  0.1130116E+00
         25   -1    0    0    0    0  0.00000000000E+00  0.00000000000E+00  0.99999998245E-14  0.12500000000E+03  0.12500000000E+03 0.  0.
        -11    1    3    3    0    0 -0.51653550214E+01 -0.35718980541E+02  0.37123884732E+02  0.51775566450E+02  0.51100000000E-03 0.  1.
         23    2    1    0    0    0 -0.10729105861E+02  0.54663661834E+01  0.28276582880E+02  0.94266304954E+02  0.89115521871E+02 0.  0.
         11    1    3    3    0    0 -0.55637508398E+01  0.41185346725E+02 -0.88473018514E+01  0.42490738503E+02  0.51100000000E-03 0. -1.
         22    1    1    0    0    0  0.10729105861E+02 -0.54663661834E+01 -0.28276582880E+02  0.30733695046E+02  0.00000000000E+00 0.  1.
</event>
<event>
 5    1  0.1717518E-003  0.9118800E+02  0.7818608E-02  0.1130116E+00
         25   -1    0    0    0    0  0.00000000000E+00  0.00000000000E+00  0.99999998245E-14  0.12500000000E+03  0.12500000000E+03 0.  0.
        -11    1    3    3    0    0  0.20914481118E+02  0.38998272082E+01 -0.31869743145E+02  0.38318464232E+02  0.51100000000E-03 0.  1.
         23    2    1    0    0    0  0.15126288022E+02 -0.13404362113E+02  0.21959028434E+02  0.95155730153E+02  0.90354482668E+02 0.  0.
         11    1    3    3    0    0 -0.57881930964E+01 -0.17304189321E+02  0.53828771579E+02  0.56837265920E+02  0.51100000000E-03 0. -1.
         22    1    1    0    0    0 -0.15126288022E+02  0.13404362113E+02 -0.21959028434E+02  0.29844269847E+02  0.00000000000E+00 0. -1.
</event>
<event>
 5    1  0.1717518E-003  0.9118800E+02  0.7818608E-02  0.1130116E+00
         25   -1    0    0    0    0  0.00000000000E+00  0.00000000000E+00  0.99999998245E-14  0.12500000000E+03  0.12500000000E+03 0.  0.
        -11    1    3    3    0    0  0.18231931340E+02 -0.44397671790E+02 -0.19179824025E+02  0.51685802989E+02  0.51100000000E-03 0. -1.
         23    2    1    0    0    0  0.22283162429E+02  0.54101267718E-01 -0.18029036728E+02  0.96336636274E+02  0.91973686826E+02 0.  0.
         11    1    3    3    0    0  0.40512310887E+01  0.44451773058E+02  0.11507872974E+01  0.44650833284E+02  0.51100000000E-03 0.  1.
         22    1    1    0    0    0 -0.22283162429E+02 -0.54101267718E-01  0.18029036728E+02  0.28663363726E+02  0.00000000000E+00 0. -1.
</event>
<event>
 5    1  0.1717518E-003  0.9118800E+02  0.7818608E-02  0.1130116E+00
         25   -1    0    0    0    0  0.00000000000E+00  0.00000000000E+00  0.99999998245E-14  0.12500000000E+03  0.12500000000E+03 0.  0.
        -11    1    3    3    0    0 -0.31171285711E+02  0.40139567564E+02  0.19605263234E+01  0.50859390488E+02  0.51100000000E-03 0. -1.
         23    2    1    0    0    0 -0.12640275234E+02  0.84091310162E+01 -0.24525750224E+02  0.96155547041E+02  0.91727241103E+02 0.  0.
         11    1    3    3    0    0  0.18531010478E+02 -0.31730436548E+02 -0.26486276548E+02  0.45296156553E+02  0.51100000000E-03 0.  1.
         22    1    1    0    0    0  0.12640275234E+02 -0.84091310162E+01  0.24525750224E+02  0.28844452959E+02  0.00000000000E+00 0. -1.
</event>
<event>
 5    1  0.1717518E-003  0.9118800E+02  0.7818608E-02  0.1130116E+00
         25   -1    0    0    0    0  0.00000000000E+00  0.00000000000E+00  0.99999998245E-14  0.12500000000E+03  0.12500000000E+03 0.  0.
        -11    1    3    3    0    0 -0.45460841053E+02 -0.34718641065E+02 -0.49196211931E+01  0.57413193428E+02  0.51100000000E-03 0.  1.
         23    2    1    0    0    0 -0.17184667597E+02 -0.20768868971E+02  0.14447155365E+02  0.94416033336E+02  0.89325295040E+02 0.  0.
         11    1    3    3    0    0  0.28276173456E+02  0.13949772093E+02  0.19366776558E+02  0.37002839908E+02  0.51100000000E-03 0. -1.
         22    1    1    0    0    0  0.17184667597E+02  0.20768868971E+02 -0.14447155365E+02  0.30583966664E+02  0.00000000000E+00 0.  1.
</event>
<event>
 5    1  0.1717518E-003  0.9118800E+02  0.7818608E-02  0.1130116E+00
         25   -1    0    0    0    0  0.00000000000E+00  0.00000000000E+00  0.99999998245E-14  0.12500000000E+03  0.12500000000E+03 0.  0.
        -11    1    3    3    0    0 -0.31727051586E+02 -0.36624043725E+02 -0.10502033876E+02  0.49580430585E+02  0.51100000000E-03 0.  1.
         23    2    1    0    0    0 -0.26458266054E+02  0.32061039925E+01  0.12156734863E+02  0.95706568178E+02  0.91113347236E+02 0.  0.
         11    1    3    3    0    0  0.52687855325E+01  0.39830147718E+02  0.22658768740E+02  0.46126137593E+02  0.51100000000E-03 0. -1.
         22    1    1    0    0    0  0.26458266054E+02 -0.32061039925E+01 -0.12156734863E+02  0.29293431822E+02  0.00000000000E+00 0.  1.
</event>
<event>
 5    1  0.1717518E-003  0.9118800E+02  0.7818608E-02  0.1130116E+00
         25   -1    0    0    0    0  0.00000000000E+00  0.00000000000E+00  0.99999998245E-14  0.12500000000E+03  0.12500000000E+03 0.  0.
        -11    1    3    3    0    0 -0.28709340551E+02 -0.48567202681E+02 -0.26395327473E+01  0.56479788814E+02  0.51100000000E-03 0. -1.
         23    2    1    0    0    0 -0.14101361916E+02 -0.18853423294E+02  0.17883181572E+02  0.95434679759E+02  0.90739572072E+02 0.  0.
         11    1    3    3    0    0  0.14607978635E+02  0.29713779387E+02  0.20522714319E+02  0.38954890945E+02  0.51100000000E-03 0.  1.
         22    1    1    0    0    0  0.14101361916E+02  0.18853423294E+02 -0.17883181572E+02  0.29565320241E+02  0.00000000000E+00 0. -1.
</event>
<event>
 5    1  0.1717518E-003  0.9118800E+02  0.7818608E-02  0.1130116E+00
         25   -1    0    0    0    0  0.00000000000E+00  0.00000000000E+00  0.99999998245E-14  0.12500000000E+03  0.12500000000E+03 0.  0.
        -11    1    3    3    0    0  0.33992880586E+02  0.26544269593E+02 -0.44634059418E+02  0.62067007654E+02  0.51100000000E-03 0.  1.
         23    2    1    0    0    0  0.20423400786E+02  0.97342218060E+01 -0.20347653494E+02  0.94571438146E+02  0.89542501285E+02 0.  0.
         11    1    3    3    0    0 -0.13569479800E+02 -0.16810047787E+02  0.24286405924E+02  0.32504430492E+02  0.51100000000E-03 0. -1.
         22    1    1    0    0    0 -0.20423400786E+02 -0.97342218060E+01  0.20347653494E+02  0.30428561854E+02  0.00000000000E+00 0.  1.
</event>
<event>
 5    1  0.1717518E-003  0.9118800E+02  0.7818608E-02  0.1130116E+00
         25   -1    0    0    0    0  0.00000000000E+00  0.00000000000E+00  0.99999998245E-14  0.12500000000E+03  0.12500000000E+03 0.  0.
        -11    1    3    3    0    0 -0.34096423892E+01 -0.89668141540E+01  0.53650291682E+02  0.54501222144E+02  0.51100000000E-03 0.  1.
         23    2    1    0    0    0  0.14710846929E+02 -0.14113782154E+02  0.45721968620E+02  0.74938974456E+02  0.55765075217E+02 0.  0.
         11    1    3    3    0    0  0.18120489318E+02 -0.51469679997E+01 -0.79283230627E+01  0.20437752312E+02  0.51100000000E-03 0. -1.
         22    1    1    0    0    0 -0.14710846929E+02  0.14113782154E+02 -0.45721968620E+02  0.50061025544E+02  0.00000000000E+00 0.  1.
</event>
<event>
 5    1  0.1717518E-003  0.9118800E+02  0.7818608E-02  0.1130116E+00
         25   -1    0    0    0    0  0.00000000000E+00  0.00000000000E+00  0.99999998245E-14  0.12500000000E+03  0.12500000000E+03 0.  0.
        -11    1    3    3    0    0  0.31705634126E+01  0.42583889083E+02 -0.39407090907E+02  0.58106444529E+02  0.51100000000E-03 0. -1.
         23    2    1    0    0    0  0.17195556119E+02  0.14283834135E+02 -0.18494004330E+02  0.95987187934E+02  0.91497524466E+02 0.  0.
         11    1    3    3    0    0  0.14024992706E+02 -0.28300054948E+02  0.20913086577E+02  0.37880743405E+02  0.51100000000E-03 0.  1.
         22    1    1    0    0    0 -0.17195556119E+02 -0.14283834135E+02  0.18494004330E+02  0.29012812066E+02  0.00000000000E+00 0. -1.
</event>
<event>
 5    1  0.1717518E-003  0.9118800E+02  0.7818608E-02  0.1130116E+00
         25   -1    0    0    0    0  0.00000000000E+00  0.00000000000E+00  0.99999998245E-14  0.12500000000E+03  0.12500000000E+03 0.  0.
        -11    1    3    3    0    0 -0.26299140816E+02 -0.63133829415E+01 -0.21732031563E+02  0.34695602141E+02  0.51100000000E-03 0.  1.
         23    2    1    0    0    0  0.22150742490E+02  0.12931877151E+02  0.11889204361E+02  0.96729131250E+02  0.92505582602E+02 0.  0.
         11    1    3    3    0    0  0.48449883306E+02  0.19245260093E+02  0.33621235925E+02  0.62033529109E+02  0.51100000000E-03 0. -1.
         22    1    1    0    0    0 -0.22150742490E+02 -0.12931877151E+02 -0.11889204361E+02  0.28270868750E+02  0.00000000000E+00 0. -1.
</event>
<event>
 5    1  0.1717518E-003  0.9118800E+02  0.7818608E-02  0.1130116E+00
         25   -1    0    0    0    0  0.00000000000E+00  0.00000000000E+00  0.99999998245E-14  0.12500000000E+03  0.12500000000E+03 0.  0.
        -11    1    3    3    0    0  0.25211514568E+02 -0.22247286797E+02 -0.88393283557E+01  0.34766304990E+02  0.51100000000E-03 0. -1.
         23    2    1    0    0    0 -0.27270219519E+02  0.89971777138E+01 -0.32878688566E+01  0.96096295029E+02  0.91646460692E+02 0.  0.
         11    1    3    3    0    0 -0.52481734087E+02  0.31244464511E+02  0.55514594991E+01  0.61329990039E+02  0.51100000000E-03 0.  1.
         22    1    1    0    0    0  0.27270219519E+02 -0.89971777138E+01  0.32878688566E+01  0.28903704971E+02  0.00000000000E+00 0.  1.
</event>
<event>
 5    1  0.1717518E-003  0.9118800E+02  0.7818608E-02  0.1130116E+00
         25   -1    0    0    0    0  0.00000000000E+00  0.00000000000E+00  0.99999998245E-14  0.12500000000E+03  0.12500000000E+03 0.  0.
        -11    1    3    3    0    0  0.18607901365E+01 -0.22791691112E+02  0.35084915404E+02  0.41879290978E+02  0.51100000000E-03 0.  1.
         23    2    1    0    0    0 -0.32389493615E+02  0.13343136793E+01  0.85344483793E+01  0.91478417419E+02  0.85115241612E+02 0.  0.
         11    1    3    3    0    0 -0.34250283751E+02  0.24126004792E+02 -0.26550467024E+02  0.49599126441E+02  0.51100000000E-03 0. -1.
         22    1    1    0    0    0  0.32389493615E+02 -0.13343136793E+01 -0.85344483793E+01  0.33521582581E+02  0.00000000000E+00 0. -1.
</event>
<event>
 5    1  0.1717518E-003  0.9118800E+02  0.7818608E-02  0.1130116E+00
         25   -1    0    0    0    0  0.00000000000E+00  0.00000000000E+00  0.99999998245E-14  0.12500000000E+03  0.12500000000E+03 0.  0.
        -11    1    3    3    0    0 -0.84847192874E+01  0.26985032159E+02  0.19518567651E+02  0.34367963359E+02  0.51100000000E-03 0.  1.
         23    2    1    0    0    0  0.55353486072E+00 -0.28793110407E+02 -0.46558241613E+01  0.95827644826E+02  0.91279303276E+02 0.  0.
         11    1    3    3    0    0  0.90382541481E+01 -0.55778142567E+02 -0.24174391813E+02  0.61459681467E+02  0.51100000000E-03 0. -1.
         22    1    1    0    0    0 -0.55353486072E+00  0.28793110407E+02  0.46558241613E+01  0.29172355174E+02  0.00000000000E+00 0. -1.
</event>
<event>
 5    1  0.1717518E-003  0.9118800E+02  0.7818608E-02  0.1130116E+00
         25   -1    0    0    0    0  0.00000000000E+00  0.00000000000E+00  0.99999998245E-14  0.12500000000E+03  0.12500000000E+03 0.  0.
        -11    1    3    3    0    0 -0.30853727794E+02 -0.47665846090E+02  0.22346436102E+02  0.61019247857E+02  0.51100000000E-03 0.  1.
         23    2    1    0    0    0 -0.18510325256E+02 -0.15422767759E+02  0.15878377150E+02  0.96144900497E+02  0.91712731527E+02 0.  0.
         11    1    3    3    0    0  0.12343402538E+02  0.32243078332E+02 -0.64680589512E+01  0.35125652640E+02  0.51100000000E-03 0. -1.
         22    1    1    0    0    0  0.18510325256E+02  0.15422767759E+02 -0.15878377150E+02  0.28855099503E+02  0.00000000000E+00 0.  1.
</event>
<event>
 5    1  0.1717518E-003  0.9118800E+02  0.7818608E-02  0.1130116E+00
         25   -1    0    0    0    0  0.00000000000E+00  0.00000000000E+00  0.99999998245E-14  0.12500000000E+03  0.12500000000E+03 0.  0.
        -11    1    3    3    0    0  0.20490453137E+02  0.27369318540E+02 -0.68408085927E+01  0.34867390633E+02  0.51100000000E-03 0. -1.
         23    2    1    0    0    0 -0.26185514548E+02 -0.89065933326E+01 -0.13254474736E+02  0.94329335230E+02  0.89203888970E+02 0.  0.
         11    1    3    3    0    0 -0.46675967685E+02 -0.36275911873E+02 -0.64136661432E+01  0.59461944596E+02  0.51100000000E-03 0.  1.
         22    1    1    0    0    0  0.26185514548E+02  0.89065933326E+01  0.13254474736E+02  0.30670664770E+02  0.00000000000E+00 0.  1.
</event>
<event>
 5    1  0.1717518E-003  0.9118800E+02  0.7818608E-02  0.1130116E+00
         25   -1    0    0    0    0  0.00000000000E+00  0.00000000000E+00  0.99999998245E-14  0.12500000000E+03  0.12500000000E+03 0.  0.
        -11    1    3    3    0    0 -0.34681713417E+02  0.19350037024E+02  0.18424224898E+02  0.43780100979E+02  0.51100000000E-03 0.  1.
         23    2    1    0    0    0 -0.91451183621E+01  0.11543611286E+02 -0.25713979913E+02  0.95367299915E+02  0.90646704180E+02 0.  0.
         11    1    3    3    0    0  0.25536595055E+02 -0.78064257378E+01 -0.44138204811E+02  0.51587198936E+02  0.51100000000E-03 0. -1.
         22    1    1    0    0    0  0.91451183621E+01 -0.11543611286E+02  0.25713979913E+02  0.29632700085E+02  0.00000000000E+00 0.  1.
</event>
<event>
 5    1  0.1717518E-003  0.9118800E+02  0.7818608E-02  0.1130116E+00
         25   -1    0    0    0    0  0.00000000000E+00  0.00000000000E+00  0.99999998245E-14  0.12500000000E+03  0.12500000000E+03 0.  0.
        -11    1    3    3    0    0 -0.28534809055E+02 -0.51977445955E+01  0.21540327014E+02  0.36128071701E+02  0.51100000000E-03 0.  1.
         23    2    1    0    0    0  0.24643430716E+02  0.14247975326E+02  0.50977529041E+00  0.96529605742E+02  0.92235575759E+02 0.  0.
         11    1    3    3    0    0  0.53178239772E+02  0.19445719921E+02 -0.21030551724E+02  0.60401534041E+02  0.51100000000E-03 0. -1.
         22    1    1    0    0    0 -0.24643430716E+02 -0.14247975326E+02 -0.50977529041E+00  0.28470394258E+02  0.00000000000E+00 0. -1.
</event>
<event>
 5    1  0.1717518E-003  0.9118800E+02  0.7818608E-02  0.1130116E+00
         25   -1    0    0    0    0  0.00000000000E+00  0.00000000000E+00  0.99999998245E-14  0.12500000000E+03  0.12500000000E+03 0.  0.
        -11    1    3    3    0    0 -0.41695082300E+02  0.79551126764E+01 -0.35259838253E+02  0.55181698955E+02  0.51100000000E-03 0. -1.
         23    2    1    0    0    0 -0.11174349416E+02 -0.15375933539E+02 -0.22238479017E+02  0.95745335995E+02  0.91166517970E+02 0.  0.
         11    1    3    3    0    0  0.30520732884E+02 -0.23331046215E+02  0.13021359237E+02  0.40563637040E+02  0.51100000000E-03 0.  1.
         22    1    1    0    0    0  0.11174349416E+02  0.15375933539E+02  0.22238479017E+02  0.29254664005E+02  0.00000000000E+00 0. -1.
</event>
<event>
 5    1  0.1717518E-003  0.9118800E+02  0.7818608E-02  0.1130116E+00
         25   -1    0    0    0    0  0.00000000000E+00  0.00000000000E+00  0.99999998245E-14  0.12500000000E+03  0.12500000000E+03 0.  0.
        -11    1    3    3    0    0 -0.22157773398E+02  0.17787026839E+02 -0.42452413720E+02  0.51083780955E+02  0.51100000000E-03 0.  1.
         23    2    1    0    0    0  0.10063379440E+01 -0.16492887991E+02 -0.22682292259E+02  0.96937312095E+02  0.92786464658E+02 0.  0.
         11    1    3    3    0    0  0.23164111342E+02 -0.34279914831E+02  0.19770121461E+02  0.45853531139E+02  0.51100000000E-03 0. -1.
         22    1    1    0    0    0 -0.10063379440E+01  0.16492887991E+02  0.22682292259E+02  0.28062687905E+02  0.00000000000E+00 0.  1.
</event>
<event>
 5    1  0.1717518E-003  0.9118800E+02  0.7818608E-02  0.1130116E+00
         25   -1    0    0    0    0  0.00000000000E+00  0.00000000000E+00  0.99999998245E-14  0.12500000000E+03  0.12500000000E+03 0.  0.
        -11    1    3    3    0    0 -0.37083245537E+02 -0.20608023462E+02  0.10008274681E+02  0.43589256623E+02  0.51100000000E-03 0. -1.
         23    2    1    0    0    0  0.14639324606E+02 -0.24866374509E+02  0.48056968789E+01  0.95746946678E+02  0.91168726379E+02 0.  0.
         11    1    3    3    0    0  0.51722570144E+02 -0.42583510468E+01 -0.52025778024E+01  0.52157690056E+02  0.51100000000E-03 0.  1.
         22    1    1    0    0    0 -0.14639324606E+02  0.24866374509E+02 -0.48056968789E+01  0.29253053322E+02  0.00000000000E+00 0.  1.
</event>
<event>
 5    1  0.1717518E-003  0.9118800E+02  0.7818608E-02  0.1130116E+00
         25   -1    0    0    0    0  0.00000000000E+00  0.00000000000E+00  0.99999998245E-14  0.12500000000E+03  0.12500000000E+03 0.  0.
        -11    1    3    3    0    0  0.73881616220E+01  0.97046275272E+01  0.34319264618E+02  0.36422199985E+02  0.51100000000E-03 0. -1.
         23    2    1    0    0    0  0.19161591533E+02 -0.14950935885E+02 -0.17532405365E+02  0.95031978515E+02  0.90183117204E+02 0.  0.
         11    1    3    3    0    0  0.11773429911E+02 -0.24655563412E+02 -0.51851669983E+02  0.58609778529E+02  0.51100000000E-03 0.  1.
         22    1    1    0    0    0 -0.19161591533E+02  0.14950935885E+02  0.17532405365E+02  0.29968021485E+02  0.00000000000E+00 0.  1.
</event>
<event>
 5    1  0.1717518E-003  0.9118800E+02  0.7818608E-02  0.1130116E+00
         25   -1    0    0    0    0  0.00000000000E+00  0.00000000000E+00  0.99999998245E-14  0.12500000000E+03  0.12500000000E+03 0.  0.
        -11    1    3    3    0    0  0.15696681985E+02  0.11650528063E+02  0.31784182419E+02  0.37314271825E+02  0.51100000000E-03 0.  1.
         23    2    1    0    0    0  0.94580939244E-01 -0.22635404722E+02 -0.15349279571E+02  0.97650943786E+02  0.93742924781E+02 0.  0.
         11    1    3    3    0    0 -0.15602101046E+02 -0.34285932785E+02 -0.47133461990E+02  0.60336671961E+02  0.51100000000E-03 0. -1.
         22    1    1    0    0    0 -0.94580939244E-01  0.22635404722E+02  0.15349279571E+02  0.27349056214E+02  0.00000000000E+00 0. -1.
</event>
<event>
 5    1  0.1717518E-003  0.9118800E+02  0.7818608E-02  0.1130116E+00
         25   -1    0    0    0    0  0.00000000000E+00  0.00000000000E+00  0.99999998245E-14  0.12500000000E+03  0.12500000000E+03 0.  0.
        -11    1    3    3    0    0 -0.87492301822E+01  0.58264823716E+02  0.39094399020E+01  0.59047628505E+02  0.51100000000E-03 0.  1.
         23    2    1    0    0    0 -0.46194878048E+01  0.26474933918E+02 -0.12838547069E+02  0.95215942446E+02  0.90437744396E+02 0.  0.
         11    1    3    3    0    0  0.41297423774E+01 -0.31789889798E+02 -0.16747986971E+02  0.36168313941E+02  0.51100000000E-03 0. -1.
         22    1    1    0    0    0  0.46194878048E+01 -0.26474933918E+02  0.12838547069E+02  0.29784057554E+02  0.00000000000E+00 0.  1.
</event>
<event>
 5    1  0.1717518E-003  0.9118800E+02  0.7818608E-02  0.1130116E+00
         25   -1    0    0    0    0  0.00000000000E+00  0.00000000000E+00  0.99999998245E-14  0.12500000000E+03  0.12500000000E+03 0.  0.
        -11    1    3    3    0    0 -0.22172123230E+02 -0.18071919866E+02 -0.36372342271E+02  0.46272503917E+02  0.51100000000E-03 0. -1.
         23    2    1    0    0    0  0.49658187111E+00 -0.26215658452E+02  0.86971672073E+01  0.97374865447E+02  0.93374066859E+02 0.  0.
         11    1    3    3    0    0  0.22668705101E+02 -0.81437385859E+01  0.45069509478E+02  0.51102361530E+02  0.51100000000E-03 0.  1.
         22    1    1    0    0    0 -0.49658187111E+00  0.26215658452E+02 -0.86971672073E+01  0.27625134553E+02  0.00000000000E+00 0.  1.
</event>
<event>
 5    1  0.1717518E-003  0.9118800E+02  0.7818608E-02  0.1130116E+00
         25   -1    0    0    0    0  0.00000000000E+00  0.00000000000E+00  0.99999998245E-14  0.12500000000E+03  0.12500000000E+03 0.  0.
        -11    1    3    3    0    0 -0.68898033533E+01 -0.23898890477E+02  0.31904003169E+02  0.40453575549E+02  0.51100000000E-03 0. -1.
         23    2    1    0    0    0 -0.20652224749E+02  0.20959575988E+02  0.33397566473E+01  0.95386283800E+02  0.90672878801E+02 0.  0.
         11    1    3    3    0    0 -0.13762421396E+02  0.44858466465E+02 -0.28564246521E+02  0.54932708251E+02  0.51100000000E-03 0.  1.
         22    1    1    0    0    0  0.20652224749E+02 -0.20959575988E+02 -0.33397566473E+01  0.29613716200E+02  0.00000000000E+00 0.  1.
</event>
<event>
 5    1  0.1717518E-003  0.9118800E+02  0.7818608E-02  0.1130116E+00
         25   -1    0    0    0    0  0.00000000000E+00  0.00000000000E+00  0.99999998245E-14  0.12500000000E+03  0.12500000000E+03 0.  0.
        -11    1    3    3    0    0  0.46837011474E+02  0.21510174556E+02 -0.19063734736E+02  0.54952881959E+02  0.51100000000E-03 0. -1.
         23    2    1    0    0    0  0.27165824178E+02 -0.11048016038E+02 -0.71456024609E+01  0.94815562020E+02  0.89882648520E+02 0.  0.
         11    1    3    3    0    0 -0.19671187297E+02 -0.32558190594E+02  0.11918132275E+02  0.39862680061E+02  0.51100000000E-03 0.  1.
         22    1    1    0    0    0 -0.27165824178E+02  0.11048016038E+02  0.71456024609E+01  0.30184437980E+02  0.00000000000E+00 0.  1.
</event>
<event>
 5    1  0.1717518E-003  0.9118800E+02  0.7818608E-02  0.1130116E+00
         25   -1    0    0    0    0  0.00000000000E+00  0.00000000000E+00  0.99999998245E-14  0.12500000000E+03  0.12500000000E+03 0.  0.
        -11    1    3    3    0    0  0.40483227009E+01 -0.48849147233E+02 -0.67404114555E+01  0.49477886464E+02  0.51100000000E-03 0. -1.
         23    2    1    0    0    0  0.29473708878E+02 -0.16339353006E+02 -0.60892079338E+01  0.90754526942E+02  0.84045414721E+02 0.  0.
         11    1    3    3    0    0  0.25425386177E+02  0.32509794227E+02  0.65120352168E+00  0.41276640479E+02  0.51100000000E-03 0.  1.
         22    1    1    0    0    0 -0.29473708878E+02  0.16339353006E+02  0.60892079338E+01  0.34245473058E+02  0.00000000000E+00 0. -1.
</event>
<event>
 5    1  0.1717518E-003  0.9118800E+02  0.7818608E-02  0.1130116E+00
         25   -1    0    0    0    0  0.00000000000E+00  0.00000000000E+00  0.99999998245E-14  0.12500000000E+03  0.12500000000E+03 0.  0.
        -11    1    3    3    0    0 -0.15029177070E+02  0.33948232657E+02  0.32711035209E+02  0.49481011395E+02  0.51100000000E-03 0. -1.
         23    2    1    0    0    0 -0.28740799627E+02  0.37204347516E+01  0.90796380863E-01  0.96019257396E+02  0.91541325908E+02 0.  0.
         11    1    3    3    0    0 -0.13711622556E+02 -0.30227797905E+02 -0.32620238829E+02  0.46538246001E+02  0.51100000000E-03 0.  1.
         22    1    1    0    0    0  0.28740799627E+02 -0.37204347516E+01 -0.90796380863E-01  0.28980742604E+02  0.00000000000E+00 0.  1.
</event>
<event>
 5    1  0.1717518E-003  0.9118800E+02  0.7818608E-02  0.1130116E+00
         25   -1    0    0    0    0  0.00000000000E+00  0.00000000000E+00  0.99999998245E-14  0.12500000000E+03  0.12500000000E+03 0.  0.
        -11    1    3    3    0    0  0.45398712095E+02  0.34606513627E+02  0.21764257007E+02  0.61092853335E+02  0.51100000000E-03 0. -1.
         23    2    1    0    0    0  0.26630980285E+02  0.18691332032E+02  0.24549454762E+01  0.92371764354E+02  0.86417249948E+02 0.  0.
         11    1    3    3    0    0 -0.18767731810E+02 -0.15915181595E+02 -0.19309311531E+02  0.31278911019E+02  0.51100000000E-03 0.  1.
         22    1    1    0    0    0 -0.26630980285E+02 -0.18691332032E+02 -0.24549454762E+01  0.32628235646E+02  0.00000000000E+00 0. -1.
</event>
<event>
 5    1  0.1717518E-003  0.9118800E+02  0.7818608E-02  0.1130116E+00
         25   -1    0    0    0    0  0.00000000000E+00  0.00000000000E+00  0.99999998245E-14  0.12500000000E+03  0.12500000000E+03 0.  0.
        -11    1    3    3    0    0 -0.17673036606E+02 -0.33677218041E+02  0.16669058342E+02  0.41525278375E+02  0.51100000000E-03 0. -1.
         23    2    1    0    0    0  0.12101833073E+01 -0.60763909928E+01 -0.27434706175E+02  0.96874385801E+02  0.92701652900E+02 0.  0.
         11    1    3    3    0    0  0.18883219913E+02  0.27600827048E+02 -0.44103764517E+02  0.55349107426E+02  0.51100000000E-03 0.  1.
         22    1    1    0    0    0 -0.12101833073E+01  0.60763909928E+01  0.27434706175E+02  0.28125614199E+02  0.00000000000E+00 0.  1.
</event>
<event>
 5    1  0.1717518E-003  0.9118800E+02  0.7818608E-02  0.1130116E+00
         25   -1    0    0    0    0  0.00000000000E+00  0.00000000000E+00  0.99999998245E-14  0.12500000000E+03  0.12500000000E+03 0.  0.
        -11    1    3    3    0    0  0.29061219129E+02  0.23522728910E+02  0.85092591117E+01  0.38344239770E+02  0.51100000000E-03 0.  1.
         23    2    1    0    0    0 -0.83857317370E+01 -0.16614603842E+02  0.23284912016E+02  0.95191399141E+02  0.90403815103E+02 0.  0.
         11    1    3    3    0    0 -0.37446950866E+02 -0.40137332752E+02  0.14775652905E+02  0.56847159371E+02  0.51100000000E-03 0. -1.
         22    1    1    0    0    0  0.83857317370E+01  0.16614603842E+02 -0.23284912016E+02  0.29808600859E+02  0.00000000000E+00 0. -1.
</event>
<event>
 5    1  0.1717518E-003  0.9118800E+02  0.7818608E-02  0.1130116E+00
         25   -1    0    0    0    0  0.00000000000E+00  0.00000000000E+00  0.99999998245E-14  0.12500000000E+03  0.12500000000E+03 0.  0.
        -11    1    3    3    0    0  0.10865438841E+01  0.14159930299E+02 -0.30120907216E+02  0.33300949768E+02  0.51100000000E-03 0. -1.
         23    2    1    0    0    0 -0.83914181185E+01 -0.19528411847E+02  0.20913195702E+02  0.95181607660E+02  0.90390275555E+02 0.  0.
         11    1    3    3    0    0 -0.94779620026E+01 -0.33688342145E+02  0.51034102918E+02  0.61880657892E+02  0.51100000000E-03 0.  1.
         22    1    1    0    0    0  0.83914181185E+01  0.19528411847E+02 -0.20913195702E+02  0.29818392340E+02  0.00000000000E+00 0.  1.
</event>
<event>
 5    1  0.1717518E-003  0.9118800E+02  0.7818608E-02  0.1130116E+00
         25   -1    0    0    0    0  0.00000000000E+00  0.00000000000E+00  0.99999998245E-14  0.12500000000E+03  0.12500000000E+03 0.  0.
        -11    1    3    3    0    0  0.70511121279E+00  0.35885764915E+02  0.26568350639E+01  0.35990888821E+02  0.51100000000E-03 0. -1.
         23    2    1    0    0    0 -0.17451603827E+02 -0.22127436709E+02  0.89622428497E+00  0.96804518990E+02  0.92607395749E+02 0.  0.
         11    1    3    3    0    0 -0.18156715039E+02 -0.58013201624E+02 -0.17606107789E+01  0.60813630168E+02  0.51100000000E-03 0.  1.
         22    1    1    0    0    0  0.17451603827E+02  0.22127436709E+02 -0.89622428497E+00  0.28195481010E+02  0.00000000000E+00 0.  1.
</event>
<event>
 4    1  0.1717518E-003  0.9118800E+02  0.7818608E-02  0.1130116E+00
         25   -1    0    0    0    0  0.00000000000E+00  0.00000000000E+00  0.99999998245E-14  0.12500000000E+03  0.12500000000E+03 0.  0.
        -11    1    1    0    0    0 -0.50847981315E+01  0.37342568843E+01 -0.65741223096E+01  0.91114724891E+01  0.51100000000E-03 0. -1.
         11    1    1    0    0    0  0.29633523522E+02 -0.22714049585E+02  0.50069951692E+02  0.62458576894E+02  0.51100000000E-03 0.  1.
         22    1    1    0    0    0 -0.24548725391E+02  0.18979792701E+02 -0.43495829382E+02  0.53429950617E+02  0.00000000000E+00 0.  1.
</event>
<event>
 5    1  0.1717518E-003  0.9118800E+02  0.7818608E-02  0.1130116E+00
         25   -1    0    0    0    0  0.00000000000E+00  0.00000000000E+00  0.99999998245E-14  0.12500000000E+03  0.12500000000E+03 0.  0.
        -11    1    3    3    0    0  0.27117184660E+02  0.18770143409E+02  0.59714014465E+01  0.33515930883E+02  0.51100000000E-03 0.  1.
         23    2    1    0    0    0 -0.22795142904E+02 -0.16646335832E+02 -0.66410465827E+01  0.96003059879E+02  0.91519205470E+02 0.  0.
         11    1    3    3    0    0 -0.49912327564E+02 -0.35416479240E+02 -0.12612448029E+02  0.62487128996E+02  0.51100000000E-03 0. -1.
         22    1    1    0    0    0  0.22795142904E+02  0.16646335832E+02  0.66410465827E+01  0.28996940121E+02  0.00000000000E+00 0. -1.
</event>
<event>
 5    1  0.1717518E-003  0.9118800E+02  0.7818608E-02  0.1130116E+00
         25   -1    0    0    0    0  0.00000000000E+00  0.00000000000E+00  0.99999998245E-14  0.12500000000E+03  0.12500000000E+03 0.  0.
        -11    1    3    3    0    0 -0.30362518169E+02 -0.52834002426E+02  0.25821376964E+01  0.60991653177E+02  0.51100000000E-03 0.  1.
         23    2    1    0    0    0 -0.12415078011E+02 -0.34730210451E+02  0.84751645025E+01  0.87156241025E+02  0.78511529449E+02 0.  0.
         11    1    3    3    0    0  0.17947440158E+02  0.18103791975E+02  0.58930268061E+01  0.26164587849E+02  0.51100000000E-03 0. -1.
         22    1    1    0    0    0  0.12415078011E+02  0.34730210451E+02 -0.84751645025E+01  0.37843758975E+02  0.00000000000E+00 0.  1.
</event>
<event>
 5    1  0.1717518E-003  0.9118800E+02  0.7818608E-02  0.1130116E+00
         25   -1    0    0    0    0  0.00000000000E+00  0.00000000000E+00  0.99999998245E-14  0.12500000000E+03  0.12500000000E+03 0.  0.
        -11    1    3    3    0    0 -0.16698946674E+01 -0.43417103545E+02 -0.10511943450E+02  0.44702733515E+02  0.51100000000E-03 0. -1.
         23    2    1    0    0    0  0.19809579475E+02 -0.81743849444E+01  0.19731342562E+02  0.95869845735E+02  0.91337075898E+02 0.  0.
         11    1    3    3    0    0  0.21479474143E+02  0.35242718600E+02  0.30243286012E+02  0.51167112219E+02  0.51100000000E-03 0.  1.
         22    1    1    0    0    0 -0.19809579475E+02  0.81743849444E+01 -0.19731342562E+02  0.29130154265E+02  0.00000000000E+00 0.  1.
</event>
<event>
 5    1  0.1717518E-003  0.9118800E+02  0.7818608E-02  0.1130116E+00
         25   -1    0    0    0    0  0.00000000000E+00  0.00000000000E+00  0.99999998245E-14  0.12500000000E+03  0.12500000000E+03 0.  0.
        -11    1    3    3    0    0 -0.38990756721E+02  0.12081829673E+02 -0.91872995710E+01  0.41840843582E+02  0.51100000000E-03 0. -1.
         23    2    1    0    0    0 -0.56717659301E+01 -0.28650116845E+02  0.22992104672E+01  0.95703507159E+02  0.91109147673E+02 0.  0.
         11    1    3    3    0    0  0.33318990791E+02 -0.40731946518E+02  0.11486510038E+02  0.53862663577E+02  0.51100000000E-03 0.  1.
         22    1    1    0    0    0  0.56717659301E+01  0.28650116845E+02 -0.22992104672E+01  0.29296492841E+02  0.00000000000E+00 0.  1.
</event>
<event>
 5    1  0.1717518E-003  0.9118800E+02  0.7818608E-02  0.1130116E+00
         25   -1    0    0    0    0  0.00000000000E+00  0.00000000000E+00  0.99999998245E-14  0.12500000000E+03  0.12500000000E+03 0.  0.
        -11    1    3    3    0    0 -0.37660927993E+02 -0.52754634152E+01 -0.28138927845E+02  0.47307243336E+02  0.51100000000E-03 0.  1.
         23    2    1    0    0    0 -0.14812479188E+02  0.25265943538E+02  0.15934698200E+01  0.95668846108E+02  0.91061580960E+02 0.  0.
         11    1    3    3    0    0  0.22848448804E+02  0.30541406953E+02  0.29732397665E+02  0.48361602772E+02  0.51100000000E-03 0. -1.
         22    1    1    0    0    0  0.14812479188E+02 -0.25265943538E+02 -0.15934698200E+01  0.29331153892E+02  0.00000000000E+00 0.  1.
</event>
<event>
 5    1  0.1717518E-003  0.9118800E+02  0.7818608E-02  0.1130116E+00
         25   -1    0    0    0    0  0.00000000000E+00  0.00000000000E+00  0.99999998245E-14  0.12500000000E+03  0.12500000000E+03 0.  0.
        -11    1    3    3    0    0 -0.18976140013E+02  0.17454987479E+02  0.33023118693E+02  0.41896262914E+02  0.51100000000E-03 0. -1.
         23    2    1    0    0    0 -0.48196010175E+01  0.24929910077E+02 -0.17016193025E+02  0.94434009169E+02  0.89350446514E+02 0.  0.
         11    1    3    3    0    0  0.14156538995E+02  0.74749225981E+01 -0.50039311718E+02  0.52537746255E+02  0.51100000000E-03 0.  1.
         22    1    1    0    0    0  0.48196010175E+01 -0.24929910077E+02  0.17016193025E+02  0.30565990831E+02  0.00000000000E+00 0.  1.
</event>
<event>
 5    1  0.1717518E-003  0.9118800E+02  0.7818608E-02  0.1130116E+00
         25   -1    0    0    0    0  0.00000000000E+00  0.00000000000E+00  0.99999998245E-14  0.12500000000E+03  0.12500000000E+03 0.  0.
        -11    1    3    3    0    0  0.40824066927E+00 -0.28012788050E+01  0.38303969528E+02  0.38408435340E+02  0.51100000000E-03 0. -1.
         23    2    1    0    0    0  0.21743109600E+02 -0.11976901116E+02 -0.14611000410E+02  0.96195654696E+02  0.91781880968E+02 0.  0.
         11    1    3    3    0    0  0.21334868930E+02 -0.91756223107E+01 -0.52914969938E+02  0.57787219356E+02  0.51100000000E-03 0.  1.
         22    1    1    0    0    0 -0.21743109600E+02  0.11976901116E+02  0.14611000410E+02  0.28804345304E+02  0.00000000000E+00 0.  1.
</event>
<event>
 5    1  0.1717518E-003  0.9118800E+02  0.7818608E-02  0.1130116E+00
         25   -1    0    0    0    0  0.00000000000E+00  0.00000000000E+00  0.99999998245E-14  0.12500000000E+03  0.12500000000E+03 0.  0.
        -11    1    3    3    0    0 -0.44331295624E+02  0.33542018871E+02 -0.24313423328E+02  0.60675146113E+02  0.51100000000E-03 0. -1.
         23    2    1    0    0    0 -0.98655564344E+01  0.19779285292E+02 -0.58002910802E+01  0.10214846379E+03  0.99559610024E+02 0.  0.
         11    1    3    3    0    0  0.34465739190E+02 -0.13762733579E+02  0.18513132248E+02  0.41473317679E+02  0.51100000000E-03 0.  1.
         22    1    1    0    0    0  0.98655564344E+01 -0.19779285292E+02  0.58002910802E+01  0.22851536207E+02  0.00000000000E+00 0. -1.
</event>
<event>
 5    1  0.1717518E-003  0.9118800E+02  0.7818608E-02  0.1130116E+00
         25   -1    0    0    0    0  0.00000000000E+00  0.00000000000E+00  0.99999998245E-14  0.12500000000E+03  0.12500000000E+03 0.  0.
        -11    1    3    3    0    0  0.15867540869E+02  0.44711702660E+02 -0.14378181594E+02  0.49574664035E+02  0.51100000000E-03 0.  1.
         23    2    1    0    0    0  0.29948370594E+02  0.47758230446E+01  0.10813713130E+01  0.94653949995E+02  0.89657612609E+02 0.  0.
         11    1    3    3    0    0  0.14080829725E+02 -0.39935879615E+02  0.15459552907E+02  0.45079285960E+02  0.51100000000E-03 0. -1.
         22    1    1    0    0    0 -0.29948370594E+02 -0.47758230446E+01 -0.10813713130E+01  0.30346050005E+02  0.00000000000E+00 0. -1.
</event>
<event>
 5    1  0.1717518E-003  0.9118800E+02  0.7818608E-02  0.1130116E+00
         25   -1    0    0    0    0  0.00000000000E+00  0.00000000000E+00  0.99999998245E-14  0.12500000000E+03  0.12500000000E+03 0.  0.
        -11    1    3    3    0    0  0.29368910958E+02 -0.30087140266E+02  0.25228364069E+00  0.42045601286E+02  0.51100000000E-03 0.  1.
         23    2    1    0    0    0 -0.20446135698E+01  0.42248567883E+01  0.28264447878E+02  0.96348492651E+02  0.91989799232E+02 0.  0.
         11    1    3    3    0    0 -0.31413524528E+02  0.34311997054E+02  0.28012164237E+02  0.54302891365E+02  0.51100000000E-03 0. -1.
         22    1    1    0    0    0  0.20446135698E+01 -0.42248567883E+01 -0.28264447878E+02  0.28651507349E+02  0.00000000000E+00 0.  1.
</event>
<event>
 5    1  0.1717518E-003  0.9118800E+02  0.7818608E-02  0.1130116E+00
         25   -1    0    0    0    0  0.00000000000E+00  0.00000000000E+00  0.99999998245E-14  0.12500000000E+03  0.12500000000E+03 0.  0.
        -11    1    3    3    0    0  0.35495093670E+02  0.11510149867E+02 -0.16868363963E+02  0.40950298260E+02  0.51100000000E-03 0.  1.
         23    2    1    0    0    0 -0.82892836738E+01  0.27793919370E+02  0.93590182548E+01  0.94523691161E+02  0.89475822378E+02 0.  0.
         11    1    3    3    0    0 -0.43784377344E+02  0.16283769503E+02  0.26227382217E+02  0.53573392900E+02  0.51100000000E-03 0. -1.
         22    1    1    0    0    0  0.82892836738E+01 -0.27793919370E+02 -0.93590182548E+01  0.30476308839E+02  0.00000000000E+00 0.  1.
</event>
<event>
 5    1  0.1717518E-003  0.9118800E+02  0.7818608E-02  0.1130116E+00
         25   -1    0    0    0    0  0.00000000000E+00  0.00000000000E+00  0.99999998245E-14  0.12500000000E+03  0.12500000000E+03 0.  0.
        -11    1    3    3    0    0  0.59473921336E+00 -0.64201969042E+01 -0.39391433479E+02  0.39915631961E+02  0.51100000000E-03 0. -1.
         23    2    1    0    0    0  0.51654121357E+01 -0.27583543018E+02  0.11075151153E+02  0.94830606552E+02  0.89903568550E+02 0.  0.
         11    1    3    3    0    0  0.45706729223E+01 -0.21163346113E+02  0.50466584632E+02  0.54914974592E+02  0.51100000000E-03 0.  1.
         22    1    1    0    0    0 -0.51654121357E+01  0.27583543018E+02 -0.11075151153E+02  0.30169393448E+02  0.00000000000E+00 0.  1.
</event>
<event>
 5    1  0.1717518E-003  0.9118800E+02  0.7818608E-02  0.1130116E+00
         25   -1    0    0    0    0  0.00000000000E+00  0.00000000000E+00  0.99999998245E-14  0.12500000000E+03  0.12500000000E+03 0.  0.
        -11    1    3    3    0    0 -0.19360998246E+02 -0.16904793466E+02 -0.75049356939E+01  0.26775816612E+02  0.51100000000E-03 0.  1.
         23    2    1    0    0    0  0.20553804369E+02  0.24784387433E+02 -0.21649581155E+02  0.86200140482E+02  0.76974249723E+02 0.  0.
         11    1    3    3    0    0  0.39914802615E+02  0.41689180899E+02 -0.14144645461E+02  0.59424323869E+02  0.51100000000E-03 0. -1.
         22    1    1    0    0    0 -0.20553804369E+02 -0.24784387433E+02  0.21649581155E+02  0.38799859518E+02  0.00000000000E+00 0. -1.
</event>
<event>
 5    1  0.1717518E-003  0.9118800E+02  0.7818608E-02  0.1130116E+00
         25   -1    0    0    0    0  0.00000000000E+00  0.00000000000E+00  0.99999998245E-14  0.12500000000E+03  0.12500000000E+03 0.  0.
        -11    1    3    3    0    0 -0.15836199391E+02 -0.11464050573E+02  0.28725891725E+02  0.34747467855E+02  0.51100000000E-03 0. -1.
         23    2    1    0    0    0  0.27345969248E+02  0.79429998182E+01 -0.88395822286E+01  0.95183368832E+02  0.90392711034E+02 0.  0.
         11    1    3    3    0    0  0.43182168639E+02  0.19407050391E+02 -0.37565473954E+02  0.60435900977E+02  0.51100000000E-03 0.  1.
         22    1    1    0    0    0 -0.27345969248E+02 -0.79429998182E+01  0.88395822286E+01  0.29816631168E+02  0.00000000000E+00 0.  1.
</event>
<event>
 5    1  0.1717518E-003  0.9118800E+02  0.7818608E-02  0.1130116E+00
         25   -1    0    0    0    0  0.00000000000E+00  0.00000000000E+00  0.99999998245E-14  0.12500000000E+03  0.12500000000E+03 0.  0.
        -11    1    3    3    0    0 -0.67352024894E+01 -0.52425071831E+02  0.18358871452E+02  0.55953545645E+02  0.51100000000E-03 0. -1.
         23    2    1    0    0    0 -0.18634712147E+02 -0.23432186971E+02 -0.44741075625E+01  0.94728932600E+02  0.89762091943E+02 0.  0.
         11    1    3    3    0    0 -0.11899509657E+02  0.28992884860E+02 -0.22832979014E+02  0.38775386955E+02  0.51100000000E-03 0.  1.
         22    1    1    0    0    0  0.18634712147E+02  0.23432186971E+02  0.44741075625E+01  0.30271067400E+02  0.00000000000E+00 0. -1.
</event>
<event>
 5    1  0.1717518E-003  0.9118800E+02  0.7818608E-02  0.1130116E+00
         25   -1    0    0    0    0  0.00000000000E+00  0.00000000000E+00  0.99999998245E-14  0.12500000000E+03  0.12500000000E+03 0.  0.
        -11    1    3    3    0    0 -0.15569079731E+02 -0.55487260518E+02 -0.12916831784E+02  0.59059942999E+02  0.51100000000E-03 0. -1.
         23    2    1    0    0    0 -0.96378887362E+01 -0.20372057212E+02 -0.19406595697E+02  0.95259025387E+02  0.90497272593E+02 0.  0.
         11    1    3    3    0    0  0.59311909946E+01  0.35115203306E+02 -0.64897639134E+01  0.36199082388E+02  0.51100000000E-03 0.  1.
         22    1    1    0    0    0  0.96378887362E+01  0.20372057212E+02  0.19406595697E+02  0.29740974613E+02  0.00000000000E+00 0. -1.
</event>
<event>
 5    1  0.1717518E-003  0.9118800E+02  0.7818608E-02  0.1130116E+00
         25   -1    0    0    0    0  0.00000000000E+00  0.00000000000E+00  0.99999998245E-14  0.12500000000E+03  0.12500000000E+03 0.  0.
        -11    1    3    3    0    0  0.42273927488E+01 -0.25718758524E+02 -0.46812725834E+02  0.53579442791E+02  0.51100000000E-03 0.  1.
         23    2    1    0    0    0 -0.12888303209E+02 -0.23247726585E+02 -0.62222916638E+01  0.97700145339E+02  0.93808508861E+02 0.  0.
         11    1    3    3    0    0 -0.17115695958E+02  0.24710319390E+01  0.40590434170E+02  0.44120702548E+02  0.51100000000E-03 0. -1.
         22    1    1    0    0    0  0.12888303209E+02  0.23247726585E+02  0.62222916638E+01  0.27299854661E+02  0.00000000000E+00 0.  1.
</event>
<event>
 5    1  0.1717518E-003  0.9118800E+02  0.7818608E-02  0.1130116E+00
         25   -1    0    0    0    0  0.00000000000E+00  0.00000000000E+00  0.99999998245E-14  0.12500000000E+03  0.12500000000E+03 0.  0.
        -11    1    3    3    0    0  0.31141029289E+02 -0.33026319593E+01 -0.52719839707E+02  0.61319267625E+02  0.51100000000E-03 0.  1.
         23    2    1    0    0    0  0.21895742072E+02 -0.30441508859E+01 -0.20460751458E+02  0.94878035826E+02  0.89969489031E+02 0.  0.
         11    1    3    3    0    0 -0.92452872179E+01  0.25848107334E+00  0.32259088249E+02  0.33558768200E+02  0.51100000000E-03 0. -1.
         22    1    1    0    0    0 -0.21895742072E+02  0.30441508859E+01  0.20460751458E+02  0.30121964174E+02  0.00000000000E+00 0.  1.
</event>
<event>
 5    1  0.1717518E-003  0.9118800E+02  0.7818608E-02  0.1130116E+00
         25   -1    0    0    0    0  0.00000000000E+00  0.00000000000E+00  0.99999998245E-14  0.12500000000E+03  0.12500000000E+03 0.  0.
        -11    1    3    3    0    0 -0.17451485051E+02 -0.52748196832E+01 -0.43094038142E+02  0.46791817413E+02  0.51100000000E-03 0.  1.
         23    2    1    0    0    0  0.12590330841E+02 -0.24774059930E+02 -0.10269731591E+02  0.95373358897E+02  0.90655059011E+02 0.  0.
         11    1    3    3    0    0  0.30041815892E+02 -0.19499240246E+02  0.32824306550E+02  0.48581541485E+02  0.51100000000E-03 0. -1.
         22    1    1    0    0    0 -0.12590330841E+02  0.24774059930E+02  0.10269731591E+02  0.29626641103E+02  0.00000000000E+00 0. -1.
</event>
<event>
 5    1  0.1717518E-003  0.9118800E+02  0.7818608E-02  0.1130116E+00
         25   -1    0    0    0    0  0.00000000000E+00  0.00000000000E+00  0.99999998245E-14  0.12500000000E+03  0.12500000000E+03 0.  0.
        -11    1    3    3    0    0 -0.13278839095E+02 -0.20901314126E+02 -0.44646802711E+02  0.51054181929E+02  0.51100000000E-03 0. -1.
         23    2    1    0    0    0  0.62264331660E+01  0.14152260780E+02 -0.24713012519E+02  0.95848877501E+02  0.91308375165E+02 0.  0.
         11    1    3    3    0    0  0.19505272261E+02  0.35053574906E+02  0.19933790192E+02  0.44794695572E+02  0.51100000000E-03 0.  1.
         22    1    1    0    0    0 -0.62264331660E+01 -0.14152260780E+02  0.24713012519E+02  0.29151122499E+02  0.00000000000E+00 0.  1.
</event>
<event>
 5    1  0.1717518E-003  0.9118800E+02  0.7818608E-02  0.1130116E+00
         25   -1    0    0    0    0  0.00000000000E+00  0.00000000000E+00  0.99999998245E-14  0.12500000000E+03  0.12500000000E+03 0.  0.
        -11    1    3    3    0    0 -0.23336165651E+02  0.24432344409E+02  0.17519951329E+02  0.38058701704E+02  0.51100000000E-03 0.  1.
         23    2    1    0    0    0 -0.91373356694E+01 -0.80442987489E+01 -0.27245989950E+02  0.95157989112E+02  0.90357607748E+02 0.  0.
         11    1    3    3    0    0  0.14198829982E+02 -0.32476643157E+02 -0.44765941278E+02  0.57099287407E+02  0.51100000000E-03 0. -1.
         22    1    1    0    0    0  0.91373356694E+01  0.80442987489E+01  0.27245989950E+02  0.29842010888E+02  0.00000000000E+00 0. -1.
</event>
<event>
 5    1  0.1717518E-003  0.9118800E+02  0.7818608E-02  0.1130116E+00
         25   -1    0    0    0    0  0.00000000000E+00  0.00000000000E+00  0.99999998245E-14  0.12500000000E+03  0.12500000000E+03 0.  0.
        -11    1    3    3    0    0 -0.16931962364E+02 -0.35307564790E+02  0.37249669381E+02  0.54044919744E+02  0.51100000000E-03 0.  1.
         23    2    1    0    0    0 -0.23387942780E+02 -0.18024871847E+02  0.15772651528E+00  0.95471763509E+02  0.90790643115E+02 0.  0.
         11    1    3    3    0    0 -0.64559804164E+01  0.17282692942E+02 -0.37091942866E+02  0.41426843765E+02  0.51100000000E-03 0. -1.
         22    1    1    0    0    0  0.23387942780E+02  0.18024871847E+02 -0.15772651528E+00  0.29528236491E+02  0.00000000000E+00 0.  1.
</event>
<event>
 5    1  0.1717518E-003  0.9118800E+02  0.7818608E-02  0.1130116E+00
         25   -1    0    0    0    0  0.00000000000E+00  0.00000000000E+00  0.99999998245E-14  0.12500000000E+03  0.12500000000E+03 0.  0.
        -11    1    3    3    0    0  0.17054763060E+01 -0.31097803858E+02  0.37621438223E+02  0.48840092839E+02  0.51100000000E-03 0.  1.
         23    2    1    0    0    0  0.25690875440E+02 -0.14936380499E+02  0.13212899079E+01  0.95253364050E+02  0.90489452494E+02 0.  0.
         11    1    3    3    0    0  0.23985399134E+02  0.16161423359E+02 -0.36300148316E+02  0.46413271212E+02  0.51100000000E-03 0. -1.
         22    1    1    0    0    0 -0.25690875440E+02  0.14936380499E+02 -0.13212899079E+01  0.29746635950E+02  0.00000000000E+00 0.  1.
</event>
<event>
 5    1  0.1717518E-003  0.9118800E+02  0.7818608E-02  0.1130116E+00
         25   -1    0    0    0    0  0.00000000000E+00  0.00000000000E+00  0.99999998245E-14  0.12500000000E+03  0.12500000000E+03 0.  0.
        -11    1    3    3    0    0  0.25197852076E+02  0.11556439865E+02 -0.41887475177E+02  0.50229907710E+02  0.51100000000E-03 0. -1.
         23    2    1    0    0    0  0.29676535102E+02  0.15493624873E+02 -0.10442864856E+01  0.91506124714E+02  0.85155922745E+02 0.  0.
         11    1    3    3    0    0  0.44786830267E+01  0.39371850084E+01  0.40843188692E+02  0.41276217004E+02  0.51100000000E-03 0.  1.
         22    1    1    0    0    0 -0.29676535102E+02 -0.15493624873E+02  0.10442864856E+01  0.33493875286E+02  0.00000000000E+00 0.  1.
</event>
<event>
 5    1  0.1717518E-003  0.9118800E+02  0.7818608E-02  0.1130116E+00
         25   -1    0    0    0    0  0.00000000000E+00  0.00000000000E+00  0.99999998245E-14  0.12500000000E+03  0.12500000000E+03 0.  0.
        -11    1    3    3    0    0  0.29487256549E+02  0.26527721192E+02  0.20515014836E+02  0.44655169067E+02  0.51100000000E-03 0. -1.
         23    2    1    0    0    0  0.84064939340E+01 -0.13223746844E+02  0.30468525529E+02  0.90738247727E+02  0.84021199300E+02 0.  0.
         11    1    3    3    0    0 -0.21080762615E+02 -0.39751468036E+02  0.99535106930E+01  0.46083078660E+02  0.51100000000E-03 0.  1.
         22    1    1    0    0    0 -0.84064939340E+01  0.13223746844E+02 -0.30468525529E+02  0.34261752273E+02  0.00000000000E+00 0. -1.
</event>
<event>
 5    1  0.1717518E-003  0.9118800E+02  0.7818608E-02  0.1130116E+00
         25   -1    0    0    0    0  0.00000000000E+00  0.00000000000E+00  0.99999998245E-14  0.12500000000E+03  0.12500000000E+03 0.  0.
        -11    1    3    3    0    0  0.52824010334E+02 -0.13248359002E+02 -0.16992301173E+02  0.57049394243E+02  0.51100000000E-03 0.  1.
         23    2    1    0    0    0  0.15395852245E+02  0.99400445479E+01 -0.15326151774E+02  0.10111009250E+03  0.98247255056E+02 0.  0.
         11    1    3    3    0    0 -0.37428158090E+02  0.23188403550E+02  0.16661493988E+01  0.44060698261E+02  0.51100000000E-03 0. -1.
         22    1    1    0    0    0 -0.15395852245E+02 -0.99400445479E+01  0.15326151774E+02  0.23889907496E+02  0.00000000000E+00 0. -1.
</event>
<event>
 5    1  0.1717518E-003  0.9118800E+02  0.7818608E-02  0.1130116E+00
         25   -1    0    0    0    0  0.00000000000E+00  0.00000000000E+00  0.99999998245E-14  0.12500000000E+03  0.12500000000E+03 0.  0.
        -11    1    3    3    0    0 -0.74267854555E+00  0.14818216479E+02  0.36855156703E+02  0.39729506502E+02  0.51100000000E-03 0.  1.
         23    2    1    0    0    0 -0.27483272231E+02 -0.24678610560E+01 -0.93688278582E+01  0.95859040405E+02  0.91322286991E+02 0.  0.
         11    1    3    3    0    0 -0.26740593685E+02 -0.17286077535E+02 -0.46223984561E+02  0.56129533903E+02  0.51100000000E-03 0. -1.
         22    1    1    0    0    0  0.27483272231E+02  0.24678610560E+01  0.93688278582E+01  0.29140959595E+02  0.00000000000E+00 0. -1.
</event>
<event>
 5    1  0.1717518E-003  0.9118800E+02  0.7818608E-02  0.1130116E+00
         25   -1    0    0    0    0  0.00000000000E+00  0.00000000000E+00  0.99999998245E-14  0.12500000000E+03  0.12500000000E+03 0.  0.
        -11    1    3    3    0    0  0.14825612176E+02 -0.19456464428E+02 -0.79265440279E-01  0.24461379105E+02  0.51100000000E-03 0.  1.
         23    2    1    0    0    0  0.25653190320E+02  0.23551198919E+02 -0.30878998685E+02  0.78456926359E+02  0.63160364073E+02 0.  0.
         11    1    3    3    0    0  0.10827578144E+02  0.43007663347E+02 -0.30799733245E+02  0.53995547254E+02  0.51100000000E-03 0. -1.
         22    1    1    0    0    0 -0.25653190320E+02 -0.23551198919E+02  0.30878998685E+02  0.46543073641E+02  0.00000000000E+00 0. -1.
</event>
<event>
 5    1  0.1717518E-003  0.9118800E+02  0.7818608E-02  0.1130116E+00
         25   -1    0    0    0    0  0.00000000000E+00  0.00000000000E+00  0.99999998245E-14  0.12500000000E+03  0.12500000000E+03 0.  0.
        -11    1    3    3    0    0  0.35571058483E+02 -0.79095115767E+01 -0.20240909246E+02  0.41683989520E+02  0.51100000000E-03 0.  1.
         23    2    1    0    0    0 -0.17107415081E+02 -0.18976411201E+02 -0.13981912917E+02  0.95875067010E+02  0.91344221233E+02 0.  0.
         11    1    3    3    0    0 -0.52678473563E+02 -0.11066899625E+02  0.62589963284E+01  0.54191077490E+02  0.51100000000E-03 0. -1.
         22    1    1    0    0    0  0.17107415081E+02  0.18976411201E+02  0.13981912917E+02  0.29124932990E+02  0.00000000000E+00 0. -1.
</event>
<event>
 5    1  0.1717518E-003  0.9118800E+02  0.7818608E-02  0.1130116E+00
         25   -1    0    0    0    0  0.00000000000E+00  0.00000000000E+00  0.99999998245E-14  0.12500000000E+03  0.12500000000E+03 0.  0.
        -11    1    3    3    0    0 -0.35855484375E+02  0.29860806192E+02  0.99327211268E+00  0.46671941206E+02  0.51100000000E-03 0.  1.
         23    2    1    0    0    0  0.83175920952E+01  0.21248852389E+02 -0.18409405427E+02  0.95681025354E+02  0.91078297847E+02 0.  0.
         11    1    3    3    0    0  0.44173076470E+02 -0.86119538030E+01 -0.19402677539E+02  0.49009084149E+02  0.51100000000E-03 0. -1.
         22    1    1    0    0    0 -0.83175920952E+01 -0.21248852389E+02  0.18409405427E+02  0.29318974646E+02  0.00000000000E+00 0. -1.
</event>
<event>
 5    1  0.1717518E-003  0.9118800E+02  0.7818608E-02  0.1130116E+00
         25   -1    0    0    0    0  0.00000000000E+00  0.00000000000E+00  0.99999998245E-14  0.12500000000E+03  0.12500000000E+03 0.  0.
        -11    1    3    3    0    0 -0.32831695059E+02  0.14065182038E+02 -0.88637377818E+01  0.36801024360E+02  0.51100000000E-03 0.  1.
         23    2    1    0    0    0  0.23610707583E+02  0.15433079474E+02  0.79202602888E+01  0.95701945838E+02  0.91107005546E+02 0.  0.
         11    1    3    3    0    0  0.56442402643E+02  0.13678974360E+01  0.16783998071E+02  0.58900921478E+02  0.51100000000E-03 0. -1.
         22    1    1    0    0    0 -0.23610707583E+02 -0.15433079474E+02 -0.79202602888E+01  0.29298054162E+02  0.00000000000E+00 0. -1.
</event>
<event>
 5    1  0.1717518E-003  0.9118800E+02  0.7818608E-02  0.1130116E+00
         25   -1    0    0    0    0  0.00000000000E+00  0.00000000000E+00  0.99999998245E-14  0.12500000000E+03  0.12500000000E+03 0.  0.
        -11    1    3    3    0    0 -0.43713163700E+02 -0.23572321083E+02  0.23951158299E+02  0.55137582337E+02  0.51100000000E-03 0. -1.
         23    2    1    0    0    0 -0.51275888660E+01 -0.14253370495E+02  0.26026106500E+02  0.94886731204E+02  0.89981569230E+02 0.  0.
         11    1    3    3    0    0  0.38585574834E+02  0.93189505883E+01  0.20749482005E+01  0.39749148867E+02  0.51100000000E-03 0.  1.
         22    1    1    0    0    0  0.51275888660E+01  0.14253370495E+02 -0.26026106500E+02  0.30113268796E+02  0.00000000000E+00 0. -1.
</event>
<event>
 5    1  0.1717518E-003  0.9118800E+02  0.7818608E-02  0.1130116E+00
         25   -1    0    0    0    0  0.00000000000E+00  0.00000000000E+00  0.99999998245E-14  0.12500000000E+03  0.12500000000E+03 0.  0.
        -11    1    3    3    0    0 -0.37475966207E+02  0.35423402336E+02 -0.66043908989E+01  0.51989262888E+02  0.51100000000E-03 0.  1.
         23    2    1    0    0    0 -0.23230973874E+02 -0.41843623415E+01  0.12586422961E+02  0.98249204156E+02  0.94537299724E+02 0.  0.
         11    1    3    3    0    0  0.14244992333E+02 -0.39607764677E+02  0.19190813860E+02  0.46259941268E+02  0.51100000000E-03 0. -1.
         22    1    1    0    0    0  0.23230973874E+02  0.41843623415E+01 -0.12586422961E+02  0.26750795844E+02  0.00000000000E+00 0.  1.
</event>
<event>
 5    1  0.1717518E-003  0.9118800E+02  0.7818608E-02  0.1130116E+00
         25   -1    0    0    0    0  0.00000000000E+00  0.00000000000E+00  0.99999998245E-14  0.12500000000E+03  0.12500000000E+03 0.  0.
        -11    1    3    3    0    0 -0.17961788843E+02  0.97886855326E+01  0.45626118723E+02  0.50001869294E+02  0.51100000000E-03 0.  1.
         23    2    1    0    0    0 -0.23421728484E+02 -0.18010038722E+02  0.14506318903E+02  0.92085380937E+02  0.86002007153E+02 0.  0.
         11    1    3    3    0    0 -0.54599396416E+01 -0.27798724255E+02 -0.31119799821E+02  0.42083511643E+02  0.51100000000E-03 0. -1.
         22    1    1    0    0    0  0.23421728484E+02  0.18010038722E+02 -0.14506318903E+02  0.32914619063E+02  0.00000000000E+00 0. -1.
</event>
<event>
 5    1  0.1717518E-003  0.9118800E+02  0.7818608E-02  0.1130116E+00
         25   -1    0    0    0    0  0.00000000000E+00  0.00000000000E+00  0.99999998245E-14  0.12500000000E+03  0.12500000000E+03 0.  0.
        -11    1    3    3    0    0 -0.53797563804E+02  0.57119181467E+01  0.13289759506E+01  0.54116264261E+02  0.51100000000E-03 0.  1.
         23    2    1    0    0    0 -0.20875149459E+02 -0.19771305513E+02 -0.35325274410E+01  0.96031825451E+02  0.91558486022E+02 0.  0.
         11    1    3    3    0    0  0.32922414345E+02 -0.25483223659E+02 -0.48615033916E+01  0.41915561190E+02  0.51100000000E-03 0. -1.
         22    1    1    0    0    0  0.20875149459E+02  0.19771305513E+02  0.35325274410E+01  0.28968174549E+02  0.00000000000E+00 0. -1.
</event>
<event>
 5    1  0.1717518E-003  0.9118800E+02  0.7818608E-02  0.1130116E+00
         25   -1    0    0    0    0  0.00000000000E+00  0.00000000000E+00  0.99999998245E-14  0.12500000000E+03  0.12500000000E+03 0.  0.
        -11    1    3    3    0    0 -0.40903899730E+02 -0.74973733528E+01 -0.13254057432E+01  0.41606445666E+02  0.51100000000E-03 0. -1.
         23    2    1    0    0    0  0.75700664985E+01 -0.15253614240E+02 -0.23912308350E+02  0.95643958972E+02  0.91027412042E+02 0.  0.
         11    1    3    3    0    0  0.48473966229E+02 -0.77562408876E+01 -0.22586902607E+02  0.54037513306E+02  0.51100000000E-03 0.  1.
         22    1    1    0    0    0 -0.75700664985E+01  0.15253614240E+02  0.23912308350E+02  0.29356041028E+02  0.00000000000E+00 0. -1.
</event>
<event>
 5    1  0.1717518E-003  0.9118800E+02  0.7818608E-02  0.1130116E+00
         25   -1    0    0    0    0  0.00000000000E+00  0.00000000000E+00  0.99999998245E-14  0.12500000000E+03  0.12500000000E+03 0.  0.
        -11    1    3    3    0    0  0.53769783974E+01 -0.22214241247E+02 -0.34405327990E+02  0.41305096601E+02  0.51100000000E-03 0. -1.
         23    2    1    0    0    0 -0.19555648951E+02 -0.25459024840E+02  0.91694581420E+01  0.91613411161E+02  0.85313262686E+02 0.  0.
         11    1    3    3    0    0 -0.24932627349E+02 -0.32447835929E+01  0.43574786132E+02  0.50308314559E+02  0.51100000000E-03 0.  1.
         22    1    1    0    0    0  0.19555648951E+02  0.25459024840E+02 -0.91694581420E+01  0.33386588839E+02  0.00000000000E+00 0.  1.
</event>
<event>
 5    1  0.1717518E-003  0.9118800E+02  0.7818608E-02  0.1130116E+00
         25   -1    0    0    0    0  0.00000000000E+00  0.00000000000E+00  0.99999998245E-14  0.12500000000E+03  0.12500000000E+03 0.  0.
        -11    1    3    3    0    0 -0.56287897532E+02  0.94933009689E+01  0.56445040058E+01  0.57361229045E+02  0.51100000000E-03 0.  1.
         23    2    1    0    0    0 -0.23983254470E+02  0.49049333762E+01 -0.15298548992E+02  0.96133055797E+02  0.91696586355E+02 0.  0.
         11    1    3    3    0    0  0.32304643062E+02 -0.45883675927E+01 -0.20943052998E+02  0.38771826752E+02  0.51100000000E-03 0. -1.
         22    1    1    0    0    0  0.23983254470E+02 -0.49049333762E+01  0.15298548992E+02  0.28866944203E+02  0.00000000000E+00 0.  1.
</event>
<event>
 5    1  0.1717518E-003  0.9118800E+02  0.7818608E-02  0.1130116E+00
         25   -1    0    0    0    0  0.00000000000E+00  0.00000000000E+00  0.99999998245E-14  0.12500000000E+03  0.12500000000E+03 0.  0.
        -11    1    3    3    0    0 -0.17127214954E+01  0.34825666679E+02 -0.22858001441E+02  0.41692309898E+02  0.51100000000E-03 0.  1.
         23    2    1    0    0    0 -0.87123225707E+01  0.12364357377E+02  0.25432849007E+02  0.95409263163E+02  0.90704552205E+02 0.  0.
         11    1    3    3    0    0 -0.69996010752E+01 -0.22461309302E+02  0.48290850448E+02  0.53716953265E+02  0.51100000000E-03 0. -1.
         22    1    1    0    0    0  0.87123225707E+01 -0.12364357377E+02 -0.25432849007E+02  0.29590736837E+02  0.00000000000E+00 0. -1.
</event>
<event>
 5    1  0.1717518E-003  0.9118800E+02  0.7818608E-02  0.1130116E+00
         25   -1    0    0    0    0  0.00000000000E+00  0.00000000000E+00  0.99999998245E-14  0.12500000000E+03  0.12500000000E+03 0.  0.
        -11    1    3    3    0    0 -0.57192279487E+02  0.18208319729E+01  0.23305287071E+02  0.61785181619E+02  0.51100000000E-03 0. -1.
         23    2    1    0    0    0 -0.26001851620E+02 -0.54722455235E+01  0.12885298265E+02  0.95469123445E+02  0.90787008219E+02 0.  0.
         11    1    3    3    0    0  0.31190427868E+02 -0.72930774964E+01 -0.10419988806E+02  0.33683941826E+02  0.51100000000E-03 0.  1.
         22    1    1    0    0    0  0.26001851620E+02  0.54722455235E+01 -0.12885298265E+02  0.29530876555E+02  0.00000000000E+00 0. -1.
</event>
<event>
 5    1  0.1717518E-003  0.9118800E+02  0.7818608E-02  0.1130116E+00
         25   -1    0    0    0    0  0.00000000000E+00  0.00000000000E+00  0.99999998245E-14  0.12500000000E+03  0.12500000000E+03 0.  0.
        -11    1    3    3    0    0  0.35888561275E+02 -0.32648344373E+02  0.22467032898E+02  0.53466538958E+02  0.51100000000E-03 0.  1.
         23    2    1    0    0    0 -0.14947566482E+01 -0.19083137305E+02  0.25229696044E+02  0.93330803779E+02  0.87793513113E+02 0.  0.
         11    1    3    3    0    0 -0.37383317923E+02  0.13565207068E+02  0.27626631457E+01  0.39864264820E+02  0.51100000000E-03 0. -1.
         22    1    1    0    0    0  0.14947566482E+01  0.19083137305E+02 -0.25229696044E+02  0.31669196221E+02  0.00000000000E+00 0.  1.
</event>
<event>
 5    1  0.1717518E-003  0.9118800E+02  0.7818608E-02  0.1130116E+00
         25   -1    0    0    0    0  0.00000000000E+00  0.00000000000E+00  0.99999998245E-14  0.12500000000E+03  0.12500000000E+03 0.  0.
        -11    1    3    3    0    0 -0.37127958309E+02 -0.44227052182E+02 -0.18143826499E+02  0.60528636802E+02  0.51100000000E-03 0.  1.
         23    2    1    0    0    0 -0.25706182912E+02 -0.13651822856E+02 -0.10561191386E+02  0.94036814268E+02  0.88793037829E+02 0.  0.
         11    1    3    3    0    0  0.11421775397E+02  0.30575229326E+02  0.75826351132E+01  0.33508177466E+02  0.51100000000E-03 0. -1.
         22    1    1    0    0    0  0.25706182912E+02  0.13651822856E+02  0.10561191386E+02  0.30963185732E+02  0.00000000000E+00 0.  1.
</event>
<event>
 5    1  0.1717518E-003  0.9118800E+02  0.7818608E-02  0.1130116E+00
         25   -1    0    0    0    0  0.00000000000E+00  0.00000000000E+00  0.99999998245E-14  0.12500000000E+03  0.12500000000E+03 0.  0.
        -11    1    3    3    0    0  0.43894730606E+02  0.40256123013E+02  0.16252703601E+02  0.61736967772E+02  0.51100000000E-03 0. -1.
         23    2    1    0    0    0  0.23811688869E+02  0.13634248608E+02  0.10725737497E+02  0.95539336281E+02  0.90883629276E+02 0.  0.
         11    1    3    3    0    0 -0.20083041737E+02 -0.26621874405E+02 -0.55269661040E+01  0.33802368510E+02  0.51100000000E-03 0.  1.
         22    1    1    0    0    0 -0.23811688869E+02 -0.13634248608E+02 -0.10725737497E+02  0.29460663719E+02  0.00000000000E+00 0. -1.
</event>
<event>
 5    1  0.1717518E-003  0.9118800E+02  0.7818608E-02  0.1130116E+00
         25   -1    0    0    0    0  0.00000000000E+00  0.00000000000E+00  0.99999998245E-14  0.12500000000E+03  0.12500000000E+03 0.  0.
        -11    1    3    3    0    0  0.34247366924E+02 -0.13935261635E+02 -0.15838441106E+02  0.40223499040E+02  0.51100000000E-03 0.  1.
         23    2    1    0    0    0 -0.16845076626E+02 -0.24007586299E+02  0.28105462456E+01  0.95537821251E+02  0.90881545501E+02 0.  0.
         11    1    3    3    0    0 -0.51092443551E+02 -0.10072324664E+02  0.18648987352E+02  0.55314322211E+02  0.51100000000E-03 0. -1.
         22    1    1    0    0    0  0.16845076626E+02  0.24007586299E+02 -0.28105462456E+01  0.29462178749E+02  0.00000000000E+00 0. -1.
</event>
<event>
 5    1  0.1717518E-003  0.9118800E+02  0.7818608E-02  0.1130116E+00
         25   -1    0    0    0    0  0.00000000000E+00  0.00000000000E+00  0.99999998245E-14  0.12500000000E+03  0.12500000000E+03 0.  0.
        -11    1    3    3    0    0 -0.37611303696E+02  0.17241397365E+02  0.40495868845E+02  0.57894657289E+02  0.51100000000E-03 0. -1.
         23    2    1    0    0    0 -0.55798184742E+01  0.26212307706E+01  0.29618346827E+02  0.94746872993E+02  0.89787071720E+02 0.  0.
         11    1    3    3    0    0  0.32031485222E+02 -0.14620166594E+02 -0.10877522018E+02  0.36852215704E+02  0.51100000000E-03 0.  1.
         22    1    1    0    0    0  0.55798184742E+01 -0.26212307706E+01 -0.29618346827E+02  0.30253127007E+02  0.00000000000E+00 0. -1.
</event>
<event>
 5    1  0.1717518E-003  0.9118800E+02  0.7818608E-02  0.1130116E+00
         25   -1    0    0    0    0  0.00000000000E+00  0.00000000000E+00  0.99999998245E-14  0.12500000000E+03  0.12500000000E+03 0.  0.
        -11    1    3    3    0    0 -0.92945225542E+01 -0.41096905079E+01  0.36150508455E+02  0.37551790469E+02  0.51100000000E-03 0.  1.
         23    2    1    0    0    0 -0.20365311487E+02 -0.14202937380E+01 -0.20932601053E+02  0.95760695406E+02  0.91187575094E+02 0.  0.
         11    1    3    3    0    0 -0.11070788933E+02  0.26893967699E+01 -0.57083109508E+02  0.58208904937E+02  0.51100000000E-03 0. -1.
         22    1    1    0    0    0  0.20365311487E+02  0.14202937380E+01  0.20932601053E+02  0.29239304594E+02  0.00000000000E+00 0. -1.
</event>
<event>
 5    1  0.1717518E-003  0.9118800E+02  0.7818608E-02  0.1130116E+00
         25   -1    0    0    0    0  0.00000000000E+00  0.00000000000E+00  0.99999998245E-14  0.12500000000E+03  0.12500000000E+03 0.  0.
        -11    1    3    3    0    0  0.52740918264E+02  0.10599349135E+02 -0.10299063597E+02  0.54772450855E+02  0.51100000000E-03 0. -1.
         23    2    1    0    0    0  0.22679891314E+02 -0.14842409640E+02 -0.14294648347E+02  0.94356704399E+02  0.89242232714E+02 0.  0.
         11    1    3    3    0    0 -0.30061026951E+02 -0.25441758775E+02 -0.39955847500E+01  0.39584253544E+02  0.51100000000E-03 0.  1.
         22    1    1    0    0    0 -0.22679891314E+02  0.14842409640E+02  0.14294648347E+02  0.30643295601E+02  0.00000000000E+00 0. -1.
</event>
<event>
 5    1  0.1717518E-003  0.9118800E+02  0.7818608E-02  0.1130116E+00
         25   -1    0    0    0    0  0.00000000000E+00  0.00000000000E+00  0.99999998245E-14  0.12500000000E+03  0.12500000000E+03 0.  0.
        -11    1    3    3    0    0 -0.92880950250E+01 -0.15429537931E+02  0.49378422301E+02  0.52560136407E+02  0.51100000000E-03 0. -1.
         23    2    1    0    0    0  0.16669917766E+02 -0.18979050397E+02  0.15590409684E+02  0.95315805782E+02  0.90575666961E+02 0.  0.
         11    1    3    3    0    0  0.25958012791E+02 -0.35495124659E+01 -0.33788012617E+02  0.42755669374E+02  0.51100000000E-03 0.  1.
         22    1    1    0    0    0 -0.16669917766E+02  0.18979050397E+02 -0.15590409684E+02  0.29684194218E+02  0.00000000000E+00 0. -1.
</event>
<event>
 5    1  0.1717518E-003  0.9118800E+02  0.7818608E-02  0.1130116E+00
         25   -1    0    0    0    0  0.00000000000E+00  0.00000000000E+00  0.99999998245E-14  0.12500000000E+03  0.12500000000E+03 0.  0.
        -11    1    3    3    0    0  0.58869296748E+02 -0.54159127676E+01 -0.41343747843E+01  0.59262292107E+02  0.51100000000E-03 0.  1.
         23    2    1    0    0    0  0.25421844188E+02 -0.72041691232E+01 -0.15174147277E+02  0.94529933373E+02  0.89484542482E+02 0.  0.
         11    1    3    3    0    0 -0.33447452559E+02 -0.17882563556E+01 -0.11039772492E+02  0.35267641266E+02  0.51100000000E-03 0. -1.
         22    1    1    0    0    0 -0.25421844188E+02  0.72041691232E+01  0.15174147277E+02  0.30470066627E+02  0.00000000000E+00 0.  1.
</event>
<event>
 5    1  0.1717518E-003  0.9118800E+02  0.7818608E-02  0.1130116E+00
         25   -1    0    0    0    0  0.00000000000E+00  0.00000000000E+00  0.99999998245E-14  0.12500000000E+03  0.12500000000E+03 0.  0.
        -11    1    3    3    0    0 -0.24160455669E+02  0.22521875738E+02  0.12967647325E+02  0.35484114506E+02  0.51100000000E-03 0. -1.
         23    2    1    0    0    0  0.43821226624E+01 -0.29119846707E+02  0.21341038699E+01  0.95475046646E+02  0.90795163205E+02 0.  0.
         11    1    3    3    0    0  0.28542578331E+02 -0.51641722445E+02 -0.10833543455E+02  0.59990932139E+02  0.51100000000E-03 0.  1.
         22    1    1    0    0    0 -0.43821226624E+01  0.29119846707E+02 -0.21341038699E+01  0.29524953354E+02  0.00000000000E+00 0.  1.
</event>
<event>
 5    1  0.1717518E-003  0.9118800E+02  0.7818608E-02  0.1130116E+00
         25   -1    0    0    0    0  0.00000000000E+00  0.00000000000E+00  0.99999998245E-14  0.12500000000E+03  0.12500000000E+03 0.  0.
        -11    1    3    3    0    0  0.20619395956E+02 -0.30282322897E+02 -0.94698041477E+01  0.37839869985E+02  0.51100000000E-03 0.  1.
         23    2    1    0    0    0 -0.13538103002E+02  0.13949952779E+02 -0.22541634460E+02  0.95234135330E+02  0.90462886492E+02 0.  0.
         11    1    3    3    0    0 -0.34157498958E+02  0.44232275676E+02 -0.13071830312E+02  0.57394265345E+02  0.51100000000E-03 0. -1.
         22    1    1    0    0    0  0.13538103002E+02 -0.13949952779E+02  0.22541634460E+02  0.29765864670E+02  0.00000000000E+00 0. -1.
</event>
<event>
 5    1  0.1717518E-003  0.9118800E+02  0.7818608E-02  0.1130116E+00
         25   -1    0    0    0    0  0.00000000000E+00  0.00000000000E+00  0.99999998245E-14  0.12500000000E+03  0.12500000000E+03 0.  0.
        -11    1    3    3    0    0  0.25322384266E+02 -0.20422364239E+02  0.15083192201E+02  0.35858036662E+02  0.51100000000E-03 0. -1.
         23    2    1    0    0    0 -0.16597091900E+02  0.21312550739E+02 -0.32639785317E+01  0.97790776667E+02  0.93929197626E+02 0.  0.
         11    1    3    3    0    0 -0.41919476167E+02  0.41734914978E+02 -0.18347170733E+02  0.61932740004E+02  0.51100000000E-03 0.  1.
         22    1    1    0    0    0  0.16597091900E+02 -0.21312550739E+02  0.32639785317E+01  0.27209223333E+02  0.00000000000E+00 0.  1.
</event>
<event>
 5    1  0.1717518E-003  0.9118800E+02  0.7818608E-02  0.1130116E+00
         25   -1    0    0    0    0  0.00000000000E+00  0.00000000000E+00  0.99999998245E-14  0.12500000000E+03  0.12500000000E+03 0.  0.
        -11    1    3    3    0    0 -0.49971222436E+02  0.37443822966E+02  0.12521863419E+01  0.62455831761E+02  0.51100000000E-03 0. -1.
         23    2    1    0    0    0 -0.23670714235E+02  0.17493060129E+02 -0.10572767624E+01  0.95547874453E+02  0.90895371792E+02 0.  0.
         11    1    3    3    0    0  0.26300508201E+02 -0.19950762837E+02 -0.23094631043E+01  0.33092042692E+02  0.51100000000E-03 0.  1.
         22    1    1    0    0    0  0.23670714235E+02 -0.17493060129E+02  0.10572767624E+01  0.29452125547E+02  0.00000000000E+00 0. -1.
</event>
<event>
 5    1  0.1717518E-003  0.9118800E+02  0.7818608E-02  0.1130116E+00
         25   -1    0    0    0    0  0.00000000000E+00  0.00000000000E+00  0.99999998245E-14  0.12500000000E+03  0.12500000000E+03 0.  0.
        -11    1    3    3    0    0  0.29842987377E+02  0.21092521191E+02 -0.24366283647E+02  0.43922820091E+02  0.51100000000E-03 0.  1.
         23    2    1    0    0    0 -0.65963187758E+01 -0.13999792036E+02 -0.26228010518E+02  0.94546525089E+02  0.89507716272E+02 0.  0.
         11    1    3    3    0    0 -0.36439306153E+02 -0.35092313227E+02 -0.18617268713E+01  0.50623704998E+02  0.51100000000E-03 0. -1.
         22    1    1    0    0    0  0.65963187758E+01  0.13999792036E+02  0.26228010518E+02  0.30453474911E+02  0.00000000000E+00 0. -1.
</event>
<event>
 5    1  0.1717518E-003  0.9118800E+02  0.7818608E-02  0.1130116E+00
         25   -1    0    0    0    0  0.00000000000E+00  0.00000000000E+00  0.99999998245E-14  0.12500000000E+03  0.12500000000E+03 0.  0.
        -11    1    3    3    0    0  0.34594978947E+02 -0.33924470218E+02 -0.26216883284E+02  0.55090899586E+02  0.51100000000E-03 0.  1.
         23    2    1    0    0    0  0.21649596277E+02 -0.18862969800E+02 -0.37372771678E+02  0.77869959563E+02  0.61987820504E+02 0.  0.
         11    1    3    3    0    0 -0.12945382670E+02  0.15061500418E+02 -0.11155888395E+02  0.22779059977E+02  0.51100000000E-03 0. -1.
         22    1    1    0    0    0 -0.21649596277E+02  0.18862969800E+02  0.37372771678E+02  0.47130040437E+02  0.00000000000E+00 0.  1.
</event>
<event>
 5    1  0.1717518E-003  0.9118800E+02  0.7818608E-02  0.1130116E+00
         25   -1    0    0    0    0  0.00000000000E+00  0.00000000000E+00  0.99999998245E-14  0.12500000000E+03  0.12500000000E+03 0.  0.
        -11    1    3    3    0    0 -0.74549783364E+01  0.40323260812E+02 -0.65149179724E+00  0.41011784969E+02  0.51100000000E-03 0. -1.
         23    2    1    0    0    0 -0.28257876732E+01 -0.14009049377E+02  0.20929916438E+02  0.99656362880E+02  0.96379929030E+02 0.  0.
         11    1    3    3    0    0  0.46291906632E+01 -0.54332310189E+02  0.21581408235E+02  0.58644577911E+02  0.51100000000E-03 0.  1.
         22    1    1    0    0    0  0.28257876732E+01  0.14009049377E+02 -0.20929916438E+02  0.25343637120E+02  0.00000000000E+00 0.  1.
</event>
<event>
 5    1  0.1717518E-003  0.9118800E+02  0.7818608E-02  0.1130116E+00
         25   -1    0    0    0    0  0.00000000000E+00  0.00000000000E+00  0.99999998245E-14  0.12500000000E+03  0.12500000000E+03 0.  0.
        -11    1    3    3    0    0 -0.14788624199E+02  0.20496768727E+02  0.20800570923E+02  0.32733540672E+02  0.51100000000E-03 0. -1.
         23    2    1    0    0    0  0.21812012040E+02 -0.12540917853E+02 -0.16804859797E+02  0.94743731185E+02  0.89782697644E+02 0.  0.
         11    1    3    3    0    0  0.36600636239E+02 -0.33037686579E+02 -0.37605430720E+02  0.62010190513E+02  0.51100000000E-03 0.  1.
         22    1    1    0    0    0 -0.21812012040E+02  0.12540917853E+02  0.16804859797E+02  0.30256268815E+02  0.00000000000E+00 0.  1.
</event>
<event>
 5    1  0.1717518E-003  0.9118800E+02  0.7818608E-02  0.1130116E+00
         25   -1    0    0    0    0  0.00000000000E+00  0.00000000000E+00  0.99999998245E-14  0.12500000000E+03  0.12500000000E+03 0.  0.
        -11    1    3    3    0    0 -0.23292450571E+02  0.24889983065E+02 -0.31043364678E+02  0.46105748030E+02  0.51100000000E-03 0. -1.
         23    2    1    0    0    0 -0.27046799341E+02  0.42103685234E+01  0.12842205497E+02  0.94764610144E+02  0.89811761679E+02 0.  0.
         11    1    3    3    0    0 -0.37543487701E+01 -0.20679614542E+02  0.43885570176E+02  0.48658862114E+02  0.51100000000E-03 0.  1.
         22    1    1    0    0    0  0.27046799341E+02 -0.42103685234E+01 -0.12842205497E+02  0.30235389856E+02  0.00000000000E+00 0.  1.
</event>
<event>
 5    1  0.1717518E-003  0.9118800E+02  0.7818608E-02  0.1130116E+00
         25   -1    0    0    0    0  0.00000000000E+00  0.00000000000E+00  0.99999998245E-14  0.12500000000E+03  0.12500000000E+03 0.  0.
        -11    1    3    3    0    0  0.27583917221E+02 -0.15989888216E+02  0.70429551207E+01  0.32651986639E+02  0.51100000000E-03 0. -1.
         23    2    1    0    0    0 -0.28566477054E+02  0.86032683324E+01  0.85320903156E+01  0.93970072471E+02  0.88699031099E+02 0.  0.
         11    1    3    3    0    0 -0.56150394275E+02  0.24593156548E+02  0.14891351949E+01  0.61318085832E+02  0.51100000000E-03 0.  1.
         22    1    1    0    0    0  0.28566477054E+02 -0.86032683324E+01 -0.85320903156E+01  0.31029927529E+02  0.00000000000E+00 0.  1.
</event>
<event>
 5    1  0.1717518E-003  0.9118800E+02  0.7818608E-02  0.1130116E+00
         25   -1    0    0    0    0  0.00000000000E+00  0.00000000000E+00  0.99999998245E-14  0.12500000000E+03  0.12500000000E+03 0.  0.
        -11    1    3    3    0    0 -0.22885167045E+02 -0.29726810750E+02 -0.27024176279E+02  0.46235486932E+02  0.51100000000E-03 0.  1.
         23    2    1    0    0    0 -0.18588819591E+02  0.18003415376E+02 -0.12132918790E+02  0.96418976621E+02  0.92085526308E+02 0.  0.
         11    1    3    3    0    0  0.42963474542E+01  0.47730226126E+02  0.14891257488E+02  0.50183489689E+02  0.51100000000E-03 0. -1.
         22    1    1    0    0    0  0.18588819591E+02 -0.18003415376E+02  0.12132918790E+02  0.28581023379E+02  0.00000000000E+00 0. -1.
</event>
<event>
 5    1  0.1717518E-003  0.9118800E+02  0.7818608E-02  0.1130116E+00
         25   -1    0    0    0    0  0.00000000000E+00  0.00000000000E+00  0.99999998245E-14  0.12500000000E+03  0.12500000000E+03 0.  0.
        -11    1    3    3    0    0 -0.32327972106E+02  0.14802160757E+02 -0.50660765582E+01  0.35914716699E+02  0.51100000000E-03 0.  1.
         23    2    1    0    0    0  0.15117094923E+02 -0.13465573322E+01  0.26010370479E+02  0.94885565786E+02  0.89979950247E+02 0.  0.
         11    1    3    3    0    0  0.47445067029E+02 -0.16148718089E+02  0.31076447037E+02  0.58970849087E+02  0.51100000000E-03 0. -1.
         22    1    1    0    0    0 -0.15117094923E+02  0.13465573322E+01 -0.26010370479E+02  0.30114434214E+02  0.00000000000E+00 0.  1.
</event>
<event>
 5    1  0.1717518E-003  0.9118800E+02  0.7818608E-02  0.1130116E+00
         25   -1    0    0    0    0  0.00000000000E+00  0.00000000000E+00  0.99999998245E-14  0.12500000000E+03  0.12500000000E+03 0.  0.
        -11    1    3    3    0    0  0.22275864778E+02  0.57463502965E+01  0.26192874222E+02  0.34861172580E+02  0.51100000000E-03 0. -1.
         23    2    1    0    0    0 -0.89368093551E+01 -0.15633218845E+02 -0.22281468313E+02  0.96351650604E+02  0.91994090305E+02 0.  0.
         11    1    3    3    0    0 -0.31212674133E+02 -0.21379569141E+02 -0.48474342536E+02  0.61490478025E+02  0.51100000000E-03 0.  1.
         22    1    1    0    0    0  0.89368093551E+01  0.15633218845E+02  0.22281468313E+02  0.28648349396E+02  0.00000000000E+00 0.  1.
</event>
<event>
 5    1  0.1717518E-003  0.9118800E+02  0.7818608E-02  0.1130116E+00
         25   -1    0    0    0    0  0.00000000000E+00  0.00000000000E+00  0.99999998245E-14  0.12500000000E+03  0.12500000000E+03 0.  0.
        -11    1    3    3    0    0 -0.32737495452E+02 -0.24690406014E+02  0.20978599455E+02  0.46059324712E+02  0.51100000000E-03 0. -1.
         23    2    1    0    0    0  0.15253763411E+01  0.16231209419E+02  0.19677140022E+02  0.99446746359E+02  0.96107682262E+02 0.  0.
         11    1    3    3    0    0  0.34262871793E+02  0.40921615433E+02 -0.13014594329E+01  0.53387421647E+02  0.51100000000E-03 0.  1.
         22    1    1    0    0    0 -0.15253763411E+01 -0.16231209419E+02 -0.19677140022E+02  0.25553253641E+02  0.00000000000E+00 0.  1.
</event>
<event>
 5    1  0.1717518E-003  0.9118800E+02  0.7818608E-02  0.1130116E+00
         25   -1    0    0    0    0  0.00000000000E+00  0.00000000000E+00  0.99999998245E-14  0.12500000000E+03  0.12500000000E+03 0.  0.
        -11    1    3    3    0    0 -0.10553556778E+02  0.53051645201E+02  0.18946944881E+02  0.57313535397E+02  0.51100000000E-03 0.  1.
         23    2    1    0    0    0 -0.15931897302E+01  0.26883480051E+02 -0.89721202356E+01  0.96614110994E+02  0.92350028416E+02 0.  0.
         11    1    3    3    0    0  0.89603670483E+01 -0.26168165150E+02 -0.27919065117E+02  0.39300575596E+02  0.51100000000E-03 0. -1.
         22    1    1    0    0    0  0.15931897302E+01 -0.26883480051E+02  0.89721202356E+01  0.28385889006E+02  0.00000000000E+00 0.  1.
</event>
<event>
 5    1  0.1717518E-003  0.9118800E+02  0.7818608E-02  0.1130116E+00
         25   -1    0    0    0    0  0.00000000000E+00  0.00000000000E+00  0.99999998245E-14  0.12500000000E+03  0.12500000000E+03 0.  0.
        -11    1    3    3    0    0 -0.45658110465E+02 -0.11411606715E+02 -0.13211519662E+02  0.48881817388E+02  0.51100000000E-03 0.  1.
         23    2    1    0    0    0 -0.29282611859E+01  0.21147984275E+01 -0.28526399973E+02  0.96245824975E+02  0.91850183689E+02 0.  0.
         11    1    3    3    0    0  0.42729849279E+02  0.13526405142E+02 -0.15314880311E+02  0.47364007587E+02  0.51100000000E-03 0. -1.
         22    1    1    0    0    0  0.29282611859E+01 -0.21147984275E+01  0.28526399973E+02  0.28754175025E+02  0.00000000000E+00 0. -1.
</event>
<event>
 5    1  0.1717518E-003  0.9118800E+02  0.7818608E-02  0.1130116E+00
         25   -1    0    0    0    0  0.00000000000E+00  0.00000000000E+00  0.99999998245E-14  0.12500000000E+03  0.12500000000E+03 0.  0.
        -11    1    3    3    0    0  0.19283771600E+02  0.46568713597E+01 -0.53176454461E+02  0.56756370632E+02  0.51100000000E-03 0.  1.
         23    2    1    0    0    0 -0.35446753665E+00  0.18635115644E+02 -0.24431002516E+02  0.94271071183E+02  0.89122207085E+02 0.  0.
         11    1    3    3    0    0 -0.19638239136E+02  0.13978244285E+02  0.28745451945E+02  0.37514700551E+02  0.51100000000E-03 0. -1.
         22    1    1    0    0    0  0.35446753665E+00 -0.18635115644E+02  0.24431002516E+02  0.30728928817E+02  0.00000000000E+00 0.  1.
</event>
<event>
 5    1  0.1717518E-003  0.9118800E+02  0.7818608E-02  0.1130116E+00
         25   -1    0    0    0    0  0.00000000000E+00  0.00000000000E+00  0.99999998245E-14  0.12500000000E+03  0.12500000000E+03 0.  0.
        -11    1    3    3    0    0  0.38775987811E+02  0.27483011337E+01  0.13327288991E+02  0.41094367277E+02  0.51100000000E-03 0. -1.
         23    2    1    0    0    0 -0.13295936884E+02  0.15886084760E+02  0.21184817130E+02  0.95369844693E+02  0.90650213311E+02 0.  0.
         11    1    3    3    0    0 -0.52071924695E+02  0.13137783627E+02  0.78575281397E+01  0.54275477416E+02  0.51100000000E-03 0.  1.
         22    1    1    0    0    0  0.13295936884E+02 -0.15886084760E+02 -0.21184817130E+02  0.29630155307E+02  0.00000000000E+00 0.  1.
</event>
<event>
 5    1  0.1717518E-003  0.9118800E+02  0.7818608E-02  0.1130116E+00
         25   -1    0    0    0    0  0.00000000000E+00  0.00000000000E+00  0.99999998245E-14  0.12500000000E+03  0.12500000000E+03 0.  0.
        -11    1    3    3    0    0  0.37093672991E+02  0.30645045993E+02  0.39233055463E+02  0.62082945010E+02  0.51100000000E-03 0. -1.
         23    2    1    0    0    0  0.18044793593E+02  0.19067118428E+02  0.16121319147E+02  0.94193076881E+02  0.89012747516E+02 0.  0.
         11    1    3    3    0    0 -0.19048879398E+02 -0.11577927565E+02 -0.23111736316E+02  0.32110131871E+02  0.51100000000E-03 0.  1.
         22    1    1    0    0    0 -0.18044793593E+02 -0.19067118428E+02 -0.16121319147E+02  0.30806923119E+02  0.00000000000E+00 0. -1.
</event>
<event>
 5    1  0.1717518E-003  0.9118800E+02  0.7818608E-02  0.1130116E+00
         25   -1    0    0    0    0  0.00000000000E+00  0.00000000000E+00  0.99999998245E-14  0.12500000000E+03  0.12500000000E+03 0.  0.
        -11    1    3    3    0    0 -0.45487729548E+02  0.11771581319E+02 -0.41060259897E+02  0.62399107439E+02  0.51100000000E-03 0. -1.
         23    2    1    0    0    0 -0.22615351506E+02  0.64932588636E+01 -0.17330527085E+02  0.95777342635E+02  0.91210392274E+02 0.  0.
         11    1    3    3    0    0  0.22872378042E+02 -0.52783224558E+01  0.23729732812E+02  0.33378235196E+02  0.51100000000E-03 0.  1.
         22    1    1    0    0    0  0.22615351506E+02 -0.64932588636E+01  0.17330527085E+02  0.29222657365E+02  0.00000000000E+00 0. -1.
</event>
<event>
 5    1  0.1717518E-003  0.9118800E+02  0.7818608E-02  0.1130116E+00
         25   -1    0    0    0    0  0.00000000000E+00  0.00000000000E+00  0.99999998245E-14  0.12500000000E+03  0.12500000000E+03 0.  0.
        -11    1    3    3    0    0 -0.21299604399E+02 -0.23925515520E+02 -0.14487998136E+02  0.35156870320E+02  0.51100000000E-03 0.  1.
         23    2    1    0    0    0  0.26904011030E+02  0.10657784314E+02 -0.75361371182E+00  0.96052079356E+02  0.91586133443E+02 0.  0.
         11    1    3    3    0    0  0.48203615429E+02  0.34583299833E+02  0.13734384424E+02  0.60895209036E+02  0.51100000000E-03 0. -1.
         22    1    1    0    0    0 -0.26904011030E+02 -0.10657784314E+02  0.75361371182E+00  0.28947920644E+02  0.00000000000E+00 0. -1.
</event>
<event>
 5    1  0.1717518E-003  0.9118800E+02  0.7818608E-02  0.1130116E+00
         25   -1    0    0    0    0  0.00000000000E+00  0.00000000000E+00  0.99999998245E-14  0.12500000000E+03  0.12500000000E+03 0.  0.
        -11    1    3    3    0    0  0.11049541718E+02  0.88423000180E+01 -0.41378987744E+02  0.43732130850E+02  0.51100000000E-03 0. -1.
         23    2    1    0    0    0 -0.27683424724E+02 -0.45941813555E+01 -0.10578616133E+02  0.95010241314E+02  0.90152982915E+02 0.  0.
         11    1    3    3    0    0 -0.38732966442E+02 -0.13436481373E+02  0.30800371610E+02  0.51278110463E+02  0.51100000000E-03 0.  1.
         22    1    1    0    0    0  0.27683424724E+02  0.45941813555E+01  0.10578616133E+02  0.29989758686E+02  0.00000000000E+00 0. -1.
</event>
<event>
 5    1  0.1717518E-003  0.9118800E+02  0.7818608E-02  0.1130116E+00
         25   -1    0    0    0    0  0.00000000000E+00  0.00000000000E+00  0.99999998245E-14  0.12500000000E+03  0.12500000000E+03 0.  0.
        -11    1    3    3    0    0 -0.82432481986E+01 -0.37855548895E+02 -0.15124690854E+02  0.41590263244E+02  0.51100000000E-03 0.  1.
         23    2    1    0    0    0 -0.21436349498E+02  0.32374435749E+01  0.18656851183E+02  0.96397968311E+02  0.92057004501E+02 0.  0.
         11    1    3    3    0    0 -0.13193101299E+02  0.41092992470E+02  0.33781542037E+02  0.54807705067E+02  0.51100000000E-03 0. -1.
         22    1    1    0    0    0  0.21436349498E+02 -0.32374435749E+01 -0.18656851183E+02  0.28602031689E+02  0.00000000000E+00 0. -1.
</event>
<event>
 5    1  0.1717518E-003  0.9118800E+02  0.7818608E-02  0.1130116E+00
         25   -1    0    0    0    0  0.00000000000E+00  0.00000000000E+00  0.99999998245E-14  0.12500000000E+03  0.12500000000E+03 0.  0.
        -11    1    3    3    0    0  0.13139885362E+02 -0.10912319004E+02 -0.28558042171E+02  0.33276073481E+02  0.51100000000E-03 0.  1.
         23    2    1    0    0    0 -0.22027332018E+02  0.41710533630E+00  0.20645412010E+02  0.94807113922E+02  0.89870898963E+02 0.  0.
         11    1    3    3    0    0 -0.35167217380E+02  0.11329424341E+02  0.49203454181E+02  0.61531040441E+02  0.51100000000E-03 0. -1.
         22    1    1    0    0    0  0.22027332018E+02 -0.41710533630E+00 -0.20645412010E+02  0.30192886078E+02  0.00000000000E+00 0. -1.
</event>
<event>
 5    1  0.1717518E-003  0.9118800E+02  0.7818608E-02  0.1130116E+00
         25   -1    0    0    0    0  0.00000000000E+00  0.00000000000E+00  0.99999998245E-14  0.12500000000E+03  0.12500000000E+03 0.  0.
        -11    1    3    3    0    0 -0.98801118888E+01 -0.79359812173E+01  0.30303147567E+02  0.32846265564E+02  0.51100000000E-03 0.  1.
         23    2    1    0    0    0  0.17034940384E+02 -0.19400115183E+01 -0.25024991427E+02  0.94665151483E+02  0.89673228284E+02 0.  0.
         11    1    3    3    0    0  0.26915052273E+02  0.59959696990E+01 -0.55328138994E+02  0.61818885919E+02  0.51100000000E-03 0. -1.
         22    1    1    0    0    0 -0.17034940384E+02  0.19400115183E+01  0.25024991427E+02  0.30334848517E+02  0.00000000000E+00 0. -1.
</event>
<event>
 5    1  0.1717518E-003  0.9118800E+02  0.7818608E-02  0.1130116E+00
         25   -1    0    0    0    0  0.00000000000E+00  0.00000000000E+00  0.99999998245E-14  0.12500000000E+03  0.12500000000E+03 0.  0.
        -11    1    3    3    0    0  0.62801290048E+01 -0.97175603704E+01  0.54284177209E+02  0.55503539486E+02  0.51100000000E-03 0. -1.
         23    2    1    0    0    0  0.12637155498E+02  0.13957474919E+02  0.21915116659E+02  0.96107420617E+02  0.91661634037E+02 0.  0.
         11    1    3    3    0    0  0.63570264935E+01  0.23675035289E+02 -0.32369060550E+02  0.40603881132E+02  0.51100000000E-03 0.  1.
         22    1    1    0    0    0 -0.12637155498E+02 -0.13957474919E+02 -0.21915116659E+02  0.28892579383E+02  0.00000000000E+00 0. -1.
</event>
<event>
 5    1  0.1717518E-003  0.9118800E+02  0.7818608E-02  0.1130116E+00
         25   -1    0    0    0    0  0.00000000000E+00  0.00000000000E+00  0.99999998245E-14  0.12500000000E+03  0.12500000000E+03 0.  0.
        -11    1    3    3    0    0 -0.38115090231E+01  0.14945914043E+02 -0.38112865384E+02  0.41115671656E+02  0.51100000000E-03 0.  1.
         23    2    1    0    0    0  0.46542483045E+01 -0.23974542615E+02  0.52760301946E+01  0.10001445987E+03  0.96843249471E+02 0.  0.
         11    1    3    3    0    0  0.84657573276E+01 -0.38920456658E+02  0.43388895579E+02  0.58898788217E+02  0.51100000000E-03 0. -1.
         22    1    1    0    0    0 -0.46542483045E+01  0.23974542615E+02 -0.52760301946E+01  0.24985540128E+02  0.00000000000E+00 0. -1.
</event>
<event>
 5    1  0.1717518E-003  0.9118800E+02  0.7818608E-02  0.1130116E+00
         25   -1    0    0    0    0  0.00000000000E+00  0.00000000000E+00  0.99999998245E-14  0.12500000000E+03  0.12500000000E+03 0.  0.
        -11    1    3    3    0    0 -0.54399783900E+02 -0.27846922736E+02  0.98509530448E+01  0.61901767910E+02  0.51100000000E-03 0.  1.
         23    2    1    0    0    0 -0.21151781424E+02 -0.17646381917E+02  0.45065120314E+01  0.97087613810E+02  0.92988727556E+02 0.  0.
         11    1    3    3    0    0  0.33248002476E+02  0.10200540819E+02 -0.53444410134E+01  0.35185845900E+02  0.51100000000E-03 0. -1.
         22    1    1    0    0    0  0.21151781424E+02  0.17646381917E+02 -0.45065120314E+01  0.27912386190E+02  0.00000000000E+00 0.  1.
</event>
<event>
 5    1  0.1717518E-003  0.9118800E+02  0.7818608E-02  0.1130116E+00
         25   -1    0    0    0    0  0.00000000000E+00  0.00000000000E+00  0.99999998245E-14  0.12500000000E+03  0.12500000000E+03 0.  0.
        -11    1    3    3    0    0 -0.30780060790E+02 -0.16451819915E+02 -0.10147354359E+02  0.36346159653E+02  0.51100000000E-03 0. -1.
         23    2    1    0    0    0  0.82683875219E+01  0.27797508781E+02 -0.48169381595E+01  0.95601520109E+02  0.90969115788E+02 0.  0.
         11    1    3    3    0    0  0.39048448312E+02  0.44249328697E+02  0.53304161995E+01  0.59255360456E+02  0.51100000000E-03 0.  1.
         22    1    1    0    0    0 -0.82683875219E+01 -0.27797508781E+02  0.48169381595E+01  0.29398479891E+02  0.00000000000E+00 0.  1.
</event>
<event>
 5    1  0.1717518E-003  0.9118800E+02  0.7818608E-02  0.1130116E+00
         25   -1    0    0    0    0  0.00000000000E+00  0.00000000000E+00  0.99999998245E-14  0.12500000000E+03  0.12500000000E+03 0.  0.
        -11    1    3    3    0    0  0.43305396809E+02  0.33806380785E+02 -0.30012857596E+01  0.55020327980E+02  0.51100000000E-03 0.  1.
         23    2    1    0    0    0  0.29779146150E+02 -0.27616696701E+01 -0.72097500228E+01  0.94236306136E+02  0.89073433379E+02 0.  0.
         11    1    3    3    0    0 -0.13526250659E+02 -0.36568050456E+02 -0.42084642632E+01  0.39215978156E+02  0.51100000000E-03 0. -1.
         22    1    1    0    0    0 -0.29779146150E+02  0.27616696701E+01  0.72097500228E+01  0.30763693864E+02  0.00000000000E+00 0. -1.
</event>
<event>
 5    1  0.1717518E-003  0.9118800E+02  0.7818608E-02  0.1130116E+00
         25   -1    0    0    0    0  0.00000000000E+00  0.00000000000E+00  0.99999998245E-14  0.12500000000E+03  0.12500000000E+03 0.  0.
        -11    1    3    3    0    0 -0.16887861818E+02  0.48474808628E+02 -0.24572469262E+02  0.56910571902E+02  0.51100000000E-03 0. -1.
         23    2    1    0    0    0 -0.24006622815E+02  0.12969722182E+02 -0.10227361932E+02  0.95860155035E+02  0.91323812660E+02 0.  0.
         11    1    3    3    0    0 -0.71187609976E+01 -0.35505086446E+02  0.14345107330E+02  0.38949583133E+02  0.51100000000E-03 0.  1.
         22    1    1    0    0    0  0.24006622815E+02 -0.12969722182E+02  0.10227361932E+02  0.29139844965E+02  0.00000000000E+00 0. -1.
</event>
<event>
 5    1  0.1717518E-003  0.9118800E+02  0.7818608E-02  0.1130116E+00
         25   -1    0    0    0    0  0.00000000000E+00  0.00000000000E+00  0.99999998245E-14  0.12500000000E+03  0.12500000000E+03 0.  0.
        -11    1    3    3    0    0 -0.33055337974E+02  0.15849889957E+02 -0.64982909549E+01  0.37230393038E+02  0.51100000000E-03 0. -1.
         23    2    1    0    0    0  0.16233347136E+02 -0.44446376390E+01  0.21704025548E+02  0.97534729421E+02  0.93587832304E+02 0.  0.
         11    1    3    3    0    0  0.49288685110E+02 -0.20294527596E+02  0.28202316503E+02  0.60304336383E+02  0.51100000000E-03 0.  1.
         22    1    1    0    0    0 -0.16233347136E+02  0.44446376390E+01 -0.21704025548E+02  0.27465270579E+02  0.00000000000E+00 0.  1.
</event>
<event>
 5    1  0.1717518E-003  0.9118800E+02  0.7818608E-02  0.1130116E+00
         25   -1    0    0    0    0  0.00000000000E+00  0.00000000000E+00  0.99999998245E-14  0.12500000000E+03  0.12500000000E+03 0.  0.
        -11    1    3    3    0    0  0.33602132532E+01 -0.32751739709E+02 -0.10537280686E+02  0.34568797659E+02  0.51100000000E-03 0.  1.
         23    2    1    0    0    0 -0.31637633324E+01  0.28162717792E+02 -0.44980007015E+00  0.96656563511E+02  0.92407471981E+02 0.  0.
         11    1    3    3    0    0 -0.65239765856E+01  0.60914457501E+02  0.10087480616E+02  0.62087765853E+02  0.51100000000E-03 0. -1.
         22    1    1    0    0    0  0.31637633324E+01 -0.28162717792E+02  0.44980007015E+00  0.28343436489E+02  0.00000000000E+00 0. -1.
</event>
<event>
 5    1  0.1717518E-003  0.9118800E+02  0.7818608E-02  0.1130116E+00
         25   -1    0    0    0    0  0.00000000000E+00  0.00000000000E+00  0.99999998245E-14  0.12500000000E+03  0.12500000000E+03 0.  0.
        -11    1    3    3    0    0 -0.72591999485E+01  0.12575070491E+02  0.99034314537E+01  0.17575731466E+02  0.51100000000E-03 0. -1.
         23    2    1    0    0    0 -0.56770697320E+01 -0.14072172349E+02 -0.44396231121E+02  0.78082194285E+02  0.62414329856E+02 0.  0.
         11    1    3    3    0    0  0.15821302165E+01 -0.26647242840E+02 -0.54299662574E+02  0.60506462820E+02  0.51100000000E-03 0.  1.
         22    1    1    0    0    0  0.56770697320E+01  0.14072172349E+02  0.44396231121E+02  0.46917805715E+02  0.00000000000E+00 0.  1.
</event>
<event>
 5    1  0.1717518E-003  0.9118800E+02  0.7818608E-02  0.1130116E+00
         25   -1    0    0    0    0  0.00000000000E+00  0.00000000000E+00  0.99999998245E-14  0.12500000000E+03  0.12500000000E+03 0.  0.
        -11    1    3    3    0    0  0.16182270925E+02 -0.25917052375E+02  0.45858304343E+02  0.55104841653E+02  0.51100000000E-03 0. -1.
         23    2    1    0    0    0  0.19174396816E+00  0.69240156518E+01  0.28726877582E+02  0.95449834956E+02  0.90760446997E+02 0.  0.
         11    1    3    3    0    0 -0.15990526957E+02  0.32841068027E+02 -0.17131426761E+02  0.40344993303E+02  0.51100000000E-03 0.  1.
         22    1    1    0    0    0 -0.19174396816E+00 -0.69240156518E+01 -0.28726877582E+02  0.29550165044E+02  0.00000000000E+00 0. -1.
</event>
<event>
 5    1  0.1717518E-003  0.9118800E+02  0.7818608E-02  0.1130116E+00
         25   -1    0    0    0    0  0.00000000000E+00  0.00000000000E+00  0.99999998245E-14  0.12500000000E+03  0.12500000000E+03 0.  0.
        -11    1    3    3    0    0  0.30661729032E+02  0.43411764509E+02  0.88132227961E+01  0.53873888122E+02  0.51100000000E-03 0.  1.
         23    2    1    0    0    0  0.28064647945E+02  0.20545562959E+01  0.94452277204E+01  0.95317378948E+02  0.90577838001E+02 0.  0.
         11    1    3    3    0    0 -0.25970810873E+01 -0.41357208213E+02  0.63200492431E+00  0.41443490826E+02  0.51100000000E-03 0. -1.
         22    1    1    0    0    0 -0.28064647945E+02 -0.20545562959E+01 -0.94452277204E+01  0.29682621052E+02  0.00000000000E+00 0.  1.
</event>
<event>
 5    1  0.1717518E-003  0.9118800E+02  0.7818608E-02  0.1130116E+00
         25   -1    0    0    0    0  0.00000000000E+00  0.00000000000E+00  0.99999998245E-14  0.12500000000E+03  0.12500000000E+03 0.  0.
        -11    1    3    3    0    0 -0.58645669581E+02 -0.14183050121E+02  0.23145119636E+01  0.60380712460E+02  0.51100000000E-03 0. -1.
         23    2    1    0    0    0 -0.24286594259E+02 -0.12742691476E+02  0.10331480703E+02  0.95692077175E+02  0.91093464606E+02 0.  0.
         11    1    3    3    0    0  0.34359075322E+02  0.14403586448E+01  0.80169687399E+01  0.35311364715E+02  0.51100000000E-03 0.  1.
         22    1    1    0    0    0  0.24286594259E+02  0.12742691476E+02 -0.10331480703E+02  0.29307922825E+02  0.00000000000E+00 0. -1.
</event>
<event>
 5    1  0.1717518E-003  0.9118800E+02  0.7818608E-02  0.1130116E+00
         25   -1    0    0    0    0  0.00000000000E+00  0.00000000000E+00  0.99999998245E-14  0.12500000000E+03  0.12500000000E+03 0.  0.
        -11    1    3    3    0    0  0.47716466044E+01 -0.95435267353E+01 -0.37075744616E+02  0.38580543710E+02  0.51100000000E-03 0. -1.
         23    2    1    0    0    0 -0.31108898042E+02  0.12285869260E+01  0.33396749271E+01  0.93688238762E+02  0.88300960869E+02 0.  0.
         11    1    3    3    0    0 -0.35880544647E+02  0.10772113661E+02  0.40415419543E+02  0.55107695052E+02  0.51100000000E-03 0.  1.
         22    1    1    0    0    0  0.31108898042E+02 -0.12285869260E+01 -0.33396749271E+01  0.31311761238E+02  0.00000000000E+00 0.  1.
</event>
<event>
 5    1  0.1717518E-003  0.9118800E+02  0.7818608E-02  0.1130116E+00
         25   -1    0    0    0    0  0.00000000000E+00  0.00000000000E+00  0.99999998245E-14  0.12500000000E+03  0.12500000000E+03 0.  0.
        -11    1    3    3    0    0  0.29718621857E+02 -0.43063020046E+02  0.16836649397E+02  0.54964469831E+02  0.51100000000E-03 0. -1.
         23    2    1    0    0    0 -0.69827622701E+01 -0.24360055625E+02  0.13489040831E+02  0.96292413868E+02  0.91913565196E+02 0.  0.
         11    1    3    3    0    0 -0.36701384127E+02  0.18702964421E+02 -0.33476085656E+01  0.41327944037E+02  0.51100000000E-03 0.  1.
         22    1    1    0    0    0  0.69827622701E+01  0.24360055625E+02 -0.13489040831E+02  0.28707586132E+02  0.00000000000E+00 0. -1.
</event>
<event>
 5    1  0.1717518E-003  0.9118800E+02  0.7818608E-02  0.1130116E+00
         25   -1    0    0    0    0  0.00000000000E+00  0.00000000000E+00  0.99999998245E-14  0.12500000000E+03  0.12500000000E+03 0.  0.
        -11    1    3    3    0    0  0.35953299812E+02 -0.24370530266E+02  0.14747175914E+02  0.45869834429E+02  0.51100000000E-03 0. -1.
         23    2    1    0    0    0 -0.22551701452E+01  0.20248415141E+01  0.30074550158E+02  0.94773118872E+02  0.89823603345E+02 0.  0.
         11    1    3    3    0    0 -0.38208469957E+02  0.26395371780E+02  0.15327374244E+02  0.48903284443E+02  0.51100000000E-03 0.  1.
         22    1    1    0    0    0  0.22551701452E+01 -0.20248415141E+01 -0.30074550158E+02  0.30226881128E+02  0.00000000000E+00 0.  1.
</event>
<event>
 5    1  0.1717518E-003  0.9118800E+02  0.7818608E-02  0.1130116E+00
         25   -1    0    0    0    0  0.00000000000E+00  0.00000000000E+00  0.99999998245E-14  0.12500000000E+03  0.12500000000E+03 0.  0.
        -11    1    3    3    0    0 -0.20525785899E+02 -0.49792620147E+02 -0.28278904975E+02  0.60830168294E+02  0.51100000000E-03 0.  1.
         23    2    1    0    0    0 -0.33748236781E+00 -0.27412899414E+02 -0.12166794503E+02  0.95006470079E+02  0.90147753825E+02 0.  0.
         11    1    3    3    0    0  0.20188303532E+02  0.22379720733E+02  0.16112110472E+02  0.34176301785E+02  0.51100000000E-03 0. -1.
         22    1    1    0    0    0  0.33748236781E+00  0.27412899414E+02  0.12166794503E+02  0.29993529921E+02  0.00000000000E+00 0.  1.
</event>
<event>
 5    1  0.1717518E-003  0.9118800E+02  0.7818608E-02  0.1130116E+00
         25   -1    0    0    0    0  0.00000000000E+00  0.00000000000E+00  0.99999998245E-14  0.12500000000E+03  0.12500000000E+03 0.  0.
        -11    1    3    3    0    0 -0.25751602068E+02 -0.23562557048E+02  0.13391807791E+02  0.37385553626E+02  0.51100000000E-03 0.  1.
         23    2    1    0    0    0  0.14387975942E+02  0.19938753477E+02  0.14247282814E+02  0.96582526335E+02  0.92307267232E+02 0.  0.
         11    1    3    3    0    0  0.40139578010E+02  0.43501310525E+02  0.85547502316E+00  0.59196972710E+02  0.51100000000E-03 0. -1.
         22    1    1    0    0    0 -0.14387975942E+02 -0.19938753477E+02 -0.14247282814E+02  0.28417473665E+02  0.00000000000E+00 0. -1.
</event>
<event>
 5    1  0.1717518E-003  0.9118800E+02  0.7818608E-02  0.1130116E+00
         25   -1    0    0    0    0  0.00000000000E+00  0.00000000000E+00  0.99999998245E-14  0.12500000000E+03  0.12500000000E+03 0.  0.
        -11    1    3    3    0    0 -0.67968532032E+01 -0.16205448748E+02 -0.52255973159E+02  0.55131665254E+02  0.51100000000E-03 0. -1.
         23    2    1    0    0    0 -0.13879584527E+02  0.11239815321E+02 -0.23183429160E+02  0.95734872242E+02  0.91152169807E+02 0.  0.
         11    1    3    3    0    0 -0.70827313241E+01  0.27445264069E+02  0.29072543999E+02  0.40603206988E+02  0.51100000000E-03 0.  1.
         22    1    1    0    0    0  0.13879584527E+02 -0.11239815321E+02  0.23183429160E+02  0.29265127758E+02  0.00000000000E+00 0. -1.
</event>
<event>
 5    1  0.1717518E-003  0.9118800E+02  0.7818608E-02  0.1130116E+00
         25   -1    0    0    0    0  0.00000000000E+00  0.00000000000E+00  0.99999998245E-14  0.12500000000E+03  0.12500000000E+03 0.  0.
        -11    1    3    3    0    0  0.41901336416E+02 -0.15712229099E+02  0.42394773272E+02  0.61643433857E+02  0.51100000000E-03 0.  1.
         23    2    1    0    0    0  0.20208202756E+02 -0.12690698955E+02  0.14621291319E+02  0.97014156106E+02  0.92889929629E+02 0.  0.
         11    1    3    3    0    0 -0.21693133659E+02  0.30215301435E+01 -0.27773481953E+02  0.35370722249E+02  0.51100000000E-03 0. -1.
         22    1    1    0    0    0 -0.20208202756E+02  0.12690698955E+02 -0.14621291319E+02  0.27985843894E+02  0.00000000000E+00 0.  1.
</event>
<event>
 5    1  0.1717518E-003  0.9118800E+02  0.7818608E-02  0.1130116E+00
         25   -1    0    0    0    0  0.00000000000E+00  0.00000000000E+00  0.99999998245E-14  0.12500000000E+03  0.12500000000E+03 0.  0.
        -11    1    3    3    0    0  0.28614562936E+02 -0.32635042815E+02  0.18328735428E+01  0.43441899788E+02  0.51100000000E-03 0. -1.
         23    2    1    0    0    0  0.42854031321E+01  0.25167056069E+01 -0.28634294516E+02  0.95937630697E+02  0.91429796424E+02 0.  0.
         11    1    3    3    0    0 -0.24329159804E+02  0.35151748422E+02 -0.30467168058E+02  0.52495730908E+02  0.51100000000E-03 0.  1.
         22    1    1    0    0    0 -0.42854031321E+01 -0.25167056069E+01  0.28634294516E+02  0.29062369303E+02  0.00000000000E+00 0.  1.
</event>
<event>
 5    1  0.1717518E-003  0.9118800E+02  0.7818608E-02  0.1130116E+00
         25   -1    0    0    0    0  0.00000000000E+00  0.00000000000E+00  0.99999998245E-14  0.12500000000E+03  0.12500000000E+03 0.  0.
        -11    1    3    3    0    0 -0.33688025462E+02  0.33905001865E+02 -0.51642374011E+01  0.48073917660E+02  0.51100000000E-03 0.  1.
         23    2    1    0    0    0 -0.26162667946E+02 -0.12984368813E+02 -0.54568847964E+00  0.95787386227E+02  0.91224155556E+02 0.  0.
         11    1    3    3    0    0  0.75253575159E+01 -0.46889370678E+02  0.46185489214E+01  0.47713468567E+02  0.51100000000E-03 0. -1.
         22    1    1    0    0    0  0.26162667946E+02  0.12984368813E+02  0.54568847964E+00  0.29212613773E+02  0.00000000000E+00 0.  1.
</event>
<event>
 5    1  0.1717518E-003  0.9118800E+02  0.7818608E-02  0.1130116E+00
         25   -1    0    0    0    0  0.00000000000E+00  0.00000000000E+00  0.99999998245E-14  0.12500000000E+03  0.12500000000E+03 0.  0.
        -11    1    3    3    0    0  0.38307434602E+02 -0.23266232035E+02  0.17732635686E+02  0.48199828501E+02  0.51100000000E-03 0. -1.
         23    2    1    0    0    0 -0.17258003245E+01  0.44600874512E+01  0.26836591712E+02  0.97740626905E+02  0.93862435117E+02 0.  0.
         11    1    3    3    0    0 -0.40033234926E+02  0.27726319486E+02  0.91039560262E+01  0.49540798404E+02  0.51100000000E-03 0.  1.
         22    1    1    0    0    0  0.17258003245E+01 -0.44600874512E+01 -0.26836591712E+02  0.27259373095E+02  0.00000000000E+00 0. -1.
</event>
<event>
 5    1  0.1717518E-003  0.9118800E+02  0.7818608E-02  0.1130116E+00
         25   -1    0    0    0    0  0.00000000000E+00  0.00000000000E+00  0.99999998245E-14  0.12500000000E+03  0.12500000000E+03 0.  0.
        -11    1    3    3    0    0  0.13316022474E+02 -0.21373881335E+02 -0.53321636624E+02  0.58969112172E+02  0.51100000000E-03 0.  1.
         23    2    1    0    0    0  0.10190873989E+02  0.42960802952E+01 -0.26783823218E+02  0.96022708810E+02  0.91546038704E+02 0.  0.
         11    1    3    3    0    0 -0.31251484846E+01  0.25669961630E+02  0.26537813406E+02  0.37053596638E+02  0.51100000000E-03 0. -1.
         22    1    1    0    0    0 -0.10190873989E+02 -0.42960802952E+01  0.26783823218E+02  0.28977291190E+02  0.00000000000E+00 0.  1.
</event>
<event>
 5    1  0.1717518E-003  0.9118800E+02  0.7818608E-02  0.1130116E+00
         25   -1    0    0    0    0  0.00000000000E+00  0.00000000000E+00  0.99999998245E-14  0.12500000000E+03  0.12500000000E+03 0.  0.
        -11    1    3    3    0    0 -0.24019114027E+02  0.32611591343E+02  0.12282785919E+02  0.42323758797E+02  0.51100000000E-03 0.  1.
         23    2    1    0    0    0  0.23334497952E+02  0.14656368072E+02  0.16056715697E+02  0.93107586502E+02  0.87475120038E+02 0.  0.
         11    1    3    3    0    0  0.47353611979E+02 -0.17955223271E+02  0.37739297787E+01  0.50783827705E+02  0.51100000000E-03 0. -1.
         22    1    1    0    0    0 -0.23334497952E+02 -0.14656368072E+02 -0.16056715697E+02  0.31892413498E+02  0.00000000000E+00 0. -1.
</event>
<event>
 5    1  0.1717518E-003  0.9118800E+02  0.7818608E-02  0.1130116E+00
         25   -1    0    0    0    0  0.00000000000E+00  0.00000000000E+00  0.99999998245E-14  0.12500000000E+03  0.12500000000E+03 0.  0.
        -11    1    3    3    0    0  0.27741101169E+02  0.87759099474E+01  0.18465378365E+02  0.34460926974E+02  0.51100000000E-03 0.  1.
         23    2    1    0    0    0 -0.28529683196E+02  0.77536859471E+01 -0.42098675422E+01  0.95137222940E+02  0.90328875422E+02 0.  0.
         11    1    3    3    0    0 -0.56270784365E+02 -0.10222240003E+01 -0.22675245908E+02  0.60676295966E+02  0.51100000000E-03 0. -1.
         22    1    1    0    0    0  0.28529683196E+02 -0.77536859471E+01  0.42098675422E+01  0.29862777060E+02  0.00000000000E+00 0. -1.
</event>
<event>
 5    1  0.1717518E-003  0.9118800E+02  0.7818608E-02  0.1130116E+00
         25   -1    0    0    0    0  0.00000000000E+00  0.00000000000E+00  0.99999998245E-14  0.12500000000E+03  0.12500000000E+03 0.  0.
        -11    1    3    3    0    0 -0.23196402952E+02 -0.25177417419E+02 -0.46055942106E+02  0.57385758349E+02  0.51100000000E-03 0. -1.
         23    2    1    0    0    0 -0.25628306175E+02 -0.82479397182E+01 -0.11941038204E+02  0.95547886657E+02  0.90895388575E+02 0.  0.
         11    1    3    3    0    0 -0.24319032227E+01  0.16929477701E+02  0.34114903901E+02  0.38162128308E+02  0.51100000000E-03 0.  1.
         22    1    1    0    0    0  0.25628306175E+02  0.82479397182E+01  0.11941038204E+02  0.29452113343E+02  0.00000000000E+00 0. -1.
</event>
<event>
 5    1  0.1717518E-003  0.9118800E+02  0.7818608E-02  0.1130116E+00
         25   -1    0    0    0    0  0.00000000000E+00  0.00000000000E+00  0.99999998245E-14  0.12500000000E+03  0.12500000000E+03 0.  0.
        -11    1    3    3    0    0 -0.54693296450E+02 -0.14955514614E+02  0.26111091446E+02  0.62424459875E+02  0.51100000000E-03 0. -1.
         23    2    1    0    0    0 -0.26397796240E+02 -0.54181433754E+01  0.10955766524E+02  0.95909988929E+02  0.91391997638E+02 0.  0.
         11    1    3    3    0    0  0.28295500210E+02  0.95373712384E+01 -0.15155324923E+02  0.33485529054E+02  0.51100000000E-03 0.  1.
         22    1    1    0    0    0  0.26397796240E+02  0.54181433754E+01 -0.10955766524E+02  0.29090011071E+02  0.00000000000E+00 0. -1.
</event>
<event>
 5    1  0.1717518E-003  0.9118800E+02  0.7818608E-02  0.1130116E+00
         25   -1    0    0    0    0  0.00000000000E+00  0.00000000000E+00  0.99999998245E-14  0.12500000000E+03  0.12500000000E+03 0.  0.
        -11    1    3    3    0    0 -0.74245309683E+01 -0.27782899061E+02 -0.29539673802E+02  0.41226271587E+02  0.51100000000E-03 0.  1.
         23    2    1    0    0    0  0.29233188404E+02 -0.10573447439E+02  0.38014610721E+01  0.93681823149E+02  0.88291878376E+02 0.  0.
         11    1    3    3    0    0  0.36657719372E+02  0.17209451622E+02  0.33341134874E+02  0.52455551562E+02  0.51100000000E-03 0. -1.
         22    1    1    0    0    0 -0.29233188404E+02  0.10573447439E+02 -0.38014610721E+01  0.31318176851E+02  0.00000000000E+00 0.  1.
</event>
<event>
 5    1  0.1717518E-003  0.9118800E+02  0.7818608E-02  0.1130116E+00
         25   -1    0    0    0    0  0.00000000000E+00  0.00000000000E+00  0.99999998245E-14  0.12500000000E+03  0.12500000000E+03 0.  0.
        -11    1    3    3    0    0 -0.81810701126E+01 -0.32437333125E+02 -0.41441961358E+01  0.33708824517E+02  0.51100000000E-03 0.  1.
         23    2    1    0    0    0  0.63764497533E+01  0.26269288721E+02  0.10598869224E+02  0.95964320738E+02  0.91466278948E+02 0.  0.
         11    1    3    3    0    0  0.14557519866E+02  0.58706621846E+02  0.14743065360E+02  0.62255496221E+02  0.51100000000E-03 0. -1.
         22    1    1    0    0    0 -0.63764497533E+01 -0.26269288721E+02 -0.10598869224E+02  0.29035679262E+02  0.00000000000E+00 0. -1.
</event>
<event>
 5    1  0.1717518E-003  0.9118800E+02  0.7818608E-02  0.1130116E+00
         25   -1    0    0    0    0  0.00000000000E+00  0.00000000000E+00  0.99999998245E-14  0.12500000000E+03  0.12500000000E+03 0.  0.
        -11    1    3    3    0    0  0.11189327528E+02 -0.15508443701E+02  0.35129608768E+02  0.39997528536E+02  0.51100000000E-03 0. -1.
         23    2    1    0    0    0  0.86168757736E+00 -0.22791466509E+02 -0.18833974694E+02  0.95421087683E+02  0.90720846120E+02 0.  0.
         11    1    3    3    0    0 -0.10327639951E+02 -0.72830228077E+01 -0.53963583462E+02  0.55423559147E+02  0.51100000000E-03 0.  1.
         22    1    1    0    0    0 -0.86168757736E+00  0.22791466509E+02  0.18833974694E+02  0.29578912317E+02  0.00000000000E+00 0.  1.
</event>
<event>
 5    1  0.1717518E-003  0.9118800E+02  0.7818608E-02  0.1130116E+00
         25   -1    0    0    0    0  0.00000000000E+00  0.00000000000E+00  0.99999998245E-14  0.12500000000E+03  0.12500000000E+03 0.  0.
        -11    1    3    3    0    0 -0.41609193195E+01  0.16138329968E+02 -0.59124845307E+02  0.61428871685E+02  0.51100000000E-03 0. -1.
         23    2    1    0    0    0 -0.71746955101E+01  0.13196457789E+02 -0.24838774011E+02  0.95972643106E+02  0.91477651788E+02 0.  0.
         11    1    3    3    0    0 -0.30137761906E+01 -0.29418721791E+01  0.34286071295E+02  0.34543771421E+02  0.51100000000E-03 0.  1.
         22    1    1    0    0    0  0.71746955101E+01 -0.13196457789E+02  0.24838774011E+02  0.29027356894E+02  0.00000000000E+00 0. -1.
</event>
<event>
 5    1  0.1717518E-003  0.9118800E+02  0.7818608E-02  0.1130116E+00
         25   -1    0    0    0    0  0.00000000000E+00  0.00000000000E+00  0.99999998245E-14  0.12500000000E+03  0.12500000000E+03 0.  0.
        -11    1    3    3    0    0  0.14852203334E+02  0.18515420787E+02 -0.22719430451E+02  0.32856982075E+02  0.51100000000E-03 0.  1.
         23    2    1    0    0    0  0.21433834715E+01 -0.10164638313E+02  0.29472233862E+02  0.93750575468E+02  0.88389161480E+02 0.  0.
         11    1    3    3    0    0 -0.12708819863E+02 -0.28680059101E+02  0.52191664313E+02  0.60893593393E+02  0.51100000000E-03 0. -1.
         22    1    1    0    0    0 -0.21433834715E+01  0.10164638313E+02 -0.29472233862E+02  0.31249424532E+02  0.00000000000E+00 0. -1.
</event>
<event>
 5    1  0.1717518E-003  0.9118800E+02  0.7818608E-02  0.1130116E+00
         25   -1    0    0    0    0  0.00000000000E+00  0.00000000000E+00  0.99999998245E-14  0.12500000000E+03  0.12500000000E+03 0.  0.
        -11    1    3    3    0    0  0.71656898118E+01 -0.37212150352E+02 -0.47235736771E+02  0.60558286574E+02  0.51100000000E-03 0. -1.
         23    2    1    0    0    0  0.12983513296E+01 -0.25775320647E+02 -0.15267026345E+02  0.95014420732E+02  0.90158777626E+02 0.  0.
         11    1    3    3    0    0 -0.58673384822E+01  0.11436829705E+02  0.31968710426E+02  0.34456134158E+02  0.51100000000E-03 0.  1.
         22    1    1    0    0    0 -0.12983513296E+01  0.25775320647E+02  0.15267026345E+02  0.29985579268E+02  0.00000000000E+00 0. -1.
</event>
<event>
 5    1  0.1717518E-003  0.9118800E+02  0.7818608E-02  0.1130116E+00
         25   -1    0    0    0    0  0.00000000000E+00  0.00000000000E+00  0.99999998245E-14  0.12500000000E+03  0.12500000000E+03 0.  0.
        -11    1    3    3    0    0 -0.32532172693E+02  0.36285475514E+02 -0.35584582295E+02  0.60342692108E+02  0.51100000000E-03 0. -1.
         23    2    1    0    0    0 -0.13003192161E+02  0.86628186418E+01 -0.24501008108E+02  0.95940976762E+02  0.91434370948E+02 0.  0.
         11    1    3    3    0    0  0.19528980532E+02 -0.27622656873E+02  0.11083574187E+02  0.35598284654E+02  0.51100000000E-03 0.  1.
         22    1    1    0    0    0  0.13003192161E+02 -0.86628186418E+01  0.24501008108E+02  0.29059023238E+02  0.00000000000E+00 0. -1.
</event>
<event>
 5    1  0.1717518E-003  0.9118800E+02  0.7818608E-02  0.1130116E+00
         25   -1    0    0    0    0  0.00000000000E+00  0.00000000000E+00  0.99999998245E-14  0.12500000000E+03  0.12500000000E+03 0.  0.
        -11    1    3    3    0    0  0.20847948861E+02  0.37174103528E+02  0.32033362663E+02  0.53316857265E+02  0.51100000000E-03 0. -1.
         23    2    1    0    0    0 -0.63150193080E+01  0.62016829722E+01  0.29062118497E+02  0.94619956022E+02  0.89610205923E+02 0.  0.
         11    1    3    3    0    0 -0.27162968168E+02 -0.30972420556E+02 -0.29712441653E+01  0.41303098758E+02  0.51100000000E-03 0.  1.
         22    1    1    0    0    0  0.63150193080E+01 -0.62016829722E+01 -0.29062118497E+02  0.30380043978E+02  0.00000000000E+00 0. -1.
</event>
<event>
 5    1  0.1717518E-003  0.9118800E+02  0.7818608E-02  0.1130116E+00
         25   -1    0    0    0    0  0.00000000000E+00  0.00000000000E+00  0.99999998245E-14  0.12500000000E+03  0.12500000000E+03 0.  0.
        -11    1    3    3    0    0  0.31404658134E+02 -0.42052741701E+01  0.34858249305E+02  0.47106628283E+02  0.51100000000E-03 0.  1.
         23    2    1    0    0    0  0.16781606137E+02  0.24763709507E+02 -0.47718972093E+00  0.95081923138E+02  0.90252317336E+02 0.  0.
         11    1    3    3    0    0 -0.14623051997E+02  0.28968983677E+02 -0.35335439026E+02  0.47975294855E+02  0.51100000000E-03 0. -1.
         22    1    1    0    0    0 -0.16781606137E+02 -0.24763709507E+02  0.47718972093E+00  0.29918076862E+02  0.00000000000E+00 0.  1.
</event>
<event>
 5    1  0.1717518E-003  0.9118800E+02  0.7818608E-02  0.1130116E+00
         25   -1    0    0    0    0  0.00000000000E+00  0.00000000000E+00  0.99999998245E-14  0.12500000000E+03  0.12500000000E+03 0.  0.
        -11    1    3    3    0    0  0.74102736797E+01 -0.26883168119E+02  0.21969106890E+02  0.35500120308E+02  0.51100000000E-03 0.  1.
         23    2    1    0    0    0  0.69994656622E+01  0.28522571064E+02  0.16843448508E+02  0.91143961583E+02  0.84622635244E+02 0.  0.
         11    1    3    3    0    0 -0.41080801745E+00  0.55405739183E+02 -0.51256583820E+01  0.55643841274E+02  0.51100000000E-03 0. -1.
         22    1    1    0    0    0 -0.69994656622E+01 -0.28522571064E+02 -0.16843448508E+02  0.33856038417E+02  0.00000000000E+00 0. -1.
</event>
<event>
 5    1  0.1717518E-003  0.9118800E+02  0.7818608E-02  0.1130116E+00
         25   -1    0    0    0    0  0.00000000000E+00  0.00000000000E+00  0.99999998245E-14  0.12500000000E+03  0.12500000000E+03 0.  0.
        -11    1    3    3    0    0  0.58254273153E+01 -0.15350460186E+02  0.39044975792E+02  0.42356609474E+02  0.51100000000E-03 0.  1.
         23    2    1    0    0    0  0.24829975807E+02  0.48440649004E+01 -0.92641031333E+01  0.98059022471E+02  0.94285500570E+02 0.  0.
         11    1    3    3    0    0  0.19004548492E+02  0.20194525087E+02 -0.48309078925E+02  0.55702412997E+02  0.51100000000E-03 0. -1.
         22    1    1    0    0    0 -0.24829975807E+02 -0.48440649004E+01  0.92641031333E+01  0.26940977529E+02  0.00000000000E+00 0. -1.
</event>
<event>
 5    1  0.1717518E-003  0.9118800E+02  0.7818608E-02  0.1130116E+00
         25   -1    0    0    0    0  0.00000000000E+00  0.00000000000E+00  0.99999998245E-14  0.12500000000E+03  0.12500000000E+03 0.  0.
        -11    1    3    3    0    0  0.27813764334E+02 -0.40454247504E+02 -0.26001568801E+02  0.55553876624E+02  0.51100000000E-03 0.  1.
         23    2    1    0    0    0  0.24875003400E+02 -0.59264356973E+01  0.88444174196E+00  0.99413466992E+02  0.96064388552E+02 0.  0.
         11    1    3    3    0    0 -0.29387609348E+01  0.34527811807E+02  0.26886010543E+02  0.43859590367E+02  0.51100000000E-03 0. -1.
         22    1    1    0    0    0 -0.24875003400E+02  0.59264356973E+01 -0.88444174196E+00  0.25586533008E+02  0.00000000000E+00 0.  1.
</event>
<event>
 5    1  0.1717518E-003  0.9118800E+02  0.7818608E-02  0.1130116E+00
         25   -1    0    0    0    0  0.00000000000E+00  0.00000000000E+00  0.99999998245E-14  0.12500000000E+03  0.12500000000E+03 0.  0.
        -11    1    3    3    0    0  0.21117941367E+02  0.37705524305E+02 -0.44993324254E+02  0.62386482818E+02  0.51100000000E-03 0. -1.
         23    2    1    0    0    0  0.78470034971E+01  0.19143262158E+02 -0.20121784670E+02  0.96139539709E+02  0.91705424742E+02 0.  0.
         11    1    3    3    0    0 -0.13270937870E+02 -0.18562262147E+02  0.24871539584E+02  0.33753056891E+02  0.51100000000E-03 0.  1.
         22    1    1    0    0    0 -0.78470034971E+01 -0.19143262158E+02  0.20121784670E+02  0.28860460291E+02  0.00000000000E+00 0. -1.
</event>
<event>
 5    1  0.1717518E-003  0.9118800E+02  0.7818608E-02  0.1130116E+00
         25   -1    0    0    0    0  0.00000000000E+00  0.00000000000E+00  0.99999998245E-14  0.12500000000E+03  0.12500000000E+03 0.  0.
        -11    1    3    3    0    0  0.27549981818E+02  0.51182888490E+02  0.16079279728E+02  0.60309475286E+02  0.51100000000E-03 0. -1.
         23    2    1    0    0    0  0.18760624727E+01  0.26895604745E+02  0.10391618425E+02  0.96105728968E+02  0.91659327086E+02 0.  0.
         11    1    3    3    0    0 -0.25673919346E+02 -0.24287283745E+02 -0.56876613028E+01  0.35796253682E+02  0.51100000000E-03 0.  1.
         22    1    1    0    0    0 -0.18760624727E+01 -0.26895604745E+02 -0.10391618425E+02  0.28894271032E+02  0.00000000000E+00 0. -1.
</event>
<event>
 5    1  0.1717518E-003  0.9118800E+02  0.7818608E-02  0.1130116E+00
         25   -1    0    0    0    0  0.00000000000E+00  0.00000000000E+00  0.99999998245E-14  0.12500000000E+03  0.12500000000E+03 0.  0.
        -11    1    3    3    0    0  0.28870044159E+02 -0.10963277484E+02  0.39736158914E+02  0.50325294121E+02  0.51100000000E-03 0. -1.
         23    2    1    0    0    0  0.26208462637E+02 -0.13500086615E+02 -0.49015654949E+01  0.95114197405E+02  0.90297006325E+02 0.  0.
         11    1    3    3    0    0 -0.26615815218E+01 -0.25368091315E+01 -0.44637724408E+02  0.44788903284E+02  0.51100000000E-03 0.  1.
         22    1    1    0    0    0 -0.26208462637E+02  0.13500086615E+02  0.49015654949E+01  0.29885802595E+02  0.00000000000E+00 0.  1.
</event>
<event>
 5    1  0.1717518E-003  0.9118800E+02  0.7818608E-02  0.1130116E+00
         25   -1    0    0    0    0  0.00000000000E+00  0.00000000000E+00  0.99999998245E-14  0.12500000000E+03  0.12500000000E+03 0.  0.
        -11    1    3    3    0    0  0.56051066467E+01 -0.10475078626E+02 -0.44169205861E+02  0.45739077815E+02  0.51100000000E-03 0. -1.
         23    2    1    0    0    0 -0.29527172513E+02 -0.27183583993E+01 -0.17029833716E+02  0.90805576107E+02  0.84121305427E+02 0.  0.
         11    1    3    3    0    0 -0.35132279160E+02  0.77567202266E+01  0.27139372145E+02  0.45066498292E+02  0.51100000000E-03 0.  1.
         22    1    1    0    0    0  0.29527172513E+02  0.27183583993E+01  0.17029833716E+02  0.34194423893E+02  0.00000000000E+00 0.  1.
</event>
<event>
 5    1  0.1717518E-003  0.9118800E+02  0.7818608E-02  0.1130116E+00
         25   -1    0    0    0    0  0.00000000000E+00  0.00000000000E+00  0.99999998245E-14  0.12500000000E+03  0.12500000000E+03 0.  0.
        -11    1    3    3    0    0 -0.28652123968E+02  0.48576144204E+01  0.46283026797E+02  0.54650335731E+02  0.51100000000E-03 0. -1.
         23    2    1    0    0    0 -0.27285188080E+02  0.79326554941E+01  0.49051892686E+01  0.96164788999E+02  0.91739834585E+02 0.  0.
         11    1    3    3    0    0  0.13669358885E+01  0.30750410737E+01 -0.41377837528E+02  0.41514453268E+02  0.51100000000E-03 0.  1.
         22    1    1    0    0    0  0.27285188080E+02 -0.79326554941E+01 -0.49051892686E+01  0.28835211001E+02  0.00000000000E+00 0.  1.
</event>
<event>
 5    1  0.1717518E-003  0.9118800E+02  0.7818608E-02  0.1130116E+00
         25   -1    0    0    0    0  0.00000000000E+00  0.00000000000E+00  0.99999998245E-14  0.12500000000E+03  0.12500000000E+03 0.  0.
        -11    1    3    3    0    0 -0.11305323161E+02  0.43453162930E+02  0.77513885292E+01  0.45563930085E+02  0.51100000000E-03 0.  1.
         23    2    1    0    0    0  0.25763188712E+02  0.88194776963E+01  0.90314690864E+01  0.96310411065E+02  0.91938037646E+02 0.  0.
         11    1    3    3    0    0  0.37068511873E+02 -0.34633685234E+02  0.12800805572E+01  0.50746480980E+02  0.51100000000E-03 0. -1.
         22    1    1    0    0    0 -0.25763188712E+02 -0.88194776963E+01 -0.90314690864E+01  0.28689588935E+02  0.00000000000E+00 0. -1.
</event>
<event>
 5    1  0.1717518E-003  0.9118800E+02  0.7818608E-02  0.1130116E+00
         25   -1    0    0    0    0  0.00000000000E+00  0.00000000000E+00  0.99999998245E-14  0.12500000000E+03  0.12500000000E+03 0.  0.
        -11    1    3    3    0    0 -0.20259411700E+02 -0.26874753081E+02 -0.23311493203E+01  0.33736187885E+02  0.51100000000E-03 0.  1.
         23    2    1    0    0    0  0.66446522446E+01  0.28088132354E+02  0.60721773843E+01  0.95504815295E+02  0.90836137213E+02 0.  0.
         11    1    3    3    0    0  0.26904063945E+02  0.54962885435E+02  0.84033267046E+01  0.61768627410E+02  0.51100000000E-03 0. -1.
         22    1    1    0    0    0 -0.66446522446E+01 -0.28088132354E+02 -0.60721773843E+01  0.29495184705E+02  0.00000000000E+00 0. -1.
</event>
<event>
 5    1  0.1717518E-003  0.9118800E+02  0.7818608E-02  0.1130116E+00
         25   -1    0    0    0    0  0.00000000000E+00  0.00000000000E+00  0.99999998245E-14  0.12500000000E+03  0.12500000000E+03 0.  0.
        -11    1    3    3    0    0  0.29445896680E+02  0.36764007602E+02 -0.58969975713E+01  0.47470281934E+02  0.51100000000E-03 0.  1.
         23    2    1    0    0    0 -0.10663895426E+02  0.24253992249E+02  0.15168019918E+02  0.94470610326E+02  0.89401636347E+02 0.  0.
         11    1    3    3    0    0 -0.40109792106E+02 -0.12510015353E+02  0.21065017489E+02  0.47000328392E+02  0.51100000000E-03 0. -1.
         22    1    1    0    0    0  0.10663895426E+02 -0.24253992249E+02 -0.15168019918E+02  0.30529389674E+02  0.00000000000E+00 0. -1.
</event>
<event>
 5    1  0.1717518E-003  0.9118800E+02  0.7818608E-02  0.1130116E+00
         25   -1    0    0    0    0  0.00000000000E+00  0.00000000000E+00  0.99999998245E-14  0.12500000000E+03  0.12500000000E+03 0.  0.
        -11    1    3    3    0    0 -0.10399229419E+02 -0.60557114394E+02 -0.83003190228E+01  0.62001640078E+02  0.51100000000E-03 0. -1.
         23    2    1    0    0    0 -0.98685811988E+01 -0.24891663489E+02 -0.32429763682E+01  0.98027779071E+02  0.94244070199E+02 0.  0.
         11    1    3    3    0    0  0.53064821995E+00  0.35665450904E+02  0.50573426546E+01  0.36026138993E+02  0.51100000000E-03 0.  1.
         22    1    1    0    0    0  0.98685811988E+01  0.24891663489E+02  0.32429763682E+01  0.26972220929E+02  0.00000000000E+00 0. -1.
</event>
<event>
 5    1  0.1717518E-003  0.9118800E+02  0.7818608E-02  0.1130116E+00
         25   -1    0    0    0    0  0.00000000000E+00  0.00000000000E+00  0.99999998245E-14  0.12500000000E+03  0.12500000000E+03 0.  0.
        -11    1    3    3    0    0  0.27864456936E+02  0.12217750089E+02  0.48852059843E+02  0.57551934188E+02  0.51100000000E-03 0.  1.
         23    2    1    0    0    0 -0.73775217963E+00  0.16963794245E+02  0.23101677101E+02  0.96329421381E+02  0.91963880655E+02 0.  0.
         11    1    3    3    0    0 -0.28602209116E+02  0.47460441562E+01 -0.25750382741E+02  0.38777487193E+02  0.51100000000E-03 0. -1.
         22    1    1    0    0    0  0.73775217963E+00 -0.16963794245E+02 -0.23101677101E+02  0.28670578619E+02  0.00000000000E+00 0.  1.
</event>
<event>
 5    1  0.1717518E-003  0.9118800E+02  0.7818608E-02  0.1130116E+00
         25   -1    0    0    0    0  0.00000000000E+00  0.00000000000E+00  0.99999998245E-14  0.12500000000E+03  0.12500000000E+03 0.  0.
        -11    1    3    3    0    0 -0.10176657612E+02  0.11421061361E+02 -0.67954172019E+01  0.16738658787E+02  0.51100000000E-03 0. -1.
         23    2    1    0    0    0  0.53674192436E+01 -0.43765587019E+02  0.15509271869E+02  0.78258441293E+02  0.62766315195E+02 0.  0.
         11    1    3    3    0    0  0.15544076855E+02 -0.55186648381E+02  0.22304689071E+02  0.61519782506E+02  0.51100000000E-03 0.  1.
         22    1    1    0    0    0 -0.53674192436E+01  0.43765587019E+02 -0.15509271869E+02  0.46741558707E+02  0.00000000000E+00 0.  1.
</event>
<event>
 5    1  0.1717518E-003  0.9118800E+02  0.7818608E-02  0.1130116E+00
         25   -1    0    0    0    0  0.00000000000E+00  0.00000000000E+00  0.99999998245E-14  0.12500000000E+03  0.12500000000E+03 0.  0.
        -11    1    3    3    0    0 -0.12141072038E+02 -0.14146511066E+02  0.33618862748E+02  0.38441609466E+02  0.51100000000E-03 0. -1.
         23    2    1    0    0    0 -0.27265968852E+01  0.72166582805E+01 -0.23563386162E+02  0.10020589476E+03  0.97090028785E+02 0.  0.
         11    1    3    3    0    0  0.94144751530E+01  0.21363169347E+02 -0.57182248911E+02  0.61764285292E+02  0.51100000000E-03 0.  1.
         22    1    1    0    0    0  0.27265968852E+01 -0.72166582805E+01  0.23563386162E+02  0.24794105242E+02  0.00000000000E+00 0.  1.
</event>
<event>
 5    1  0.1717518E-003  0.9118800E+02  0.7818608E-02  0.1130116E+00
         25   -1    0    0    0    0  0.00000000000E+00  0.00000000000E+00  0.99999998245E-14  0.12500000000E+03  0.12500000000E+03 0.  0.
        -11    1    3    3    0    0  0.16658299493E+02  0.20802508714E+02  0.45257316238E+02  0.52521119410E+02  0.51100000000E-03 0.  1.
         23    2    1    0    0    0  0.85280951475E+01  0.32782429978E+02  0.11541309699E+02  0.89214277265E+02  0.81722514133E+02 0.  0.
         11    1    3    3    0    0 -0.81302043453E+01  0.11979921264E+02 -0.33716006539E+02  0.36693157855E+02  0.51100000000E-03 0. -1.
         22    1    1    0    0    0 -0.85280951475E+01 -0.32782429978E+02 -0.11541309699E+02  0.35785722735E+02  0.00000000000E+00 0.  1.
</event>
<event>
 5    1  0.1717518E-003  0.9118800E+02  0.7818608E-02  0.1130116E+00
         25   -1    0    0    0    0  0.00000000000E+00  0.00000000000E+00  0.99999998245E-14  0.12500000000E+03  0.12500000000E+03 0.  0.
        -11    1    3    3    0    0 -0.39139324776E+02  0.10601113291E+01  0.29616744824E+02  0.49093402349E+02  0.51100000000E-03 0.  1.
         23    2    1    0    0    0  0.11864831743E+01  0.23400985991E+02  0.13661272047E+02  0.97877237574E+02  0.94044188515E+02 0.  0.
         11    1    3    3    0    0  0.40325807950E+02  0.22340874662E+02 -0.15955472777E+02  0.48783835225E+02  0.51100000000E-03 0. -1.
         22    1    1    0    0    0 -0.11864831743E+01 -0.23400985991E+02 -0.13661272047E+02  0.27122762426E+02  0.00000000000E+00 0. -1.
</event>
<event>
 5    1  0.1717518E-003  0.9118800E+02  0.7818608E-02  0.1130116E+00
         25   -1    0    0    0    0  0.00000000000E+00  0.00000000000E+00  0.99999998245E-14  0.12500000000E+03  0.12500000000E+03 0.  0.
        -11    1    3    3    0    0  0.24533188689E+02  0.77670916469E+01  0.39185569656E+02  0.46879781670E+02  0.51100000000E-03 0.  1.
         23    2    1    0    0    0  0.36742205100E+02  0.15654641909E+02  0.41061952924E+01  0.84851297796E+02  0.74751752146E+02 0.  0.
         11    1    3    3    0    0  0.12209016411E+02  0.78875502618E+01 -0.35079374364E+02  0.37971516126E+02  0.51100000000E-03 0. -1.
         22    1    1    0    0    0 -0.36742205100E+02 -0.15654641909E+02 -0.41061952924E+01  0.40148702204E+02  0.00000000000E+00 0.  1.
</event>
<event>
 5    1  0.1717518E-003  0.9118800E+02  0.7818608E-02  0.1130116E+00
         25   -1    0    0    0    0  0.00000000000E+00  0.00000000000E+00  0.99999998245E-14  0.12500000000E+03  0.12500000000E+03 0.  0.
        -11    1    3    3    0    0  0.42114425344E+02  0.12642714103E+02  0.13839279594E+02  0.46097599741E+02  0.51100000000E-03 0.  1.
         23    2    1    0    0    0  0.17730563384E+02  0.23442925677E+02  0.34386087187E+02  0.79763436976E+02  0.65695199550E+02 0.  0.
         11    1    3    3    0    0 -0.24383861961E+02  0.10800211574E+02  0.20546807593E+02  0.33665837235E+02  0.51100000000E-03 0. -1.
         22    1    1    0    0    0 -0.17730563384E+02 -0.23442925677E+02 -0.34386087187E+02  0.45236563024E+02  0.00000000000E+00 0.  1.
</event>
<event>
 5    1  0.1717518E-003  0.9118800E+02  0.7818608E-02  0.1130116E+00
         25   -1    0    0    0    0  0.00000000000E+00  0.00000000000E+00  0.99999998245E-14  0.12500000000E+03  0.12500000000E+03 0.  0.
        -11    1    3    3    0    0 -0.12090575606E+02  0.29025328553E+02 -0.15320014018E+02  0.34976485613E+02  0.51100000000E-03 0.  1.
         23    2    1    0    0    0  0.63386377910E+01 -0.28026946292E+02 -0.40564778781E+01  0.95980298756E+02  0.91488112283E+02 0.  0.
         11    1    3    3    0    0  0.18429213397E+02 -0.57052274845E+02  0.11263536140E+02  0.61003813143E+02  0.51100000000E-03 0. -1.
         22    1    1    0    0    0 -0.63386377910E+01  0.28026946292E+02  0.40564778781E+01  0.29019701244E+02  0.00000000000E+00 0. -1.
</event>
<event>
 5    1  0.1717518E-003  0.9118800E+02  0.7818608E-02  0.1130116E+00
         25   -1    0    0    0    0  0.00000000000E+00  0.00000000000E+00  0.99999998245E-14  0.12500000000E+03  0.12500000000E+03 0.  0.
        -11    1    3    3    0    0  0.15923028251E+02  0.23003008224E+02  0.25531123177E+02  0.37875050720E+02  0.51100000000E-03 0. -1.
         23    2    1    0    0    0  0.70149190992E+01 -0.88767567394E+01 -0.24585424898E+02  0.97936204671E+02  0.94122532732E+02 0.  0.
         11    1    3    3    0    0 -0.89081091517E+01 -0.31879764964E+02 -0.50116548075E+02  0.60061153952E+02  0.51100000000E-03 0.  1.
         22    1    1    0    0    0 -0.70149190992E+01  0.88767567394E+01  0.24585424898E+02  0.27063795329E+02  0.00000000000E+00 0.  1.
</event>
<event>
 5    1  0.1717518E-003  0.9118800E+02  0.7818608E-02  0.1130116E+00
         25   -1    0    0    0    0  0.00000000000E+00  0.00000000000E+00  0.99999998245E-14  0.12500000000E+03  0.12500000000E+03 0.  0.
        -11    1    3    3    0    0  0.17417712026E+02  0.17872132526E+02  0.30952710691E+02  0.39760031597E+02  0.51100000000E-03 0.  1.
         23    2    1    0    0    0 -0.20142799076E+02  0.12397596941E+02 -0.13142102522E+02  0.97941773464E+02  0.94129928111E+02 0.  0.
         11    1    3    3    0    0 -0.37560511103E+02 -0.54745355847E+01 -0.44094813213E+02  0.58181741867E+02  0.51100000000E-03 0. -1.
         22    1    1    0    0    0  0.20142799076E+02 -0.12397596941E+02  0.13142102522E+02  0.27058226536E+02  0.00000000000E+00 0. -1.
</event>
<event>
 5    1  0.1717518E-003  0.9118800E+02  0.7818608E-02  0.1130116E+00
         25   -1    0    0    0    0  0.00000000000E+00  0.00000000000E+00  0.99999998245E-14  0.12500000000E+03  0.12500000000E+03 0.  0.
        -11    1    3    3    0    0  0.85293788532E+01 -0.26611689324E+02  0.24740874439E+02  0.37323493681E+02  0.51100000000E-03 0.  1.
         23    2    1    0    0    0 -0.28303235253E+02  0.13064653450E+01 -0.97973063697E+01  0.95020553881E+02  0.90167280487E+02 0.  0.
         11    1    3    3    0    0 -0.36832614106E+02  0.27918154669E+02 -0.34538180808E+02  0.57697060201E+02  0.51100000000E-03 0. -1.
         22    1    1    0    0    0  0.28303235253E+02 -0.13064653450E+01  0.97973063697E+01  0.29979446119E+02  0.00000000000E+00 0. -1.
</event>
<event>
 5    1  0.1717518E-003  0.9118800E+02  0.7818608E-02  0.1130116E+00
         25   -1    0    0    0    0  0.00000000000E+00  0.00000000000E+00  0.99999998245E-14  0.12500000000E+03  0.12500000000E+03 0.  0.
        -11    1    3    3    0    0 -0.15792364970E+02  0.20607504456E+02 -0.50833270107E+02  0.57079675729E+02  0.51100000000E-03 0. -1.
         23    2    1    0    0    0 -0.23685165586E+02  0.11834441207E+02 -0.15527155241E+02  0.94305804825E+02  0.89170910090E+02 0.  0.
         11    1    3    3    0    0 -0.78928006157E+01 -0.87730632481E+01  0.35306114866E+02  0.37226129097E+02  0.51100000000E-03 0.  1.
         22    1    1    0    0    0  0.23685165586E+02 -0.11834441207E+02  0.15527155241E+02  0.30694195175E+02  0.00000000000E+00 0. -1.
</event>
<event>
 5    1  0.1717518E-003  0.9118800E+02  0.7818608E-02  0.1130116E+00
         25   -1    0    0    0    0  0.00000000000E+00  0.00000000000E+00  0.99999998245E-14  0.12500000000E+03  0.12500000000E+03 0.  0.
        -11    1    3    3    0    0 -0.20480221607E+02 -0.35179100952E+02  0.46250110737E+02  0.61612347499E+02  0.51100000000E-03 0.  1.
         23    2    1    0    0    0 -0.59936116643E+01 -0.89469326694E+01  0.23213683854E+02  0.99410039018E+02  0.96059927933E+02 0.  0.
         11    1    3    3    0    0  0.14486609942E+02  0.26232168283E+02 -0.23036426883E+02  0.37797691520E+02  0.51100000000E-03 0. -1.
         22    1    1    0    0    0  0.59936116643E+01  0.89469326694E+01 -0.23213683854E+02  0.25589960982E+02  0.00000000000E+00 0.  1.
</event>
<event>
 5    1  0.1717518E-003  0.9118800E+02  0.7818608E-02  0.1130116E+00
         25   -1    0    0    0    0  0.00000000000E+00  0.00000000000E+00  0.99999998245E-14  0.12500000000E+03  0.12500000000E+03 0.  0.
        -11    1    3    3    0    0  0.10074790471E+02  0.54320135550E+02  0.16524350494E+02  0.57664830605E+02  0.51100000000E-03 0. -1.
         23    2    1    0    0    0  0.17665284833E+02  0.26591256658E+02 -0.37680628722E+01  0.92854152419E+02  0.87112215588E+02 0.  0.
         11    1    3    3    0    0  0.75904943620E+01 -0.27728878891E+02 -0.20292413366E+02  0.35189321814E+02  0.51100000000E-03 0.  1.
         22    1    1    0    0    0 -0.17665284833E+02 -0.26591256658E+02  0.37680628722E+01  0.32145847581E+02  0.00000000000E+00 0. -1.
</event>
<event>
 5    1  0.1717518E-003  0.9118800E+02  0.7818608E-02  0.1130116E+00
         25   -1    0    0    0    0  0.00000000000E+00  0.00000000000E+00  0.99999998245E-14  0.12500000000E+03  0.12500000000E+03 0.  0.
        -11    1    3    3    0    0  0.16249636432E+02  0.36277443965E+02  0.16804677690E+02  0.43156700723E+02  0.51100000000E-03 0.  1.
         23    2    1    0    0    0 -0.68433075974E+01 -0.11845466615E+02  0.24355913182E+02  0.97065139250E+02  0.92958511243E+02 0.  0.
         11    1    3    3    0    0 -0.23092944029E+02 -0.48122910580E+02  0.75512354920E+01  0.53908438527E+02  0.51100000000E-03 0. -1.
         22    1    1    0    0    0  0.68433075974E+01  0.11845466615E+02 -0.24355913182E+02  0.27934860750E+02  0.00000000000E+00 0. -1.
</event>
<event>
 5    1  0.1717518E-003  0.9118800E+02  0.7818608E-02  0.1130116E+00
         25   -1    0    0    0    0  0.00000000000E+00  0.00000000000E+00  0.99999998245E-14  0.12500000000E+03  0.12500000000E+03 0.  0.
        -11    1    3    3    0    0  0.42986212347E+02 -0.25978824711E+01  0.39189725443E+02  0.58227124485E+02  0.51100000000E-03 0. -1.
         23    2    1    0    0    0  0.13529505935E+02 -0.73799521074E+01  0.32820017847E+02  0.88741693428E+02  0.80996440397E+02 0.  0.
         11    1    3    3    0    0 -0.29456706412E+02 -0.47820696363E+01 -0.63697075952E+01  0.30514568943E+02  0.51100000000E-03 0.  1.
         22    1    1    0    0    0 -0.13529505935E+02  0.73799521074E+01 -0.32820017847E+02  0.36258306572E+02  0.00000000000E+00 0. -1.
</event>
<event>
 5    1  0.1717518E-003  0.9118800E+02  0.7818608E-02  0.1130116E+00
         25   -1    0    0    0    0  0.00000000000E+00  0.00000000000E+00  0.99999998245E-14  0.12500000000E+03  0.12500000000E+03 0.  0.
        -11    1    3    3    0    0  0.31589305508E+02 -0.93752623694E+01 -0.31744438444E+02  0.45754662487E+02  0.51100000000E-03 0.  1.
         23    2    1    0    0    0  0.17057719032E+02 -0.33500724169E+01  0.19215915218E+02  0.99087837577E+02  0.95639737527E+02 0.  0.
         11    1    3    3    0    0 -0.14531586476E+02  0.60251899525E+01  0.50960353662E+02  0.53333175089E+02  0.51100000000E-03 0. -1.
         22    1    1    0    0    0 -0.17057719032E+02  0.33500724169E+01 -0.19215915218E+02  0.25912162423E+02  0.00000000000E+00 0. -1.
</event>
<event>
 5    1  0.1717518E-003  0.9118800E+02  0.7818608E-02  0.1130116E+00
         25   -1    0    0    0    0  0.00000000000E+00  0.00000000000E+00  0.99999998245E-14  0.12500000000E+03  0.12500000000E+03 0.  0.
        -11    1    3    3    0    0 -0.26847679985E+02  0.20986956281E+02 -0.10811156369E+02  0.35750963019E+02  0.51100000000E-03 0. -1.
         23    2    1    0    0    0  0.77715677140E+01 -0.26410215814E+02 -0.13148167778E+02  0.94491458901E+02  0.89430781755E+02 0.  0.
         11    1    3    3    0    0  0.34619247699E+02 -0.47397172095E+02 -0.23370114092E+01  0.58740495882E+02  0.51100000000E-03 0.  1.
         22    1    1    0    0    0 -0.77715677140E+01  0.26410215814E+02  0.13148167778E+02  0.30508541099E+02  0.00000000000E+00 0.  1.
</event>
<event>
 5    1  0.1717518E-003  0.9118800E+02  0.7818608E-02  0.1130116E+00
         25   -1    0    0    0    0  0.00000000000E+00  0.00000000000E+00  0.99999998245E-14  0.12500000000E+03  0.12500000000E+03 0.  0.
        -11    1    3    3    0    0  0.49983390140E+01 -0.11804728943E+01 -0.56286354906E+02  0.56520179211E+02  0.51100000000E-03 0.  1.
         23    2    1    0    0    0 -0.14929113003E+02  0.79730809924E+01 -0.21568561467E+02  0.97583740603E+02  0.93653270903E+02 0.  0.
         11    1    3    3    0    0 -0.19927452017E+02  0.91535538867E+01  0.34717793440E+02  0.41063561392E+02  0.51100000000E-03 0. -1.
         22    1    1    0    0    0  0.14929113003E+02 -0.79730809924E+01  0.21568561467E+02  0.27416259397E+02  0.00000000000E+00 0.  1.
</event>
<event>
 5    1  0.1717518E-003  0.9118800E+02  0.7818608E-02  0.1130116E+00
         25   -1    0    0    0    0  0.00000000000E+00  0.00000000000E+00  0.99999998245E-14  0.12500000000E+03  0.12500000000E+03 0.  0.
        -11    1    3    3    0    0  0.20301663302E+02 -0.48093989581E+02  0.54011600866E-01  0.52203374260E+02  0.51100000000E-03 0.  1.
         23    2    1    0    0    0 -0.13675550664E+02 -0.23223864243E+02 -0.11240678599E+02  0.95798605997E+02  0.91239528163E+02 0.  0.
         11    1    3    3    0    0 -0.33977213966E+02  0.24870125339E+02 -0.11294690200E+02  0.43595231737E+02  0.51100000000E-03 0. -1.
         22    1    1    0    0    0  0.13675550664E+02  0.23223864243E+02  0.11240678599E+02  0.29201394003E+02  0.00000000000E+00 0.  1.
</event>
<event>
 5    1  0.1717518E-003  0.9118800E+02  0.7818608E-02  0.1130116E+00
         25   -1    0    0    0    0  0.00000000000E+00  0.00000000000E+00  0.99999998245E-14  0.12500000000E+03  0.12500000000E+03 0.  0.
        -11    1    3    3    0    0 -0.36326638635E+00 -0.60040743679E+00 -0.55850784134E+02  0.55855192599E+02  0.51100000000E-03 0. -1.
         23    2    1    0    0    0  0.53379083811E+01  0.18715875344E+02 -0.19280882431E+02  0.97604203186E+02  0.93680578545E+02 0.  0.
         11    1    3    3    0    0  0.57011747675E+01  0.19316282780E+02  0.36569901703E+02  0.41749010588E+02  0.51100000000E-03 0.  1.
         22    1    1    0    0    0 -0.53379083811E+01 -0.18715875344E+02  0.19280882431E+02  0.27395796814E+02  0.00000000000E+00 0. -1.
</event>
<event>
 5    1  0.1717518E-003  0.9118800E+02  0.7818608E-02  0.1130116E+00
         25   -1    0    0    0    0  0.00000000000E+00  0.00000000000E+00  0.99999998245E-14  0.12500000000E+03  0.12500000000E+03 0.  0.
        -11    1    3    3    0    0 -0.41267233217E+02 -0.20020203030E+02  0.30188296732E+02  0.54910165968E+02  0.51100000000E-03 0. -1.
         23    2    1    0    0    0 -0.28242324115E+01 -0.24122363970E+02  0.83221390646E+01  0.99326614348E+02  0.95951308418E+02 0.  0.
         11    1    3    3    0    0  0.38443000806E+02 -0.41021609399E+01 -0.21866157668E+02  0.44416448381E+02  0.51100000000E-03 0.  1.
         22    1    1    0    0    0  0.28242324115E+01  0.24122363970E+02 -0.83221390646E+01  0.25673385652E+02  0.00000000000E+00 0. -1.
</event>
<event>
 5    1  0.1717518E-003  0.9118800E+02  0.7818608E-02  0.1130116E+00
         25   -1    0    0    0    0  0.00000000000E+00  0.00000000000E+00  0.99999998245E-14  0.12500000000E+03  0.12500000000E+03 0.  0.
        -11    1    3    3    0    0  0.13690467068E+02 -0.42182390852E+02  0.41285204084E+01  0.44540180371E+02  0.51100000000E-03 0. -1.
         23    2    1    0    0    0 -0.25262266630E+01 -0.28751183797E+01  0.30292887240E+02  0.94466294948E+02  0.89395602448E+02 0.  0.
         11    1    3    3    0    0 -0.16216693731E+02  0.39307272472E+02  0.26164366832E+02  0.49926114577E+02  0.51100000000E-03 0.  1.
         22    1    1    0    0    0  0.25262266630E+01  0.28751183797E+01 -0.30292887240E+02  0.30533705052E+02  0.00000000000E+00 0. -1.
</event>
<event>
 5    1  0.1717518E-003  0.9118800E+02  0.7818608E-02  0.1130116E+00
         25   -1    0    0    0    0  0.00000000000E+00  0.00000000000E+00  0.99999998245E-14  0.12500000000E+03  0.12500000000E+03 0.  0.
        -11    1    3    3    0    0  0.46312391745E+02 -0.39919497231E+01  0.11095159973E+02  0.47789913861E+02  0.51100000000E-03 0.  1.
         23    2    1    0    0    0  0.15945422130E+02 -0.15034422549E+01 -0.25176695228E+02  0.95160717031E+02  0.90361381451E+02 0.  0.
         11    1    3    3    0    0 -0.30366969616E+02  0.24885074682E+01 -0.36271855200E+02  0.47370803170E+02  0.51100000000E-03 0. -1.
         22    1    1    0    0    0 -0.15945422130E+02  0.15034422549E+01  0.25176695228E+02  0.29839282969E+02  0.00000000000E+00 0.  1.
</event>
<event>
 5    1  0.1717518E-003  0.9118800E+02  0.7818608E-02  0.1130116E+00
         25   -1    0    0    0    0  0.00000000000E+00  0.00000000000E+00  0.99999998245E-14  0.12500000000E+03  0.12500000000E+03 0.  0.
        -11    1    3    3    0    0  0.35038866071E+02 -0.10159102208E+02  0.81991973488E+01  0.37391928683E+02  0.51100000000E-03 0. -1.
         23    2    1    0    0    0 -0.17337767148E+02  0.62751256672E+01  0.24204919982E+02  0.94572158750E+02  0.89543507232E+02 0.  0.
         11    1    3    3    0    0 -0.52376633219E+02  0.16434227875E+02  0.16005722633E+02  0.57180230067E+02  0.51100000000E-03 0.  1.
         22    1    1    0    0    0  0.17337767148E+02 -0.62751256672E+01 -0.24204919982E+02  0.30427841250E+02  0.00000000000E+00 0.  1.
</event>
<event>
 5    1  0.1717518E-003  0.9118800E+02  0.7818608E-02  0.1130116E+00
         25   -1    0    0    0    0  0.00000000000E+00  0.00000000000E+00  0.99999998245E-14  0.12500000000E+03  0.12500000000E+03 0.  0.
        -11    1    3    3    0    0 -0.16132124631E+02 -0.48495786613E+02 -0.32147393009E+02  0.60378320959E+02  0.51100000000E-03 0. -1.
         23    2    1    0    0    0 -0.81935128438E+01 -0.27873518114E+02 -0.47745505537E+01  0.95557462783E+02  0.90908556780E+02 0.  0.
         11    1    3    3    0    0  0.79386117872E+01  0.20622268499E+02  0.27372842455E+02  0.35179141824E+02  0.51100000000E-03 0.  1.
         22    1    1    0    0    0  0.81935128438E+01  0.27873518114E+02  0.47745505537E+01  0.29442537217E+02  0.00000000000E+00 0. -1.
</event>
<event>
 5    1  0.1717518E-003  0.9118800E+02  0.7818608E-02  0.1130116E+00
         25   -1    0    0    0    0  0.00000000000E+00  0.00000000000E+00  0.99999998245E-14  0.12500000000E+03  0.12500000000E+03 0.  0.
        -11    1    3    3    0    0 -0.38496556457E+02 -0.38164276641E+02  0.27067929869E+02  0.60590178233E+02  0.51100000000E-03 0. -1.
         23    2    1    0    0    0 -0.25452115827E+02 -0.98877208885E+01  0.12507181266E+02  0.94966571830E+02  0.90092413429E+02 0.  0.
         11    1    3    3    0    0  0.13044440630E+02  0.28276555752E+02 -0.14560748604E+02  0.34376393597E+02  0.51100000000E-03 0.  1.
         22    1    1    0    0    0  0.25452115827E+02  0.98877208885E+01 -0.12507181266E+02  0.30033428170E+02  0.00000000000E+00 0. -1.
</event>
<event>
 5    1  0.1717518E-003  0.9118800E+02  0.7818608E-02  0.1130116E+00
         25   -1    0    0    0    0  0.00000000000E+00  0.00000000000E+00  0.99999998245E-14  0.12500000000E+03  0.12500000000E+03 0.  0.
        -11    1    3    3    0    0 -0.23311791986E+02  0.29307792518E+02  0.11992796306E+02  0.39321921512E+02  0.51100000000E-03 0.  1.
         23    2    1    0    0    0 -0.69594767540E+01 -0.25239135209E+02  0.11836928361E+02  0.96267420307E+02  0.91879568331E+02 0.  0.
         11    1    3    3    0    0  0.16352315232E+02 -0.54546927727E+02 -0.15586794542E+00  0.56945498795E+02  0.51100000000E-03 0. -1.
         22    1    1    0    0    0  0.69594767540E+01  0.25239135209E+02 -0.11836928361E+02  0.28732579693E+02  0.00000000000E+00 0. -1.
</event>
<event>
 5    1  0.1717518E-003  0.9118800E+02  0.7818608E-02  0.1130116E+00
         25   -1    0    0    0    0  0.00000000000E+00  0.00000000000E+00  0.99999998245E-14  0.12500000000E+03  0.12500000000E+03 0.  0.
        -11    1    3    3    0    0  0.14854552371E+02 -0.53110286976E+02  0.21112360240E+02  0.59051605093E+02  0.51100000000E-03 0.  1.
         23    2    1    0    0    0 -0.53929928658E+01 -0.29138904977E+02  0.31706076397E+01  0.95197098999E+02  0.90411695868E+02 0.  0.
         11    1    3    3    0    0 -0.20247545237E+02  0.23971382000E+02 -0.17941752600E+02  0.36145493906E+02  0.51100000000E-03 0. -1.
         22    1    1    0    0    0  0.53929928658E+01  0.29138904977E+02 -0.31706076397E+01  0.29802901001E+02  0.00000000000E+00 0.  1.
</event>
<event>
 5    1  0.1717518E-003  0.9118800E+02  0.7818608E-02  0.1130116E+00
         25   -1    0    0    0    0  0.00000000000E+00  0.00000000000E+00  0.99999998245E-14  0.12500000000E+03  0.12500000000E+03 0.  0.
        -11    1    3    3    0    0 -0.32141402902E+01 -0.29880047675E+02  0.28678186815E+02  0.41540177492E+02  0.51100000000E-03 0. -1.
         23    2    1    0    0    0 -0.61298853187E+01 -0.21327811718E+02 -0.22433909474E+02  0.93444789004E+02  0.87955655026E+02 0.  0.
         11    1    3    3    0    0 -0.29157450285E+01  0.85522359565E+01 -0.51112096289E+02  0.51904611512E+02  0.51100000000E-03 0.  1.
         22    1    1    0    0    0  0.61298853187E+01  0.21327811718E+02  0.22433909474E+02  0.31555210996E+02  0.00000000000E+00 0. -1.
</event>
<event>
 5    1  0.1717518E-003  0.9118800E+02  0.7818608E-02  0.1130116E+00
         25   -1    0    0    0    0  0.00000000000E+00  0.00000000000E+00  0.99999998245E-14  0.12500000000E+03  0.12500000000E+03 0.  0.
        -11    1    3    3    0    0  0.28762735802E+02  0.12050537897E+01 -0.43371559685E+02  0.52056116982E+02  0.51100000000E-03 0. -1.
         23    2    1    0    0    0  0.11523838865E+01 -0.22322891389E+02 -0.17492519494E+02  0.96616418357E+02  0.92353151486E+02 0.  0.
         11    1    3    3    0    0 -0.27610351915E+02 -0.23527945179E+02  0.25879040191E+02  0.44560301376E+02  0.51100000000E-03 0.  1.
         22    1    1    0    0    0 -0.11523838865E+01  0.22322891389E+02  0.17492519494E+02  0.28383581643E+02  0.00000000000E+00 0. -1.
</event>
<event>
 5    1  0.1717518E-003  0.9118800E+02  0.7818608E-02  0.1130116E+00
         25   -1    0    0    0    0  0.00000000000E+00  0.00000000000E+00  0.99999998245E-14  0.12500000000E+03  0.12500000000E+03 0.  0.
        -11    1    3    3    0    0  0.59648463337E+00  0.13772573329E+02 -0.25170990271E+02  0.28698751219E+02  0.51100000000E-03 0. -1.
         23    2    1    0    0    0  0.24096676332E+02  0.42845577852E+02  0.33643967225E+01  0.75728177251E+02  0.57506906653E+02 0.  0.
         11    1    3    3    0    0  0.23500191698E+02  0.29073004523E+02  0.28535386993E+02  0.47029426032E+02  0.51100000000E-03 0.  1.
         22    1    1    0    0    0 -0.24096676332E+02 -0.42845577852E+02 -0.33643967225E+01  0.49271822749E+02  0.00000000000E+00 0. -1.
</event>
<event>
 5    1  0.1717518E-003  0.9118800E+02  0.7818608E-02  0.1130116E+00
         25   -1    0    0    0    0  0.00000000000E+00  0.00000000000E+00  0.99999998245E-14  0.12500000000E+03  0.12500000000E+03 0.  0.
        -11    1    3    3    0    0  0.58812630546E+02  0.18768339606E+02  0.68450963172E+01  0.62113053597E+02  0.51100000000E-03 0.  1.
         23    2    1    0    0    0  0.29024290319E+02  0.65975106032E+01  0.75242567469E+01  0.94299006298E+02  0.89161379389E+02 0.  0.
         11    1    3    3    0    0 -0.29788340227E+02 -0.12170829003E+02  0.67916042971E+00  0.32185952701E+02  0.51100000000E-03 0. -1.
         22    1    1    0    0    0 -0.29024290319E+02 -0.65975106032E+01 -0.75242567469E+01  0.30700993702E+02  0.00000000000E+00 0.  1.
</event>
<event>
 5    1  0.1717518E-003  0.9118800E+02  0.7818608E-02  0.1130116E+00
         25   -1    0    0    0    0  0.00000000000E+00  0.00000000000E+00  0.99999998245E-14  0.12500000000E+03  0.12500000000E+03 0.  0.
        -11    1    3    3    0    0  0.29327040620E+02 -0.27104784991E+02 -0.34201864609E+02  0.52578628966E+02  0.51100000000E-03 0. -1.
         23    2    1    0    0    0  0.23445852304E+02 -0.22700785567E+02  0.45755282638E+01  0.92045954505E+02  0.85944683526E+02 0.  0.
         11    1    3    3    0    0 -0.58811883167E+01  0.44039994249E+01  0.38777392873E+02  0.39467325539E+02  0.51100000000E-03 0.  1.
         22    1    1    0    0    0 -0.23445852304E+02  0.22700785567E+02 -0.45755282638E+01  0.32954045495E+02  0.00000000000E+00 0. -1.
</event>
<event>
 5    1  0.1717518E-003  0.9118800E+02  0.7818608E-02  0.1130116E+00
         25   -1    0    0    0    0  0.00000000000E+00  0.00000000000E+00  0.99999998245E-14  0.12500000000E+03  0.12500000000E+03 0.  0.
        -11    1    3    3    0    0 -0.11921190377E+02  0.43099153370E+02  0.28486954618E+02  0.53020358212E+02  0.51100000000E-03 0.  1.
         23    2    1    0    0    0 -0.20079812135E+02  0.24153371943E+02 -0.58239987963E+01  0.93054684325E+02  0.87399491309E+02 0.  0.
         11    1    3    3    0    0 -0.81586217586E+01 -0.18945781427E+02 -0.34310953414E+02  0.40034326113E+02  0.51100000000E-03 0. -1.
         22    1    1    0    0    0  0.20079812135E+02 -0.24153371943E+02  0.58239987963E+01  0.31945315675E+02  0.00000000000E+00 0.  1.
</event>
<event>
 5    1  0.1717518E-003  0.9118800E+02  0.7818608E-02  0.1130116E+00
         25   -1    0    0    0    0  0.00000000000E+00  0.00000000000E+00  0.99999998245E-14  0.12500000000E+03  0.12500000000E+03 0.  0.
        -11    1    3    3    0    0 -0.42155762563E+02 -0.34829862647E+02  0.28822328352E+02  0.61813867871E+02  0.51100000000E-03 0.  1.
         23    2    1    0    0    0 -0.17325936593E+02 -0.21871479912E+02  0.11022899914E+02  0.94999099433E+02  0.90137533016E+02 0.  0.
         11    1    3    3    0    0  0.24829825971E+02  0.12958382735E+02 -0.17799428438E+02  0.33185231562E+02  0.51100000000E-03 0. -1.
         22    1    1    0    0    0  0.17325936593E+02  0.21871479912E+02 -0.11022899914E+02  0.30000900567E+02  0.00000000000E+00 0.  1.
</event>
<event>
 5    1  0.1717518E-003  0.9118800E+02  0.7818608E-02  0.1130116E+00
         25   -1    0    0    0    0  0.00000000000E+00  0.00000000000E+00  0.99999998245E-14  0.12500000000E+03  0.12500000000E+03 0.  0.
        -11    1    3    3    0    0 -0.34423143601E+02 -0.24481280639E+02  0.15179543529E+02  0.44885459328E+02  0.51100000000E-03 0.  1.
         23    2    1    0    0    0 -0.25479187751E+01 -0.18894235831E+02 -0.23124417428E+02  0.95029635986E+02  0.90179870240E+02 0.  0.
         11    1    3    3    0    0  0.31875224826E+02  0.55870448080E+01 -0.38303960958E+02  0.50144176658E+02  0.51100000000E-03 0. -1.
         22    1    1    0    0    0  0.25479187751E+01  0.18894235831E+02  0.23124417428E+02  0.29970364014E+02  0.00000000000E+00 0. -1.
</event>
<event>
 5    1  0.1717518E-003  0.9118800E+02  0.7818608E-02  0.1130116E+00
         25   -1    0    0    0    0  0.00000000000E+00  0.00000000000E+00  0.99999998245E-14  0.12500000000E+03  0.12500000000E+03 0.  0.
        -11    1    3    3    0    0 -0.38471444904E+02 -0.26842386669E+02  0.34725029393E+02  0.58364316682E+02  0.51100000000E-03 0.  1.
         23    2    1    0    0    0 -0.32665330901E+02 -0.21449100915E+02  0.95292236943E+01  0.84776948435E+02  0.74627321463E+02 0.  0.
         11    1    3    3    0    0  0.58061140030E+01  0.53932857536E+01 -0.25195805699E+02  0.26412631753E+02  0.51100000000E-03 0. -1.
         22    1    1    0    0    0  0.32665330901E+02  0.21449100915E+02 -0.95292236943E+01  0.40223051565E+02  0.00000000000E+00 0.  1.
</event>
<event>
 5    1  0.1717518E-003  0.9118800E+02  0.7818608E-02  0.1130116E+00
         25   -1    0    0    0    0  0.00000000000E+00  0.00000000000E+00  0.99999998245E-14  0.12500000000E+03  0.12500000000E+03 0.  0.
        -11    1    3    3    0    0 -0.47688983154E+01  0.20666986185E+02 -0.31546522318E+02  0.38013810382E+02  0.51100000000E-03 0. -1.
         23    2    1    0    0    0 -0.29944649921E+02  0.10315058703E+01  0.12600226930E+02  0.92495972835E+02  0.86596727472E+02 0.  0.
         11    1    3    3    0    0 -0.25175751605E+02 -0.19635480315E+02  0.44146749248E+02  0.54482162453E+02  0.51100000000E-03 0.  1.
         22    1    1    0    0    0  0.29944649921E+02 -0.10315058703E+01 -0.12600226930E+02  0.32504027165E+02  0.00000000000E+00 0. -1.
</event>
<event>
 5    1  0.1717518E-003  0.9118800E+02  0.7818608E-02  0.1130116E+00
         25   -1    0    0    0    0  0.00000000000E+00  0.00000000000E+00  0.99999998245E-14  0.12500000000E+03  0.12500000000E+03 0.  0.
        -11    1    3    3    0    0 -0.75056560563E+01 -0.15579407020E+00  0.56223853162E+02  0.56722842041E+02  0.51100000000E-03 0.  1.
         23    2    1    0    0    0 -0.20454231058E+02  0.48860679539E+01  0.18262787527E+02  0.97147196973E+02  0.93068787696E+02 0.  0.
         11    1    3    3    0    0 -0.12948575002E+02  0.50418620241E+01 -0.37961065634E+02  0.40424354931E+02  0.51100000000E-03 0. -1.
         22    1    1    0    0    0  0.20454231058E+02 -0.48860679539E+01 -0.18262787527E+02  0.27852803027E+02  0.00000000000E+00 0.  1.
</event>
<event>
 5    1  0.1717518E-003  0.9118800E+02  0.7818608E-02  0.1130116E+00
         25   -1    0    0    0    0  0.00000000000E+00  0.00000000000E+00  0.99999998245E-14  0.12500000000E+03  0.12500000000E+03 0.  0.
        -11    1    3    3    0    0 -0.26632844627E+02 -0.64137110307E+00 -0.89442512266E+01  0.28101946553E+02  0.51100000000E-03 0.  1.
         23    2    1    0    0    0  0.76841308756E+01 -0.98351698636E+00  0.37980683876E+02  0.86237317938E+02  0.77034599269E+02 0.  0.
         11    1    3    3    0    0  0.34316975503E+02 -0.34214588329E+00  0.46924935102E+02  0.58135371385E+02  0.51100000000E-03 0. -1.
         22    1    1    0    0    0 -0.76841308756E+01  0.98351698636E+00 -0.37980683876E+02  0.38762682062E+02  0.00000000000E+00 0. -1.
</event>
<event>
 5    1  0.1717518E-003  0.9118800E+02  0.7818608E-02  0.1130116E+00
         25   -1    0    0    0    0  0.00000000000E+00  0.00000000000E+00  0.99999998245E-14  0.12500000000E+03  0.12500000000E+03 0.  0.
        -11    1    3    3    0    0 -0.23931295259E+02 -0.43363546019E+01 -0.48105589684E+02  0.53904161464E+02  0.51100000000E-03 0. -1.
         23    2    1    0    0    0 -0.31205827157E+02  0.52462292434E+01 -0.13399924876E+02  0.90635999119E+02  0.83868944072E+02 0.  0.
         11    1    3    3    0    0 -0.72745318984E+01  0.95825838453E+01  0.34705664808E+02  0.36731837655E+02  0.51100000000E-03 0.  1.
         22    1    1    0    0    0  0.31205827157E+02 -0.52462292434E+01  0.13399924876E+02  0.34364000881E+02  0.00000000000E+00 0. -1.
</event>
<event>
 5    1  0.1717518E-003  0.9118800E+02  0.7818608E-02  0.1130116E+00
         25   -1    0    0    0    0  0.00000000000E+00  0.00000000000E+00  0.99999998245E-14  0.12500000000E+03  0.12500000000E+03 0.  0.
        -11    1    3    3    0    0  0.18823261106E+02  0.35859205420E+02 -0.74652210894E+00  0.40506234922E+02  0.51100000000E-03 0.  1.
         23    2    1    0    0    0 -0.22865564150E+02  0.40427430191E+01  0.17382708454E+02  0.95994201473E+02  0.91507105561E+02 0.  0.
         11    1    3    3    0    0 -0.41688825255E+02 -0.31816462401E+02  0.18129230563E+02  0.55487966551E+02  0.51100000000E-03 0. -1.
         22    1    1    0    0    0  0.22865564150E+02 -0.40427430191E+01 -0.17382708454E+02  0.29005798527E+02  0.00000000000E+00 0. -1.
</event>
<event>
 5    1  0.1717518E-003  0.9118800E+02  0.7818608E-02  0.1130116E+00
         25   -1    0    0    0    0  0.00000000000E+00  0.00000000000E+00  0.99999998245E-14  0.12500000000E+03  0.12500000000E+03 0.  0.
        -11    1    3    3    0    0 -0.24246368733E+02 -0.13989325947E+02 -0.34072660267E+02  0.44096868541E+02  0.51100000000E-03 0. -1.
         23    2    1    0    0    0  0.23504329869E+02 -0.95286608063E+01 -0.13315178739E+02  0.96354880272E+02  0.91998478618E+02 0.  0.
         11    1    3    3    0    0  0.47750698602E+02  0.44606651408E+01  0.20757481527E+02  0.52258011732E+02  0.51100000000E-03 0.  1.
         22    1    1    0    0    0 -0.23504329869E+02  0.95286608063E+01  0.13315178739E+02  0.28645119728E+02  0.00000000000E+00 0.  1.
</event>
<event>
 5    1  0.1717518E-003  0.9118800E+02  0.7818608E-02  0.1130116E+00
         25   -1    0    0    0    0  0.00000000000E+00  0.00000000000E+00  0.99999998245E-14  0.12500000000E+03  0.12500000000E+03 0.  0.
        -11    1    3    3    0    0 -0.76966602871E+01 -0.32133534820E+02  0.20586670029E+02  0.38930882635E+02  0.51100000000E-03 0.  1.
         23    2    1    0    0    0  0.21064934201E+02  0.12040349518E+02 -0.86900713378E+01  0.99227557173E+02  0.95822175373E+02 0.  0.
         11    1    3    3    0    0  0.28761594488E+02  0.44173884338E+02 -0.29276741367E+02  0.60296674538E+02  0.51100000000E-03 0. -1.
         22    1    1    0    0    0 -0.21064934201E+02 -0.12040349518E+02  0.86900713378E+01  0.25772442827E+02  0.00000000000E+00 0. -1.
</event>
<event>
 5    1  0.1717518E-003  0.9118800E+02  0.7818608E-02  0.1130116E+00
         25   -1    0    0    0    0  0.00000000000E+00  0.00000000000E+00  0.99999998245E-14  0.12500000000E+03  0.12500000000E+03 0.  0.
        -11    1    3    3    0    0 -0.35715292281E+02 -0.47579455692E+01 -0.32648183910E+02  0.48622258912E+02  0.51100000000E-03 0.  1.
         23    2    1    0    0    0 -0.19540586700E+02  0.21857038517E+02  0.24899303110E+01  0.95576125098E+02  0.90934213993E+02 0.  0.
         11    1    3    3    0    0  0.16174705581E+02  0.26614984086E+02  0.35138114221E+02  0.46953866186E+02  0.51100000000E-03 0. -1.
         22    1    1    0    0    0  0.19540586700E+02 -0.21857038517E+02 -0.24899303110E+01  0.29423874902E+02  0.00000000000E+00 0.  1.
</event>
<event>
 5    1  0.1717518E-003  0.9118800E+02  0.7818608E-02  0.1130116E+00
         25   -1    0    0    0    0  0.00000000000E+00  0.00000000000E+00  0.99999998245E-14  0.12500000000E+03  0.12500000000E+03 0.  0.
        -11    1    3    3    0    0  0.44369637168E+01 -0.18811366528E+01  0.60820357262E+02  0.61010992287E+02  0.51100000000E-03 0. -1.
         23    2    1    0    0    0  0.11450060028E+02 -0.11652037807E+01  0.25572053601E+02  0.96957327162E+02  0.92813424625E+02 0.  0.
         11    1    3    3    0    0  0.70130963110E+01  0.71593287213E+00 -0.35248303661E+02  0.35946334875E+02  0.51100000000E-03 0.  1.
         22    1    1    0    0    0 -0.11450060028E+02  0.11652037807E+01 -0.25572053601E+02  0.28042672838E+02  0.00000000000E+00 0. -1.
</event>
<event>
 5    1  0.1717518E-003  0.9118800E+02  0.7818608E-02  0.1130116E+00
         25   -1    0    0    0    0  0.00000000000E+00  0.00000000000E+00  0.99999998245E-14  0.12500000000E+03  0.12500000000E+03 0.  0.
        -11    1    3    3    0    0 -0.15054296753E+02 -0.48803899136E+02 -0.21247796453E+02  0.55316555171E+02  0.51100000000E-03 0.  1.
         23    2    1    0    0    0 -0.23819813611E+02 -0.23518199700E+02  0.29505831082E+01  0.91396500506E+02  0.84994853529E+02 0.  0.
         11    1    3    3    0    0 -0.87655168581E+01  0.25285699436E+02  0.24198379561E+02  0.36079945335E+02  0.51100000000E-03 0. -1.
         22    1    1    0    0    0  0.23819813611E+02  0.23518199700E+02 -0.29505831082E+01  0.33603499494E+02  0.00000000000E+00 0.  1.
</event>
<event>
 5    1  0.1717518E-003  0.9118800E+02  0.7818608E-02  0.1130116E+00
         25   -1    0    0    0    0  0.00000000000E+00  0.00000000000E+00  0.99999998245E-14  0.12500000000E+03  0.12500000000E+03 0.  0.
        -11    1    3    3    0    0  0.69470077568E+01  0.34964282323E+02  0.17928541782E+02  0.39902312788E+02  0.51100000000E-03 0.  1.
         23    2    1    0    0    0 -0.92358146884E+01 -0.17940613194E+02  0.21715833240E+02  0.95356395495E+02  0.90631665955E+02 0.  0.
         11    1    3    3    0    0 -0.16182822445E+02 -0.52904895518E+02  0.37872914580E+01  0.55454082707E+02  0.51100000000E-03 0. -1.
         22    1    1    0    0    0  0.92358146884E+01  0.17940613194E+02 -0.21715833240E+02  0.29643604505E+02  0.00000000000E+00 0.  1.
</event>
<event>
 5    1  0.1717518E-003  0.9118800E+02  0.7818608E-02  0.1130116E+00
         25   -1    0    0    0    0  0.00000000000E+00  0.00000000000E+00  0.99999998245E-14  0.12500000000E+03  0.12500000000E+03 0.  0.
        -11    1    3    3    0    0  0.44394764156E+01  0.21937287817E+02 -0.49885387269E+02  0.54676369766E+02  0.51100000000E-03 0.  1.
         23    2    1    0    0    0 -0.76052185531E+01  0.24049356070E+02 -0.76562579955E+01  0.98640387652E+02  0.95053126792E+02 0.  0.
         11    1    3    3    0    0 -0.12044694969E+02  0.21120682538E+01  0.42229129273E+02  0.43964017886E+02  0.51100000000E-03 0. -1.
         22    1    1    0    0    0  0.76052185531E+01 -0.24049356070E+02  0.76562579955E+01  0.26359612348E+02  0.00000000000E+00 0.  1.
</event>
<event>
 5    1  0.1717518E-003  0.9118800E+02  0.7818608E-02  0.1130116E+00
         25   -1    0    0    0    0  0.00000000000E+00  0.00000000000E+00  0.99999998245E-14  0.12500000000E+03  0.12500000000E+03 0.  0.
        -11    1    3    3    0    0 -0.13812541497E+02  0.54592681272E+02  0.21903256337E+02  0.60422676120E+02  0.51100000000E-03 0.  1.
         23    2    1    0    0    0  0.20302738135E+01  0.31509502290E+02  0.52685773930E+01  0.92988616805E+02  0.87304949466E+02 0.  0.
         11    1    3    3    0    0  0.15842815310E+02 -0.23083178982E+02 -0.16634678944E+02  0.32565940685E+02  0.51100000000E-03 0. -1.
         22    1    1    0    0    0 -0.20302738135E+01 -0.31509502290E+02 -0.52685773930E+01  0.32011383195E+02  0.00000000000E+00 0.  1.
</event>
<event>
 5    1  0.1717518E-003  0.9118800E+02  0.7818608E-02  0.1130116E+00
         25   -1    0    0    0    0  0.00000000000E+00  0.00000000000E+00  0.99999998245E-14  0.12500000000E+03  0.12500000000E+03 0.  0.
        -11    1    3    3    0    0  0.37161964844E+02  0.88010748267E+01 -0.30799065150E+02  0.49061726055E+02  0.51100000000E-03 0. -1.
         23    2    1    0    0    0  0.25555974437E+02  0.58495507040E+01  0.13892341934E+02  0.95329775240E+02  0.90594943623E+02 0.  0.
         11    1    3    3    0    0 -0.11605990406E+02 -0.29515241227E+01  0.44691407084E+02  0.46268049185E+02  0.51100000000E-03 0.  1.
         22    1    1    0    0    0 -0.25555974437E+02 -0.58495507040E+01 -0.13892341934E+02  0.29670224760E+02  0.00000000000E+00 0.  1.
</event>
<event>
 5    1  0.1717518E-003  0.9118800E+02  0.7818608E-02  0.1130116E+00
         25   -1    0    0    0    0  0.00000000000E+00  0.00000000000E+00  0.99999998245E-14  0.12500000000E+03  0.12500000000E+03 0.  0.
        -11    1    3    3    0    0 -0.20788207194E+02 -0.62029092870E+01  0.36339237935E+02  0.42322167430E+02  0.51100000000E-03 0.  1.
         23    2    1    0    0    0 -0.29948519713E+02 -0.62420109193E+00 -0.12658579580E+02  0.92480112285E+02  0.86573830175E+02 0.  0.
         11    1    3    3    0    0 -0.91603125194E+01  0.55787081951E+01 -0.48997817515E+02  0.50157944855E+02  0.51100000000E-03 0. -1.
         22    1    1    0    0    0  0.29948519713E+02  0.62420109193E+00  0.12658579580E+02  0.32519887715E+02  0.00000000000E+00 0. -1.
</event>
<event>
 5    1  0.1717518E-003  0.9118800E+02  0.7818608E-02  0.1130116E+00
         25   -1    0    0    0    0  0.00000000000E+00  0.00000000000E+00  0.99999998245E-14  0.12500000000E+03  0.12500000000E+03 0.  0.
        -11    1    3    3    0    0 -0.67905457183E+01 -0.93375662051E+01 -0.34481413328E+02  0.36363024064E+02  0.51100000000E-03 0. -1.
         23    2    1    0    0    0  0.28079401753E+02 -0.39602330281E+01  0.11567192442E+02  0.94374256100E+02  0.89266813683E+02 0.  0.
         11    1    3    3    0    0  0.34869947471E+02  0.53773331770E+01  0.46048605769E+02  0.58011232036E+02  0.51100000000E-03 0.  1.
         22    1    1    0    0    0 -0.28079401753E+02  0.39602330281E+01 -0.11567192442E+02  0.30625743900E+02  0.00000000000E+00 0.  1.
</event>
<event>
 5    1  0.1717518E-003  0.9118800E+02  0.7818608E-02  0.1130116E+00
         25   -1    0    0    0    0  0.00000000000E+00  0.00000000000E+00  0.99999998245E-14  0.12500000000E+03  0.12500000000E+03 0.  0.
        -11    1    3    3    0    0 -0.29989736251E+02  0.15817996278E+02  0.33056193198E+02  0.47352985077E+02  0.51100000000E-03 0.  1.
         23    2    1    0    0    0  0.13465420302E+02 -0.35118197641E+01  0.26103459431E+02  0.95418907791E+02  0.90717842500E+02 0.  0.
         11    1    3    3    0    0  0.43455156554E+02 -0.19329816042E+02 -0.69527337670E+01  0.48065922715E+02  0.51100000000E-03 0. -1.
         22    1    1    0    0    0 -0.13465420302E+02  0.35118197641E+01 -0.26103459431E+02  0.29581092209E+02  0.00000000000E+00 0.  1.
</event>
<event>
 5    1  0.1717518E-003  0.9118800E+02  0.7818608E-02  0.1130116E+00
         25   -1    0    0    0    0  0.00000000000E+00  0.00000000000E+00  0.99999998245E-14  0.12500000000E+03  0.12500000000E+03 0.  0.
        -11    1    3    3    0    0  0.59552579737E+02 -0.50360165477E+01 -0.17722181436E+02  0.62337363844E+02  0.51100000000E-03 0.  1.
         23    2    1    0    0    0  0.31663796552E+02 -0.17443419286E+01 -0.62203785670E+01  0.92683876309E+02  0.86867537535E+02 0.  0.
         11    1    3    3    0    0 -0.27888783184E+02  0.32916746191E+01  0.11501802869E+02  0.30346512465E+02  0.51100000000E-03 0. -1.
         22    1    1    0    0    0 -0.31663796552E+02  0.17443419286E+01  0.62203785670E+01  0.32316123691E+02  0.00000000000E+00 0.  1.
</event>
<event>
 5    1  0.1717518E-003  0.9118800E+02  0.7818608E-02  0.1130116E+00
         25   -1    0    0    0    0  0.00000000000E+00  0.00000000000E+00  0.99999998245E-14  0.12500000000E+03  0.12500000000E+03 0.  0.
        -11    1    3    3    0    0 -0.12959577813E+02 -0.57984594419E+01 -0.39905072663E+02  0.42355490948E+02  0.51100000000E-03 0. -1.
         23    2    1    0    0    0  0.25958986553E+02 -0.16955652640E+02 -0.11002192447E+02  0.92099979059E+02  0.86023222241E+02 0.  0.
         11    1    3    3    0    0  0.38918564365E+02 -0.11157193199E+02  0.28902880216E+02  0.49744488110E+02  0.51100000000E-03 0.  1.
         22    1    1    0    0    0 -0.25958986553E+02  0.16955652640E+02  0.11002192447E+02  0.32900020941E+02  0.00000000000E+00 0.  1.
</event>
<event>
 5    1  0.1717518E-003  0.9118800E+02  0.7818608E-02  0.1130116E+00
         25   -1    0    0    0    0  0.00000000000E+00  0.00000000000E+00  0.99999998245E-14  0.12500000000E+03  0.12500000000E+03 0.  0.
        -11    1    3    3    0    0  0.31593361342E+02 -0.31787071276E+02 -0.64970654036E+01  0.45285430774E+02  0.51100000000E-03 0.  1.
         23    2    1    0    0    0 -0.17373905053E+02 -0.23260538681E+02 -0.75532310164E+01  0.95000724420E+02  0.90139786471E+02 0.  0.
         11    1    3    3    0    0 -0.48967266395E+02  0.85265325952E+01 -0.10561656128E+01  0.49715293646E+02  0.51100000000E-03 0. -1.
         22    1    1    0    0    0  0.17373905053E+02  0.23260538681E+02  0.75532310164E+01  0.29999275580E+02  0.00000000000E+00 0. -1.
</event>
<event>
 5    1  0.1717518E-003  0.9118800E+02  0.7818608E-02  0.1130116E+00
         25   -1    0    0    0    0  0.00000000000E+00  0.00000000000E+00  0.99999998245E-14  0.12500000000E+03  0.12500000000E+03 0.  0.
        -11    1    3    3    0    0 -0.55559430317E+02 -0.14236302234E+02  0.13478609027E+02  0.58916852428E+02  0.51100000000E-03 0.  1.
         23    2    1    0    0    0 -0.26076350584E+02  0.83403798425E+01  0.81737996715E+01  0.96428178273E+02  0.92098016094E+02 0.  0.
         11    1    3    3    0    0  0.29483079733E+02  0.22576682076E+02 -0.53048093554E+01  0.37511325845E+02  0.51100000000E-03 0. -1.
         22    1    1    0    0    0  0.26076350584E+02 -0.83403798425E+01 -0.81737996715E+01  0.28571821727E+02  0.00000000000E+00 0.  1.
</event>
<event>
 5    1  0.1717518E-003  0.9118800E+02  0.7818608E-02  0.1130116E+00
         25   -1    0    0    0    0  0.00000000000E+00  0.00000000000E+00  0.99999998245E-14  0.12500000000E+03  0.12500000000E+03 0.  0.
        -11    1    3    3    0    0  0.24330536125E+02 -0.11007290391E+02 -0.23613963369E+02  0.35647646433E+02  0.51100000000E-03 0.  1.
         23    2    1    0    0    0 -0.13076460293E+02 -0.15858857082E+02  0.22036140598E+02  0.94865490643E+02  0.89952057568E+02 0.  0.
         11    1    3    3    0    0 -0.37406996418E+02 -0.48515666903E+01  0.45650103968E+02  0.59217844210E+02  0.51100000000E-03 0. -1.
         22    1    1    0    0    0  0.13076460293E+02  0.15858857082E+02 -0.22036140598E+02  0.30134509357E+02  0.00000000000E+00 0. -1.
</event>
<event>
 5    1  0.1717518E-003  0.9118800E+02  0.7818608E-02  0.1130116E+00
         25   -1    0    0    0    0  0.00000000000E+00  0.00000000000E+00  0.99999998245E-14  0.12500000000E+03  0.12500000000E+03 0.  0.
        -11    1    3    3    0    0  0.17910141691E+02  0.62414038311E+01  0.44988012591E+02  0.48822633832E+02  0.51100000000E-03 0.  1.
         23    2    1    0    0    0 -0.54194644973E+01  0.27062762264E+02  0.10258840868E+02  0.95555008699E+02  0.90905182331E+02 0.  0.
         11    1    3    3    0    0 -0.23329606189E+02  0.20821358432E+02 -0.34729171722E+02  0.46732374867E+02  0.51100000000E-03 0. -1.
         22    1    1    0    0    0  0.54194644973E+01 -0.27062762264E+02 -0.10258840868E+02  0.29444991301E+02  0.00000000000E+00 0. -1.
</event>
<event>
 5    1  0.1717518E-003  0.9118800E+02  0.7818608E-02  0.1130116E+00
         25   -1    0    0    0    0  0.00000000000E+00  0.00000000000E+00  0.99999998245E-14  0.12500000000E+03  0.12500000000E+03 0.  0.
        -11    1    3    3    0    0 -0.39808453295E+02 -0.24073182981E+02  0.21414229467E+02  0.51213282618E+02  0.51100000000E-03 0. -1.
         23    2    1    0    0    0 -0.70304026078E+01 -0.30272977218E+02 -0.46866225178E+01  0.93570012073E+02  0.88133438706E+02 0.  0.
         11    1    3    3    0    0  0.32778050688E+02 -0.61997942373E+01 -0.26100851985E+02  0.42356729454E+02  0.51100000000E-03 0.  1.
         22    1    1    0    0    0  0.70304026078E+01  0.30272977218E+02  0.46866225178E+01  0.31429987927E+02  0.00000000000E+00 0. -1.
</event>
<event>
 5    1  0.1717518E-003  0.9118800E+02  0.7818608E-02  0.1130116E+00
         25   -1    0    0    0    0  0.00000000000E+00  0.00000000000E+00  0.99999998245E-14  0.12500000000E+03  0.12500000000E+03 0.  0.
        -11    1    3    3    0    0 -0.11183037422E+02  0.36314532911E+02 -0.50822627513E+01  0.38335819040E+02  0.51100000000E-03 0.  1.
         23    2    1    0    0    0 -0.11968945545E+02 -0.11819729040E+02  0.24826899478E+02  0.95011058877E+02  0.90154116485E+02 0.  0.
         11    1    3    3    0    0 -0.78590812282E+00 -0.48134261951E+02  0.29909162229E+02  0.56675239837E+02  0.51100000000E-03 0. -1.
         22    1    1    0    0    0  0.11968945545E+02  0.11819729040E+02 -0.24826899478E+02  0.29988941123E+02  0.00000000000E+00 0. -1.
</event>
<event>
 5    1  0.1717518E-003  0.9118800E+02  0.7818608E-02  0.1130116E+00
         25   -1    0    0    0    0  0.00000000000E+00  0.00000000000E+00  0.99999998245E-14  0.12500000000E+03  0.12500000000E+03 0.  0.
        -11    1    3    3    0    0 -0.40652684530E+02  0.24795559342E+02  0.36019870931E+01  0.47753898624E+02  0.51100000000E-03 0. -1.
         23    2    1    0    0    0 -0.23888087442E+02 -0.17943596671E+02 -0.56692344324E+01  0.94590238373E+02  0.89568742279E+02 0.  0.
         11    1    3    3    0    0  0.16764597088E+02 -0.42739156013E+02 -0.92712215255E+01  0.46836339749E+02  0.51100000000E-03 0.  1.
         22    1    1    0    0    0  0.23888087442E+02  0.17943596671E+02  0.56692344324E+01  0.30409761627E+02  0.00000000000E+00 0. -1.
</event>
<event>
 5    1  0.1717518E-003  0.9118800E+02  0.7818608E-02  0.1130116E+00
         25   -1    0    0    0    0  0.00000000000E+00  0.00000000000E+00  0.99999998245E-14  0.12500000000E+03  0.12500000000E+03 0.  0.
        -11    1    3    3    0    0  0.25955791273E+02 -0.46108548006E+02 -0.10816534617E+02  0.54006469253E+02  0.51100000000E-03 0. -1.
         23    2    1    0    0    0 -0.73258358091E+01 -0.27529915487E+02 -0.15762468499E+02  0.92442058877E+02  0.86518869151E+02 0.  0.
         11    1    3    3    0    0 -0.33281627082E+02  0.18578632519E+02 -0.49459338821E+01  0.38435589624E+02  0.51100000000E-03 0.  1.
         22    1    1    0    0    0  0.73258358091E+01  0.27529915487E+02  0.15762468499E+02  0.32557941123E+02  0.00000000000E+00 0. -1.
</event>
<event>
 5    1  0.1717518E-003  0.9118800E+02  0.7818608E-02  0.1130116E+00
         25   -1    0    0    0    0  0.00000000000E+00  0.00000000000E+00  0.99999998245E-14  0.12500000000E+03  0.12500000000E+03 0.  0.
        -11    1    3    3    0    0 -0.22460212132E+02 -0.38065001870E+02 -0.20326963023E+02  0.48647619904E+02  0.51100000000E-03 0. -1.
         23    2    1    0    0    0 -0.28267950477E+02  0.43203985244E+01  0.86614857496E+00  0.96390681921E+02  0.92047110114E+02 0.  0.
         11    1    3    3    0    0 -0.58077383452E+01  0.42385400394E+02  0.21193111598E+02  0.47743062017E+02  0.51100000000E-03 0.  1.
         22    1    1    0    0    0  0.28267950477E+02 -0.43203985244E+01 -0.86614857496E+00  0.28609318079E+02  0.00000000000E+00 0. -1.
</event>
<event>
 5    1  0.1717518E-003  0.9118800E+02  0.7818608E-02  0.1130116E+00
         25   -1    0    0    0    0  0.00000000000E+00  0.00000000000E+00  0.99999998245E-14  0.12500000000E+03  0.12500000000E+03 0.  0.
        -11    1    3    3    0    0 -0.24206504739E+02 -0.19297649341E+02 -0.79601861368E+01  0.31964334896E+02  0.51100000000E-03 0.  1.
         23    2    1    0    0    0 -0.46689266487E+01  0.32475322799E+02  0.10901090290E+02  0.90427189346E+02  0.83557150123E+02 0.  0.
         11    1    3    3    0    0  0.19537578090E+02  0.51772972140E+02  0.18861276427E+02  0.58462854451E+02  0.51100000000E-03 0. -1.
         22    1    1    0    0    0  0.46689266487E+01 -0.32475322799E+02 -0.10901090290E+02  0.34572810654E+02  0.00000000000E+00 0. -1.
</event>
<event>
 5    1  0.1717518E-003  0.9118800E+02  0.7818608E-02  0.1130116E+00
         25   -1    0    0    0    0  0.00000000000E+00  0.00000000000E+00  0.99999998245E-14  0.12500000000E+03  0.12500000000E+03 0.  0.
        -11    1    3    3    0    0 -0.25499684268E+02 -0.20865564711E+02  0.26309752556E+02  0.42164069637E+02  0.51100000000E-03 0.  1.
         23    2    1    0    0    0  0.21676104148E+02 -0.21989067053E+02  0.59635560364E+01  0.93552638242E+02  0.88108793889E+02 0.  0.
         11    1    3    3    0    0  0.47175788417E+02 -0.11235023424E+01 -0.20346196520E+02  0.51388568606E+02  0.51100000000E-03 0. -1.
         22    1    1    0    0    0 -0.21676104148E+02  0.21989067053E+02 -0.59635560364E+01  0.31447361758E+02  0.00000000000E+00 0. -1.
</event>
<event>
 5    1  0.1717518E-003  0.9118800E+02  0.7818608E-02  0.1130116E+00
         25   -1    0    0    0    0  0.00000000000E+00  0.00000000000E+00  0.99999998245E-14  0.12500000000E+03  0.12500000000E+03 0.  0.
        -11    1    3    3    0    0  0.14018797647E+02 -0.28229319247E+02  0.18392655977E+02  0.36492614962E+02  0.51100000000E-03 0.  1.
         23    2    1    0    0    0 -0.26665387126E+02  0.12102402731E+02  0.57955917497E+01  0.95148703442E+02  0.90344761113E+02 0.  0.
         11    1    3    3    0    0 -0.40684184773E+02  0.40331721978E+02 -0.12597064227E+02  0.58656088480E+02  0.51100000000E-03 0. -1.
         22    1    1    0    0    0  0.26665387126E+02 -0.12102402731E+02 -0.57955917497E+01  0.29851296558E+02  0.00000000000E+00 0. -1.
</event>
<event>
 5    1  0.1717518E-003  0.9118800E+02  0.7818608E-02  0.1130116E+00
         25   -1    0    0    0    0  0.00000000000E+00  0.00000000000E+00  0.99999998245E-14  0.12500000000E+03  0.12500000000E+03 0.  0.
        -11    1    3    3    0    0  0.27677688221E+02 -0.13398071867E+02  0.43574385453E+02  0.53331883736E+02  0.51100000000E-03 0.  1.
         23    2    1    0    0    0  0.18888963889E+02  0.16829729383E+02  0.17099653355E+02  0.94464268590E+02  0.89392768989E+02 0.  0.
         11    1    3    3    0    0 -0.87887243324E+01  0.30227801250E+02 -0.26474732098E+02  0.41132384853E+02  0.51100000000E-03 0. -1.
         22    1    1    0    0    0 -0.18888963889E+02 -0.16829729383E+02 -0.17099653355E+02  0.30535731410E+02  0.00000000000E+00 0.  1.
</event>
<event>
 5    1  0.1717518E-003  0.9118800E+02  0.7818608E-02  0.1130116E+00
         25   -1    0    0    0    0  0.00000000000E+00  0.00000000000E+00  0.99999998245E-14  0.12500000000E+03  0.12500000000E+03 0.  0.
        -11    1    3    3    0    0  0.99296998833E+00  0.35021534263E+02 -0.14547497635E+02  0.37935781780E+02  0.51100000000E-03 0. -1.
         23    2    1    0    0    0 -0.10613113552E+01 -0.17082430059E+02 -0.28357302807E+02  0.91877916415E+02  0.85699936428E+02 0.  0.
         11    1    3    3    0    0 -0.20542813435E+01 -0.52103964322E+02 -0.13809805172E+02  0.53942134636E+02  0.51100000000E-03 0.  1.
         22    1    1    0    0    0  0.10613113552E+01  0.17082430059E+02  0.28357302807E+02  0.33122083585E+02  0.00000000000E+00 0. -1.
</event>
<event>
 5    1  0.1717518E-003  0.9118800E+02  0.7818608E-02  0.1130116E+00
         25   -1    0    0    0    0  0.00000000000E+00  0.00000000000E+00  0.99999998245E-14  0.12500000000E+03  0.12500000000E+03 0.  0.
        -11    1    3    3    0    0  0.25009995242E+02 -0.12667924248E+02  0.25296107448E+02  0.37760683509E+02  0.51100000000E-03 0.  1.
         23    2    1    0    0    0  0.18854936014E+02  0.12178367694E+02 -0.23275667449E+02  0.92664602260E+02  0.86839798279E+02 0.  0.
         11    1    3    3    0    0 -0.61550592277E+01  0.24846291942E+02 -0.48571774897E+02  0.54903918752E+02  0.51100000000E-03 0. -1.
         22    1    1    0    0    0 -0.18854936014E+02 -0.12178367694E+02  0.23275667449E+02  0.32335397740E+02  0.00000000000E+00 0. -1.
</event>
<event>
 5    1  0.1717518E-003  0.9118800E+02  0.7818608E-02  0.1130116E+00
         25   -1    0    0    0    0  0.00000000000E+00  0.00000000000E+00  0.99999998245E-14  0.12500000000E+03  0.12500000000E+03 0.  0.
        -11    1    3    3    0    0  0.43026187572E+02 -0.22615781946E+02  0.54847537818E+01  0.48916346289E+02  0.51100000000E-03 0. -1.
         23    2    1    0    0    0 -0.34896018861E+01 -0.28598595461E+02 -0.42477215222E+00  0.96186159315E+02  0.91768948064E+02 0.  0.
         11    1    3    3    0    0 -0.46515789458E+02 -0.59828135144E+01 -0.59095259340E+01  0.47269813025E+02  0.51100000000E-03 0.  1.
         22    1    1    0    0    0  0.34896018861E+01  0.28598595461E+02  0.42477215222E+00  0.28813840685E+02  0.00000000000E+00 0.  1.
</event>
<event>
 5    1  0.1717518E-003  0.9118800E+02  0.7818608E-02  0.1130116E+00
         25   -1    0    0    0    0  0.00000000000E+00  0.00000000000E+00  0.99999998245E-14  0.12500000000E+03  0.12500000000E+03 0.  0.
        -11    1    3    3    0    0  0.34312052397E+02  0.65372157886E+01  0.31815658437E+02  0.47247097816E+02  0.51100000000E-03 0.  1.
         23    2    1    0    0    0 -0.47162687675E+01 -0.20073373655E+02  0.20716653876E+02  0.95770506867E+02  0.91201023661E+02 0.  0.
         11    1    3    3    0    0 -0.39028321165E+02 -0.26610589443E+02 -0.11099004561E+02  0.48523409051E+02  0.51100000000E-03 0. -1.
         22    1    1    0    0    0  0.47162687675E+01  0.20073373655E+02 -0.20716653876E+02  0.29229493133E+02  0.00000000000E+00 0.  1.
</event>
<event>
 5    1  0.1717518E-003  0.9118800E+02  0.7818608E-02  0.1130116E+00
         25   -1    0    0    0    0  0.00000000000E+00  0.00000000000E+00  0.99999998245E-14  0.12500000000E+03  0.12500000000E+03 0.  0.
        -11    1    3    3    0    0  0.52912303575E+02  0.19892248127E+02  0.50629401924E+01  0.56754266525E+02  0.51100000000E-03 0. -1.
         23    2    1    0    0    0  0.24785220050E+02  0.19019442933E+01 -0.15250638085E+02  0.95836555639E+02  0.91291505134E+02 0.  0.
         11    1    3    3    0    0 -0.28127083525E+02 -0.17990303834E+02 -0.20313578278E+02  0.39082289114E+02  0.51100000000E-03 0.  1.
         22    1    1    0    0    0 -0.24785220050E+02 -0.19019442933E+01  0.15250638085E+02  0.29163444361E+02  0.00000000000E+00 0. -1.
</event>
<event>
 5    1  0.1717518E-003  0.9118800E+02  0.7818608E-02  0.1130116E+00
         25   -1    0    0    0    0  0.00000000000E+00  0.00000000000E+00  0.99999998245E-14  0.12500000000E+03  0.12500000000E+03 0.  0.
        -11    1    3    3    0    0  0.34410000244E+02  0.21229562629E+02 -0.36525908409E+02  0.54487470409E+02  0.51100000000E-03 0.  1.
         23    2    1    0    0    0 -0.35686784422E+01  0.69859327659E+01 -0.27981763042E+02  0.95939411820E+02  0.91432231489E+02 0.  0.
         11    1    3    3    0    0 -0.37978678686E+02 -0.14243629863E+02  0.85441453678E+01  0.41451941411E+02  0.51100000000E-03 0. -1.
         22    1    1    0    0    0  0.35686784422E+01 -0.69859327659E+01  0.27981763042E+02  0.29060588180E+02  0.00000000000E+00 0.  1.
</event>
<event>
 5    1  0.1717518E-003  0.9118800E+02  0.7818608E-02  0.1130116E+00
         25   -1    0    0    0    0  0.00000000000E+00  0.00000000000E+00  0.99999998245E-14  0.12500000000E+03  0.12500000000E+03 0.  0.
        -11    1    3    3    0    0 -0.57855994910E+02  0.15839530107E+02 -0.16930880393E+01  0.60008944403E+02  0.51100000000E-03 0.  1.
         23    2    1    0    0    0 -0.28840870091E+02 -0.39798327816E+01 -0.55617628755E+01  0.95359351173E+02  0.90635742361E+02 0.  0.
         11    1    3    3    0    0  0.29015124819E+02 -0.19819362889E+02 -0.38686748362E+01  0.35350406770E+02  0.51100000000E-03 0. -1.
         22    1    1    0    0    0  0.28840870091E+02  0.39798327816E+01  0.55617628755E+01  0.29640648827E+02  0.00000000000E+00 0.  1.
</event>
<event>
 5    1  0.1717518E-003  0.9118800E+02  0.7818608E-02  0.1130116E+00
         25   -1    0    0    0    0  0.00000000000E+00  0.00000000000E+00  0.99999998245E-14  0.12500000000E+03  0.12500000000E+03 0.  0.
        -11    1    3    3    0    0 -0.29715354612E+02  0.27379934908E+02  0.24062032605E+02  0.47028125081E+02  0.51100000000E-03 0. -1.
         23    2    1    0    0    0 -0.21959612671E+02 -0.17798332455E+02  0.76542817308E+01  0.95715306803E+02  0.91125335120E+02 0.  0.
         11    1    3    3    0    0  0.77557419414E+01 -0.45178267363E+02 -0.16407750875E+02  0.48687181722E+02  0.51100000000E-03 0.  1.
         22    1    1    0    0    0  0.21959612671E+02  0.17798332455E+02 -0.76542817308E+01  0.29284693197E+02  0.00000000000E+00 0. -1.
</event>
<event>
 5    1  0.1717518E-003  0.9118800E+02  0.7818608E-02  0.1130116E+00
         25   -1    0    0    0    0  0.00000000000E+00  0.00000000000E+00  0.99999998245E-14  0.12500000000E+03  0.12500000000E+03 0.  0.
        -11    1    3    3    0    0  0.34008392580E+02  0.10565456173E+02 -0.43280896988E+02  0.56048511794E+02  0.51100000000E-03 0. -1.
         23    2    1    0    0    0 -0.16407590181E+01  0.15501372905E+01 -0.29648650288E+02  0.95265550624E+02  0.90506285175E+02 0.  0.
         11    1    3    3    0    0 -0.35649151598E+02 -0.90153188826E+01  0.13632246700E+02  0.39217038830E+02  0.51100000000E-03 0.  1.
         22    1    1    0    0    0  0.16407590181E+01 -0.15501372905E+01  0.29648650288E+02  0.29734449376E+02  0.00000000000E+00 0. -1.
</event>
<event>
 5    1  0.1717518E-003  0.9118800E+02  0.7818608E-02  0.1130116E+00
         25   -1    0    0    0    0  0.00000000000E+00  0.00000000000E+00  0.99999998245E-14  0.12500000000E+03  0.12500000000E+03 0.  0.
        -11    1    3    3    0    0 -0.56297661641E+01 -0.16536456234E+00  0.51303469877E+02  0.51611700555E+02  0.51100000000E-03 0.  1.
         23    2    1    0    0    0 -0.24174163446E+02 -0.12548726410E+02  0.15873268309E+02  0.93475067651E+02  0.87998675630E+02 0.  0.
         11    1    3    3    0    0 -0.18544397282E+02 -0.12383361847E+02 -0.35430201568E+02  0.41863367096E+02  0.51100000000E-03 0. -1.
         22    1    1    0    0    0  0.24174163446E+02  0.12548726410E+02 -0.15873268309E+02  0.31524932349E+02  0.00000000000E+00 0.  1.
</event>
<event>
 5    1  0.1717518E-003  0.9118800E+02  0.7818608E-02  0.1130116E+00
         25   -1    0    0    0    0  0.00000000000E+00  0.00000000000E+00  0.99999998245E-14  0.12500000000E+03  0.12500000000E+03 0.  0.
        -11    1    3    3    0    0 -0.26936645143E+01  0.84269441294E+01  0.47750590590E+02  0.48563238338E+02  0.51100000000E-03 0. -1.
         23    2    1    0    0    0 -0.24653296037E+02 -0.11303266015E+02  0.10924435886E+02  0.95761461605E+02  0.91188625393E+02 0.  0.
         11    1    3    3    0    0 -0.21959631522E+02 -0.19730210144E+02 -0.36826154705E+02  0.47198223267E+02  0.51100000000E-03 0.  1.
         22    1    1    0    0    0  0.24653296037E+02  0.11303266015E+02 -0.10924435886E+02  0.29238538395E+02  0.00000000000E+00 0.  1.
</event>
<event>
 5    1  0.1717518E-003  0.9118800E+02  0.7818608E-02  0.1130116E+00
         25   -1    0    0    0    0  0.00000000000E+00  0.00000000000E+00  0.99999998245E-14  0.12500000000E+03  0.12500000000E+03 0.  0.
        -11    1    3    3    0    0 -0.43871994084E+02  0.14671376576E+02  0.14833821791E+02  0.48580278146E+02  0.51100000000E-03 0. -1.
         23    2    1    0    0    0  0.75625762009E+00  0.28151097827E+02  0.29923909764E+01  0.96680207659E+02  0.92439449992E+02 0.  0.
         11    1    3    3    0    0  0.44628251704E+02  0.13479721251E+02 -0.11841430814E+02  0.48099929513E+02  0.51100000000E-03 0.  1.
         22    1    1    0    0    0 -0.75625762009E+00 -0.28151097827E+02 -0.29923909764E+01  0.28319792341E+02  0.00000000000E+00 0. -1.
</event>
<event>
 5    1  0.1717518E-003  0.9118800E+02  0.7818608E-02  0.1130116E+00
         25   -1    0    0    0    0  0.00000000000E+00  0.00000000000E+00  0.99999998245E-14  0.12500000000E+03  0.12500000000E+03 0.  0.
        -11    1    3    3    0    0  0.32546905109E+02 -0.27335905257E+02  0.22657342429E+01  0.42563908423E+02  0.51100000000E-03 0.  1.
         23    2    1    0    0    0 -0.16894177326E+02 -0.18405653157E+02 -0.15201761586E+02  0.95754917491E+02  0.91179654379E+02 0.  0.
         11    1    3    3    0    0 -0.49441082434E+02  0.89302520999E+01 -0.17467495829E+02  0.53191009068E+02  0.51100000000E-03 0. -1.
         22    1    1    0    0    0  0.16894177326E+02  0.18405653157E+02  0.15201761586E+02  0.29245082509E+02  0.00000000000E+00 0. -1.
</event>
<event>
 5    1  0.1717518E-003  0.9118800E+02  0.7818608E-02  0.1130116E+00
         25   -1    0    0    0    0  0.00000000000E+00  0.00000000000E+00  0.99999998245E-14  0.12500000000E+03  0.12500000000E+03 0.  0.
        -11    1    3    3    0    0 -0.21763261950E+02  0.33620177876E+02 -0.23856483108E+02  0.46616388939E+02  0.51100000000E-03 0.  1.
         23    2    1    0    0    0  0.75286016652E+01  0.22885580831E+02  0.15132082515E+02  0.96549875672E+02  0.92263041995E+02 0.  0.
         11    1    3    3    0    0  0.29291863616E+02 -0.10734597045E+02  0.38988565623E+02  0.49933486733E+02  0.51100000000E-03 0. -1.
         22    1    1    0    0    0 -0.75286016652E+01 -0.22885580831E+02 -0.15132082515E+02  0.28450124328E+02  0.00000000000E+00 0.  1.
</event>
<event>
 5    1  0.1717518E-003  0.9118800E+02  0.7818608E-02  0.1130116E+00
         25   -1    0    0    0    0  0.00000000000E+00  0.00000000000E+00  0.99999998245E-14  0.12500000000E+03  0.12500000000E+03 0.  0.
        -11    1    3    3    0    0 -0.11661811292E+02  0.33551497735E+02  0.51327552088E+02  0.62419695982E+02  0.51100000000E-03 0.  1.
         23    2    1    0    0    0 -0.79140596364E+01  0.16330937578E+02  0.24742521157E+02  0.94315733424E+02  0.89184826938E+02 0.  0.
         11    1    3    3    0    0  0.37477516554E+01 -0.17220560157E+02 -0.26585030931E+02  0.31896037442E+02  0.51100000000E-03 0. -1.
         22    1    1    0    0    0  0.79140596364E+01 -0.16330937578E+02 -0.24742521157E+02  0.30684266576E+02  0.00000000000E+00 0.  1.
</event>
<event>
 5    1  0.1717518E-003  0.9118800E+02  0.7818608E-02  0.1130116E+00
         25   -1    0    0    0    0  0.00000000000E+00  0.00000000000E+00  0.99999998245E-14  0.12500000000E+03  0.12500000000E+03 0.  0.
        -11    1    3    3    0    0 -0.21056602996E+02  0.46430385832E+02  0.87802416425E+01  0.51732522670E+02  0.51100000000E-03 0.  1.
         23    2    1    0    0    0  0.14283353518E+02  0.26798265059E+02  0.12134254846E+02  0.92298297620E+02  0.86310917067E+02 0.  0.
         11    1    3    3    0    0  0.35339956514E+02 -0.19632120773E+02  0.33540132030E+01  0.40565774950E+02  0.51100000000E-03 0. -1.
         22    1    1    0    0    0 -0.14283353518E+02 -0.26798265059E+02 -0.12134254846E+02  0.32701702380E+02  0.00000000000E+00 0.  1.
</event>
<event>
 5    1  0.1717518E-003  0.9118800E+02  0.7818608E-02  0.1130116E+00
         25   -1    0    0    0    0  0.00000000000E+00  0.00000000000E+00  0.99999998245E-14  0.12500000000E+03  0.12500000000E+03 0.  0.
        -11    1    3    3    0    0 -0.57309839941E+01 -0.28369061787E+02 -0.22760316233E+02  0.36819557840E+02  0.51100000000E-03 0. -1.
         23    2    1    0    0    0 -0.69805236817E+01 -0.23762224362E+02  0.27893786966E+02  0.87698064812E+02  0.79369491638E+02 0.  0.
         11    1    3    3    0    0 -0.12495396876E+01  0.46068374249E+01  0.50654103199E+02  0.50878506972E+02  0.51100000000E-03 0.  1.
         22    1    1    0    0    0  0.69805236817E+01  0.23762224362E+02 -0.27893786966E+02  0.37301935188E+02  0.00000000000E+00 0.  1.
</event>
<event>
 5    1  0.1717518E-003  0.9118800E+02  0.7818608E-02  0.1130116E+00
         25   -1    0    0    0    0  0.00000000000E+00  0.00000000000E+00  0.99999998245E-14  0.12500000000E+03  0.12500000000E+03 0.  0.
        -11    1    3    3    0    0 -0.41244525008E+02 -0.41593596952E+02  0.12613427091E+02  0.59918583876E+02  0.51100000000E-03 0.  1.
         23    2    1    0    0    0 -0.23630478549E+02 -0.16753412818E+02 -0.57352856256E+01  0.95470864240E+02  0.90789404999E+02 0.  0.
         11    1    3    3    0    0  0.17614046459E+02  0.24840184134E+02 -0.18348712717E+02  0.35552280364E+02  0.51100000000E-03 0. -1.
         22    1    1    0    0    0  0.23630478549E+02  0.16753412818E+02  0.57352856256E+01  0.29529135760E+02  0.00000000000E+00 0.  1.
</event>
<event>
 5    1  0.1717518E-003  0.9118800E+02  0.7818608E-02  0.1130116E+00
         25   -1    0    0    0    0  0.00000000000E+00  0.00000000000E+00  0.99999998245E-14  0.12500000000E+03  0.12500000000E+03 0.  0.
        -11    1    3    3    0    0 -0.32778578187E+02  0.72680128332E+01  0.51225584070E+01  0.33963212501E+02  0.51100000000E-03 0.  1.
         23    2    1    0    0    0  0.27093089360E+02 -0.41891098583E+01  0.11533980734E+02  0.95257490959E+02  0.90495153129E+02 0.  0.
         11    1    3    3    0    0  0.59871667547E+02 -0.11457122691E+02  0.64114223267E+01  0.61294278458E+02  0.51100000000E-03 0. -1.
         22    1    1    0    0    0 -0.27093089360E+02  0.41891098583E+01 -0.11533980734E+02  0.29742509041E+02  0.00000000000E+00 0. -1.
</event>
<event>
 5    1  0.1717518E-003  0.9118800E+02  0.7818608E-02  0.1130116E+00
         25   -1    0    0    0    0  0.00000000000E+00  0.00000000000E+00  0.99999998245E-14  0.12500000000E+03  0.12500000000E+03 0.  0.
        -11    1    3    3    0    0  0.22717913137E+02  0.36500555591E+02  0.12198601624E+02  0.44690043830E+02  0.51100000000E-03 0.  1.
         23    2    1    0    0    0  0.18735123828E+02 -0.14406899067E+02  0.16864765987E+02  0.95965814332E+02  0.91468320106E+02 0.  0.
         11    1    3    3    0    0 -0.39827893087E+01 -0.50907454658E+02  0.46661643634E+01  0.51275770502E+02  0.51100000000E-03 0. -1.
         22    1    1    0    0    0 -0.18735123828E+02  0.14406899067E+02 -0.16864765987E+02  0.29034185668E+02  0.00000000000E+00 0.  1.
</event>
<event>
 5    1  0.1717518E-003  0.9118800E+02  0.7818608E-02  0.1130116E+00
         25   -1    0    0    0    0  0.00000000000E+00  0.00000000000E+00  0.99999998245E-14  0.12500000000E+03  0.12500000000E+03 0.  0.
        -11    1    3    3    0    0 -0.23964717836E+02 -0.24356323541E+02 -0.12324853592E+02  0.36324099627E+02  0.51100000000E-03 0.  1.
         23    2    1    0    0    0  0.23953698769E+02 -0.41703550928E+01  0.16346716606E+02  0.95701763021E+02  0.91106754717E+02 0.  0.
         11    1    3    3    0    0  0.47918416605E+02  0.20185968448E+02  0.28671570198E+02  0.59377663393E+02  0.51100000000E-03 0. -1.
         22    1    1    0    0    0 -0.23953698769E+02  0.41703550928E+01 -0.16346716606E+02  0.29298236979E+02  0.00000000000E+00 0. -1.
</event>
<event>
 5    1  0.1717518E-003  0.9118800E+02  0.7818608E-02  0.1130116E+00
         25   -1    0    0    0    0  0.00000000000E+00  0.00000000000E+00  0.99999998245E-14  0.12500000000E+03  0.12500000000E+03 0.  0.
        -11    1    3    3    0    0  0.47626630602E+02 -0.24210734389E+02 -0.13131657340E+02  0.55017233908E+02  0.51100000000E-03 0.  1.
         23    2    1    0    0    0  0.77267383581E+01 -0.27551534943E+02 -0.71983093298E+01  0.95493979927E+02  0.90821225392E+02 0.  0.
         11    1    3    3    0    0 -0.39899892244E+02 -0.33408005537E+01  0.59333480099E+01  0.40476746019E+02  0.51100000000E-03 0. -1.
         22    1    1    0    0    0 -0.77267383581E+01  0.27551534943E+02  0.71983093298E+01  0.29506020073E+02  0.00000000000E+00 0. -1.
</event>
<event>
 5    1  0.1717518E-003  0.9118800E+02  0.7818608E-02  0.1130116E+00
         25   -1    0    0    0    0  0.00000000000E+00  0.00000000000E+00  0.99999998245E-14  0.12500000000E+03  0.12500000000E+03 0.  0.
        -11    1    3    3    0    0  0.38335558841E+01  0.48147442733E+02  0.28530130191E+02  0.56096708650E+02  0.51100000000E-03 0. -1.
         23    2    1    0    0    0  0.20553434490E+02  0.25148093012E+02  0.69678831276E+01  0.91782208882E+02  0.85560225692E+02 0.  0.
         11    1    3    3    0    0  0.16719878605E+02 -0.22999349720E+02 -0.21562247063E+02  0.35685500232E+02  0.51100000000E-03 0.  1.
         22    1    1    0    0    0 -0.20553434490E+02 -0.25148093012E+02 -0.69678831276E+01  0.33217791118E+02  0.00000000000E+00 0. -1.
</event>
<event>
 5    1  0.1717518E-003  0.9118800E+02  0.7818608E-02  0.1130116E+00
         25   -1    0    0    0    0  0.00000000000E+00  0.00000000000E+00  0.99999998245E-14  0.12500000000E+03  0.12500000000E+03 0.  0.
        -11    1    3    3    0    0 -0.67810141441E+01  0.44546238146E+02 -0.35610700970E+02  0.57432321124E+02  0.51100000000E-03 0.  1.
         23    2    1    0    0    0 -0.16892491154E+02  0.11531208611E+02 -0.23072709214E+02  0.94166982958E+02  0.88976096451E+02 0.  0.
         11    1    3    3    0    0 -0.10111477010E+02 -0.33015029536E+02  0.12537991756E+02  0.36734661835E+02  0.51100000000E-03 0. -1.
         22    1    1    0    0    0  0.16892491154E+02 -0.11531208611E+02  0.23072709214E+02  0.30833017042E+02  0.00000000000E+00 0.  1.
</event>
<event>
 5    1  0.1717518E-003  0.9118800E+02  0.7818608E-02  0.1130116E+00
         25   -1    0    0    0    0  0.00000000000E+00  0.00000000000E+00  0.99999998245E-14  0.12500000000E+03  0.12500000000E+03 0.  0.
        -11    1    3    3    0    0 -0.34481497463E+02  0.22314122920E+02  0.12078613139E+02  0.42811057504E+02  0.51100000000E-03 0.  1.
         23    2    1    0    0    0  0.12604304906E+02  0.30137706729E+01  0.26327077915E+02  0.95656067963E+02  0.91044038744E+02 0.  0.
         11    1    3    3    0    0  0.47085802370E+02 -0.19300352247E+02  0.14248464776E+02  0.52845010459E+02  0.51100000000E-03 0. -1.
         22    1    1    0    0    0 -0.12604304906E+02 -0.30137706729E+01 -0.26327077915E+02  0.29343932037E+02  0.00000000000E+00 0. -1.
</event>
<event>
 5    1  0.1717518E-003  0.9118800E+02  0.7818608E-02  0.1130116E+00
         25   -1    0    0    0    0  0.00000000000E+00  0.00000000000E+00  0.99999998245E-14  0.12500000000E+03  0.12500000000E+03 0.  0.
        -11    1    3    3    0    0 -0.47619292378E+02  0.24027321337E+02  0.10201044157E+02  0.54304424123E+02  0.51100000000E-03 0. -1.
         23    2    1    0    0    0 -0.20337048142E+02  0.12127354665E+02 -0.17960852909E+02  0.95280301221E+02  0.90526655220E+02 0.  0.
         11    1    3    3    0    0  0.27282244236E+02 -0.11899966673E+02 -0.28161897066E+02  0.40975877098E+02  0.51100000000E-03 0.  1.
         22    1    1    0    0    0  0.20337048142E+02 -0.12127354665E+02  0.17960852909E+02  0.29719698779E+02  0.00000000000E+00 0. -1.
</event>
<event>
 5    1  0.1717518E-003  0.9118800E+02  0.7818608E-02  0.1130116E+00
         25   -1    0    0    0    0  0.00000000000E+00  0.00000000000E+00  0.99999998245E-14  0.12500000000E+03  0.12500000000E+03 0.  0.
        -11    1    3    3    0    0  0.35265134644E+02  0.20849458413E+02  0.37587995939E+02  0.55598444911E+02  0.51100000000E-03 0. -1.
         23    2    1    0    0    0  0.26563730266E+02 -0.55687599505E+01  0.69409689254E+01  0.96985362707E+02  0.92851174880E+02 0.  0.
         11    1    3    3    0    0 -0.87014043773E+01 -0.26418218363E+02 -0.30647027013E+02  0.41386917796E+02  0.51100000000E-03 0.  1.
         22    1    1    0    0    0 -0.26563730266E+02  0.55687599505E+01 -0.69409689254E+01  0.28014637293E+02  0.00000000000E+00 0. -1.
</event>
<event>
 5    1  0.1717518E-003  0.9118800E+02  0.7818608E-02  0.1130116E+00
         25   -1    0    0    0    0  0.00000000000E+00  0.00000000000E+00  0.99999998245E-14  0.12500000000E+03  0.12500000000E+03 0.  0.
        -11    1    3    3    0    0 -0.42554580100E+02  0.27819860629E+02 -0.11680997026E+02  0.52165914395E+02  0.51100000000E-03 0. -1.
         23    2    1    0    0    0 -0.21563235310E+02  0.49876456876E+01  0.19028243646E+02  0.95812266570E+02  0.91258241504E+02 0.  0.
         11    1    3    3    0    0  0.20991344790E+02 -0.22832214941E+02  0.30709240672E+02  0.43646352175E+02  0.51100000000E-03 0.  1.
         22    1    1    0    0    0  0.21563235310E+02 -0.49876456876E+01 -0.19028243646E+02  0.29187733430E+02  0.00000000000E+00 0. -1.
</event>
<event>
 5    1  0.1717518E-003  0.9118800E+02  0.7818608E-02  0.1130116E+00
         25   -1    0    0    0    0  0.00000000000E+00  0.00000000000E+00  0.99999998245E-14  0.12500000000E+03  0.12500000000E+03 0.  0.
        -11    1    3    3    0    0  0.18966041280E+02 -0.17326695611E+02 -0.39572759896E+02  0.47179745958E+02  0.51100000000E-03 0. -1.
         23    2    1    0    0    0  0.28527760571E+02  0.83408872960E+01 -0.35706486492E-01  0.95277873579E+02  0.90523303048E+02 0.  0.
         11    1    3    3    0    0  0.95617192902E+01  0.25667582907E+02  0.39537053409E+02  0.48098127621E+02  0.51100000000E-03 0.  1.
         22    1    1    0    0    0 -0.28527760571E+02 -0.83408872960E+01  0.35706486492E-01  0.29722126421E+02  0.00000000000E+00 0. -1.
</event>
<event>
 5    1  0.1717518E-003  0.9118800E+02  0.7818608E-02  0.1130116E+00
         25   -1    0    0    0    0  0.00000000000E+00  0.00000000000E+00  0.99999998245E-14  0.12500000000E+03  0.12500000000E+03 0.  0.
        -11    1    3    3    0    0 -0.29788208929E+01  0.24134646945E+01  0.42670199736E+02  0.42842083650E+02  0.51100000000E-03 0.  1.
         23    2    1    0    0    0 -0.29964339647E+02  0.26654583414E+01 -0.18036921733E+01  0.94863317633E+02  0.89949037839E+02 0.  0.
         11    1    3    3    0    0 -0.26985518754E+02  0.25199364693E+00 -0.44473891909E+02  0.52021233982E+02  0.51100000000E-03 0. -1.
         22    1    1    0    0    0  0.29964339647E+02 -0.26654583414E+01  0.18036921733E+01  0.30136682367E+02  0.00000000000E+00 0. -1.
</event>
<event>
 5    1  0.1717518E-003  0.9118800E+02  0.7818608E-02  0.1130116E+00
         25   -1    0    0    0    0  0.00000000000E+00  0.00000000000E+00  0.99999998245E-14  0.12500000000E+03  0.12500000000E+03 0.  0.
        -11    1    3    3    0    0 -0.77670348318E+01 -0.46760179251E+02 -0.46792177109E-01  0.47400879564E+02  0.51100000000E-03 0. -1.
         23    2    1    0    0    0  0.23944053254E+02 -0.39303894260E+01 -0.12139362759E+01  0.10070515922E+03  0.97730700422E+02 0.  0.
         11    1    3    3    0    0  0.31711088086E+02  0.42829789825E+02 -0.11671440988E+01  0.53304279656E+02  0.51100000000E-03 0.  1.
         22    1    1    0    0    0 -0.23944053254E+02  0.39303894260E+01  0.12139362759E+01  0.24294840780E+02  0.00000000000E+00 0. -1.
</event>
<event>
 5    1  0.1717518E-003  0.9118800E+02  0.7818608E-02  0.1130116E+00
         25   -1    0    0    0    0  0.00000000000E+00  0.00000000000E+00  0.99999998245E-14  0.12500000000E+03  0.12500000000E+03 0.  0.
        -11    1    3    3    0    0  0.50681306405E+02  0.16124784454E+02  0.25888681241E+02  0.59150885955E+02  0.51100000000E-03 0.  1.
         23    2    1    0    0    0  0.18397025847E+02  0.25679686780E+01  0.24580080284E+02  0.94190498707E+02  0.89009126929E+02 0.  0.
         11    1    3    3    0    0 -0.32284280557E+02 -0.13556815776E+02 -0.13086009567E+01  0.35039612752E+02  0.51100000000E-03 0. -1.
         22    1    1    0    0    0 -0.18397025847E+02 -0.25679686780E+01 -0.24580080284E+02  0.30809501293E+02  0.00000000000E+00 0.  1.
</event>
<event>
 5    1  0.1717518E-003  0.9118800E+02  0.7818608E-02  0.1130116E+00
         25   -1    0    0    0    0  0.00000000000E+00  0.00000000000E+00  0.99999998245E-14  0.12500000000E+03  0.12500000000E+03 0.  0.
        -11    1    3    3    0    0  0.23707999065E+02 -0.39472533359E+01 -0.19551637825E+02  0.30982520402E+02  0.51100000000E-03 0. -1.
         23    2    1    0    0    0 -0.27247445921E+02 -0.46085434940E+01  0.15953271508E+02  0.93091241733E+02  0.87451760607E+02 0.  0.
         11    1    3    3    0    0 -0.50955444986E+02 -0.66129015819E+00  0.35504909333E+02  0.62108721331E+02  0.51100000000E-03 0.  1.
         22    1    1    0    0    0  0.27247445921E+02  0.46085434940E+01 -0.15953271508E+02  0.31908758267E+02  0.00000000000E+00 0.  1.
</event>
<event>
 5    1  0.1717518E-003  0.9118800E+02  0.7818608E-02  0.1130116E+00
         25   -1    0    0    0    0  0.00000000000E+00  0.00000000000E+00  0.99999998245E-14  0.12500000000E+03  0.12500000000E+03 0.  0.
        -11    1    3    3    0    0  0.40830968338E+00 -0.39496845027E+02 -0.42539319017E+02  0.58049643811E+02  0.51100000000E-03 0.  1.
         23    2    1    0    0    0  0.16681638734E+02 -0.16658576316E+02 -0.17572292593E+02  0.95596416839E+02  0.90962103152E+02 0.  0.
         11    1    3    3    0    0  0.16273329051E+02  0.22838268711E+02  0.24967026424E+02  0.37546773028E+02  0.51100000000E-03 0. -1.
         22    1    1    0    0    0 -0.16681638734E+02  0.16658576316E+02  0.17572292593E+02  0.29403583161E+02  0.00000000000E+00 0.  1.
</event>
<event>
 5    1  0.1717518E-003  0.9118800E+02  0.7818608E-02  0.1130116E+00
         25   -1    0    0    0    0  0.00000000000E+00  0.00000000000E+00  0.99999998245E-14  0.12500000000E+03  0.12500000000E+03 0.  0.
        -11    1    3    3    0    0 -0.51468722487E+02 -0.91857585574E+01 -0.11904339559E+02  0.53620153444E+02  0.51100000000E-03 0.  1.
         23    2    1    0    0    0 -0.21158449681E+02 -0.10243311119E+02  0.17369018274E+02  0.95771790828E+02  0.91202783439E+02 0.  0.
         11    1    3    3    0    0  0.30310272807E+02 -0.10575525614E+01  0.29273357834E+02  0.42151637384E+02  0.51100000000E-03 0. -1.
         22    1    1    0    0    0  0.21158449681E+02  0.10243311119E+02 -0.17369018274E+02  0.29228209172E+02  0.00000000000E+00 0.  1.
</event>
<event>
 5    1  0.1717518E-003  0.9118800E+02  0.7818608E-02  0.1130116E+00
         25   -1    0    0    0    0  0.00000000000E+00  0.00000000000E+00  0.99999998245E-14  0.12500000000E+03  0.12500000000E+03 0.  0.
        -11    1    3    3    0    0 -0.41675031369E+02 -0.29779747564E+02 -0.26264937917E+02  0.57562909661E+02  0.51100000000E-03 0.  1.
         23    2    1    0    0    0 -0.21519605114E+02 -0.49041858161E+00 -0.23358800894E+02  0.93235751325E+02  0.87658073395E+02 0.  0.
         11    1    3    3    0    0  0.20155426255E+02  0.29289328983E+02  0.29061370231E+01  0.35672841665E+02  0.51100000000E-03 0. -1.
         22    1    1    0    0    0  0.21519605114E+02  0.49041858161E+00  0.23358800894E+02  0.31764248675E+02  0.00000000000E+00 0.  1.
</event>
<event>
 5    1  0.1717518E-003  0.9118800E+02  0.7818608E-02  0.1130116E+00
         25   -1    0    0    0    0  0.00000000000E+00  0.00000000000E+00  0.99999998245E-14  0.12500000000E+03  0.12500000000E+03 0.  0.
        -11    1    3    3    0    0 -0.16960670473E+01 -0.12068672806E+02 -0.54991044534E+02  0.56325344969E+02  0.51100000000E-03 0.  1.
         23    2    1    0    0    0  0.18619037673E+02 -0.39946248382E+01 -0.21983513826E+02  0.95915631834E+02  0.91399715309E+02 0.  0.
         11    1    3    3    0    0  0.20315104720E+02  0.80740479676E+01  0.33007530708E+02  0.39590286865E+02  0.51100000000E-03 0. -1.
         22    1    1    0    0    0 -0.18619037673E+02  0.39946248382E+01  0.21983513826E+02  0.29084368166E+02  0.00000000000E+00 0.  1.
</event>
<event>
 5    1  0.1717518E-003  0.9118800E+02  0.7818608E-02  0.1130116E+00
         25   -1    0    0    0    0  0.00000000000E+00  0.00000000000E+00  0.99999998245E-14  0.12500000000E+03  0.12500000000E+03 0.  0.
        -11    1    3    3    0    0 -0.19564196068E+02 -0.24122412673E+02 -0.23013956398E+02  0.38656057097E+02  0.51100000000E-03 0. -1.
         23    2    1    0    0    0 -0.61432177913E+01  0.28492411364E+01  0.27066313116E+02  0.97099415677E+02  0.93004590850E+02 0.  0.
         11    1    3    3    0    0  0.13420978276E+02  0.26971653810E+02  0.50080269514E+02  0.58443358579E+02  0.51100000000E-03 0.  1.
         22    1    1    0    0    0  0.61432177913E+01 -0.28492411364E+01 -0.27066313116E+02  0.27900584323E+02  0.00000000000E+00 0.  1.
</event>
<event>
 5    1  0.1717518E-003  0.9118800E+02  0.7818608E-02  0.1130116E+00
         25   -1    0    0    0    0  0.00000000000E+00  0.00000000000E+00  0.99999998245E-14  0.12500000000E+03  0.12500000000E+03 0.  0.
        -11    1    3    3    0    0 -0.21313578906E+02 -0.37126730639E+02 -0.41523081226E+02  0.59639157007E+02  0.51100000000E-03 0.  1.
         23    2    1    0    0    0  0.11317838286E+01 -0.16104841664E+02 -0.26749206559E+02  0.93756330062E+02  0.88397299254E+02 0.  0.
         11    1    3    3    0    0  0.22445362735E+02  0.21021888974E+02  0.14773874667E+02  0.34117173055E+02  0.51100000000E-03 0. -1.
         22    1    1    0    0    0 -0.11317838286E+01  0.16104841664E+02  0.26749206559E+02  0.31243669938E+02  0.00000000000E+00 0.  1.
</event>
<event>
 5    1  0.1717518E-003  0.9118800E+02  0.7818608E-02  0.1130116E+00
         25   -1    0    0    0    0  0.00000000000E+00  0.00000000000E+00  0.99999998245E-14  0.12500000000E+03  0.12500000000E+03 0.  0.
        -11    1    3    3    0    0  0.22134281844E+02 -0.75142933179E+01 -0.23274029387E+02  0.32985928530E+02  0.51100000000E-03 0.  1.
         23    2    1    0    0    0 -0.21039929889E+02  0.11092833621E+02  0.17702461496E+02  0.95350265591E+02  0.90623211142E+02 0.  0.
         11    1    3    3    0    0 -0.43174211733E+02  0.18607126939E+02  0.40976490884E+02  0.62364337061E+02  0.51100000000E-03 0. -1.
         22    1    1    0    0    0  0.21039929889E+02 -0.11092833621E+02 -0.17702461496E+02  0.29649734409E+02  0.00000000000E+00 0. -1.
</event>
<event>
 5    1  0.1717518E-003  0.9118800E+02  0.7818608E-02  0.1130116E+00
         25   -1    0    0    0    0  0.00000000000E+00  0.00000000000E+00  0.99999998245E-14  0.12500000000E+03  0.12500000000E+03 0.  0.
        -11    1    3    3    0    0  0.24972702556E+02  0.34957472169E+02  0.48610978227E+01  0.43235298146E+02  0.51100000000E-03 0. -1.
         23    2    1    0    0    0 -0.14962301252E+02  0.12045155571E+02 -0.21403670597E+02  0.96241117085E+02  0.91843776443E+02 0.  0.
         11    1    3    3    0    0 -0.39935003808E+02 -0.22912316598E+02 -0.26264768420E+02  0.53005818940E+02  0.51100000000E-03 0.  1.
         22    1    1    0    0    0  0.14962301252E+02 -0.12045155571E+02  0.21403670597E+02  0.28758882915E+02  0.00000000000E+00 0.  1.
</event>
<event>
 5    1  0.1717518E-003  0.9118800E+02  0.7818608E-02  0.1130116E+00
         25   -1    0    0    0    0  0.00000000000E+00  0.00000000000E+00  0.99999998245E-14  0.12500000000E+03  0.12500000000E+03 0.  0.
        -11    1    3    3    0    0 -0.17333352457E+02  0.18504115261E+02 -0.20599991126E+02  0.32668134682E+02  0.51100000000E-03 0.  1.
         23    2    1    0    0    0  0.51687236606E+01 -0.94720244489E+01  0.29090963642E+02  0.93972284695E+02  0.88702148642E+02 0.  0.
         11    1    3    3    0    0  0.22502076117E+02 -0.27976139710E+02  0.49690954769E+02  0.61304150012E+02  0.51100000000E-03 0. -1.
         22    1    1    0    0    0 -0.51687236606E+01  0.94720244489E+01 -0.29090963642E+02  0.31027715305E+02  0.00000000000E+00 0. -1.
</event>
<event>
 5    1  0.1717518E-003  0.9118800E+02  0.7818608E-02  0.1130116E+00
         25   -1    0    0    0    0  0.00000000000E+00  0.00000000000E+00  0.99999998245E-14  0.12500000000E+03  0.12500000000E+03 0.  0.
        -11    1    3    3    0    0  0.39734676048E+02 -0.87965010479E+01  0.40547475994E+02  0.57448417916E+02  0.51100000000E-03 0.  1.
         23    2    1    0    0    0  0.29367998024E+02 -0.23046962275E+01  0.48987714022E+01  0.95137165341E+02  0.90328795715E+02 0.  0.
         11    1    3    3    0    0 -0.10366678024E+02  0.64918048204E+01 -0.35648704592E+02  0.37688747425E+02  0.51100000000E-03 0. -1.
         22    1    1    0    0    0 -0.29367998024E+02  0.23046962275E+01 -0.48987714022E+01  0.29862834659E+02  0.00000000000E+00 0.  1.
</event>
<event>
 5    1  0.1717518E-003  0.9118800E+02  0.7818608E-02  0.1130116E+00
         25   -1    0    0    0    0  0.00000000000E+00  0.00000000000E+00  0.99999998245E-14  0.12500000000E+03  0.12500000000E+03 0.  0.
        -11    1    3    3    0    0  0.35056792418E+02  0.29226604496E+02 -0.24494089748E+02  0.51798972363E+02  0.51100000000E-03 0.  1.
         23    2    1    0    0    0  0.39999325249E+02  0.15449145902E+01 -0.87511603670E+01  0.84025427529E+02  0.73357732259E+02 0.  0.
         11    1    3    3    0    0  0.49425328311E+01 -0.27681689905E+02  0.15742929381E+02  0.32226455166E+02  0.51100000000E-03 0. -1.
         22    1    1    0    0    0 -0.39999325249E+02 -0.15449145902E+01  0.87511603670E+01  0.40974572471E+02  0.00000000000E+00 0.  1.
</event>
<event>
 5    1  0.1717518E-003  0.9118800E+02  0.7818608E-02  0.1130116E+00
         25   -1    0    0    0    0  0.00000000000E+00  0.00000000000E+00  0.99999998245E-14  0.12500000000E+03  0.12500000000E+03 0.  0.
        -11    1    3    3    0    0  0.70305790199E+01  0.38515139872E+02 -0.30087275494E+02  0.49377010720E+02  0.51100000000E-03 0. -1.
         23    2    1    0    0    0  0.23453362556E+02  0.15659657707E+02  0.70091394724E+01  0.95941212502E+02  0.91434693228E+02 0.  0.
         11    1    3    3    0    0  0.16422783536E+02 -0.22855482165E+02  0.37096414966E+02  0.46564201783E+02  0.51100000000E-03 0.  1.
         22    1    1    0    0    0 -0.23453362556E+02 -0.15659657707E+02 -0.70091394724E+01  0.29058787498E+02  0.00000000000E+00 0. -1.
</event>
<event>
 5    1  0.1717518E-003  0.9118800E+02  0.7818608E-02  0.1130116E+00
         25   -1    0    0    0    0  0.00000000000E+00  0.00000000000E+00  0.99999998245E-14  0.12500000000E+03  0.12500000000E+03 0.  0.
        -11    1    3    3    0    0 -0.49601565549E+02  0.33755955140E+02 -0.75655015439E+01  0.60473271998E+02  0.51100000000E-03 0.  1.
         23    2    1    0    0    0 -0.15761605257E+02  0.23792869976E+02 -0.46866100905E+00  0.96456200233E+02  0.92136041039E+02 0.  0.
         11    1    3    3    0    0  0.33839960292E+02 -0.99630851636E+01  0.70968405349E+01  0.35982928235E+02  0.51100000000E-03 0. -1.
         22    1    1    0    0    0  0.15761605257E+02 -0.23792869976E+02  0.46866100905E+00  0.28543799767E+02  0.00000000000E+00 0.  1.
</event>
<event>
 5    1  0.1717518E-003  0.9118800E+02  0.7818608E-02  0.1130116E+00
         25   -1    0    0    0    0  0.00000000000E+00  0.00000000000E+00  0.99999998245E-14  0.12500000000E+03  0.12500000000E+03 0.  0.
        -11    1    3    3    0    0  0.33192859896E+02  0.42788322044E+02  0.23307897914E+02  0.58956463232E+02  0.51100000000E-03 0. -1.
         23    2    1    0    0    0  0.19872018101E+02  0.19492108567E+02 -0.35679588918E+01  0.96936327210E+02  0.92785137833E+02 0.  0.
         11    1    3    3    0    0 -0.13320841795E+02 -0.23296213477E+02 -0.26875856806E+02  0.37979863978E+02  0.51100000000E-03 0.  1.
         22    1    1    0    0    0 -0.19872018101E+02 -0.19492108567E+02  0.35679588918E+01  0.28063672790E+02  0.00000000000E+00 0. -1.
</event>
<event>
 5    1  0.1717518E-003  0.9118800E+02  0.7818608E-02  0.1130116E+00
         25   -1    0    0    0    0  0.00000000000E+00  0.00000000000E+00  0.99999998245E-14  0.12500000000E+03  0.12500000000E+03 0.  0.
        -11    1    3    3    0    0  0.32276419536E+02  0.43173064214E+02  0.17586365220E+01  0.53933046775E+02  0.51100000000E-03 0. -1.
         23    2    1    0    0    0  0.12007230846E+02  0.16283700759E+02 -0.21975029546E+02  0.95129706621E+02  0.90318473499E+02 0.  0.
         11    1    3    3    0    0 -0.20269188690E+02 -0.26889363455E+02 -0.23733666068E+02  0.41196659846E+02  0.51100000000E-03 0.  1.
         22    1    1    0    0    0 -0.12007230846E+02 -0.16283700759E+02  0.21975029546E+02  0.29870293379E+02  0.00000000000E+00 0. -1.
</event>
<event>
 5    1  0.1717518E-003  0.9118800E+02  0.7818608E-02  0.1130116E+00
         25   -1    0    0    0    0  0.00000000000E+00  0.00000000000E+00  0.99999998245E-14  0.12500000000E+03  0.12500000000E+03 0.  0.
        -11    1    3    3    0    0 -0.35339165793E+02 -0.36762742469E+01  0.15024586581E+02  0.38576026668E+02  0.51100000000E-03 0.  1.
         23    2    1    0    0    0  0.17349113860E+02 -0.47329300245E+01  0.26943945508E+02  0.92606041028E+02  0.86755462405E+02 0.  0.
         11    1    3    3    0    0  0.52688279653E+02 -0.10566557776E+01  0.11919358926E+02  0.54030014360E+02  0.51100000000E-03 0. -1.
         22    1    1    0    0    0 -0.17349113860E+02  0.47329300245E+01 -0.26943945508E+02  0.32393958972E+02  0.00000000000E+00 0. -1.
</event>
<event>
 5    1  0.1717518E-003  0.9118800E+02  0.7818608E-02  0.1130116E+00
         25   -1    0    0    0    0  0.00000000000E+00  0.00000000000E+00  0.99999998245E-14  0.12500000000E+03  0.12500000000E+03 0.  0.
        -11    1    3    3    0    0  0.38159297257E+02 -0.16892380359E+01  0.14364137098E+02  0.40808258075E+02  0.51100000000E-03 0. -1.
         23    2    1    0    0    0 -0.15054109389E+02  0.99052080993E+01  0.22819978229E+02  0.95922676131E+02  0.91409348716E+02 0.  0.
         11    1    3    3    0    0 -0.53213406647E+02  0.11594446135E+02  0.84558411315E+01  0.55114418056E+02  0.51100000000E-03 0.  1.
         22    1    1    0    0    0  0.15054109389E+02 -0.99052080993E+01 -0.22819978229E+02  0.29077323869E+02  0.00000000000E+00 0.  1.
</event>
<event>
 5    1  0.1717518E-003  0.9118800E+02  0.7818608E-02  0.1130116E+00
         25   -1    0    0    0    0  0.00000000000E+00  0.00000000000E+00  0.99999998245E-14  0.12500000000E+03  0.12500000000E+03 0.  0.
        -11    1    3    3    0    0 -0.19995115301E+02 -0.21973091676E+01  0.38408957888E+02  0.43357592759E+02  0.51100000000E-03 0.  1.
         23    2    1    0    0    0  0.83394764221E+01  0.27694266853E+02  0.67655539831E+01  0.95296599450E+02  0.90549157161E+02 0.  0.
         11    1    3    3    0    0  0.28334591724E+02  0.29891576021E+02 -0.31643403905E+02  0.51939006692E+02  0.51100000000E-03 0. -1.
         22    1    1    0    0    0 -0.83394764221E+01 -0.27694266853E+02 -0.67655539831E+01  0.29703400550E+02  0.00000000000E+00 0. -1.
</event>
<event>
 5    1  0.1717518E-003  0.9118800E+02  0.7818608E-02  0.1130116E+00
         25   -1    0    0    0    0  0.00000000000E+00  0.00000000000E+00  0.99999998245E-14  0.12500000000E+03  0.12500000000E+03 0.  0.
        -11    1    3    3    0    0 -0.18335720356E+02  0.27333561508E+02  0.15087721461E+02  0.36207203217E+02  0.51100000000E-03 0. -1.
         23    2    1    0    0    0 -0.14694465181E+02 -0.21449042099E+02 -0.16284884289E+02  0.94321242362E+02  0.89192547842E+02 0.  0.
         11    1    3    3    0    0  0.36412551752E+01 -0.48782603607E+02 -0.31372605749E+02  0.58114039145E+02  0.51100000000E-03 0.  1.
         22    1    1    0    0    0  0.14694465181E+02  0.21449042099E+02  0.16284884289E+02  0.30678757638E+02  0.00000000000E+00 0.  1.
</event>
<event>
 5    1  0.1717518E-003  0.9118800E+02  0.7818608E-02  0.1130116E+00
         25   -1    0    0    0    0  0.00000000000E+00  0.00000000000E+00  0.99999998245E-14  0.12500000000E+03  0.12500000000E+03 0.  0.
        -11    1    3    3    0    0 -0.23397330679E+02 -0.12236868229E+02  0.53352713190E+02  0.59528884014E+02  0.51100000000E-03 0. -1.
         23    2    1    0    0    0 -0.81550626806E+00  0.14176358404E+01  0.30553450898E+02  0.94402808894E+02  0.89306787107E+02 0.  0.
         11    1    3    3    0    0  0.22581824411E+02  0.13654504070E+02 -0.22799262293E+02  0.34873924879E+02  0.51100000000E-03 0.  1.
         22    1    1    0    0    0  0.81550626806E+00 -0.14176358404E+01 -0.30553450898E+02  0.30597191106E+02  0.00000000000E+00 0. -1.
</event>
<event>
 5    1  0.1717518E-003  0.9118800E+02  0.7818608E-02  0.1130116E+00
         25   -1    0    0    0    0  0.00000000000E+00  0.00000000000E+00  0.99999998245E-14  0.12500000000E+03  0.12500000000E+03 0.  0.
        -11    1    3    3    0    0 -0.24432364612E+02 -0.32573355393E+02  0.42240473091E+02  0.58670448177E+02  0.51100000000E-03 0. -1.
         23    2    1    0    0    0  0.37160968881E+01 -0.17816192041E+02  0.22405459953E+02  0.96134264073E+02  0.91698233452E+02 0.  0.
         11    1    3    3    0    0  0.28148461500E+02  0.14757163352E+02 -0.19835013138E+02  0.37463815896E+02  0.51100000000E-03 0.  1.
         22    1    1    0    0    0 -0.37160968881E+01  0.17816192041E+02 -0.22405459953E+02  0.28865735927E+02  0.00000000000E+00 0.  1.
</event>
<event>
 5    1  0.1717518E-003  0.9118800E+02  0.7818608E-02  0.1130116E+00
         25   -1    0    0    0    0  0.00000000000E+00  0.00000000000E+00  0.99999998245E-14  0.12500000000E+03  0.12500000000E+03 0.  0.
        -11    1    3    3    0    0  0.26921539883E+02 -0.12489057104E+02  0.15457625860E+02  0.33461680390E+02  0.51100000000E-03 0.  1.
         23    2    1    0    0    0 -0.27469298520E+02  0.99987820525E+01 -0.40978369046E+01  0.95481696000E+02  0.90804317079E+02 0.  0.
         11    1    3    3    0    0 -0.54390838403E+02  0.22487839156E+02 -0.19555462764E+02  0.62020015611E+02  0.51100000000E-03 0. -1.
         22    1    1    0    0    0  0.27469298520E+02 -0.99987820525E+01  0.40978369046E+01  0.29518304000E+02  0.00000000000E+00 0. -1.
</event>
<event>
 5    1  0.1717518E-003  0.9118800E+02  0.7818608E-02  0.1130116E+00
         25   -1    0    0    0    0  0.00000000000E+00  0.00000000000E+00  0.99999998245E-14  0.12500000000E+03  0.12500000000E+03 0.  0.
        -11    1    3    3    0    0 -0.83125615346E+01  0.60037346306E+01 -0.37211270585E+02  0.38598214565E+02  0.51100000000E-03 0. -1.
         23    2    1    0    0    0  0.69743927853E+01  0.22724712919E+02  0.15941913484E+02  0.96378341462E+02  0.92030350240E+02 0.  0.
         11    1    3    3    0    0  0.15286954320E+02  0.16720978288E+02  0.53153184069E+02  0.57780126897E+02  0.51100000000E-03 0.  1.
         22    1    1    0    0    0 -0.69743927853E+01 -0.22724712919E+02 -0.15941913484E+02  0.28621658538E+02  0.00000000000E+00 0.  1.
</event>
<event>
 5    1  0.1717518E-003  0.9118800E+02  0.7818608E-02  0.1130116E+00
         25   -1    0    0    0    0  0.00000000000E+00  0.00000000000E+00  0.99999998245E-14  0.12500000000E+03  0.12500000000E+03 0.  0.
        -11    1    3    3    0    0 -0.59046556885E+02 -0.80989300607E+01 -0.14911134034E+01  0.59618050685E+02  0.51100000000E-03 0.  1.
         23    2    1    0    0    0 -0.25051025840E+02 -0.12445643706E+02  0.92563557947E+01  0.95535986942E+02  0.90879022528E+02 0.  0.
         11    1    3    3    0    0  0.33995531045E+02 -0.43467136449E+01  0.10747469198E+02  0.35917936257E+02  0.51100000000E-03 0. -1.
         22    1    1    0    0    0  0.25051025840E+02  0.12445643706E+02 -0.92563557947E+01  0.29464013058E+02  0.00000000000E+00 0.  1.
</event>
<event>
 5    1  0.1717518E-003  0.9118800E+02  0.7818608E-02  0.1130116E+00
         25   -1    0    0    0    0  0.00000000000E+00  0.00000000000E+00  0.99999998245E-14  0.12500000000E+03  0.12500000000E+03 0.  0.
        -11    1    3    3    0    0 -0.34850201830E+02  0.22461708159E+02  0.32633874940E+02  0.52763952609E+02  0.51100000000E-03 0. -1.
         23    2    1    0    0    0 -0.26867781564E+02  0.78194912435E+01 -0.73347025046E+01  0.96072158907E+02  0.91613534626E+02 0.  0.
         11    1    3    3    0    0  0.79824202657E+01 -0.14642216916E+02 -0.39968577445E+02  0.43308206298E+02  0.51100000000E-03 0.  1.
         22    1    1    0    0    0  0.26867781564E+02 -0.78194912435E+01  0.73347025046E+01  0.28927841093E+02  0.00000000000E+00 0. -1.
</event>
<event>
 5    1  0.1717518E-003  0.9118800E+02  0.7818608E-02  0.1130116E+00
         25   -1    0    0    0    0  0.00000000000E+00  0.00000000000E+00  0.99999998245E-14  0.12500000000E+03  0.12500000000E+03 0.  0.
        -11    1    3    3    0    0 -0.24827090213E+02 -0.95258318785E+01  0.25368982423E+02  0.36752022405E+02  0.51100000000E-03 0. -1.
         23    2    1    0    0    0  0.33525472848E+01  0.30740427092E+02 -0.37066644097E+01  0.93855934881E+02  0.88538035443E+02 0.  0.
         11    1    3    3    0    0  0.28179637497E+02  0.40266258971E+02 -0.29075646833E+02  0.57103912476E+02  0.51100000000E-03 0.  1.
         22    1    1    0    0    0 -0.33525472848E+01 -0.30740427092E+02  0.37066644097E+01  0.31144065119E+02  0.00000000000E+00 0.  1.
</event>
<event>
 5    1  0.1717518E-003  0.9118800E+02  0.7818608E-02  0.1130116E+00
         25   -1    0    0    0    0  0.00000000000E+00  0.00000000000E+00  0.99999998245E-14  0.12500000000E+03  0.12500000000E+03 0.  0.
        -11    1    3    3    0    0 -0.40140534109E+02  0.15143348272E+01 -0.43361298419E+01  0.40402446842E+02  0.51100000000E-03 0. -1.
         23    2    1    0    0    0  0.46634641020E+01  0.27004725753E+02  0.12840383558E+02  0.94736514406E+02  0.89772649518E+02 0.  0.
         11    1    3    3    0    0  0.44803998211E+02  0.25490390925E+02  0.17176513399E+02  0.54334067564E+02  0.51100000000E-03 0.  1.
         22    1    1    0    0    0 -0.46634641020E+01 -0.27004725753E+02 -0.12840383558E+02  0.30263485594E+02  0.00000000000E+00 0.  1.
</event>
<event>
 5    1  0.1717518E-003  0.9118800E+02  0.7818608E-02  0.1130116E+00
         25   -1    0    0    0    0  0.00000000000E+00  0.00000000000E+00  0.99999998245E-14  0.12500000000E+03  0.12500000000E+03 0.  0.
        -11    1    3    3    0    0  0.48283641450E+01 -0.17078623862E+02 -0.24023716205E+02  0.29868569331E+02  0.51100000000E-03 0. -1.
         23    2    1    0    0    0 -0.17191395426E+02  0.31231680685E+02  0.25861344661E+01  0.89255769045E+02  0.81785953937E+02 0.  0.
         11    1    3    3    0    0 -0.22019759571E+02  0.48310304546E+02  0.26609850671E+02  0.59387199714E+02  0.51100000000E-03 0.  1.
         22    1    1    0    0    0  0.17191395426E+02 -0.31231680685E+02 -0.25861344661E+01  0.35744230955E+02  0.00000000000E+00 0.  1.
</event>
<event>
 5    1  0.1717518E-003  0.9118800E+02  0.7818608E-02  0.1130116E+00
         25   -1    0    0    0    0  0.00000000000E+00  0.00000000000E+00  0.99999998245E-14  0.12500000000E+03  0.12500000000E+03 0.  0.
        -11    1    3    3    0    0 -0.22792405037E+02  0.12548042456E+02 -0.29268217832E+02  0.39160894681E+02  0.51100000000E-03 0. -1.
         23    2    1    0    0    0 -0.87123936021E+01  0.97807747539E+01  0.25798643768E+02  0.96066639025E+02  0.91606002839E+02 0.  0.
         11    1    3    3    0    0  0.14080011435E+02 -0.27672677025E+01  0.55066861600E+02  0.56905744344E+02  0.51100000000E-03 0.  1.
         22    1    1    0    0    0  0.87123936021E+01 -0.97807747539E+01 -0.25798643768E+02  0.28933360975E+02  0.00000000000E+00 0.  1.
</event>
<event>
 5    1  0.1717518E-003  0.9118800E+02  0.7818608E-02  0.1130116E+00
         25   -1    0    0    0    0  0.00000000000E+00  0.00000000000E+00  0.99999998245E-14  0.12500000000E+03  0.12500000000E+03 0.  0.
        -11    1    3    3    0    0 -0.60316368244E+02 -0.13748579498E+02 -0.39461076770E+01  0.61989188431E+02  0.51100000000E-03 0.  1.
         23    2    1    0    0    0 -0.28103424607E+02 -0.10289359123E+02  0.23000196778E+01  0.94983946356E+02  0.90116516738E+02 0.  0.
         11    1    3    3    0    0  0.32212943636E+02  0.34592203747E+01  0.62461273549E+01  0.32994757925E+02  0.51100000000E-03 0. -1.
         22    1    1    0    0    0  0.28103424607E+02  0.10289359123E+02 -0.23000196778E+01  0.30016053644E+02  0.00000000000E+00 0.  1.
</event>
<event>
 5    1  0.1717518E-003  0.9118800E+02  0.7818608E-02  0.1130116E+00
         25   -1    0    0    0    0  0.00000000000E+00  0.00000000000E+00  0.99999998245E-14  0.12500000000E+03  0.12500000000E+03 0.  0.
        -11    1    3    3    0    0 -0.74436948030E+01  0.33082122143E+02  0.26824699561E+02  0.43236557502E+02  0.51100000000E-03 0.  1.
         23    2    1    0    0    0  0.25017155816E+02 -0.60293905505E+01  0.14201398439E+02  0.95607971265E+02  0.90977979843E+02 0.  0.
         11    1    3    3    0    0  0.32460850619E+02 -0.39111512694E+02 -0.12623301121E+02  0.52371413763E+02  0.51100000000E-03 0. -1.
         22    1    1    0    0    0 -0.25017155816E+02  0.60293905505E+01 -0.14201398439E+02  0.29392028735E+02  0.00000000000E+00 0. -1.
</event>
<event>
 5    1  0.1717518E-003  0.9118800E+02  0.7818608E-02  0.1130116E+00
         25   -1    0    0    0    0  0.00000000000E+00  0.00000000000E+00  0.99999998245E-14  0.12500000000E+03  0.12500000000E+03 0.  0.
        -11    1    3    3    0    0 -0.85581442203E+01 -0.43248898715E+02  0.30894661015E+02  0.53834832145E+02  0.51100000000E-03 0. -1.
         23    2    1    0    0    0  0.13213309144E+02 -0.35137329588E+02  0.76716926607E+01  0.86684489598E+02  0.77756815775E+02 0.  0.
         11    1    3    3    0    0  0.21771453365E+02  0.81115691272E+01 -0.23222968355E+02  0.32849657453E+02  0.51100000000E-03 0.  1.
         22    1    1    0    0    0 -0.13213309144E+02  0.35137329588E+02 -0.76716926607E+01  0.38315510402E+02  0.00000000000E+00 0. -1.
</event>
<event>
 5    1  0.1717518E-003  0.9118800E+02  0.7818608E-02  0.1130116E+00
         25   -1    0    0    0    0  0.00000000000E+00  0.00000000000E+00  0.99999998245E-14  0.12500000000E+03  0.12500000000E+03 0.  0.
        -11    1    3    3    0    0  0.35142403938E+02  0.31311246879E+01 -0.41718405663E+02  0.54637147324E+02  0.51100000000E-03 0. -1.
         23    2    1    0    0    0 -0.15172567346E+01  0.13952548178E+02 -0.24942536512E+02  0.96379975607E+02  0.92032569787E+02 0.  0.
         11    1    3    3    0    0 -0.36659660673E+02  0.10821423490E+02  0.16775869151E+02  0.41742828283E+02  0.51100000000E-03 0.  1.
         22    1    1    0    0    0  0.15172567346E+01 -0.13952548178E+02  0.24942536512E+02  0.28620024393E+02  0.00000000000E+00 0. -1.
</event>
<event>
 5    1  0.1717518E-003  0.9118800E+02  0.7818608E-02  0.1130116E+00
         25   -1    0    0    0    0  0.00000000000E+00  0.00000000000E+00  0.99999998245E-14  0.12500000000E+03  0.12500000000E+03 0.  0.
        -11    1    3    3    0    0  0.22604246842E+02 -0.13709652545E+02  0.50931526225E+02  0.57384030113E+02  0.51100000000E-03 0. -1.
         23    2    1    0    0    0 -0.56629757186E+01 -0.74765349023E+00  0.29013905060E+02  0.95429153435E+02  0.90731958861E+02 0.  0.
         11    1    3    3    0    0 -0.28267222560E+02  0.12961999055E+02 -0.21917621165E+02  0.38045123321E+02  0.51100000000E-03 0.  1.
         22    1    1    0    0    0  0.56629757186E+01  0.74765349023E+00 -0.29013905060E+02  0.29570846565E+02  0.00000000000E+00 0. -1.
</event>
<event>
 5    1  0.1717518E-003  0.9118800E+02  0.7818608E-02  0.1130116E+00
         25   -1    0    0    0    0  0.00000000000E+00  0.00000000000E+00  0.99999998245E-14  0.12500000000E+03  0.12500000000E+03 0.  0.
        -11    1    3    3    0    0 -0.26060749593E+02 -0.24457869849E+02  0.72081158821E+01  0.36459662666E+02  0.51100000000E-03 0.  1.
         23    2    1    0    0    0  0.15581437858E+02  0.15194385118E+02  0.20084897273E+02  0.95384908521E+02  0.90670982845E+02 0.  0.
         11    1    3    3    0    0  0.41642187452E+02  0.39652254967E+02  0.12876781391E+02  0.58925245854E+02  0.51100000000E-03 0. -1.
         22    1    1    0    0    0 -0.15581437858E+02 -0.15194385118E+02 -0.20084897273E+02  0.29615091479E+02  0.00000000000E+00 0. -1.
</event>
<event>
 5    1  0.1717518E-003  0.9118800E+02  0.7818608E-02  0.1130116E+00
         25   -1    0    0    0    0  0.00000000000E+00  0.00000000000E+00  0.99999998245E-14  0.12500000000E+03  0.12500000000E+03 0.  0.
        -11    1    3    3    0    0 -0.98219662607E+01 -0.31686817240E+02  0.10482652366E+02  0.34790967347E+02  0.51100000000E-03 0. -1.
         23    2    1    0    0    0  0.16811267722E+02  0.14788820349E+02  0.26123850888E+02  0.90593844810E+02  0.83806092872E+02 0.  0.
         11    1    3    3    0    0  0.26633233982E+02  0.46475637589E+02  0.15641198522E+02  0.55802877463E+02  0.51100000000E-03 0.  1.
         22    1    1    0    0    0 -0.16811267722E+02 -0.14788820349E+02 -0.26123850888E+02  0.34406155190E+02  0.00000000000E+00 0.  1.
</event>
<event>
 5    1  0.1717518E-003  0.9118800E+02  0.7818608E-02  0.1130116E+00
         25   -1    0    0    0    0  0.00000000000E+00  0.00000000000E+00  0.99999998245E-14  0.12500000000E+03  0.12500000000E+03 0.  0.
        -11    1    3    3    0    0 -0.25500141653E+02 -0.44403588171E+02 -0.26600133886E+02  0.57701845636E+02  0.51100000000E-03 0. -1.
         23    2    1    0    0    0  0.36910173109E+01 -0.26599671058E+02 -0.64793827204E+01  0.97374857293E+02  0.93374055942E+02 0.  0.
         11    1    3    3    0    0  0.29191158964E+02  0.17803917113E+02  0.20120751165E+02  0.39673011657E+02  0.51100000000E-03 0.  1.
         22    1    1    0    0    0 -0.36910173109E+01  0.26599671058E+02  0.64793827204E+01  0.27625142707E+02  0.00000000000E+00 0. -1.
</event>
<event>
 5    1  0.1717518E-003  0.9118800E+02  0.7818608E-02  0.1130116E+00
         25   -1    0    0    0    0  0.00000000000E+00  0.00000000000E+00  0.99999998245E-14  0.12500000000E+03  0.12500000000E+03 0.  0.
        -11    1    3    3    0    0  0.23971237732E+02 -0.23242917680E+02 -0.19547174110E+02  0.38690379640E+02  0.51100000000E-03 0.  1.
         23    2    1    0    0    0 -0.23225752254E+02 -0.17299220670E+02  0.96124058453E+01  0.94486118737E+02  0.89423317341E+02 0.  0.
         11    1    3    3    0    0 -0.47196989987E+02  0.59436970100E+01  0.29159579956E+02  0.55795739097E+02  0.51100000000E-03 0. -1.
         22    1    1    0    0    0  0.23225752254E+02  0.17299220670E+02 -0.96124058453E+01  0.30513881263E+02  0.00000000000E+00 0. -1.
</event>
<event>
 5    1  0.1717518E-003  0.9118800E+02  0.7818608E-02  0.1130116E+00
         25   -1    0    0    0    0  0.00000000000E+00  0.00000000000E+00  0.99999998245E-14  0.12500000000E+03  0.12500000000E+03 0.  0.
        -11    1    3    3    0    0  0.46258648950E+02  0.11926911545E+02  0.34359885695E+02  0.58844843164E+02  0.51100000000E-03 0. -1.
         23    2    1    0    0    0  0.29915366298E+02 -0.21506790597E+00  0.48553479650E+01  0.94692413510E+02  0.89711222139E+02 0.  0.
         11    1    3    3    0    0 -0.16343282652E+02 -0.12141979451E+02 -0.29504537730E+02  0.35847570347E+02  0.51100000000E-03 0.  1.
         22    1    1    0    0    0 -0.29915366298E+02  0.21506790597E+00 -0.48553479650E+01  0.30307586490E+02  0.00000000000E+00 0. -1.
</event>
<event>
 5    1  0.1717518E-003  0.9118800E+02  0.7818608E-02  0.1130116E+00
         25   -1    0    0    0    0  0.00000000000E+00  0.00000000000E+00  0.99999998245E-14  0.12500000000E+03  0.12500000000E+03 0.  0.
        -11    1    3    3    0    0 -0.29739266397E+02 -0.38573105033E+02  0.32180409139E+01  0.48812541271E+02  0.51100000000E-03 0. -1.
         23    2    1    0    0    0  0.35775716099E+01 -0.12570183468E+02  0.25320007284E+02  0.96505942726E+02  0.92203501461E+02 0.  0.
         11    1    3    3    0    0  0.33316838007E+02  0.26002921565E+02  0.22101966370E+02  0.47693401456E+02  0.51100000000E-03 0.  1.
         22    1    1    0    0    0 -0.35775716099E+01  0.12570183468E+02 -0.25320007284E+02  0.28494057274E+02  0.00000000000E+00 0. -1.
</event>
<event>
 5    1  0.1717518E-003  0.9118800E+02  0.7818608E-02  0.1130116E+00
         25   -1    0    0    0    0  0.00000000000E+00  0.00000000000E+00  0.99999998245E-14  0.12500000000E+03  0.12500000000E+03 0.  0.
        -11    1    3    3    0    0  0.15942369257E+02  0.35001012268E+01 -0.40833293469E+02  0.43974625660E+02  0.51100000000E-03 0. -1.
         23    2    1    0    0    0 -0.16375166343E+01  0.31244143707E+02 -0.37865637497E+01  0.93484669735E+02  0.88012314103E+02 0.  0.
         11    1    3    3    0    0 -0.17579885892E+02  0.27744042480E+02  0.37046729720E+02  0.49510044075E+02  0.51100000000E-03 0.  1.
         22    1    1    0    0    0  0.16375166343E+01 -0.31244143707E+02  0.37865637497E+01  0.31515330265E+02  0.00000000000E+00 0.  1.
</event>
<event>
 5    1  0.1717518E-003  0.9118800E+02  0.7818608E-02  0.1130116E+00
         25   -1    0    0    0    0  0.00000000000E+00  0.00000000000E+00  0.99999998245E-14  0.12500000000E+03  0.12500000000E+03 0.  0.
        -11    1    3    3    0    0  0.94211355170E+01 -0.32697623580E+02 -0.20252175677E+02  0.39598522727E+02  0.51100000000E-03 0. -1.
         23    2    1    0    0    0  0.20090405299E+02  0.20438132803E+02 -0.49215738711E+01  0.95921424606E+02  0.91407637271E+02 0.  0.
         11    1    3    3    0    0  0.10669269783E+02  0.53135756383E+02  0.15330601806E+02  0.56322901879E+02  0.51100000000E-03 0.  1.
         22    1    1    0    0    0 -0.20090405299E+02 -0.20438132803E+02  0.49215738711E+01  0.29078575394E+02  0.00000000000E+00 0.  1.
</event>
<event>
 5    1  0.1717518E-003  0.9118800E+02  0.7818608E-02  0.1130116E+00
         25   -1    0    0    0    0  0.00000000000E+00  0.00000000000E+00  0.99999998245E-14  0.12500000000E+03  0.12500000000E+03 0.  0.
        -11    1    3    3    0    0  0.76752228416E+01  0.33752672967E+02 -0.12871146721E+02  0.36929911945E+02  0.51100000000E-03 0.  1.
         23    2    1    0    0    0 -0.19153687116E+02 -0.17736046894E+02 -0.14744667330E+02  0.95019401202E+02  0.90165682499E+02 0.  0.
         11    1    3    3    0    0 -0.26828909958E+02 -0.51488719861E+02 -0.18735206092E+01  0.58089489258E+02  0.51100000000E-03 0. -1.
         22    1    1    0    0    0  0.19153687116E+02  0.17736046894E+02  0.14744667330E+02  0.29980598798E+02  0.00000000000E+00 0. -1.
</event>
<event>
 5    1  0.1717518E-003  0.9118800E+02  0.7818608E-02  0.1130116E+00
         25   -1    0    0    0    0  0.00000000000E+00  0.00000000000E+00  0.99999998245E-14  0.12500000000E+03  0.12500000000E+03 0.  0.
        -11    1    3    3    0    0 -0.10485238248E+02 -0.30251221193E+02  0.16733732614E+02  0.36126090465E+02  0.51100000000E-03 0. -1.
         23    2    1    0    0    0  0.24186010504E+02  0.16111980855E+02  0.19716398618E+01  0.95871896819E+02  0.91339882881E+02 0.  0.
         11    1    3    3    0    0  0.34671248753E+02  0.46363202048E+02 -0.14762092752E+02  0.59745806354E+02  0.51100000000E-03 0.  1.
         22    1    1    0    0    0 -0.24186010504E+02 -0.16111980855E+02 -0.19716398618E+01  0.29128103181E+02  0.00000000000E+00 0.  1.
</event>
<event>
 5    1  0.1717518E-003  0.9118800E+02  0.7818608E-02  0.1130116E+00
         25   -1    0    0    0    0  0.00000000000E+00  0.00000000000E+00  0.99999998245E-14  0.12500000000E+03  0.12500000000E+03 0.  0.
        -11    1    3    3    0    0  0.38673865164E+02 -0.10404010472E+02 -0.12080438263E+02  0.41831187761E+02  0.51100000000E-03 0.  1.
         23    2    1    0    0    0 -0.13371650416E+02 -0.24814179979E+02 -0.60493309241E+01  0.96170519126E+02  0.91747641830E+02 0.  0.
         11    1    3    3    0    0 -0.52045515580E+02 -0.14410169507E+02  0.60311073384E+01  0.54339331365E+02  0.51100000000E-03 0. -1.
         22    1    1    0    0    0  0.13371650416E+02  0.24814179979E+02  0.60493309241E+01  0.28829480874E+02  0.00000000000E+00 0. -1.
</event>
<event>
 5    1  0.1717518E-003  0.9118800E+02  0.7818608E-02  0.1130116E+00
         25   -1    0    0    0    0  0.00000000000E+00  0.00000000000E+00  0.99999998245E-14  0.12500000000E+03  0.12500000000E+03 0.  0.
        -11    1    3    3    0    0  0.84996737946E+00 -0.23272489169E+02 -0.28707410572E+02  0.36965478743E+02  0.51100000000E-03 0.  1.
         23    2    1    0    0    0  0.21664324643E+02  0.17982915838E+02  0.77193290567E+01  0.95805543927E+02  0.91249032772E+02 0.  0.
         11    1    3    3    0    0  0.20814357264E+02  0.41255405007E+02  0.36426739629E+02  0.58840065184E+02  0.51100000000E-03 0. -1.
         22    1    1    0    0    0 -0.21664324643E+02 -0.17982915838E+02 -0.77193290567E+01  0.29194456073E+02  0.00000000000E+00 0. -1.
</event>
<event>
 5    1  0.1717518E-003  0.9118800E+02  0.7818608E-02  0.1130116E+00
         25   -1    0    0    0    0  0.00000000000E+00  0.00000000000E+00  0.99999998245E-14  0.12500000000E+03  0.12500000000E+03 0.  0.
        -11    1    3    3    0    0 -0.51811828654E+02 -0.80158884032E+01 -0.18586329793E+02  0.55625279422E+02  0.51100000000E-03 0.  1.
         23    2    1    0    0    0 -0.25701402784E+02 -0.21049995226E+02  0.25837685701E+01  0.91678231378E+02  0.85408183710E+02 0.  0.
         11    1    3    3    0    0  0.26110425871E+02 -0.13034106822E+02  0.21170098363E+02  0.36052951956E+02  0.51100000000E-03 0. -1.
         22    1    1    0    0    0  0.25701402784E+02  0.21049995226E+02 -0.25837685701E+01  0.33321768622E+02  0.00000000000E+00 0.  1.
</event>
<event>
 5    1  0.1717518E-003  0.9118800E+02  0.7818608E-02  0.1130116E+00
         25   -1    0    0    0    0  0.00000000000E+00  0.00000000000E+00  0.99999998245E-14  0.12500000000E+03  0.12500000000E+03 0.  0.
        -11    1    3    3    0    0  0.82135505998E+01  0.59492963717E+02 -0.15427025639E+02  0.62007001746E+02  0.51100000000E-03 0.  1.
         23    2    1    0    0    0  0.61874583806E+01  0.28512628504E+02 -0.22405828334E+01  0.95737825835E+02  0.91156220078E+02 0.  0.
         11    1    3    3    0    0 -0.20260922192E+01 -0.30980335213E+02  0.13186442806E+02  0.33730824089E+02  0.51100000000E-03 0. -1.
         22    1    1    0    0    0 -0.61874583806E+01 -0.28512628504E+02  0.22405828334E+01  0.29262174165E+02  0.00000000000E+00 0.  1.
</event>
<event>
 5    1  0.1717518E-003  0.9118800E+02  0.7818608E-02  0.1130116E+00
         25   -1    0    0    0    0  0.00000000000E+00  0.00000000000E+00  0.99999998245E-14  0.12500000000E+03  0.12500000000E+03 0.  0.
        -11    1    3    3    0    0 -0.20787826607E+02  0.31455647770E+02  0.28847657071E+02  0.47473980562E+02  0.51100000000E-03 0.  1.
         23    2    1    0    0    0 -0.86459249901E+01  0.23651681023E+02 -0.16386773727E+02  0.94955360089E+02  0.90076856197E+02 0.  0.
         11    1    3    3    0    0  0.12141901617E+02 -0.78039667468E+01 -0.45234430798E+02  0.47481379527E+02  0.51100000000E-03 0. -1.
         22    1    1    0    0    0  0.86459249901E+01 -0.23651681023E+02  0.16386773727E+02  0.30044639911E+02  0.00000000000E+00 0. -1.
</event>
<event>
 5    1  0.1717518E-003  0.9118800E+02  0.7818608E-02  0.1130116E+00
         25   -1    0    0    0    0  0.00000000000E+00  0.00000000000E+00  0.99999998245E-14  0.12500000000E+03  0.12500000000E+03 0.  0.
        -11    1    3    3    0    0  0.15430583044E+02 -0.23918063078E+02  0.24480713388E+02  0.37543068105E+02  0.51100000000E-03 0.  1.
         23    2    1    0    0    0 -0.19738552969E+02  0.89428045060E+01 -0.14029458045E+02  0.99185083406E+02  0.95766752328E+02 0.  0.
         11    1    3    3    0    0 -0.35169136013E+02  0.32860867584E+02 -0.38510171433E+02  0.61642015301E+02  0.51100000000E-03 0. -1.
         22    1    1    0    0    0  0.19738552969E+02 -0.89428045060E+01  0.14029458045E+02  0.25814916594E+02  0.00000000000E+00 0. -1.
</event>
<event>
 5    1  0.1717518E-003  0.9118800E+02  0.7818608E-02  0.1130116E+00
         25   -1    0    0    0    0  0.00000000000E+00  0.00000000000E+00  0.99999998245E-14  0.12500000000E+03  0.12500000000E+03 0.  0.
        -11    1    3    3    0    0  0.11677185130E+01 -0.11074243431E+02 -0.34826072541E+02  0.36563065558E+02  0.51100000000E-03 0. -1.
         23    2    1    0    0    0 -0.25467756062E+02 -0.24533641231E+01  0.16166147338E+02  0.94735005136E+02  0.89770547977E+02 0.  0.
         11    1    3    3    0    0 -0.26635474575E+02  0.86208793077E+01  0.50992219879E+02  0.58171939578E+02  0.51100000000E-03 0.  1.
         22    1    1    0    0    0  0.25467756062E+02  0.24533641231E+01 -0.16166147338E+02  0.30264994864E+02  0.00000000000E+00 0.  1.
</event>
<event>
 5    1  0.1717518E-003  0.9118800E+02  0.7818608E-02  0.1130116E+00
         25   -1    0    0    0    0  0.00000000000E+00  0.00000000000E+00  0.99999998245E-14  0.12500000000E+03  0.12500000000E+03 0.  0.
        -11    1    3    3    0    0  0.49077566632E+02 -0.13999889377E+02  0.74092586893E+01  0.51570355473E+02  0.51100000000E-03 0. -1.
         23    2    1    0    0    0  0.39267758060E+01 -0.25786714958E+02 -0.56056576516E+00  0.98909992899E+02  0.95407013498E+02 0.  0.
         11    1    3    3    0    0 -0.45150790826E+02 -0.11786825582E+02 -0.79698244544E+01  0.47339637425E+02  0.51100000000E-03 0.  1.
         22    1    1    0    0    0 -0.39267758060E+01  0.25786714958E+02  0.56056576516E+00  0.26090007101E+02  0.00000000000E+00 0. -1.
</event>
<event>
 5    1  0.1717518E-003  0.9118800E+02  0.7818608E-02  0.1130116E+00
         25   -1    0    0    0    0  0.00000000000E+00  0.00000000000E+00  0.99999998245E-14  0.12500000000E+03  0.12500000000E+03 0.  0.
        -11    1    3    3    0    0  0.68356932266E+01  0.47517450226E+02 -0.22572924764E+02  0.53048767286E+02  0.51100000000E-03 0.  1.
         23    2    1    0    0    0  0.20981344867E+02  0.20332565771E+02  0.62537443037E+01  0.95121255363E+02  0.90306776273E+02 0.  0.
         11    1    3    3    0    0  0.14145651640E+02 -0.27184884455E+02  0.28826669068E+02  0.42072488077E+02  0.51100000000E-03 0. -1.
         22    1    1    0    0    0 -0.20981344867E+02 -0.20332565771E+02 -0.62537443037E+01  0.29878744637E+02  0.00000000000E+00 0.  1.
</event>
<event>
 5    1  0.1717518E-003  0.9118800E+02  0.7818608E-02  0.1130116E+00
         25   -1    0    0    0    0  0.00000000000E+00  0.00000000000E+00  0.99999998245E-14  0.12500000000E+03  0.12500000000E+03 0.  0.
        -11    1    3    3    0    0 -0.44899076528E+02  0.61984038509E+01  0.75109345023E+01  0.45943023635E+02  0.51100000000E-03 0.  1.
         23    2    1    0    0    0 -0.10524849762E+02 -0.25802991872E+02  0.14762718659E+02  0.93464231193E+02  0.87983281356E+02 0.  0.
         11    1    3    3    0    0  0.34374226767E+02 -0.32001395723E+02  0.72517841564E+01  0.47521207558E+02  0.51100000000E-03 0. -1.
         22    1    1    0    0    0  0.10524849762E+02  0.25802991872E+02 -0.14762718659E+02  0.31535768807E+02  0.00000000000E+00 0.  1.
</event>
<event>
 5    1  0.1717518E-003  0.9118800E+02  0.7818608E-02  0.1130116E+00
         25   -1    0    0    0    0  0.00000000000E+00  0.00000000000E+00  0.99999998245E-14  0.12500000000E+03  0.12500000000E+03 0.  0.
        -11    1    3    3    0    0 -0.70676551014E+01  0.14865093767E+02 -0.30742680012E+02  0.34871695341E+02  0.51100000000E-03 0.  1.
         23    2    1    0    0    0  0.75963662388E+01 -0.14052581931E+02  0.22617398240E+02  0.97310172588E+02  0.93287422234E+02 0.  0.
         11    1    3    3    0    0  0.14664021340E+02 -0.28917675698E+02  0.53360078252E+02  0.62438477247E+02  0.51100000000E-03 0. -1.
         22    1    1    0    0    0 -0.75963662388E+01  0.14052581931E+02 -0.22617398240E+02  0.27689827412E+02  0.00000000000E+00 0. -1.
</event>
<event>
 5    1  0.1717518E-003  0.9118800E+02  0.7818608E-02  0.1130116E+00
         25   -1    0    0    0    0  0.00000000000E+00  0.00000000000E+00  0.99999998245E-14  0.12500000000E+03  0.12500000000E+03 0.  0.
        -11    1    3    3    0    0 -0.49745200059E+02  0.69750534665E+01 -0.90637797253E+01  0.51043005426E+02  0.51100000000E-03 0. -1.
         23    2    1    0    0    0 -0.97666169328E+01  0.47033063156E+01 -0.27732559610E+02  0.95224124545E+02  0.90449052710E+02 0.  0.
         11    1    3    3    0    0  0.39978583126E+02 -0.22717471509E+01 -0.18668779885E+02  0.44181119118E+02  0.51100000000E-03 0.  1.
         22    1    1    0    0    0  0.97666169328E+01 -0.47033063156E+01  0.27732559610E+02  0.29775875455E+02  0.00000000000E+00 0.  1.
</event>
<event>
 5    1  0.1717518E-003  0.9118800E+02  0.7818608E-02  0.1130116E+00
         25   -1    0    0    0    0  0.00000000000E+00  0.00000000000E+00  0.99999998245E-14  0.12500000000E+03  0.12500000000E+03 0.  0.
        -11    1    3    3    0    0  0.30175487056E+02  0.19146925404E+02 -0.47376738141E+02  0.59344082170E+02  0.51100000000E-03 0. -1.
         23    2    1    0    0    0  0.24900823458E+02  0.27228818214E+01 -0.15631107374E+02  0.95473797873E+02  0.90793443972E+02 0.  0.
         11    1    3    3    0    0 -0.52746635977E+01 -0.16424043583E+02  0.31745630767E+02  0.36129715703E+02  0.51100000000E-03 0.  1.
         22    1    1    0    0    0 -0.24900823458E+02 -0.27228818214E+01  0.15631107374E+02  0.29526202127E+02  0.00000000000E+00 0. -1.
</event>
<event>
 5    1  0.1717518E-003  0.9118800E+02  0.7818608E-02  0.1130116E+00
         25   -1    0    0    0    0  0.00000000000E+00  0.00000000000E+00  0.99999998245E-14  0.12500000000E+03  0.12500000000E+03 0.  0.
        -11    1    3    3    0    0 -0.71541544242E+01  0.20793099250E+02  0.42302177171E+02  0.47676085155E+02  0.51100000000E-03 0. -1.
         23    2    1    0    0    0 -0.29553951208E+02 -0.11327232187E+01  0.33664291950E+02  0.80189246309E+02  0.66500462985E+02 0.  0.
         11    1    3    3    0    0 -0.22399796783E+02 -0.21925822469E+02 -0.86378852213E+01  0.32513161154E+02  0.51100000000E-03 0.  1.
         22    1    1    0    0    0  0.29553951208E+02  0.11327232187E+01 -0.33664291950E+02  0.44810753691E+02  0.00000000000E+00 0. -1.
</event>
<event>
 5    1  0.1717518E-003  0.9118800E+02  0.7818608E-02  0.1130116E+00
         25   -1    0    0    0    0  0.00000000000E+00  0.00000000000E+00  0.99999998245E-14  0.12500000000E+03  0.12500000000E+03 0.  0.
        -11    1    3    3    0    0  0.82408783317E+01  0.23368892514E+02 -0.45618762109E+02  0.51914243417E+02  0.51100000000E-03 0. -1.
         23    2    1    0    0    0 -0.15919889247E+02 -0.64717655431E+01 -0.22338248148E+02  0.96816246644E+02  0.92623224199E+02 0.  0.
         11    1    3    3    0    0 -0.24160767579E+02 -0.29840658057E+02  0.23280513960E+02  0.44902003227E+02  0.51100000000E-03 0.  1.
         22    1    1    0    0    0  0.15919889247E+02  0.64717655431E+01  0.22338248148E+02  0.28183753356E+02  0.00000000000E+00 0. -1.
</event>
<event>
 5    1  0.1717518E-003  0.9118800E+02  0.7818608E-02  0.1130116E+00
         25   -1    0    0    0    0  0.00000000000E+00  0.00000000000E+00  0.99999998245E-14  0.12500000000E+03  0.12500000000E+03 0.  0.
        -11    1    3    3    0    0 -0.24271478577E+02  0.12606248274E+01  0.49873105619E+02  0.55479910883E+02  0.51100000000E-03 0. -1.
         23    2    1    0    0    0 -0.15654447845E+02  0.18888350449E+02  0.13029856575E+02  0.97222154828E+02  0.93169408644E+02 0.  0.
         11    1    3    3    0    0  0.86170307326E+01  0.17627725621E+02 -0.36843249044E+02  0.41742243945E+02  0.51100000000E-03 0.  1.
         22    1    1    0    0    0  0.15654447845E+02 -0.18888350449E+02 -0.13029856575E+02  0.27777845172E+02  0.00000000000E+00 0. -1.
</event>
<event>
 5    1  0.1717518E-003  0.9118800E+02  0.7818608E-02  0.1130116E+00
         25   -1    0    0    0    0  0.00000000000E+00  0.00000000000E+00  0.99999998245E-14  0.12500000000E+03  0.12500000000E+03 0.  0.
        -11    1    3    3    0    0 -0.25943113439E+02 -0.44249959788E+02  0.26098693954E+02  0.57552114666E+02  0.51100000000E-03 0.  1.
         23    2    1    0    0    0  0.29568617459E+01 -0.29224793406E+02  0.93798043645E+01  0.94164755377E+02  0.88972966930E+02 0.  0.
         11    1    3    3    0    0  0.28899975185E+02  0.15025166382E+02 -0.16718889590E+02  0.36612640711E+02  0.51100000000E-03 0. -1.
         22    1    1    0    0    0 -0.29568617459E+01  0.29224793406E+02 -0.93798043645E+01  0.30835244623E+02  0.00000000000E+00 0.  1.
</event>
<event>
 5    1  0.1717518E-003  0.9118800E+02  0.7818608E-02  0.1130116E+00
         25   -1    0    0    0    0  0.00000000000E+00  0.00000000000E+00  0.99999998245E-14  0.12500000000E+03  0.12500000000E+03 0.  0.
        -11    1    3    3    0    0  0.13713088284E+02 -0.35111596995E+02 -0.31121592239E+02  0.48881760787E+02  0.51100000000E-03 0. -1.
         23    2    1    0    0    0 -0.17845068973E+02 -0.23642322330E+02  0.10172413240E+01  0.95361500178E+02  0.90638706106E+02 0.  0.
         11    1    3    3    0    0 -0.31558157257E+02  0.11469274665E+02  0.32138833563E+02  0.46479739391E+02  0.51100000000E-03 0.  1.
         22    1    1    0    0    0  0.17845068973E+02  0.23642322330E+02 -0.10172413240E+01  0.29638499822E+02  0.00000000000E+00 0. -1.
</event>
<event>
 5    1  0.1717518E-003  0.9118800E+02  0.7818608E-02  0.1130116E+00
         25   -1    0    0    0    0  0.00000000000E+00  0.00000000000E+00  0.99999998245E-14  0.12500000000E+03  0.12500000000E+03 0.  0.
        -11    1    3    3    0    0 -0.29936081074E+02  0.29609977852E+02  0.45353011923E+02  0.61885502578E+02  0.51100000000E-03 0. -1.
         23    2    1    0    0    0 -0.19589517479E+02  0.12724627492E+02  0.18771630453E+02  0.95032693652E+02  0.90184108428E+02 0.  0.
         11    1    3    3    0    0  0.10346563595E+02 -0.16885350360E+02 -0.26581381470E+02  0.33147191074E+02  0.51100000000E-03 0.  1.
         22    1    1    0    0    0  0.19589517479E+02 -0.12724627492E+02 -0.18771630453E+02  0.29967306348E+02  0.00000000000E+00 0. -1.
</event>
<event>
 5    1  0.1717518E-003  0.9118800E+02  0.7818608E-02  0.1130116E+00
         25   -1    0    0    0    0  0.00000000000E+00  0.00000000000E+00  0.99999998245E-14  0.12500000000E+03  0.12500000000E+03 0.  0.
        -11    1    3    3    0    0  0.21141101274E+02 -0.26772837837E+02  0.68636614533E+01  0.34797138643E+02  0.51100000000E-03 0. -1.
         23    2    1    0    0    0 -0.97957147368E+01  0.25042719432E+02  0.12378905378E+02  0.95397109565E+02  0.90687801778E+02 0.  0.
         11    1    3    3    0    0 -0.30936816011E+02  0.51815557269E+02  0.55152439243E+01  0.60599970922E+02  0.51100000000E-03 0.  1.
         22    1    1    0    0    0  0.97957147368E+01 -0.25042719432E+02 -0.12378905378E+02  0.29602890435E+02  0.00000000000E+00 0.  1.
</event>
<event>
 5    1  0.1717518E-003  0.9118800E+02  0.7818608E-02  0.1130116E+00
         25   -1    0    0    0    0  0.00000000000E+00  0.00000000000E+00  0.99999998245E-14  0.12500000000E+03  0.12500000000E+03 0.  0.
        -11    1    3    3    0    0  0.33031665146E+02  0.29021618018E+02 -0.93521832487E+01  0.44953404170E+02  0.51100000000E-03 0.  1.
         23    2    1    0    0    0  0.13006304875E+01 -0.44863192606E+01 -0.29373501653E+02  0.95257416058E+02  0.90495049669E+02 0.  0.
         11    1    3    3    0    0 -0.31731034659E+02 -0.33507937278E+02 -0.20021318404E+02  0.50304011888E+02  0.51100000000E-03 0. -1.
         22    1    1    0    0    0 -0.13006304875E+01  0.44863192606E+01  0.29373501653E+02  0.29742583942E+02  0.00000000000E+00 0. -1.
</event>
<event>
 5    1  0.1717518E-003  0.9118800E+02  0.7818608E-02  0.1130116E+00
         25   -1    0    0    0    0  0.00000000000E+00  0.00000000000E+00  0.99999998245E-14  0.12500000000E+03  0.12500000000E+03 0.  0.
        -11    1    3    3    0    0 -0.37999506437E+02  0.30734298829E+02  0.68651961083E+01  0.49352715546E+02  0.51100000000E-03 0.  1.
         23    2    1    0    0    0  0.51882689888E+01  0.21106430285E+02  0.19952733754E+02  0.95495574591E+02  0.90823420149E+02 0.  0.
         11    1    3    3    0    0  0.43187775425E+02 -0.96278685435E+01  0.13087537646E+02  0.46142859044E+02  0.51100000000E-03 0. -1.
         22    1    1    0    0    0 -0.51882689888E+01 -0.21106430285E+02 -0.19952733754E+02  0.29504425409E+02  0.00000000000E+00 0. -1.
</event>
<event>
 5    1  0.1717518E-003  0.9118800E+02  0.7818608E-02  0.1130116E+00
         25   -1    0    0    0    0  0.00000000000E+00  0.00000000000E+00  0.99999998245E-14  0.12500000000E+03  0.12500000000E+03 0.  0.
        -11    1    3    3    0    0 -0.11571797722E+02  0.51788562666E+02  0.16781383047E+02  0.55655876084E+02  0.51100000000E-03 0. -1.
         23    2    1    0    0    0  0.13607729758E+02  0.26543533025E+02 -0.25077158556E+00  0.95170612796E+02  0.90375069565E+02 0.  0.
         11    1    3    3    0    0  0.25179527480E+02 -0.25245029641E+02 -0.17032154632E+02  0.39514736711E+02  0.51100000000E-03 0.  1.
         22    1    1    0    0    0 -0.13607729758E+02 -0.26543533025E+02  0.25077158556E+00  0.29829387204E+02  0.00000000000E+00 0.  1.
</event>
<event>
 5    1  0.1717518E-003  0.9118800E+02  0.7818608E-02  0.1130116E+00
         25   -1    0    0    0    0  0.00000000000E+00  0.00000000000E+00  0.99999998245E-14  0.12500000000E+03  0.12500000000E+03 0.  0.
        -11    1    3    3    0    0 -0.17142622296E+02 -0.11416263839E+02 -0.55874293326E+02  0.59549452005E+02  0.51100000000E-03 0. -1.
         23    2    1    0    0    0 -0.24126956692E+02 -0.85874883790E+01 -0.35869067625E+02  0.80926822123E+02  0.67872715658E+02 0.  0.
         11    1    3    3    0    0 -0.69843343960E+01  0.28287754595E+01  0.20005225701E+02  0.21377370118E+02  0.51100000000E-03 0.  1.
         22    1    1    0    0    0  0.24126956692E+02  0.85874883790E+01  0.35869067625E+02  0.44073177877E+02  0.00000000000E+00 0. -1.
</event>
<event>
 5    1  0.1717518E-003  0.9118800E+02  0.7818608E-02  0.1130116E+00
         25   -1    0    0    0    0  0.00000000000E+00  0.00000000000E+00  0.99999998245E-14  0.12500000000E+03  0.12500000000E+03 0.  0.
        -11    1    3    3    0    0  0.16981912380E+02  0.28160410440E+02  0.10673939061E+02  0.34573501986E+02  0.51100000000E-03 0.  1.
         23    2    1    0    0    0  0.54763495986E+01 -0.27760322271E+02 -0.95419552402E+01  0.95139075578E+02  0.90331439126E+02 0.  0.
         11    1    3    3    0    0 -0.11505562781E+02 -0.55920732711E+02 -0.20215894301E+02  0.60565573592E+02  0.51100000000E-03 0. -1.
         22    1    1    0    0    0 -0.54763495986E+01  0.27760322271E+02  0.95419552402E+01  0.29860924422E+02  0.00000000000E+00 0. -1.
</event>
<event>
 5    1  0.1717518E-003  0.9118800E+02  0.7818608E-02  0.1130116E+00
         25   -1    0    0    0    0  0.00000000000E+00  0.00000000000E+00  0.99999998245E-14  0.12500000000E+03  0.12500000000E+03 0.  0.
        -11    1    3    3    0    0  0.39300129788E+02  0.85536526233E+01 -0.37055906624E+02  0.54688256423E+02  0.51100000000E-03 0.  1.
         23    2    1    0    0    0  0.17881497641E+02 -0.18151861846E+02 -0.14532073809E+02  0.95667096708E+02  0.91059179531E+02 0.  0.
         11    1    3    3    0    0 -0.21418632147E+02 -0.26705514470E+02  0.22523832815E+02  0.40978840285E+02  0.51100000000E-03 0. -1.
         22    1    1    0    0    0 -0.17881497641E+02  0.18151861846E+02  0.14532073809E+02  0.29332903292E+02  0.00000000000E+00 0.  1.
</event>
<event>
 5    1  0.1717518E-003  0.9118800E+02  0.7818608E-02  0.1130116E+00
         25   -1    0    0    0    0  0.00000000000E+00  0.00000000000E+00  0.99999998245E-14  0.12500000000E+03  0.12500000000E+03 0.  0.
        -11    1    3    3    0    0  0.39279524210E+02 -0.95005848376E+01  0.43906342498E+02  0.59673352899E+02  0.51100000000E-03 0.  1.
         23    2    1    0    0    0  0.24762203634E+02  0.50679571645E+01  0.13604341621E+02  0.96295836023E+02  0.91918219118E+02 0.  0.
         11    1    3    3    0    0 -0.14517320576E+02  0.14568542002E+02 -0.30302000877E+02  0.36622483124E+02  0.51100000000E-03 0. -1.
         22    1    1    0    0    0 -0.24762203634E+02 -0.50679571645E+01 -0.13604341621E+02  0.28704163977E+02  0.00000000000E+00 0.  1.
</event>
<event>
 5    1  0.1717518E-003  0.9118800E+02  0.7818608E-02  0.1130116E+00
         25   -1    0    0    0    0  0.00000000000E+00  0.00000000000E+00  0.99999998245E-14  0.12500000000E+03  0.12500000000E+03 0.  0.
        -11    1    3    3    0    0 -0.23189144599E+02 -0.34726517160E+02  0.19135760383E+01  0.41801066910E+02  0.51100000000E-03 0.  1.
         23    2    1    0    0    0 -0.21999680441E+02  0.18207714436E+02  0.86166294320E+01  0.95171270438E+02  0.90375979162E+02 0.  0.
         11    1    3    3    0    0  0.11894641576E+01  0.52934231596E+02  0.67030533937E+01  0.53370203529E+02  0.51100000000E-03 0. -1.
         22    1    1    0    0    0  0.21999680441E+02 -0.18207714436E+02 -0.86166294320E+01  0.29828729562E+02  0.00000000000E+00 0. -1.
</event>
<event>
 5    1  0.1717518E-003  0.9118800E+02  0.7818608E-02  0.1130116E+00
         25   -1    0    0    0    0  0.00000000000E+00  0.00000000000E+00  0.99999998245E-14  0.12500000000E+03  0.12500000000E+03 0.  0.
        -11    1    3    3    0    0 -0.31245089954E+01  0.14356298035E+02 -0.37930236988E+02  0.40676390301E+02  0.51100000000E-03 0. -1.
         23    2    1    0    0    0  0.30486775309E+02 -0.10065084527E-01  0.15424922016E+01  0.94474226427E+02  0.89406692181E+02 0.  0.
         11    1    3    3    0    0  0.33611284304E+02 -0.14366363120E+02  0.39472729189E+02  0.53797836126E+02  0.51100000000E-03 0.  1.
         22    1    1    0    0    0 -0.30486775309E+02  0.10065084527E-01 -0.15424922016E+01  0.30525773573E+02  0.00000000000E+00 0. -1.
</event>
<event>
 5    1  0.1717518E-003  0.9118800E+02  0.7818608E-02  0.1130116E+00
         25   -1    0    0    0    0  0.00000000000E+00  0.00000000000E+00  0.99999998245E-14  0.12500000000E+03  0.12500000000E+03 0.  0.
        -11    1    3    3    0    0 -0.22609739782E+01 -0.16172103574E+02 -0.48372186160E+02  0.51054062831E+02  0.51100000000E-03 0. -1.
         23    2    1    0    0    0  0.24961269358E+02 -0.82519239130E+01 -0.15429289660E+02  0.94516853908E+02  0.89466270052E+02 0.  0.
         11    1    3    3    0    0  0.27222243337E+02  0.79201796605E+01  0.32942896500E+02  0.43462791077E+02  0.51100000000E-03 0.  1.
         22    1    1    0    0    0 -0.24961269358E+02  0.82519239130E+01  0.15429289660E+02  0.30483146092E+02  0.00000000000E+00 0. -1.
</event>
<event>
 5    1  0.1717518E-003  0.9118800E+02  0.7818608E-02  0.1130116E+00
         25   -1    0    0    0    0  0.00000000000E+00  0.00000000000E+00  0.99999998245E-14  0.12500000000E+03  0.12500000000E+03 0.  0.
        -11    1    3    3    0    0 -0.29745605695E+02 -0.27938050435E+02  0.14711209964E+02  0.43379204916E+02  0.51100000000E-03 0.  1.
         23    2    1    0    0    0  0.71627812405E+01 -0.19674115852E+02 -0.20963487306E+02  0.95371566533E+02  0.90652587571E+02 0.  0.
         11    1    3    3    0    0  0.36908386936E+02  0.82639345832E+01 -0.35674697270E+02  0.51992361617E+02  0.51100000000E-03 0. -1.
         22    1    1    0    0    0 -0.71627812405E+01  0.19674115852E+02  0.20963487306E+02  0.29628433467E+02  0.00000000000E+00 0. -1.
</event>
<event>
 5    1  0.1717518E-003  0.9118800E+02  0.7818608E-02  0.1130116E+00
         25   -1    0    0    0    0  0.00000000000E+00  0.00000000000E+00  0.99999998245E-14  0.12500000000E+03  0.12500000000E+03 0.  0.
        -11    1    3    3    0    0  0.26540910385E+02 -0.10126499890E+02 -0.18835915551E+02  0.34084565994E+02  0.51100000000E-03 0.  1.
         23    2    1    0    0    0 -0.27856255318E+02  0.95080097246E+01  0.18566965314E+01  0.95507280029E+02  0.90839528881E+02 0.  0.
         11    1    3    3    0    0 -0.54397165703E+02  0.19634509615E+02  0.20692612082E+02  0.61422714035E+02  0.51100000000E-03 0. -1.
         22    1    1    0    0    0  0.27856255318E+02 -0.95080097246E+01 -0.18566965314E+01  0.29492719971E+02  0.00000000000E+00 0. -1.
</event>
<event>
 5    1  0.1717518E-003  0.9118800E+02  0.7818608E-02  0.1130116E+00
         25   -1    0    0    0    0  0.00000000000E+00  0.00000000000E+00  0.99999998245E-14  0.12500000000E+03  0.12500000000E+03 0.  0.
        -11    1    3    3    0    0 -0.19769986473E+02 -0.25396287218E+02  0.18332085261E+02  0.37039021584E+02  0.51100000000E-03 0. -1.
         23    2    1    0    0    0 -0.41258958439E+01  0.25217583176E+02 -0.10524239645E+02  0.97364712091E+02  0.93360473556E+02 0.  0.
         11    1    3    3    0    0  0.15644090629E+02  0.50613870394E+02 -0.28856324906E+02  0.60325690507E+02  0.51100000000E-03 0.  1.
         22    1    1    0    0    0  0.41258958439E+01 -0.25217583176E+02  0.10524239645E+02  0.27635287909E+02  0.00000000000E+00 0.  1.
</event>
<event>
 5    1  0.1717518E-003  0.9118800E+02  0.7818608E-02  0.1130116E+00
         25   -1    0    0    0    0  0.00000000000E+00  0.00000000000E+00  0.99999998245E-14  0.12500000000E+03  0.12500000000E+03 0.  0.
        -11    1    3    3    0    0 -0.47916296656E+02  0.69968308125E+01 -0.81678885945E+01  0.49108466999E+02  0.51100000000E-03 0.  1.
         23    2    1    0    0    0 -0.52356851904E+01  0.94464489832E+01 -0.27072492139E+02  0.95852656581E+02  0.91313548530E+02 0.  0.
         11    1    3    3    0    0  0.42680611465E+02  0.24496181707E+01 -0.18904603544E+02  0.46744189582E+02  0.51100000000E-03 0. -1.
         22    1    1    0    0    0  0.52356851904E+01 -0.94464489832E+01  0.27072492139E+02  0.29147343419E+02  0.00000000000E+00 0.  1.
</event>
<event>
 5    1  0.1717518E-003  0.9118800E+02  0.7818608E-02  0.1130116E+00
         25   -1    0    0    0    0  0.00000000000E+00  0.00000000000E+00  0.99999998245E-14  0.12500000000E+03  0.12500000000E+03 0.  0.
        -11    1    3    3    0    0  0.24001940801E+01 -0.40907450316E+02  0.37538825686E+02  0.55572869794E+02  0.51100000000E-03 0.  1.
         23    2    1    0    0    0  0.20168300635E+02 -0.20485630342E+02  0.29496657103E+02  0.83811722769E+02  0.72992675606E+02 0.  0.
         11    1    3    3    0    0  0.17768106555E+02  0.20421819974E+02 -0.80421685826E+01  0.28238852975E+02  0.51100000000E-03 0. -1.
         22    1    1    0    0    0 -0.20168300635E+02  0.20485630342E+02 -0.29496657103E+02  0.41188277231E+02  0.00000000000E+00 0.  1.
</event>
<event>
 5    1  0.1717518E-003  0.9118800E+02  0.7818608E-02  0.1130116E+00
         25   -1    0    0    0    0  0.00000000000E+00  0.00000000000E+00  0.99999998245E-14  0.12500000000E+03  0.12500000000E+03 0.  0.
        -11    1    3    3    0    0 -0.21206794379E+02  0.25790924515E+02 -0.13536937022E+02  0.36029829022E+02  0.51100000000E-03 0.  1.
         23    2    1    0    0    0  0.16817677682E+02 -0.21328131508E+02 -0.71485975359E+01  0.96913955013E+02  0.92754993145E+02 0.  0.
         11    1    3    3    0    0  0.38024472061E+02 -0.47119056023E+02  0.63883394861E+01  0.60884125991E+02  0.51100000000E-03 0. -1.
         22    1    1    0    0    0 -0.16817677682E+02  0.21328131508E+02  0.71485975359E+01  0.28086044987E+02  0.00000000000E+00 0. -1.
</event>
<event>
 5    1  0.1717518E-003  0.9118800E+02  0.7818608E-02  0.1130116E+00
         25   -1    0    0    0    0  0.00000000000E+00  0.00000000000E+00  0.99999998245E-14  0.12500000000E+03  0.12500000000E+03 0.  0.
        -11    1    3    3    0    0 -0.53509794851E+01 -0.43135785104E+02  0.30128340061E+02  0.52887104412E+02  0.51100000000E-03 0.  1.
         23    2    1    0    0    0 -0.25314190383E+02 -0.10862115950E+02  0.11741130564E+02  0.95055919707E+02  0.90216295240E+02 0.  0.
         11    1    3    3    0    0 -0.19963210898E+02  0.32273669154E+02 -0.18387209497E+02  0.42168815295E+02  0.51100000000E-03 0. -1.
         22    1    1    0    0    0  0.25314190383E+02  0.10862115950E+02 -0.11741130564E+02  0.29944080293E+02  0.00000000000E+00 0.  1.
</event>
<event>
 5    1  0.1717518E-003  0.9118800E+02  0.7818608E-02  0.1130116E+00
         25   -1    0    0    0    0  0.00000000000E+00  0.00000000000E+00  0.99999998245E-14  0.12500000000E+03  0.12500000000E+03 0.  0.
        -11    1    3    3    0    0  0.16689652702E+02 -0.30169721601E+02  0.86997288984E+01  0.35558991717E+02  0.51100000000E-03 0.  1.
         23    2    1    0    0    0 -0.17225700081E+02  0.16081682040E+02 -0.14392339723E+02  0.97386874802E+02  0.93390142416E+02 0.  0.
         11    1    3    3    0    0 -0.33915352783E+02  0.46251403641E+02 -0.23092068621E+02  0.61827883084E+02  0.51100000000E-03 0. -1.
         22    1    1    0    0    0  0.17225700081E+02 -0.16081682040E+02  0.14392339723E+02  0.27613125198E+02  0.00000000000E+00 0. -1.
</event>
<event>
 5    1  0.1717518E-003  0.9118800E+02  0.7818608E-02  0.1130116E+00
         25   -1    0    0    0    0  0.00000000000E+00  0.00000000000E+00  0.99999998245E-14  0.12500000000E+03  0.12500000000E+03 0.  0.
        -11    1    3    3    0    0  0.42345937618E+01  0.21037339409E+02 -0.33486849441E+02  0.39772735881E+02  0.51100000000E-03 0.  1.
         23    2    1    0    0    0 -0.30034071649E+02 -0.31973558945E+01  0.19914388876E+01  0.94730636390E+02  0.89764464559E+02 0.  0.
         11    1    3    3    0    0 -0.34268665410E+02 -0.24234695303E+02  0.35478288328E+02  0.54957900509E+02  0.51100000000E-03 0. -1.
         22    1    1    0    0    0  0.30034071649E+02  0.31973558945E+01 -0.19914388876E+01  0.30269363610E+02  0.00000000000E+00 0. -1.
</event>
<event>
 5    1  0.1717518E-003  0.9118800E+02  0.7818608E-02  0.1130116E+00
         25   -1    0    0    0    0  0.00000000000E+00  0.00000000000E+00  0.99999998245E-14  0.12500000000E+03  0.12500000000E+03 0.  0.
        -11    1    3    3    0    0  0.39078662060E+02  0.56781999520E+01  0.86125037131E+01  0.40417310692E+02  0.51100000000E-03 0.  1.
         23    2    1    0    0    0 -0.14545154450E+02 -0.67393394139E+01  0.22677437414E+02  0.97228676996E+02  0.93178158648E+02 0.  0.
         11    1    3    3    0    0 -0.53623816510E+02 -0.12417539366E+02  0.14064933701E+02  0.56811366304E+02  0.51100000000E-03 0. -1.
         22    1    1    0    0    0  0.14545154450E+02  0.67393394139E+01 -0.22677437414E+02  0.27771323004E+02  0.00000000000E+00 0. -1.
</event>
<event>
 5    1  0.1717518E-003  0.9118800E+02  0.7818608E-02  0.1130116E+00
         25   -1    0    0    0    0  0.00000000000E+00  0.00000000000E+00  0.99999998245E-14  0.12500000000E+03  0.12500000000E+03 0.  0.
        -11    1    3    3    0    0  0.14947358267E+02  0.37677236230E+02 -0.10227347123E+02  0.41804261488E+02  0.51100000000E-03 0.  1.
         23    2    1    0    0    0 -0.22702678736E+02  0.51286902331E+01  0.14705144822E+02  0.97468992581E+02  0.93499990081E+02 0.  0.
         11    1    3    3    0    0 -0.37650037003E+02 -0.32548545997E+02  0.24932491945E+02  0.55664731093E+02  0.51100000000E-03 0. -1.
         22    1    1    0    0    0  0.22702678736E+02 -0.51286902331E+01 -0.14705144822E+02  0.27531007419E+02  0.00000000000E+00 0.  1.
</event>
<event>
 5    1  0.1717518E-003  0.9118800E+02  0.7818608E-02  0.1130116E+00
         25   -1    0    0    0    0  0.00000000000E+00  0.00000000000E+00  0.99999998245E-14  0.12500000000E+03  0.12500000000E+03 0.  0.
        -11    1    3    3    0    0 -0.26098744762E+02 -0.24251442382E+02  0.40173600999E+01  0.35852700291E+02  0.51100000000E-03 0. -1.
         23    2    1    0    0    0  0.29106217380E+02 -0.95785419703E+00  0.21230700376E+01  0.95800739714E+02  0.91242451351E+02 0.  0.
         11    1    3    3    0    0  0.55204962142E+02  0.23293588185E+02 -0.18942900623E+01  0.59948039423E+02  0.51100000000E-03 0.  1.
         22    1    1    0    0    0 -0.29106217380E+02  0.95785419703E+00 -0.21230700376E+01  0.29199260286E+02  0.00000000000E+00 0.  1.
</event>
<event>
 5    1  0.1717518E-003  0.9118800E+02  0.7818608E-02  0.1130116E+00
         25   -1    0    0    0    0  0.00000000000E+00  0.00000000000E+00  0.99999998245E-14  0.12500000000E+03  0.12500000000E+03 0.  0.
        -11    1    3    3    0    0 -0.95449483293E+01  0.82325050147E+01 -0.35679100081E+02  0.37840168608E+02  0.51100000000E-03 0.  1.
         23    2    1    0    0    0  0.25119702918E+02 -0.53995533165E+01  0.10564123286E+02  0.97219514916E+02  0.93165866759E+02 0.  0.
         11    1    3    3    0    0  0.34664651247E+02 -0.13632058331E+02  0.46243223366E+02  0.59379346308E+02  0.51100000000E-03 0. -1.
         22    1    1    0    0    0 -0.25119702918E+02  0.53995533165E+01 -0.10564123286E+02  0.27780485084E+02  0.00000000000E+00 0. -1.
</event>
<event>
 5    1  0.1717518E-003  0.9118800E+02  0.7818608E-02  0.1130116E+00
         25   -1    0    0    0    0  0.00000000000E+00  0.00000000000E+00  0.99999998245E-14  0.12500000000E+03  0.12500000000E+03 0.  0.
        -11    1    3    3    0    0  0.48976433169E+02 -0.26237941302E+02  0.19885682928E+02  0.59013226954E+02  0.51100000000E-03 0.  1.
         23    2    1    0    0    0  0.27373448929E+02 -0.20117666629E+01 -0.86626185495E+00  0.97539058265E+02  0.93593613918E+02 0.  0.
         11    1    3    3    0    0 -0.21602984240E+02  0.24226174639E+02 -0.20751944783E+02  0.38525831311E+02  0.51100000000E-03 0. -1.
         22    1    1    0    0    0 -0.27373448929E+02  0.20117666629E+01  0.86626185495E+00  0.27460941735E+02  0.00000000000E+00 0.  1.
</event>
<event>
 5    1  0.1717518E-003  0.9118800E+02  0.7818608E-02  0.1130116E+00
         25   -1    0    0    0    0  0.00000000000E+00  0.00000000000E+00  0.99999998245E-14  0.12500000000E+03  0.12500000000E+03 0.  0.
        -11    1    3    3    0    0  0.46907554421E+00  0.14407497801E+02 -0.48371433483E+02  0.50473672367E+02  0.51100000000E-03 0.  1.
         23    2    1    0    0    0  0.11676645732E+02 -0.18530097500E+02 -0.18464389609E+02  0.96353145852E+02  0.91996122000E+02 0.  0.
         11    1    3    3    0    0  0.11207570188E+02 -0.32937595301E+02  0.29907043874E+02  0.45879473485E+02  0.51100000000E-03 0. -1.
         22    1    1    0    0    0 -0.11676645732E+02  0.18530097500E+02  0.18464389609E+02  0.28646854148E+02  0.00000000000E+00 0. -1.
</event>
<event>
 5    1  0.1717518E-003  0.9118800E+02  0.7818608E-02  0.1130116E+00
         25   -1    0    0    0    0  0.00000000000E+00  0.00000000000E+00  0.99999998245E-14  0.12500000000E+03  0.12500000000E+03 0.  0.
        -11    1    3    3    0    0  0.31518233407E+02  0.12772744976E+02 -0.17731073313E+02  0.38352744522E+02  0.51100000000E-03 0.  1.
         23    2    1    0    0    0 -0.67117915102E+01  0.11204639815E+02  0.25661865488E+02  0.96205496376E+02  0.91795283615E+02 0.  0.
         11    1    3    3    0    0 -0.38230024917E+02 -0.15681051609E+01  0.43392938801E+02  0.57852751853E+02  0.51100000000E-03 0. -1.
         22    1    1    0    0    0  0.67117915102E+01 -0.11204639815E+02 -0.25661865488E+02  0.28794503624E+02  0.00000000000E+00 0. -1.
</event>
<event>
 5    1  0.1717518E-003  0.9118800E+02  0.7818608E-02  0.1130116E+00
         25   -1    0    0    0    0  0.00000000000E+00  0.00000000000E+00  0.99999998245E-14  0.12500000000E+03  0.12500000000E+03 0.  0.
        -11    1    3    3    0    0  0.19016340178E+02 -0.30041027271E+02 -0.53457168892E+01  0.35953597909E+02  0.51100000000E-03 0.  1.
         23    2    1    0    0    0 -0.63678934684E+01  0.25487161343E+02 -0.92876697057E+01  0.97135932294E+02  0.93053656960E+02 0.  0.
         11    1    3    3    0    0 -0.25384233646E+02  0.55528188614E+02 -0.39419528165E+01  0.61182334385E+02  0.51100000000E-03 0. -1.
         22    1    1    0    0    0  0.63678934684E+01 -0.25487161343E+02  0.92876697057E+01  0.27864067706E+02  0.00000000000E+00 0. -1.
</event>
<event>
 5    1  0.1717518E-003  0.9118800E+02  0.7818608E-02  0.1130116E+00
         25   -1    0    0    0    0  0.00000000000E+00  0.00000000000E+00  0.99999998245E-14  0.12500000000E+03  0.12500000000E+03 0.  0.
        -11    1    3    3    0    0 -0.35454098838E+02 -0.14591671536E+02  0.11755720341E+02  0.40101209005E+02  0.51100000000E-03 0.  1.
         23    2    1    0    0    0  0.19084683424E+02 -0.41760307411E+01  0.20919484739E+02  0.96376771392E+02  0.92028217673E+02 0.  0.
         11    1    3    3    0    0  0.54538782262E+02  0.10415640795E+02  0.91637643987E+01  0.56275562388E+02  0.51100000000E-03 0. -1.
         22    1    1    0    0    0 -0.19084683424E+02  0.41760307411E+01 -0.20919484739E+02  0.28623228608E+02  0.00000000000E+00 0. -1.
</event>
<event>
 5    1  0.1717518E-003  0.9118800E+02  0.7818608E-02  0.1130116E+00
         25   -1    0    0    0    0  0.00000000000E+00  0.00000000000E+00  0.99999998245E-14  0.12500000000E+03  0.12500000000E+03 0.  0.
        -11    1    3    3    0    0 -0.45078338447E+02  0.27047096065E+02  0.15576724769E+02  0.54829156090E+02  0.51100000000E-03 0.  1.
         23    2    1    0    0    0 -0.47457195013E+01  0.24447236614E+02  0.16272246901E+02  0.95251466408E+02  0.90486831098E+02 0.  0.
         11    1    3    3    0    0  0.40332618946E+02 -0.25998594506E+01  0.69552213158E+00  0.40422310319E+02  0.51100000000E-03 0. -1.
         22    1    1    0    0    0  0.47457195013E+01 -0.24447236614E+02 -0.16272246901E+02  0.29748533592E+02  0.00000000000E+00 0.  1.
</event>
<event>
 5    1  0.1717518E-003  0.9118800E+02  0.7818608E-02  0.1130116E+00
         25   -1    0    0    0    0  0.00000000000E+00  0.00000000000E+00  0.99999998245E-14  0.12500000000E+03  0.12500000000E+03 0.  0.
        -11    1    3    3    0    0  0.87398944313E+01 -0.16780390334E+02  0.43504935750E+02  0.47440981116E+02  0.51100000000E-03 0. -1.
         23    2    1    0    0    0  0.55411430136E+01  0.22612028776E+02  0.85642815001E+01  0.10019364942E+03  0.97074262068E+02 0.  0.
         11    1    3    3    0    0 -0.31987514177E+01  0.39392419110E+02 -0.34940654250E+02  0.52752668308E+02  0.51100000000E-03 0.  1.
         22    1    1    0    0    0 -0.55411430136E+01 -0.22612028776E+02 -0.85642815001E+01  0.24806350575E+02  0.00000000000E+00 0. -1.
</event>
<event>
 5    1  0.1717518E-003  0.9118800E+02  0.7818608E-02  0.1130116E+00
         25   -1    0    0    0    0  0.00000000000E+00  0.00000000000E+00  0.99999998245E-14  0.12500000000E+03  0.12500000000E+03 0.  0.
        -11    1    3    3    0    0 -0.35469606649E+02  0.16437335080E+02  0.25011464233E+02  0.46409614561E+02  0.51100000000E-03 0. -1.
         23    2    1    0    0    0 -0.19062708325E+02  0.53843709808E+01 -0.20779846186E+02  0.96291459336E+02  0.91912267049E+02 0.  0.
         11    1    3    3    0    0  0.16406898324E+02 -0.11052964099E+02 -0.45791310419E+02  0.49881844775E+02  0.51100000000E-03 0.  1.
         22    1    1    0    0    0  0.19062708325E+02 -0.53843709808E+01  0.20779846186E+02  0.28708540664E+02  0.00000000000E+00 0.  1.
</event>
<event>
 5    1  0.1717518E-003  0.9118800E+02  0.7818608E-02  0.1130116E+00
         25   -1    0    0    0    0  0.00000000000E+00  0.00000000000E+00  0.99999998245E-14  0.12500000000E+03  0.12500000000E+03 0.  0.
        -11    1    3    3    0    0 -0.12368322154E+02 -0.13362654081E+01 -0.32441738754E+02  0.34745178253E+02  0.51100000000E-03 0. -1.
         23    2    1    0    0    0  0.20761453920E+02  0.11183927140E+02  0.17261138752E+02  0.95775607686E+02  0.91208014568E+02 0.  0.
         11    1    3    3    0    0  0.33129776074E+02  0.12520192548E+02  0.49702877506E+02  0.61030429433E+02  0.51100000000E-03 0.  1.
         22    1    1    0    0    0 -0.20761453920E+02 -0.11183927140E+02 -0.17261138752E+02  0.29224392314E+02  0.00000000000E+00 0.  1.
</event>
<event>
 5    1  0.1717518E-003  0.9118800E+02  0.7818608E-02  0.1130116E+00
         25   -1    0    0    0    0  0.00000000000E+00  0.00000000000E+00  0.99999998245E-14  0.12500000000E+03  0.12500000000E+03 0.  0.
        -11    1    3    3    0    0 -0.48486805711E+02  0.99129603472E+01 -0.24608038684E+02  0.55270178930E+02  0.51100000000E-03 0. -1.
         23    2    1    0    0    0 -0.26578802242E+02  0.17944422636E+02  0.45438467496E+01  0.92610471204E+02  0.86761845306E+02 0.  0.
         11    1    3    3    0    0  0.21908003469E+02  0.80314622886E+01  0.29151885434E+02  0.37340292273E+02  0.51100000000E-03 0.  1.
         22    1    1    0    0    0  0.26578802242E+02 -0.17944422636E+02 -0.45438467496E+01  0.32389528796E+02  0.00000000000E+00 0. -1.
</event>
<event>
 5    1  0.1717518E-003  0.9118800E+02  0.7818608E-02  0.1130116E+00
         25   -1    0    0    0    0  0.00000000000E+00  0.00000000000E+00  0.99999998245E-14  0.12500000000E+03  0.12500000000E+03 0.  0.
        -11    1    3    3    0    0  0.32347603629E+02 -0.16220530345E+02  0.11713333648E+02  0.38035184378E+02  0.51100000000E-03 0. -1.
         23    2    1    0    0    0 -0.45240160540E+00  0.22675220888E+02 -0.17181493802E+02  0.96546985418E+02  0.92259126132E+02 0.  0.
         11    1    3    3    0    0 -0.32800005235E+02  0.38895751233E+02 -0.28894827450E+02  0.58511801041E+02  0.51100000000E-03 0.  1.
         22    1    1    0    0    0  0.45240160540E+00 -0.22675220888E+02  0.17181493802E+02  0.28453014582E+02  0.00000000000E+00 0.  1.
</event>
<event>
 5    1  0.1717518E-003  0.9118800E+02  0.7818608E-02  0.1130116E+00
         25   -1    0    0    0    0  0.00000000000E+00  0.00000000000E+00  0.99999998245E-14  0.12500000000E+03  0.12500000000E+03 0.  0.
        -11    1    3    3    0    0 -0.16470749960E+02 -0.51278202613E+02 -0.63914681849E+00  0.53862307566E+02  0.51100000000E-03 0.  1.
         23    2    1    0    0    0 -0.15876759651E+02 -0.12380741181E+02 -0.19390262745E+02  0.97047602276E+02  0.92934926529E+02 0.  0.
         11    1    3    3    0    0  0.59399030870E+00  0.38897461432E+02 -0.18751115927E+02  0.43185294709E+02  0.51100000000E-03 0. -1.
         22    1    1    0    0    0  0.15876759651E+02  0.12380741181E+02  0.19390262745E+02  0.27952397724E+02  0.00000000000E+00 0.  1.
</event>
<event>
 5    1  0.1717518E-003  0.9118800E+02  0.7818608E-02  0.1130116E+00
         25   -1    0    0    0    0  0.00000000000E+00  0.00000000000E+00  0.99999998245E-14  0.12500000000E+03  0.12500000000E+03 0.  0.
        -11    1    3    3    0    0 -0.18679777177E+02 -0.43465909205E+02  0.24584547728E+02  0.53316220099E+02  0.51100000000E-03 0.  1.
         23    2    1    0    0    0 -0.33158378861E+02 -0.17966298668E+02  0.10464370828E+02  0.85862178991E+02  0.76423456790E+02 0.  0.
         11    1    3    3    0    0 -0.14478601683E+02  0.25499610537E+02 -0.14120176900E+02  0.32545958892E+02  0.51100000000E-03 0. -1.
         22    1    1    0    0    0  0.33158378861E+02  0.17966298668E+02 -0.10464370828E+02  0.39137821009E+02  0.00000000000E+00 0.  1.
</event>
<event>
 5    1  0.1717518E-003  0.9118800E+02  0.7818608E-02  0.1130116E+00
         25   -1    0    0    0    0  0.00000000000E+00  0.00000000000E+00  0.99999998245E-14  0.12500000000E+03  0.12500000000E+03 0.  0.
        -11    1    3    3    0    0 -0.51069618153E+02 -0.36186967144E+01  0.26042987970E+02  0.57440735431E+02  0.51100000000E-03 0.  1.
         23    2    1    0    0    0 -0.20436001083E+02  0.15639378982E+02  0.14713093639E+02  0.95357202568E+02  0.90632779070E+02 0.  0.
         11    1    3    3    0    0  0.30633617070E+02  0.19258075696E+02 -0.11329894331E+02  0.37916467137E+02  0.51100000000E-03 0. -1.
         22    1    1    0    0    0  0.20436001083E+02 -0.15639378982E+02 -0.14713093639E+02  0.29642797432E+02  0.00000000000E+00 0.  1.
</event>
<event>
 5    1  0.1717518E-003  0.9118800E+02  0.7818608E-02  0.1130116E+00
         25   -1    0    0    0    0  0.00000000000E+00  0.00000000000E+00  0.99999998245E-14  0.12500000000E+03  0.12500000000E+03 0.  0.
        -11    1    3    3    0    0 -0.32188159278E+02 -0.61970247008E+01 -0.14647324145E+02  0.35902991765E+02  0.51100000000E-03 0.  1.
         23    2    1    0    0    0  0.64129121911E+01  0.96824547664E+01  0.27455572081E+02  0.95189199753E+02  0.90400773991E+02 0.  0.
         11    1    3    3    0    0  0.38601071469E+02  0.15879479467E+02  0.42102896226E+02  0.59286207988E+02  0.51100000000E-03 0. -1.
         22    1    1    0    0    0 -0.64129121911E+01 -0.96824547664E+01 -0.27455572081E+02  0.29810800247E+02  0.00000000000E+00 0. -1.
</event>
<event>
 5    1  0.1717518E-003  0.9118800E+02  0.7818608E-02  0.1130116E+00
         25   -1    0    0    0    0  0.00000000000E+00  0.00000000000E+00  0.99999998245E-14  0.12500000000E+03  0.12500000000E+03 0.  0.
        -11    1    3    3    0    0  0.40893681949E+02 -0.71388803515E+01 -0.23753681490E+02  0.47827755756E+02  0.51100000000E-03 0. -1.
         23    2    1    0    0    0 -0.15499193458E+01 -0.20093209595E+02 -0.25812639403E+02  0.92251997393E+02  0.86243836581E+02 0.  0.
         11    1    3    3    0    0 -0.42443601295E+02 -0.12954329243E+02 -0.20589579132E+01  0.44424241637E+02  0.51100000000E-03 0.  1.
         22    1    1    0    0    0  0.15499193458E+01  0.20093209595E+02  0.25812639403E+02  0.32748002607E+02  0.00000000000E+00 0.  1.
</event>
<event>
 5    1  0.1717518E-003  0.9118800E+02  0.7818608E-02  0.1130116E+00
         25   -1    0    0    0    0  0.00000000000E+00  0.00000000000E+00  0.99999998245E-14  0.12500000000E+03  0.12500000000E+03 0.  0.
        -11    1    3    3    0    0  0.35317906273E+02  0.18564606742E+02 -0.46580053193E+02  0.61332703207E+02  0.51100000000E-03 0. -1.
         23    2    1    0    0    0  0.14854285065E+02  0.17366765821E+02 -0.23003792899E+02  0.92574256714E+02  0.86709654471E+02 0.  0.
         11    1    3    3    0    0 -0.20463621208E+02 -0.11978409203E+01  0.23576260294E+02  0.31241553507E+02  0.51100000000E-03 0.  1.
         22    1    1    0    0    0 -0.14854285065E+02 -0.17366765821E+02  0.23003792899E+02  0.32425743286E+02  0.00000000000E+00 0. -1.
</event>
<event>
 5    1  0.1717518E-003  0.9118800E+02  0.7818608E-02  0.1130116E+00
         25   -1    0    0    0    0  0.00000000000E+00  0.00000000000E+00  0.99999998245E-14  0.12500000000E+03  0.12500000000E+03 0.  0.
        -11    1    3    3    0    0 -0.20250032176E+02  0.57861229375E+02 -0.10093364794E+02  0.62127785096E+02  0.51100000000E-03 0.  1.
         23    2    1    0    0    0 -0.13332181050E+02  0.25250445369E+02 -0.69515487212E+01  0.95611973994E+02  0.90983479262E+02 0.  0.
         11    1    3    3    0    0  0.69178511267E+01 -0.32610784005E+02  0.31418160724E+01  0.33484188898E+02  0.51100000000E-03 0. -1.
         22    1    1    0    0    0  0.13332181050E+02 -0.25250445369E+02  0.69515487212E+01  0.29388026006E+02  0.00000000000E+00 0.  1.
</event>
<event>
 5    1  0.1717518E-003  0.9118800E+02  0.7818608E-02  0.1130116E+00
         25   -1    0    0    0    0  0.00000000000E+00  0.00000000000E+00  0.99999998245E-14  0.12500000000E+03  0.12500000000E+03 0.  0.
        -11    1    3    3    0    0  0.25269363599E+02  0.26955831757E+02  0.58907150890E+01  0.37414677961E+02  0.51100000000E-03 0.  1.
         23    2    1    0    0    0 -0.27894320054E+01 -0.20918373061E+02 -0.17451802014E+02  0.97615247747E+02  0.93695314380E+02 0.  0.
         11    1    3    3    0    0 -0.28058795604E+02 -0.47874204818E+02 -0.23342517103E+02  0.60200569787E+02  0.51100000000E-03 0. -1.
         22    1    1    0    0    0  0.27894320054E+01  0.20918373061E+02  0.17451802014E+02  0.27384752253E+02  0.00000000000E+00 0. -1.
</event>
<event>
 5    1  0.1717518E-003  0.9118800E+02  0.7818608E-02  0.1130116E+00
         25   -1    0    0    0    0  0.00000000000E+00  0.00000000000E+00  0.99999998245E-14  0.12500000000E+03  0.12500000000E+03 0.  0.
        -11    1    3    3    0    0 -0.90860828993E+01  0.42210404138E+02 -0.78277839649E+01  0.43881081596E+02  0.51100000000E-03 0. -1.
         23    2    1    0    0    0 -0.13107989695E+02  0.27115397956E+01  0.25814900218E+02  0.95921125965E+02  0.91407228878E+02 0.  0.
         11    1    3    3    0    0 -0.40219067954E+01 -0.39498864342E+02  0.33642684183E+02  0.52040044369E+02  0.51100000000E-03 0.  1.
         22    1    1    0    0    0  0.13107989695E+02 -0.27115397956E+01 -0.25814900218E+02  0.29078874035E+02  0.00000000000E+00 0.  1.
</event>
<event>
 5    1  0.1717518E-003  0.9118800E+02  0.7818608E-02  0.1130116E+00
         25   -1    0    0    0    0  0.00000000000E+00  0.00000000000E+00  0.99999998245E-14  0.12500000000E+03  0.12500000000E+03 0.  0.
        -11    1    3    3    0    0  0.29556088460E+02  0.15397102163E+02 -0.15240849121E+00  0.33326511199E+02  0.51100000000E-03 0.  1.
         23    2    1    0    0    0 -0.28877542157E+02 -0.28231062543E+01 -0.76523247983E+01  0.94992660152E+02  0.90128602774E+02 0.  0.
         11    1    3    3    0    0 -0.58433630617E+02 -0.18220208417E+02 -0.74999163071E+01  0.61666148953E+02  0.51100000000E-03 0. -1.
         22    1    1    0    0    0  0.28877542157E+02  0.28231062543E+01  0.76523247983E+01  0.30007339848E+02  0.00000000000E+00 0. -1.
</event>
<event>
 5    1  0.1717518E-003  0.9118800E+02  0.7818608E-02  0.1130116E+00
         25   -1    0    0    0    0  0.00000000000E+00  0.00000000000E+00  0.99999998245E-14  0.12500000000E+03  0.12500000000E+03 0.  0.
        -11    1    3    3    0    0  0.36551592525E+01  0.34274658566E+02  0.11463767693E+02  0.36325340727E+02  0.51100000000E-03 0. -1.
         23    2    1    0    0    0 -0.26779026887E+02 -0.13268179324E+02  0.12045668846E+02  0.92777973348E+02  0.87002835225E+02 0.  0.
         11    1    3    3    0    0 -0.30434186140E+02 -0.47542837890E+02  0.58190115277E+00  0.56452632621E+02  0.51100000000E-03 0.  1.
         22    1    1    0    0    0  0.26779026887E+02  0.13268179324E+02 -0.12045668846E+02  0.32222026652E+02  0.00000000000E+00 0.  1.
</event>
<event>
 5    1  0.1717518E-003  0.9118800E+02  0.7818608E-02  0.1130116E+00
         25   -1    0    0    0    0  0.00000000000E+00  0.00000000000E+00  0.99999998245E-14  0.12500000000E+03  0.12500000000E+03 0.  0.
        -11    1    3    3    0    0 -0.29570464934E+02  0.53029836295E+02  0.11126658042E+02  0.61728263002E+02  0.51100000000E-03 0. -1.
         23    2    1    0    0    0 -0.79391476189E+01  0.26879487757E+02  0.82302508140E+01  0.95789146615E+02  0.91226567697E+02 0.  0.
         11    1    3    3    0    0  0.21631317315E+02 -0.26150348537E+02 -0.28964072284E+01  0.34060883613E+02  0.51100000000E-03 0.  1.
         22    1    1    0    0    0  0.79391476189E+01 -0.26879487757E+02 -0.82302508140E+01  0.29210853385E+02  0.00000000000E+00 0. -1.
</event>
<event>
 5    1  0.1717518E-003  0.9118800E+02  0.7818608E-02  0.1130116E+00
         25   -1    0    0    0    0  0.00000000000E+00  0.00000000000E+00  0.99999998245E-14  0.12500000000E+03  0.12500000000E+03 0.  0.
        -11    1    3    3    0    0  0.16296051399E+02 -0.17305761771E+02  0.46394422671E+02  0.52129580248E+02  0.51100000000E-03 0. -1.
         23    2    1    0    0    0  0.28171052062E+02 -0.74063890088E+00  0.78253169901E+01  0.95752909439E+02  0.91176901460E+02 0.  0.
         11    1    3    3    0    0  0.11875000663E+02  0.16565122870E+02 -0.38569105680E+02  0.43623329191E+02  0.51100000000E-03 0.  1.
         22    1    1    0    0    0 -0.28171052062E+02  0.74063890088E+00 -0.78253169901E+01  0.29247090561E+02  0.00000000000E+00 0. -1.
</event>
<event>
 5    1  0.1717518E-003  0.9118800E+02  0.7818608E-02  0.1130116E+00
         25   -1    0    0    0    0  0.00000000000E+00  0.00000000000E+00  0.99999998245E-14  0.12500000000E+03  0.12500000000E+03 0.  0.
        -11    1    3    3    0    0 -0.41087896975E+02  0.17334945411E+02  0.78367096587E+01  0.45278357178E+02  0.51100000000E-03 0.  1.
         23    2    1    0    0    0 -0.78687097247E+01  0.29041718846E+01 -0.27723474206E+02  0.96035507442E+02  0.91563512714E+02 0.  0.
         11    1    3    3    0    0  0.33219187250E+02 -0.14430773527E+02 -0.35560183865E+02  0.50757150264E+02  0.51100000000E-03 0. -1.
         22    1    1    0    0    0  0.78687097247E+01 -0.29041718846E+01  0.27723474206E+02  0.28964492558E+02  0.00000000000E+00 0.  1.
</event>
<event>
 5    1  0.1717518E-003  0.9118800E+02  0.7818608E-02  0.1130116E+00
         25   -1    0    0    0    0  0.00000000000E+00  0.00000000000E+00  0.99999998245E-14  0.12500000000E+03  0.12500000000E+03 0.  0.
        -11    1    3    3    0    0 -0.89560723435E+01 -0.58204077395E+02  0.87650092210E+01  0.59537813565E+02  0.51100000000E-03 0.  1.
         23    2    1    0    0    0 -0.15564813901E+02 -0.24264105059E+02 -0.28937743254E+01  0.96027872775E+02  0.91553089482E+02 0.  0.
         11    1    3    3    0    0 -0.66087415573E+01  0.33939972335E+02 -0.11658783546E+02  0.36490059210E+02  0.51100000000E-03 0. -1.
         22    1    1    0    0    0  0.15564813901E+02  0.24264105059E+02  0.28937743254E+01  0.28972127225E+02  0.00000000000E+00 0.  1.
</event>
<event>
 5    1  0.1717518E-003  0.9118800E+02  0.7818608E-02  0.1130116E+00
         25   -1    0    0    0    0  0.00000000000E+00  0.00000000000E+00  0.99999998245E-14  0.12500000000E+03  0.12500000000E+03 0.  0.
        -11    1    3    3    0    0 -0.33632060391E+02  0.43137686531E+02  0.15158052758E+01  0.54719952040E+02  0.51100000000E-03 0. -1.
         23    2    1    0    0    0 -0.26344837071E+02  0.36393957517E+01  0.11370670785E+02  0.96076172524E+02  0.91619010752E+02 0.  0.
         11    1    3    3    0    0  0.72872233200E+01 -0.39498290780E+02  0.98548655096E+01  0.41356220484E+02  0.51100000000E-03 0.  1.
         22    1    1    0    0    0  0.26344837071E+02 -0.36393957517E+01 -0.11370670785E+02  0.28923827476E+02  0.00000000000E+00 0. -1.
</event>
<event>
 5    1  0.1717518E-003  0.9118800E+02  0.7818608E-02  0.1130116E+00
         25   -1    0    0    0    0  0.00000000000E+00  0.00000000000E+00  0.99999998245E-14  0.12500000000E+03  0.12500000000E+03 0.  0.
        -11    1    3    3    0    0 -0.29566748553E+02 -0.38455526967E+02  0.34190022326E+02  0.59346253472E+02  0.51100000000E-03 0.  1.
         23    2    1    0    0    0 -0.18019567902E+02 -0.60552612408E+01  0.22201299282E+02  0.95772124506E+02  0.91203240768E+02 0.  0.
         11    1    3    3    0    0  0.11547180651E+02  0.32400265726E+02 -0.11988723044E+02  0.36425871034E+02  0.51100000000E-03 0. -1.
         22    1    1    0    0    0  0.18019567902E+02  0.60552612408E+01 -0.22201299282E+02  0.29227875494E+02  0.00000000000E+00 0.  1.
</event>
<event>
 5    1  0.1717518E-003  0.9118800E+02  0.7818608E-02  0.1130116E+00
         25   -1    0    0    0    0  0.00000000000E+00  0.00000000000E+00  0.99999998245E-14  0.12500000000E+03  0.12500000000E+03 0.  0.
        -11    1    3    3    0    0 -0.22267154899E+02 -0.41245429713E+02 -0.27929880930E+02  0.54562715370E+02  0.51100000000E-03 0. -1.
         23    2    1    0    0    0  0.11620356148E+02 -0.19609093248E+02 -0.17946241124E+02  0.95989367716E+02  0.91500502344E+02 0.  0.
         11    1    3    3    0    0  0.33887511047E+02  0.21636336465E+02  0.99836398053E+01  0.41426652347E+02  0.51100000000E-03 0.  1.
         22    1    1    0    0    0 -0.11620356148E+02  0.19609093248E+02  0.17946241124E+02  0.29010632284E+02  0.00000000000E+00 0. -1.
</event>
<event>
 5    1  0.1717518E-003  0.9118800E+02  0.7818608E-02  0.1130116E+00
         25   -1    0    0    0    0  0.00000000000E+00  0.00000000000E+00  0.99999998245E-14  0.12500000000E+03  0.12500000000E+03 0.  0.
        -11    1    3    3    0    0 -0.89667124286E+01 -0.10891477618E+02 -0.33590192906E+02  0.36432503019E+02  0.51100000000E-03 0.  1.
         23    2    1    0    0    0 -0.12125821518E+02 -0.11964716622E+02  0.24797267073E+02  0.94915212389E+02  0.90021125838E+02 0.  0.
         11    1    3    3    0    0 -0.31591090892E+01 -0.10732390043E+01  0.58387459979E+02  0.58482709370E+02  0.51100000000E-03 0. -1.
         22    1    1    0    0    0  0.12125821518E+02  0.11964716622E+02 -0.24797267073E+02  0.30084787611E+02  0.00000000000E+00 0.  1.
</event>
<event>
 5    1  0.1717518E-003  0.9118800E+02  0.7818608E-02  0.1130116E+00
         25   -1    0    0    0    0  0.00000000000E+00  0.00000000000E+00  0.99999998245E-14  0.12500000000E+03  0.12500000000E+03 0.  0.
        -11    1    3    3    0    0  0.16813208296E+02  0.36510660881E+02  0.37937216405E+02  0.55271554348E+02  0.51100000000E-03 0. -1.
         23    2    1    0    0    0  0.25725796427E+02  0.79013187634E+01  0.98508269306E+01  0.96341908102E+02  0.91980851407E+02 0.  0.
         11    1    3    3    0    0  0.89125881306E+01 -0.28609342118E+02 -0.28086389474E+02  0.41070353755E+02  0.51100000000E-03 0.  1.
         22    1    1    0    0    0 -0.25725796427E+02 -0.79013187634E+01 -0.98508269306E+01  0.28658091898E+02  0.00000000000E+00 0. -1.
</event>
<event>
 5    1  0.1717518E-003  0.9118800E+02  0.7818608E-02  0.1130116E+00
         25   -1    0    0    0    0  0.00000000000E+00  0.00000000000E+00  0.99999998245E-14  0.12500000000E+03  0.12500000000E+03 0.  0.
        -11    1    3    3    0    0  0.41548995859E+02 -0.16553777634E+02  0.42058176487E+02  0.61394110634E+02  0.51100000000E-03 0.  1.
         23    2    1    0    0    0  0.22802289228E+02 -0.13629487764E+02  0.14845588161E+02  0.94568128244E+02  0.89537880592E+02 0.  0.
         11    1    3    3    0    0 -0.18746706631E+02  0.29242898697E+01 -0.27212588326E+02  0.33174017610E+02  0.51100000000E-03 0. -1.
         22    1    1    0    0    0 -0.22802289228E+02  0.13629487764E+02 -0.14845588161E+02  0.30431871756E+02  0.00000000000E+00 0.  1.
</event>
<event>
 5    1  0.1717518E-003  0.9118800E+02  0.7818608E-02  0.1130116E+00
         25   -1    0    0    0    0  0.00000000000E+00  0.00000000000E+00  0.99999998245E-14  0.12500000000E+03  0.12500000000E+03 0.  0.
        -11    1    3    3    0    0  0.26471413801E+02 -0.24631142684E+02 -0.10995692676E+02  0.37793308881E+02  0.51100000000E-03 0.  1.
         23    2    1    0    0    0 -0.25262592386E+02  0.64830633317E+00 -0.15171769376E+02  0.95524561731E+02  0.90863306306E+02 0.  0.
         11    1    3    3    0    0 -0.51734006187E+02  0.25279449017E+02 -0.41760767000E+01  0.57731252850E+02  0.51100000000E-03 0. -1.
         22    1    1    0    0    0  0.25262592386E+02 -0.64830633317E+00  0.15171769376E+02  0.29475438269E+02  0.00000000000E+00 0. -1.
</event>
<event>
 5    1  0.1717518E-003  0.9118800E+02  0.7818608E-02  0.1130116E+00
         25   -1    0    0    0    0  0.00000000000E+00  0.00000000000E+00  0.99999998245E-14  0.12500000000E+03  0.12500000000E+03 0.  0.
        -11    1    3    3    0    0  0.32582793705E+02  0.46116371288E+02 -0.16996285002E+01  0.56491122167E+02  0.51100000000E-03 0.  1.
         23    2    1    0    0    0  0.17149843027E+02  0.18535961186E+02  0.18229871718E+02  0.93854740396E+02  0.88536349027E+02 0.  0.
         11    1    3    3    0    0 -0.15432950677E+02 -0.27580410102E+02  0.19929500218E+02  0.37363618229E+02  0.51100000000E-03 0. -1.
         22    1    1    0    0    0 -0.17149843027E+02 -0.18535961186E+02 -0.18229871718E+02  0.31145259604E+02  0.00000000000E+00 0.  1.
</event>
<event>
 5    1  0.1717518E-003  0.9118800E+02  0.7818608E-02  0.1130116E+00
         25   -1    0    0    0    0  0.00000000000E+00  0.00000000000E+00  0.99999998245E-14  0.12500000000E+03  0.12500000000E+03 0.  0.
        -11    1    3    3    0    0 -0.58618698503E+01 -0.29570748257E+01  0.45522869805E+02  0.45993885302E+02  0.51100000000E-03 0.  1.
         23    2    1    0    0    0  0.14344802460E+02  0.23375051915E+02  0.72946820666E+01  0.96620803463E+02  0.92359086536E+02 0.  0.
         11    1    3    3    0    0  0.20206672310E+02  0.26332126740E+02 -0.38228187738E+02  0.50626918161E+02  0.51100000000E-03 0. -1.
         22    1    1    0    0    0 -0.14344802460E+02 -0.23375051915E+02 -0.72946820666E+01  0.28379196537E+02  0.00000000000E+00 0.  1.
</event>
<event>
 5    1  0.1717518E-003  0.9118800E+02  0.7818608E-02  0.1130116E+00
         25   -1    0    0    0    0  0.00000000000E+00  0.00000000000E+00  0.99999998245E-14  0.12500000000E+03  0.12500000000E+03 0.  0.
        -11    1    3    3    0    0  0.40594099012E+02 -0.40124446047E+02 -0.30804729404E+01  0.57160662688E+02  0.51100000000E-03 0. -1.
         23    2    1    0    0    0  0.20040959921E+02 -0.11189445876E+02 -0.18168615396E+02  0.95726422170E+02  0.91140581206E+02 0.  0.
         11    1    3    3    0    0 -0.20553139091E+02  0.28935000171E+02 -0.15088142455E+02  0.38565759482E+02  0.51100000000E-03 0.  1.
         22    1    1    0    0    0 -0.20040959921E+02  0.11189445876E+02  0.18168615396E+02  0.29273577830E+02  0.00000000000E+00 0. -1.
</event>
<event>
 5    1  0.1717518E-003  0.9118800E+02  0.7818608E-02  0.1130116E+00
         25   -1    0    0    0    0  0.00000000000E+00  0.00000000000E+00  0.99999998245E-14  0.12500000000E+03  0.12500000000E+03 0.  0.
        -11    1    3    3    0    0 -0.58188434680E+02 -0.37793168588E+00 -0.22564414131E+02  0.62411453662E+02  0.51100000000E-03 0.  1.
         23    2    1    0    0    0 -0.27417573396E+02  0.12140151626E+01 -0.86048808005E+01  0.96238200033E+02  0.91839806230E+02 0.  0.
         11    1    3    3    0    0  0.30770861285E+02  0.15919468485E+01  0.13959533331E+02  0.33826746371E+02  0.51100000000E-03 0. -1.
         22    1    1    0    0    0  0.27417573396E+02 -0.12140151626E+01  0.86048808005E+01  0.28761799967E+02  0.00000000000E+00 0.  1.
</event>
<event>
 5    1  0.1717518E-003  0.9118800E+02  0.7818608E-02  0.1130116E+00
         25   -1    0    0    0    0  0.00000000000E+00  0.00000000000E+00  0.99999998245E-14  0.12500000000E+03  0.12500000000E+03 0.  0.
        -11    1    3    3    0    0  0.33933963168E+02  0.32732974307E+02 -0.57130539624E+01  0.47493162130E+02  0.51100000000E-03 0.  1.
         23    2    1    0    0    0 -0.20096679134E+01  0.93886044700E+01 -0.27714439165E+02  0.95669558523E+02  0.91062558886E+02 0.  0.
         11    1    3    3    0    0 -0.35943631081E+02 -0.23344369837E+02 -0.22001385202E+02  0.48176396393E+02  0.51100000000E-03 0. -1.
         22    1    1    0    0    0  0.20096679134E+01 -0.93886044700E+01  0.27714439165E+02  0.29330441477E+02  0.00000000000E+00 0.  1.
</event>
<event>
 5    1  0.1717518E-003  0.9118800E+02  0.7818608E-02  0.1130116E+00
         25   -1    0    0    0    0  0.00000000000E+00  0.00000000000E+00  0.99999998245E-14  0.12500000000E+03  0.12500000000E+03 0.  0.
        -11    1    3    3    0    0 -0.20060029091E+02 -0.39107321228E+02 -0.26754361413E+02  0.51454671272E+02  0.51100000000E-03 0.  1.
         23    2    1    0    0    0 -0.19082782115E+02  0.54021161185E+01 -0.20611001150E+02  0.96396699488E+02  0.92055281608E+02 0.  0.
         11    1    3    3    0    0  0.97724697566E+00  0.44509437347E+02  0.61433602633E+01  0.44942028216E+02  0.51100000000E-03 0. -1.
         22    1    1    0    0    0  0.19082782115E+02 -0.54021161185E+01  0.20611001150E+02  0.28603300512E+02  0.00000000000E+00 0. -1.
</event>
<event>
 5    1  0.1717518E-003  0.9118800E+02  0.7818608E-02  0.1130116E+00
         25   -1    0    0    0    0  0.00000000000E+00  0.00000000000E+00  0.99999998245E-14  0.12500000000E+03  0.12500000000E+03 0.  0.
        -11    1    3    3    0    0  0.35805255264E+02  0.27045351764E+02 -0.90169529220E+01  0.45768687951E+02  0.51100000000E-03 0.  1.
         23    2    1    0    0    0  0.20864531252E+02 -0.15554250279E+02  0.12902892838E+02  0.95952659163E+02  0.91450340573E+02 0.  0.
         11    1    3    3    0    0 -0.14940724012E+02 -0.42599602043E+02  0.21919845760E+02  0.50183971212E+02  0.51100000000E-03 0. -1.
         22    1    1    0    0    0 -0.20864531252E+02  0.15554250279E+02 -0.12902892838E+02  0.29047340837E+02  0.00000000000E+00 0. -1.
</event>
<event>
 5    1  0.1717518E-003  0.9118800E+02  0.7818608E-02  0.1130116E+00
         25   -1    0    0    0    0  0.00000000000E+00  0.00000000000E+00  0.99999998245E-14  0.12500000000E+03  0.12500000000E+03 0.  0.
        -11    1    3    3    0    0  0.54658724627E+02  0.16188937596E+02  0.11970508085E+02  0.58249042416E+02  0.51100000000E-03 0. -1.
         23    2    1    0    0    0  0.14623504419E+02  0.19846671140E+02 -0.50586489291E+00  0.10034248317E+03  0.97265722601E+02 0.  0.
         11    1    3    3    0    0 -0.40035220208E+02  0.36577335438E+01 -0.12476372978E+02  0.42093440756E+02  0.51100000000E-03 0.  1.
         22    1    1    0    0    0 -0.14623504419E+02 -0.19846671140E+02  0.50586489291E+00  0.24657516828E+02  0.00000000000E+00 0. -1.
</event>
<event>
 5    1  0.1717518E-003  0.9118800E+02  0.7818608E-02  0.1130116E+00
         25   -1    0    0    0    0  0.00000000000E+00  0.00000000000E+00  0.99999998245E-14  0.12500000000E+03  0.12500000000E+03 0.  0.
        -11    1    3    3    0    0  0.19549461899E+02 -0.48084658549E+02  0.34651465036E+02  0.62410254588E+02  0.51100000000E-03 0.  1.
         23    2    1    0    0    0  0.72496979374E+01 -0.19931042449E+02  0.16804633504E+02  0.97940800446E+02  0.94128635980E+02 0.  0.
         11    1    3    3    0    0 -0.12299763961E+02  0.28153616100E+02 -0.17846831531E+02  0.35530545858E+02  0.51100000000E-03 0. -1.
         22    1    1    0    0    0 -0.72496979374E+01  0.19931042449E+02 -0.16804633504E+02  0.27059199554E+02  0.00000000000E+00 0.  1.
</event>
<event>
 5    1  0.1717518E-003  0.9118800E+02  0.7818608E-02  0.1130116E+00
         25   -1    0    0    0    0  0.00000000000E+00  0.00000000000E+00  0.99999998245E-14  0.12500000000E+03  0.12500000000E+03 0.  0.
        -11    1    3    3    0    0 -0.18071285689E+02 -0.46411451900E+02 -0.22437163366E+02  0.54626189086E+02  0.51100000000E-03 0. -1.
         23    2    1    0    0    0  0.10645634733E+02 -0.16198222565E+02 -0.21124536020E+02  0.96330190527E+02  0.91964926096E+02 0.  0.
         11    1    3    3    0    0  0.28716920422E+02  0.30213229335E+02  0.13126273458E+01  0.41704001441E+02  0.51100000000E-03 0.  1.
         22    1    1    0    0    0 -0.10645634733E+02  0.16198222565E+02  0.21124536020E+02  0.28669809473E+02  0.00000000000E+00 0. -1.
</event>
<event>
 5    1  0.1717518E-003  0.9118800E+02  0.7818608E-02  0.1130116E+00
         25   -1    0    0    0    0  0.00000000000E+00  0.00000000000E+00  0.99999998245E-14  0.12500000000E+03  0.12500000000E+03 0.  0.
        -11    1    3    3    0    0  0.16583586631E+02  0.43797523555E+02 -0.28079622618E+00  0.46832865190E+02  0.51100000000E-03 0.  1.
         23    2    1    0    0    0 -0.21644641238E+02  0.15441048836E+02 -0.11966173351E+02  0.95843426330E+02  0.91300912277E+02 0.  0.
         11    1    3    3    0    0 -0.38228227870E+02 -0.28356474719E+02 -0.11685377125E+02  0.49010561141E+02  0.51100000000E-03 0. -1.
         22    1    1    0    0    0  0.21644641238E+02 -0.15441048836E+02  0.11966173351E+02  0.29156573670E+02  0.00000000000E+00 0. -1.
</event>
<event>
 5    1  0.1717518E-003  0.9118800E+02  0.7818608E-02  0.1130116E+00
         25   -1    0    0    0    0  0.00000000000E+00  0.00000000000E+00  0.99999998245E-14  0.12500000000E+03  0.12500000000E+03 0.  0.
        -11    1    3    3    0    0  0.93178368127E+01 -0.38291335620E+02 -0.82756278591E+01  0.40268281353E+02  0.51100000000E-03 0. -1.
         23    2    1    0    0    0 -0.27282805701E+01  0.26670375125E+01  0.28274170702E+02  0.96469571808E+02  0.92154180328E+02 0.  0.
         11    1    3    3    0    0 -0.12046117383E+02  0.40958373132E+02  0.36549798561E+02  0.56201290454E+02  0.51100000000E-03 0.  1.
         22    1    1    0    0    0  0.27282805701E+01 -0.26670375125E+01 -0.28274170702E+02  0.28530428192E+02  0.00000000000E+00 0.  1.
</event>
<event>
 5    1  0.1717518E-003  0.9118800E+02  0.7818608E-02  0.1130116E+00
         25   -1    0    0    0    0  0.00000000000E+00  0.00000000000E+00  0.99999998245E-14  0.12500000000E+03  0.12500000000E+03 0.  0.
        -11    1    3    3    0    0 -0.31338490100E+02  0.46013512020E+01  0.32485393963E+02  0.45371513264E+02  0.51100000000E-03 0.  1.
         23    2    1    0    0    0 -0.77634393402E+01 -0.29463114338E+02  0.79796917047E+01  0.93503625978E+02  0.88039232700E+02 0.  0.
         11    1    3    3    0    0  0.23575050760E+02 -0.34064465540E+02 -0.24505702258E+02  0.48132112714E+02  0.51100000000E-03 0. -1.
         22    1    1    0    0    0  0.77634393402E+01  0.29463114338E+02 -0.79796917047E+01  0.31496374022E+02  0.00000000000E+00 0.  1.
</event>
<event>
 5    1  0.1717518E-003  0.9118800E+02  0.7818608E-02  0.1130116E+00
         25   -1    0    0    0    0  0.00000000000E+00  0.00000000000E+00  0.99999998245E-14  0.12500000000E+03  0.12500000000E+03 0.  0.
        -11    1    3    3    0    0  0.10078107640E+02  0.25447396975E+02 -0.29493935973E+02  0.40237178403E+02  0.51100000000E-03 0. -1.
         23    2    1    0    0    0  0.10970851678E+02  0.11493484957E+02  0.24381864005E+02  0.95897851018E+02  0.91375394689E+02 0.  0.
         11    1    3    3    0    0  0.89274403833E+00 -0.13953912017E+02  0.53875799978E+02  0.55660672615E+02  0.51100000000E-03 0.  1.
         22    1    1    0    0    0 -0.10970851678E+02 -0.11493484957E+02 -0.24381864005E+02  0.29102148982E+02  0.00000000000E+00 0.  1.
</event>
<event>
 5    1  0.1717518E-003  0.9118800E+02  0.7818608E-02  0.1130116E+00
         25   -1    0    0    0    0  0.00000000000E+00  0.00000000000E+00  0.99999998245E-14  0.12500000000E+03  0.12500000000E+03 0.  0.
        -11    1    3    3    0    0 -0.26859479696E+02 -0.97450360495E+01 -0.51471411273E+02  0.58870226395E+02  0.51100000000E-03 0. -1.
         23    2    1    0    0    0 -0.54145340925E+01 -0.17804442495E+02 -0.23180133976E+02  0.95274018718E+02  0.90517979869E+02 0.  0.
         11    1    3    3    0    0  0.21444945603E+02 -0.80594064457E+01  0.28291277297E+02  0.36403792323E+02  0.51100000000E-03 0.  1.
         22    1    1    0    0    0  0.54145340925E+01  0.17804442495E+02  0.23180133976E+02  0.29725981282E+02  0.00000000000E+00 0.  1.
</event>
<event>
 5    1  0.1717518E-003  0.9118800E+02  0.7818608E-02  0.1130116E+00
         25   -1    0    0    0    0  0.00000000000E+00  0.00000000000E+00  0.99999998245E-14  0.12500000000E+03  0.12500000000E+03 0.  0.
        -11    1    3    3    0    0  0.22292609053E+02 -0.27242098606E+02 -0.25533172007E+02  0.43486034860E+02  0.51100000000E-03 0.  1.
         23    2    1    0    0    0 -0.13160364026E+02 -0.27122884533E+02  0.95629337165E+01  0.93372547559E+02  0.87852927610E+02 0.  0.
         11    1    3    3    0    0 -0.35452973078E+02  0.11921407294E+00  0.35096105723E+02  0.49886512699E+02  0.51100000000E-03 0. -1.
         22    1    1    0    0    0  0.13160364026E+02  0.27122884533E+02 -0.95629337165E+01  0.31627452441E+02  0.00000000000E+00 0. -1.
</event>
<event>
 5    1  0.1717518E-003  0.9118800E+02  0.7818608E-02  0.1130116E+00
         25   -1    0    0    0    0  0.00000000000E+00  0.00000000000E+00  0.99999998245E-14  0.12500000000E+03  0.12500000000E+03 0.  0.
        -11    1    3    3    0    0 -0.29696202322E+02 -0.11302674407E+02  0.25447518163E+02  0.40708611644E+02  0.51100000000E-03 0.  1.
         23    2    1    0    0    0  0.11750527315E+02 -0.24907970148E+02 -0.87118783190E+01  0.96114386056E+02  0.91671132391E+02 0.  0.
         11    1    3    3    0    0  0.41446729638E+02 -0.13605295742E+02 -0.34159396482E+02  0.55405774411E+02  0.51100000000E-03 0. -1.
         22    1    1    0    0    0 -0.11750527315E+02  0.24907970148E+02  0.87118783190E+01  0.28885613944E+02  0.00000000000E+00 0. -1.
</event>
<event>
 5    1  0.1717518E-003  0.9118800E+02  0.7818608E-02  0.1130116E+00
         25   -1    0    0    0    0  0.00000000000E+00  0.00000000000E+00  0.99999998245E-14  0.12500000000E+03  0.12500000000E+03 0.  0.
        -11    1    3    3    0    0 -0.56749202837E+02  0.12396731970E+01 -0.11660288170E+02  0.57948003699E+02  0.51100000000E-03 0.  1.
         23    2    1    0    0    0 -0.28125659072E+02 -0.16842455719E+01  0.11182938829E+02  0.94685853100E+02  0.89702080662E+02 0.  0.
         11    1    3    3    0    0  0.28623543765E+02 -0.29239187688E+01  0.22843226999E+02  0.36737849401E+02  0.51100000000E-03 0. -1.
         22    1    1    0    0    0  0.28125659072E+02  0.16842455719E+01 -0.11182938829E+02  0.30314146900E+02  0.00000000000E+00 0.  1.
</event>
<event>
 5    1  0.1717518E-003  0.9118800E+02  0.7818608E-02  0.1130116E+00
         25   -1    0    0    0    0  0.00000000000E+00  0.00000000000E+00  0.99999998245E-14  0.12500000000E+03  0.12500000000E+03 0.  0.
        -11    1    3    3    0    0 -0.50921459485E+02 -0.22899555877E+02 -0.13441260158E+02  0.57428670282E+02  0.51100000000E-03 0.  1.
         23    2    1    0    0    0 -0.14392434905E+02 -0.10277075709E+02 -0.21757496296E+02  0.96961649251E+02  0.92819245379E+02 0.  0.
         11    1    3    3    0    0  0.36529024580E+02  0.12622480168E+02 -0.83162361386E+01  0.39532978969E+02  0.51100000000E-03 0. -1.
         22    1    1    0    0    0  0.14392434905E+02  0.10277075709E+02  0.21757496296E+02  0.28038350749E+02  0.00000000000E+00 0.  1.
</event>
<event>
 5    1  0.1717518E-003  0.9118800E+02  0.7818608E-02  0.1130116E+00
         25   -1    0    0    0    0  0.00000000000E+00  0.00000000000E+00  0.99999998245E-14  0.12500000000E+03  0.12500000000E+03 0.  0.
        -11    1    3    3    0    0 -0.51854376566E+02 -0.11795778607E+02  0.20855647115E+02  0.57122454244E+02  0.51100000000E-03 0.  1.
         23    2    1    0    0    0 -0.16800728770E+02 -0.19367833892E+02  0.19101411550E+02  0.93027489932E+02  0.87360588842E+02 0.  0.
         11    1    3    3    0    0  0.35053647796E+02 -0.75720552849E+01 -0.17542355648E+01  0.35905035688E+02  0.51100000000E-03 0. -1.
         22    1    1    0    0    0  0.16800728770E+02  0.19367833892E+02 -0.19101411550E+02  0.31972510068E+02  0.00000000000E+00 0.  1.
</event>
<event>
 5    1  0.1717518E-003  0.9118800E+02  0.7818608E-02  0.1130116E+00
         25   -1    0    0    0    0  0.00000000000E+00  0.00000000000E+00  0.99999998245E-14  0.12500000000E+03  0.12500000000E+03 0.  0.
        -11    1    3    3    0    0  0.23770196628E+02 -0.19072664401E+02  0.20904906844E+02  0.36956784296E+02  0.51100000000E-03 0. -1.
         23    2    1    0    0    0  0.14246653115E+02  0.31172850305E+02  0.61938467150E+01  0.90170738477E+02  0.83172619408E+02 0.  0.
         11    1    3    3    0    0 -0.95235435136E+01  0.50245514706E+02 -0.14711060129E+02  0.53213954181E+02  0.51100000000E-03 0.  1.
         22    1    1    0    0    0 -0.14246653115E+02 -0.31172850305E+02 -0.61938467150E+01  0.34829261523E+02  0.00000000000E+00 0.  1.
</event>
<event>
 5    1  0.1717518E-003  0.9118800E+02  0.7818608E-02  0.1130116E+00
         25   -1    0    0    0    0  0.00000000000E+00  0.00000000000E+00  0.99999998245E-14  0.12500000000E+03  0.12500000000E+03 0.  0.
        -11    1    3    3    0    0 -0.36883047619E+02 -0.27197194285E+02 -0.33184940942E+02  0.56579915909E+02  0.51100000000E-03 0.  1.
         23    2    1    0    0    0 -0.86746108041E+01 -0.28665211546E+02 -0.24998397277E+02  0.85988936288E+02  0.76630503534E+02 0.  0.
         11    1    3    3    0    0  0.28208436815E+02 -0.14680172607E+01  0.81865436651E+01  0.29409020379E+02  0.51100000000E-03 0. -1.
         22    1    1    0    0    0  0.86746108041E+01  0.28665211546E+02  0.24998397277E+02  0.39011063712E+02  0.00000000000E+00 0.  1.
</event>
<event>
 5    1  0.1717518E-003  0.9118800E+02  0.7818608E-02  0.1130116E+00
         25   -1    0    0    0    0  0.00000000000E+00  0.00000000000E+00  0.99999998245E-14  0.12500000000E+03  0.12500000000E+03 0.  0.
        -11    1    3    3    0    0  0.34703253030E+02  0.17857592747E+02 -0.66151527975E+01  0.39584967303E+02  0.51100000000E-03 0. -1.
         23    2    1    0    0    0 -0.10997105984E+02 -0.84028057858E+01 -0.25837943320E+02  0.95688862184E+02  0.91089052833E+02 0.  0.
         11    1    3    3    0    0 -0.45700359014E+02 -0.26260398533E+02 -0.19222790522E+02  0.56103894881E+02  0.51100000000E-03 0.  1.
         22    1    1    0    0    0  0.10997105984E+02  0.84028057858E+01  0.25837943320E+02  0.29311137816E+02  0.00000000000E+00 0.  1.
</event>
<event>
 5    1  0.1717518E-003  0.9118800E+02  0.7818608E-02  0.1130116E+00
         25   -1    0    0    0    0  0.00000000000E+00  0.00000000000E+00  0.99999998245E-14  0.12500000000E+03  0.12500000000E+03 0.  0.
        -11    1    3    3    0    0 -0.23045232246E+02 -0.28428215434E+02 -0.33336424604E+02  0.49503165229E+02  0.51100000000E-03 0.  1.
         23    2    1    0    0    0  0.18232379890E+02 -0.29568637645E+01 -0.14427422113E+02  0.10156256779E+03  0.98821262628E+02 0.  0.
         11    1    3    3    0    0  0.41277612136E+02  0.25471351669E+02  0.18909002490E+02  0.52059402561E+02  0.51100000000E-03 0. -1.
         22    1    1    0    0    0 -0.18232379890E+02  0.29568637645E+01  0.14427422113E+02  0.23437432210E+02  0.00000000000E+00 0. -1.
</event>
<event>
 5    1  0.1717518E-003  0.9118800E+02  0.7818608E-02  0.1130116E+00
         25   -1    0    0    0    0  0.00000000000E+00  0.00000000000E+00  0.99999998245E-14  0.12500000000E+03  0.12500000000E+03 0.  0.
        -11    1    3    3    0    0  0.73125229164E+01  0.41248970509E+02 -0.56124188416E+01  0.42266414621E+02  0.51100000000E-03 0.  1.
         23    2    1    0    0    0 -0.78397670191E+01 -0.93245968589E+01 -0.23929178383E+02  0.98148265762E+02  0.94403741666E+02 0.  0.
         11    1    3    3    0    0 -0.15152289936E+02 -0.50573567368E+02 -0.18316759541E+02  0.55881851141E+02  0.51100000000E-03 0. -1.
         22    1    1    0    0    0  0.78397670191E+01  0.93245968589E+01  0.23929178383E+02  0.26851734238E+02  0.00000000000E+00 0. -1.
</event>
<event>
 5    1  0.1717518E-003  0.9118800E+02  0.7818608E-02  0.1130116E+00
         25   -1    0    0    0    0  0.00000000000E+00  0.00000000000E+00  0.99999998245E-14  0.12500000000E+03  0.12500000000E+03 0.  0.
        -11    1    3    3    0    0 -0.33439438828E+02  0.32163443147E+01 -0.14312293155E+02  0.36515512806E+02  0.51100000000E-03 0. -1.
         23    2    1    0    0    0  0.15532443678E+02 -0.19070931366E+02  0.13349782284E+02  0.97014755374E+02  0.92890736047E+02 0.  0.
         11    1    3    3    0    0  0.48971882506E+02 -0.22287275680E+02  0.27662075439E+02  0.60499242568E+02  0.51100000000E-03 0.  1.
         22    1    1    0    0    0 -0.15532443678E+02  0.19070931366E+02 -0.13349782284E+02  0.27985244626E+02  0.00000000000E+00 0.  1.
</event>
<event>
 5    1  0.1717518E-003  0.9118800E+02  0.7818608E-02  0.1130116E+00
         25   -1    0    0    0    0  0.00000000000E+00  0.00000000000E+00  0.99999998245E-14  0.12500000000E+03  0.12500000000E+03 0.  0.
        -11    1    3    3    0    0 -0.90736912240E+00 -0.12593607791E+02  0.60727080563E+02  0.62025805838E+02  0.51100000000E-03 0.  1.
         23    2    1    0    0    0 -0.22268648907E+01 -0.10381883201E+02  0.25091315851E+02  0.97754513086E+02  0.93880926026E+02 0.  0.
         11    1    3    3    0    0 -0.13194957683E+01  0.22117245901E+01 -0.35635764712E+02  0.35728707248E+02  0.51100000000E-03 0. -1.
         22    1    1    0    0    0  0.22268648907E+01  0.10381883201E+02 -0.25091315851E+02  0.27245486914E+02  0.00000000000E+00 0.  1.
</event>
<event>
 5    1  0.1717518E-003  0.9118800E+02  0.7818608E-02  0.1130116E+00
         25   -1    0    0    0    0  0.00000000000E+00  0.00000000000E+00  0.99999998245E-14  0.12500000000E+03  0.12500000000E+03 0.  0.
        -11    1    3    3    0    0  0.17728158634E+02  0.27557875465E+02  0.16973554608E+02  0.36902922175E+02  0.51100000000E-03 0. -1.
         23    2    1    0    0    0 -0.14147652400E+02  0.89206752347E+01 -0.26327062282E+02  0.93809477024E+02  0.88472420879E+02 0.  0.
         11    1    3    3    0    0 -0.31875811035E+02 -0.18637200231E+02 -0.43300616890E+02  0.56906554850E+02  0.51100000000E-03 0.  1.
         22    1    1    0    0    0  0.14147652400E+02 -0.89206752347E+01  0.26327062282E+02  0.31190522976E+02  0.00000000000E+00 0.  1.
</event>
<event>
 5    1  0.1717518E-003  0.9118800E+02  0.7818608E-02  0.1130116E+00
         25   -1    0    0    0    0  0.00000000000E+00  0.00000000000E+00  0.99999998245E-14  0.12500000000E+03  0.12500000000E+03 0.  0.
        -11    1    3    3    0    0  0.21308426490E+02  0.29597652255E+02 -0.20409939875E+01  0.36527191449E+02  0.51100000000E-03 0.  1.
         23    2    1    0    0    0  0.15190638831E+01 -0.24461953439E+02 -0.15958253218E+02  0.95753452051E+02  0.91177645357E+02 0.  0.
         11    1    3    3    0    0 -0.19789362607E+02 -0.54059605694E+02 -0.13917259231E+02  0.59226260602E+02  0.51100000000E-03 0. -1.
         22    1    1    0    0    0 -0.15190638831E+01  0.24461953439E+02  0.15958253218E+02  0.29246547949E+02  0.00000000000E+00 0. -1.
</event>
<event>
 5    1  0.1717518E-003  0.9118800E+02  0.7818608E-02  0.1130116E+00
         25   -1    0    0    0    0  0.00000000000E+00  0.00000000000E+00  0.99999998245E-14  0.12500000000E+03  0.12500000000E+03 0.  0.
        -11    1    3    3    0    0  0.18109100291E+02  0.26360307809E+02  0.75890235330E+01  0.32869417694E+02  0.51100000000E-03 0. -1.
         23    2    1    0    0    0 -0.50934317753E+01 -0.25521181274E+02 -0.16051322917E+02  0.94423559588E+02  0.89335826503E+02 0.  0.
         11    1    3    3    0    0 -0.23202532066E+02 -0.51881489083E+02 -0.23640346450E+02  0.61554141894E+02  0.51100000000E-03 0.  1.
         22    1    1    0    0    0  0.50934317753E+01  0.25521181274E+02  0.16051322917E+02  0.30576440412E+02  0.00000000000E+00 0.  1.
</event>
<event>
 5    1  0.1717518E-003  0.9118800E+02  0.7818608E-02  0.1130116E+00
         25   -1    0    0    0    0  0.00000000000E+00  0.00000000000E+00  0.99999998245E-14  0.12500000000E+03  0.12500000000E+03 0.  0.
        -11    1    3    3    0    0 -0.46173242326E+02  0.22215923292E+02  0.32601675975E+02  0.60732074156E+02  0.51100000000E-03 0.  1.
         23    2    1    0    0    0 -0.24663756754E+02  0.28349792112E+00  0.14572414766E+02  0.96351500207E+02  0.91993885947E+02 0.  0.
         11    1    3    3    0    0  0.21509485572E+02 -0.21932425371E+02 -0.18029261209E+02  0.35619426051E+02  0.51100000000E-03 0. -1.
         22    1    1    0    0    0  0.24663756754E+02 -0.28349792112E+00 -0.14572414766E+02  0.28648499793E+02  0.00000000000E+00 0.  1.
</event>
<event>
 5    1  0.1717518E-003  0.9118800E+02  0.7818608E-02  0.1130116E+00
         25   -1    0    0    0    0  0.00000000000E+00  0.00000000000E+00  0.99999998245E-14  0.12500000000E+03  0.12500000000E+03 0.  0.
        -11    1    3    3    0    0  0.95841049545E+01 -0.67568169279E+01 -0.31154250932E+02  0.33288090876E+02  0.51100000000E-03 0. -1.
         23    2    1    0    0    0 -0.17819826890E+02  0.41426941296E+01  0.23395956708E+02  0.95300186274E+02  0.90554108513E+02 0.  0.
         11    1    3    3    0    0 -0.27403931844E+02  0.10899511057E+02  0.54550207640E+02  0.62012095398E+02  0.51100000000E-03 0.  1.
         22    1    1    0    0    0  0.17819826890E+02 -0.41426941296E+01 -0.23395956708E+02  0.29699813726E+02  0.00000000000E+00 0.  1.
</event>
<event>
 5    1  0.1717518E-003  0.9118800E+02  0.7818608E-02  0.1130116E+00
         25   -1    0    0    0    0  0.00000000000E+00  0.00000000000E+00  0.99999998245E-14  0.12500000000E+03  0.12500000000E+03 0.  0.
        -11    1    3    3    0    0 -0.92697949562E+01  0.14777623263E+02  0.27333099177E+02  0.32425384481E+02  0.51100000000E-03 0. -1.
         23    2    1    0    0    0  0.16893778833E+02 -0.16587502888E+02 -0.19327060978E+02  0.94437272678E+02  0.89355012000E+02 0.  0.
         11    1    3    3    0    0  0.26163573789E+02 -0.31365126151E+02 -0.46660160155E+02  0.62011888197E+02  0.51100000000E-03 0.  1.
         22    1    1    0    0    0 -0.16893778833E+02  0.16587502888E+02  0.19327060978E+02  0.30562727322E+02  0.00000000000E+00 0.  1.
</event>
<event>
 5    1  0.1717518E-003  0.9118800E+02  0.7818608E-02  0.1130116E+00
         25   -1    0    0    0    0  0.00000000000E+00  0.00000000000E+00  0.99999998245E-14  0.12500000000E+03  0.12500000000E+03 0.  0.
        -11    1    3    3    0    0  0.35715163111E+02  0.54322678747E+01  0.67839304447E+00  0.36132293419E+02  0.51100000000E-03 0.  1.
         23    2    1    0    0    0 -0.20404967223E+02  0.16640362428E+01  0.20747798375E+02  0.95852052535E+02  0.91312721643E+02 0.  0.
         11    1    3    3    0    0 -0.56120130334E+02 -0.37682316319E+01  0.20069405330E+02  0.59719759117E+02  0.51100000000E-03 0. -1.
         22    1    1    0    0    0  0.20404967223E+02 -0.16640362428E+01 -0.20747798375E+02  0.29147947465E+02  0.00000000000E+00 0. -1.
</event>
<event>
 5    1  0.1717518E-003  0.9118800E+02  0.7818608E-02  0.1130116E+00
         25   -1    0    0    0    0  0.00000000000E+00  0.00000000000E+00  0.99999998245E-14  0.12500000000E+03  0.12500000000E+03 0.  0.
        -11    1    3    3    0    0  0.10189953677E+01  0.30909320209E+01 -0.59814689870E+02  0.59903166334E+02  0.51100000000E-03 0.  1.
         23    2    1    0    0    0  0.36917411521E+01  0.12897764806E+02 -0.20577950471E+02  0.10043511988E+03  0.97384700903E+02 0.  0.
         11    1    3    3    0    0  0.26727457843E+01  0.98068327853E+01  0.39236739399E+02  0.40531953546E+02  0.51100000000E-03 0. -1.
         22    1    1    0    0    0 -0.36917411521E+01 -0.12897764806E+02  0.20577950471E+02  0.24564880120E+02  0.00000000000E+00 0.  1.
</event>
<event>
 5    1  0.1717518E-003  0.9118800E+02  0.7818608E-02  0.1130116E+00
         25   -1    0    0    0    0  0.00000000000E+00  0.00000000000E+00  0.99999998245E-14  0.12500000000E+03  0.12500000000E+03 0.  0.
        -11    1    3    3    0    0 -0.13040751923E+02  0.64420512343E+01  0.30424054831E+02  0.33722164039E+02  0.51100000000E-03 0. -1.
         23    2    1    0    0    0  0.73325314086E+01 -0.25580327395E+02 -0.16203812772E+02  0.93844218597E+02  0.88521492584E+02 0.  0.
         11    1    3    3    0    0  0.20373283332E+02 -0.32022378629E+02 -0.46627867603E+02  0.60122054558E+02  0.51100000000E-03 0.  1.
         22    1    1    0    0    0 -0.73325314086E+01  0.25580327395E+02  0.16203812772E+02  0.31155781403E+02  0.00000000000E+00 0.  1.
</event>
<event>
 5    1  0.1717518E-003  0.9118800E+02  0.7818608E-02  0.1130116E+00
         25   -1    0    0    0    0  0.00000000000E+00  0.00000000000E+00  0.99999998245E-14  0.12500000000E+03  0.12500000000E+03 0.  0.
        -11    1    3    3    0    0 -0.15767211181E+02  0.36600643305E+01 -0.55933711637E+02  0.58228696680E+02  0.51100000000E-03 0. -1.
         23    2    1    0    0    0  0.80359931804E+01 -0.45410911109E+01 -0.26377060037E+02  0.97054553303E+02  0.92944275380E+02 0.  0.
         11    1    3    3    0    0  0.23803204362E+02 -0.82011554414E+01  0.29556651600E+02  0.38825856623E+02  0.51100000000E-03 0.  1.
         22    1    1    0    0    0 -0.80359931804E+01  0.45410911109E+01  0.26377060037E+02  0.27945446697E+02  0.00000000000E+00 0. -1.
</event>
<event>
 5    1  0.1717518E-003  0.9118800E+02  0.7818608E-02  0.1130116E+00
         25   -1    0    0    0    0  0.00000000000E+00  0.00000000000E+00  0.99999998245E-14  0.12500000000E+03  0.12500000000E+03 0.  0.
        -11    1    3    3    0    0  0.13056907894E+02  0.46401002038E+02 -0.22252810873E+02  0.53091651188E+02  0.51100000000E-03 0. -1.
         23    2    1    0    0    0 -0.10446633485E+02  0.11637267990E+02 -0.25398783978E+02  0.95172891776E+02  0.90378221625E+02 0.  0.
         11    1    3    3    0    0 -0.23503541379E+02 -0.34763734049E+02 -0.31459731046E+01  0.42081240588E+02  0.51100000000E-03 0.  1.
         22    1    1    0    0    0  0.10446633485E+02 -0.11637267990E+02  0.25398783978E+02  0.29827108224E+02  0.00000000000E+00 0. -1.
</event>
<event>
 5    1  0.1717518E-003  0.9118800E+02  0.7818608E-02  0.1130116E+00
         25   -1    0    0    0    0  0.00000000000E+00  0.00000000000E+00  0.99999998245E-14  0.12500000000E+03  0.12500000000E+03 0.  0.
        -11    1    3    3    0    0 -0.14005001025E+02  0.36399033970E+02 -0.33578537992E+01  0.39144666432E+02  0.51100000000E-03 0.  1.
         23    2    1    0    0    0  0.18533544524E+01 -0.10544548782E+02 -0.28389840872E+02  0.94658518552E+02  0.89663981832E+02 0.  0.
         11    1    3    3    0    0  0.15858355478E+02 -0.46943582752E+02 -0.25031987073E+02  0.55513852119E+02  0.51100000000E-03 0. -1.
         22    1    1    0    0    0 -0.18533544524E+01  0.10544548782E+02  0.28389840872E+02  0.30341481448E+02  0.00000000000E+00 0. -1.
</event>
<event>
 5    1  0.1717518E-003  0.9118800E+02  0.7818608E-02  0.1130116E+00
         25   -1    0    0    0    0  0.00000000000E+00  0.00000000000E+00  0.99999998245E-14  0.12500000000E+03  0.12500000000E+03 0.  0.
        -11    1    3    3    0    0  0.92962686537E+01 -0.51982185083E+02  0.16394312618E+01  0.52832337749E+02  0.51100000000E-03 0. -1.
         23    2    1    0    0    0 -0.15020182834E+02 -0.18251619638E+02  0.15581340946E+02  0.96689124043E+02  0.92451506266E+02 0.  0.
         11    1    3    3    0    0 -0.24316451488E+02  0.33730565445E+02  0.13941909684E+02  0.43856786295E+02  0.51100000000E-03 0.  1.
         22    1    1    0    0    0  0.15020182834E+02  0.18251619638E+02 -0.15581340946E+02  0.28310875957E+02  0.00000000000E+00 0. -1.
</event>
<event>
 5    1  0.1717518E-003  0.9118800E+02  0.7818608E-02  0.1130116E+00
         25   -1    0    0    0    0  0.00000000000E+00  0.00000000000E+00  0.99999998245E-14  0.12500000000E+03  0.12500000000E+03 0.  0.
        -11    1    3    3    0    0  0.57150437497E+02  0.12677752156E+02 -0.39231558533E+01  0.58671024006E+02  0.51100000000E-03 0.  1.
         23    2    1    0    0    0  0.31022475358E+02 -0.87365278983E+01  0.66825021828E+00  0.92763879648E+02  0.86982583957E+02 0.  0.
         11    1    3    3    0    0 -0.26127962140E+02 -0.21414280054E+02  0.45914060715E+01  0.34092855641E+02  0.51100000000E-03 0. -1.
         22    1    1    0    0    0 -0.31022475358E+02  0.87365278983E+01 -0.66825021828E+00  0.32236120352E+02  0.00000000000E+00 0.  1.
</event>
<event>
 5    1  0.1717518E-003  0.9118800E+02  0.7818608E-02  0.1130116E+00
         25   -1    0    0    0    0  0.00000000000E+00  0.00000000000E+00  0.99999998245E-14  0.12500000000E+03  0.12500000000E+03 0.  0.
        -11    1    3    3    0    0  0.18325873938E+02  0.51757367556E+02  0.62686235307E+01  0.55262631073E+02  0.51100000000E-03 0.  1.
         23    2    1    0    0    0  0.82213185485E+01  0.17421208569E+02  0.23189579628E+02  0.94852940607E+02  0.89934615982E+02 0.  0.
         11    1    3    3    0    0 -0.10104555390E+02 -0.34336158986E+02  0.16920956097E+02  0.39590309535E+02  0.51100000000E-03 0. -1.
         22    1    1    0    0    0 -0.82213185485E+01 -0.17421208569E+02 -0.23189579628E+02  0.30147059393E+02  0.00000000000E+00 0.  1.
</event>
<event>
 5    1  0.1717518E-003  0.9118800E+02  0.7818608E-02  0.1130116E+00
         25   -1    0    0    0    0  0.00000000000E+00  0.00000000000E+00  0.99999998245E-14  0.12500000000E+03  0.12500000000E+03 0.  0.
        -11    1    3    3    0    0  0.12697804834E+02  0.43802656301E+02 -0.22779772887E+02  0.50978672007E+02  0.51100000000E-03 0. -1.
         23    2    1    0    0    0 -0.80338863711E+01  0.26415364840E+02  0.11874266343E+02  0.94944833538E+02  0.90062247277E+02 0.  0.
         11    1    3    3    0    0 -0.20731691206E+02 -0.17387291460E+02  0.34654039230E+02  0.43966161531E+02  0.51100000000E-03 0.  1.
         22    1    1    0    0    0  0.80338863711E+01 -0.26415364840E+02 -0.11874266343E+02  0.30055166462E+02  0.00000000000E+00 0.  1.
</event>
<event>
 5    1  0.1717518E-003  0.9118800E+02  0.7818608E-02  0.1130116E+00
         25   -1    0    0    0    0  0.00000000000E+00  0.00000000000E+00  0.99999998245E-14  0.12500000000E+03  0.12500000000E+03 0.  0.
        -11    1    3    3    0    0  0.66068801892E+01 -0.30181386408E+02  0.35294437136E+02  0.46906974368E+02  0.51100000000E-03 0.  1.
         23    2    1    0    0    0  0.20895895057E+02 -0.17095221231E+02 -0.10029964132E+02  0.96199215294E+02  0.91786730106E+02 0.  0.
         11    1    3    3    0    0  0.14289014868E+02  0.13086165177E+02 -0.45324401269E+02  0.49292240926E+02  0.51100000000E-03 0. -1.
         22    1    1    0    0    0 -0.20895895057E+02  0.17095221231E+02  0.10029964132E+02  0.28800784706E+02  0.00000000000E+00 0. -1.
</event>
<event>
 5    1  0.1717518E-003  0.9118800E+02  0.7818608E-02  0.1130116E+00
         25   -1    0    0    0    0  0.00000000000E+00  0.00000000000E+00  0.99999998245E-14  0.12500000000E+03  0.12500000000E+03 0.  0.
        -11    1    3    3    0    0  0.31780752102E+02 -0.18966668682E+01 -0.28786324149E+02  0.42921626340E+02  0.51100000000E-03 0.  1.
         23    2    1    0    0    0 -0.10511617155E+02  0.24729535402E+02 -0.10914686617E+02  0.95996993253E+02  0.91510919093E+02 0.  0.
         11    1    3    3    0    0 -0.42292369256E+02  0.26626202270E+02  0.17871637532E+02  0.53075366914E+02  0.51100000000E-03 0. -1.
         22    1    1    0    0    0  0.10511617155E+02 -0.24729535402E+02  0.10914686617E+02  0.29003006747E+02  0.00000000000E+00 0. -1.
</event>
<event>
 5    1  0.1717518E-003  0.9118800E+02  0.7818608E-02  0.1130116E+00
         25   -1    0    0    0    0  0.00000000000E+00  0.00000000000E+00  0.99999998245E-14  0.12500000000E+03  0.12500000000E+03 0.  0.
        -11    1    3    3    0    0  0.74545007040E+01  0.39588248688E+02 -0.20745950034E+02  0.45312177811E+02  0.51100000000E-03 0. -1.
         23    2    1    0    0    0  0.20606380337E+02  0.13464176731E+02  0.18464299250E+02  0.94229278325E+02  0.89063570450E+02 0.  0.
         11    1    3    3    0    0  0.13151879633E+02 -0.26124071957E+02  0.39210249284E+02  0.48917100514E+02  0.51100000000E-03 0.  1.
         22    1    1    0    0    0 -0.20606380337E+02 -0.13464176731E+02 -0.18464299250E+02  0.30770721675E+02  0.00000000000E+00 0.  1.
</event>
<event>
 5    1  0.1717518E-003  0.9118800E+02  0.7818608E-02  0.1130116E+00
         25   -1    0    0    0    0  0.00000000000E+00  0.00000000000E+00  0.99999998245E-14  0.12500000000E+03  0.12500000000E+03 0.  0.
        -11    1    3    3    0    0  0.55659965592E+01  0.28066733713E+02  0.18028914039E+02  0.33819574224E+02  0.51100000000E-03 0.  1.
         23    2    1    0    0    0 -0.24939569573E+01 -0.30287040991E+02  0.42801696806E+01  0.94310514410E+02  0.89177511753E+02 0.  0.
         11    1    3    3    0    0 -0.80599535165E+01 -0.58353774704E+02 -0.13748744358E+02  0.60490940186E+02  0.51100000000E-03 0. -1.
         22    1    1    0    0    0  0.24939569573E+01  0.30287040991E+02 -0.42801696806E+01  0.30689485590E+02  0.00000000000E+00 0. -1.
</event>
<event>
 5    1  0.1717518E-003  0.9118800E+02  0.7818608E-02  0.1130116E+00
         25   -1    0    0    0    0  0.00000000000E+00  0.00000000000E+00  0.99999998245E-14  0.12500000000E+03  0.12500000000E+03 0.  0.
        -11    1    3    3    0    0 -0.39100623610E+02  0.19648458321E+02 -0.42380343967E+01  0.43964549547E+02  0.51100000000E-03 0.  1.
         23    2    1    0    0    0 -0.13321630682E+01 -0.17804355817E+02 -0.18760725781E+02  0.99101456096E+02  0.95657535114E+02 0.  0.
         11    1    3    3    0    0  0.37768460542E+02 -0.37452814138E+02 -0.14522691384E+02  0.55136906549E+02  0.51100000000E-03 0. -1.
         22    1    1    0    0    0  0.13321630682E+01  0.17804355817E+02  0.18760725781E+02  0.25898543904E+02  0.00000000000E+00 0. -1.
</event>
<event>
 5    1  0.1717518E-003  0.9118800E+02  0.7818608E-02  0.1130116E+00
         25   -1    0    0    0    0  0.00000000000E+00  0.00000000000E+00  0.99999998245E-14  0.12500000000E+03  0.12500000000E+03 0.  0.
        -11    1    3    3    0    0  0.47086162349E+01 -0.32867283590E+02  0.63820112276E+00  0.33208985205E+02  0.51100000000E-03 0.  1.
         23    2    1    0    0    0 -0.11300910584E+02  0.26164547466E+02 -0.89649841164E+01  0.95122499028E+02  0.90308497701E+02 0.  0.
         11    1    3    3    0    0 -0.16009526819E+02  0.59031831056E+02 -0.96031852391E+01  0.61913513822E+02  0.51100000000E-03 0. -1.
         22    1    1    0    0    0  0.11300910584E+02 -0.26164547466E+02  0.89649841164E+01  0.29877500972E+02  0.00000000000E+00 0. -1.
</event>
<event>
 5    1  0.1717518E-003  0.9118800E+02  0.7818608E-02  0.1130116E+00
         25   -1    0    0    0    0  0.00000000000E+00  0.00000000000E+00  0.99999998245E-14  0.12500000000E+03  0.12500000000E+03 0.  0.
        -11    1    3    3    0    0 -0.26181736720E+01  0.49844378302E+02 -0.24031317382E+02  0.55396941225E+02  0.51100000000E-03 0. -1.
         23    2    1    0    0    0  0.17914762298E+02  0.18094683598E+02 -0.13226190659E+01  0.99502831454E+02  0.96180600244E+02 0.  0.
         11    1    3    3    0    0  0.20532935970E+02 -0.31749694704E+02  0.22708698317E+02  0.44105890229E+02  0.51100000000E-03 0.  1.
         22    1    1    0    0    0 -0.17914762298E+02 -0.18094683598E+02  0.13226190659E+01  0.25497168546E+02  0.00000000000E+00 0.  1.
</event>
<event>
 5    1  0.1717518E-003  0.9118800E+02  0.7818608E-02  0.1130116E+00
         25   -1    0    0    0    0  0.00000000000E+00  0.00000000000E+00  0.99999998245E-14  0.12500000000E+03  0.12500000000E+03 0.  0.
        -11    1    3    3    0    0 -0.69634899150E+00 -0.37185871511E+02 -0.29785904372E+02  0.47649491513E+02  0.51100000000E-03 0.  1.
         23    2    1    0    0    0  0.15316086884E+02  0.10481420433E+02 -0.17672160249E+02  0.99372906143E+02  0.96011595839E+02 0.  0.
         11    1    3    3    0    0  0.16012435875E+02  0.47667291944E+02  0.12113744123E+02  0.51723414629E+02  0.51100000000E-03 0. -1.
         22    1    1    0    0    0 -0.15316086884E+02 -0.10481420433E+02  0.17672160249E+02  0.25627093857E+02  0.00000000000E+00 0. -1.
</event>
<event>
 5    1  0.1717518E-003  0.9118800E+02  0.7818608E-02  0.1130116E+00
         25   -1    0    0    0    0  0.00000000000E+00  0.00000000000E+00  0.99999998245E-14  0.12500000000E+03  0.12500000000E+03 0.  0.
        -11    1    3    3    0    0  0.10715673653E+02 -0.38078488393E+02  0.17426133172E+02  0.43225768446E+02  0.51100000000E-03 0.  1.
         23    2    1    0    0    0 -0.27746078699E+02 -0.31211780511E+01  0.62407490865E+01  0.96389974052E+02  0.92046148822E+02 0.  0.
         11    1    3    3    0    0 -0.38461752352E+02  0.34957310342E+02 -0.11185384086E+02  0.53164205606E+02  0.51100000000E-03 0. -1.
         22    1    1    0    0    0  0.27746078699E+02  0.31211780511E+01 -0.62407490865E+01  0.28610025948E+02  0.00000000000E+00 0. -1.
</event>
<event>
 5    1  0.1717518E-003  0.9118800E+02  0.7818608E-02  0.1130116E+00
         25   -1    0    0    0    0  0.00000000000E+00  0.00000000000E+00  0.99999998245E-14  0.12500000000E+03  0.12500000000E+03 0.  0.
        -11    1    3    3    0    0  0.23611837357E+01 -0.32300400130E+02 -0.27075648794E+02  0.42213526210E+02  0.51100000000E-03 0.  1.
         23    2    1    0    0    0  0.27075592351E+02 -0.65459175598E+01  0.11584079237E+02  0.94831678376E+02  0.89905058779E+02 0.  0.
         11    1    3    3    0    0  0.24714408615E+02  0.25754482570E+02  0.38659728031E+02  0.52618152166E+02  0.51100000000E-03 0. -1.
         22    1    1    0    0    0 -0.27075592351E+02  0.65459175598E+01 -0.11584079237E+02  0.30168321624E+02  0.00000000000E+00 0. -1.
</event>
<event>
 5    1  0.1717518E-003  0.9118800E+02  0.7818608E-02  0.1130116E+00
         25   -1    0    0    0    0  0.00000000000E+00  0.00000000000E+00  0.99999998245E-14  0.12500000000E+03  0.12500000000E+03 0.  0.
        -11    1    3    3    0    0  0.30815913085E+02 -0.10519304814E+02  0.12628009505E+02  0.34924817786E+02  0.51100000000E-03 0. -1.
         23    2    1    0    0    0 -0.34797535154E+00  0.32786371000E+02  0.16259780075E+02  0.88401534756E+02  0.80469768789E+02 0.  0.
         11    1    3    3    0    0 -0.31163888437E+02  0.43305675813E+02  0.36317705692E+01  0.53476716970E+02  0.51100000000E-03 0.  1.
         22    1    1    0    0    0  0.34797535154E+00 -0.32786371000E+02 -0.16259780075E+02  0.36598465244E+02  0.00000000000E+00 0. -1.
</event>
<event>
 5    1  0.1717518E-003  0.9118800E+02  0.7818608E-02  0.1130116E+00
         25   -1    0    0    0    0  0.00000000000E+00  0.00000000000E+00  0.99999998245E-14  0.12500000000E+03  0.12500000000E+03 0.  0.
        -11    1    3    3    0    0 -0.44139732113E+02  0.23853372802E+02  0.30483579667E+02  0.58707307676E+02  0.51100000000E-03 0. -1.
         23    2    1    0    0    0 -0.11894997624E+02  0.23702217401E+02  0.11805368288E+02  0.95971517460E+02  0.91476113630E+02 0.  0.
         11    1    3    3    0    0  0.32244734489E+02 -0.15115540154E+00 -0.18678211379E+02  0.37264209783E+02  0.51100000000E-03 0.  1.
         22    1    1    0    0    0  0.11894997624E+02 -0.23702217401E+02 -0.11805368288E+02  0.29028482540E+02  0.00000000000E+00 0. -1.
</event>
<event>
 5    1  0.1717518E-003  0.9118800E+02  0.7818608E-02  0.1130116E+00
         25   -1    0    0    0    0  0.00000000000E+00  0.00000000000E+00  0.99999998245E-14  0.12500000000E+03  0.12500000000E+03 0.  0.
        -11    1    3    3    0    0  0.31627400581E+02  0.13121828820E+02  0.12784572909E+02  0.36550241639E+02  0.51100000000E-03 0. -1.
         23    2    1    0    0    0 -0.90204637460E+00 -0.26225449478E+02 -0.15102962044E+02  0.94723154878E+02  0.89754045701E+02 0.  0.
         11    1    3    3    0    0 -0.32529446956E+02 -0.39347278299E+02 -0.27887534953E+02  0.58172913240E+02  0.51100000000E-03 0.  1.
         22    1    1    0    0    0  0.90204637460E+00  0.26225449478E+02  0.15102962044E+02  0.30276845122E+02  0.00000000000E+00 0.  1.
</event>
<event>
 5    1  0.1717518E-003  0.9118800E+02  0.7818608E-02  0.1130116E+00
         25   -1    0    0    0    0  0.00000000000E+00  0.00000000000E+00  0.99999998245E-14  0.12500000000E+03  0.12500000000E+03 0.  0.
        -11    1    3    3    0    0 -0.12713256336E+02  0.52769723579E+02 -0.13275930499E+02  0.55879521689E+02  0.51100000000E-03 0.  1.
         23    2    1    0    0    0  0.93933606838E+01  0.19996262368E+02 -0.19046273061E+02  0.95830731048E+02  0.91283529523E+02 0.  0.
         11    1    3    3    0    0  0.22106617020E+02 -0.32773461210E+02 -0.57703425618E+01  0.39951209360E+02  0.51100000000E-03 0. -1.
         22    1    1    0    0    0 -0.93933606838E+01 -0.19996262368E+02  0.19046273061E+02  0.29169268952E+02  0.00000000000E+00 0.  1.
</event>
<event>
 5    1  0.1717518E-003  0.9118800E+02  0.7818608E-02  0.1130116E+00
         25   -1    0    0    0    0  0.00000000000E+00  0.00000000000E+00  0.99999998245E-14  0.12500000000E+03  0.12500000000E+03 0.  0.
        -11    1    3    3    0    0 -0.19114252180E+02 -0.96221500081E+01  0.27866070638E+02  0.35134858762E+02  0.51100000000E-03 0.  1.
         23    2    1    0    0    0 -0.20272817537E+01  0.12833998913E+02 -0.25994280610E+02  0.95939304484E+02  0.91432084747E+02 0.  0.
         11    1    3    3    0    0  0.17086970426E+02  0.22456148921E+02 -0.53860351248E+02  0.60804445722E+02  0.51100000000E-03 0. -1.
         22    1    1    0    0    0  0.20272817537E+01 -0.12833998913E+02  0.25994280610E+02  0.29060695516E+02  0.00000000000E+00 0. -1.
</event>
<event>
 5    1  0.1717518E-003  0.9118800E+02  0.7818608E-02  0.1130116E+00
         25   -1    0    0    0    0  0.00000000000E+00  0.00000000000E+00  0.99999998245E-14  0.12500000000E+03  0.12500000000E+03 0.  0.
        -11    1    3    3    0    0  0.20787002106E+02 -0.17576858036E+02 -0.17314384691E+02  0.32261948367E+02  0.51100000000E-03 0.  1.
         23    2    1    0    0    0 -0.66265068122E+01  0.20763935874E+02  0.22289732549E+02  0.93824949036E+02  0.88494278115E+02 0.  0.
         11    1    3    3    0    0 -0.27413508918E+02  0.38340793910E+02  0.39604117240E+02  0.61563000669E+02  0.51100000000E-03 0. -1.
         22    1    1    0    0    0  0.66265068122E+01 -0.20763935874E+02 -0.22289732549E+02  0.31175050964E+02  0.00000000000E+00 0. -1.
</event>
<event>
 5    1  0.1717518E-003  0.9118800E+02  0.7818608E-02  0.1130116E+00
         25   -1    0    0    0    0  0.00000000000E+00  0.00000000000E+00  0.99999998245E-14  0.12500000000E+03  0.12500000000E+03 0.  0.
        -11    1    3    3    0    0 -0.92957863924E+01  0.14732895547E+02 -0.31275359439E+02  0.35799692235E+02  0.51100000000E-03 0. -1.
         23    2    1    0    0    0  0.13746070818E+02  0.11077500810E+02  0.23657539480E+02  0.95481452249E+02  0.90803981532E+02 0.  0.
         11    1    3    3    0    0  0.23041857210E+02 -0.36553947376E+01  0.54932898919E+02  0.59681760013E+02  0.51100000000E-03 0.  1.
         22    1    1    0    0    0 -0.13746070818E+02 -0.11077500810E+02 -0.23657539480E+02  0.29518547751E+02  0.00000000000E+00 0.  1.
</event>
<event>
 5    1  0.1717518E-003  0.9118800E+02  0.7818608E-02  0.1130116E+00
         25   -1    0    0    0    0  0.00000000000E+00  0.00000000000E+00  0.99999998245E-14  0.12500000000E+03  0.12500000000E+03 0.  0.
        -11    1    3    3    0    0 -0.51052527384E+01  0.49095709938E+02  0.18344715089E+02  0.52659100940E+02  0.51100000000E-03 0.  1.
         23    2    1    0    0    0  0.21651595102E+02  0.16090395135E+02  0.11412268256E+02  0.95709519416E+02  0.91117396001E+02 0.  0.
         11    1    3    3    0    0  0.26756847840E+02 -0.33005314803E+02 -0.69324468331E+01  0.43050418476E+02  0.51100000000E-03 0. -1.
         22    1    1    0    0    0 -0.21651595102E+02 -0.16090395135E+02 -0.11412268256E+02  0.29290480584E+02  0.00000000000E+00 0.  1.
</event>
<event>
 5    1  0.1717518E-003  0.9118800E+02  0.7818608E-02  0.1130116E+00
         25   -1    0    0    0    0  0.00000000000E+00  0.00000000000E+00  0.99999998245E-14  0.12500000000E+03  0.12500000000E+03 0.  0.
        -11    1    3    3    0    0  0.65417849296E+01 -0.47666803316E+02  0.32811643380E+02  0.58236784165E+02  0.51100000000E-03 0.  1.
         23    2    1    0    0    0 -0.90940423983E+01 -0.25683784945E+02  0.44256845290E+01  0.97396646947E+02  0.93403221233E+02 0.  0.
         11    1    3    3    0    0 -0.15635827328E+02  0.21983018371E+02 -0.28385958851E+02  0.39159862781E+02  0.51100000000E-03 0. -1.
         22    1    1    0    0    0  0.90940423983E+01  0.25683784945E+02 -0.44256845290E+01  0.27603353053E+02  0.00000000000E+00 0.  1.
</event>
<event>
 5    1  0.1717518E-003  0.9118800E+02  0.7818608E-02  0.1130116E+00
         25   -1    0    0    0    0  0.00000000000E+00  0.00000000000E+00  0.99999998245E-14  0.12500000000E+03  0.12500000000E+03 0.  0.
        -11    1    3    3    0    0 -0.45977701536E+02  0.16039261553E+01 -0.55884205846E+01  0.46343846005E+02  0.51100000000E-03 0.  1.
         23    2    1    0    0    0 -0.52901548912E+01 -0.23794281954E+02 -0.16540738248E+02  0.95542409903E+02  0.90887856592E+02 0.  0.
         11    1    3    3    0    0  0.40687546645E+02 -0.25398208110E+02 -0.10952317664E+02  0.49198563898E+02  0.51100000000E-03 0. -1.
         22    1    1    0    0    0  0.52901548912E+01  0.23794281954E+02  0.16540738248E+02  0.29457590097E+02  0.00000000000E+00 0. -1.
</event>
<event>
 5    1  0.1717518E-003  0.9118800E+02  0.7818608E-02  0.1130116E+00
         25   -1    0    0    0    0  0.00000000000E+00  0.00000000000E+00  0.99999998245E-14  0.12500000000E+03  0.12500000000E+03 0.  0.
        -11    1    3    3    0    0  0.35913722333E+02 -0.39314411759E+02  0.76711025151E+01  0.53798366498E+02  0.51100000000E-03 0.  1.
         23    2    1    0    0    0  0.28716119306E+02  0.13688084534E+01 -0.18345805018E+01  0.96192798987E+02  0.91777991626E+02 0.  0.
         11    1    3    3    0    0 -0.71976030271E+01  0.40683220213E+02 -0.95056830169E+01  0.42394432490E+02  0.51100000000E-03 0. -1.
         22    1    1    0    0    0 -0.28716119306E+02 -0.13688084534E+01  0.18345805018E+01  0.28807201013E+02  0.00000000000E+00 0.  1.
</event>
<event>
 5    1  0.1717518E-003  0.9118800E+02  0.7818608E-02  0.1130116E+00
         25   -1    0    0    0    0  0.00000000000E+00  0.00000000000E+00  0.99999998245E-14  0.12500000000E+03  0.12500000000E+03 0.  0.
        -11    1    3    3    0    0  0.23421543033E+02  0.20691057511E+02  0.27285904147E+02  0.41487457193E+02  0.51100000000E-03 0.  1.
         23    2    1    0    0    0 -0.21804341808E+01  0.20794857518E+02 -0.20511640699E+02  0.95709936897E+02  0.91117968724E+02 0.  0.
         11    1    3    3    0    0 -0.25601977214E+02  0.10380000669E+00 -0.47797544846E+02  0.54222479704E+02  0.51100000000E-03 0. -1.
         22    1    1    0    0    0  0.21804341808E+01 -0.20794857518E+02  0.20511640699E+02  0.29290063103E+02  0.00000000000E+00 0. -1.
</event>
<event>
 5    1  0.1717518E-003  0.9118800E+02  0.7818608E-02  0.1130116E+00
         25   -1    0    0    0    0  0.00000000000E+00  0.00000000000E+00  0.99999998245E-14  0.12500000000E+03  0.12500000000E+03 0.  0.
        -11    1    3    3    0    0  0.26354708583E+02 -0.15056807658E+02  0.46783339573E+02  0.55767006224E+02  0.51100000000E-03 0.  1.
         23    2    1    0    0    0  0.27623976979E+02  0.44931568194E+01  0.14627180406E+02  0.93421099307E+02  0.87921981476E+02 0.  0.
         11    1    3    3    0    0  0.12692683964E+01  0.19549964477E+02 -0.32156159166E+02  0.37654093083E+02  0.51100000000E-03 0. -1.
         22    1    1    0    0    0 -0.27623976979E+02 -0.44931568194E+01 -0.14627180406E+02  0.31578900693E+02  0.00000000000E+00 0.  1.
</event>
<event>
 5    1  0.1717518E-003  0.9118800E+02  0.7818608E-02  0.1130116E+00
         25   -1    0    0    0    0  0.00000000000E+00  0.00000000000E+00  0.99999998245E-14  0.12500000000E+03  0.12500000000E+03 0.  0.
        -11    1    3    3    0    0 -0.27534839546E+02 -0.27610709216E+02  0.35048230508E+02  0.52429925750E+02  0.51100000000E-03 0.  1.
         23    2    1    0    0    0 -0.11640725055E+01  0.30044102609E+01  0.31876650524E+02  0.92960923946E+02  0.87265290846E+02 0.  0.
         11    1    3    3    0    0  0.26370767040E+02  0.30615119477E+02 -0.31715799839E+01  0.40530998195E+02  0.51100000000E-03 0. -1.
         22    1    1    0    0    0  0.11640725055E+01 -0.30044102609E+01 -0.31876650524E+02  0.32039076054E+02  0.00000000000E+00 0.  1.
</event>
<event>
 5    1  0.1717518E-003  0.9118800E+02  0.7818608E-02  0.1130116E+00
         25   -1    0    0    0    0  0.00000000000E+00  0.00000000000E+00  0.99999998245E-14  0.12500000000E+03  0.12500000000E+03 0.  0.
        -11    1    3    3    0    0 -0.57736231865E+02 -0.22220763728E+02  0.79434779097E+01  0.62372539248E+02  0.51100000000E-03 0.  1.
         23    2    1    0    0    0 -0.27663107368E+02 -0.78592447227E+01  0.47636809203E+01  0.95850250554E+02  0.91310254838E+02 0.  0.
         11    1    3    3    0    0  0.30073124497E+02  0.14361519005E+02 -0.31797969894E+01  0.33477711306E+02  0.51100000000E-03 0. -1.
         22    1    1    0    0    0  0.27663107368E+02  0.78592447227E+01 -0.47636809203E+01  0.29149749446E+02  0.00000000000E+00 0.  1.
</event>
<event>
 5    1  0.1717518E-003  0.9118800E+02  0.7818608E-02  0.1130116E+00
         25   -1    0    0    0    0  0.00000000000E+00  0.00000000000E+00  0.99999998245E-14  0.12500000000E+03  0.12500000000E+03 0.  0.
        -11    1    3    3    0    0 -0.13016330414E+02 -0.13883966936E+02  0.28635461350E+02  0.34382830633E+02  0.51100000000E-03 0.  1.
         23    2    1    0    0    0  0.22664960912E+02  0.10895744876E+02 -0.14804884164E+02  0.95817774165E+02  0.91265785162E+02 0.  0.
         11    1    3    3    0    0  0.35681291327E+02  0.24779711812E+02 -0.43440345514E+02  0.61434943533E+02  0.51100000000E-03 0. -1.
         22    1    1    0    0    0 -0.22664960912E+02 -0.10895744876E+02  0.14804884164E+02  0.29182225835E+02  0.00000000000E+00 0. -1.
</event>
<event>
 5    1  0.1717518E-003  0.9118800E+02  0.7818608E-02  0.1130116E+00
         25   -1    0    0    0    0  0.00000000000E+00  0.00000000000E+00  0.99999998245E-14  0.12500000000E+03  0.12500000000E+03 0.  0.
        -11    1    3    3    0    0  0.31810815596E+02  0.56528443606E+01 -0.20811225281E+02  0.38431624168E+02  0.51100000000E-03 0.  1.
         23    2    1    0    0    0 -0.19468817156E+02  0.22382841959E+02 -0.32540471540E+01  0.95156821910E+02  0.90355993036E+02 0.  0.
         11    1    3    3    0    0 -0.51279632752E+02  0.16729997599E+02  0.17557178127E+02  0.56725197742E+02  0.51100000000E-03 0. -1.
         22    1    1    0    0    0  0.19468817156E+02 -0.22382841959E+02  0.32540471540E+01  0.29843178090E+02  0.00000000000E+00 0. -1.
</event>
<event>
 5    1  0.1717518E-003  0.9118800E+02  0.7818608E-02  0.1130116E+00
         25   -1    0    0    0    0  0.00000000000E+00  0.00000000000E+00  0.99999998245E-14  0.12500000000E+03  0.12500000000E+03 0.  0.
        -11    1    3    3    0    0  0.24166479888E+02 -0.27001449911E+02  0.15316797118E+01  0.36269037628E+02  0.51100000000E-03 0.  1.
         23    2    1    0    0    0 -0.29308097079E+02 -0.27224268310E+01 -0.41634526096E+01  0.95272731376E+02  0.90516202107E+02 0.  0.
         11    1    3    3    0    0 -0.53474576966E+02  0.24279023080E+02 -0.56951323214E+01  0.59003693748E+02  0.51100000000E-03 0. -1.
         22    1    1    0    0    0  0.29308097079E+02  0.27224268310E+01  0.41634526096E+01  0.29727268624E+02  0.00000000000E+00 0. -1.
</event>
<event>
 5    1  0.1717518E-003  0.9118800E+02  0.7818608E-02  0.1130116E+00
         25   -1    0    0    0    0  0.00000000000E+00  0.00000000000E+00  0.99999998245E-14  0.12500000000E+03  0.12500000000E+03 0.  0.
        -11    1    3    3    0    0  0.11755615979E+02 -0.57875038799E+01 -0.48777022332E+02  0.50506312636E+02  0.51100000000E-03 0.  1.
         23    2    1    0    0    0  0.16541159030E+02  0.20589423618E+02 -0.12065825613E+02  0.95963497891E+02  0.91465154419E+02 0.  0.
         11    1    3    3    0    0  0.47855430504E+01  0.26376927498E+02  0.36711196719E+02  0.45457185255E+02  0.51100000000E-03 0. -1.
         22    1    1    0    0    0 -0.16541159030E+02 -0.20589423618E+02  0.12065825613E+02  0.29036502109E+02  0.00000000000E+00 0.  1.
</event>
<event>
 5    1  0.1717518E-003  0.9118800E+02  0.7818608E-02  0.1130116E+00
         25   -1    0    0    0    0  0.00000000000E+00  0.00000000000E+00  0.99999998245E-14  0.12500000000E+03  0.12500000000E+03 0.  0.
        -11    1    3    3    0    0 -0.56027676142E+02 -0.54199428807E+01 -0.21515014395E+02  0.60260867230E+02  0.51100000000E-03 0.  1.
         23    2    1    0    0    0 -0.30245825358E+02 -0.15112689571E+00  0.77000324788E+00  0.94743997358E+02  0.89783068222E+02 0.  0.
         11    1    3    3    0    0  0.25781850784E+02  0.52688159850E+01  0.22285017643E+02  0.34483130127E+02  0.51100000000E-03 0. -1.
         22    1    1    0    0    0  0.30245825358E+02  0.15112689571E+00 -0.77000324788E+00  0.30256002642E+02  0.00000000000E+00 0.  1.
</event>
<event>
 5    1  0.1717518E-003  0.9118800E+02  0.7818608E-02  0.1130116E+00
         25   -1    0    0    0    0  0.00000000000E+00  0.00000000000E+00  0.99999998245E-14  0.12500000000E+03  0.12500000000E+03 0.  0.
        -11    1    3    3    0    0 -0.43162824673E+02 -0.71472771985E+01  0.23483154949E+02  0.49654522167E+02  0.51100000000E-03 0.  1.
         23    2    1    0    0    0 -0.12234526883E+02  0.23434826784E+02  0.16844534366E+02  0.93653340012E+02  0.88251543912E+02 0.  0.
         11    1    3    3    0    0  0.30928297790E+02  0.30582103982E+02 -0.66386205829E+01  0.43998817844E+02  0.51100000000E-03 0. -1.
         22    1    1    0    0    0  0.12234526883E+02 -0.23434826784E+02 -0.16844534366E+02  0.31346659988E+02  0.00000000000E+00 0.  1.
</event>
<event>
 5    1  0.1717518E-003  0.9118800E+02  0.7818608E-02  0.1130116E+00
         25   -1    0    0    0    0  0.00000000000E+00  0.00000000000E+00  0.99999998245E-14  0.12500000000E+03  0.12500000000E+03 0.  0.
        -11    1    3    3    0    0  0.16360410274E+02 -0.32137178289E+02 -0.13263845916E+02  0.38423831947E+02  0.51100000000E-03 0. -1.
         23    2    1    0    0    0 -0.11688684917E+02  0.16888664279E+02 -0.21224580707E+02  0.95464679409E+02  0.90780889246E+02 0.  0.
         11    1    3    3    0    0 -0.28049095191E+02  0.49025842568E+02 -0.79607347910E+01  0.57040847463E+02  0.51100000000E-03 0.  1.
         22    1    1    0    0    0  0.11688684917E+02 -0.16888664279E+02  0.21224580707E+02  0.29535320591E+02  0.00000000000E+00 0.  1.
</event>
<event>
 5    1  0.1717518E-003  0.9118800E+02  0.7818608E-02  0.1130116E+00
         25   -1    0    0    0    0  0.00000000000E+00  0.00000000000E+00  0.99999998245E-14  0.12500000000E+03  0.12500000000E+03 0.  0.
        -11    1    3    3    0    0  0.23710331678E+02  0.23041090632E+02  0.10681794516E+02  0.34744386887E+02  0.51100000000E-03 0. -1.
         23    2    1    0    0    0 -0.27446602107E+02 -0.93263911485E+01  0.54249874623E+01  0.95508848309E+02  0.90841686891E+02 0.  0.
         11    1    3    3    0    0 -0.51156933786E+02 -0.32367481781E+02 -0.52568070541E+01  0.60764461422E+02  0.51100000000E-03 0.  1.
         22    1    1    0    0    0  0.27446602107E+02  0.93263911485E+01 -0.54249874623E+01  0.29491151691E+02  0.00000000000E+00 0.  1.
</event>
<event>
 5    1  0.1717518E-003  0.9118800E+02  0.7818608E-02  0.1130116E+00
         25   -1    0    0    0    0  0.00000000000E+00  0.00000000000E+00  0.99999998245E-14  0.12500000000E+03  0.12500000000E+03 0.  0.
        -11    1    3    3    0    0 -0.20698937432E+02  0.35804401133E+02  0.37160637005E+02  0.55599587176E+02  0.51100000000E-03 0.  1.
         23    2    1    0    0    0 -0.25723202716E+02  0.82192166187E+01  0.63493294452E+01  0.97259187752E+02  0.93219080332E+02 0.  0.
         11    1    3    3    0    0 -0.50242652843E+01 -0.27585184515E+02 -0.30811307559E+02  0.41659600576E+02  0.51100000000E-03 0. -1.
         22    1    1    0    0    0  0.25723202716E+02 -0.82192166187E+01 -0.63493294452E+01  0.27740812248E+02  0.00000000000E+00 0.  1.
</event>
<event>
 5    1  0.1717518E-003  0.9118800E+02  0.7818608E-02  0.1130116E+00
         25   -1    0    0    0    0  0.00000000000E+00  0.00000000000E+00  0.99999998245E-14  0.12500000000E+03  0.12500000000E+03 0.  0.
        -11    1    3    3    0    0  0.38195707897E+02  0.28989659822E+02  0.25456044496E+02  0.54289250133E+02  0.51100000000E-03 0. -1.
         23    2    1    0    0    0 -0.69415932442E+00  0.18977952029E+02  0.23895206100E+02  0.94477460870E+02  0.89411214160E+02 0.  0.
         11    1    3    3    0    0 -0.38889867222E+02 -0.10011707793E+02 -0.15608383958E+01  0.40188210737E+02  0.51100000000E-03 0.  1.
         22    1    1    0    0    0  0.69415932442E+00 -0.18977952029E+02 -0.23895206100E+02  0.30522539130E+02  0.00000000000E+00 0. -1.
</event>
<event>
 5    1  0.1717518E-003  0.9118800E+02  0.7818608E-02  0.1130116E+00
         25   -1    0    0    0    0  0.00000000000E+00  0.00000000000E+00  0.99999998245E-14  0.12500000000E+03  0.12500000000E+03 0.  0.
        -11    1    3    3    0    0  0.34900928945E+02  0.16197197457E+02 -0.43325506262E+02  0.57944141549E+02  0.51100000000E-03 0. -1.
         23    2    1    0    0    0  0.11037439406E+02  0.22869068479E+02 -0.15296665329E+02  0.95355315284E+02  0.90630176105E+02 0.  0.
         11    1    3    3    0    0 -0.23863489539E+02  0.66718710215E+01  0.28028840933E+02  0.37411173735E+02  0.51100000000E-03 0.  1.
         22    1    1    0    0    0 -0.11037439406E+02 -0.22869068479E+02  0.15296665329E+02  0.29644684716E+02  0.00000000000E+00 0. -1.
</event>
<event>
 5    1  0.1717518E-003  0.9118800E+02  0.7818608E-02  0.1130116E+00
         25   -1    0    0    0    0  0.00000000000E+00  0.00000000000E+00  0.99999998245E-14  0.12500000000E+03  0.12500000000E+03 0.  0.
        -11    1    3    3    0    0  0.18259301187E+02  0.14656156336E+02 -0.22528772441E+02  0.32492315804E+02  0.51100000000E-03 0. -1.
         23    2    1    0    0    0 -0.28718292820E+02 -0.46990692262E+01  0.11571651546E+02  0.93683475391E+02  0.88294217522E+02 0.  0.
         11    1    3    3    0    0 -0.46977594007E+02 -0.19355225563E+02  0.34100423986E+02  0.61191159587E+02  0.51100000000E-03 0.  1.
         22    1    1    0    0    0  0.28718292820E+02  0.46990692262E+01 -0.11571651546E+02  0.31316524609E+02  0.00000000000E+00 0.  1.
</event>
<event>
 5    1  0.1717518E-003  0.9118800E+02  0.7818608E-02  0.1130116E+00
         25   -1    0    0    0    0  0.00000000000E+00  0.00000000000E+00  0.99999998245E-14  0.12500000000E+03  0.12500000000E+03 0.  0.
        -11    1    3    3    0    0  0.21855033767E+02  0.84383769041E+00  0.27865721785E+02  0.35423904554E+02  0.51100000000E-03 0.  1.
         23    2    1    0    0    0 -0.29434377614E+02  0.74943052098E+01 -0.91758606013E+00  0.94612680929E+02  0.89600057100E+02 0.  0.
         11    1    3    3    0    0 -0.51289411381E+02  0.66504675194E+01 -0.28783307845E+02  0.59188776375E+02  0.51100000000E-03 0. -1.
         22    1    1    0    0    0  0.29434377614E+02 -0.74943052098E+01  0.91758606013E+00  0.30387319071E+02  0.00000000000E+00 0.  1.
</event>
<event>
 5    1  0.1717518E-003  0.9118800E+02  0.7818608E-02  0.1130116E+00
         25   -1    0    0    0    0  0.00000000000E+00  0.00000000000E+00  0.99999998245E-14  0.12500000000E+03  0.12500000000E+03 0.  0.
        -11    1    3    3    0    0  0.12437724567E+02  0.40528607113E+02 -0.39301520284E+02  0.57808948130E+02  0.51100000000E-03 0.  1.
         23    2    1    0    0    0  0.32873935798E+01  0.50406319679E+01 -0.28291258006E+02  0.96075785114E+02  0.91618482188E+02 0.  0.
         11    1    3    3    0    0 -0.91503309875E+01 -0.35487975145E+02  0.11010262278E+02  0.38266836984E+02  0.51100000000E-03 0. -1.
         22    1    1    0    0    0 -0.32873935798E+01 -0.50406319679E+01  0.28291258006E+02  0.28924214886E+02  0.00000000000E+00 0.  1.
</event>
<event>
 5    1  0.1717518E-003  0.9118800E+02  0.7818608E-02  0.1130116E+00
         25   -1    0    0    0    0  0.00000000000E+00  0.00000000000E+00  0.99999998245E-14  0.12500000000E+03  0.12500000000E+03 0.  0.
        -11    1    3    3    0    0  0.30757956977E+02 -0.10217305539E+02  0.21164990821E+02  0.38709198991E+02  0.51100000000E-03 0. -1.
         23    2    1    0    0    0 -0.15714881864E+02  0.21192093238E+02  0.12611622092E+00  0.98616705416E+02  0.95021978269E+02 0.  0.
         11    1    3    3    0    0 -0.46472838840E+02  0.31409398776E+02 -0.21038874600E+02  0.59907506425E+02  0.51100000000E-03 0.  1.
         22    1    1    0    0    0  0.15714881864E+02 -0.21192093238E+02 -0.12611622092E+00  0.26383294584E+02  0.00000000000E+00 0.  1.
</event>
<event>
 5    1  0.1717518E-003  0.9118800E+02  0.7818608E-02  0.1130116E+00
         25   -1    0    0    0    0  0.00000000000E+00  0.00000000000E+00  0.99999998245E-14  0.12500000000E+03  0.12500000000E+03 0.  0.
        -11    1    3    3    0    0 -0.29457075616E+01 -0.43191412252E+02 -0.11862563525E+02  0.44887589588E+02  0.51100000000E-03 0. -1.
         23    2    1    0    0    0 -0.29606074490E+02 -0.29567551816E+01  0.22141082099E+01  0.95164378286E+02  0.90366446048E+02 0.  0.
         11    1    3    3    0    0 -0.26660366928E+02  0.40234657071E+02  0.14076671735E+02  0.50276788698E+02  0.51100000000E-03 0.  1.
         22    1    1    0    0    0  0.29606074490E+02  0.29567551816E+01 -0.22141082099E+01  0.29835621714E+02  0.00000000000E+00 0. -1.
</event>
<event>
 5    1  0.1717518E-003  0.9118800E+02  0.7818608E-02  0.1130116E+00
         25   -1    0    0    0    0  0.00000000000E+00  0.00000000000E+00  0.99999998245E-14  0.12500000000E+03  0.12500000000E+03 0.  0.
        -11    1    3    3    0    0  0.28439541147E+02 -0.10018586663E+02 -0.26471357205E+02  0.40123712838E+02  0.51100000000E-03 0. -1.
         23    2    1    0    0    0 -0.19513818179E+02  0.12910677851E+02  0.38040821486E+01  0.10129460518E+03  0.98481730770E+02 0.  0.
         11    1    3    3    0    0 -0.47953359326E+02  0.22929264514E+02  0.30275439353E+02  0.61170892344E+02  0.51100000000E-03 0.  1.
         22    1    1    0    0    0  0.19513818179E+02 -0.12910677851E+02 -0.38040821486E+01  0.23705394819E+02  0.00000000000E+00 0.  1.
</event>
<event>
 5    1  0.1717518E-003  0.9118800E+02  0.7818608E-02  0.1130116E+00
         25   -1    0    0    0    0  0.00000000000E+00  0.00000000000E+00  0.99999998245E-14  0.12500000000E+03  0.12500000000E+03 0.  0.
        -11    1    3    3    0    0  0.83197102600E+01  0.44299778248E+02 -0.40885016719E+02  0.60854519339E+02  0.51100000000E-03 0. -1.
         23    2    1    0    0    0  0.11785918515E+01  0.13801557556E+02 -0.26012866836E+02  0.95528975064E+02  0.90869377493E+02 0.  0.
         11    1    3    3    0    0 -0.71411184085E+01 -0.30498220691E+02  0.14872149882E+02  0.34674455725E+02  0.51100000000E-03 0.  1.
         22    1    1    0    0    0 -0.11785918515E+01 -0.13801557556E+02  0.26012866836E+02  0.29471024936E+02  0.00000000000E+00 0. -1.
</event>
<event>
 5    1  0.1717518E-003  0.9118800E+02  0.7818608E-02  0.1130116E+00
         25   -1    0    0    0    0  0.00000000000E+00  0.00000000000E+00  0.99999998245E-14  0.12500000000E+03  0.12500000000E+03 0.  0.
        -11    1    3    3    0    0  0.48187669016E+02  0.71294788609E+01  0.33262337915E+02  0.58985286622E+02  0.51100000000E-03 0.  1.
         23    2    1    0    0    0  0.13396358020E+02  0.13164904468E+02  0.22052716397E+02  0.96032787184E+02  0.91559799017E+02 0.  0.
         11    1    3    3    0    0 -0.34791310996E+02  0.60354256069E+01 -0.11209621519E+02  0.37047500562E+02  0.51100000000E-03 0. -1.
         22    1    1    0    0    0 -0.13396358020E+02 -0.13164904468E+02 -0.22052716397E+02  0.28967212816E+02  0.00000000000E+00 0.  1.
</event>
<event>
 5    1  0.1717518E-003  0.9118800E+02  0.7818608E-02  0.1130116E+00
         25   -1    0    0    0    0  0.00000000000E+00  0.00000000000E+00  0.99999998245E-14  0.12500000000E+03  0.12500000000E+03 0.  0.
        -11    1    3    3    0    0  0.28857802720E+02  0.95436180103E+01 -0.53906712070E+02  0.61885273119E+02  0.51100000000E-03 0.  1.
         23    2    1    0    0    0  0.17131661769E+02  0.89174534809E+01 -0.22889327347E+02  0.95051108235E+02  0.90209628415E+02 0.  0.
         11    1    3    3    0    0 -0.11726140951E+02 -0.62616452934E+00  0.31017384723E+02  0.33165835116E+02  0.51100000000E-03 0. -1.
         22    1    1    0    0    0 -0.17131661769E+02 -0.89174534809E+01  0.22889327347E+02  0.29948891765E+02  0.00000000000E+00 0.  1.
</event>
<event>
 5    1  0.1717518E-003  0.9118800E+02  0.7818608E-02  0.1130116E+00
         25   -1    0    0    0    0  0.00000000000E+00  0.00000000000E+00  0.99999998245E-14  0.12500000000E+03  0.12500000000E+03 0.  0.
        -11    1    3    3    0    0  0.20138464106E+02  0.32133940180E+02 -0.39266016212E+02  0.54589082035E+02  0.51100000000E-03 0.  1.
         23    2    1    0    0    0  0.20868969311E+02 -0.41177382990E+01 -0.20675282992E+02  0.95336268347E+02  0.90603902160E+02 0.  0.
         11    1    3    3    0    0  0.73050520487E+00 -0.36251678479E+02  0.18590733219E+02  0.40747186312E+02  0.51100000000E-03 0. -1.
         22    1    1    0    0    0 -0.20868969311E+02  0.41177382990E+01  0.20675282992E+02  0.29663731653E+02  0.00000000000E+00 0.  1.
</event>
<event>
 5    1  0.1717518E-003  0.9118800E+02  0.7818608E-02  0.1130116E+00
         25   -1    0    0    0    0  0.00000000000E+00  0.00000000000E+00  0.99999998245E-14  0.12500000000E+03  0.12500000000E+03 0.  0.
        -11    1    3    3    0    0 -0.38719046007E+02  0.95446154913E+00  0.38996932311E+01  0.38926637771E+02  0.51100000000E-03 0.  1.
         23    2    1    0    0    0  0.10565521337E+02  0.16587119162E+02 -0.20926753243E+02  0.96282552960E+02  0.91900153645E+02 0.  0.
         11    1    3    3    0    0  0.49284567345E+02  0.15632657613E+02 -0.24826446474E+02  0.57355915189E+02  0.51100000000E-03 0. -1.
         22    1    1    0    0    0 -0.10565521337E+02 -0.16587119162E+02  0.20926753243E+02  0.28717447040E+02  0.00000000000E+00 0. -1.
</event>
<event>
 5    1  0.1717518E-003  0.9118800E+02  0.7818608E-02  0.1130116E+00
         25   -1    0    0    0    0  0.00000000000E+00  0.00000000000E+00  0.99999998245E-14  0.12500000000E+03  0.12500000000E+03 0.  0.
        -11    1    3    3    0    0  0.26091927036E+02 -0.45779547122E+02  0.27082911613E+02  0.59245587961E+02  0.51100000000E-03 0. -1.
         23    2    1    0    0    0  0.38697503990E+00 -0.29153866545E+02  0.10900777126E+02  0.93872445870E+02  0.88561342963E+02 0.  0.
         11    1    3    3    0    0 -0.25704951996E+02  0.16625680578E+02 -0.16182134487E+02  0.34626857909E+02  0.51100000000E-03 0.  1.
         22    1    1    0    0    0 -0.38697503990E+00  0.29153866545E+02 -0.10900777126E+02  0.31127554130E+02  0.00000000000E+00 0. -1.
</event>
<event>
 5    1  0.1717518E-003  0.9118800E+02  0.7818608E-02  0.1130116E+00
         25   -1    0    0    0    0  0.00000000000E+00  0.00000000000E+00  0.99999998245E-14  0.12500000000E+03  0.12500000000E+03 0.  0.
        -11    1    3    3    0    0 -0.28727578239E+02  0.19113118733E+02 -0.22145226942E+02  0.40999952876E+02  0.51100000000E-03 0.  1.
         23    2    1    0    0    0 -0.14488280414E+02 -0.24290992189E+02  0.78492924809E+01  0.95647419818E+02  0.91032164395E+02 0.  0.
         11    1    3    3    0    0  0.14239297825E+02 -0.43404110922E+02  0.29994519423E+02  0.54647466942E+02  0.51100000000E-03 0. -1.
         22    1    1    0    0    0  0.14488280414E+02  0.24290992189E+02 -0.78492924809E+01  0.29352580182E+02  0.00000000000E+00 0. -1.
</event>
<event>
 5    1  0.1717518E-003  0.9118800E+02  0.7818608E-02  0.1130116E+00
         25   -1    0    0    0    0  0.00000000000E+00  0.00000000000E+00  0.99999998245E-14  0.12500000000E+03  0.12500000000E+03 0.  0.
        -11    1    3    3    0    0 -0.62351839620E+01 -0.12933174378E+01 -0.36148250935E+02  0.36704853016E+02  0.51100000000E-03 0.  1.
         23    2    1    0    0    0  0.52186943209E+00  0.21279947847E+02  0.18868312177E+02  0.96554934830E+02  0.92269895999E+02 0.  0.
         11    1    3    3    0    0  0.67570533941E+01  0.22573265285E+02  0.55016563112E+02  0.59850081814E+02  0.51100000000E-03 0. -1.
         22    1    1    0    0    0 -0.52186943209E+00 -0.21279947847E+02 -0.18868312177E+02  0.28445065170E+02  0.00000000000E+00 0. -1.
</event>
<event>
 5    1  0.1717518E-003  0.9118800E+02  0.7818608E-02  0.1130116E+00
         25   -1    0    0    0    0  0.00000000000E+00  0.00000000000E+00  0.99999998245E-14  0.12500000000E+03  0.12500000000E+03 0.  0.
        -11    1    3    3    0    0 -0.27092746886E+02 -0.56774345791E+01 -0.31029829576E+02  0.41582454485E+02  0.51100000000E-03 0. -1.
         23    2    1    0    0    0  0.19407470196E+02  0.16298028279E+02 -0.15436445337E+02  0.95325777688E+02  0.90589427760E+02 0.  0.
         11    1    3    3    0    0  0.46500217083E+02  0.21975462858E+02  0.15593384239E+02  0.53743323203E+02  0.51100000000E-03 0.  1.
         22    1    1    0    0    0 -0.19407470196E+02 -0.16298028279E+02  0.15436445337E+02  0.29674222312E+02  0.00000000000E+00 0. -1.
</event>
<event>
 5    1  0.1717518E-003  0.9118800E+02  0.7818608E-02  0.1130116E+00
         25   -1    0    0    0    0  0.00000000000E+00  0.00000000000E+00  0.99999998245E-14  0.12500000000E+03  0.12500000000E+03 0.  0.
        -11    1    3    3    0    0 -0.23987698725E+02  0.35102790884E+02 -0.25951843559E+02  0.49810779982E+02  0.51100000000E-03 0.  1.
         23    2    1    0    0    0 -0.16242830747E+02 -0.10917985808E+02 -0.20270618249E+02  0.96823237784E+02  0.92632658636E+02 0.  0.
         11    1    3    3    0    0  0.77448679780E+01 -0.46020776692E+02  0.56812253099E+01  0.47012457802E+02  0.51100000000E-03 0. -1.
         22    1    1    0    0    0  0.16242830747E+02  0.10917985808E+02  0.20270618249E+02  0.28176762216E+02  0.00000000000E+00 0. -1.
</event>
<event>
 5    1  0.1717518E-003  0.9118800E+02  0.7818608E-02  0.1130116E+00
         25   -1    0    0    0    0  0.00000000000E+00  0.00000000000E+00  0.99999998245E-14  0.12500000000E+03  0.12500000000E+03 0.  0.
        -11    1    3    3    0    0 -0.14008591206E+02  0.23590682363E+02  0.51406232870E+02  0.58269732280E+02  0.51100000000E-03 0.  1.
         23    2    1    0    0    0  0.68676252117E+01  0.36611970779E+01  0.29464662739E+02  0.94524846344E+02  0.89477436183E+02 0.  0.
         11    1    3    3    0    0  0.20876216418E+02 -0.19929485285E+02 -0.21941570131E+02  0.36255114063E+02  0.51100000000E-03 0. -1.
         22    1    1    0    0    0 -0.68676252117E+01 -0.36611970779E+01 -0.29464662739E+02  0.30475153656E+02  0.00000000000E+00 0.  1.
</event>
<event>
 5    1  0.1717518E-003  0.9118800E+02  0.7818608E-02  0.1130116E+00
         25   -1    0    0    0    0  0.00000000000E+00  0.00000000000E+00  0.99999998245E-14  0.12500000000E+03  0.12500000000E+03 0.  0.
        -11    1    3    3    0    0 -0.30511189760E+01 -0.18842398285E+02  0.39832396589E+02  0.44169730794E+02  0.51100000000E-03 0. -1.
         23    2    1    0    0    0  0.33654701581E+01  0.25395713562E+02  0.13696833375E+02  0.95950526662E+02  0.91447425691E+02 0.  0.
         11    1    3    3    0    0  0.64165891341E+01  0.44238111847E+02 -0.26135563214E+02  0.51780795868E+02  0.51100000000E-03 0.  1.
         22    1    1    0    0    0 -0.33654701581E+01 -0.25395713562E+02 -0.13696833375E+02  0.29049473338E+02  0.00000000000E+00 0.  1.
</event>
<event>
 5    1  0.1717518E-003  0.9118800E+02  0.7818608E-02  0.1130116E+00
         25   -1    0    0    0    0  0.00000000000E+00  0.00000000000E+00  0.99999998245E-14  0.12500000000E+03  0.12500000000E+03 0.  0.
        -11    1    3    3    0    0  0.31431694833E+02 -0.28540048369E+02 -0.11330096999E+01  0.42470807765E+02  0.51100000000E-03 0.  1.
         23    2    1    0    0    0 -0.19858690163E+02 -0.23803673065E+02  0.28612402401E+00  0.93998963028E+02  0.88739736066E+02 0.  0.
         11    1    3    3    0    0 -0.51290384996E+02  0.47363753044E+01  0.14191337239E+01  0.51528155263E+02  0.51100000000E-03 0. -1.
         22    1    1    0    0    0  0.19858690163E+02  0.23803673065E+02 -0.28612402401E+00  0.31001036972E+02  0.00000000000E+00 0. -1.
</event>
<event>
 5    1  0.1717518E-003  0.9118800E+02  0.7818608E-02  0.1130116E+00
         25   -1    0    0    0    0  0.00000000000E+00  0.00000000000E+00  0.99999998245E-14  0.12500000000E+03  0.12500000000E+03 0.  0.
        -11    1    3    3    0    0 -0.16192758859E+02 -0.37349578120E+02  0.23519045983E+02  0.47014273891E+02  0.51100000000E-03 0. -1.
         23    2    1    0    0    0 -0.29457366328E+02 -0.63655533201E+00 -0.46750294811E+01  0.95167173545E+02  0.90370312527E+02 0.  0.
         11    1    3    3    0    0 -0.13264607468E+02  0.36713022788E+02 -0.28194075465E+02  0.48152899654E+02  0.51100000000E-03 0.  1.
         22    1    1    0    0    0  0.29457366328E+02  0.63655533201E+00  0.46750294811E+01  0.29832826455E+02  0.00000000000E+00 0.  1.
</event>
<event>
 5    1  0.1717518E-003  0.9118800E+02  0.7818608E-02  0.1130116E+00
         25   -1    0    0    0    0  0.00000000000E+00  0.00000000000E+00  0.99999998245E-14  0.12500000000E+03  0.12500000000E+03 0.  0.
        -11    1    3    3    0    0  0.51564771448E+02  0.16805587894E+02  0.18744166892E+02  0.57382028822E+02  0.51100000000E-03 0.  1.
         23    2    1    0    0    0  0.28133976873E+02 -0.82343343351E+01  0.18053337591E+01  0.95630217117E+02  0.91008539595E+02 0.  0.
         11    1    3    3    0    0 -0.23430794576E+02 -0.25039922229E+02 -0.16938833133E+02  0.38248188295E+02  0.51100000000E-03 0. -1.
         22    1    1    0    0    0 -0.28133976873E+02  0.82343343351E+01 -0.18053337591E+01  0.29369782883E+02  0.00000000000E+00 0. -1.
</event>
<event>
 5    1  0.1717518E-003  0.9118800E+02  0.7818608E-02  0.1130116E+00
         25   -1    0    0    0    0  0.00000000000E+00  0.00000000000E+00  0.99999998245E-14  0.12500000000E+03  0.12500000000E+03 0.  0.
        -11    1    3    3    0    0 -0.47799968131E+00  0.51104267100E+02 -0.22948301884E+02  0.56022309477E+02  0.51100000000E-03 0. -1.
         23    2    1    0    0    0 -0.19131201783E+02  0.18425536815E+02 -0.40415133182E+01  0.98132973397E+02  0.94383490872E+02 0.  0.
         11    1    3    3    0    0 -0.18653202102E+02 -0.32678730285E+02  0.18906788565E+02  0.42110663920E+02  0.51100000000E-03 0.  1.
         22    1    1    0    0    0  0.19131201783E+02 -0.18425536815E+02  0.40415133182E+01  0.26867026603E+02  0.00000000000E+00 0. -1.
</event>
<event>
 5    1  0.1717518E-003  0.9118800E+02  0.7818608E-02  0.1130116E+00
         25   -1    0    0    0    0  0.00000000000E+00  0.00000000000E+00  0.99999998245E-14  0.12500000000E+03  0.12500000000E+03 0.  0.
        -11    1    3    3    0    0 -0.22891765508E+02 -0.10715211531E+02 -0.23326452820E+02  0.34394361276E+02  0.51100000000E-03 0.  1.
         23    2    1    0    0    0  0.14313728453E+02  0.27149333218E+02  0.39134850333E+01  0.94059985755E+02  0.88825651918E+02 0.  0.
         11    1    3    3    0    0  0.37205493960E+02  0.37864544749E+02  0.27239937853E+02  0.59665624478E+02  0.51100000000E-03 0. -1.
         22    1    1    0    0    0 -0.14313728453E+02 -0.27149333218E+02 -0.39134850333E+01  0.30940014245E+02  0.00000000000E+00 0. -1.
</event>
<event>
 5    1  0.1717518E-003  0.9118800E+02  0.7818608E-02  0.1130116E+00
         25   -1    0    0    0    0  0.00000000000E+00  0.00000000000E+00  0.99999998245E-14  0.12500000000E+03  0.12500000000E+03 0.  0.
        -11    1    3    3    0    0  0.18116101819E+02  0.68878547671E+01 -0.51955341267E+02  0.55452620992E+02  0.51100000000E-03 0. -1.
         23    2    1    0    0    0 -0.11395816519E+02 -0.33582348506E+01 -0.27222826358E+02  0.95297733246E+02  0.90550722313E+02 0.  0.
         11    1    3    3    0    0 -0.29511918338E+02 -0.10246089618E+02  0.24732514910E+02  0.39845112253E+02  0.51100000000E-03 0.  1.
         22    1    1    0    0    0  0.11395816519E+02  0.33582348506E+01  0.27222826358E+02  0.29702266754E+02  0.00000000000E+00 0. -1.
</event>
<event>
 5    1  0.1717518E-003  0.9118800E+02  0.7818608E-02  0.1130116E+00
         25   -1    0    0    0    0  0.00000000000E+00  0.00000000000E+00  0.99999998245E-14  0.12500000000E+03  0.12500000000E+03 0.  0.
        -11    1    3    3    0    0  0.67582617684E+01 -0.73532991665E+01  0.36643767024E+02  0.37980399850E+02  0.51100000000E-03 0.  1.
         23    2    1    0    0    0  0.31183751624E+02 -0.33681893496E+01 -0.11076573116E+02  0.91736483396E+02  0.85493396523E+02 0.  0.
         11    1    3    3    0    0  0.24425489856E+02  0.39851098169E+01 -0.47720340140E+02  0.53756083547E+02  0.51100000000E-03 0. -1.
         22    1    1    0    0    0 -0.31183751624E+02  0.33681893496E+01  0.11076573116E+02  0.33263516604E+02  0.00000000000E+00 0. -1.
</event>
<event>
 5    1  0.1717518E-003  0.9118800E+02  0.7818608E-02  0.1130116E+00
         25   -1    0    0    0    0  0.00000000000E+00  0.00000000000E+00  0.99999998245E-14  0.12500000000E+03  0.12500000000E+03 0.  0.
        -11    1    3    3    0    0  0.53015265794E+02 -0.14134698315E+02  0.46726358491E+00  0.54869175674E+02  0.51100000000E-03 0. -1.
         23    2    1    0    0    0  0.21474759018E+02 -0.83210401920E+01  0.21719547910E+02  0.93343345942E+02  0.87811368771E+02 0.  0.
         11    1    3    3    0    0 -0.31540506776E+02  0.58136581226E+01  0.21252284325E+02  0.38474170267E+02  0.51100000000E-03 0.  1.
         22    1    1    0    0    0 -0.21474759018E+02  0.83210401920E+01 -0.21719547910E+02  0.31656654058E+02  0.00000000000E+00 0. -1.
</event>
<event>
 5    1  0.1717518E-003  0.9118800E+02  0.7818608E-02  0.1130116E+00
         25   -1    0    0    0    0  0.00000000000E+00  0.00000000000E+00  0.99999998245E-14  0.12500000000E+03  0.12500000000E+03 0.  0.
        -11    1    3    3    0    0  0.37810195667E+02  0.56292234801E+01  0.28244244257E+02  0.47529321343E+02  0.51100000000E-03 0. -1.
         23    2    1    0    0    0  0.18082188761E+02 -0.26830936341E+02  0.44787121448E+01  0.92336204173E+02  0.86365797879E+02 0.  0.
         11    1    3    3    0    0 -0.19728006906E+02 -0.32460159821E+02 -0.23765532112E+02  0.44806882830E+02  0.51100000000E-03 0.  1.
         22    1    1    0    0    0 -0.18082188761E+02  0.26830936341E+02 -0.44787121448E+01  0.32663795827E+02  0.00000000000E+00 0.  1.
</event>
<event>
 5    1  0.1717518E-003  0.9118800E+02  0.7818608E-02  0.1130116E+00
         25   -1    0    0    0    0  0.00000000000E+00  0.00000000000E+00  0.99999998245E-14  0.12500000000E+03  0.12500000000E+03 0.  0.
        -11    1    3    3    0    0 -0.45195210889E+02  0.17102465998E+02  0.86541744015E+00  0.48330636020E+02  0.51100000000E-03 0.  1.
         23    2    1    0    0    0 -0.25393895809E+01  0.24276179658E+02 -0.17130765462E+02  0.95179796722E+02  0.90387771189E+02 0.  0.
         11    1    3    3    0    0  0.42655821308E+02  0.71737136598E+01 -0.17996182902E+02  0.46849160702E+02  0.51100000000E-03 0. -1.
         22    1    1    0    0    0  0.25393895809E+01 -0.24276179658E+02  0.17130765462E+02  0.29820203278E+02  0.00000000000E+00 0.  1.
</event>
<event>
 5    1  0.1717518E-003  0.9118800E+02  0.7818608E-02  0.1130116E+00
         25   -1    0    0    0    0  0.00000000000E+00  0.00000000000E+00  0.99999998245E-14  0.12500000000E+03  0.12500000000E+03 0.  0.
        -11    1    3    3    0    0  0.12452193558E+02 -0.41588705634E+02  0.81054107459E+01  0.44163052932E+02  0.51100000000E-03 0. -1.
         23    2    1    0    0    0 -0.25940459857E+02 -0.90152234983E+01 -0.68687995572E+01  0.96691659892E+02  0.92454934822E+02 0.  0.
         11    1    3    3    0    0 -0.38392653415E+02  0.32573482135E+02 -0.14974210303E+02  0.52528606960E+02  0.51100000000E-03 0.  1.
         22    1    1    0    0    0  0.25940459857E+02  0.90152234983E+01  0.68687995572E+01  0.28308340108E+02  0.00000000000E+00 0.  1.
</event>
<event>
 5    1  0.1717518E-003  0.9118800E+02  0.7818608E-02  0.1130116E+00
         25   -1    0    0    0    0  0.00000000000E+00  0.00000000000E+00  0.99999998245E-14  0.12500000000E+03  0.12500000000E+03 0.  0.
        -11    1    3    3    0    0  0.42004286168E+00 -0.51364178970E+02  0.33890928349E+02  0.61539014794E+02  0.51100000000E-03 0.  1.
         23    2    1    0    0    0  0.78095052060E+01 -0.22635234866E+02  0.16431161118E+02  0.95959936559E+02  0.91460287227E+02 0.  0.
         11    1    3    3    0    0  0.73894623443E+01  0.28728944104E+02 -0.17459767232E+02  0.34420921764E+02  0.51100000000E-03 0. -1.
         22    1    1    0    0    0 -0.78095052060E+01  0.22635234866E+02 -0.16431161118E+02  0.29040063441E+02  0.00000000000E+00 0.  1.
</event>
<event>
 5    1  0.1717518E-003  0.9118800E+02  0.7818608E-02  0.1130116E+00
         25   -1    0    0    0    0  0.00000000000E+00  0.00000000000E+00  0.99999998245E-14  0.12500000000E+03  0.12500000000E+03 0.  0.
        -11    1    3    3    0    0 -0.39349947635E+02  0.44876777469E+02 -0.18403375554E+02  0.62458208162E+02  0.51100000000E-03 0. -1.
         23    2    1    0    0    0 -0.17731814587E+02  0.21139539749E+02 -0.10070570796E+02  0.95628010188E+02  0.91005508333E+02 0.  0.
         11    1    3    3    0    0  0.21618133048E+02 -0.23737237719E+02  0.83328047573E+01  0.33169802025E+02  0.51100000000E-03 0.  1.
         22    1    1    0    0    0  0.17731814587E+02 -0.21139539749E+02  0.10070570796E+02  0.29371989812E+02  0.00000000000E+00 0. -1.
</event>
<event>
 5    1  0.1717518E-003  0.9118800E+02  0.7818608E-02  0.1130116E+00
         25   -1    0    0    0    0  0.00000000000E+00  0.00000000000E+00  0.99999998245E-14  0.12500000000E+03  0.12500000000E+03 0.  0.
        -11    1    3    3    0    0 -0.99083384510E-02 -0.40012390229E+02 -0.24884794925E+02  0.47119470379E+02  0.51100000000E-03 0. -1.
         23    2    1    0    0    0 -0.67895533551E+01  0.15709581828E+02 -0.18816045299E+01  0.10778287389E+03  0.10639886499E+03 0.  0.
         11    1    3    3    0    0 -0.67796450166E+01  0.55721972058E+02  0.23003190396E+02  0.60663403508E+02  0.51100000000E-03 0.  1.
         22    1    1    0    0    0  0.67895533551E+01 -0.15709581828E+02  0.18816045299E+01  0.17217126113E+02  0.00000000000E+00 0.  1.
</event>
<event>
 5    1  0.1717518E-003  0.9118800E+02  0.7818608E-02  0.1130116E+00
         25   -1    0    0    0    0  0.00000000000E+00  0.00000000000E+00  0.99999998245E-14  0.12500000000E+03  0.12500000000E+03 0.  0.
        -11    1    3    3    0    0 -0.56278015728E+02  0.13469289587E+01  0.88603610452E+01  0.56987150043E+02  0.51100000000E-03 0. -1.
         23    2    1    0    0    0 -0.18919174450E+02 -0.73860100367E+01  0.19545078501E+02  0.96813152008E+02  0.92619047727E+02 0.  0.
         11    1    3    3    0    0  0.37358841278E+02 -0.87329389954E+01  0.10684717456E+02  0.39826001965E+02  0.51100000000E-03 0.  1.
         22    1    1    0    0    0  0.18919174450E+02  0.73860100367E+01 -0.19545078501E+02  0.28186847992E+02  0.00000000000E+00 0. -1.
</event>
<event>
 5    1  0.1717518E-003  0.9118800E+02  0.7818608E-02  0.1130116E+00
         25   -1    0    0    0    0  0.00000000000E+00  0.00000000000E+00  0.99999998245E-14  0.12500000000E+03  0.12500000000E+03 0.  0.
        -11    1    3    3    0    0 -0.34675271730E+02 -0.88045065276E+01  0.14145832851E+02  0.38470747225E+02  0.51100000000E-03 0. -1.
         23    2    1    0    0    0 -0.50925583920E+01  0.23215776355E+02 -0.20072501491E+02  0.93890327246E+02  0.88586578055E+02 0.  0.
         11    1    3    3    0    0  0.29582713338E+02  0.32020282883E+02 -0.34218334342E+02  0.55419580021E+02  0.51100000000E-03 0.  1.
         22    1    1    0    0    0  0.50925583920E+01 -0.23215776355E+02  0.20072501491E+02  0.31109672754E+02  0.00000000000E+00 0.  1.
</event>
<event>
 5    1  0.1717518E-003  0.9118800E+02  0.7818608E-02  0.1130116E+00
         25   -1    0    0    0    0  0.00000000000E+00  0.00000000000E+00  0.99999998245E-14  0.12500000000E+03  0.12500000000E+03 0.  0.
        -11    1    3    3    0    0 -0.22766823651E+02  0.26145259779E+02 -0.15727305971E+02  0.38069029689E+02  0.51100000000E-03 0.  1.
         23    2    1    0    0    0 -0.13809090863E+02 -0.25722366599E+02  0.63093095419E+01  0.95131312034E+02  0.90320695349E+02 0.  0.
         11    1    3    3    0    0  0.89577327880E+01 -0.51867626379E+02  0.22036615513E+02  0.57062282345E+02  0.51100000000E-03 0. -1.
         22    1    1    0    0    0  0.13809090863E+02  0.25722366599E+02 -0.63093095419E+01  0.29868687966E+02  0.00000000000E+00 0. -1.
</event>
<event>
 5    1  0.1717518E-003  0.9118800E+02  0.7818608E-02  0.1130116E+00
         25   -1    0    0    0    0  0.00000000000E+00  0.00000000000E+00  0.99999998245E-14  0.12500000000E+03  0.12500000000E+03 0.  0.
        -11    1    3    3    0    0  0.18075222243E+02  0.24241981162E+02 -0.23698517548E+02  0.38418837099E+02  0.51100000000E-03 0.  1.
         23    2    1    0    0    0 -0.20251477795E+01 -0.27588624202E+02 -0.87736934543E+01  0.95979126379E+02  0.91486510452E+02 0.  0.
         11    1    3    3    0    0 -0.20100370022E+02 -0.51830605364E+02  0.14924824094E+02  0.57560289280E+02  0.51100000000E-03 0. -1.
         22    1    1    0    0    0  0.20251477795E+01  0.27588624202E+02  0.87736934543E+01  0.29020873621E+02  0.00000000000E+00 0. -1.
</event>
<event>
 5    1  0.1717518E-003  0.9118800E+02  0.7818608E-02  0.1130116E+00
         25   -1    0    0    0    0  0.00000000000E+00  0.00000000000E+00  0.99999998245E-14  0.12500000000E+03  0.12500000000E+03 0.  0.
        -11    1    3    3    0    0 -0.10859071153E+01 -0.35518932818E+02  0.14965570991E+02  0.38558294803E+02  0.51100000000E-03 0. -1.
         23    2    1    0    0    0 -0.25639450293E+02  0.13527525796E+02 -0.19185274445E+01  0.95947356178E+02  0.91443091836E+02 0.  0.
         11    1    3    3    0    0 -0.24553543178E+02  0.49046458614E+02 -0.16884098436E+02  0.57389061374E+02  0.51100000000E-03 0.  1.
         22    1    1    0    0    0  0.25639450293E+02 -0.13527525796E+02  0.19185274445E+01  0.29052643822E+02  0.00000000000E+00 0.  1.
</event>
<event>
 5    1  0.1717518E-003  0.9118800E+02  0.7818608E-02  0.1130116E+00
         25   -1    0    0    0    0  0.00000000000E+00  0.00000000000E+00  0.99999998245E-14  0.12500000000E+03  0.12500000000E+03 0.  0.
        -11    1    3    3    0    0 -0.38945600282E+02 -0.13347523182E+02 -0.44325564458E+02  0.60495221474E+02  0.51100000000E-03 0.  1.
         23    2    1    0    0    0 -0.15129072785E+02 -0.16899710704E+02 -0.19394533654E+02  0.95156457971E+02  0.90355489555E+02 0.  0.
         11    1    3    3    0    0  0.23816527498E+02 -0.35521875214E+01  0.24931030805E+02  0.34661236497E+02  0.51100000000E-03 0. -1.
         22    1    1    0    0    0  0.15129072785E+02  0.16899710704E+02  0.19394533654E+02  0.29843542029E+02  0.00000000000E+00 0.  1.
</event>
<event>
 5    1  0.1717518E-003  0.9118800E+02  0.7818608E-02  0.1130116E+00
         25   -1    0    0    0    0  0.00000000000E+00  0.00000000000E+00  0.99999998245E-14  0.12500000000E+03  0.12500000000E+03 0.  0.
        -11    1    3    3    0    0 -0.10562140126E+01  0.43686121911E+02  0.42548368723E+02  0.60991446260E+02  0.51100000000E-03 0. -1.
         23    2    1    0    0    0  0.36591092590E+01  0.27337590409E+02  0.14392280748E+02  0.93889380028E+02  0.88585241474E+02 0.  0.
         11    1    3    3    0    0  0.47153232716E+01 -0.16348531502E+02 -0.28156087975E+02  0.32897933767E+02  0.51100000000E-03 0.  1.
         22    1    1    0    0    0 -0.36591092590E+01 -0.27337590409E+02 -0.14392280748E+02  0.31110619972E+02  0.00000000000E+00 0. -1.
</event>
<event>
 5    1  0.1717518E-003  0.9118800E+02  0.7818608E-02  0.1130116E+00
         25   -1    0    0    0    0  0.00000000000E+00  0.00000000000E+00  0.99999998245E-14  0.12500000000E+03  0.12500000000E+03 0.  0.
        -11    1    3    3    0    0  0.37452715044E+02  0.32328391242E+02 -0.55290396198E+01  0.49783541696E+02  0.51100000000E-03 0. -1.
         23    2    1    0    0    0  0.20419300144E+02 -0.81876251070E+01 -0.19188138408E+02  0.95808054556E+02  0.91252471960E+02 0.  0.
         11    1    3    3    0    0 -0.17033414900E+02 -0.40516016349E+02 -0.13659098789E+02  0.46024512859E+02  0.51100000000E-03 0.  1.
         22    1    1    0    0    0 -0.20419300144E+02  0.81876251070E+01  0.19188138408E+02  0.29191945444E+02  0.00000000000E+00 0. -1.
</event>
<event>
 5    1  0.1717518E-003  0.9118800E+02  0.7818608E-02  0.1130116E+00
         25   -1    0    0    0    0  0.00000000000E+00  0.00000000000E+00  0.99999998245E-14  0.12500000000E+03  0.12500000000E+03 0.  0.
        -11    1    3    3    0    0 -0.21756749389E+02 -0.20004334855E+02  0.24578190145E+02  0.38439783923E+02  0.51100000000E-03 0.  1.
         23    2    1    0    0    0  0.64649705603E+01  0.27191718075E+02  0.98109430622E+01  0.95378386608E+02  0.90661991220E+02 0.  0.
         11    1    3    3    0    0  0.28221719950E+02  0.47196052929E+02 -0.14767247083E+02  0.56938602685E+02  0.51100000000E-03 0. -1.
         22    1    1    0    0    0 -0.64649705603E+01 -0.27191718075E+02 -0.98109430622E+01  0.29621613392E+02  0.00000000000E+00 0. -1.
</event>
<event>
 5    1  0.1717518E-003  0.9118800E+02  0.7818608E-02  0.1130116E+00
         25   -1    0    0    0    0  0.00000000000E+00  0.00000000000E+00  0.99999998245E-14  0.12500000000E+03  0.12500000000E+03 0.  0.
        -11    1    3    3    0    0 -0.33940809634E+02  0.34439491498E+02  0.88384331285E+01  0.49154603382E+02  0.51100000000E-03 0.  1.
         23    2    1    0    0    0 -0.12090984325E+02 -0.11483335529E+01 -0.21180325404E+02  0.10058449763E+03  0.97576249194E+02 0.  0.
         11    1    3    3    0    0  0.21849825309E+02 -0.35587825051E+02 -0.30018758533E+02  0.51429894244E+02  0.51100000000E-03 0. -1.
         22    1    1    0    0    0  0.12090984325E+02  0.11483335529E+01  0.21180325404E+02  0.24415502373E+02  0.00000000000E+00 0. -1.
</event>
<event>
 5    1  0.1717518E-003  0.9118800E+02  0.7818608E-02  0.1130116E+00
         25   -1    0    0    0    0  0.00000000000E+00  0.00000000000E+00  0.99999998245E-14  0.12500000000E+03  0.12500000000E+03 0.  0.
        -11    1    3    3    0    0  0.15775035369E+02  0.60369853367E+02  0.73291416401E+00  0.62401186686E+02  0.51100000000E-03 0. -1.
         23    2    1    0    0    0  0.60939272764E+01  0.29112553941E+02 -0.16555550633E+01  0.95210444629E+02  0.90430145180E+02 0.  0.
         11    1    3    3    0    0 -0.96811080921E+01 -0.31257299425E+02 -0.23884692273E+01  0.32809257943E+02  0.51100000000E-03 0.  1.
         22    1    1    0    0    0 -0.60939272764E+01 -0.29112553941E+02  0.16555550633E+01  0.29789555371E+02  0.00000000000E+00 0. -1.
</event>
<event>
 5    1  0.1717518E-003  0.9118800E+02  0.7818608E-02  0.1130116E+00
         25   -1    0    0    0    0  0.00000000000E+00  0.00000000000E+00  0.99999998245E-14  0.12500000000E+03  0.12500000000E+03 0.  0.
        -11    1    3    3    0    0  0.15920898296E+01  0.82167145756E+01 -0.32448115332E+02  0.33510137829E+02  0.51100000000E-03 0.  1.
         23    2    1    0    0    0  0.91000843673E+01  0.60934617593E+01  0.28246742687E+02  0.94704451084E+02  0.89727993240E+02 0.  0.
         11    1    3    3    0    0  0.75079945378E+01 -0.21232528162E+01  0.60694858019E+02  0.61194313255E+02  0.51100000000E-03 0. -1.
         22    1    1    0    0    0 -0.91000843673E+01 -0.60934617593E+01 -0.28246742687E+02  0.30295548916E+02  0.00000000000E+00 0. -1.
</event>
<event>
 5    1  0.1717518E-003  0.9118800E+02  0.7818608E-02  0.1130116E+00
         25   -1    0    0    0    0  0.00000000000E+00  0.00000000000E+00  0.99999998245E-14  0.12500000000E+03  0.12500000000E+03 0.  0.
        -11    1    3    3    0    0 -0.10861585480E+02 -0.30441337037E+02 -0.19032072997E+02  0.37508250326E+02  0.51100000000E-03 0. -1.
         23    2    1    0    0    0  0.57337480129E+01  0.24384015164E+02 -0.16809913609E+02  0.94833308811E+02  0.89907325634E+02 0.  0.
         11    1    3    3    0    0  0.16595333493E+02  0.54825352200E+02  0.22221593878E+01  0.57325058484E+02  0.51100000000E-03 0.  1.
         22    1    1    0    0    0 -0.57337480129E+01 -0.24384015164E+02  0.16809913609E+02  0.30166691189E+02  0.00000000000E+00 0.  1.
</event>
<event>
 5    1  0.1717518E-003  0.9118800E+02  0.7818608E-02  0.1130116E+00
         25   -1    0    0    0    0  0.00000000000E+00  0.00000000000E+00  0.99999998245E-14  0.12500000000E+03  0.12500000000E+03 0.  0.
        -11    1    3    3    0    0 -0.44866018776E+02 -0.31592429689E+02  0.16602579901E+02  0.57329633821E+02  0.51100000000E-03 0. -1.
         23    2    1    0    0    0 -0.21368933702E+02  0.43812332195E+00  0.17967075724E+02  0.97077981991E+02  0.92975779092E+02 0.  0.
         11    1    3    3    0    0  0.23497085074E+02  0.32030553011E+02  0.13644958225E+01  0.39748348170E+02  0.51100000000E-03 0.  1.
         22    1    1    0    0    0  0.21368933702E+02 -0.43812332195E+00 -0.17967075724E+02  0.27922018009E+02  0.00000000000E+00 0. -1.
</event>
<event>
 5    1  0.1717518E-003  0.9118800E+02  0.7818608E-02  0.1130116E+00
         25   -1    0    0    0    0  0.00000000000E+00  0.00000000000E+00  0.99999998245E-14  0.12500000000E+03  0.12500000000E+03 0.  0.
        -11    1    3    3    0    0 -0.28307678786E+02 -0.10329750865E+01  0.22208730920E+02  0.35994714127E+02  0.51100000000E-03 0.  1.
         23    2    1    0    0    0  0.74192645174E+01  0.24102788609E+02 -0.16912583016E+02  0.94635129360E+02  0.89631369174E+02 0.  0.
         11    1    3    3    0    0  0.35726943303E+02  0.25135763696E+02 -0.39121313935E+02  0.58640415233E+02  0.51100000000E-03 0. -1.
         22    1    1    0    0    0 -0.74192645174E+01 -0.24102788609E+02  0.16912583016E+02  0.30364870640E+02  0.00000000000E+00 0. -1.
</event>
<event>
 5    1  0.1717518E-003  0.9118800E+02  0.7818608E-02  0.1130116E+00
         25   -1    0    0    0    0  0.00000000000E+00  0.00000000000E+00  0.99999998245E-14  0.12500000000E+03  0.12500000000E+03 0.  0.
        -11    1    3    3    0    0  0.30932427276E+02  0.14847326243E+02  0.20726377716E+02  0.40085419883E+02  0.51100000000E-03 0. -1.
         23    2    1    0    0    0 -0.67560708708E+01 -0.25303108222E+02  0.13221147928E+02  0.95662472295E+02  0.91052831223E+02 0.  0.
         11    1    3    3    0    0 -0.37688498147E+02 -0.40150434466E+02 -0.75052297874E+01  0.55577052411E+02  0.51100000000E-03 0.  1.
         22    1    1    0    0    0  0.67560708708E+01  0.25303108222E+02 -0.13221147928E+02  0.29337527705E+02  0.00000000000E+00 0.  1.
</event>
<event>
 5    1  0.1717518E-003  0.9118800E+02  0.7818608E-02  0.1130116E+00
         25   -1    0    0    0    0  0.00000000000E+00  0.00000000000E+00  0.99999998245E-14  0.12500000000E+03  0.12500000000E+03 0.  0.
        -11    1    3    3    0    0  0.15766850648E+02 -0.26932127911E+02  0.34070809895E+02  0.46203389273E+02  0.51100000000E-03 0.  1.
         23    2    1    0    0    0  0.24049510531E+02 -0.14995939341E+02 -0.11784974592E+02  0.94305655576E+02  0.89170700872E+02 0.  0.
         11    1    3    3    0    0  0.82826598825E+01  0.11936188570E+02 -0.45855784487E+02  0.48102266303E+02  0.51100000000E-03 0. -1.
         22    1    1    0    0    0 -0.24049510531E+02  0.14995939341E+02  0.11784974592E+02  0.30694344424E+02  0.00000000000E+00 0. -1.
</event>
<event>
 5    1  0.1717518E-003  0.9118800E+02  0.7818608E-02  0.1130116E+00
         25   -1    0    0    0    0  0.00000000000E+00  0.00000000000E+00  0.99999998245E-14  0.12500000000E+03  0.12500000000E+03 0.  0.
        -11    1    3    3    0    0  0.16432012082E+02 -0.62926073580E+01  0.30038391200E+02  0.34812539042E+02  0.51100000000E-03 0. -1.
         23    2    1    0    0    0  0.72690638782E+01  0.16931486424E+02 -0.24236655827E+02  0.94554474748E+02  0.89518817502E+02 0.  0.
         11    1    3    3    0    0 -0.91629482036E+01  0.23224093783E+02 -0.54275047027E+02  0.59741935706E+02  0.51100000000E-03 0.  1.
         22    1    1    0    0    0 -0.72690638782E+01 -0.16931486424E+02  0.24236655827E+02  0.30445525252E+02  0.00000000000E+00 0.  1.
</event>
<event>
 5    1  0.1717518E-003  0.9118800E+02  0.7818608E-02  0.1130116E+00
         25   -1    0    0    0    0  0.00000000000E+00  0.00000000000E+00  0.99999998245E-14  0.12500000000E+03  0.12500000000E+03 0.  0.
        -11    1    3    3    0    0  0.19237739772E+02 -0.13077386963E+02  0.21528889761E+02  0.31695453553E+02  0.51100000000E-03 0. -1.
         23    2    1    0    0    0 -0.25496589239E+02  0.22084254709E+02  0.53737664239E+01  0.90843481816E+02  0.84177612547E+02 0.  0.
         11    1    3    3    0    0 -0.44734329011E+02  0.35161641672E+02 -0.16155123337E+02  0.59148028263E+02  0.51100000000E-03 0.  1.
         22    1    1    0    0    0  0.25496589239E+02 -0.22084254709E+02 -0.53737664239E+01  0.34156518184E+02  0.00000000000E+00 0.  1.
</event>
<event>
 5    1  0.1717518E-003  0.9118800E+02  0.7818608E-02  0.1130116E+00
         25   -1    0    0    0    0  0.00000000000E+00  0.00000000000E+00  0.99999998245E-14  0.12500000000E+03  0.12500000000E+03 0.  0.
        -11    1    3    3    0    0 -0.28611215341E+02  0.52722286955E+02 -0.12911043842E+02  0.61359076252E+02  0.51100000000E-03 0. -1.
         23    2    1    0    0    0 -0.90730436583E+01  0.26792526218E+02  0.10340349243E+01  0.96694014580E+02  0.92458118329E+02 0.  0.
         11    1    3    3    0    0  0.19538171683E+02 -0.25929760737E+02  0.13945078767E+02  0.35334938328E+02  0.51100000000E-03 0.  1.
         22    1    1    0    0    0  0.90730436583E+01 -0.26792526218E+02 -0.10340349243E+01  0.28305985420E+02  0.00000000000E+00 0. -1.
</event>
<event>
 5    1  0.1717518E-003  0.9118800E+02  0.7818608E-02  0.1130116E+00
         25   -1    0    0    0    0  0.00000000000E+00  0.00000000000E+00  0.99999998245E-14  0.12500000000E+03  0.12500000000E+03 0.  0.
        -11    1    3    3    0    0 -0.33747213097E+02 -0.54743361209E+01  0.46281501335E+02  0.57539726397E+02  0.51100000000E-03 0.  1.
         23    2    1    0    0    0 -0.22755463028E+01 -0.13119908697E+02  0.26098322653E+02  0.95700980213E+02  0.91105680686E+02 0.  0.
         11    1    3    3    0    0  0.31471666794E+02 -0.76455725764E+01 -0.20183178682E+02  0.38161253816E+02  0.51100000000E-03 0. -1.
         22    1    1    0    0    0  0.22755463028E+01  0.13119908697E+02 -0.26098322653E+02  0.29299019787E+02  0.00000000000E+00 0.  1.
</event>
<event>
 5    1  0.1717518E-003  0.9118800E+02  0.7818608E-02  0.1130116E+00
         25   -1    0    0    0    0  0.00000000000E+00  0.00000000000E+00  0.99999998245E-14  0.12500000000E+03  0.12500000000E+03 0.  0.
        -11    1    3    3    0    0  0.54728398610E+02 -0.20840967127E+02 -0.92329658612E+01  0.59285674358E+02  0.51100000000E-03 0.  1.
         23    2    1    0    0    0  0.33724947834E+02  0.10939953636E+01  0.73622164920E+00  0.91249282162E+02  0.84778066388E+02 0.  0.
         11    1    3    3    0    0 -0.21003450776E+02  0.21934962490E+02  0.99691875104E+01  0.31963607804E+02  0.51100000000E-03 0. -1.
         22    1    1    0    0    0 -0.33724947834E+02 -0.10939953636E+01 -0.73622164920E+00  0.33750717838E+02  0.00000000000E+00 0.  1.
</event>
<event>
 5    1  0.1717518E-003  0.9118800E+02  0.7818608E-02  0.1130116E+00
         25   -1    0    0    0    0  0.00000000000E+00  0.00000000000E+00  0.99999998245E-14  0.12500000000E+03  0.12500000000E+03 0.  0.
        -11    1    3    3    0    0 -0.52552554722E+02  0.16770334679E+02 -0.21838283918E+02  0.59328962387E+02  0.51100000000E-03 0.  1.
         23    2    1    0    0    0 -0.32338882865E+02  0.95800448270E+01  0.17650228405E+01  0.91225810010E+02  0.84743451090E+02 0.  0.
         11    1    3    3    0    0  0.20213671858E+02 -0.71902898524E+01  0.23603306759E+02  0.31896847624E+02  0.51100000000E-03 0. -1.
         22    1    1    0    0    0  0.32338882865E+02 -0.95800448270E+01 -0.17650228405E+01  0.33774189990E+02  0.00000000000E+00 0.  1.
</event>
<event>
 5    1  0.1717518E-003  0.9118800E+02  0.7818608E-02  0.1130116E+00
         25   -1    0    0    0    0  0.00000000000E+00  0.00000000000E+00  0.99999998245E-14  0.12500000000E+03  0.12500000000E+03 0.  0.
        -11    1    3    3    0    0 -0.33041615610E+02 -0.19217569685E+02  0.10161294469E+02  0.39551425414E+02  0.51100000000E-03 0.  1.
         23    2    1    0    0    0 -0.70042218578E+01  0.22274061790E+00 -0.31694566614E+02  0.92539958563E+02  0.86660196404E+02 0.  0.
         11    1    3    3    0    0  0.26037393752E+02  0.19440310303E+02 -0.41855861083E+02  0.52988533150E+02  0.51100000000E-03 0. -1.
         22    1    1    0    0    0  0.70042218578E+01 -0.22274061790E+00  0.31694566614E+02  0.32460041437E+02  0.00000000000E+00 0. -1.
</event>
<event>
 5    1  0.1717518E-003  0.9118800E+02  0.7818608E-02  0.1130116E+00
         25   -1    0    0    0    0  0.00000000000E+00  0.00000000000E+00  0.99999998245E-14  0.12500000000E+03  0.12500000000E+03 0.  0.
        -11    1    3    3    0    0  0.13149551954E+02  0.45063366319E+02 -0.19415064851E+02  0.50799236648E+02  0.51100000000E-03 0. -1.
         23    2    1    0    0    0  0.29174981959E+02  0.84894647127E+01 -0.14632215812E+01  0.94579750152E+02  0.89554103970E+02 0.  0.
         11    1    3    3    0    0  0.16025430005E+02 -0.36573901606E+02  0.17951843270E+02  0.43780513504E+02  0.51100000000E-03 0.  1.
         22    1    1    0    0    0 -0.29174981959E+02 -0.84894647127E+01  0.14632215812E+01  0.30420249848E+02  0.00000000000E+00 0. -1.
</event>
<event>
 5    1  0.1717518E-003  0.9118800E+02  0.7818608E-02  0.1130116E+00
         25   -1    0    0    0    0  0.00000000000E+00  0.00000000000E+00  0.99999998245E-14  0.12500000000E+03  0.12500000000E+03 0.  0.
        -11    1    3    3    0    0  0.35317632239E+02 -0.42660965111E+02 -0.12089307077E+02  0.56687251097E+02  0.51100000000E-03 0. -1.
         23    2    1    0    0    0  0.16586622220E+01 -0.26104354419E+02 -0.15897772410E+02  0.94390726118E+02  0.89289873611E+02 0.  0.
         11    1    3    3    0    0 -0.33658970017E+02  0.16556610691E+02 -0.38084653328E+01  0.37703475020E+02  0.51100000000E-03 0.  1.
         22    1    1    0    0    0 -0.16586622220E+01  0.26104354419E+02  0.15897772410E+02  0.30609273882E+02  0.00000000000E+00 0. -1.
</event>
<event>
 5    1  0.1717518E-003  0.9118800E+02  0.7818608E-02  0.1130116E+00
         25   -1    0    0    0    0  0.00000000000E+00  0.00000000000E+00  0.99999998245E-14  0.12500000000E+03  0.12500000000E+03 0.  0.
        -11    1    3    3    0    0 -0.92038544201E+01  0.69693658807E+01  0.31704533508E+02  0.33741079446E+02  0.51100000000E-03 0.  1.
         23    2    1    0    0    0 -0.12334378673E+02 -0.17925833582E+02 -0.22640177338E+02  0.93598566326E+02  0.88173928015E+02 0.  0.
         11    1    3    3    0    0 -0.31305242533E+01 -0.24895199462E+02 -0.54344710846E+02  0.59857486880E+02  0.51100000000E-03 0. -1.
         22    1    1    0    0    0  0.12334378673E+02  0.17925833582E+02  0.22640177338E+02  0.31401433674E+02  0.00000000000E+00 0. -1.
</event>
<event>
 5    1  0.1717518E-003  0.9118800E+02  0.7818608E-02  0.1130116E+00
         25   -1    0    0    0    0  0.00000000000E+00  0.00000000000E+00  0.99999998245E-14  0.12500000000E+03  0.12500000000E+03 0.  0.
        -11    1    3    3    0    0 -0.41371272437E+02  0.15849669686E+02 -0.17642196161E+02  0.47686909083E+02  0.51100000000E-03 0.  1.
         23    2    1    0    0    0 -0.20967073303E+02 -0.14241773635E+02  0.14139214813E+02  0.95976497891E+02  0.91482919021E+02 0.  0.
         11    1    3    3    0    0  0.20404199134E+02 -0.30091443321E+02  0.31781410974E+02  0.48289588808E+02  0.51100000000E-03 0. -1.
         22    1    1    0    0    0  0.20967073303E+02  0.14241773635E+02 -0.14139214813E+02  0.29023502109E+02  0.00000000000E+00 0. -1.
</event>
<event>
 5    1  0.1717518E-003  0.9118800E+02  0.7818608E-02  0.1130116E+00
         25   -1    0    0    0    0  0.00000000000E+00  0.00000000000E+00  0.99999998245E-14  0.12500000000E+03  0.12500000000E+03 0.  0.
        -11    1    3    3    0    0 -0.49897284468E+01 -0.50786046448E+02 -0.26074896734E+02  0.57306370883E+02  0.51100000000E-03 0.  1.
         23    2    1    0    0    0 -0.10904623185E+02 -0.26602842830E+02  0.35808119008E+01  0.96026835394E+02  0.91551673105E+02 0.  0.
         11    1    3    3    0    0 -0.59148947385E+01  0.24183203618E+02  0.29655708635E+02  0.38720464511E+02  0.51100000000E-03 0. -1.
         22    1    1    0    0    0  0.10904623185E+02  0.26602842830E+02 -0.35808119008E+01  0.28973164606E+02  0.00000000000E+00 0.  1.
</event>
<event>
 5    1  0.1717518E-003  0.9118800E+02  0.7818608E-02  0.1130116E+00
         25   -1    0    0    0    0  0.00000000000E+00  0.00000000000E+00  0.99999998245E-14  0.12500000000E+03  0.12500000000E+03 0.  0.
        -11    1    3    3    0    0 -0.26397135179E+02  0.14897666760E+02 -0.38444515533E+02  0.48956409134E+02  0.51100000000E-03 0. -1.
         23    2    1    0    0    0 -0.14135478326E+02 -0.22263060931E+02 -0.13361843889E+02  0.95436601994E+02  0.90742220044E+02 0.  0.
         11    1    3    3    0    0  0.12261656853E+02 -0.37160727690E+02  0.25082671644E+02  0.46480192860E+02  0.51100000000E-03 0.  1.
         22    1    1    0    0    0  0.14135478326E+02  0.22263060931E+02  0.13361843889E+02  0.29563398006E+02  0.00000000000E+00 0. -1.
</event>
<event>
 5    1  0.1717518E-003  0.9118800E+02  0.7818608E-02  0.1130116E+00
         25   -1    0    0    0    0  0.00000000000E+00  0.00000000000E+00  0.99999998245E-14  0.12500000000E+03  0.12500000000E+03 0.  0.
        -11    1    3    3    0    0  0.42824954656E+01  0.10748477994E+02  0.38608366821E+02  0.40304783034E+02  0.51100000000E-03 0.  1.
         23    2    1    0    0    0  0.27525809266E+02 -0.75245468194E+01 -0.78779056988E+01  0.95396784317E+02  0.90687353469E+02 0.  0.
         11    1    3    3    0    0  0.23243313800E+02 -0.18273024813E+02 -0.46486272520E+02  0.55092001282E+02  0.51100000000E-03 0. -1.
         22    1    1    0    0    0 -0.27525809266E+02  0.75245468194E+01  0.78779056988E+01  0.29603215683E+02  0.00000000000E+00 0. -1.
</event>
<event>
 5    1  0.1717518E-003  0.9118800E+02  0.7818608E-02  0.1130116E+00
         25   -1    0    0    0    0  0.00000000000E+00  0.00000000000E+00  0.99999998245E-14  0.12500000000E+03  0.12500000000E+03 0.  0.
        -11    1    3    3    0    0  0.26987486732E+01  0.42150931167E+01  0.48990228848E+02  0.49245231010E+02  0.51100000000E-03 0. -1.
         23    2    1    0    0    0 -0.25376634759E+02 -0.55681219599E+01  0.12934702598E+02  0.95977868701E+02  0.91484792043E+02 0.  0.
         11    1    3    3    0    0 -0.28075383432E+02 -0.97832150766E+01 -0.36055526250E+02  0.46732637691E+02  0.51100000000E-03 0.  1.
         22    1    1    0    0    0  0.25376634759E+02  0.55681219599E+01 -0.12934702598E+02  0.29022131299E+02  0.00000000000E+00 0.  1.
</event>
<event>
 5    1  0.1717518E-003  0.9118800E+02  0.7818608E-02  0.1130116E+00
         25   -1    0    0    0    0  0.00000000000E+00  0.00000000000E+00  0.99999998245E-14  0.12500000000E+03  0.12500000000E+03 0.  0.
        -11    1    3    3    0    0  0.18736109117E+02  0.29802652683E+02 -0.21591283590E+02  0.41296772502E+02  0.51100000000E-03 0.  1.
         23    2    1    0    0    0 -0.12272634276E+02  0.16324429987E+02  0.21019635066E+02  0.95692498831E+02  0.91094043206E+02 0.  0.
         11    1    3    3    0    0 -0.31008743393E+02 -0.13478222695E+02  0.42610918656E+02  0.54395726328E+02  0.51100000000E-03 0. -1.
         22    1    1    0    0    0  0.12272634276E+02 -0.16324429987E+02 -0.21019635066E+02  0.29307501169E+02  0.00000000000E+00 0. -1.
</event>
<event>
 5    1  0.1717518E-003  0.9118800E+02  0.7818608E-02  0.1130116E+00
         25   -1    0    0    0    0  0.00000000000E+00  0.00000000000E+00  0.99999998245E-14  0.12500000000E+03  0.12500000000E+03 0.  0.
        -11    1    3    3    0    0  0.26828888950E+01 -0.80906368451E+01 -0.41341586593E+02  0.42211172450E+02  0.51100000000E-03 0. -1.
         23    2    1    0    0    0  0.27087162845E+02 -0.10841297753E+02  0.56950543495E+01  0.95273214570E+02  0.90516869380E+02 0.  0.
         11    1    3    3    0    0  0.24404273950E+02 -0.27506609083E+01  0.47036640942E+02  0.53062042119E+02  0.51100000000E-03 0.  1.
         22    1    1    0    0    0 -0.27087162845E+02  0.10841297753E+02 -0.56950543495E+01  0.29726785430E+02  0.00000000000E+00 0.  1.
</event>
<event>
 5    1  0.1717518E-003  0.9118800E+02  0.7818608E-02  0.1130116E+00
         25   -1    0    0    0    0  0.00000000000E+00  0.00000000000E+00  0.99999998245E-14  0.12500000000E+03  0.12500000000E+03 0.  0.
        -11    1    3    3    0    0 -0.30648114190E+02  0.34771316024E+02  0.23220303405E+02  0.51841429494E+02  0.51100000000E-03 0.  1.
         23    2    1    0    0    0 -0.24880103647E+02  0.17688533829E+02  0.38772326057E+02  0.75652284203E+02  0.57341704289E+02 0.  0.
         11    1    3    3    0    0  0.57680105428E+01 -0.17082782195E+02  0.15552022652E+02  0.23810854709E+02  0.51100000000E-03 0. -1.
         22    1    1    0    0    0  0.24880103647E+02 -0.17688533829E+02 -0.38772326057E+02  0.49347715797E+02  0.00000000000E+00 0.  1.
</event>
<event>
 5    1  0.1717518E-003  0.9118800E+02  0.7818608E-02  0.1130116E+00
         25   -1    0    0    0    0  0.00000000000E+00  0.00000000000E+00  0.99999998245E-14  0.12500000000E+03  0.12500000000E+03 0.  0.
        -11    1    3    3    0    0  0.35733701522E+02  0.56283267490E+01 -0.14903611713E+02  0.39124073520E+02  0.51100000000E-03 0.  1.
         23    2    1    0    0    0  0.36278248724E-01  0.27889540029E+01  0.29048668471E+02  0.95817732774E+02  0.91265728471E+02 0.  0.
         11    1    3    3    0    0 -0.35697423273E+02 -0.28393727461E+01  0.43952280184E+02  0.56693659254E+02  0.51100000000E-03 0. -1.
         22    1    1    0    0    0 -0.36278248724E-01 -0.27889540029E+01 -0.29048668471E+02  0.29182267226E+02  0.00000000000E+00 0. -1.
</event>
<event>
 5    1  0.1717518E-003  0.9118800E+02  0.7818608E-02  0.1130116E+00
         25   -1    0    0    0    0  0.00000000000E+00  0.00000000000E+00  0.99999998245E-14  0.12500000000E+03  0.12500000000E+03 0.  0.
        -11    1    3    3    0    0 -0.57283534342E+02 -0.12536283119E+02 -0.11677999839E+02  0.59790780072E+02  0.51100000000E-03 0.  1.
         23    2    1    0    0    0 -0.24982308672E+02 -0.11396407673E+02  0.63730699047E+01  0.96811174653E+02  0.92616379023E+02 0.  0.
         11    1    3    3    0    0  0.32301225670E+02  0.11398754466E+01  0.18051069744E+02  0.37020394581E+02  0.51100000000E-03 0. -1.
         22    1    1    0    0    0  0.24982308672E+02  0.11396407673E+02 -0.63730699047E+01  0.28188825347E+02  0.00000000000E+00 0.  1.
</event>
<event>
 5    1  0.1717518E-003  0.9118800E+02  0.7818608E-02  0.1130116E+00
         25   -1    0    0    0    0  0.00000000000E+00  0.00000000000E+00  0.99999998245E-14  0.12500000000E+03  0.12500000000E+03 0.  0.
        -11    1    3    3    0    0 -0.24520548490E+02  0.24697186983E+02  0.51869126079E+01  0.35186821479E+02  0.51100000000E-03 0. -1.
         23    2    1    0    0    0  0.13739135532E+01 -0.29165128287E+02 -0.35573820376E+01  0.95586613364E+02  0.90948630232E+02 0.  0.
         11    1    3    3    0    0  0.25894462043E+02 -0.53862315270E+02 -0.87442946455E+01  0.60399791886E+02  0.51100000000E-03 0.  1.
         22    1    1    0    0    0 -0.13739135532E+01  0.29165128287E+02  0.35573820376E+01  0.29413386636E+02  0.00000000000E+00 0.  1.
</event>
<event>
 5    1  0.1717518E-003  0.9118800E+02  0.7818608E-02  0.1130116E+00
         25   -1    0    0    0    0  0.00000000000E+00  0.00000000000E+00  0.99999998245E-14  0.12500000000E+03  0.12500000000E+03 0.  0.
        -11    1    3    3    0    0 -0.62279307630E+01 -0.49000486928E+02  0.93266704471E+01  0.50267500660E+02  0.51100000000E-03 0. -1.
         23    2    1    0    0    0  0.14286188219E+02 -0.18274601206E+02 -0.17515424801E+02  0.95933759634E+02  0.91424503873E+02 0.  0.
         11    1    3    3    0    0  0.20514118982E+02  0.30725885722E+02 -0.26842095249E+02  0.45666258973E+02  0.51100000000E-03 0.  1.
         22    1    1    0    0    0 -0.14286188219E+02  0.18274601206E+02  0.17515424801E+02  0.29066240366E+02  0.00000000000E+00 0.  1.
</event>
<event>
 5    1  0.1717518E-003  0.9118800E+02  0.7818608E-02  0.1130116E+00
         25   -1    0    0    0    0  0.00000000000E+00  0.00000000000E+00  0.99999998245E-14  0.12500000000E+03  0.12500000000E+03 0.  0.
        -11    1    3    3    0    0  0.60451042937E+02 -0.37551535885E+01  0.13339867062E+02  0.62019205285E+02  0.51100000000E-03 0.  1.
         23    2    1    0    0    0  0.28585209177E+02  0.16753520394E+01  0.19234831334E+01  0.96301206027E+02  0.91925521520E+02 0.  0.
         11    1    3    3    0    0 -0.31865833760E+02  0.54305056279E+01 -0.11416383929E+02  0.34282000742E+02  0.51100000000E-03 0. -1.
         22    1    1    0    0    0 -0.28585209177E+02 -0.16753520394E+01 -0.19234831334E+01  0.28698793973E+02  0.00000000000E+00 0.  1.
</event>
<event>
 5    1  0.1717518E-003  0.9118800E+02  0.7818608E-02  0.1130116E+00
         25   -1    0    0    0    0  0.00000000000E+00  0.00000000000E+00  0.99999998245E-14  0.12500000000E+03  0.12500000000E+03 0.  0.
        -11    1    3    3    0    0 -0.14913483123E+02 -0.51030657274E+02 -0.31520146148E+02  0.61806630503E+02  0.51100000000E-03 0.  1.
         23    2    1    0    0    0 -0.12632209889E+02 -0.21185267370E+02 -0.16748529406E+02  0.95185548512E+02  0.90395725165E+02 0.  0.
         11    1    3    3    0    0  0.22812732338E+01  0.29845389904E+02  0.14771616742E+02  0.33378918009E+02  0.51100000000E-03 0. -1.
         22    1    1    0    0    0  0.12632209889E+02  0.21185267370E+02  0.16748529406E+02  0.29814451488E+02  0.00000000000E+00 0.  1.
</event>
<event>
 5    1  0.1717518E-003  0.9118800E+02  0.7818608E-02  0.1130116E+00
         25   -1    0    0    0    0  0.00000000000E+00  0.00000000000E+00  0.99999998245E-14  0.12500000000E+03  0.12500000000E+03 0.  0.
        -11    1    3    3    0    0 -0.15920582022E+02  0.45229223317E+02  0.38225059790E+02  0.61321307634E+02  0.51100000000E-03 0. -1.
         23    2    1    0    0    0 -0.37885870478E+01  0.18365110159E+02  0.25303327376E+02  0.93505730057E+02  0.88042220066E+02 0.  0.
         11    1    3    3    0    0  0.12131994975E+02 -0.26864113158E+02 -0.12921732414E+02  0.32184422423E+02  0.51100000000E-03 0.  1.
         22    1    1    0    0    0  0.37885870478E+01 -0.18365110159E+02 -0.25303327376E+02  0.31494269943E+02  0.00000000000E+00 0. -1.
</event>
<event>
 5    1  0.1717518E-003  0.9118800E+02  0.7818608E-02  0.1130116E+00
         25   -1    0    0    0    0  0.00000000000E+00  0.00000000000E+00  0.99999998245E-14  0.12500000000E+03  0.12500000000E+03 0.  0.
        -11    1    3    3    0    0  0.54849688814E+01  0.10337278776E+02  0.44849760327E+02  0.46351323797E+02  0.51100000000E-03 0.  1.
         23    2    1    0    0    0 -0.19038190594E+02  0.21644767168E+02  0.31900384451E+01  0.95997845044E+02  0.91512082596E+02 0.  0.
         11    1    3    3    0    0 -0.24523159475E+02  0.11307488392E+02 -0.41659721882E+02  0.49646521247E+02  0.51100000000E-03 0. -1.
         22    1    1    0    0    0  0.19038190594E+02 -0.21644767168E+02 -0.31900384451E+01  0.29002154956E+02  0.00000000000E+00 0. -1.
</event>
<event>
 5    1  0.1717518E-003  0.9118800E+02  0.7818608E-02  0.1130116E+00
         25   -1    0    0    0    0  0.00000000000E+00  0.00000000000E+00  0.99999998245E-14  0.12500000000E+03  0.12500000000E+03 0.  0.
        -11    1    3    3    0    0 -0.40176015161E-01  0.25886050904E+02 -0.37455664715E+02  0.45530386172E+02  0.51100000000E-03 0.  1.
         23    2    1    0    0    0 -0.26937563420E+02  0.10536706229E+02  0.23678969641E+01  0.95978259232E+02  0.91485325643E+02 0.  0.
         11    1    3    3    0    0 -0.26897387405E+02 -0.15349344674E+02  0.39823561679E+02  0.50447873060E+02  0.51100000000E-03 0. -1.
         22    1    1    0    0    0  0.26937563420E+02 -0.10536706229E+02 -0.23678969641E+01  0.29021740768E+02  0.00000000000E+00 0.  1.
</event>
<event>
 5    1  0.1717518E-003  0.9118800E+02  0.7818608E-02  0.1130116E+00
         25   -1    0    0    0    0  0.00000000000E+00  0.00000000000E+00  0.99999998245E-14  0.12500000000E+03  0.12500000000E+03 0.  0.
        -11    1    3    3    0    0  0.29904182318E+02  0.17713046702E+02 -0.85292614158E+01  0.35787713591E+02  0.51100000000E-03 0. -1.
         23    2    1    0    0    0 -0.12284606078E+02 -0.23481979412E+02 -0.14038721754E+02  0.95009991463E+02  0.90152636488E+02 0.  0.
         11    1    3    3    0    0 -0.42188788396E+02 -0.41195026114E+02 -0.55094603379E+01  0.59222277871E+02  0.51100000000E-03 0.  1.
         22    1    1    0    0    0  0.12284606078E+02  0.23481979412E+02  0.14038721754E+02  0.29990008537E+02  0.00000000000E+00 0.  1.
</event>
<event>
 5    1  0.1717518E-003  0.9118800E+02  0.7818608E-02  0.1130116E+00
         25   -1    0    0    0    0  0.00000000000E+00  0.00000000000E+00  0.99999998245E-14  0.12500000000E+03  0.12500000000E+03 0.  0.
        -11    1    3    3    0    0 -0.12063802609E+02 -0.90170124309E+01 -0.36952445359E+02  0.39903947986E+02  0.51100000000E-03 0.  1.
         23    2    1    0    0    0  0.23446056742E+02  0.16514953339E+02 -0.13654465150E+01  0.96288927140E+02  0.91908823217E+02 0.  0.
         11    1    3    3    0    0  0.35509859352E+02  0.25531965770E+02  0.35586998844E+02  0.56384979155E+02  0.51100000000E-03 0. -1.
         22    1    1    0    0    0 -0.23446056742E+02 -0.16514953339E+02  0.13654465150E+01  0.28711072860E+02  0.00000000000E+00 0. -1.
</event>
<event>
 5    1  0.1717518E-003  0.9118800E+02  0.7818608E-02  0.1130116E+00
         25   -1    0    0    0    0  0.00000000000E+00  0.00000000000E+00  0.99999998245E-14  0.12500000000E+03  0.12500000000E+03 0.  0.
        -11    1    3    3    0    0  0.31696066480E+00  0.22113039493E+02 -0.29933885888E+02  0.37217260838E+02  0.51100000000E-03 0.  1.
         23    2    1    0    0    0  0.33239486243E+01 -0.27267948890E+02  0.40440434501E+01  0.97234122406E+02  0.93185463467E+02 0.  0.
         11    1    3    3    0    0  0.30069879595E+01 -0.49380988383E+02  0.33977929338E+02  0.60016861569E+02  0.51100000000E-03 0. -1.
         22    1    1    0    0    0 -0.33239486243E+01  0.27267948890E+02 -0.40440434501E+01  0.27765877594E+02  0.00000000000E+00 0. -1.
</event>
<event>
 5    1  0.1717518E-003  0.9118800E+02  0.7818608E-02  0.1130116E+00
         25   -1    0    0    0    0  0.00000000000E+00  0.00000000000E+00  0.99999998245E-14  0.12500000000E+03  0.12500000000E+03 0.  0.
        -11    1    3    3    0    0  0.15502978715E+02  0.39732480662E+02  0.14973936094E+02  0.45202114232E+02  0.51100000000E-03 0.  1.
         23    2    1    0    0    0  0.27812578038E+02 -0.41163915637E+01 -0.73739405639E+01  0.95933538639E+02  0.91424201717E+02 0.  0.
         11    1    3    3    0    0  0.12309599323E+02 -0.43848872226E+02 -0.22347876658E+02  0.50731424407E+02  0.51100000000E-03 0. -1.
         22    1    1    0    0    0 -0.27812578038E+02  0.41163915637E+01  0.73739405639E+01  0.29066461361E+02  0.00000000000E+00 0.  1.
</event>
<event>
 5    1  0.1717518E-003  0.9118800E+02  0.7818608E-02  0.1130116E+00
         25   -1    0    0    0    0  0.00000000000E+00  0.00000000000E+00  0.99999998245E-14  0.12500000000E+03  0.12500000000E+03 0.  0.
        -11    1    3    3    0    0 -0.40424758859E+01  0.33539658169E+02  0.84227333225E+01  0.34816558105E+02  0.51100000000E-03 0.  1.
         23    2    1    0    0    0 -0.86300739677E+01 -0.25486998618E+02  0.14674290832E+02  0.94350365636E+02  0.89233353680E+02 0.  0.
         11    1    3    3    0    0 -0.45875980818E+01 -0.59026656787E+02  0.62515575096E+01  0.59533807531E+02  0.51100000000E-03 0. -1.
         22    1    1    0    0    0  0.86300739677E+01  0.25486998618E+02 -0.14674290832E+02  0.30649634364E+02  0.00000000000E+00 0. -1.
</event>
<event>
 5    1  0.1717518E-003  0.9118800E+02  0.7818608E-02  0.1130116E+00
         25   -1    0    0    0    0  0.00000000000E+00  0.00000000000E+00  0.99999998245E-14  0.12500000000E+03  0.12500000000E+03 0.  0.
        -11    1    3    3    0    0  0.26213501763E+02 -0.19139579930E+02  0.10491873965E+02  0.34110857717E+02  0.51100000000E-03 0. -1.
         23    2    1    0    0    0 -0.24732937103E+02  0.14990269388E+02  0.21251395190E+01  0.96000990154E+02  0.91516378526E+02 0.  0.
         11    1    3    3    0    0 -0.50946438866E+02  0.34129849318E+02 -0.83667344463E+01  0.61890132438E+02  0.51100000000E-03 0.  1.
         22    1    1    0    0    0  0.24732937103E+02 -0.14990269388E+02 -0.21251395190E+01  0.28999009846E+02  0.00000000000E+00 0.  1.
</event>
<event>
 5    1  0.1717518E-003  0.9118800E+02  0.7818608E-02  0.1130116E+00
         25   -1    0    0    0    0  0.00000000000E+00  0.00000000000E+00  0.99999998245E-14  0.12500000000E+03  0.12500000000E+03 0.  0.
        -11    1    3    3    0    0  0.21901780340E+02  0.10611978817E+02 -0.37583863420E+02  0.44775538705E+02  0.51100000000E-03 0. -1.
         23    2    1    0    0    0  0.19734135364E+02 -0.21110828426E+02  0.25624709024E+01  0.95988460356E+02  0.91499262778E+02 0.  0.
         11    1    3    3    0    0 -0.21676449758E+01 -0.31722807244E+02  0.40146334323E+02  0.51212921650E+02  0.51100000000E-03 0.  1.
         22    1    1    0    0    0 -0.19734135364E+02  0.21110828426E+02 -0.25624709024E+01  0.29011539644E+02  0.00000000000E+00 0.  1.
</event>
<event>
 5    1  0.1717518E-003  0.9118800E+02  0.7818608E-02  0.1130116E+00
         25   -1    0    0    0    0  0.00000000000E+00  0.00000000000E+00  0.99999998245E-14  0.12500000000E+03  0.12500000000E+03 0.  0.
        -11    1    3    3    0    0 -0.34874265745E+02 -0.27305487442E+02 -0.33122380188E+02  0.55307288175E+02  0.51100000000E-03 0.  1.
         23    2    1    0    0    0 -0.23759323295E+02  0.71233959521E+01 -0.17085203359E+02  0.94881029447E+02  0.89973648152E+02 0.  0.
         11    1    3    3    0    0  0.11114942450E+02  0.34428883394E+02  0.16037176829E+02  0.39573741272E+02  0.51100000000E-03 0. -1.
         22    1    1    0    0    0  0.23759323295E+02 -0.71233959521E+01  0.17085203359E+02  0.30118970553E+02  0.00000000000E+00 0.  1.
</event>
<event>
 5    1  0.1717518E-003  0.9118800E+02  0.7818608E-02  0.1130116E+00
         25   -1    0    0    0    0  0.00000000000E+00  0.00000000000E+00  0.99999998245E-14  0.12500000000E+03  0.12500000000E+03 0.  0.
        -11    1    3    3    0    0  0.45618289318E+02 -0.21757341098E+02 -0.11587097663E+02  0.51852396709E+02  0.51100000000E-03 0. -1.
         23    2    1    0    0    0  0.60874922157E+00 -0.26479472385E+02 -0.22875005683E+00  0.98512543346E+02  0.94884855675E+02 0.  0.
         11    1    3    3    0    0 -0.45009540096E+02 -0.47221312872E+01  0.11358347607E+02  0.46660146637E+02  0.51100000000E-03 0.  1.
         22    1    1    0    0    0 -0.60874922157E+00  0.26479472385E+02  0.22875005683E+00  0.26487456654E+02  0.00000000000E+00 0. -1.
</event>
<event>
 5    1  0.1717518E-003  0.9118800E+02  0.7818608E-02  0.1130116E+00
         25   -1    0    0    0    0  0.00000000000E+00  0.00000000000E+00  0.99999998245E-14  0.12500000000E+03  0.12500000000E+03 0.  0.
        -11    1    3    3    0    0 -0.17152335466E+02  0.16357230386E+02 -0.29828807528E+02  0.38098810436E+02  0.51100000000E-03 0. -1.
         23    2    1    0    0    0  0.22352313951E+00  0.14460348353E+02  0.25259379815E+02  0.95893507499E+02  0.91369452635E+02 0.  0.
         11    1    3    3    0    0  0.17375858605E+02 -0.18968820337E+01  0.55088187342E+02  0.57794697063E+02  0.51100000000E-03 0.  1.
         22    1    1    0    0    0 -0.22352313951E+00 -0.14460348353E+02 -0.25259379815E+02  0.29106492501E+02  0.00000000000E+00 0.  1.
</event>
<event>
 5    1  0.1717518E-003  0.9118800E+02  0.7818608E-02  0.1130116E+00
         25   -1    0    0    0    0  0.00000000000E+00  0.00000000000E+00  0.99999998245E-14  0.12500000000E+03  0.12500000000E+03 0.  0.
        -11    1    3    3    0    0  0.41867750128E+02 -0.49335287222E+01  0.71032034212E+00  0.42163405481E+02  0.51100000000E-03 0.  1.
         23    2    1    0    0    0 -0.74729073109E+01 -0.27023818769E+02  0.54730920577E+01  0.96432783454E+02  0.92104266261E+02 0.  0.
         11    1    3    3    0    0 -0.49340657439E+02 -0.22090290047E+02  0.47627717156E+01  0.54269377973E+02  0.51100000000E-03 0. -1.
         22    1    1    0    0    0  0.74729073109E+01  0.27023818769E+02 -0.54730920577E+01  0.28567216546E+02  0.00000000000E+00 0. -1.
</event>
<event>
 5    1  0.1717518E-003  0.9118800E+02  0.7818608E-02  0.1130116E+00
         25   -1    0    0    0    0  0.00000000000E+00  0.00000000000E+00  0.99999998245E-14  0.12500000000E+03  0.12500000000E+03 0.  0.
        -11    1    3    3    0    0 -0.23258494752E+02 -0.12260280701E+02 -0.39382060088E+02  0.47352071951E+02  0.51100000000E-03 0. -1.
         23    2    1    0    0    0 -0.41055261760E+02  0.58710365812E+01 -0.23100915378E+02  0.77527314380E+02  0.61292973454E+02 0.  0.
         11    1    3    3    0    0 -0.17796767008E+02  0.18131317282E+02  0.16281144710E+02  0.30175242429E+02  0.51100000000E-03 0.  1.
         22    1    1    0    0    0  0.41055261760E+02 -0.58710365812E+01  0.23100915378E+02  0.47472685620E+02  0.00000000000E+00 0. -1.
</event>
<event>
 5    1  0.1717518E-003  0.9118800E+02  0.7818608E-02  0.1130116E+00
         25   -1    0    0    0    0  0.00000000000E+00  0.00000000000E+00  0.99999998245E-14  0.12500000000E+03  0.12500000000E+03 0.  0.
        -11    1    3    3    0    0 -0.14051718854E+02 -0.32421322580E+02 -0.39060442781E+01  0.35550670074E+02  0.51100000000E-03 0.  1.
         23    2    1    0    0    0  0.25944837582E+02  0.12213251516E+02 -0.67114425960E+01  0.95549336655E+02  0.90897382601E+02 0.  0.
         11    1    3    3    0    0  0.39996556435E+02  0.44634574096E+02 -0.28053983179E+01  0.59998666580E+02  0.51100000000E-03 0. -1.
         22    1    1    0    0    0 -0.25944837582E+02 -0.12213251516E+02  0.67114425960E+01  0.29450663345E+02  0.00000000000E+00 0. -1.
</event>
<event>
 5    1  0.1717518E-003  0.9118800E+02  0.7818608E-02  0.1130116E+00
         25   -1    0    0    0    0  0.00000000000E+00  0.00000000000E+00  0.99999998245E-14  0.12500000000E+03  0.12500000000E+03 0.  0.
        -11    1    3    3    0    0 -0.22522850069E+02 -0.15903399675E+02 -0.26152362396E+02  0.38001880948E+02  0.51100000000E-03 0. -1.
         23    2    1    0    0    0 -0.12000735868E+02  0.12291293039E+02  0.23396806516E+02  0.95974078807E+02  0.91479613586E+02 0.  0.
         11    1    3    3    0    0  0.10522114201E+02  0.28194692715E+02  0.49549168912E+02  0.57972197859E+02  0.51100000000E-03 0.  1.
         22    1    1    0    0    0  0.12000735868E+02 -0.12291293039E+02 -0.23396806516E+02  0.29025921193E+02  0.00000000000E+00 0.  1.
</event>
<event>
 5    1  0.1717518E-003  0.9118800E+02  0.7818608E-02  0.1130116E+00
         25   -1    0    0    0    0  0.00000000000E+00  0.00000000000E+00  0.99999998245E-14  0.12500000000E+03  0.12500000000E+03 0.  0.
        -11    1    3    3    0    0 -0.40394639753E+02  0.38335260003E+02 -0.12900244096E+02  0.57164109180E+02  0.51100000000E-03 0. -1.
         23    2    1    0    0    0 -0.17815265715E+02  0.83354907721E+01 -0.21683041736E+02  0.95725123436E+02  0.91138799965E+02 0.  0.
         11    1    3    3    0    0  0.22579374038E+02 -0.29999769231E+02 -0.87827976395E+01  0.38561014257E+02  0.51100000000E-03 0.  1.
         22    1    1    0    0    0  0.17815265715E+02 -0.83354907721E+01  0.21683041736E+02  0.29274876564E+02  0.00000000000E+00 0. -1.
</event>
<event>
 5    1  0.1717518E-003  0.9118800E+02  0.7818608E-02  0.1130116E+00
         25   -1    0    0    0    0  0.00000000000E+00  0.00000000000E+00  0.99999998245E-14  0.12500000000E+03  0.12500000000E+03 0.  0.
        -11    1    3    3    0    0 -0.17824398524E+02  0.13072473738E+02  0.39507259534E+02  0.45270545706E+02  0.51100000000E-03 0. -1.
         23    2    1    0    0    0  0.13692288510E+02 -0.18329949127E+02  0.49852607529E+01  0.10158379569E+03  0.98848110361E+02 0.  0.
         11    1    3    3    0    0  0.31516687034E+02 -0.31402422865E+02 -0.34521998781E+02  0.56313249982E+02  0.51100000000E-03 0.  1.
         22    1    1    0    0    0 -0.13692288510E+02  0.18329949127E+02 -0.49852607529E+01  0.23416204312E+02  0.00000000000E+00 0.  1.
</event>
<event>
 5    1  0.1717518E-003  0.9118800E+02  0.7818608E-02  0.1130116E+00
         25   -1    0    0    0    0  0.00000000000E+00  0.00000000000E+00  0.99999998245E-14  0.12500000000E+03  0.12500000000E+03 0.  0.
        -11    1    3    3    0    0 -0.27339774158E+02  0.46094874733E+01 -0.22082071859E+02  0.35444724905E+02  0.51100000000E-03 0.  1.
         23    2    1    0    0    0 -0.17121617924E+02  0.22313270938E+01  0.30979604959E+02  0.89533613880E+02  0.82209509609E+02 0.  0.
         11    1    3    3    0    0  0.10218156233E+02 -0.23781603795E+01  0.53061676818E+02  0.54088888975E+02  0.51100000000E-03 0. -1.
         22    1    1    0    0    0  0.17121617924E+02 -0.22313270938E+01 -0.30979604959E+02  0.35466386120E+02  0.00000000000E+00 0. -1.
</event>
<event>
 5    1  0.1717518E-003  0.9118800E+02  0.7818608E-02  0.1130116E+00
         25   -1    0    0    0    0  0.00000000000E+00  0.00000000000E+00  0.99999998245E-14  0.12500000000E+03  0.12500000000E+03 0.  0.
        -11    1    3    3    0    0  0.10959095883E+02  0.47345680614E+02  0.14273158641E+02  0.50650156103E+02  0.51100000000E-03 0.  1.
         23    2    1    0    0    0  0.35196407835E+01  0.20810643039E+02 -0.20875342865E+02  0.95314133419E+02  0.90573358968E+02 0.  0.
         11    1    3    3    0    0 -0.74394550997E+01 -0.26535037576E+02 -0.35148501506E+02  0.44663977316E+02  0.51100000000E-03 0. -1.
         22    1    1    0    0    0 -0.35196407835E+01 -0.20810643039E+02  0.20875342865E+02  0.29685866581E+02  0.00000000000E+00 0.  1.
</event>
<event>
 5    1  0.1717518E-003  0.9118800E+02  0.7818608E-02  0.1130116E+00
         25   -1    0    0    0    0  0.00000000000E+00  0.00000000000E+00  0.99999998245E-14  0.12500000000E+03  0.12500000000E+03 0.  0.
        -11    1    3    3    0    0 -0.27302457965E+02 -0.47195176320E+02  0.10784400031E+02  0.55579781963E+02  0.51100000000E-03 0. -1.
         23    2    1    0    0    0 -0.53059641537E+01 -0.25847196025E+02 -0.14119192573E+02  0.95073717290E+02  0.90240951471E+02 0.  0.
         11    1    3    3    0    0  0.21996493812E+02  0.21347980295E+02 -0.24903592604E+02  0.39493935326E+02  0.51100000000E-03 0.  1.
         22    1    1    0    0    0  0.53059641537E+01  0.25847196025E+02  0.14119192573E+02  0.29926282710E+02  0.00000000000E+00 0. -1.
</event>
<event>
 5    1  0.1717518E-003  0.9118800E+02  0.7818608E-02  0.1130116E+00
         25   -1    0    0    0    0  0.00000000000E+00  0.00000000000E+00  0.99999998245E-14  0.12500000000E+03  0.12500000000E+03 0.  0.
        -11    1    3    3    0    0 -0.93277145550E+01  0.29225173882E+02  0.37216429790E+02  0.48230485108E+02  0.51100000000E-03 0.  1.
         23    2    1    0    0    0  0.15096771265E+02  0.30525719223E+02  0.22919204397E+01  0.90868124341E+02  0.84214197647E+02 0.  0.
         11    1    3    3    0    0  0.24424485820E+02  0.13005453413E+01 -0.34924509350E+02  0.42637639233E+02  0.51100000000E-03 0. -1.
         22    1    1    0    0    0 -0.15096771265E+02 -0.30525719223E+02 -0.22919204397E+01  0.34131875659E+02  0.00000000000E+00 0.  1.
</event>
<event>
 5    1  0.1717518E-003  0.9118800E+02  0.7818608E-02  0.1130116E+00
         25   -1    0    0    0    0  0.00000000000E+00  0.00000000000E+00  0.99999998245E-14  0.12500000000E+03  0.12500000000E+03 0.  0.
        -11    1    3    3    0    0  0.82594659224E+01 -0.16706259036E+02  0.43429651947E+02  0.47259417440E+02  0.51100000000E-03 0. -1.
         23    2    1    0    0    0  0.10246788874E+02 -0.27336491640E+02 -0.36624736298E+01  0.95577318774E+02  0.90935854829E+02 0.  0.
         11    1    3    3    0    0  0.19873229519E+01 -0.10630232604E+02 -0.47092125577E+02  0.48317901334E+02  0.51100000000E-03 0.  1.
         22    1    1    0    0    0 -0.10246788874E+02  0.27336491640E+02  0.36624736298E+01  0.29422681226E+02  0.00000000000E+00 0.  1.
</event>
<event>
 5    1  0.1717518E-003  0.9118800E+02  0.7818608E-02  0.1130116E+00
         25   -1    0    0    0    0  0.00000000000E+00  0.00000000000E+00  0.99999998245E-14  0.12500000000E+03  0.12500000000E+03 0.  0.
        -11    1    3    3    0    0 -0.14796024671E+02 -0.50136579910E+02 -0.39196324349E+01  0.52421012103E+02  0.51100000000E-03 0. -1.
         23    2    1    0    0    0 -0.20303121205E+02 -0.15848286351E+02 -0.21595420726E+02  0.91388289136E+02  0.84982776395E+02 0.  0.
         11    1    3    3    0    0 -0.55070965332E+01  0.34288293559E+02 -0.17675788291E+02  0.38967277033E+02  0.51100000000E-03 0.  1.
         22    1    1    0    0    0  0.20303121205E+02  0.15848286351E+02  0.21595420726E+02  0.33611710864E+02  0.00000000000E+00 0. -1.
</event>
<event>
 5    1  0.1717518E-003  0.9118800E+02  0.7818608E-02  0.1130116E+00
         25   -1    0    0    0    0  0.00000000000E+00  0.00000000000E+00  0.99999998245E-14  0.12500000000E+03  0.12500000000E+03 0.  0.
        -11    1    3    3    0    0 -0.27164361260E+02 -0.44193173051E+02  0.11461362707E+02  0.53125341433E+02  0.51100000000E-03 0.  1.
         23    2    1    0    0    0  0.86909871991E+01 -0.22696291507E+02  0.17063204027E+02  0.95304750576E+02  0.90560408811E+02 0.  0.
         11    1    3    3    0    0  0.35855348459E+02  0.21496881544E+02  0.56018413204E+01  0.42179409143E+02  0.51100000000E-03 0. -1.
         22    1    1    0    0    0 -0.86909871991E+01  0.22696291507E+02 -0.17063204027E+02  0.29695249424E+02  0.00000000000E+00 0.  1.
</event>
<event>
 5    1  0.1717518E-003  0.9118800E+02  0.7818608E-02  0.1130116E+00
         25   -1    0    0    0    0  0.00000000000E+00  0.00000000000E+00  0.99999998245E-14  0.12500000000E+03  0.12500000000E+03 0.  0.
        -11    1    3    3    0    0  0.41901939215E+02  0.48532608419E+01 -0.43032259723E+02  0.60258626170E+02  0.51100000000E-03 0. -1.
         23    2    1    0    0    0  0.98190503098E+01  0.25791557840E+00 -0.26698117712E+02  0.96552332982E+02  0.92266371151E+02 0.  0.
         11    1    3    3    0    0 -0.32082888905E+02 -0.45953452635E+01  0.16334142011E+02  0.36293706811E+02  0.51100000000E-03 0.  1.
         22    1    1    0    0    0 -0.98190503098E+01 -0.25791557840E+00  0.26698117712E+02  0.28447667018E+02  0.00000000000E+00 0. -1.
</event>
<event>
 5    1  0.1717518E-003  0.9118800E+02  0.7818608E-02  0.1130116E+00
         25   -1    0    0    0    0  0.00000000000E+00  0.00000000000E+00  0.99999998245E-14  0.12500000000E+03  0.12500000000E+03 0.  0.
        -11    1    3    3    0    0 -0.40741078271E+02 -0.33650521019E+02  0.30308093699E+01  0.52928053329E+02  0.51100000000E-03 0. -1.
         23    2    1    0    0    0 -0.14352132545E+02 -0.77836945619E+01  0.24420353792E+02  0.95624444024E+02  0.91000609921E+02 0.  0.
         11    1    3    3    0    0  0.26388945726E+02  0.25866826457E+02  0.21389544422E+02  0.42696390694E+02  0.51100000000E-03 0.  1.
         22    1    1    0    0    0  0.14352132545E+02  0.77836945619E+01 -0.24420353792E+02  0.29375555976E+02  0.00000000000E+00 0. -1.
</event>
<event>
 5    1  0.1717518E-003  0.9118800E+02  0.7818608E-02  0.1130116E+00
         25   -1    0    0    0    0  0.00000000000E+00  0.00000000000E+00  0.99999998245E-14  0.12500000000E+03  0.12500000000E+03 0.  0.
        -11    1    3    3    0    0  0.34155509365E+02 -0.32821246046E+01 -0.19249413407E+02  0.39343501099E+02  0.51100000000E-03 0.  1.
         23    2    1    0    0    0 -0.18511616744E+02  0.16617224812E+02 -0.15327702351E+02  0.95780989505E+02  0.91215390019E+02 0.  0.
         11    1    3    3    0    0 -0.52667126109E+02  0.19899349416E+02  0.39217110560E+01  0.56437488407E+02  0.51100000000E-03 0. -1.
         22    1    1    0    0    0  0.18511616744E+02 -0.16617224812E+02  0.15327702351E+02  0.29219010495E+02  0.00000000000E+00 0. -1.
</event>
<event>
 5    1  0.1717518E-003  0.9118800E+02  0.7818608E-02  0.1130116E+00
         25   -1    0    0    0    0  0.00000000000E+00  0.00000000000E+00  0.99999998245E-14  0.12500000000E+03  0.12500000000E+03 0.  0.
        -11    1    3    3    0    0  0.27126190831E+02  0.33986679873E+02  0.74006660968E+01  0.44110027168E+02  0.51100000000E-03 0.  1.
         23    2    1    0    0    0 -0.12965536882E+02  0.67127094156E+01  0.25293309591E+02  0.95795255105E+02  0.91234937257E+02 0.  0.
         11    1    3    3    0    0 -0.40091727713E+02 -0.27273970457E+02  0.17892643494E+02  0.51685227938E+02  0.51100000000E-03 0. -1.
         22    1    1    0    0    0  0.12965536882E+02 -0.67127094156E+01 -0.25293309591E+02  0.29204744895E+02  0.00000000000E+00 0. -1.
</event>
<event>
 5    1  0.1717518E-003  0.9118800E+02  0.7818608E-02  0.1130116E+00
         25   -1    0    0    0    0  0.00000000000E+00  0.00000000000E+00  0.99999998245E-14  0.12500000000E+03  0.12500000000E+03 0.  0.
        -11    1    3    3    0    0 -0.36098750618E+02  0.21515417761E+02 -0.40545308637E+02  0.58394820407E+02  0.51100000000E-03 0. -1.
         23    2    1    0    0    0 -0.16808466820E+02 -0.55489232401E+01 -0.23000568539E+02  0.95976884056E+02  0.91483446666E+02 0.  0.
         11    1    3    3    0    0  0.19290283797E+02 -0.27064341001E+02  0.17544740098E+02  0.37582063649E+02  0.51100000000E-03 0.  1.
         22    1    1    0    0    0  0.16808466820E+02  0.55489232401E+01  0.23000568539E+02  0.29023115944E+02  0.00000000000E+00 0. -1.
</event>
<event>
 5    1  0.1717518E-003  0.9118800E+02  0.7818608E-02  0.1130116E+00
         25   -1    0    0    0    0  0.00000000000E+00  0.00000000000E+00  0.99999998245E-14  0.12500000000E+03  0.12500000000E+03 0.  0.
        -11    1    3    3    0    0  0.18979477813E+02  0.21977840872E+02 -0.50646820750E+02  0.58381045895E+02  0.51100000000E-03 0.  1.
         23    2    1    0    0    0 -0.17814375512E+01 -0.17970131581E+01 -0.27155243304E+02  0.97727119424E+02  0.93844444992E+02 0.  0.
         11    1    3    3    0    0 -0.20760915364E+02 -0.23774854030E+02  0.23491577446E+02  0.39346073528E+02  0.51100000000E-03 0. -1.
         22    1    1    0    0    0  0.17814375512E+01  0.17970131581E+01  0.27155243304E+02  0.27272880576E+02  0.00000000000E+00 0.  1.
</event>
<event>
 5    1  0.1717518E-003  0.9118800E+02  0.7818608E-02  0.1130116E+00
         25   -1    0    0    0    0  0.00000000000E+00  0.00000000000E+00  0.99999998245E-14  0.12500000000E+03  0.12500000000E+03 0.  0.
        -11    1    3    3    0    0 -0.38401064099E+02 -0.30052902918E+02  0.33203101680E+02  0.58993767969E+02  0.51100000000E-03 0.  1.
         23    2    1    0    0    0 -0.15155444491E+02 -0.39070447401E+01  0.25908178377E+02  0.94731432093E+02  0.89765572595E+02 0.  0.
         11    1    3    3    0    0  0.23245619608E+02  0.26145858178E+02 -0.72949233028E+01  0.35737664125E+02  0.51100000000E-03 0. -1.
         22    1    1    0    0    0  0.15155444491E+02  0.39070447401E+01 -0.25908178377E+02  0.30268567907E+02  0.00000000000E+00 0.  1.
</event>
<event>
 5    1  0.1717518E-003  0.9118800E+02  0.7818608E-02  0.1130116E+00
         25   -1    0    0    0    0  0.00000000000E+00  0.00000000000E+00  0.99999998245E-14  0.12500000000E+03  0.12500000000E+03 0.  0.
        -11    1    3    3    0    0 -0.41276549293E+01  0.40047206518E+01 -0.40793833496E+02  0.41197235032E+02  0.51100000000E-03 0.  1.
         23    2    1    0    0    0  0.86809019185E+00 -0.17538762345E+02  0.15436093318E+02  0.10161977883E+03  0.98893602961E+02 0.  0.
         11    1    3    3    0    0  0.49957451212E+01 -0.21543482997E+02  0.56229926814E+02  0.60422543795E+02  0.51100000000E-03 0. -1.
         22    1    1    0    0    0 -0.86809019185E+00  0.17538762345E+02 -0.15436093318E+02  0.23380221173E+02  0.00000000000E+00 0. -1.
</event>
<event>
 5    1  0.1717518E-003  0.9118800E+02  0.7818608E-02  0.1130116E+00
         25   -1    0    0    0    0  0.00000000000E+00  0.00000000000E+00  0.99999998245E-14  0.12500000000E+03  0.12500000000E+03 0.  0.
        -11    1    3    3    0    0  0.89815457193E+01 -0.39686721326E+02 -0.41633345597E+02  0.58215457389E+02  0.51100000000E-03 0. -1.
         23    2    1    0    0    0  0.18057937635E+01 -0.35495212174E+01 -0.26757014404E+02  0.97948238286E+02  0.94138512691E+02 0.  0.
         11    1    3    3    0    0 -0.71757519558E+01  0.36137200109E+02  0.14876331193E+02  0.39732780898E+02  0.51100000000E-03 0.  1.
         22    1    1    0    0    0 -0.18057937635E+01  0.35495212174E+01  0.26757014404E+02  0.27051761714E+02  0.00000000000E+00 0. -1.
</event>
<event>
 5    1  0.1717518E-003  0.9118800E+02  0.7818608E-02  0.1130116E+00
         25   -1    0    0    0    0  0.00000000000E+00  0.00000000000E+00  0.99999998245E-14  0.12500000000E+03  0.12500000000E+03 0.  0.
        -11    1    3    3    0    0  0.77362492979E+01  0.91916370373E+01 -0.19884543275E+02  0.23232107226E+02  0.51100000000E-03 0.  1.
         23    2    1    0    0    0  0.39516534611E+02 -0.87836976855E+00  0.24314396714E+02  0.78593988228E+02  0.63431041745E+02 0.  0.
         11    1    3    3    0    0  0.31780285313E+02 -0.10070006806E+02  0.44198939989E+02  0.55361881002E+02  0.51100000000E-03 0. -1.
         22    1    1    0    0    0 -0.39516534611E+02  0.87836976855E+00 -0.24314396714E+02  0.46406011772E+02  0.00000000000E+00 0. -1.
</event>
<event>
 5    1  0.1717518E-003  0.9118800E+02  0.7818608E-02  0.1130116E+00
         25   -1    0    0    0    0  0.00000000000E+00  0.00000000000E+00  0.99999998245E-14  0.12500000000E+03  0.12500000000E+03 0.  0.
        -11    1    3    3    0    0 -0.70442916145E+01 -0.27446768809E+02 -0.48611852382E+02  0.56267747020E+02  0.51100000000E-03 0.  1.
         23    2    1    0    0    0  0.11484279580E+02 -0.26097158266E+02 -0.20827184320E+02  0.89691049948E+02  0.82448544481E+02 0.  0.
         11    1    3    3    0    0  0.18528571195E+02  0.13496105436E+01  0.27784668061E+02  0.33423302929E+02  0.51100000000E-03 0. -1.
         22    1    1    0    0    0 -0.11484279580E+02  0.26097158266E+02  0.20827184320E+02  0.35308950052E+02  0.00000000000E+00 0.  1.
</event>
<event>
 5    1  0.1717518E-003  0.9118800E+02  0.7818608E-02  0.1130116E+00
         25   -1    0    0    0    0  0.00000000000E+00  0.00000000000E+00  0.99999998245E-14  0.12500000000E+03  0.12500000000E+03 0.  0.
        -11    1    3    3    0    0  0.76324928551E+01  0.22289453923E+02 -0.36352694816E+02  0.43319662095E+02  0.51100000000E-03 0.  1.
         23    2    1    0    0    0 -0.18557309055E+02 -0.17329135394E+02 -0.15995018364E+02  0.94991446797E+02  0.90126919948E+02 0.  0.
         11    1    3    3    0    0 -0.26189801910E+02 -0.39618589317E+02  0.20357676452E+02  0.51671784702E+02  0.51100000000E-03 0. -1.
         22    1    1    0    0    0  0.18557309055E+02  0.17329135394E+02  0.15995018364E+02  0.30008553203E+02  0.00000000000E+00 0. -1.
</event>
<event>
 5    1  0.1717518E-003  0.9118800E+02  0.7818608E-02  0.1130116E+00
         25   -1    0    0    0    0  0.00000000000E+00  0.00000000000E+00  0.99999998245E-14  0.12500000000E+03  0.12500000000E+03 0.  0.
        -11    1    3    3    0    0 -0.13395861329E+02  0.27347676594E+01  0.45068437162E+02  0.47096624968E+02  0.51100000000E-03 0.  1.
         23    2    1    0    0    0 -0.81410926113E+01  0.27883260777E+02  0.38051983938E+01  0.95704383343E+02  0.91110349774E+02 0.  0.
         11    1    3    3    0    0  0.52547687177E+01  0.25148493118E+02 -0.41263238768E+02  0.48607758375E+02  0.51100000000E-03 0. -1.
         22    1    1    0    0    0  0.81410926113E+01 -0.27883260777E+02 -0.38051983938E+01  0.29295616657E+02  0.00000000000E+00 0. -1.
</event>
<event>
 5    1  0.1717518E-003  0.9118800E+02  0.7818608E-02  0.1130116E+00
         25   -1    0    0    0    0  0.00000000000E+00  0.00000000000E+00  0.99999998245E-14  0.12500000000E+03  0.12500000000E+03 0.  0.
        -11    1    3    3    0    0  0.30295134136E+01  0.43282368423E+02  0.16905067305E+02  0.46565251730E+02  0.51100000000E-03 0.  1.
         23    2    1    0    0    0 -0.17416371246E+02 -0.88769751817E+00  0.23557076908E+02  0.95690379281E+02  0.91091134696E+02 0.  0.
         11    1    3    3    0    0 -0.20445884660E+02 -0.44170065942E+02  0.66520096025E+01  0.49125127550E+02  0.51100000000E-03 0. -1.
         22    1    1    0    0    0  0.17416371246E+02  0.88769751817E+00 -0.23557076908E+02  0.29309620719E+02  0.00000000000E+00 0. -1.
</event>
<event>
 5    1  0.1717518E-003  0.9118800E+02  0.7818608E-02  0.1130116E+00
         25   -1    0    0    0    0  0.00000000000E+00  0.00000000000E+00  0.99999998245E-14  0.12500000000E+03  0.12500000000E+03 0.  0.
        -11    1    3    3    0    0 -0.25272711030E+01  0.34297560870E+02  0.10906371025E+01  0.34407837340E+02  0.51100000000E-03 0.  1.
         23    2    1    0    0    0 -0.16421865477E+02 -0.24449662606E+02 -0.51603357520E+01  0.95098616548E+02  0.90275434848E+02 0.  0.
         11    1    3    3    0    0 -0.13894594374E+02 -0.58747223476E+02 -0.62509728545E+01  0.60690779208E+02  0.51100000000E-03 0. -1.
         22    1    1    0    0    0  0.16421865477E+02  0.24449662606E+02  0.51603357520E+01  0.29901383452E+02  0.00000000000E+00 0. -1.
</event>
<event>
 5    1  0.1717518E-003  0.9118800E+02  0.7818608E-02  0.1130116E+00
         25   -1    0    0    0    0  0.00000000000E+00  0.00000000000E+00  0.99999998245E-14  0.12500000000E+03  0.12500000000E+03 0.  0.
        -11    1    3    3    0    0  0.10206578577E+02 -0.34423636162E+02 -0.15170096094E+01  0.35936921004E+02  0.51100000000E-03 0.  1.
         23    2    1    0    0    0  0.70448269893E+01  0.26796249894E+02 -0.17366857886E+01  0.97238791935E+02  0.93191727014E+02 0.  0.
         11    1    3    3    0    0 -0.31617515873E+01  0.61219886056E+02 -0.21967617917E+00  0.61301870931E+02  0.51100000000E-03 0. -1.
         22    1    1    0    0    0 -0.70448269893E+01 -0.26796249894E+02  0.17366857886E+01  0.27761208065E+02  0.00000000000E+00 0. -1.
</event>
<event>
 5    1  0.1717518E-003  0.9118800E+02  0.7818608E-02  0.1130116E+00
         25   -1    0    0    0    0  0.00000000000E+00  0.00000000000E+00  0.99999998245E-14  0.12500000000E+03  0.12500000000E+03 0.  0.
        -11    1    3    3    0    0 -0.15949194187E+02  0.47961651977E+02  0.34522532967E+01  0.50661769695E+02  0.51100000000E-03 0.  1.
         23    2    1    0    0    0  0.12799074076E+02  0.20336785339E+02 -0.17090791810E+02  0.95512777347E+02  0.90847093166E+02 0.  0.
         11    1    3    3    0    0  0.28748268263E+02 -0.27624866638E+02 -0.20543045106E+02  0.44851007652E+02  0.51100000000E-03 0. -1.
         22    1    1    0    0    0 -0.12799074076E+02 -0.20336785339E+02  0.17090791810E+02  0.29487222653E+02  0.00000000000E+00 0.  1.
</event>
<event>
 5    1  0.1717518E-003  0.9118800E+02  0.7818608E-02  0.1130116E+00
         25   -1    0    0    0    0  0.00000000000E+00  0.00000000000E+00  0.99999998245E-14  0.12500000000E+03  0.12500000000E+03 0.  0.
        -11    1    3    3    0    0 -0.14078488955E+02  0.50114622345E+02  0.24287316543E+02  0.57441735430E+02  0.51100000000E-03 0. -1.
         23    2    1    0    0    0  0.98264077162E+01  0.30318130546E+02  0.10110742819E+02  0.91563875093E+02  0.85240652117E+02 0.  0.
         11    1    3    3    0    0  0.23904896672E+02 -0.19796491799E+02 -0.14176573724E+02  0.34122139664E+02  0.51100000000E-03 0.  1.
         22    1    1    0    0    0 -0.98264077162E+01 -0.30318130546E+02 -0.10110742819E+02  0.33436124907E+02  0.00000000000E+00 0. -1.
</event>
<event>
 5    1  0.1717518E-003  0.9118800E+02  0.7818608E-02  0.1130116E+00
         25   -1    0    0    0    0  0.00000000000E+00  0.00000000000E+00  0.99999998245E-14  0.12500000000E+03  0.12500000000E+03 0.  0.
        -11    1    3    3    0    0 -0.37088918694E+01  0.41429950937E+01 -0.40369196561E+02  0.40750365870E+02  0.51100000000E-03 0.  1.
         23    2    1    0    0    0 -0.23038831783E+02 -0.15566764455E+02  0.76697363525E+01  0.96156685675E+02  0.91728792746E+02 0.  0.
         11    1    3    3    0    0 -0.19329939914E+02 -0.19709759549E+02  0.48038932914E+02  0.55406319805E+02  0.51100000000E-03 0. -1.
         22    1    1    0    0    0  0.23038831783E+02  0.15566764455E+02 -0.76697363525E+01  0.28843314325E+02  0.00000000000E+00 0. -1.
</event>
<event>
 5    1  0.1717518E-003  0.9118800E+02  0.7818608E-02  0.1130116E+00
         25   -1    0    0    0    0  0.00000000000E+00  0.00000000000E+00  0.99999998245E-14  0.12500000000E+03  0.12500000000E+03 0.  0.
        -11    1    3    3    0    0 -0.23073765361E+02  0.39692142372E+02  0.13406739547E+02  0.47828918862E+02  0.51100000000E-03 0.  1.
         23    2    1    0    0    0  0.10658275179E+01  0.20920393594E+02 -0.22006448491E+02  0.94617725042E+02  0.89607093807E+02 0.  0.
         11    1    3    3    0    0  0.24139592879E+02 -0.18771748778E+02 -0.35413188038E+02  0.46788806180E+02  0.51100000000E-03 0. -1.
         22    1    1    0    0    0 -0.10658275179E+01 -0.20920393594E+02  0.22006448491E+02  0.30382274958E+02  0.00000000000E+00 0.  1.
</event>
<event>
 5    1  0.1717518E-003  0.9118800E+02  0.7818608E-02  0.1130116E+00
         25   -1    0    0    0    0  0.00000000000E+00  0.00000000000E+00  0.99999998245E-14  0.12500000000E+03  0.12500000000E+03 0.  0.
        -11    1    3    3    0    0  0.35739714187E+02  0.28981521898E+02  0.69919936247E+01  0.46541849520E+02  0.51100000000E-03 0. -1.
         23    2    1    0    0    0  0.18616096617E+02 -0.10275586967E+02 -0.18867518541E+02  0.96572372651E+02  0.92293516364E+02 0.  0.
         11    1    3    3    0    0 -0.17123617569E+02 -0.39257108865E+02 -0.25859512165E+02  0.50030523131E+02  0.51100000000E-03 0.  1.
         22    1    1    0    0    0 -0.18616096617E+02  0.10275586967E+02  0.18867518541E+02  0.28427627349E+02  0.00000000000E+00 0.  1.
</event>
<event>
 5    1  0.1717518E-003  0.9118800E+02  0.7818608E-02  0.1130116E+00
         25   -1    0    0    0    0  0.00000000000E+00  0.00000000000E+00  0.99999998245E-14  0.12500000000E+03  0.12500000000E+03 0.  0.
        -11    1    3    3    0    0  0.78183215198E+01 -0.28760196830E+02  0.32980288004E+02  0.44451934380E+02  0.51100000000E-03 0.  1.
         23    2    1    0    0    0  0.29579593837E+02 -0.12880050625E+01 -0.36743945577E+01  0.95165246708E+02  0.90367647292E+02 0.  0.
         11    1    3    3    0    0  0.21761272317E+02  0.27472191768E+02 -0.36654682561E+02  0.50713312328E+02  0.51100000000E-03 0. -1.
         22    1    1    0    0    0 -0.29579593837E+02  0.12880050625E+01  0.36743945577E+01  0.29834753292E+02  0.00000000000E+00 0. -1.
</event>
<event>
 5    1  0.1717518E-003  0.9118800E+02  0.7818608E-02  0.1130116E+00
         25   -1    0    0    0    0  0.00000000000E+00  0.00000000000E+00  0.99999998245E-14  0.12500000000E+03  0.12500000000E+03 0.  0.
        -11    1    3    3    0    0 -0.26116246422E+02 -0.40041803284E+02  0.39920292125E+02  0.62281891920E+02  0.51100000000E-03 0.  1.
         23    2    1    0    0    0 -0.14398036885E+02 -0.15696472605E+02  0.19077773655E+02  0.96405522106E+02  0.92067260884E+02 0.  0.
         11    1    3    3    0    0  0.11718209538E+02  0.24345330680E+02 -0.20842518470E+02  0.34123630187E+02  0.51100000000E-03 0. -1.
         22    1    1    0    0    0  0.14398036885E+02  0.15696472605E+02 -0.19077773655E+02  0.28594477894E+02  0.00000000000E+00 0.  1.
</event>
<event>
 5    1  0.1717518E-003  0.9118800E+02  0.7818608E-02  0.1130116E+00
         25   -1    0    0    0    0  0.00000000000E+00  0.00000000000E+00  0.99999998245E-14  0.12500000000E+03  0.12500000000E+03 0.  0.
        -11    1    3    3    0    0 -0.21703352701E+02  0.32697235968E+02 -0.22117502468E+02  0.45048070703E+02  0.51100000000E-03 0. -1.
         23    2    1    0    0    0 -0.94766210704E+01 -0.15147447083E+02 -0.24719813865E+02  0.94498841046E+02  0.89441099397E+02 0.  0.
         11    1    3    3    0    0  0.12226731630E+02 -0.47844683051E+02 -0.26023113969E+01  0.49450770343E+02  0.51100000000E-03 0.  1.
         22    1    1    0    0    0  0.94766210704E+01  0.15147447083E+02  0.24719813865E+02  0.30501158954E+02  0.00000000000E+00 0. -1.
</event>
<event>
 5    1  0.1717518E-003  0.9118800E+02  0.7818608E-02  0.1130116E+00
         25   -1    0    0    0    0  0.00000000000E+00  0.00000000000E+00  0.99999998245E-14  0.12500000000E+03  0.12500000000E+03 0.  0.
        -11    1    3    3    0    0 -0.26828543912E+02 -0.24485017889E+02 -0.31073965131E+02  0.47800399357E+02  0.51100000000E-03 0.  1.
         23    2    1    0    0    0  0.28051360653E+01  0.13270436391E+02 -0.25497342232E+02  0.96119422941E+02  0.91678000280E+02 0.  0.
         11    1    3    3    0    0  0.29633679977E+02  0.37755454280E+02  0.55766228992E+01  0.48319023584E+02  0.51100000000E-03 0. -1.
         22    1    1    0    0    0 -0.28051360653E+01 -0.13270436391E+02  0.25497342232E+02  0.28880577059E+02  0.00000000000E+00 0. -1.
</event>
<event>
 5    1  0.1717518E-003  0.9118800E+02  0.7818608E-02  0.1130116E+00
         25   -1    0    0    0    0  0.00000000000E+00  0.00000000000E+00  0.99999998245E-14  0.12500000000E+03  0.12500000000E+03 0.  0.
        -11    1    3    3    0    0 -0.14020494913E+02  0.26764217852E+02 -0.33723712253E+02  0.45278984123E+02  0.51100000000E-03 0. -1.
         23    2    1    0    0    0  0.20069822442E+01 -0.14154028025E+02  0.10220837288E+02  0.10742644026E+03  0.10597929074E+03 0.  0.
         11    1    3    3    0    0  0.16027477157E+02 -0.40918245877E+02  0.43944549541E+02  0.62147456137E+02  0.51100000000E-03 0.  1.
         22    1    1    0    0    0 -0.20069822442E+01  0.14154028025E+02 -0.10220837288E+02  0.17573559740E+02  0.00000000000E+00 0.  1.
</event>
<event>
 5    1  0.1717518E-003  0.9118800E+02  0.7818608E-02  0.1130116E+00
         25   -1    0    0    0    0  0.00000000000E+00  0.00000000000E+00  0.99999998245E-14  0.12500000000E+03  0.12500000000E+03 0.  0.
        -11    1    3    3    0    0  0.46310222822E+02 -0.34063107399E+01 -0.14797155408E+02  0.48735977462E+02  0.51100000000E-03 0.  1.
         23    2    1    0    0    0  0.18382951204E+02 -0.75543772462E+00  0.22836056886E+02  0.95674429669E+02  0.91069245178E+02 0.  0.
         11    1    3    3    0    0 -0.27927271618E+02  0.26508730153E+01  0.37633212294E+02  0.46938452207E+02  0.51100000000E-03 0. -1.
         22    1    1    0    0    0 -0.18382951204E+02  0.75543772462E+00 -0.22836056886E+02  0.29325570331E+02  0.00000000000E+00 0.  1.
</event>
<event>
 5    1  0.1717518E-003  0.9118800E+02  0.7818608E-02  0.1130116E+00
         25   -1    0    0    0    0  0.00000000000E+00  0.00000000000E+00  0.99999998245E-14  0.12500000000E+03  0.12500000000E+03 0.  0.
        -11    1    3    3    0    0  0.28519604746E+02 -0.17112126031E+02 -0.32331036469E+00  0.33261046917E+02  0.51100000000E-03 0. -1.
         23    2    1    0    0    0 -0.13570177755E+02  0.25527236773E+02  0.10686559177E+02  0.94178058325E+02  0.88991654559E+02 0.  0.
         11    1    3    3    0    0 -0.42089782501E+02  0.42639362804E+02  0.11009869541E+02  0.60917011408E+02  0.51100000000E-03 0.  1.
         22    1    1    0    0    0  0.13570177755E+02 -0.25527236773E+02 -0.10686559177E+02  0.30821941675E+02  0.00000000000E+00 0.  1.
</event>
<event>
 5    1  0.1717518E-003  0.9118800E+02  0.7818608E-02  0.1130116E+00
         25   -1    0    0    0    0  0.00000000000E+00  0.00000000000E+00  0.99999998245E-14  0.12500000000E+03  0.12500000000E+03 0.  0.
        -11    1    3    3    0    0 -0.49208839356E+02 -0.17572913554E+02  0.15770403309E+02  0.54580424900E+02  0.51100000000E-03 0. -1.
         23    2    1    0    0    0 -0.88224269870E+01 -0.25864847375E+02  0.78907056047E+01  0.96555514021E+02  0.92270680637E+02 0.  0.
         11    1    3    3    0    0  0.40386412369E+02 -0.82919338209E+01 -0.78796977046E+01  0.41975089121E+02  0.51100000000E-03 0.  1.
         22    1    1    0    0    0  0.88224269870E+01  0.25864847375E+02 -0.78907056047E+01  0.28444485979E+02  0.00000000000E+00 0. -1.
</event>
<event>
 5    1  0.1717518E-003  0.9118800E+02  0.7818608E-02  0.1130116E+00
         25   -1    0    0    0    0  0.00000000000E+00  0.00000000000E+00  0.99999998245E-14  0.12500000000E+03  0.12500000000E+03 0.  0.
        -11    1    3    3    0    0  0.25695692319E+02 -0.17676446925E+02  0.73685687972E+01  0.32047171264E+02  0.51100000000E-03 0.  1.
         23    2    1    0    0    0 -0.14462775477E+02  0.63887038272E+01 -0.29427681489E+02  0.91593775297E+02  0.85284487594E+02 0.  0.
         11    1    3    3    0    0 -0.40158467796E+02  0.24065150752E+02 -0.36796250286E+02  0.59546604033E+02  0.51100000000E-03 0. -1.
         22    1    1    0    0    0  0.14462775477E+02 -0.63887038272E+01  0.29427681489E+02  0.33406224703E+02  0.00000000000E+00 0. -1.
</event>
<event>
 5    1  0.1717518E-003  0.9118800E+02  0.7818608E-02  0.1130116E+00
         25   -1    0    0    0    0  0.00000000000E+00  0.00000000000E+00  0.99999998245E-14  0.12500000000E+03  0.12500000000E+03 0.  0.
        -11    1    3    3    0    0 -0.25615979810E+02  0.35989084342E+02  0.59415407811E+01  0.44572351525E+02  0.51100000000E-03 0.  1.
         23    2    1    0    0    0 -0.11882851996E+02 -0.92727647733E+01  0.25195289596E+02  0.95640351570E+02  0.91022458177E+02 0.  0.
         11    1    3    3    0    0  0.13733127814E+02 -0.45261849115E+02  0.19253748815E+02  0.51068000045E+02  0.51100000000E-03 0. -1.
         22    1    1    0    0    0  0.11882851996E+02  0.92727647733E+01 -0.25195289596E+02  0.29359648430E+02  0.00000000000E+00 0. -1.
</event>
<event>
 5    1  0.1717518E-003  0.9118800E+02  0.7818608E-02  0.1130116E+00
         25   -1    0    0    0    0  0.00000000000E+00  0.00000000000E+00  0.99999998245E-14  0.12500000000E+03  0.12500000000E+03 0.  0.
        -11    1    3    3    0    0  0.31727323047E+02  0.58781271295E+01  0.46813732083E+02  0.56856845834E+02  0.51100000000E-03 0. -1.
         23    2    1    0    0    0  0.95356217513E+01  0.20715265032E+02  0.22481847564E+02  0.92976824682E+02  0.87288064308E+02 0.  0.
         11    1    3    3    0    0 -0.22191701296E+02  0.14837137902E+02 -0.24331884519E+02  0.36119978849E+02  0.51100000000E-03 0.  1.
         22    1    1    0    0    0 -0.95356217513E+01 -0.20715265032E+02 -0.22481847564E+02  0.32023175318E+02  0.00000000000E+00 0. -1.
</event>
<event>
 5    1  0.1717518E-003  0.9118800E+02  0.7818608E-02  0.1130116E+00
         25   -1    0    0    0    0  0.00000000000E+00  0.00000000000E+00  0.99999998245E-14  0.12500000000E+03  0.12500000000E+03 0.  0.
        -11    1    3    3    0    0 -0.37556122965E-03  0.42312563136E+02  0.38756590276E+01  0.42489689719E+02  0.51100000000E-03 0. -1.
         23    2    1    0    0    0  0.13171703354E+02  0.61451287735E+00  0.29156375615E+02  0.93000536968E+02  0.87322014647E+02 0.  0.
         11    1    3    3    0    0  0.13172078915E+02 -0.41698050259E+02  0.25280716588E+02  0.50510847249E+02  0.51100000000E-03 0.  1.
         22    1    1    0    0    0 -0.13171703354E+02 -0.61451287735E+00 -0.29156375615E+02  0.31999463032E+02  0.00000000000E+00 0.  1.
</event>
<event>
 5    1  0.1717518E-003  0.9118800E+02  0.7818608E-02  0.1130116E+00
         25   -1    0    0    0    0  0.00000000000E+00  0.00000000000E+00  0.99999998245E-14  0.12500000000E+03  0.12500000000E+03 0.  0.
        -11    1    3    3    0    0 -0.33372051924E+02  0.27358193908E+02 -0.39555160438E+02  0.58538665351E+02  0.51100000000E-03 0.  1.
         23    2    1    0    0    0 -0.33941847847E+01  0.22688957215E+02 -0.14767244555E+02  0.97716657434E+02  0.93830508676E+02 0.  0.
         11    1    3    3    0    0  0.29977867140E+02 -0.46692366932E+01  0.24787915883E+02  0.39177992083E+02  0.51100000000E-03 0. -1.
         22    1    1    0    0    0  0.33941847847E+01 -0.22688957215E+02  0.14767244555E+02  0.27283342566E+02  0.00000000000E+00 0.  1.
</event>
<event>
 5    1  0.1717518E-003  0.9118800E+02  0.7818608E-02  0.1130116E+00
         25   -1    0    0    0    0  0.00000000000E+00  0.00000000000E+00  0.99999998245E-14  0.12500000000E+03  0.12500000000E+03 0.  0.
        -11    1    3    3    0    0  0.33593616561E+02  0.13980413561E+02  0.20721729714E+01  0.36445533857E+02  0.51100000000E-03 0. -1.
         23    2    1    0    0    0 -0.25373655085E+02  0.14689508718E+02  0.37578255443E+01  0.95441155442E+02  0.90748492332E+02 0.  0.
         11    1    3    3    0    0 -0.58967271647E+02  0.70909515686E+00  0.16856525729E+01  0.58995621586E+02  0.51100000000E-03 0.  1.
         22    1    1    0    0    0  0.25373655085E+02 -0.14689508718E+02 -0.37578255443E+01  0.29558844558E+02  0.00000000000E+00 0.  1.
</event>
<event>
 5    1  0.1717518E-003  0.9118800E+02  0.7818608E-02  0.1130116E+00
         25   -1    0    0    0    0  0.00000000000E+00  0.00000000000E+00  0.99999998245E-14  0.12500000000E+03  0.12500000000E+03 0.  0.
        -11    1    3    3    0    0 -0.30597213738E+01  0.17648066378E+02 -0.34762312234E+02  0.39105427934E+02  0.51100000000E-03 0.  1.
         23    2    1    0    0    0 -0.23756911872E+02 -0.48210618750E+01  0.14266204349E+02  0.96872467477E+02  0.92699066173E+02 0.  0.
         11    1    3    3    0    0 -0.20697190498E+02 -0.22469128254E+02  0.49028516583E+02  0.57767039543E+02  0.51100000000E-03 0. -1.
         22    1    1    0    0    0  0.23756911872E+02  0.48210618750E+01 -0.14266204349E+02  0.28127532523E+02  0.00000000000E+00 0. -1.
</event>
<event>
 5    1  0.1717518E-003  0.9118800E+02  0.7818608E-02  0.1130116E+00
         25   -1    0    0    0    0  0.00000000000E+00  0.00000000000E+00  0.99999998245E-14  0.12500000000E+03  0.12500000000E+03 0.  0.
        -11    1    3    3    0    0  0.25639197948E+02  0.19818337904E+02  0.23636900781E+02  0.40110323702E+02  0.51100000000E-03 0.  1.
         23    2    1    0    0    0  0.10585011431E+02  0.32507530729E+01 -0.27186350985E+02  0.95645144483E+02  0.91029039986E+02 0.  0.
         11    1    3    3    0    0 -0.15054186516E+02 -0.16567584831E+02 -0.50823251766E+02  0.55534820781E+02  0.51100000000E-03 0. -1.
         22    1    1    0    0    0 -0.10585011431E+02 -0.32507530729E+01  0.27186350985E+02  0.29354855517E+02  0.00000000000E+00 0. -1.
</event>
<event>
 5    1  0.1717518E-003  0.9118800E+02  0.7818608E-02  0.1130116E+00
         25   -1    0    0    0    0  0.00000000000E+00  0.00000000000E+00  0.99999998245E-14  0.12500000000E+03  0.12500000000E+03 0.  0.
        -11    1    3    3    0    0 -0.38922524675E+02  0.31566423448E+02  0.37048655696E+02  0.62321785160E+02  0.51100000000E-03 0.  1.
         23    2    1    0    0    0 -0.18972779450E+02  0.16668158425E+02  0.14704290029E+02  0.95776550330E+02  0.91209306447E+02 0.  0.
         11    1    3    3    0    0  0.19949745225E+02 -0.14898265023E+02 -0.22344365667E+02  0.33454765170E+02  0.51100000000E-03 0. -1.
         22    1    1    0    0    0  0.18972779450E+02 -0.16668158425E+02 -0.14704290029E+02  0.29223449670E+02  0.00000000000E+00 0.  1.
</event>
<event>
 5    1  0.1717518E-003  0.9118800E+02  0.7818608E-02  0.1130116E+00
         25   -1    0    0    0    0  0.00000000000E+00  0.00000000000E+00  0.99999998245E-14  0.12500000000E+03  0.12500000000E+03 0.  0.
        -11    1    3    3    0    0  0.18741539772E+01  0.19180319365E+02  0.45352145890E+02  0.49276913876E+02  0.51100000000E-03 0. -1.
         23    2    1    0    0    0 -0.25370897769E+02  0.12580258776E+02  0.87910919909E+01  0.95348209787E+02  0.90620375450E+02 0.  0.
         11    1    3    3    0    0 -0.27245051746E+02 -0.66000605891E+01 -0.36561053899E+02  0.46071295911E+02  0.51100000000E-03 0.  1.
         22    1    1    0    0    0  0.25370897769E+02 -0.12580258776E+02 -0.87910919909E+01  0.29651790213E+02  0.00000000000E+00 0.  1.
</event>
<event>
 5    1  0.1717518E-003  0.9118800E+02  0.7818608E-02  0.1130116E+00
         25   -1    0    0    0    0  0.00000000000E+00  0.00000000000E+00  0.99999998245E-14  0.12500000000E+03  0.12500000000E+03 0.  0.
        -11    1    3    3    0    0  0.67716789646E+01  0.35049568730E+02 -0.47443308567E+02  0.59373356249E+02  0.51100000000E-03 0.  1.
         23    2    1    0    0    0 -0.10408250788E+02  0.17429662991E+02 -0.25992634966E+02  0.92019067495E+02  0.85905569515E+02 0.  0.
         11    1    3    3    0    0 -0.17179929753E+02 -0.17619905739E+02  0.21450673601E+02  0.32645711246E+02  0.51100000000E-03 0. -1.
         22    1    1    0    0    0  0.10408250788E+02 -0.17429662991E+02  0.25992634966E+02  0.32980932505E+02  0.00000000000E+00 0.  1.
</event>
<event>
 5    1  0.1717518E-003  0.9118800E+02  0.7818608E-02  0.1130116E+00
         25   -1    0    0    0    0  0.00000000000E+00  0.00000000000E+00  0.99999998245E-14  0.12500000000E+03  0.12500000000E+03 0.  0.
        -11    1    3    3    0    0  0.21436346058E+02  0.31096773519E+02  0.22605288169E+02  0.44017329645E+02  0.51100000000E-03 0. -1.
         23    2    1    0    0    0 -0.21894721868E+02  0.96509193929E+01 -0.61826179758E+01  0.10028676760E+03  0.97194093951E+02 0.  0.
         11    1    3    3    0    0 -0.43331067926E+02 -0.21445854126E+02 -0.28787906145E+02  0.56269437951E+02  0.51100000000E-03 0.  1.
         22    1    1    0    0    0  0.21894721868E+02 -0.96509193929E+01  0.61826179758E+01  0.24713232404E+02  0.00000000000E+00 0. -1.
</event>
<event>
 5    1  0.1717518E-003  0.9118800E+02  0.7818608E-02  0.1130116E+00
         25   -1    0    0    0    0  0.00000000000E+00  0.00000000000E+00  0.99999998245E-14  0.12500000000E+03  0.12500000000E+03 0.  0.
        -11    1    3    3    0    0  0.23530224736E+01 -0.24061310141E+02  0.33725243700E+02  0.41495486783E+02  0.51100000000E-03 0. -1.
         23    2    1    0    0    0 -0.27739090232E+02  0.81791073379E+01  0.16403817800E+01  0.96033713111E+02  0.91561063109E+02 0.  0.
         11    1    3    3    0    0 -0.30092112706E+02  0.32240417479E+02 -0.32084861920E+02  0.54538226328E+02  0.51100000000E-03 0.  1.
         22    1    1    0    0    0  0.27739090232E+02 -0.81791073379E+01 -0.16403817800E+01  0.28966286889E+02  0.00000000000E+00 0.  1.
</event>
<event>
 5    1  0.1717518E-003  0.9118800E+02  0.7818608E-02  0.1130116E+00
         25   -1    0    0    0    0  0.00000000000E+00  0.00000000000E+00  0.99999998245E-14  0.12500000000E+03  0.12500000000E+03 0.  0.
        -11    1    3    3    0    0 -0.37525666893E+02  0.49328634643E+02  0.57660317744E-01  0.61979780545E+02  0.51100000000E-03 0. -1.
         23    2    1    0    0    0 -0.20928447753E+02  0.20727499147E+02 -0.39144518586E+01  0.95285490420E+02  0.90533820227E+02 0.  0.
         11    1    3    3    0    0  0.16597219140E+02 -0.28601135496E+02 -0.39721121763E+01  0.33305709874E+02  0.51100000000E-03 0.  1.
         22    1    1    0    0    0  0.20928447753E+02 -0.20727499147E+02  0.39144518586E+01  0.29714509580E+02  0.00000000000E+00 0. -1.
</event>
<event>
 5    1  0.1717518E-003  0.9118800E+02  0.7818608E-02  0.1130116E+00
         25   -1    0    0    0    0  0.00000000000E+00  0.00000000000E+00  0.99999998245E-14  0.12500000000E+03  0.12500000000E+03 0.  0.
        -11    1    3    3    0    0  0.11619255405E+02  0.37222021245E+02  0.32826765312E+02  0.50971388865E+02  0.51100000000E-03 0.  1.
         23    2    1    0    0    0 -0.16320176310E+02  0.41357686531E+01  0.24817435607E+02  0.95010704456E+02  0.90153625074E+02 0.  0.
         11    1    3    3    0    0 -0.27939431715E+02 -0.33086252592E+02 -0.80093297056E+01  0.44039315591E+02  0.51100000000E-03 0. -1.
         22    1    1    0    0    0  0.16320176310E+02 -0.41357686531E+01 -0.24817435607E+02  0.29989295544E+02  0.00000000000E+00 0.  1.
</event>
<event>
 5    1  0.1717518E-003  0.9118800E+02  0.7818608E-02  0.1130116E+00
         25   -1    0    0    0    0  0.00000000000E+00  0.00000000000E+00  0.99999998245E-14  0.12500000000E+03  0.12500000000E+03 0.  0.
        -11    1    3    3    0    0  0.53342249780E+02  0.23058738856E+02  0.18363969211E+02  0.60945355973E+02  0.51100000000E-03 0. -1.
         23    2    1    0    0    0  0.29067933074E+02  0.18845418450E+01  0.96378349623E+01  0.94318016786E+02  0.89188027204E+02 0.  0.
         11    1    3    3    0    0 -0.24274316706E+02 -0.21174197011E+02 -0.87261342488E+01  0.33372660813E+02  0.51100000000E-03 0.  1.
         22    1    1    0    0    0 -0.29067933074E+02 -0.18845418450E+01 -0.96378349623E+01  0.30681983214E+02  0.00000000000E+00 0. -1.
</event>
<event>
 5    1  0.1717518E-003  0.9118800E+02  0.7818608E-02  0.1130116E+00
         25   -1    0    0    0    0  0.00000000000E+00  0.00000000000E+00  0.99999998245E-14  0.12500000000E+03  0.12500000000E+03 0.  0.
        -11    1    3    3    0    0 -0.29925444802E+00  0.40116250758E+02  0.14529761934E+01  0.40143670337E+02  0.51100000000E-03 0.  1.
         23    2    1    0    0    0  0.35194102435E+01 -0.91419973591E+01  0.27366415600E+02  0.95933127672E+02  0.91423639820E+02 0.  0.
         11    1    3    3    0    0  0.38186646916E+01 -0.49258248117E+02  0.25913439406E+02  0.55789457334E+02  0.51100000000E-03 0. -1.
         22    1    1    0    0    0 -0.35194102435E+01  0.91419973591E+01 -0.27366415600E+02  0.29066872328E+02  0.00000000000E+00 0. -1.
</event>
<event>
 5    1  0.1717518E-003  0.9118800E+02  0.7818608E-02  0.1130116E+00
         25   -1    0    0    0    0  0.00000000000E+00  0.00000000000E+00  0.99999998245E-14  0.12500000000E+03  0.12500000000E+03 0.  0.
        -11    1    3    3    0    0 -0.89808994524E+01  0.20254328125E+02  0.26816957597E+02  0.34785680643E+02  0.51100000000E-03 0. -1.
         23    2    1    0    0    0  0.26531239595E+01  0.28207545809E+02 -0.24216231793E+02  0.87728957761E+02  0.79418130425E+02 0.  0.
         11    1    3    3    0    0  0.11634023412E+02  0.79532176839E+01 -0.51033189391E+02  0.52943277117E+02  0.51100000000E-03 0.  1.
         22    1    1    0    0    0 -0.26531239595E+01 -0.28207545809E+02  0.24216231793E+02  0.37271042239E+02  0.00000000000E+00 0. -1.
</event>
<event>
 5    1  0.1717518E-003  0.9118800E+02  0.7818608E-02  0.1130116E+00
         25   -1    0    0    0    0  0.00000000000E+00  0.00000000000E+00  0.99999998245E-14  0.12500000000E+03  0.12500000000E+03 0.  0.
        -11    1    3    3    0    0 -0.21307120547E+02 -0.44101644689E+02 -0.27030343106E+02  0.55942719803E+02  0.51100000000E-03 0. -1.
         23    2    1    0    0    0  0.10288599088E+02 -0.23269127613E+02 -0.13945992502E+02  0.95986239852E+02  0.91496229228E+02 0.  0.
         11    1    3    3    0    0  0.31595719635E+02  0.20832517076E+02  0.13084350603E+02  0.40043520049E+02  0.51100000000E-03 0.  1.
         22    1    1    0    0    0 -0.10288599088E+02  0.23269127613E+02  0.13945992502E+02  0.29013760148E+02  0.00000000000E+00 0. -1.
</event>
<event>
 5    1  0.1717518E-003  0.9118800E+02  0.7818608E-02  0.1130116E+00
         25   -1    0    0    0    0  0.00000000000E+00  0.00000000000E+00  0.99999998245E-14  0.12500000000E+03  0.12500000000E+03 0.  0.
        -11    1    3    3    0    0  0.38994327577E+02 -0.26894048701E+01  0.54280372866E+01  0.39462058623E+02  0.51100000000E-03 0.  1.
         23    2    1    0    0    0 -0.88849374745E+01 -0.21336414567E+02 -0.17777479956E+02  0.95841407885E+02  0.91298148784E+02 0.  0.
         11    1    3    3    0    0 -0.47879265051E+02 -0.18647009697E+02 -0.23205517243E+02  0.56379349262E+02  0.51100000000E-03 0. -1.
         22    1    1    0    0    0  0.88849374745E+01  0.21336414567E+02  0.17777479956E+02  0.29158592115E+02  0.00000000000E+00 0. -1.
</event>
<event>
 5    1  0.1717518E-003  0.9118800E+02  0.7818608E-02  0.1130116E+00
         25   -1    0    0    0    0  0.00000000000E+00  0.00000000000E+00  0.99999998245E-14  0.12500000000E+03  0.12500000000E+03 0.  0.
        -11    1    3    3    0    0 -0.23907165908E+02  0.69341396926E+01 -0.38463003049E+02  0.45815253779E+02  0.51100000000E-03 0.  1.
         23    2    1    0    0    0  0.88809956935E+01 -0.23000785146E+02 -0.16355304507E+02  0.95412769860E+02  0.90709384658E+02 0.  0.
         11    1    3    3    0    0  0.32788161602E+02 -0.29934924838E+02  0.22107698542E+02  0.49597516081E+02  0.51100000000E-03 0. -1.
         22    1    1    0    0    0 -0.88809956935E+01  0.23000785146E+02  0.16355304507E+02  0.29587230140E+02  0.00000000000E+00 0. -1.
</event>
<event>
 5    1  0.1717518E-003  0.9118800E+02  0.7818608E-02  0.1130116E+00
         25   -1    0    0    0    0  0.00000000000E+00  0.00000000000E+00  0.99999998245E-14  0.12500000000E+03  0.12500000000E+03 0.  0.
        -11    1    3    3    0    0 -0.49770003448E+01 -0.59521266645E+02 -0.55524742327E+01  0.59986512533E+02  0.51100000000E-03 0.  1.
         23    2    1    0    0    0 -0.10784193246E+02 -0.22679840959E+02 -0.10823905232E+02  0.97653502339E+02  0.93746336380E+02 0.  0.
         11    1    3    3    0    0 -0.58071929010E+01  0.36841425687E+02 -0.52714309988E+01  0.37666989806E+02  0.51100000000E-03 0. -1.
         22    1    1    0    0    0  0.10784193246E+02  0.22679840959E+02  0.10823905232E+02  0.27346497661E+02  0.00000000000E+00 0.  1.
</event>
<event>
 5    1  0.1717518E-003  0.9118800E+02  0.7818608E-02  0.1130116E+00
         25   -1    0    0    0    0  0.00000000000E+00  0.00000000000E+00  0.99999998245E-14  0.12500000000E+03  0.12500000000E+03 0.  0.
        -11    1    3    3    0    0  0.10280242420E+02 -0.29673483404E+02  0.36258413154E+02  0.47967400662E+02  0.51100000000E-03 0. -1.
         23    2    1    0    0    0 -0.24542729468E+02 -0.12148524981E+02  0.69298673133E+01  0.96751897587E+02  0.92536340952E+02 0.  0.
         11    1    3    3    0    0 -0.34822971888E+02  0.17524958423E+02 -0.29328545841E+02  0.48784496925E+02  0.51100000000E-03 0.  1.
         22    1    1    0    0    0  0.24542729468E+02  0.12148524981E+02 -0.69298673133E+01  0.28248102413E+02  0.00000000000E+00 0. -1.
</event>
<event>
 5    1  0.1717518E-003  0.9118800E+02  0.7818608E-02  0.1130116E+00
         25   -1    0    0    0    0  0.00000000000E+00  0.00000000000E+00  0.99999998245E-14  0.12500000000E+03  0.12500000000E+03 0.  0.
        -11    1    3    3    0    0  0.68007478454E+01 -0.44212273807E+02 -0.15317521260E+01  0.44758480663E+02  0.51100000000E-03 0.  1.
         23    2    1    0    0    0  0.18658864464E+02  0.16905423937E+01 -0.21744754830E+02  0.96297290733E+02  0.91920197363E+02 0.  0.
         11    1    3    3    0    0  0.11858116618E+02  0.45902816200E+02 -0.20213002704E+02  0.51538810070E+02  0.51100000000E-03 0. -1.
         22    1    1    0    0    0 -0.18658864464E+02 -0.16905423937E+01  0.21744754830E+02  0.28702709267E+02  0.00000000000E+00 0. -1.
</event>
<event>
 5    1  0.1717518E-003  0.9118800E+02  0.7818608E-02  0.1130116E+00
         25   -1    0    0    0    0  0.00000000000E+00  0.00000000000E+00  0.99999998245E-14  0.12500000000E+03  0.12500000000E+03 0.  0.
        -11    1    3    3    0    0 -0.81279630047E+01  0.36388968085E+02  0.32283845112E+01  0.37425168639E+02  0.51100000000E-03 0.  1.
         23    2    1    0    0    0  0.17031813930E+02 -0.14430561667E+02  0.18338218760E+02  0.96110312167E+02  0.91665577191E+02 0.  0.
         11    1    3    3    0    0  0.25159776934E+02 -0.50819529752E+02  0.15109834249E+02  0.58685143528E+02  0.51100000000E-03 0. -1.
         22    1    1    0    0    0 -0.17031813930E+02  0.14430561667E+02 -0.18338218760E+02  0.28889687833E+02  0.00000000000E+00 0. -1.
</event>
<event>
 5    1  0.1717518E-003  0.9118800E+02  0.7818608E-02  0.1130116E+00
         25   -1    0    0    0    0  0.00000000000E+00  0.00000000000E+00  0.99999998245E-14  0.12500000000E+03  0.12500000000E+03 0.  0.
        -11    1    3    3    0    0  0.22837406030E+02 -0.26097056468E+02 -0.11464659858E+02  0.36524538277E+02  0.51100000000E-03 0.  1.
         23    2    1    0    0    0  0.12808973269E+02  0.22802495120E+02  0.16825828628E+02  0.93901252615E+02  0.88601992944E+02 0.  0.
         11    1    3    3    0    0 -0.10028432761E+02  0.48899551588E+02  0.28290488486E+02  0.57376714337E+02  0.51100000000E-03 0. -1.
         22    1    1    0    0    0 -0.12808973269E+02 -0.22802495120E+02 -0.16825828628E+02  0.31098747385E+02  0.00000000000E+00 0. -1.
</event>
<event>
 5    1  0.1717518E-003  0.9118800E+02  0.7818608E-02  0.1130116E+00
         25   -1    0    0    0    0  0.00000000000E+00  0.00000000000E+00  0.99999998245E-14  0.12500000000E+03  0.12500000000E+03 0.  0.
        -11    1    3    3    0    0 -0.30029204669E+02 -0.21671368818E+02  0.11142152617E+01  0.37049194801E+02  0.51100000000E-03 0. -1.
         23    2    1    0    0    0  0.19379773805E+02 -0.31127031148E+02  0.69099812961E+01  0.87687595329E+02  0.79353001407E+02 0.  0.
         11    1    3    3    0    0  0.49408978474E+02 -0.94556623302E+01  0.57957660345E+01  0.50638400529E+02  0.51100000000E-03 0.  1.
         22    1    1    0    0    0 -0.19379773805E+02  0.31127031148E+02 -0.69099812961E+01  0.37312404671E+02  0.00000000000E+00 0.  1.
</event>
<event>
 5    1  0.1717518E-003  0.9118800E+02  0.7818608E-02  0.1130116E+00
         25   -1    0    0    0    0  0.00000000000E+00  0.00000000000E+00  0.99999998245E-14  0.12500000000E+03  0.12500000000E+03 0.  0.
        -11    1    3    3    0    0 -0.14263468307E+01 -0.48957120685E+02  0.26908382549E+02  0.55882870208E+02  0.51100000000E-03 0.  1.
         23    2    1    0    0    0  0.13299667867E+02 -0.22566437481E+02 -0.32830223520E+01  0.98601070065E+02  0.95001407970E+02 0.  0.
         11    1    3    3    0    0  0.14726014697E+02  0.26390683204E+02 -0.30191404901E+02  0.42718199857E+02  0.51100000000E-03 0. -1.
         22    1    1    0    0    0 -0.13299667867E+02  0.22566437481E+02  0.32830223520E+01  0.26398929935E+02  0.00000000000E+00 0. -1.
</event>
<event>
 5    1  0.1717518E-003  0.9118800E+02  0.7818608E-02  0.1130116E+00
         25   -1    0    0    0    0  0.00000000000E+00  0.00000000000E+00  0.99999998245E-14  0.12500000000E+03  0.12500000000E+03 0.  0.
        -11    1    3    3    0    0  0.14111940460E+02  0.58873272719E+01  0.56363703749E+02  0.58400981041E+02  0.51100000000E-03 0.  1.
         23    2    1    0    0    0  0.63856303866E+01  0.18135335617E+02  0.21475332864E+02  0.96175416828E+02  0.91754314379E+02 0.  0.
         11    1    3    3    0    0 -0.77263100735E+01  0.12248008345E+02 -0.34888370885E+02  0.37774435787E+02  0.51100000000E-03 0. -1.
         22    1    1    0    0    0 -0.63856303866E+01 -0.18135335617E+02 -0.21475332864E+02  0.28824583172E+02  0.00000000000E+00 0.  1.
</event>
<event>
 5    1  0.1717518E-003  0.9118800E+02  0.7818608E-02  0.1130116E+00
         25   -1    0    0    0    0  0.00000000000E+00  0.00000000000E+00  0.99999998245E-14  0.12500000000E+03  0.12500000000E+03 0.  0.
        -11    1    3    3    0    0 -0.14247653440E+02  0.43052957094E+02 -0.40965442049E+02  0.61112357061E+02  0.51100000000E-03 0.  1.
         23    2    1    0    0    0 -0.66952550545E+01  0.14803798233E+02 -0.26931779387E+02  0.93546866240E+02  0.88100604765E+02 0.  0.
         11    1    3    3    0    0  0.75523983856E+01 -0.28249158860E+02  0.14033662661E+02  0.32434509178E+02  0.51100000000E-03 0. -1.
         22    1    1    0    0    0  0.66952550545E+01 -0.14803798233E+02  0.26931779387E+02  0.31453133760E+02  0.00000000000E+00 0.  1.
</event>
<event>
 5    1  0.1717518E-003  0.9118800E+02  0.7818608E-02  0.1130116E+00
         25   -1    0    0    0    0  0.00000000000E+00  0.00000000000E+00  0.99999998245E-14  0.12500000000E+03  0.12500000000E+03 0.  0.
        -11    1    3    3    0    0 -0.36315790493E+02  0.34243491133E+02 -0.11548327304E+02  0.51232969735E+02  0.51100000000E-03 0. -1.
         23    2    1    0    0    0 -0.20079934753E+02  0.41290564478E+01  0.18962987629E+02  0.97074245101E+02  0.92970754947E+02 0.  0.
         11    1    3    3    0    0  0.16235855739E+02 -0.30114434685E+02  0.30511314933E+02  0.45841275366E+02  0.51100000000E-03 0.  1.
         22    1    1    0    0    0  0.20079934753E+02 -0.41290564478E+01 -0.18962987629E+02  0.27925754899E+02  0.00000000000E+00 0. -1.
</event>
<event>
 5    1  0.1717518E-003  0.9118800E+02  0.7818608E-02  0.1130116E+00
         25   -1    0    0    0    0  0.00000000000E+00  0.00000000000E+00  0.99999998245E-14  0.12500000000E+03  0.12500000000E+03 0.  0.
        -11    1    3    3    0    0  0.24258376586E+02  0.51373823610E+02 -0.17054175498E+02  0.59317649052E+02  0.51100000000E-03 0.  1.
         23    2    1    0    0    0  0.13772323881E+02  0.23128271046E+02  0.61997465198E+01  0.97376989962E+02  0.93376910906E+02 0.  0.
         11    1    3    3    0    0 -0.10486052705E+02 -0.28245552564E+02  0.23253922018E+02  0.38059340909E+02  0.51100000000E-03 0. -1.
         22    1    1    0    0    0 -0.13772323881E+02 -0.23128271046E+02 -0.61997465198E+01  0.27623010038E+02  0.00000000000E+00 0.  1.
</event>
<event>
 5    1  0.1717518E-003  0.9118800E+02  0.7818608E-02  0.1130116E+00
         25   -1    0    0    0    0  0.00000000000E+00  0.00000000000E+00  0.99999998245E-14  0.12500000000E+03  0.12500000000E+03 0.  0.
        -11    1    3    3    0    0  0.25947983871E+02 -0.49101151867E+02  0.39422088423E+00  0.55537162261E+02  0.51100000000E-03 0. -1.
         23    2    1    0    0    0  0.68007762001E+01 -0.26800078287E+02 -0.19619415847E+02  0.91096958378E+02  0.84553176134E+02 0.  0.
         11    1    3    3    0    0 -0.19147207671E+02  0.22301073580E+02 -0.20013636731E+02  0.35559796117E+02  0.51100000000E-03 0.  1.
         22    1    1    0    0    0 -0.68007762001E+01  0.26800078287E+02  0.19619415847E+02  0.33903041622E+02  0.00000000000E+00 0. -1.
</event>
<event>
 5    1  0.1717518E-003  0.9118800E+02  0.7818608E-02  0.1130116E+00
         25   -1    0    0    0    0  0.00000000000E+00  0.00000000000E+00  0.99999998245E-14  0.12500000000E+03  0.12500000000E+03 0.  0.
        -11    1    3    3    0    0  0.25291640186E+02  0.28288401650E+02  0.19107156413E+02  0.42485105127E+02  0.51100000000E-03 0. -1.
         23    2    1    0    0    0 -0.56626909164E+01 -0.15319403017E+02  0.23763951330E+02  0.96164682072E+02  0.91739688892E+02 0.  0.
         11    1    3    3    0    0 -0.30954331103E+02 -0.43607804667E+02  0.46567949163E+01  0.53679576945E+02  0.51100000000E-03 0.  1.
         22    1    1    0    0    0  0.56626909164E+01  0.15319403017E+02 -0.23763951330E+02  0.28835317928E+02  0.00000000000E+00 0.  1.
</event>
<event>
 5    1  0.1717518E-003  0.9118800E+02  0.7818608E-02  0.1130116E+00
         25   -1    0    0    0    0  0.00000000000E+00  0.00000000000E+00  0.99999998245E-14  0.12500000000E+03  0.12500000000E+03 0.  0.
        -11    1    3    3    0    0  0.15515448328E+02 -0.47712487980E+01 -0.42274169425E+02  0.45283543951E+02  0.51100000000E-03 0. -1.
         23    2    1    0    0    0  0.24535946635E+02 -0.13085032482E+02  0.72164118388E+01  0.96271836951E+02  0.91885576875E+02 0.  0.
         11    1    3    3    0    0  0.90204983078E+01 -0.83137836842E+01  0.49490581264E+02  0.50988293000E+02  0.51100000000E-03 0.  1.
         22    1    1    0    0    0 -0.24535946635E+02  0.13085032482E+02 -0.72164118388E+01  0.28728163049E+02  0.00000000000E+00 0. -1.
</event>
<event>
 5    1  0.1717518E-003  0.9118800E+02  0.7818608E-02  0.1130116E+00
         25   -1    0    0    0    0  0.00000000000E+00  0.00000000000E+00  0.99999998245E-14  0.12500000000E+03  0.12500000000E+03 0.  0.
        -11    1    3    3    0    0  0.44217543965E+02 -0.93281571483E+01  0.25523745319E+02  0.51900551880E+02  0.51100000000E-03 0.  1.
         23    2    1    0    0    0  0.17834231681E+01 -0.14669768414E+02  0.26474745627E+02  0.94680124349E+02  0.89694097282E+02 0.  0.
         11    1    3    3    0    0 -0.42434120797E+02 -0.53416112656E+01  0.95100030731E+00  0.42779572468E+02  0.51100000000E-03 0. -1.
         22    1    1    0    0    0 -0.17834231681E+01  0.14669768414E+02 -0.26474745627E+02  0.30319875651E+02  0.00000000000E+00 0.  1.
</event>
<event>
 5    1  0.1717518E-003  0.9118800E+02  0.7818608E-02  0.1130116E+00
         25   -1    0    0    0    0  0.00000000000E+00  0.00000000000E+00  0.99999998245E-14  0.12500000000E+03  0.12500000000E+03 0.  0.
        -11    1    3    3    0    0  0.21678400563E+02 -0.30032913535E+02  0.36082811457E+02  0.51709749847E+02  0.51100000000E-03 0.  1.
         23    2    1    0    0    0 -0.89681219514E+01 -0.14143663281E+01  0.29474934446E+02  0.94158479219E+02  0.88964148986E+02 0.  0.
         11    1    3    3    0    0 -0.30646522514E+02  0.28618547207E+02 -0.66078770106E+01  0.42448729372E+02  0.51100000000E-03 0. -1.
         22    1    1    0    0    0  0.89681219514E+01  0.14143663281E+01 -0.29474934446E+02  0.30841520781E+02  0.00000000000E+00 0.  1.
</event>
<event>
 5    1  0.1717518E-003  0.9118800E+02  0.7818608E-02  0.1130116E+00
         25   -1    0    0    0    0  0.00000000000E+00  0.00000000000E+00  0.99999998245E-14  0.12500000000E+03  0.12500000000E+03 0.  0.
        -11    1    3    3    0    0  0.19304280716E+02  0.16636375703E+02 -0.55324626330E+02  0.60911727355E+02  0.51100000000E-03 0. -1.
         23    2    1    0    0    0  0.90173938179E+01 -0.21985826827E+01 -0.27005023449E+02  0.96444467286E+02  0.92120121697E+02 0.  0.
         11    1    3    3    0    0 -0.10286886898E+02 -0.18834958386E+02  0.28319602881E+02  0.35532739932E+02  0.51100000000E-03 0.  1.
         22    1    1    0    0    0 -0.90173938179E+01  0.21985826827E+01  0.27005023449E+02  0.28555532714E+02  0.00000000000E+00 0. -1.
</event>
<event>
 5    1  0.1717518E-003  0.9118800E+02  0.7818608E-02  0.1130116E+00
         25   -1    0    0    0    0  0.00000000000E+00  0.00000000000E+00  0.99999998245E-14  0.12500000000E+03  0.12500000000E+03 0.  0.
        -11    1    3    3    0    0 -0.15579650565E+02 -0.88397837358E+00  0.51350309203E+02  0.53668996497E+02  0.51100000000E-03 0. -1.
         23    2    1    0    0    0 -0.14887434001E+02 -0.21708703504E+02  0.17592695492E+02  0.93339197205E+02  0.87805462821E+02 0.  0.
         11    1    3    3    0    0  0.69221656367E+00 -0.20824725130E+02 -0.33757613711E+02  0.39670200708E+02  0.51100000000E-03 0.  1.
         22    1    1    0    0    0  0.14887434001E+02  0.21708703504E+02 -0.17592695492E+02  0.31660802795E+02  0.00000000000E+00 0. -1.
</event>
<event>
 5    1  0.1717518E-003  0.9118800E+02  0.7818608E-02  0.1130116E+00
         25   -1    0    0    0    0  0.00000000000E+00  0.00000000000E+00  0.99999998245E-14  0.12500000000E+03  0.12500000000E+03 0.  0.
        -11    1    3    3    0    0 -0.51698916564E+00 -0.20320413144E+02  0.36438532543E+02  0.41724730344E+02  0.51100000000E-03 0. -1.
         23    2    1    0    0    0 -0.20661362111E+02 -0.20565572210E+02 -0.11451430454E+02  0.93679560922E+02  0.88288675551E+02 0.  0.
         11    1    3    3    0    0 -0.20144372945E+02 -0.24515906647E+00 -0.47889962997E+02  0.51954830578E+02  0.51100000000E-03 0.  1.
         22    1    1    0    0    0  0.20661362111E+02  0.20565572210E+02  0.11451430454E+02  0.31320439078E+02  0.00000000000E+00 0.  1.
</event>
<event>
 5    1  0.1717518E-003  0.9118800E+02  0.7818608E-02  0.1130116E+00
         25   -1    0    0    0    0  0.00000000000E+00  0.00000000000E+00  0.99999998245E-14  0.12500000000E+03  0.12500000000E+03 0.  0.
        -11    1    3    3    0    0 -0.42565229719E+02  0.27719887343E+02  0.38839666671E+01  0.50943852747E+02  0.51100000000E-03 0.  1.
         23    2    1    0    0    0 -0.64587372860E+01  0.20978307700E+02 -0.20446909120E+02  0.95001987168E+02  0.90141537551E+02 0.  0.
         11    1    3    3    0    0  0.36106492433E+02 -0.67415796433E+01 -0.24330875787E+02  0.44058134422E+02  0.51100000000E-03 0. -1.
         22    1    1    0    0    0  0.64587372860E+01 -0.20978307700E+02  0.20446909120E+02  0.29998012832E+02  0.00000000000E+00 0.  1.
</event>
<event>
 5    1  0.1717518E-003  0.9118800E+02  0.7818608E-02  0.1130116E+00
         25   -1    0    0    0    0  0.00000000000E+00  0.00000000000E+00  0.99999998245E-14  0.12500000000E+03  0.12500000000E+03 0.  0.
        -11    1    3    3    0    0 -0.12481600582E+02  0.21138102390E+02  0.47916224002E+02  0.53838408675E+02  0.51100000000E-03 0.  1.
         23    2    1    0    0    0  0.49534023994E+00 -0.11949307430E+02  0.27938020364E+02  0.94609799411E+02  0.89596037037E+02 0.  0.
         11    1    3    3    0    0  0.12976940822E+02 -0.33087409819E+02 -0.19978203639E+02  0.40771390736E+02  0.51100000000E-03 0. -1.
         22    1    1    0    0    0 -0.49534023994E+00  0.11949307430E+02 -0.27938020364E+02  0.30390200589E+02  0.00000000000E+00 0.  1.
</event>
<event>
 5    1  0.1717518E-003  0.9118800E+02  0.7818608E-02  0.1130116E+00
         25   -1    0    0    0    0  0.00000000000E+00  0.00000000000E+00  0.99999998245E-14  0.12500000000E+03  0.12500000000E+03 0.  0.
        -11    1    3    3    0    0 -0.26055099017E+02  0.43911776823E+02 -0.13698135298E+02  0.52865406831E+02  0.51100000000E-03 0.  1.
         23    2    1    0    0    0  0.33119893386E+01  0.26175355417E+02  0.12279411872E+02  0.95898411374E+02  0.91376161244E+02 0.  0.
         11    1    3    3    0    0  0.29367088355E+02 -0.17736421406E+02  0.25977547171E+02  0.43033004543E+02  0.51100000000E-03 0. -1.
         22    1    1    0    0    0 -0.33119893386E+01 -0.26175355417E+02 -0.12279411872E+02  0.29101588626E+02  0.00000000000E+00 0.  1.
</event>
<event>
 5    1  0.1717518E-003  0.9118800E+02  0.7818608E-02  0.1130116E+00
         25   -1    0    0    0    0  0.00000000000E+00  0.00000000000E+00  0.99999998245E-14  0.12500000000E+03  0.12500000000E+03 0.  0.
        -11    1    3    3    0    0  0.49405674859E+02 -0.35156937178E+02  0.11633882548E+02  0.61743648770E+02  0.51100000000E-03 0.  1.
         23    2    1    0    0    0  0.24890491570E+02 -0.15308414152E+02 -0.10952445771E+01  0.95758186186E+02  0.91184135388E+02 0.  0.
         11    1    3    3    0    0 -0.24515183288E+02  0.19848523026E+02 -0.12729127125E+02  0.34014537416E+02  0.51100000000E-03 0. -1.
         22    1    1    0    0    0 -0.24890491570E+02  0.15308414152E+02  0.10952445771E+01  0.29241813814E+02  0.00000000000E+00 0.  1.
</event>
<event>
 5    1  0.1717518E-003  0.9118800E+02  0.7818608E-02  0.1130116E+00
         25   -1    0    0    0    0  0.00000000000E+00  0.00000000000E+00  0.99999998245E-14  0.12500000000E+03  0.12500000000E+03 0.  0.
        -11    1    3    3    0    0 -0.18267421360E+02 -0.23286531141E+02  0.54075392348E+02  0.61645026348E+02  0.51100000000E-03 0.  1.
         23    2    1    0    0    0 -0.13351476277E+02 -0.12779736174E+02  0.19416570710E+02  0.98193530751E+02  0.94463658027E+02 0.  0.
         11    1    3    3    0    0  0.49159450827E+01  0.10506794967E+02 -0.34658821637E+02  0.36548504403E+02  0.51100000000E-03 0. -1.
         22    1    1    0    0    0  0.13351476277E+02  0.12779736174E+02 -0.19416570710E+02  0.26806469249E+02  0.00000000000E+00 0.  1.
</event>
<event>
 5    1  0.1717518E-003  0.9118800E+02  0.7818608E-02  0.1130116E+00
         25   -1    0    0    0    0  0.00000000000E+00  0.00000000000E+00  0.99999998245E-14  0.12500000000E+03  0.12500000000E+03 0.  0.
        -11    1    3    3    0    0 -0.41201052758E+02 -0.30415888455E+01 -0.14866074217E+02  0.43906470753E+02  0.51100000000E-03 0. -1.
         23    2    1    0    0    0 -0.10342940819E+02 -0.50604733861E+01  0.26821292948E+02  0.95811533595E+02  0.91257237515E+02 0.  0.
         11    1    3    3    0    0  0.30858111939E+02 -0.20188845406E+01  0.41687367165E+02  0.51905062842E+02  0.51100000000E-03 0.  1.
         22    1    1    0    0    0  0.10342940819E+02  0.50604733861E+01 -0.26821292948E+02  0.29188466405E+02  0.00000000000E+00 0. -1.
</event>
<event>
 5    1  0.1717518E-003  0.9118800E+02  0.7818608E-02  0.1130116E+00
         25   -1    0    0    0    0  0.00000000000E+00  0.00000000000E+00  0.99999998245E-14  0.12500000000E+03  0.12500000000E+03 0.  0.
        -11    1    3    3    0    0 -0.17014723448E+02  0.12618196552E+02  0.58662803110E+02  0.62370218592E+02  0.51100000000E-03 0. -1.
         23    2    1    0    0    0 -0.96342605070E+01  0.78970781798E+01  0.26284827059E+02  0.95912632419E+02  0.91395613159E+02 0.  0.
         11    1    3    3    0    0  0.73804629406E+01 -0.47211183725E+01 -0.32377976051E+02  0.33542413827E+02  0.51100000000E-03 0.  1.
         22    1    1    0    0    0  0.96342605070E+01 -0.78970781798E+01 -0.26284827059E+02  0.29087367581E+02  0.00000000000E+00 0. -1.
</event>
<event>
 5    1  0.1717518E-003  0.9118800E+02  0.7818608E-02  0.1130116E+00
         25   -1    0    0    0    0  0.00000000000E+00  0.00000000000E+00  0.99999998245E-14  0.12500000000E+03  0.12500000000E+03 0.  0.
        -11    1    3    3    0    0  0.33134599216E+02  0.20994421687E+02 -0.31417023791E+02  0.50256310960E+02  0.51100000000E-03 0. -1.
         23    2    1    0    0    0  0.24538880464E+02  0.10079463799E+01  0.11124520593E+02  0.98038405671E+02  0.94258163666E+02 0.  0.
         11    1    3    3    0    0 -0.85957187516E+01 -0.19986475308E+02  0.42541544384E+02  0.47782094711E+02  0.51100000000E-03 0.  1.
         22    1    1    0    0    0 -0.24538880464E+02 -0.10079463799E+01 -0.11124520593E+02  0.26961594329E+02  0.00000000000E+00 0.  1.
</event>
<event>
 5    1  0.1717518E-003  0.9118800E+02  0.7818608E-02  0.1130116E+00
         25   -1    0    0    0    0  0.00000000000E+00  0.00000000000E+00  0.99999998245E-14  0.12500000000E+03  0.12500000000E+03 0.  0.
        -11    1    3    3    0    0  0.54240093874E+02 -0.13651349641E+02  0.12352349787E+01  0.55945267326E+02  0.51100000000E-03 0.  1.
         23    2    1    0    0    0  0.16380455313E+02 -0.24434144490E+02 -0.24429540005E+01  0.95481958780E+02  0.90804678816E+02 0.  0.
         11    1    3    3    0    0 -0.37859638561E+02 -0.10782794850E+02 -0.36781889792E+01  0.39536691454E+02  0.51100000000E-03 0. -1.
         22    1    1    0    0    0 -0.16380455313E+02  0.24434144490E+02  0.24429540005E+01  0.29518041220E+02  0.00000000000E+00 0.  1.
</event>
<event>
 5    1  0.1717518E-003  0.9118800E+02  0.7818608E-02  0.1130116E+00
         25   -1    0    0    0    0  0.00000000000E+00  0.00000000000E+00  0.99999998245E-14  0.12500000000E+03  0.12500000000E+03 0.  0.
        -11    1    3    3    0    0 -0.20841607619E+02 -0.40394218437E+02 -0.29381395502E+02  0.54123302682E+02  0.51100000000E-03 0.  1.
         23    2    1    0    0    0 -0.19747155784E+02 -0.33363364998E+01 -0.27147704611E+02  0.91264571020E+02  0.84800605865E+02 0.  0.
         11    1    3    3    0    0  0.10944518356E+01  0.37057881937E+02  0.22336908902E+01  0.37141268338E+02  0.51100000000E-03 0. -1.
         22    1    1    0    0    0  0.19747155784E+02  0.33363364998E+01  0.27147704611E+02  0.33735428980E+02  0.00000000000E+00 0. -1.
</event>
<event>
 5    1  0.1717518E-003  0.9118800E+02  0.7818608E-02  0.1130116E+00
         25   -1    0    0    0    0  0.00000000000E+00  0.00000000000E+00  0.99999998245E-14  0.12500000000E+03  0.12500000000E+03 0.  0.
        -11    1    3    3    0    0 -0.29626637957E+02 -0.10243146175E+02  0.51190067658E+02  0.60025684063E+02  0.51100000000E-03 0.  1.
         23    2    1    0    0    0 -0.21202694832E+02  0.46892242993E+01  0.20733008058E+02  0.94976663813E+02  0.90106414606E+02 0.  0.
         11    1    3    3    0    0  0.84239431241E+01  0.14932370474E+02 -0.30457059600E+02  0.34950979750E+02  0.51100000000E-03 0. -1.
         22    1    1    0    0    0  0.21202694832E+02 -0.46892242993E+01 -0.20733008058E+02  0.30023336187E+02  0.00000000000E+00 0.  1.
</event>
<event>
 5    1  0.1717518E-003  0.9118800E+02  0.7818608E-02  0.1130116E+00
         25   -1    0    0    0    0  0.00000000000E+00  0.00000000000E+00  0.99999998245E-14  0.12500000000E+03  0.12500000000E+03 0.  0.
        -11    1    3    3    0    0  0.33115180697E+02  0.14277235304E+00  0.47117510393E+01  0.33449008575E+02  0.51100000000E-03 0. -1.
         23    2    1    0    0    0 -0.25123987530E+02 -0.11391192432E+02 -0.11684324287E+02  0.95041738227E+02  0.90196643821E+02 0.  0.
         11    1    3    3    0    0 -0.58239168227E+02 -0.11533964785E+02 -0.16396075327E+02  0.61592729651E+02  0.51100000000E-03 0.  1.
         22    1    1    0    0    0  0.25123987530E+02  0.11391192432E+02  0.11684324287E+02  0.29958261773E+02  0.00000000000E+00 0.  1.
</event>
<event>
 5    1  0.1717518E-003  0.9118800E+02  0.7818608E-02  0.1130116E+00
         25   -1    0    0    0    0  0.00000000000E+00  0.00000000000E+00  0.99999998245E-14  0.12500000000E+03  0.12500000000E+03 0.  0.
        -11    1    3    3    0    0  0.22714397811E+02 -0.17277409810E+02  0.19614032979E+02  0.34628933677E+02  0.51100000000E-03 0.  1.
         23    2    1    0    0    0 -0.27207058798E+02  0.87122075923E+01 -0.48954960310E+01  0.96015650931E+02  0.91536401135E+02 0.  0.
         11    1    3    3    0    0 -0.49921456609E+02  0.25989617402E+02 -0.24509529010E+02  0.61386717254E+02  0.51100000000E-03 0. -1.
         22    1    1    0    0    0  0.27207058798E+02 -0.87122075923E+01  0.48954960310E+01  0.28984349069E+02  0.00000000000E+00 0. -1.
</event>
<event>
 5    1  0.1717518E-003  0.9118800E+02  0.7818608E-02  0.1130116E+00
         25   -1    0    0    0    0  0.00000000000E+00  0.00000000000E+00  0.99999998245E-14  0.12500000000E+03  0.12500000000E+03 0.  0.
        -11    1    3    3    0    0 -0.16905685432E+01 -0.23807721954E+02 -0.23583666293E+02  0.33553762274E+02  0.51100000000E-03 0. -1.
         23    2    1    0    0    0  0.11315700056E+02  0.23048391340E+02  0.14673361779E+02  0.95426685052E+02  0.90728558144E+02 0.  0.
         11    1    3    3    0    0  0.13006268599E+02  0.46856113294E+02  0.38257028072E+02  0.61872922778E+02  0.51100000000E-03 0.  1.
         22    1    1    0    0    0 -0.11315700056E+02 -0.23048391340E+02 -0.14673361779E+02  0.29573314948E+02  0.00000000000E+00 0.  1.
</event>
<event>
 5    1  0.1717518E-003  0.9118800E+02  0.7818608E-02  0.1130116E+00
         25   -1    0    0    0    0  0.00000000000E+00  0.00000000000E+00  0.99999998245E-14  0.12500000000E+03  0.12500000000E+03 0.  0.
        -11    1    3    3    0    0 -0.57440610611E+01  0.33855668002E+02  0.37642750893E+02  0.50952695595E+02  0.51100000000E-03 0. -1.
         23    2    1    0    0    0  0.21755001542E+02  0.19495752042E+02  0.61732715931E+01  0.95142442800E+02  0.90336098543E+02 0.  0.
         11    1    3    3    0    0  0.27499062603E+02 -0.14359915959E+02 -0.31469479300E+02  0.44189747205E+02  0.51100000000E-03 0.  1.
         22    1    1    0    0    0 -0.21755001542E+02 -0.19495752042E+02 -0.61732715931E+01  0.29857557200E+02  0.00000000000E+00 0. -1.
</event>
<event>
 5    1  0.1717518E-003  0.9118800E+02  0.7818608E-02  0.1130116E+00
         25   -1    0    0    0    0  0.00000000000E+00  0.00000000000E+00  0.99999998245E-14  0.12500000000E+03  0.12500000000E+03 0.  0.
        -11    1    3    3    0    0  0.49160457114E+02  0.11108225596E+02  0.90756970330E+01  0.51210462764E+02  0.51100000000E-03 0. -1.
         23    2    1    0    0    0  0.10843950150E+02 -0.61346488087E+00  0.27589055231E+02  0.95349982082E+02  0.90622820086E+02 0.  0.
         11    1    3    3    0    0 -0.38316506964E+02 -0.11721690477E+02  0.18513358198E+02  0.44139519318E+02  0.51100000000E-03 0.  1.
         22    1    1    0    0    0 -0.10843950150E+02  0.61346488087E+00 -0.27589055231E+02  0.29650017918E+02  0.00000000000E+00 0.  1.
</event>
<event>
 5    1  0.1717518E-003  0.9118800E+02  0.7818608E-02  0.1130116E+00
         25   -1    0    0    0    0  0.00000000000E+00  0.00000000000E+00  0.99999998245E-14  0.12500000000E+03  0.12500000000E+03 0.  0.
        -11    1    3    3    0    0 -0.15793967896E+02  0.29252221764E+02 -0.12696798314E+02  0.35585820037E+02  0.51100000000E-03 0. -1.
         23    2    1    0    0    0  0.25391179551E+02 -0.13732011147E+02 -0.20502283394E+01  0.96060691692E+02  0.91597887110E+02 0.  0.
         11    1    3    3    0    0  0.41185147447E+02 -0.42984232911E+02  0.10646569974E+02  0.60474871655E+02  0.51100000000E-03 0.  1.
         22    1    1    0    0    0 -0.25391179551E+02  0.13732011147E+02  0.20502283394E+01  0.28939308308E+02  0.00000000000E+00 0.  1.
</event>
<event>
 5    1  0.1717518E-003  0.9118800E+02  0.7818608E-02  0.1130116E+00
         25   -1    0    0    0    0  0.00000000000E+00  0.00000000000E+00  0.99999998245E-14  0.12500000000E+03  0.12500000000E+03 0.  0.
        -11    1    3    3    0    0 -0.38771786266E+02 -0.30329294356E+02 -0.35023004811E+01  0.49349606030E+02  0.51100000000E-03 0. -1.
         23    2    1    0    0    0  0.31466487588E+01 -0.21146703468E+02 -0.20381250441E+02  0.95462230357E+02  0.90777516981E+02 0.  0.
         11    1    3    3    0    0  0.41918435025E+02  0.91825908880E+01 -0.16878949959E+02  0.46112624327E+02  0.51100000000E-03 0.  1.
         22    1    1    0    0    0 -0.31466487588E+01  0.21146703468E+02  0.20381250441E+02  0.29537769643E+02  0.00000000000E+00 0. -1.
</event>
<event>
 5    1  0.1717518E-003  0.9118800E+02  0.7818608E-02  0.1130116E+00
         25   -1    0    0    0    0  0.00000000000E+00  0.00000000000E+00  0.99999998245E-14  0.12500000000E+03  0.12500000000E+03 0.  0.
        -11    1    3    3    0    0 -0.15798527994E+01 -0.55823360863E+02  0.16679757383E+02  0.58283426971E+02  0.51100000000E-03 0.  1.
         23    2    1    0    0    0 -0.88295774595E+00 -0.18736143370E+02  0.22365377587E+02  0.95810399156E+02  0.91255683599E+02 0.  0.
         11    1    3    3    0    0  0.69689505344E+00  0.37087217492E+02  0.56856202042E+01  0.37526972185E+02  0.51100000000E-03 0. -1.
         22    1    1    0    0    0  0.88295774595E+00  0.18736143370E+02 -0.22365377587E+02  0.29189600844E+02  0.00000000000E+00 0.  1.
</event>
<event>
 5    1  0.1717518E-003  0.9118800E+02  0.7818608E-02  0.1130116E+00
         25   -1    0    0    0    0  0.00000000000E+00  0.00000000000E+00  0.99999998245E-14  0.12500000000E+03  0.12500000000E+03 0.  0.
        -11    1    3    3    0    0  0.11844393913E+02  0.12139837818E+02  0.21475342134E+02  0.27365227013E+02  0.51100000000E-03 0.  1.
         23    2    1    0    0    0 -0.39418617264E+02  0.18567926790E+02  0.10386919090E+02  0.80206212702E+02  0.66532346837E+02 0.  0.
         11    1    3    3    0    0 -0.51263011177E+02  0.64280889715E+01 -0.11088423044E+02  0.52840985689E+02  0.51100000000E-03 0. -1.
         22    1    1    0    0    0  0.39418617264E+02 -0.18567926790E+02 -0.10386919090E+02  0.44793787298E+02  0.00000000000E+00 0. -1.
</event>
<event>
 5    1  0.1717518E-003  0.9118800E+02  0.7818608E-02  0.1130116E+00
         25   -1    0    0    0    0  0.00000000000E+00  0.00000000000E+00  0.99999998245E-14  0.12500000000E+03  0.12500000000E+03 0.  0.
        -11    1    3    3    0    0 -0.38864228230E+02  0.12227939702E+02  0.43667201689E+02  0.59722485288E+02  0.51100000000E-03 0.  1.
         23    2    1    0    0    0 -0.22571778344E+02  0.15511456555E+02  0.12824088471E+02  0.94758510169E+02  0.89803271334E+02 0.  0.
         11    1    3    3    0    0  0.16292449887E+02  0.32835168531E+01 -0.30843113218E+02  0.35036024882E+02  0.51100000000E-03 0. -1.
         22    1    1    0    0    0  0.22571778344E+02 -0.15511456555E+02 -0.12824088471E+02  0.30241489831E+02  0.00000000000E+00 0.  1.
</event>
<event>
 5    1  0.1717518E-003  0.9118800E+02  0.7818608E-02  0.1130116E+00
         25   -1    0    0    0    0  0.00000000000E+00  0.00000000000E+00  0.99999998245E-14  0.12500000000E+03  0.12500000000E+03 0.  0.
        -11    1    3    3    0    0  0.11243793175E+02  0.43301284168E+02  0.23442626182E+01  0.44798656933E+02  0.51100000000E-03 0. -1.
         23    2    1    0    0    0 -0.27511376297E+02  0.12371907633E+02 -0.30767769673E+01  0.94678283677E+02  0.89691532038E+02 0.  0.
         11    1    3    3    0    0 -0.38755169472E+02 -0.30929376535E+02 -0.54210395855E+01  0.49879626744E+02  0.51100000000E-03 0.  1.
         22    1    1    0    0    0  0.27511376297E+02 -0.12371907633E+02  0.30767769673E+01  0.30321716323E+02  0.00000000000E+00 0.  1.
</event>
<event>
 5    1  0.1717518E-003  0.9118800E+02  0.7818608E-02  0.1130116E+00
         25   -1    0    0    0    0  0.00000000000E+00  0.00000000000E+00  0.99999998245E-14  0.12500000000E+03  0.12500000000E+03 0.  0.
        -11    1    3    3    0    0 -0.31104964533E+02 -0.44147091462E+02  0.16439352302E+02  0.56451189602E+02  0.51100000000E-03 0.  1.
         23    2    1    0    0    0 -0.60031648524E+01 -0.27589923018E+02 -0.84945028317E+01  0.95514437113E+02  0.90849376874E+02 0.  0.
         11    1    3    3    0    0  0.25101799680E+02  0.16557168444E+02 -0.24933855133E+02  0.39063247511E+02  0.51100000000E-03 0. -1.
         22    1    1    0    0    0  0.60031648524E+01  0.27589923018E+02  0.84945028317E+01  0.29485562887E+02  0.00000000000E+00 0.  1.
</event>
<event>
 5    1  0.1717518E-003  0.9118800E+02  0.7818608E-02  0.1130116E+00
         25   -1    0    0    0    0  0.00000000000E+00  0.00000000000E+00  0.99999998245E-14  0.12500000000E+03  0.12500000000E+03 0.  0.
        -11    1    3    3    0    0  0.36583393645E+02 -0.20870865078E+02 -0.22572741598E+01  0.42178584454E+02  0.51100000000E-03 0.  1.
         23    2    1    0    0    0 -0.71469549263E+01 -0.22143147612E+01 -0.27842661413E+02  0.96169530889E+02  0.91746295415E+02 0.  0.
         11    1    3    3    0    0 -0.43730348571E+02  0.18656550317E+02 -0.25585387253E+02  0.53990946435E+02  0.51100000000E-03 0. -1.
         22    1    1    0    0    0  0.71469549263E+01  0.22143147612E+01  0.27842661413E+02  0.28830469111E+02  0.00000000000E+00 0. -1.
</event>
<event>
 5    1  0.1717518E-003  0.9118800E+02  0.7818608E-02  0.1130116E+00
         25   -1    0    0    0    0  0.00000000000E+00  0.00000000000E+00  0.99999998245E-14  0.12500000000E+03  0.12500000000E+03 0.  0.
        -11    1    3    3    0    0 -0.35196866550E+02  0.35568604142E+01 -0.17194054837E+01  0.35417891332E+02  0.51100000000E-03 0.  1.
         23    2    1    0    0    0  0.11431093393E+02  0.27937709703E+02  0.15868924214E+02  0.90897092861E+02  0.84257184947E+02 0.  0.
         11    1    3    3    0    0  0.46627959943E+02  0.24380849289E+02  0.17588329698E+02  0.55479201529E+02  0.51100000000E-03 0. -1.
         22    1    1    0    0    0 -0.11431093393E+02 -0.27937709703E+02 -0.15868924214E+02  0.34102907139E+02  0.00000000000E+00 0. -1.
</event>
<event>
 5    1  0.1717518E-003  0.9118800E+02  0.7818608E-02  0.1130116E+00
         25   -1    0    0    0    0  0.00000000000E+00  0.00000000000E+00  0.99999998245E-14  0.12500000000E+03  0.12500000000E+03 0.  0.
        -11    1    3    3    0    0 -0.54620777469E+02  0.11662018424E+02 -0.26152401719E+02  0.61671550337E+02  0.51100000000E-03 0. -1.
         23    2    1    0    0    0 -0.22682872568E+02  0.53538090710E+01 -0.18824613550E+02  0.95040993761E+02  0.90195612090E+02 0.  0.
         11    1    3    3    0    0  0.31937904901E+02 -0.63082093529E+01  0.73277881695E+01  0.33369443424E+02  0.51100000000E-03 0.  1.
         22    1    1    0    0    0  0.22682872568E+02 -0.53538090710E+01  0.18824613550E+02  0.29959006239E+02  0.00000000000E+00 0. -1.
</event>
<event>
 5    1  0.1717518E-003  0.9118800E+02  0.7818608E-02  0.1130116E+00
         25   -1    0    0    0    0  0.00000000000E+00  0.00000000000E+00  0.99999998245E-14  0.12500000000E+03  0.12500000000E+03 0.  0.
        -11    1    3    3    0    0 -0.16378200584E+02 -0.24129967700E+02  0.50031681145E+02  0.57910879064E+02  0.51100000000E-03 0.  1.
         23    2    1    0    0    0  0.37378838806E+01 -0.23259399466E+02  0.19840105471E+02  0.94200629479E+02  0.89023352945E+02 0.  0.
         11    1    3    3    0    0  0.20116084464E+02  0.87056823485E+00 -0.30191575673E+02  0.36289750414E+02  0.51100000000E-03 0. -1.
         22    1    1    0    0    0 -0.37378838806E+01  0.23259399466E+02 -0.19840105471E+02  0.30799370521E+02  0.00000000000E+00 0.  1.
</event>
<event>
 5    1  0.1717518E-003  0.9118800E+02  0.7818608E-02  0.1130116E+00
         25   -1    0    0    0    0  0.00000000000E+00  0.00000000000E+00  0.99999998245E-14  0.12500000000E+03  0.12500000000E+03 0.  0.
        -11    1    3    3    0    0 -0.35250332695E+01  0.55135439358E+02  0.48049923867E+01  0.55456563947E+02  0.51100000000E-03 0.  1.
         23    2    1    0    0    0 -0.10979375044E+02  0.33057520990E+02 -0.15974876726E+02  0.86678425701E+02  0.77747066988E+02 0.  0.
         11    1    3    3    0    0 -0.74543417747E+01 -0.22077918368E+02 -0.20779869113E+02  0.31221861754E+02  0.51100000000E-03 0. -1.
         22    1    1    0    0    0  0.10979375044E+02 -0.33057520990E+02  0.15974876726E+02  0.38321574299E+02  0.00000000000E+00 0.  1.
</event>
<event>
 5    1  0.1717518E-003  0.9118800E+02  0.7818608E-02  0.1130116E+00
         25   -1    0    0    0    0  0.00000000000E+00  0.00000000000E+00  0.99999998245E-14  0.12500000000E+03  0.12500000000E+03 0.  0.
        -11    1    3    3    0    0 -0.21904279516E+02 -0.36067586022E+02 -0.22910152166E+01  0.42260110904E+02  0.51100000000E-03 0.  1.
         23    2    1    0    0    0 -0.17532813207E+01  0.40283600647E+01  0.28165251363E+02  0.96494157361E+02  0.92187522693E+02 0.  0.
         11    1    3    3    0    0  0.20150998196E+02  0.40095946087E+02  0.30456266580E+02  0.54234046457E+02  0.51100000000E-03 0. -1.
         22    1    1    0    0    0  0.17532813207E+01 -0.40283600647E+01 -0.28165251363E+02  0.28505842639E+02  0.00000000000E+00 0. -1.
</event>
<event>
 5    1  0.1717518E-003  0.9118800E+02  0.7818608E-02  0.1130116E+00
         25   -1    0    0    0    0  0.00000000000E+00  0.00000000000E+00  0.99999998245E-14  0.12500000000E+03  0.12500000000E+03 0.  0.
        -11    1    3    3    0    0  0.45612803612E+02 -0.19266037363E+02 -0.29766788847E+02  0.57773434790E+02  0.51100000000E-03 0.  1.
         23    2    1    0    0    0  0.39111512743E+02 -0.12289954481E+01 -0.27699493539E+02  0.77057505267E+02  0.60327243571E+02 0.  0.
         11    1    3    3    0    0 -0.65012908685E+01  0.18037041915E+02  0.20672953072E+01  0.19284070477E+02  0.51100000000E-03 0. -1.
         22    1    1    0    0    0 -0.39111512743E+02  0.12289954481E+01  0.27699493539E+02  0.47942494733E+02  0.00000000000E+00 0.  1.
</event>
<event>
 5    1  0.1717518E-003  0.9118800E+02  0.7818608E-02  0.1130116E+00
         25   -1    0    0    0    0  0.00000000000E+00  0.00000000000E+00  0.99999998245E-14  0.12500000000E+03  0.12500000000E+03 0.  0.
        -11    1    3    3    0    0  0.21330241719E+02  0.12614327258E+02 -0.27133209427E+02  0.36746585121E+02  0.51100000000E-03 0. -1.
         23    2    1    0    0    0 -0.20771124636E+02 -0.19948823697E+02 -0.65627153412E+00  0.96193301510E+02  0.91778676051E+02 0.  0.
         11    1    3    3    0    0 -0.42101366354E+02 -0.32563150955E+02  0.26476937893E+02  0.59446716390E+02  0.51100000000E-03 0.  1.
         22    1    1    0    0    0  0.20771124636E+02  0.19948823697E+02  0.65627153412E+00  0.28806698490E+02  0.00000000000E+00 0.  1.
</event>
<event>
 5    1  0.1717518E-003  0.9118800E+02  0.7818608E-02  0.1130116E+00
         25   -1    0    0    0    0  0.00000000000E+00  0.00000000000E+00  0.99999998245E-14  0.12500000000E+03  0.12500000000E+03 0.  0.
        -11    1    3    3    0    0  0.41110602213E+02  0.12581981030E+02 -0.89461368294E+01  0.43913793111E+02  0.51100000000E-03 0.  1.
         23    2    1    0    0    0 -0.51316775946E+01  0.51873277247E+01 -0.29175336696E+02  0.94926045235E+02  0.90036166671E+02 0.  0.
         11    1    3    3    0    0 -0.46242279807E+02 -0.73946533050E+01 -0.20229199867E+02  0.51012252124E+02  0.51100000000E-03 0. -1.
         22    1    1    0    0    0  0.51316775946E+01 -0.51873277247E+01  0.29175336696E+02  0.30073954765E+02  0.00000000000E+00 0.  1.
</event>
<event>
 5    1  0.1717518E-003  0.9118800E+02  0.7818608E-02  0.1130116E+00
         25   -1    0    0    0    0  0.00000000000E+00  0.00000000000E+00  0.99999998245E-14  0.12500000000E+03  0.12500000000E+03 0.  0.
        -11    1    3    3    0    0  0.13863305066E+02 -0.22667586661E+02 -0.59676396285E+01  0.27232764006E+02  0.51100000000E-03 0.  1.
         23    2    1    0    0    0 -0.29423949458E+02  0.20388394612E+02 -0.79954710926E+01  0.88320537155E+02  0.80343850349E+02 0.  0.
         11    1    3    3    0    0 -0.43287254525E+02  0.43055981273E+02 -0.20278314642E+01  0.61087773150E+02  0.51100000000E-03 0. -1.
         22    1    1    0    0    0  0.29423949458E+02 -0.20388394612E+02  0.79954710926E+01  0.36679462845E+02  0.00000000000E+00 0. -1.
</event>
<event>
 5    1  0.1717518E-003  0.9118800E+02  0.7818608E-02  0.1130116E+00
         25   -1    0    0    0    0  0.00000000000E+00  0.00000000000E+00  0.99999998245E-14  0.12500000000E+03  0.12500000000E+03 0.  0.
        -11    1    3    3    0    0 -0.22943807840E+02  0.22348460464E+02  0.22040285301E+02  0.38879894287E+02  0.51100000000E-03 0.  1.
         23    2    1    0    0    0  0.65196714668E+01 -0.25589865960E+02  0.11814182796E+02  0.96070391101E+02  0.91611122553E+02 0.  0.
         11    1    3    3    0    0  0.29463479307E+02 -0.47938326424E+02 -0.10226102505E+02  0.57190496815E+02  0.51100000000E-03 0. -1.
         22    1    1    0    0    0 -0.65196714668E+01  0.25589865960E+02 -0.11814182796E+02  0.28929608899E+02  0.00000000000E+00 0. -1.
</event>
<event>
 5    1  0.1717518E-003  0.9118800E+02  0.7818608E-02  0.1130116E+00
         25   -1    0    0    0    0  0.00000000000E+00  0.00000000000E+00  0.99999998245E-14  0.12500000000E+03  0.12500000000E+03 0.  0.
        -11    1    3    3    0    0 -0.30158118681E+02 -0.67624437719E+01 -0.30712353431E+02  0.43571681419E+02  0.51100000000E-03 0.  1.
         23    2    1    0    0    0 -0.23819948908E+00  0.28878227933E+02 -0.11923586723E+02  0.93756109271E+02  0.88396987039E+02 0.  0.
         11    1    3    3    0    0  0.29919919192E+02  0.35640671705E+02  0.18788766709E+02  0.50184427851E+02  0.51100000000E-03 0. -1.
         22    1    1    0    0    0  0.23819948908E+00 -0.28878227933E+02  0.11923586723E+02  0.31243890729E+02  0.00000000000E+00 0.  1.
</event>
<event>
 5    1  0.1717518E-003  0.9118800E+02  0.7818608E-02  0.1130116E+00
         25   -1    0    0    0    0  0.00000000000E+00  0.00000000000E+00  0.99999998245E-14  0.12500000000E+03  0.12500000000E+03 0.  0.
        -11    1    3    3    0    0  0.85790681912E+01  0.28131258213E+02  0.23904758790E+02  0.37899941857E+02  0.51100000000E-03 0. -1.
         23    2    1    0    0    0  0.12543724714E+00  0.80925645321E+01 -0.28889329131E+02  0.94998355497E+02  0.90136501343E+02 0.  0.
         11    1    3    3    0    0 -0.84536309441E+01 -0.20038693681E+02 -0.52794087921E+02  0.57098413640E+02  0.51100000000E-03 0.  1.
         22    1    1    0    0    0 -0.12543724714E+00 -0.80925645321E+01  0.28889329131E+02  0.30001644503E+02  0.00000000000E+00 0. -1.
</event>
<event>
 5    1  0.1717518E-003  0.9118800E+02  0.7818608E-02  0.1130116E+00
         25   -1    0    0    0    0  0.00000000000E+00  0.00000000000E+00  0.99999998245E-14  0.12500000000E+03  0.12500000000E+03 0.  0.
        -11    1    3    3    0    0 -0.14218896496E+02  0.28915852470E+02 -0.31268982029E+02  0.44900476379E+02  0.51100000000E-03 0.  1.
         23    2    1    0    0    0 -0.28498140653E+02 -0.60523033196E+01  0.27547472837E+01  0.95736318947E+02  0.91154153700E+02 0.  0.
         11    1    3    3    0    0 -0.14279244157E+02 -0.34968155790E+02  0.34023729313E+02  0.50835842568E+02  0.51100000000E-03 0. -1.
         22    1    1    0    0    0  0.28498140653E+02  0.60523033196E+01 -0.27547472837E+01  0.29263681053E+02  0.00000000000E+00 0. -1.
</event>
<event>
 5    1  0.1717518E-003  0.9118800E+02  0.7818608E-02  0.1130116E+00
         25   -1    0    0    0    0  0.00000000000E+00  0.00000000000E+00  0.99999998245E-14  0.12500000000E+03  0.12500000000E+03 0.  0.
        -11    1    3    3    0    0 -0.22490158620E+02  0.28959189754E+02  0.30204442757E+01  0.36790827523E+02  0.51100000000E-03 0.  1.
         23    2    1    0    0    0 -0.55159994170E+01 -0.24279947901E+02 -0.15513455788E+02  0.95663854545E+02  0.91054728797E+02 0.  0.
         11    1    3    3    0    0  0.16974159203E+02 -0.53239137655E+02 -0.18533900063E+02  0.58873027022E+02  0.51100000000E-03 0. -1.
         22    1    1    0    0    0  0.55159994170E+01  0.24279947901E+02  0.15513455788E+02  0.29336145455E+02  0.00000000000E+00 0. -1.
</event>
<event>
 5    1  0.1717518E-003  0.9118800E+02  0.7818608E-02  0.1130116E+00
         25   -1    0    0    0    0  0.00000000000E+00  0.00000000000E+00  0.99999998245E-14  0.12500000000E+03  0.12500000000E+03 0.  0.
        -11    1    3    3    0    0 -0.12649987135E+01  0.26246580767E+02 -0.26467854773E+02  0.37296522094E+02  0.51100000000E-03 0.  1.
         23    2    1    0    0    0 -0.16921815618E+02 -0.19411559754E+02  0.95632917410E+01  0.97529778945E+02  0.93581219997E+02 0.  0.
         11    1    3    3    0    0 -0.15656816904E+02 -0.45658140522E+02  0.36031146514E+02  0.60233256851E+02  0.51100000000E-03 0. -1.
         22    1    1    0    0    0  0.16921815618E+02  0.19411559754E+02 -0.95632917410E+01  0.27470221055E+02  0.00000000000E+00 0. -1.
</event>
<event>
 5    1  0.1717518E-003  0.9118800E+02  0.7818608E-02  0.1130116E+00
         25   -1    0    0    0    0  0.00000000000E+00  0.00000000000E+00  0.99999998245E-14  0.12500000000E+03  0.12500000000E+03 0.  0.
        -11    1    3    3    0    0 -0.23618464776E+02  0.13960547969E+02 -0.55308423189E+02  0.61739375231E+02  0.51100000000E-03 0.  1.
         23    2    1    0    0    0 -0.16671351306E+02  0.91528653396E+01 -0.22893182369E+02  0.95237495111E+02  0.90467528858E+02 0.  0.
         11    1    3    3    0    0  0.69471134706E+01 -0.48076826293E+01  0.32415240820E+02  0.33498119880E+02  0.51100000000E-03 0. -1.
         22    1    1    0    0    0  0.16671351306E+02 -0.91528653396E+01  0.22893182369E+02  0.29762504889E+02  0.00000000000E+00 0.  1.
</event>
<event>
 5    1  0.1717518E-003  0.9118800E+02  0.7818608E-02  0.1130116E+00
         25   -1    0    0    0    0  0.00000000000E+00  0.00000000000E+00  0.99999998245E-14  0.12500000000E+03  0.12500000000E+03 0.  0.
        -11    1    3    3    0    0  0.12308043154E+01  0.17585584846E+02  0.32784736452E+02  0.37223737294E+02  0.51100000000E-03 0.  1.
         23    2    1    0    0    0  0.18802715984E+02 -0.23968937694E+02 -0.24047203026E+01  0.94441289584E+02  0.89360631131E+02 0.  0.
         11    1    3    3    0    0  0.17571911668E+02 -0.41554522540E+02 -0.35189456755E+02  0.57217552291E+02  0.51100000000E-03 0. -1.
         22    1    1    0    0    0 -0.18802715984E+02  0.23968937694E+02  0.24047203026E+01  0.30558710416E+02  0.00000000000E+00 0. -1.
</event>
<event>
 5    1  0.1717518E-003  0.9118800E+02  0.7818608E-02  0.1130116E+00
         25   -1    0    0    0    0  0.00000000000E+00  0.00000000000E+00  0.99999998245E-14  0.12500000000E+03  0.12500000000E+03 0.  0.
        -11    1    3    3    0    0 -0.55042656558E+01 -0.41216736579E+02  0.40641187761E+02  0.58144840334E+02  0.51100000000E-03 0. -1.
         23    2    1    0    0    0  0.21986356149E+01 -0.28314386265E+02  0.59036454698E+01  0.95993250820E+02  0.91505806947E+02 0.  0.
         11    1    3    3    0    0  0.77029012707E+01  0.12902350314E+02 -0.34737542291E+02  0.37848410486E+02  0.51100000000E-03 0.  1.
         22    1    1    0    0    0 -0.21986356149E+01  0.28314386265E+02 -0.59036454698E+01  0.29006749180E+02  0.00000000000E+00 0. -1.
</event>
<event>
 5    1  0.1717518E-003  0.9118800E+02  0.7818608E-02  0.1130116E+00
         25   -1    0    0    0    0  0.00000000000E+00  0.00000000000E+00  0.99999998245E-14  0.12500000000E+03  0.12500000000E+03 0.  0.
        -11    1    3    3    0    0  0.16837530143E+01 -0.14063805509E+02 -0.31549122063E+02  0.34582838993E+02  0.51100000000E-03 0. -1.
         23    2    1    0    0    0 -0.21191661570E+02 -0.87478023982E+00  0.22094393193E+02  0.94372986252E+02  0.89265035501E+02 0.  0.
         11    1    3    3    0    0 -0.22875414584E+02  0.13189025269E+02  0.53643515256E+02  0.59790147259E+02  0.51100000000E-03 0.  1.
         22    1    1    0    0    0  0.21191661570E+02  0.87478023982E+00 -0.22094393193E+02  0.30627013748E+02  0.00000000000E+00 0.  1.
</event>
<event>
 5    1  0.1717518E-003  0.9118800E+02  0.7818608E-02  0.1130116E+00
         25   -1    0    0    0    0  0.00000000000E+00  0.00000000000E+00  0.99999998245E-14  0.12500000000E+03  0.12500000000E+03 0.  0.
        -11    1    3    3    0    0 -0.60577503397E+02 -0.67485950872E+01 -0.18071589590E+01  0.60979039655E+02  0.51100000000E-03 0. -1.
         23    2    1    0    0    0 -0.27192725001E+02 -0.84623731486E+01  0.72491979212E+01  0.95612810227E+02  0.90984628134E+02 0.  0.
         11    1    3    3    0    0  0.33384778396E+02 -0.17137780613E+01  0.90563568803E+01  0.34633770572E+02  0.51100000000E-03 0.  1.
         22    1    1    0    0    0  0.27192725001E+02  0.84623731486E+01 -0.72491979212E+01  0.29387189773E+02  0.00000000000E+00 0. -1.
</event>
<event>
 5    1  0.1717518E-003  0.9118800E+02  0.7818608E-02  0.1130116E+00
         25   -1    0    0    0    0  0.00000000000E+00  0.00000000000E+00  0.99999998245E-14  0.12500000000E+03  0.12500000000E+03 0.  0.
        -11    1    3    3    0    0  0.35712374578E+02 -0.20336029569E+02 -0.21183932636E+01  0.41151128622E+02  0.51100000000E-03 0. -1.
         23    2    1    0    0    0 -0.74215665493E+01 -0.67594260308E+01  0.27847217730E+02  0.95398698921E+02  0.90689992448E+02 0.  0.
         11    1    3    3    0    0 -0.43133941127E+02  0.13576603538E+02  0.29965610993E+02  0.54247570298E+02  0.51100000000E-03 0.  1.
         22    1    1    0    0    0  0.74215665493E+01  0.67594260308E+01 -0.27847217730E+02  0.29601301079E+02  0.00000000000E+00 0.  1.
</event>
<event>
 5    1  0.1717518E-003  0.9118800E+02  0.7818608E-02  0.1130116E+00
         25   -1    0    0    0    0  0.00000000000E+00  0.00000000000E+00  0.99999998245E-14  0.12500000000E+03  0.12500000000E+03 0.  0.
        -11    1    3    3    0    0 -0.22250159900E+02 -0.26844832215E+02  0.22007934301E+02  0.41231829995E+02  0.51100000000E-03 0.  1.
         23    2    1    0    0    0 -0.12965586159E+02 -0.19003224321E+00 -0.25443137029E+02  0.96443113640E+02  0.92118284884E+02 0.  0.
         11    1    3    3    0    0  0.92845737402E+01  0.26654799972E+02 -0.47451071330E+02  0.55211283645E+02  0.51100000000E-03 0. -1.
         22    1    1    0    0    0  0.12965586159E+02  0.19003224321E+00  0.25443137029E+02  0.28556886360E+02  0.00000000000E+00 0. -1.
</event>
<event>
 5    1  0.1717518E-003  0.9118800E+02  0.7818608E-02  0.1130116E+00
         25   -1    0    0    0    0  0.00000000000E+00  0.00000000000E+00  0.99999998245E-14  0.12500000000E+03  0.12500000000E+03 0.  0.
        -11    1    3    3    0    0  0.28818776520E+02 -0.86342255980E+01  0.20802472437E+02  0.36576147850E+02  0.51100000000E-03 0.  1.
         23    2    1    0    0    0  0.26675056234E+02  0.14857116393E+02 -0.23300726705E+02  0.86591454108E+02  0.77607110028E+02 0.  0.
         11    1    3    3    0    0 -0.21437202868E+01  0.23491341991E+02 -0.44103199142E+02  0.50015306258E+02  0.51100000000E-03 0. -1.
         22    1    1    0    0    0 -0.26675056234E+02 -0.14857116393E+02  0.23300726705E+02  0.38408545892E+02  0.00000000000E+00 0. -1.
</event>
<event>
 5    1  0.1717518E-003  0.9118800E+02  0.7818608E-02  0.1130116E+00
         25   -1    0    0    0    0  0.00000000000E+00  0.00000000000E+00  0.99999998245E-14  0.12500000000E+03  0.12500000000E+03 0.  0.
        -11    1    3    3    0    0  0.30841909717E+02 -0.30788410245E+02  0.33450685119E+01  0.43707425960E+02  0.51100000000E-03 0. -1.
         23    2    1    0    0    0  0.17136128102E+02 -0.98396173244E+01 -0.32222156650E+02  0.87201424172E+02  0.78583433643E+02 0.  0.
         11    1    3    3    0    0 -0.13705781615E+02  0.20948792921E+02 -0.35567225162E+02  0.43493998213E+02  0.51100000000E-03 0.  1.
         22    1    1    0    0    0 -0.17136128102E+02  0.98396173244E+01  0.32222156650E+02  0.37798575828E+02  0.00000000000E+00 0. -1.
</event>
<event>
 5    1  0.1717518E-003  0.9118800E+02  0.7818608E-02  0.1130116E+00
         25   -1    0    0    0    0  0.00000000000E+00  0.00000000000E+00  0.99999998245E-14  0.12500000000E+03  0.12500000000E+03 0.  0.
        -11    1    3    3    0    0  0.78762199126E+00  0.38922759847E+02 -0.34986546921E+01  0.39087621665E+02  0.51100000000E-03 0. -1.
         23    2    1    0    0    0 -0.34016790925E+00 -0.24347790333E+01 -0.34265458276E+02  0.90646463151E+02  0.83884538431E+02 0.  0.
         11    1    3    3    0    0 -0.11277899005E+01 -0.41357538881E+02 -0.30766803584E+02  0.51558841486E+02  0.51100000000E-03 0.  1.
         22    1    1    0    0    0  0.34016790925E+00  0.24347790333E+01  0.34265458276E+02  0.34353536849E+02  0.00000000000E+00 0.  1.
</event>
<event>
 5    1  0.1717518E-003  0.9118800E+02  0.7818608E-02  0.1130116E+00
         25   -1    0    0    0    0  0.00000000000E+00  0.00000000000E+00  0.99999998245E-14  0.12500000000E+03  0.12500000000E+03 0.  0.
        -11    1    3    3    0    0 -0.66593016896E+01 -0.43307641355E+02  0.29051655820E+01  0.43912846481E+02  0.51100000000E-03 0.  1.
         23    2    1    0    0    0 -0.16653232782E+02 -0.86852690462E+01  0.30417769614E+02  0.89250807439E+02  0.81778370366E+02 0.  0.
         11    1    3    3    0    0 -0.99939310925E+01  0.34622372309E+02  0.27512604032E+02  0.45337960958E+02  0.51100000000E-03 0. -1.
         22    1    1    0    0    0  0.16653232782E+02  0.86852690462E+01 -0.30417769614E+02  0.35749192561E+02  0.00000000000E+00 0. -1.
</event>
<event>
 5    1  0.1717518E-003  0.9118800E+02  0.7818608E-02  0.1130116E+00
         25   -1    0    0    0    0  0.00000000000E+00  0.00000000000E+00  0.99999998245E-14  0.12500000000E+03  0.12500000000E+03 0.  0.
        -11    1    3    3    0    0 -0.27102517798E+02 -0.26797569299E+01 -0.13684499580E+02  0.30479388071E+02  0.51100000000E-03 0.  1.
         23    2    1    0    0    0 -0.27770636819E+02  0.75643142075E+01  0.34686035915E+02  0.79927300877E+02  0.66006251364E+02 0.  0.
         11    1    3    3    0    0 -0.66811902157E+00  0.10244071137E+02  0.48370535495E+02  0.49447912805E+02  0.51100000000E-03 0. -1.
         22    1    1    0    0    0  0.27770636819E+02 -0.75643142075E+01 -0.34686035915E+02  0.45072699123E+02  0.00000000000E+00 0. -1.
</event>
<event>
 5    1  0.1717518E-003  0.9118800E+02  0.7818608E-02  0.1130116E+00
         25   -1    0    0    0    0  0.00000000000E+00  0.00000000000E+00  0.99999998245E-14  0.12500000000E+03  0.12500000000E+03 0.  0.
        -11    1    3    3    0    0  0.25683709266E+02  0.15789110355E+02 -0.36953361866E+02  0.47691717110E+02  0.51100000000E-03 0.  1.
         23    2    1    0    0    0 -0.71525354130E+01  0.30194434625E+02 -0.10533796524E+02  0.92230753528E+02  0.86213040672E+02 0.  0.
         11    1    3    3    0    0 -0.32836244679E+02  0.14405324270E+02  0.26419565342E+02  0.44539036418E+02  0.51100000000E-03 0. -1.
         22    1    1    0    0    0  0.71525354130E+01 -0.30194434625E+02  0.10533796524E+02  0.32769246472E+02  0.00000000000E+00 0.  1.
</event>
<event>
 5    1  0.1717518E-003  0.9118800E+02  0.7818608E-02  0.1130116E+00
         25   -1    0    0    0    0  0.00000000000E+00  0.00000000000E+00  0.99999998245E-14  0.12500000000E+03  0.12500000000E+03 0.  0.
        -11    1    3    3    0    0  0.17273528719E+02  0.55294818443E+02  0.21053836218E+01  0.57968304974E+02  0.51100000000E-03 0.  1.
         23    2    1    0    0    0  0.11223627342E+02  0.23448139881E+02 -0.15375444632E+02  0.94797527051E+02  0.89857563749E+02 0.  0.
         11    1    3    3    0    0 -0.60499013778E+01 -0.31846678562E+02 -0.17480828254E+02  0.36829222078E+02  0.51100000000E-03 0. -1.
         22    1    1    0    0    0 -0.11223627342E+02 -0.23448139881E+02  0.15375444632E+02  0.30202472949E+02  0.00000000000E+00 0.  1.
</event>
<event>
 5    1  0.1717518E-003  0.9118800E+02  0.7818608E-02  0.1130116E+00
         25   -1    0    0    0    0  0.00000000000E+00  0.00000000000E+00  0.99999998245E-14  0.12500000000E+03  0.12500000000E+03 0.  0.
        -11    1    3    3    0    0 -0.44413039095E+02  0.29346869689E+02 -0.27298732302E+02  0.59824556729E+02  0.51100000000E-03 0.  1.
         23    2    1    0    0    0 -0.18280932499E+02  0.79355721024E+01 -0.24052853753E+02  0.93763713868E+02  0.88407739859E+02 0.  0.
         11    1    3    3    0    0  0.26132106596E+02 -0.21411297587E+02  0.32458785492E+01  0.33939157139E+02  0.51100000000E-03 0. -1.
         22    1    1    0    0    0  0.18280932499E+02 -0.79355721024E+01  0.24052853753E+02  0.31236286132E+02  0.00000000000E+00 0.  1.
</event>
<event>
 5    1  0.1717518E-003  0.9118800E+02  0.7818608E-02  0.1130116E+00
         25   -1    0    0    0    0  0.00000000000E+00  0.00000000000E+00  0.99999998245E-14  0.12500000000E+03  0.12500000000E+03 0.  0.
        -11    1    3    3    0    0  0.17962777345E+02  0.38283338325E+02 -0.44130292903E+02  0.61120848450E+02  0.51100000000E-03 0. -1.
         23    2    1    0    0    0  0.16164333215E+02  0.12941720698E+02 -0.21608380275E+02  0.95071820954E+02  0.90238324665E+02 0.  0.
         11    1    3    3    0    0 -0.17984441296E+01 -0.25341617627E+02  0.22521912628E+02  0.33950972504E+02  0.51100000000E-03 0.  1.
         22    1    1    0    0    0 -0.16164333215E+02 -0.12941720698E+02  0.21608380275E+02  0.29928179046E+02  0.00000000000E+00 0. -1.
</event>
<event>
 5    1  0.1717518E-003  0.9118800E+02  0.7818608E-02  0.1130116E+00
         25   -1    0    0    0    0  0.00000000000E+00  0.00000000000E+00  0.99999998245E-14  0.12500000000E+03  0.12500000000E+03 0.  0.
        -11    1    3    3    0    0 -0.10487076651E+02 -0.31528224050E+02 -0.27616143504E+02  0.43204850083E+02  0.51100000000E-03 0.  1.
         23    2    1    0    0    0 -0.28343166426E+02  0.64813668960E+01  0.38376574238E+01  0.95673036053E+02  0.91067332305E+02 0.  0.
         11    1    3    3    0    0 -0.17856089775E+02  0.38009590946E+02  0.31453800927E+02  0.52468185970E+02  0.51100000000E-03 0. -1.
         22    1    1    0    0    0  0.28343166426E+02 -0.64813668960E+01 -0.38376574238E+01  0.29326963947E+02  0.00000000000E+00 0.  1.
</event>
<event>
 5    1  0.1717518E-003  0.9118800E+02  0.7818608E-02  0.1130116E+00
         25   -1    0    0    0    0  0.00000000000E+00  0.00000000000E+00  0.99999998245E-14  0.12500000000E+03  0.12500000000E+03 0.  0.
        -11    1    3    3    0    0 -0.52855221365E+02 -0.96390248785E+01  0.45779982111E+01  0.53921640313E+02  0.51100000000E-03 0.  1.
         23    2    1    0    0    0 -0.19504232677E+02  0.52476735426E+01 -0.18899039067E+02  0.97339073631E+02  0.93326140003E+02 0.  0.
         11    1    3    3    0    0  0.33350988688E+02  0.14886698421E+02 -0.23477037278E+02  0.43417433318E+02  0.51100000000E-03 0. -1.
         22    1    1    0    0    0  0.19504232677E+02 -0.52476735426E+01  0.18899039067E+02  0.27660926369E+02  0.00000000000E+00 0.  1.
</event>
<event>
 5    1  0.1717518E-003  0.9118800E+02  0.7818608E-02  0.1130116E+00
         25   -1    0    0    0    0  0.00000000000E+00  0.00000000000E+00  0.99999998245E-14  0.12500000000E+03  0.12500000000E+03 0.  0.
        -11    1    3    3    0    0 -0.64746765642E+01  0.31939857349E+02 -0.50291135859E+02  0.59927241472E+02  0.51100000000E-03 0. -1.
         23    2    1    0    0    0  0.51483545267E+01  0.56861613387E+01 -0.27101122530E+02  0.96834261461E+02  0.92647532968E+02 0.  0.
         11    1    3    3    0    0  0.11623031091E+02 -0.26253696011E+02  0.23190013330E+02  0.36907019989E+02  0.51100000000E-03 0.  1.
         22    1    1    0    0    0 -0.51483545267E+01 -0.56861613387E+01  0.27101122530E+02  0.28165738539E+02  0.00000000000E+00 0. -1.
</event>
<event>
 5    1  0.1717518E-003  0.9118800E+02  0.7818608E-02  0.1130116E+00
         25   -1    0    0    0    0  0.00000000000E+00  0.00000000000E+00  0.99999998245E-14  0.12500000000E+03  0.12500000000E+03 0.  0.
        -11    1    3    3    0    0 -0.25249108192E+02 -0.46689408738E+01  0.35207217131E+02  0.43575963693E+02  0.51100000000E-03 0.  1.
         23    2    1    0    0    0 -0.37676791669E+00 -0.30350720608E+02 -0.12279599994E+01  0.94622111969E+02  0.89613213268E+02 0.  0.
         11    1    3    3    0    0  0.24872340275E+02 -0.25681779734E+02 -0.36435177130E+02  0.51046148276E+02  0.51100000000E-03 0. -1.
         22    1    1    0    0    0  0.37676791669E+00  0.30350720608E+02  0.12279599994E+01  0.30377888031E+02  0.00000000000E+00 0. -1.
</event>
<event>
 5    1  0.1717518E-003  0.9118800E+02  0.7818608E-02  0.1130116E+00
         25   -1    0    0    0    0  0.00000000000E+00  0.00000000000E+00  0.99999998245E-14  0.12500000000E+03  0.12500000000E+03 0.  0.
        -11    1    3    3    0    0 -0.14469182147E+02  0.93330081505E+01  0.37564803622E+02  0.41322835631E+02  0.51100000000E-03 0. -1.
         23    2    1    0    0    0 -0.19296306677E+02  0.16419605888E+02 -0.15647073302E+02  0.95221118023E+02  0.90444897621E+02 0.  0.
         11    1    3    3    0    0 -0.48271245298E+01  0.70865977377E+01 -0.53211876924E+02  0.53898282392E+02  0.51100000000E-03 0.  1.
         22    1    1    0    0    0  0.19296306677E+02 -0.16419605888E+02  0.15647073302E+02  0.29778881977E+02  0.00000000000E+00 0.  1.
</event>
<event>
 5    1  0.1717518E-003  0.9118800E+02  0.7818608E-02  0.1130116E+00
         25   -1    0    0    0    0  0.00000000000E+00  0.00000000000E+00  0.99999998245E-14  0.12500000000E+03  0.12500000000E+03 0.  0.
        -11    1    3    3    0    0 -0.17447446577E+02 -0.92827954700E+01 -0.41548176789E+02  0.46009071698E+02  0.51100000000E-03 0. -1.
         23    2    1    0    0    0 -0.14652852129E+02  0.95849581424E+01  0.12606515920E+02  0.10342451063E+03  0.10114903685E+03 0.  0.
         11    1    3    3    0    0  0.27945944481E+01  0.18867753612E+02  0.54154692709E+02  0.57415438927E+02  0.51100000000E-03 0.  1.
         22    1    1    0    0    0  0.14652852129E+02 -0.95849581424E+01 -0.12606515920E+02  0.21575489375E+02  0.00000000000E+00 0.  1.
</event>
<event>
 5    1  0.1717518E-003  0.9118800E+02  0.7818608E-02  0.1130116E+00
         25   -1    0    0    0    0  0.00000000000E+00  0.00000000000E+00  0.99999998245E-14  0.12500000000E+03  0.12500000000E+03 0.  0.
        -11    1    3    3    0    0 -0.22023141893E+02 -0.15615919359E+02 -0.40229292632E+02  0.48448650159E+02  0.51100000000E-03 0.  1.
         23    2    1    0    0    0 -0.26980236510E+02  0.71833520895E+01  0.23288440691E+01  0.96982911927E+02  0.92847875483E+02 0.  0.
         11    1    3    3    0    0 -0.49570946170E+01  0.22799271448E+02  0.42558136702E+02  0.48534261768E+02  0.51100000000E-03 0. -1.
         22    1    1    0    0    0  0.26980236510E+02 -0.71833520895E+01 -0.23288440691E+01  0.28017088073E+02  0.00000000000E+00 0. -1.
</event>
<event>
 5    1  0.1717518E-003  0.9118800E+02  0.7818608E-02  0.1130116E+00
         25   -1    0    0    0    0  0.00000000000E+00  0.00000000000E+00  0.99999998245E-14  0.12500000000E+03  0.12500000000E+03 0.  0.
        -11    1    3    3    0    0  0.19941668408E+02 -0.30214674565E+02 -0.22908757936E+01  0.36274575258E+02  0.51100000000E-03 0.  1.
         23    2    1    0    0    0  0.21486978726E+02  0.23104179511E+02  0.11581370683E+02  0.91390157505E+02  0.84985524511E+02 0.  0.
         11    1    3    3    0    0  0.15453103174E+01  0.53318854076E+02  0.13872246476E+02  0.55115582248E+02  0.51100000000E-03 0. -1.
         22    1    1    0    0    0 -0.21486978726E+02 -0.23104179511E+02 -0.11581370683E+02  0.33609842495E+02  0.00000000000E+00 0. -1.
</event>
<event>
 5    1  0.1717518E-003  0.9118800E+02  0.7818608E-02  0.1130116E+00
         25   -1    0    0    0    0  0.00000000000E+00  0.00000000000E+00  0.99999998245E-14  0.12500000000E+03  0.12500000000E+03 0.  0.
        -11    1    3    3    0    0 -0.25540975179E+02 -0.30652051604E+02 -0.91557704627E+01  0.40935532409E+02  0.51100000000E-03 0.  1.
         23    2    1    0    0    0  0.23957866754E+02 -0.23074947381E+02 -0.63409141747E+00  0.91730875455E+02  0.85485196753E+02 0.  0.
         11    1    3    3    0    0  0.49498841933E+02  0.75771042228E+01  0.85216790452E+01  0.50795343046E+02  0.51100000000E-03 0. -1.
         22    1    1    0    0    0 -0.23957866754E+02  0.23074947381E+02  0.63409141747E+00  0.33269124545E+02  0.00000000000E+00 0. -1.
</event>
<event>
 5    1  0.1717518E-003  0.9118800E+02  0.7818608E-02  0.1130116E+00
         25   -1    0    0    0    0  0.00000000000E+00  0.00000000000E+00  0.99999998245E-14  0.12500000000E+03  0.12500000000E+03 0.  0.
        -11    1    3    3    0    0 -0.53674085012E+02  0.11484515356E+02  0.14228691293E+02  0.56703237571E+02  0.51100000000E-03 0.  1.
         23    2    1    0    0    0 -0.20110791555E+02  0.18871236912E+02 -0.62685351158E+01  0.96718167456E+02  0.92490766372E+02 0.  0.
         11    1    3    3    0    0  0.33563293457E+02  0.73867215559E+01 -0.20497226409E+02  0.40014929886E+02  0.51100000000E-03 0. -1.
         22    1    1    0    0    0  0.20110791555E+02 -0.18871236912E+02  0.62685351158E+01  0.28281832544E+02  0.00000000000E+00 0.  1.
</event>
<event>
 5    1  0.1717518E-003  0.9118800E+02  0.7818608E-02  0.1130116E+00
         25   -1    0    0    0    0  0.00000000000E+00  0.00000000000E+00  0.99999998245E-14  0.12500000000E+03  0.12500000000E+03 0.  0.
        -11    1    3    3    0    0  0.14535666317E+02  0.12418002077E+02 -0.59466356631E+02  0.62463909116E+02  0.51100000000E-03 0.  1.
         23    2    1    0    0    0  0.49720953402E+01  0.58142668097E+01 -0.26436966098E+02  0.97478361112E+02  0.93512514019E+02 0.  0.
         11    1    3    3    0    0 -0.95635709767E+01 -0.66037352670E+01  0.33029390533E+02  0.35014451996E+02  0.51100000000E-03 0. -1.
         22    1    1    0    0    0 -0.49720953402E+01 -0.58142668097E+01  0.26436966098E+02  0.27521638888E+02  0.00000000000E+00 0.  1.
</event>
<event>
 5    1  0.1717518E-003  0.9118800E+02  0.7818608E-02  0.1130116E+00
         25   -1    0    0    0    0  0.00000000000E+00  0.00000000000E+00  0.99999998245E-14  0.12500000000E+03  0.12500000000E+03 0.  0.
        -11    1    3    3    0    0  0.15065670624E+02  0.54977116616E+02  0.22342787712E+02  0.61226284762E+02  0.51100000000E-03 0. -1.
         23    2    1    0    0    0 -0.16327765198E+01  0.26472861953E+02  0.12369928960E+02  0.95734089428E+02  0.91151096301E+02 0.  0.
         11    1    3    3    0    0 -0.16698447144E+02 -0.28504254663E+02 -0.99728587518E+01  0.34507804666E+02  0.51100000000E-03 0.  1.
         22    1    1    0    0    0  0.16327765198E+01 -0.26472861953E+02 -0.12369928960E+02  0.29265910572E+02  0.00000000000E+00 0. -1.
</event>
<event>
 5    1  0.1717518E-003  0.9118800E+02  0.7818608E-02  0.1130116E+00
         25   -1    0    0    0    0  0.00000000000E+00  0.00000000000E+00  0.99999998245E-14  0.12500000000E+03  0.12500000000E+03 0.  0.
        -11    1    3    3    0    0  0.93129009400E+01  0.29466620263E+02  0.17896181862E+02  0.35711134946E+02  0.51100000000E-03 0.  1.
         23    2    1    0    0    0  0.91837892828E+01 -0.27879328631E+02  0.48185899718E+00  0.95643039350E+02  0.91026149196E+02 0.  0.
         11    1    3    3    0    0 -0.12911165717E+00 -0.57345948894E+02 -0.17414322865E+02  0.59931904404E+02  0.51100000000E-03 0. -1.
         22    1    1    0    0    0 -0.91837892828E+01  0.27879328631E+02 -0.48185899718E+00  0.29356960650E+02  0.00000000000E+00 0. -1.
</event>
<event>
 5    1  0.1717518E-003  0.9118800E+02  0.7818608E-02  0.1130116E+00
         25   -1    0    0    0    0  0.00000000000E+00  0.00000000000E+00  0.99999998245E-14  0.12500000000E+03  0.12500000000E+03 0.  0.
        -11    1    3    3    0    0 -0.16086271530E+02 -0.77720967178E+01 -0.25425791659E+00  0.17867240035E+02  0.51100000000E-03 0. -1.
         23    2    1    0    0    0  0.22501385974E+02 -0.17758143259E+02 -0.41069461441E+02  0.74916422993E+02  0.55714502136E+02 0.  0.
         11    1    3    3    0    0  0.38587657504E+02 -0.99860465417E+01 -0.40815203524E+02  0.57049182958E+02  0.51100000000E-03 0.  1.
         22    1    1    0    0    0 -0.22501385974E+02  0.17758143259E+02  0.41069461441E+02  0.50083577007E+02  0.00000000000E+00 0.  1.
</event>
<event>
 5    1  0.1717518E-003  0.9118800E+02  0.7818608E-02  0.1130116E+00
         25   -1    0    0    0    0  0.00000000000E+00  0.00000000000E+00  0.99999998245E-14  0.12500000000E+03  0.12500000000E+03 0.  0.
        -11    1    3    3    0    0  0.51891543641E+01 -0.42973012377E+02 -0.54361335548E+01  0.43625206750E+02  0.51100000000E-03 0.  1.
         23    2    1    0    0    0  0.28583052969E+02 -0.11500735137E+02  0.18007880775E+02  0.89313285445E+02  0.81873813647E+02 0.  0.
         11    1    3    3    0    0  0.23393898605E+02  0.31472277239E+02  0.23444014330E+02  0.45688078694E+02  0.51100000000E-03 0. -1.
         22    1    1    0    0    0 -0.28583052969E+02  0.11500735137E+02 -0.18007880775E+02  0.35686714555E+02  0.00000000000E+00 0.  1.
</event>
<event>
 5    1  0.1717518E-003  0.9118800E+02  0.7818608E-02  0.1130116E+00
         25   -1    0    0    0    0  0.00000000000E+00  0.00000000000E+00  0.99999998245E-14  0.12500000000E+03  0.12500000000E+03 0.  0.
        -11    1    3    3    0    0  0.26079358327E+02  0.16016003655E+02  0.44226343209E+02  0.53783033921E+02  0.51100000000E-03 0.  1.
         23    2    1    0    0    0  0.12219023691E+02  0.24939430059E+02  0.44057507931E+01  0.96880783231E+02  0.92710278868E+02 0.  0.
         11    1    3    3    0    0 -0.13860334636E+02  0.89234264036E+01 -0.39820592416E+02  0.43097749310E+02  0.51100000000E-03 0. -1.
         22    1    1    0    0    0 -0.12219023691E+02 -0.24939430059E+02 -0.44057507931E+01  0.28119216769E+02  0.00000000000E+00 0.  1.
</event>
<event>
 5    1  0.1717518E-003  0.9118800E+02  0.7818608E-02  0.1130116E+00
         25   -1    0    0    0    0  0.00000000000E+00  0.00000000000E+00  0.99999998245E-14  0.12500000000E+03  0.12500000000E+03 0.  0.
        -11    1    3    3    0    0 -0.21812665030E+02  0.99609409959E+01  0.30887175865E+02  0.39102817475E+02  0.51100000000E-03 0.  1.
         23    2    1    0    0    0  0.35476444371E+00  0.21386465546E+02 -0.19964808841E+02  0.95740807283E+02  0.91160308363E+02 0.  0.
         11    1    3    3    0    0  0.22167429474E+02  0.11425524550E+02 -0.50851984707E+02  0.56637989809E+02  0.51100000000E-03 0. -1.
         22    1    1    0    0    0 -0.35476444371E+00 -0.21386465546E+02  0.19964808841E+02  0.29259192717E+02  0.00000000000E+00 0. -1.
</event>
<event>
 5    1  0.1717518E-003  0.9118800E+02  0.7818608E-02  0.1130116E+00
         25   -1    0    0    0    0  0.00000000000E+00  0.00000000000E+00  0.99999998245E-14  0.12500000000E+03  0.12500000000E+03 0.  0.
        -11    1    3    3    0    0 -0.45388030384E+02 -0.33091158369E+02 -0.24180646072E+02  0.61153918183E+02  0.51100000000E-03 0.  1.
         23    2    1    0    0    0 -0.24768657689E+02 -0.77963012511E+01 -0.14809949430E+02  0.95106801459E+02  0.90286767385E+02 0.  0.
         11    1    3    3    0    0  0.20619372696E+02  0.25294857117E+02  0.93706966426E+01  0.33952883276E+02  0.51100000000E-03 0. -1.
         22    1    1    0    0    0  0.24768657689E+02  0.77963012511E+01  0.14809949430E+02  0.29893198541E+02  0.00000000000E+00 0.  1.
</event>
<event>
 5    1  0.1717518E-003  0.9118800E+02  0.7818608E-02  0.1130116E+00
         25   -1    0    0    0    0  0.00000000000E+00  0.00000000000E+00  0.99999998245E-14  0.12500000000E+03  0.12500000000E+03 0.  0.
        -11    1    3    3    0    0  0.32049013590E+02  0.22498594330E+02  0.11523304075E+02  0.40818042040E+02  0.51100000000E-03 0. -1.
         23    2    1    0    0    0  0.47106234249E+01 -0.24247495741E+02  0.16646945266E+02  0.95213227609E+02  0.90433991963E+02 0.  0.
         11    1    3    3    0    0 -0.27338390165E+02 -0.46746090072E+02  0.51236411906E+01  0.54395185569E+02  0.51100000000E-03 0.  1.
         22    1    1    0    0    0 -0.47106234249E+01  0.24247495741E+02 -0.16646945266E+02  0.29786772391E+02  0.00000000000E+00 0.  1.
</event>
<event>
 5    1  0.1717518E-003  0.9118800E+02  0.7818608E-02  0.1130116E+00
         25   -1    0    0    0    0  0.00000000000E+00  0.00000000000E+00  0.99999998245E-14  0.12500000000E+03  0.12500000000E+03 0.  0.
        -11    1    3    3    0    0 -0.23752159275E+02 -0.33732347869E+02 -0.39981106507E+01  0.41449019916E+02  0.51100000000E-03 0. -1.
         23    2    1    0    0    0  0.22150883313E+02 -0.98693871853E+01  0.14911982772E+02  0.96531883358E+02  0.92238662390E+02 0.  0.
         11    1    3    3    0    0  0.45903042588E+02  0.23862960683E+02  0.18910093423E+02  0.55082863442E+02  0.51100000000E-03 0.  1.
         22    1    1    0    0    0 -0.22150883313E+02  0.98693871853E+01 -0.14911982772E+02  0.28468116642E+02  0.00000000000E+00 0.  1.
</event>
<event>
 5    1  0.1717518E-003  0.9118800E+02  0.7818608E-02  0.1130116E+00
         25   -1    0    0    0    0  0.00000000000E+00  0.00000000000E+00  0.99999998245E-14  0.12500000000E+03  0.12500000000E+03 0.  0.
        -11    1    3    3    0    0 -0.39188160759E+01 -0.73569642204E+01 -0.47686012074E+02  0.48409067226E+02  0.51100000000E-03 0. -1.
         23    2    1    0    0    0 -0.22138868293E+02  0.15048595861E+02 -0.37278312152E+02  0.79105966798E+02  0.64432070426E+02 0.  0.
         11    1    3    3    0    0 -0.18220052218E+02  0.22405560081E+02  0.10407699922E+02  0.30696899571E+02  0.51100000000E-03 0.  1.
         22    1    1    0    0    0  0.22138868293E+02 -0.15048595861E+02  0.37278312152E+02  0.45894033202E+02  0.00000000000E+00 0. -1.
</event>
<event>
 5    1  0.1717518E-003  0.9118800E+02  0.7818608E-02  0.1130116E+00
         25   -1    0    0    0    0  0.00000000000E+00  0.00000000000E+00  0.99999998245E-14  0.12500000000E+03  0.12500000000E+03 0.  0.
        -11    1    3    3    0    0 -0.28244388163E+02  0.72294036611E+01 -0.45158476847E+02  0.53752188527E+02  0.51100000000E-03 0.  1.
         23    2    1    0    0    0 -0.26880954621E+02 -0.59379771314E+00 -0.15607570200E+01  0.98067226665E+02  0.94296376740E+02 0.  0.
         11    1    3    3    0    0  0.13634335425E+01 -0.78232013742E+01  0.43597719827E+02  0.44315038138E+02  0.51100000000E-03 0. -1.
         22    1    1    0    0    0  0.26880954621E+02  0.59379771314E+00  0.15607570200E+01  0.26932773335E+02  0.00000000000E+00 0.  1.
</event>
<event>
 5    1  0.1717518E-003  0.9118800E+02  0.7818608E-02  0.1130116E+00
         25   -1    0    0    0    0  0.00000000000E+00  0.00000000000E+00  0.99999998245E-14  0.12500000000E+03  0.12500000000E+03 0.  0.
        -11    1    3    3    0    0 -0.10727467632E+02 -0.31157826082E+02 -0.22434186950E+02  0.39864538531E+02  0.51100000000E-03 0.  1.
         23    2    1    0    0    0  0.22017508346E+02  0.14101823314E+02 -0.92828568563E+01  0.97254666591E+02  0.93213017588E+02 0.  0.
         11    1    3    3    0    0  0.32744975978E+02  0.45259649396E+02  0.13151330094E+02  0.57390128060E+02  0.51100000000E-03 0. -1.
         22    1    1    0    0    0 -0.22017508346E+02 -0.14101823314E+02  0.92828568563E+01  0.27745333409E+02  0.00000000000E+00 0. -1.
</event>
<event>
 5    1  0.1717518E-003  0.9118800E+02  0.7818608E-02  0.1130116E+00
         25   -1    0    0    0    0  0.00000000000E+00  0.00000000000E+00  0.99999998245E-14  0.12500000000E+03  0.12500000000E+03 0.  0.
        -11    1    3    3    0    0  0.10927038250E+02 -0.95799232531E+01  0.33238889204E+02  0.36276698447E+02  0.51100000000E-03 0. -1.
         23    2    1    0    0    0  0.12008684975E+02  0.20016417575E+02 -0.18043697346E+02  0.95496771341E+02  0.90825067219E+02 0.  0.
         11    1    3    3    0    0  0.10816467249E+01  0.29596340829E+02 -0.51282586550E+02  0.59220072894E+02  0.51100000000E-03 0.  1.
         22    1    1    0    0    0 -0.12008684975E+02 -0.20016417575E+02  0.18043697346E+02  0.29503228659E+02  0.00000000000E+00 0.  1.
</event>
<event>
 5    1  0.1717518E-003  0.9118800E+02  0.7818608E-02  0.1130116E+00
         25   -1    0    0    0    0  0.00000000000E+00  0.00000000000E+00  0.99999998245E-14  0.12500000000E+03  0.12500000000E+03 0.  0.
        -11    1    3    3    0    0 -0.34565388038E+02 -0.39594178662E+02  0.96975695030E+01  0.53446308466E+02  0.51100000000E-03 0.  1.
         23    2    1    0    0    0 -0.88018686515E-01 -0.28477274287E+02 -0.10168757906E+02  0.94761505734E+02  0.89807440858E+02 0.  0.
         11    1    3    3    0    0  0.34477369352E+02  0.11116904374E+02 -0.19866327409E+02  0.41315197268E+02  0.51100000000E-03 0. -1.
         22    1    1    0    0    0  0.88018686515E-01  0.28477274287E+02  0.10168757906E+02  0.30238494266E+02  0.00000000000E+00 0.  1.
</event>
<event>
 5    1  0.1717518E-003  0.9118800E+02  0.7818608E-02  0.1130116E+00
         25   -1    0    0    0    0  0.00000000000E+00  0.00000000000E+00  0.99999998245E-14  0.12500000000E+03  0.12500000000E+03 0.  0.
        -11    1    3    3    0    0 -0.19529560958E+02 -0.29887819818E+02  0.43773732550E+02  0.56487389622E+02  0.51100000000E-03 0.  1.
         23    2    1    0    0    0 -0.65317492964E+00 -0.27075952508E+02  0.84644281431E+01  0.96624299383E+02  0.92363817839E+02 0.  0.
         11    1    3    3    0    0  0.18876386029E+02  0.28118673102E+01 -0.35309304407E+02  0.40136909762E+02  0.51100000000E-03 0. -1.
         22    1    1    0    0    0  0.65317492964E+00  0.27075952508E+02 -0.84644281431E+01  0.28375700617E+02  0.00000000000E+00 0.  1.
</event>
<event>
 5    1  0.1717518E-003  0.9118800E+02  0.7818608E-02  0.1130116E+00
         25   -1    0    0    0    0  0.00000000000E+00  0.00000000000E+00  0.99999998245E-14  0.12500000000E+03  0.12500000000E+03 0.  0.
        -11    1    3    3    0    0 -0.21900091732E+02  0.30597588718E+02 -0.30306380782E+02  0.48314626870E+02  0.51100000000E-03 0.  1.
         23    2    1    0    0    0 -0.89023489426E+01 -0.15156201718E+02 -0.22392564017E+02  0.96532664500E+02  0.92239720972E+02 0.  0.
         11    1    3    3    0    0  0.12997742789E+02 -0.45753790436E+02  0.79138167657E+01  0.48218037630E+02  0.51100000000E-03 0. -1.
         22    1    1    0    0    0  0.89023489426E+01  0.15156201718E+02  0.22392564017E+02  0.28467335500E+02  0.00000000000E+00 0.  1.
</event>
<event>
 5    1  0.1717518E-003  0.9118800E+02  0.7818608E-02  0.1130116E+00
         25   -1    0    0    0    0  0.00000000000E+00  0.00000000000E+00  0.99999998245E-14  0.12500000000E+03  0.12500000000E+03 0.  0.
        -11    1    3    3    0    0 -0.20198878496E+02  0.38627872259E+02  0.24426337872E+02  0.49967521350E+02  0.51100000000E-03 0.  1.
         23    2    1    0    0    0 -0.71572812281E+01 -0.40436360926E+01  0.29033915527E+02  0.94824746592E+02  0.89895420617E+02 0.  0.
         11    1    3    3    0    0  0.13041597268E+02 -0.42671508351E+02  0.46075776554E+01  0.44857225242E+02  0.51100000000E-03 0. -1.
         22    1    1    0    0    0  0.71572812281E+01  0.40436360926E+01 -0.29033915527E+02  0.30175253408E+02  0.00000000000E+00 0.  1.
</event>
<event>
 5    1  0.1717518E-003  0.9118800E+02  0.7818608E-02  0.1130116E+00
         25   -1    0    0    0    0  0.00000000000E+00  0.00000000000E+00  0.99999998245E-14  0.12500000000E+03  0.12500000000E+03 0.  0.
        -11    1    3    3    0    0  0.32060667517E+01  0.44263006664E+02 -0.14262501530E+02  0.46614499601E+02  0.51100000000E-03 0. -1.
         23    2    1    0    0    0  0.34583813106E+01 -0.34786497090E+01 -0.28221275746E+02  0.96355597234E+02  0.91999452762E+02 0.  0.
         11    1    3    3    0    0  0.25231455892E+00 -0.47741656373E+02 -0.13958774216E+02  0.49741097633E+02  0.51100000000E-03 0.  1.
         22    1    1    0    0    0 -0.34583813106E+01  0.34786497090E+01  0.28221275746E+02  0.28644402766E+02  0.00000000000E+00 0.  1.
</event>
<event>
 5    1  0.1717518E-003  0.9118800E+02  0.7818608E-02  0.1130116E+00
         25   -1    0    0    0    0  0.00000000000E+00  0.00000000000E+00  0.99999998245E-14  0.12500000000E+03  0.12500000000E+03 0.  0.
        -11    1    3    3    0    0  0.17167300661E+02  0.12756889313E+02  0.26237692945E+02  0.33850715920E+02  0.51100000000E-03 0.  1.
         23    2    1    0    0    0 -0.40530099535E+01 -0.48316056552E+01 -0.28860727317E+02  0.95458285694E+02  0.90772085045E+02 0.  0.
         11    1    3    3    0    0 -0.21220310615E+02 -0.17588494969E+02 -0.55098420262E+02  0.61607569774E+02  0.51100000000E-03 0. -1.
         22    1    1    0    0    0  0.40530099535E+01  0.48316056552E+01  0.28860727317E+02  0.29541714306E+02  0.00000000000E+00 0. -1.
</event>
<event>
 5    1  0.1717518E-003  0.9118800E+02  0.7818608E-02  0.1130116E+00
         25   -1    0    0    0    0  0.00000000000E+00  0.00000000000E+00  0.99999998245E-14  0.12500000000E+03  0.12500000000E+03 0.  0.
        -11    1    3    3    0    0 -0.36752910684E+02 -0.14812232049E+02  0.30032098830E+02  0.49720273757E+02  0.51100000000E-03 0. -1.
         23    2    1    0    0    0 -0.21481107978E+02 -0.15407851224E+02 -0.13111915206E+02  0.95491319927E+02  0.90817564280E+02 0.  0.
         11    1    3    3    0    0  0.15271802706E+02 -0.59561917432E+00 -0.43144014036E+02  0.45771046170E+02  0.51100000000E-03 0.  1.
         22    1    1    0    0    0  0.21481107978E+02  0.15407851224E+02  0.13111915206E+02  0.29508680073E+02  0.00000000000E+00 0. -1.
</event>
<event>
 5    1  0.1717518E-003  0.9118800E+02  0.7818608E-02  0.1130116E+00
         25   -1    0    0    0    0  0.00000000000E+00  0.00000000000E+00  0.99999998245E-14  0.12500000000E+03  0.12500000000E+03 0.  0.
        -11    1    3    3    0    0  0.44898839687E+01  0.25438780967E+02 -0.52192199930E+02  0.58235009822E+02  0.51100000000E-03 0. -1.
         23    2    1    0    0    0 -0.93231150646E+00  0.25428510543E+02 -0.15758586419E+02  0.95069891428E+02  0.90235651807E+02 0.  0.
         11    1    3    3    0    0 -0.54221954751E+01 -0.10270423918E-01  0.36433613511E+02  0.36834881607E+02  0.51100000000E-03 0.  1.
         22    1    1    0    0    0  0.93231150646E+00 -0.25428510543E+02  0.15758586419E+02  0.29930108572E+02  0.00000000000E+00 0. -1.
</event>
<event>
 5    1  0.1717518E-003  0.9118800E+02  0.7818608E-02  0.1130116E+00
         25   -1    0    0    0    0  0.00000000000E+00  0.00000000000E+00  0.99999998245E-14  0.12500000000E+03  0.12500000000E+03 0.  0.
        -11    1    3    3    0    0  0.10326024059E+02  0.51597394531E+02 -0.33127695529E+02  0.62180078052E+02  0.51100000000E-03 0.  1.
         23    2    1    0    0    0  0.67706557927E+01  0.25528304860E+02 -0.11693671757E+02  0.96116127544E+02  0.91673507002E+02 0.  0.
         11    1    3    3    0    0 -0.35553682660E+01 -0.26069089671E+02  0.21434023772E+02  0.33936049492E+02  0.51100000000E-03 0. -1.
         22    1    1    0    0    0 -0.67706557927E+01 -0.25528304860E+02  0.11693671757E+02  0.28883872456E+02  0.00000000000E+00 0.  1.
</event>
<event>
 5    1  0.1717518E-003  0.9118800E+02  0.7818608E-02  0.1130116E+00
         25   -1    0    0    0    0  0.00000000000E+00  0.00000000000E+00  0.99999998245E-14  0.12500000000E+03  0.12500000000E+03 0.  0.
        -11    1    3    3    0    0 -0.21109297542E+02  0.21710680941E+02 -0.25170593225E+02  0.39376577724E+02  0.51100000000E-03 0.  1.
         23    2    1    0    0    0  0.61289994642E+01  0.14499506067E+02  0.24146562609E+02  0.96175413334E+02  0.91754309618E+02 0.  0.
         11    1    3    3    0    0  0.27238297007E+02 -0.72111748739E+01  0.49317155834E+02  0.56798835610E+02  0.51100000000E-03 0. -1.
         22    1    1    0    0    0 -0.61289994642E+01 -0.14499506067E+02 -0.24146562609E+02  0.28824586666E+02  0.00000000000E+00 0. -1.
</event>
<event>
 5    1  0.1717518E-003  0.9118800E+02  0.7818608E-02  0.1130116E+00
         25   -1    0    0    0    0  0.00000000000E+00  0.00000000000E+00  0.99999998245E-14  0.12500000000E+03  0.12500000000E+03 0.  0.
        -11    1    3    3    0    0 -0.44320453802E+02  0.80606927015E+01 -0.40959555333E+01  0.45233331118E+02  0.51100000000E-03 0.  1.
         23    2    1    0    0    0 -0.90879840684E+01 -0.23657221677E+02  0.14084765310E+02  0.96006272994E+02  0.91523593944E+02 0.  0.
         11    1    3    3    0    0  0.35232469734E+02 -0.31717914378E+02  0.18180720843E+02  0.50772941875E+02  0.51100000000E-03 0. -1.
         22    1    1    0    0    0  0.90879840684E+01  0.23657221677E+02 -0.14084765310E+02  0.28993727006E+02  0.00000000000E+00 0.  1.
</event>
<event>
 5    1  0.1717518E-003  0.9118800E+02  0.7818608E-02  0.1130116E+00
         25   -1    0    0    0    0  0.00000000000E+00  0.00000000000E+00  0.99999998245E-14  0.12500000000E+03  0.12500000000E+03 0.  0.
        -11    1    3    3    0    0 -0.32313508652E+02 -0.47411240593E+01 -0.48776056532E+02  0.58700466692E+02  0.51100000000E-03 0.  1.
         23    2    1    0    0    0  0.61625520292E+00 -0.27721551130E+01 -0.26134777103E+02  0.98711386710E+02  0.95146448581E+02 0.  0.
         11    1    3    3    0    0  0.32929763855E+02  0.19689689463E+01  0.22641279429E+02  0.40010920018E+02  0.51100000000E-03 0. -1.
         22    1    1    0    0    0 -0.61625520292E+00  0.27721551130E+01  0.26134777103E+02  0.26288613290E+02  0.00000000000E+00 0.  1.
</event>
<event>
 5    1  0.1717518E-003  0.9118800E+02  0.7818608E-02  0.1130116E+00
         25   -1    0    0    0    0  0.00000000000E+00  0.00000000000E+00  0.99999998245E-14  0.12500000000E+03  0.12500000000E+03 0.  0.
        -11    1    3    3    0    0 -0.20781707305E+02 -0.75804112502E+01 -0.35246351549E+02  0.41613066349E+02  0.51100000000E-03 0.  1.
         23    2    1    0    0    0 -0.11034359588E+02 -0.33503561039E+00  0.22134572913E+02  0.10026523381E+03  0.97166395698E+02 0.  0.
         11    1    3    3    0    0  0.97473477174E+01  0.72453756398E+01  0.57380924461E+02  0.58652167462E+02  0.51100000000E-03 0. -1.
         22    1    1    0    0    0  0.11034359588E+02  0.33503561039E+00 -0.22134572913E+02  0.24734766189E+02  0.00000000000E+00 0. -1.
</event>
<event>
 5    1  0.1717518E-003  0.9118800E+02  0.7818608E-02  0.1130116E+00
         25   -1    0    0    0    0  0.00000000000E+00  0.00000000000E+00  0.99999998245E-14  0.12500000000E+03  0.12500000000E+03 0.  0.
        -11    1    3    3    0    0  0.56518411349E+02 -0.14123790769E+02 -0.14031191319E+02  0.59922338215E+02  0.51100000000E-03 0.  1.
         23    2    1    0    0    0  0.21500491532E+02 -0.17732202992E+02 -0.10153697569E+02  0.95338581737E+02  0.90607093730E+02 0.  0.
         11    1    3    3    0    0 -0.35017919817E+02 -0.36084122235E+01  0.38774937507E+01  0.35416243521E+02  0.51100000000E-03 0. -1.
         22    1    1    0    0    0 -0.21500491532E+02  0.17732202992E+02  0.10153697569E+02  0.29661418263E+02  0.00000000000E+00 0.  1.
</event>
<event>
 5    1  0.1717518E-003  0.9118800E+02  0.7818608E-02  0.1130116E+00
         25   -1    0    0    0    0  0.00000000000E+00  0.00000000000E+00  0.99999998245E-14  0.12500000000E+03  0.12500000000E+03 0.  0.
        -11    1    3    3    0    0  0.35219850398E+02 -0.12890012357E+02  0.32461546387E+02  0.49601837413E+02  0.51100000000E-03 0.  1.
         23    2    1    0    0    0  0.18203562226E+02  0.21457959634E+02  0.58677394434E+01  0.96255538350E+02  0.91863401785E+02 0.  0.
         11    1    3    3    0    0 -0.17016288172E+02  0.34347971991E+02 -0.26593806944E+02  0.46653700937E+02  0.51100000000E-03 0. -1.
         22    1    1    0    0    0 -0.18203562226E+02 -0.21457959634E+02 -0.58677394434E+01  0.28744461650E+02  0.00000000000E+00 0.  1.
</event>
<event>
 5    1  0.1717518E-003  0.9118800E+02  0.7818608E-02  0.1130116E+00
         25   -1    0    0    0    0  0.00000000000E+00  0.00000000000E+00  0.99999998245E-14  0.12500000000E+03  0.12500000000E+03 0.  0.
        -11    1    3    3    0    0  0.71020935611E+01  0.85983105756E+01  0.34417967583E+02  0.36179651332E+02  0.51100000000E-03 0. -1.
         23    2    1    0    0    0  0.87592503394E+01 -0.23050561723E+02 -0.15909456408E+02  0.95654409778E+02  0.91041762090E+02 0.  0.
         11    1    3    3    0    0  0.16571567783E+01 -0.31648872299E+02 -0.50327423991E+02  0.59474758446E+02  0.51100000000E-03 0.  1.
         22    1    1    0    0    0 -0.87592503394E+01  0.23050561723E+02  0.15909456408E+02  0.29345590222E+02  0.00000000000E+00 0.  1.
</event>
<event>
 5    1  0.1717518E-003  0.9118800E+02  0.7818608E-02  0.1130116E+00
         25   -1    0    0    0    0  0.00000000000E+00  0.00000000000E+00  0.99999998245E-14  0.12500000000E+03  0.12500000000E+03 0.  0.
        -11    1    3    3    0    0  0.20559543782E+02  0.25906709389E+02 -0.84390617276E+01  0.34133124600E+02  0.51100000000E-03 0.  1.
         23    2    1    0    0    0 -0.18736784810E+02 -0.15349070184E+02  0.15832539521E+02  0.96063338683E+02  0.91601499282E+02 0.  0.
         11    1    3    3    0    0 -0.39296328591E+02 -0.41255779573E+02  0.24271601248E+02  0.61930214083E+02  0.51100000000E-03 0. -1.
         22    1    1    0    0    0  0.18736784810E+02  0.15349070184E+02 -0.15832539521E+02  0.28936661317E+02  0.00000000000E+00 0. -1.
</event>
<event>
 5    1  0.1717518E-003  0.9118800E+02  0.7818608E-02  0.1130116E+00
         25   -1    0    0    0    0  0.00000000000E+00  0.00000000000E+00  0.99999998245E-14  0.12500000000E+03  0.12500000000E+03 0.  0.
        -11    1    3    3    0    0  0.13748658318E+02 -0.36226351273E+02  0.46423880686E+02  0.60469420621E+02  0.51100000000E-03 0. -1.
         23    2    1    0    0    0  0.73103996437E+01 -0.76995387909E+01  0.28052706302E+02  0.95005347620E+02  0.90146197397E+02 0.  0.
         11    1    3    3    0    0 -0.64382586739E+01  0.28526812483E+02 -0.18371174384E+02  0.34535926999E+02  0.51100000000E-03 0.  1.
         22    1    1    0    0    0 -0.73103996437E+01  0.76995387909E+01 -0.28052706302E+02  0.29994652380E+02  0.00000000000E+00 0. -1.
</event>
<event>
 5    1  0.1717518E-003  0.9118800E+02  0.7818608E-02  0.1130116E+00
         25   -1    0    0    0    0  0.00000000000E+00  0.00000000000E+00  0.99999998245E-14  0.12500000000E+03  0.12500000000E+03 0.  0.
        -11    1    3    3    0    0 -0.29209725675E+02 -0.11568419220E+02  0.11489821504E+01  0.31438138583E+02  0.51100000000E-03 0. -1.
         23    2    1    0    0    0  0.27486894594E+02  0.79807483597E+01 -0.13769409400E+02  0.93238099017E+02  0.87661421129E+02 0.  0.
         11    1    3    3    0    0  0.56696620269E+02  0.19549167580E+02 -0.14918391550E+02  0.61799960435E+02  0.51100000000E-03 0.  1.
         22    1    1    0    0    0 -0.27486894594E+02 -0.79807483597E+01  0.13769409400E+02  0.31761900983E+02  0.00000000000E+00 0.  1.
</event>
<event>
 5    1  0.1717518E-003  0.9118800E+02  0.7818608E-02  0.1130116E+00
         25   -1    0    0    0    0  0.00000000000E+00  0.00000000000E+00  0.99999998245E-14  0.12500000000E+03  0.12500000000E+03 0.  0.
        -11    1    3    3    0    0  0.34205574246E+02 -0.41888431115E+02 -0.38088406975E+01  0.54214105530E+02  0.51100000000E-03 0.  1.
         23    2    1    0    0    0  0.10395635066E+02 -0.15113149787E+02  0.20483821199E+02  0.97503391921E+02  0.93545967205E+02 0.  0.
         11    1    3    3    0    0 -0.23809939179E+02  0.26775281328E+02  0.24292661897E+02  0.43289286391E+02  0.51100000000E-03 0. -1.
         22    1    1    0    0    0 -0.10395635066E+02  0.15113149787E+02 -0.20483821199E+02  0.27496608079E+02  0.00000000000E+00 0.  1.
</event>
<event>
 5    1  0.1717518E-003  0.9118800E+02  0.7818608E-02  0.1130116E+00
         25   -1    0    0    0    0  0.00000000000E+00  0.00000000000E+00  0.99999998245E-14  0.12500000000E+03  0.12500000000E+03 0.  0.
        -11    1    3    3    0    0 -0.15814386831E+02  0.41504717745E+02  0.21662178568E+02  0.49416458863E+02  0.51100000000E-03 0.  1.
         23    2    1    0    0    0 -0.25686299533E+02 -0.37248355354E+01  0.53594844265E+01  0.98497463201E+02  0.94864987220E+02 0.  0.
         11    1    3    3    0    0 -0.98719127022E+01 -0.45229553280E+02 -0.16302694142E+02  0.49081004339E+02  0.51100000000E-03 0. -1.
         22    1    1    0    0    0  0.25686299533E+02  0.37248355354E+01 -0.53594844265E+01  0.26502536799E+02  0.00000000000E+00 0. -1.
</event>
<event>
 5    1  0.1717518E-003  0.9118800E+02  0.7818608E-02  0.1130116E+00
         25   -1    0    0    0    0  0.00000000000E+00  0.00000000000E+00  0.99999998245E-14  0.12500000000E+03  0.12500000000E+03 0.  0.
        -11    1    3    3    0    0 -0.56872254259E+01 -0.30331894395E+02 -0.50113735586E+02  0.58853673167E+02  0.51100000000E-03 0.  1.
         23    2    1    0    0    0 -0.53094695238E+01  0.25721825309E+00 -0.27743744501E+02  0.96751602049E+02  0.92535941732E+02 0.  0.
         11    1    3    3    0    0  0.37775590205E+00  0.30589112648E+02  0.22369991084E+02  0.37897928881E+02  0.51100000000E-03 0. -1.
         22    1    1    0    0    0  0.53094695238E+01 -0.25721825309E+00  0.27743744501E+02  0.28248397951E+02  0.00000000000E+00 0.  1.
</event>
<event>
 5    1  0.1717518E-003  0.9118800E+02  0.7818608E-02  0.1130116E+00
         25   -1    0    0    0    0  0.00000000000E+00  0.00000000000E+00  0.99999998245E-14  0.12500000000E+03  0.12500000000E+03 0.  0.
        -11    1    3    3    0    0 -0.31944351778E+02 -0.14053590323E+02 -0.17013446269E+02  0.38825279982E+02  0.51100000000E-03 0.  1.
         23    2    1    0    0    0  0.22436197987E+02 -0.10448079951E+02 -0.19663920708E+02  0.93389635681E+02  0.87877237782E+02 0.  0.
         11    1    3    3    0    0  0.54380549765E+02  0.36055103720E+01 -0.26504744388E+01  0.54564355699E+02  0.51100000000E-03 0. -1.
         22    1    1    0    0    0 -0.22436197987E+02  0.10448079951E+02  0.19663920708E+02  0.31610364319E+02  0.00000000000E+00 0. -1.
</event>
<event>
 5    1  0.1717518E-003  0.9118800E+02  0.7818608E-02  0.1130116E+00
         25   -1    0    0    0    0  0.00000000000E+00  0.00000000000E+00  0.99999998245E-14  0.12500000000E+03  0.12500000000E+03 0.  0.
        -11    1    3    3    0    0 -0.95396712590E+01 -0.54422880190E+02 -0.22988596539E+01  0.55300451824E+02  0.51100000000E-03 0. -1.
         23    2    1    0    0    0 -0.64227075585E+01 -0.18865134649E+02  0.19494764021E+02  0.97121866958E+02  0.93034760920E+02 0.  0.
         11    1    3    3    0    0  0.31169637005E+01  0.35557745542E+02  0.21793623674E+02  0.41821415134E+02  0.51100000000E-03 0.  1.
         22    1    1    0    0    0  0.64227075585E+01  0.18865134649E+02 -0.19494764021E+02  0.27878133042E+02  0.00000000000E+00 0.  1.
</event>
<event>
 5    1  0.1717518E-003  0.9118800E+02  0.7818608E-02  0.1130116E+00
         25   -1    0    0    0    0  0.00000000000E+00  0.00000000000E+00  0.99999998245E-14  0.12500000000E+03  0.12500000000E+03 0.  0.
        -11    1    3    3    0    0  0.21940661465E+02  0.30913713829E+02 -0.16346963163E+02  0.41282847929E+02  0.51100000000E-03 0.  1.
         23    2    1    0    0    0 -0.15259664566E+02 -0.10518364457E+02 -0.20797868689E+02  0.97142421219E+02  0.93062373196E+02 0.  0.
         11    1    3    3    0    0 -0.37200326031E+02 -0.41432078286E+02 -0.44509055259E+01  0.55859573290E+02  0.51100000000E-03 0. -1.
         22    1    1    0    0    0  0.15259664566E+02  0.10518364457E+02  0.20797868689E+02  0.27857578781E+02  0.00000000000E+00 0. -1.
</event>
<event>
 5    1  0.1717518E-003  0.9118800E+02  0.7818608E-02  0.1130116E+00
         25   -1    0    0    0    0  0.00000000000E+00  0.00000000000E+00  0.99999998245E-14  0.12500000000E+03  0.12500000000E+03 0.  0.
        -11    1    3    3    0    0 -0.66297764572E+01  0.11575308208E+02 -0.45812902590E+02  0.47715445507E+02  0.51100000000E-03 0.  1.
         23    2    1    0    0    0 -0.34509693407E+01  0.36267858505E+02 -0.33573411786E+02  0.75457687490E+02  0.56915919324E+02 0.  0.
         11    1    3    3    0    0  0.31788071166E+01  0.24692550297E+02  0.12239490804E+02  0.27742241983E+02  0.51100000000E-03 0. -1.
         22    1    1    0    0    0  0.34509693407E+01 -0.36267858505E+02  0.33573411786E+02  0.49542312510E+02  0.00000000000E+00 0.  1.
</event>
<event>
 5    1  0.1717518E-003  0.9118800E+02  0.7818608E-02  0.1130116E+00
         25   -1    0    0    0    0  0.00000000000E+00  0.00000000000E+00  0.99999998245E-14  0.12500000000E+03  0.12500000000E+03 0.  0.
        -11    1    3    3    0    0  0.70623969228E+01  0.25864931052E+02  0.31140495831E+02  0.41092609914E+02  0.51100000000E-03 0. -1.
         23    2    1    0    0    0 -0.24765956749E+02 -0.12136316542E+02  0.55909318919E+01  0.96859258853E+02  0.92681253300E+02 0.  0.
         11    1    3    3    0    0 -0.31828353672E+02 -0.38001247594E+02 -0.25549563940E+02  0.55766648939E+02  0.51100000000E-03 0.  1.
         22    1    1    0    0    0  0.24765956749E+02  0.12136316542E+02 -0.55909318919E+01  0.28140741147E+02  0.00000000000E+00 0.  1.
</event>
<event>
 5    1  0.1717518E-003  0.9118800E+02  0.7818608E-02  0.1130116E+00
         25   -1    0    0    0    0  0.00000000000E+00  0.00000000000E+00  0.99999998245E-14  0.12500000000E+03  0.12500000000E+03 0.  0.
        -11    1    3    3    0    0 -0.29323601400E+02  0.25437383943E+02 -0.16686071117E+02  0.42253509565E+02  0.51100000000E-03 0.  1.
         23    2    1    0    0    0  0.20604958082E+02  0.21627973916E+02  0.29023576319E+00  0.95126637449E+02  0.90314225691E+02 0.  0.
         11    1    3    3    0    0  0.49928559482E+02 -0.38094100271E+01  0.16976306881E+02  0.52873127884E+02  0.51100000000E-03 0. -1.
         22    1    1    0    0    0 -0.20604958082E+02 -0.21627973916E+02 -0.29023576319E+00  0.29873362551E+02  0.00000000000E+00 0. -1.
</event>
<event>
 5    1  0.1717518E-003  0.9118800E+02  0.7818608E-02  0.1130116E+00
         25   -1    0    0    0    0  0.00000000000E+00  0.00000000000E+00  0.99999998245E-14  0.12500000000E+03  0.12500000000E+03 0.  0.
        -11    1    3    3    0    0 -0.30467360462E+01  0.34507481443E+02  0.31444130378E+02  0.46784422745E+02  0.51100000000E-03 0. -1.
         23    2    1    0    0    0 -0.26900021339E+02  0.11518771695E+02 -0.41902609163E+01  0.95439020044E+02  0.90745550916E+02 0.  0.
         11    1    3    3    0    0 -0.23853285293E+02 -0.22988709748E+02 -0.35634391294E+02  0.48654597299E+02  0.51100000000E-03 0.  1.
         22    1    1    0    0    0  0.26900021339E+02 -0.11518771695E+02  0.41902609163E+01  0.29560979956E+02  0.00000000000E+00 0. -1.
</event>
<event>
 5    1  0.1717518E-003  0.9118800E+02  0.7818608E-02  0.1130116E+00
         25   -1    0    0    0    0  0.00000000000E+00  0.00000000000E+00  0.99999998245E-14  0.12500000000E+03  0.12500000000E+03 0.  0.
        -11    1    3    3    0    0 -0.31514956358E+02  0.73851807912E+01  0.79550492236E+01  0.33331909306E+02  0.51100000000E-03 0.  1.
         23    2    1    0    0    0  0.26361519426E+02 -0.13471370852E+02 -0.23810772793E+00  0.95394861352E+02  0.90684702889E+02 0.  0.
         11    1    3    3    0    0  0.57876475784E+02 -0.20856551644E+02 -0.81931569515E+01  0.62062952046E+02  0.51100000000E-03 0. -1.
         22    1    1    0    0    0 -0.26361519426E+02  0.13471370852E+02  0.23810772793E+00  0.29605138648E+02  0.00000000000E+00 0. -1.
</event>
<event>
 5    1  0.1717518E-003  0.9118800E+02  0.7818608E-02  0.1130116E+00
         25   -1    0    0    0    0  0.00000000000E+00  0.00000000000E+00  0.99999998245E-14  0.12500000000E+03  0.12500000000E+03 0.  0.
        -11    1    3    3    0    0  0.17805396232E+02  0.25749647875E+02 -0.27025278752E+02  0.41357492581E+02  0.51100000000E-03 0. -1.
         23    2    1    0    0    0  0.15077123246E+02 -0.17141150972E+02  0.11823820622E+02  0.99291218697E+02  0.95905185856E+02 0.  0.
         11    1    3    3    0    0 -0.27282729867E+01 -0.42890798847E+02  0.38849099374E+02  0.57933726116E+02  0.51100000000E-03 0.  1.
         22    1    1    0    0    0 -0.15077123246E+02  0.17141150972E+02 -0.11823820622E+02  0.25708781303E+02  0.00000000000E+00 0.  1.
</event>
<event>
 5    1  0.1717518E-003  0.9118800E+02  0.7818608E-02  0.1130116E+00
         25   -1    0    0    0    0  0.00000000000E+00  0.00000000000E+00  0.99999998245E-14  0.12500000000E+03  0.12500000000E+03 0.  0.
        -11    1    3    3    0    0  0.24208247772E+02 -0.28123961097E+02  0.60422686663E+01  0.37596614992E+02  0.51100000000E-03 0.  1.
         23    2    1    0    0    0 -0.27599035426E+02 -0.12434905629E+02 -0.83317024979E+01  0.93603329778E+02  0.88180680677E+02 0.  0.
         11    1    3    3    0    0 -0.51807283199E+02  0.15689055467E+02 -0.14373971164E+02  0.56006714786E+02  0.51100000000E-03 0. -1.
         22    1    1    0    0    0  0.27599035426E+02  0.12434905629E+02  0.83317024979E+01  0.31396670222E+02  0.00000000000E+00 0.  1.
</event>
<event>
 5    1  0.1717518E-003  0.9118800E+02  0.7818608E-02  0.1130116E+00
         25   -1    0    0    0    0  0.00000000000E+00  0.00000000000E+00  0.99999998245E-14  0.12500000000E+03  0.12500000000E+03 0.  0.
        -11    1    3    3    0    0 -0.12004114832E+02  0.21169378888E+02  0.37810164319E+02  0.44964985283E+02  0.51100000000E-03 0. -1.
         23    2    1    0    0    0  0.26932658421E+02  0.21558693479E+01  0.11683520146E+02  0.95563279645E+02  0.90916554660E+02 0.  0.
         11    1    3    3    0    0  0.38936773253E+02 -0.19013509540E+02 -0.26126644173E+02  0.50598294362E+02  0.51100000000E-03 0.  1.
         22    1    1    0    0    0 -0.26932658421E+02 -0.21558693479E+01 -0.11683520146E+02  0.29436720355E+02  0.00000000000E+00 0.  1.
</event>
<event>
 5    1  0.1717518E-003  0.9118800E+02  0.7818608E-02  0.1130116E+00
         25   -1    0    0    0    0  0.00000000000E+00  0.00000000000E+00  0.99999998245E-14  0.12500000000E+03  0.12500000000E+03 0.  0.
        -11    1    3    3    0    0  0.33425798917E+02 -0.10705951195E+02  0.14460385870E+02  0.37960560902E+02  0.51100000000E-03 0.  1.
         23    2    1    0    0    0  0.17191335127E+01  0.23368165272E+02 -0.18626988973E+02  0.95066886456E+02  0.90231489039E+02 0.  0.
         11    1    3    3    0    0 -0.31706665404E+02  0.34074116466E+02 -0.33087374844E+02  0.57106325554E+02  0.51100000000E-03 0. -1.
         22    1    1    0    0    0 -0.17191335127E+01 -0.23368165272E+02  0.18626988973E+02  0.29933113544E+02  0.00000000000E+00 0. -1.
</event>
<event>
 5    1  0.1717518E-003  0.9118800E+02  0.7818608E-02  0.1130116E+00
         25   -1    0    0    0    0  0.00000000000E+00  0.00000000000E+00  0.99999998245E-14  0.12500000000E+03  0.12500000000E+03 0.  0.
        -11    1    3    3    0    0  0.48877088816E+02  0.12243457222E+02 -0.20979792316E+02  0.54580433690E+02  0.51100000000E-03 0.  1.
         23    2    1    0    0    0  0.19654242019E+02 -0.15991477119E+02 -0.14725549573E+02  0.95693714326E+02  0.91095711104E+02 0.  0.
         11    1    3    3    0    0 -0.29222846798E+02 -0.28234934340E+02  0.62542427432E+01  0.41113280637E+02  0.51100000000E-03 0. -1.
         22    1    1    0    0    0 -0.19654242019E+02  0.15991477119E+02  0.14725549573E+02  0.29306285674E+02  0.00000000000E+00 0.  1.
</event>
<event>
 5    1  0.1717518E-003  0.9118800E+02  0.7818608E-02  0.1130116E+00
         25   -1    0    0    0    0  0.00000000000E+00  0.00000000000E+00  0.99999998245E-14  0.12500000000E+03  0.12500000000E+03 0.  0.
        -11    1    3    3    0    0 -0.21344154110E+02  0.53476052026E+02 -0.16205663680E+02  0.59815421010E+02  0.51100000000E-03 0.  1.
         23    2    1    0    0    0 -0.15290911817E+02  0.18493695492E+02 -0.17434248958E+02  0.95338884143E+02  0.90607510924E+02 0.  0.
         11    1    3    3    0    0  0.60532422934E+01 -0.34982356534E+02 -0.12285852776E+01  0.35523463133E+02  0.51100000000E-03 0. -1.
         22    1    1    0    0    0  0.15290911817E+02 -0.18493695492E+02  0.17434248958E+02  0.29661115857E+02  0.00000000000E+00 0.  1.
</event>
<event>
 5    1  0.1717518E-003  0.9118800E+02  0.7818608E-02  0.1130116E+00
         25   -1    0    0    0    0  0.00000000000E+00  0.00000000000E+00  0.99999998245E-14  0.12500000000E+03  0.12500000000E+03 0.  0.
        -11    1    3    3    0    0 -0.10724810454E+02  0.12518390559E+02  0.52521254025E+02  0.55047377649E+02  0.51100000000E-03 0. -1.
         23    2    1    0    0    0 -0.58257419878E+01  0.25148004965E+02  0.14538537380E+02  0.95373483286E+02  0.90655230525E+02 0.  0.
         11    1    3    3    0    0  0.48990684659E+01  0.12629614406E+02 -0.37982716645E+02  0.40326105637E+02  0.51100000000E-03 0.  1.
         22    1    1    0    0    0  0.58257419878E+01 -0.25148004965E+02 -0.14538537380E+02  0.29626516714E+02  0.00000000000E+00 0. -1.
</event>
<event>
 5    1  0.1717518E-003  0.9118800E+02  0.7818608E-02  0.1130116E+00
         25   -1    0    0    0    0  0.00000000000E+00  0.00000000000E+00  0.99999998245E-14  0.12500000000E+03  0.12500000000E+03 0.  0.
        -11    1    3    3    0    0  0.49180062162E+02  0.32513135737E+02 -0.15290308356E+02  0.60906288998E+02  0.51100000000E-03 0.  1.
         23    2    1    0    0    0  0.28207343489E+02  0.96260009795E+01 -0.75000642894E+00  0.95185965868E+02  0.90396302286E+02 0.  0.
         11    1    3    3    0    0 -0.20972718672E+02 -0.22887134757E+02  0.14540301927E+02  0.34279676870E+02  0.51100000000E-03 0. -1.
         22    1    1    0    0    0 -0.28207343489E+02 -0.96260009795E+01  0.75000642894E+00  0.29814034132E+02  0.00000000000E+00 0.  1.
</event>
<event>
 5    1  0.1717518E-003  0.9118800E+02  0.7818608E-02  0.1130116E+00
         25   -1    0    0    0    0  0.00000000000E+00  0.00000000000E+00  0.99999998245E-14  0.12500000000E+03  0.12500000000E+03 0.  0.
        -11    1    3    3    0    0  0.27370957635E+02  0.28033607155E+01  0.33031420814E+02  0.42989567507E+02  0.51100000000E-03 0.  1.
         23    2    1    0    0    0  0.19260523633E+02 -0.28192900083E+01 -0.20093789594E+02  0.97023643071E+02  0.92902695159E+02 0.  0.
         11    1    3    3    0    0 -0.81104340023E+01 -0.56226507238E+01 -0.53125210408E+02  0.54034075564E+02  0.51100000000E-03 0. -1.
         22    1    1    0    0    0 -0.19260523633E+02  0.28192900083E+01  0.20093789594E+02  0.27976356929E+02  0.00000000000E+00 0. -1.
</event>
<event>
 5    1  0.1717518E-003  0.9118800E+02  0.7818608E-02  0.1130116E+00
         25   -1    0    0    0    0  0.00000000000E+00  0.00000000000E+00  0.99999998245E-14  0.12500000000E+03  0.12500000000E+03 0.  0.
        -11    1    3    3    0    0  0.47272228500E+01 -0.28325520490E+02 -0.27361400381E+02  0.39665198574E+02  0.51100000000E-03 0. -1.
         23    2    1    0    0    0  0.16982155612E+02  0.13070056868E+02 -0.35438860363E+02  0.83585837934E+02  0.72604817220E+02 0.  0.
         11    1    3    3    0    0  0.12254932762E+02  0.41395577357E+02 -0.80774599827E+01  0.43920639360E+02  0.51100000000E-03 0.  1.
         22    1    1    0    0    0 -0.16982155612E+02 -0.13070056868E+02  0.35438860363E+02  0.41414162066E+02  0.00000000000E+00 0.  1.
</event>
<event>
 5    1  0.1717518E-003  0.9118800E+02  0.7818608E-02  0.1130116E+00
         25   -1    0    0    0    0  0.00000000000E+00  0.00000000000E+00  0.99999998245E-14  0.12500000000E+03  0.12500000000E+03 0.  0.
        -11    1    3    3    0    0 -0.16834781115E+02 -0.29237265621E+02  0.42887599175E+02  0.54567148719E+02  0.51100000000E-03 0. -1.
         23    2    1    0    0    0  0.80506940279E+01 -0.25726026011E+02  0.93674246574E+01  0.96462467988E+02  0.92144544043E+02 0.  0.
         11    1    3    3    0    0  0.24885475143E+02  0.35112396100E+01 -0.33520174517E+02  0.41895319268E+02  0.51100000000E-03 0.  1.
         22    1    1    0    0    0 -0.80506940279E+01  0.25726026011E+02 -0.93674246574E+01  0.28537532012E+02  0.00000000000E+00 0. -1.
</event>
<event>
 5    1  0.1717518E-003  0.9118800E+02  0.7818608E-02  0.1130116E+00
         25   -1    0    0    0    0  0.00000000000E+00  0.00000000000E+00  0.99999998245E-14  0.12500000000E+03  0.12500000000E+03 0.  0.
        -11    1    3    3    0    0  0.17184838165E+02 -0.36426769333E+02 -0.40572906904E+00  0.40278937463E+02  0.51100000000E-03 0.  1.
         23    2    1    0    0    0  0.22513689744E+02  0.18659539555E+02 -0.24187227504E+01  0.95658990098E+02  0.91048050636E+02 0.  0.
         11    1    3    3    0    0  0.53288515796E+01  0.55086308888E+02 -0.20129936814E+01  0.55380052635E+02  0.51100000000E-03 0. -1.
         22    1    1    0    0    0 -0.22513689744E+02 -0.18659539555E+02  0.24187227504E+01  0.29341009902E+02  0.00000000000E+00 0.  1.
</event>
<event>
 5    1  0.1717518E-003  0.9118800E+02  0.7818608E-02  0.1130116E+00
         25   -1    0    0    0    0  0.00000000000E+00  0.00000000000E+00  0.99999998245E-14  0.12500000000E+03  0.12500000000E+03 0.  0.
        -11    1    3    3    0    0  0.59261995536E+02  0.24996981814E+01  0.14316938803E+02  0.61018090292E+02  0.51100000000E-03 0.  1.
         23    2    1    0    0    0  0.28246744635E+02 -0.65609920551E+01  0.94921967408E+00  0.95985758372E+02  0.91495571440E+02 0.  0.
         11    1    3    3    0    0 -0.31015250901E+02 -0.90606902365E+01 -0.13367719129E+02  0.34967668080E+02  0.51100000000E-03 0. -1.
         22    1    1    0    0    0 -0.28246744635E+02  0.65609920551E+01 -0.94921967408E+00  0.29014241628E+02  0.00000000000E+00 0.  1.
</event>
<event>
 5    1  0.1717518E-003  0.9118800E+02  0.7818608E-02  0.1130116E+00
         25   -1    0    0    0    0  0.00000000000E+00  0.00000000000E+00  0.99999998245E-14  0.12500000000E+03  0.12500000000E+03 0.  0.
        -11    1    3    3    0    0 -0.24483484436E+02 -0.22205112795E+02 -0.12584079137E+02  0.35367599471E+02  0.51100000000E-03 0. -1.
         23    2    1    0    0    0  0.85287397819E+01  0.16550497687E+02  0.21442842627E+02  0.96601868444E+02  0.92333456076E+02 0.  0.
         11    1    3    3    0    0  0.33012224218E+02  0.38755610482E+02  0.34026921764E+02  0.61234268973E+02  0.51100000000E-03 0.  1.
         22    1    1    0    0    0 -0.85287397819E+01 -0.16550497687E+02 -0.21442842627E+02  0.28398131556E+02  0.00000000000E+00 0.  1.
</event>
<event>
 5    1  0.1717518E-003  0.9118800E+02  0.7818608E-02  0.1130116E+00
         25   -1    0    0    0    0  0.00000000000E+00  0.00000000000E+00  0.99999998245E-14  0.12500000000E+03  0.12500000000E+03 0.  0.
        -11    1    3    3    0    0 -0.43518401734E+02  0.30855795083E+00 -0.19128178388E+02  0.47537708255E+02  0.51100000000E-03 0.  1.
         23    2    1    0    0    0 -0.16598839769E+02 -0.21858273094E+02  0.12706437888E+02  0.94755014496E+02  0.89798405465E+02 0.  0.
         11    1    3    3    0    0  0.26919561965E+02 -0.22166831045E+02  0.31834616276E+02  0.47217306241E+02  0.51100000000E-03 0. -1.
         22    1    1    0    0    0  0.16598839769E+02  0.21858273094E+02 -0.12706437888E+02  0.30244985504E+02  0.00000000000E+00 0. -1.
</event>
<event>
 5    1  0.1717518E-003  0.9118800E+02  0.7818608E-02  0.1130116E+00
         25   -1    0    0    0    0  0.00000000000E+00  0.00000000000E+00  0.99999998245E-14  0.12500000000E+03  0.12500000000E+03 0.  0.
        -11    1    3    3    0    0 -0.27006010866E+01  0.43102518896E+02 -0.36921845031E+01  0.43344579916E+02  0.51100000000E-03 0.  1.
         23    2    1    0    0    0 -0.16672481259E+02 -0.37939848043E+01 -0.23332889810E+02  0.96072682480E+02  0.91614249001E+02 0.  0.
         11    1    3    3    0    0 -0.13971880172E+02 -0.46896503700E+02 -0.19640705306E+02  0.52728102564E+02  0.51100000000E-03 0. -1.
         22    1    1    0    0    0  0.16672481259E+02  0.37939848043E+01  0.23332889810E+02  0.28927317520E+02  0.00000000000E+00 0. -1.
</event>
<event>
 5    1  0.1717518E-003  0.9118800E+02  0.7818608E-02  0.1130116E+00
         25   -1    0    0    0    0  0.00000000000E+00  0.00000000000E+00  0.99999998245E-14  0.12500000000E+03  0.12500000000E+03 0.  0.
        -11    1    3    3    0    0 -0.31838890825E+02  0.45121458175E+02 -0.23283768615E+02  0.59931584645E+02  0.51100000000E-03 0.  1.
         23    2    1    0    0    0 -0.11091914004E+02  0.32974417158E+02 -0.56324409395E+01  0.89757027167E+02  0.82548511748E+02 0.  0.
         11    1    3    3    0    0  0.20746976820E+02 -0.12147041017E+02  0.17651327676E+02  0.29825442522E+02  0.51100000000E-03 0. -1.
         22    1    1    0    0    0  0.11091914004E+02 -0.32974417158E+02  0.56324409395E+01  0.35242972833E+02  0.00000000000E+00 0.  1.
</event>
<event>
 5    1  0.1717518E-003  0.9118800E+02  0.7818608E-02  0.1130116E+00
         25   -1    0    0    0    0  0.00000000000E+00  0.00000000000E+00  0.99999998245E-14  0.12500000000E+03  0.12500000000E+03 0.  0.
        -11    1    3    3    0    0  0.21192622345E+02  0.18755062305E+02 -0.33718439681E+02  0.44020594938E+02  0.51100000000E-03 0. -1.
         23    2    1    0    0    0 -0.29430492221E+01 -0.23452675172E+02 -0.18551712955E+02  0.94952444941E+02  0.90072810743E+02 0.  0.
         11    1    3    3    0    0 -0.24135671567E+02 -0.42207737477E+02  0.15166726725E+02  0.50931850003E+02  0.51100000000E-03 0.  1.
         22    1    1    0    0    0  0.29430492221E+01  0.23452675172E+02  0.18551712955E+02  0.30047555059E+02  0.00000000000E+00 0.  1.
</event>
<event>
 5    1  0.1717518E-003  0.9118800E+02  0.7818608E-02  0.1130116E+00
         25   -1    0    0    0    0  0.00000000000E+00  0.00000000000E+00  0.99999998245E-14  0.12500000000E+03  0.12500000000E+03 0.  0.
        -11    1    3    3    0    0 -0.15653462324E+02 -0.40598133855E+01 -0.43619108874E+02  0.46520314129E+02  0.51100000000E-03 0. -1.
         23    2    1    0    0    0 -0.24650681396E+02 -0.15338663677E+02  0.34606480348E+01  0.95761211011E+02  0.91188281883E+02 0.  0.
         11    1    3    3    0    0 -0.89972190721E+01 -0.11278850292E+02  0.47079756909E+02  0.49240896882E+02  0.51100000000E-03 0.  1.
         22    1    1    0    0    0  0.24650681396E+02  0.15338663677E+02 -0.34606480348E+01  0.29238788989E+02  0.00000000000E+00 0. -1.
</event>
<event>
 5    1  0.1717518E-003  0.9118800E+02  0.7818608E-02  0.1130116E+00
         25   -1    0    0    0    0  0.00000000000E+00  0.00000000000E+00  0.99999998245E-14  0.12500000000E+03  0.12500000000E+03 0.  0.
        -11    1    3    3    0    0 -0.85056841745E+01  0.45095636036E+00  0.60152825931E+02  0.60752880530E+02  0.51100000000E-03 0.  1.
         23    2    1    0    0    0  0.12045567943E+01  0.92616795704E+01  0.28295223354E+02  0.95203199330E+02  0.90420129576E+02 0.  0.
         11    1    3    3    0    0  0.97102409688E+01  0.88107232100E+01 -0.31857602578E+02  0.34450318800E+02  0.51100000000E-03 0. -1.
         22    1    1    0    0    0 -0.12045567943E+01 -0.92616795704E+01 -0.28295223354E+02  0.29796800670E+02  0.00000000000E+00 0.  1.
</event>
<event>
 5    1  0.1717518E-003  0.9118800E+02  0.7818608E-02  0.1130116E+00
         25   -1    0    0    0    0  0.00000000000E+00  0.00000000000E+00  0.99999998245E-14  0.12500000000E+03  0.12500000000E+03 0.  0.
        -11    1    3    3    0    0 -0.12133782213E+02 -0.34854088607E+02 -0.18551294808E+00  0.36906240377E+02  0.51100000000E-03 0.  1.
         23    2    1    0    0    0 -0.18382006927E+02  0.23241831987E+02  0.10270936009E+01  0.95349774807E+02  0.90622534182E+02 0.  0.
         11    1    3    3    0    0 -0.62482247141E+01  0.58095920594E+02  0.12126065490E+01  0.58443534430E+02  0.51100000000E-03 0. -1.
         22    1    1    0    0    0  0.18382006927E+02 -0.23241831987E+02 -0.10270936009E+01  0.29650225193E+02  0.00000000000E+00 0. -1.
</event>
<event>
 5    1  0.1717518E-003  0.9118800E+02  0.7818608E-02  0.1130116E+00
         25   -1    0    0    0    0  0.00000000000E+00  0.00000000000E+00  0.99999998245E-14  0.12500000000E+03  0.12500000000E+03 0.  0.
        -11    1    3    3    0    0  0.77397117190E+01  0.52589840894E+02  0.20666849735E+02  0.57032562462E+02  0.51100000000E-03 0. -1.
         23    2    1    0    0    0  0.63893695915E+01  0.14438843269E+02  0.24977844455E+02  0.95450093869E+02  0.90760803585E+02 0.  0.
         11    1    3    3    0    0 -0.13503421275E+01 -0.38150997626E+02  0.43109947196E+01  0.38417531407E+02  0.51100000000E-03 0.  1.
         22    1    1    0    0    0 -0.63893695915E+01 -0.14438843269E+02 -0.24977844455E+02  0.29549906131E+02  0.00000000000E+00 0. -1.
</event>
<event>
 5    1  0.1717518E-003  0.9118800E+02  0.7818608E-02  0.1130116E+00
         25   -1    0    0    0    0  0.00000000000E+00  0.00000000000E+00  0.99999998245E-14  0.12500000000E+03  0.12500000000E+03 0.  0.
        -11    1    3    3    0    0 -0.47425344696E+01  0.53581810125E+02  0.31274272595E+01  0.53882119585E+02  0.51100000000E-03 0.  1.
         23    2    1    0    0    0 -0.15921741893E+02  0.18070292828E+02  0.18969898403E+02  0.94342302871E+02  0.89222058471E+02 0.  0.
         11    1    3    3    0    0 -0.11179207424E+02 -0.35511517297E+02  0.15842471143E+02  0.40460183286E+02  0.51100000000E-03 0. -1.
         22    1    1    0    0    0  0.15921741893E+02 -0.18070292828E+02 -0.18969898403E+02  0.30657697129E+02  0.00000000000E+00 0.  1.
</event>
<event>
 5    1  0.1717518E-003  0.9118800E+02  0.7818608E-02  0.1130116E+00
         25   -1    0    0    0    0  0.00000000000E+00  0.00000000000E+00  0.99999998245E-14  0.12500000000E+03  0.12500000000E+03 0.  0.
        -11    1    3    3    0    0  0.35400379502E+01  0.11869193768E+01  0.38705738905E+02  0.38885406912E+02  0.51100000000E-03 0.  1.
         23    2    1    0    0    0  0.26556696971E+02  0.21733495917E+01 -0.12897147720E+02  0.95397330834E+02  0.90688106764E+02 0.  0.
         11    1    3    3    0    0  0.23016659021E+02  0.98643021486E+00 -0.51602886625E+02  0.56511923922E+02  0.51100000000E-03 0. -1.
         22    1    1    0    0    0 -0.26556696971E+02 -0.21733495917E+01  0.12897147720E+02  0.29602669166E+02  0.00000000000E+00 0. -1.
</event>
<event>
 5    1  0.1717518E-003  0.9118800E+02  0.7818608E-02  0.1130116E+00
         25   -1    0    0    0    0  0.00000000000E+00  0.00000000000E+00  0.99999998245E-14  0.12500000000E+03  0.12500000000E+03 0.  0.
        -11    1    3    3    0    0 -0.10797089750E+02  0.40340944941E+02 -0.43797966135E+01  0.41989898838E+02  0.51100000000E-03 0.  1.
         23    2    1    0    0    0  0.28794251509E+02  0.42655221947E+01  0.13664723378E+01  0.95859463865E+02  0.91322866612E+02 0.  0.
         11    1    3    3    0    0  0.39591341260E+02 -0.36075422746E+02  0.57462689513E+01  0.53869565027E+02  0.51100000000E-03 0. -1.
         22    1    1    0    0    0 -0.28794251509E+02 -0.42655221947E+01 -0.13664723378E+01  0.29140536135E+02  0.00000000000E+00 0. -1.
</event>
<event>
 5    1  0.1717518E-003  0.9118800E+02  0.7818608E-02  0.1130116E+00
         25   -1    0    0    0    0  0.00000000000E+00  0.00000000000E+00  0.99999998245E-14  0.12500000000E+03  0.12500000000E+03 0.  0.
        -11    1    3    3    0    0  0.14975496491E+01 -0.46011105286E+02 -0.13928704473E+02  0.48096499593E+02  0.51100000000E-03 0. -1.
         23    2    1    0    0    0  0.15440133541E+01  0.43838206393E+00 -0.28250600096E+02  0.96703841924E+02  0.92471403585E+02 0.  0.
         11    1    3    3    0    0  0.46463704951E-01  0.46449487350E+02 -0.14321895623E+02  0.48607342330E+02  0.51100000000E-03 0.  1.
         22    1    1    0    0    0 -0.15440133541E+01 -0.43838206393E+00  0.28250600096E+02  0.28296158076E+02  0.00000000000E+00 0.  1.
</event>
<event>
 5    1  0.1717518E-003  0.9118800E+02  0.7818608E-02  0.1130116E+00
         25   -1    0    0    0    0  0.00000000000E+00  0.00000000000E+00  0.99999998245E-14  0.12500000000E+03  0.12500000000E+03 0.  0.
        -11    1    3    3    0    0 -0.42888608291E+02 -0.29953032189E+02 -0.19954215822E+02  0.55989173844E+02  0.51100000000E-03 0. -1.
         23    2    1    0    0    0 -0.41917878243E+01 -0.26547464081E+02 -0.11618426445E+02  0.95719857115E+02  0.91131576738E+02 0.  0.
         11    1    3    3    0    0  0.38696820467E+02  0.34055681082E+01  0.83357893765E+01  0.39730683271E+02  0.51100000000E-03 0.  1.
         22    1    1    0    0    0  0.41917878243E+01  0.26547464081E+02  0.11618426445E+02  0.29280142885E+02  0.00000000000E+00 0. -1.
</event>
<event>
 5    1  0.1717518E-003  0.9118800E+02  0.7818608E-02  0.1130116E+00
         25   -1    0    0    0    0  0.00000000000E+00  0.00000000000E+00  0.99999998245E-14  0.12500000000E+03  0.12500000000E+03 0.  0.
        -11    1    3    3    0    0  0.15341013435E+02  0.37209163697E+02 -0.70628307460E+01  0.40862600684E+02  0.51100000000E-03 0.  1.
         23    2    1    0    0    0 -0.27910175290E+02  0.40052164102E+01 -0.89367261601E+01  0.95421549775E+02  0.90721482813E+02 0.  0.
         11    1    3    3    0    0 -0.43251188726E+02 -0.33203947287E+02 -0.18738954140E+01  0.54558949091E+02  0.51100000000E-03 0. -1.
         22    1    1    0    0    0  0.27910175290E+02 -0.40052164102E+01  0.89367261601E+01  0.29578450225E+02  0.00000000000E+00 0. -1.
</event>
<event>
 5    1  0.1717518E-003  0.9118800E+02  0.7818608E-02  0.1130116E+00
         25   -1    0    0    0    0  0.00000000000E+00  0.00000000000E+00  0.99999998245E-14  0.12500000000E+03  0.12500000000E+03 0.  0.
        -11    1    3    3    0    0  0.22112195176E+02 -0.25611979999E+02  0.15010988034E+02  0.37016921225E+02  0.51100000000E-03 0. -1.
         23    2    1    0    0    0  0.57177246394E+01  0.12416097353E+02 -0.26205317045E+02  0.95443774091E+02  0.90752099275E+02 0.  0.
         11    1    3    3    0    0 -0.16394470536E+02  0.38028077352E+02 -0.41216305079E+02  0.58426852866E+02  0.51100000000E-03 0.  1.
         22    1    1    0    0    0 -0.57177246394E+01 -0.12416097353E+02  0.26205317045E+02  0.29556225909E+02  0.00000000000E+00 0.  1.
</event>
<event>
 5    1  0.1717518E-003  0.9118800E+02  0.7818608E-02  0.1130116E+00
         25   -1    0    0    0    0  0.00000000000E+00  0.00000000000E+00  0.99999998245E-14  0.12500000000E+03  0.12500000000E+03 0.  0.
        -11    1    3    3    0    0 -0.92730959823E+00 -0.37047871495E+02  0.34848864474E+02  0.50870895813E+02  0.51100000000E-03 0.  1.
         23    2    1    0    0    0  0.16162617474E+02 -0.24906369256E+02 -0.40252242587E+01  0.95037358870E+02  0.90190574438E+02 0.  0.
         11    1    3    3    0    0  0.17089927072E+02  0.12141502239E+02 -0.38874088732E+02  0.44166463057E+02  0.51100000000E-03 0. -1.
         22    1    1    0    0    0 -0.16162617474E+02  0.24906369256E+02  0.40252242587E+01  0.29962641130E+02  0.00000000000E+00 0. -1.
</event>
<event>
 5    1  0.1717518E-003  0.9118800E+02  0.7818608E-02  0.1130116E+00
         25   -1    0    0    0    0  0.00000000000E+00  0.00000000000E+00  0.99999998245E-14  0.12500000000E+03  0.12500000000E+03 0.  0.
        -11    1    3    3    0    0  0.23819087816E+02 -0.40081357138E+02  0.23235543468E+01  0.46682577472E+02  0.51100000000E-03 0. -1.
         23    2    1    0    0    0  0.27407640206E+02  0.83620153543E+01 -0.53172922756E+01  0.95855950186E+02  0.91318057067E+02 0.  0.
         11    1    3    3    0    0  0.35885523896E+01  0.48443372492E+02 -0.76408466223E+01  0.49173372713E+02  0.51100000000E-03 0.  1.
         22    1    1    0    0    0 -0.27407640206E+02 -0.83620153543E+01  0.53172922756E+01  0.29144049814E+02  0.00000000000E+00 0.  1.
</event>
<event>
 5    1  0.1717518E-003  0.9118800E+02  0.7818608E-02  0.1130116E+00
         25   -1    0    0    0    0  0.00000000000E+00  0.00000000000E+00  0.99999998245E-14  0.12500000000E+03  0.12500000000E+03 0.  0.
        -11    1    3    3    0    0  0.18695262517E+02 -0.51181646246E+02  0.15953632783E+02  0.56776686697E+02  0.51100000000E-03 0. -1.
         23    2    1    0    0    0  0.19651877036E+02 -0.41781453032E+02 -0.37976773627E+01  0.78671731719E+02  0.63584061917E+02 0.  0.
         11    1    3    3    0    0  0.95661451981E+00  0.94001932139E+01 -0.19751310146E+02  0.21895045023E+02  0.51100000000E-03 0.  1.
         22    1    1    0    0    0 -0.19651877036E+02  0.41781453032E+02  0.37976773627E+01  0.46328268281E+02  0.00000000000E+00 0. -1.
</event>
<event>
 5    1  0.1717518E-003  0.9118800E+02  0.7818608E-02  0.1130116E+00
         25   -1    0    0    0    0  0.00000000000E+00  0.00000000000E+00  0.99999998245E-14  0.12500000000E+03  0.12500000000E+03 0.  0.
        -11    1    3    3    0    0 -0.28815395169E+02  0.89583798836E+01  0.50665668875E+02  0.58971090982E+02  0.51100000000E-03 0. -1.
         23    2    1    0    0    0 -0.24902241547E+02  0.23565269920E+00  0.14928571446E+02  0.95964859020E+02  0.91467014574E+02 0.  0.
         11    1    3    3    0    0  0.39131536212E+01 -0.87227271844E+01 -0.35737097428E+02  0.36993768038E+02  0.51100000000E-03 0.  1.
         22    1    1    0    0    0  0.24902241547E+02 -0.23565269920E+00 -0.14928571446E+02  0.29035140980E+02  0.00000000000E+00 0. -1.
</event>
<event>
 5    1  0.1717518E-003  0.9118800E+02  0.7818608E-02  0.1130116E+00
         25   -1    0    0    0    0  0.00000000000E+00  0.00000000000E+00  0.99999998245E-14  0.12500000000E+03  0.12500000000E+03 0.  0.
        -11    1    3    3    0    0 -0.39062730819E+02  0.35917043105E+02 -0.90503759221E+01  0.53831591366E+02  0.51100000000E-03 0.  1.
         23    2    1    0    0    0 -0.49614571268E+00  0.31652068976E+02 -0.18962637816E+01  0.93287298328E+02  0.87731548384E+02 0.  0.
         11    1    3    3    0    0  0.38566585106E+02 -0.42649741288E+01  0.71541121406E+01  0.39455706962E+02  0.51100000000E-03 0. -1.
         22    1    1    0    0    0  0.49614571268E+00 -0.31652068976E+02  0.18962637816E+01  0.31712701672E+02  0.00000000000E+00 0.  1.
</event>
<event>
 5    1  0.1717518E-003  0.9118800E+02  0.7818608E-02  0.1130116E+00
         25   -1    0    0    0    0  0.00000000000E+00  0.00000000000E+00  0.99999998245E-14  0.12500000000E+03  0.12500000000E+03 0.  0.
        -11    1    3    3    0    0  0.15453514916E+02 -0.25164929624E+01  0.45450388258E+02  0.48071630440E+02  0.51100000000E-03 0.  1.
         23    2    1    0    0    0 -0.55778094669E+01  0.25694903916E+02  0.14285015878E+02  0.95076736068E+02  0.90245132927E+02 0.  0.
         11    1    3    3    0    0 -0.21031324383E+02  0.28211396879E+02 -0.31165372381E+02  0.47005105628E+02  0.51100000000E-03 0. -1.
         22    1    1    0    0    0  0.55778094669E+01 -0.25694903916E+02 -0.14285015878E+02  0.29923263932E+02  0.00000000000E+00 0.  1.
</event>
<event>
 5    1  0.1717518E-003  0.9118800E+02  0.7818608E-02  0.1130116E+00
         25   -1    0    0    0    0  0.00000000000E+00  0.00000000000E+00  0.99999998245E-14  0.12500000000E+03  0.12500000000E+03 0.  0.
        -11    1    3    3    0    0 -0.37315034151E+02 -0.46058750879E-01 -0.13707727534E+02  0.39753184647E+02  0.51100000000E-03 0. -1.
         23    2    1    0    0    0  0.17034842109E+02  0.14472590881E+02 -0.18181774953E+02  0.96186484544E+02  0.91769391062E+02 0.  0.
         11    1    3    3    0    0  0.54349876261E+02  0.14518649632E+02 -0.44740474190E+01  0.56433299897E+02  0.51100000000E-03 0.  1.
         22    1    1    0    0    0 -0.17034842109E+02 -0.14472590881E+02  0.18181774953E+02  0.28813515456E+02  0.00000000000E+00 0. -1.
</event>
<event>
 5    1  0.1717518E-003  0.9118800E+02  0.7818608E-02  0.1130116E+00
         25   -1    0    0    0    0  0.00000000000E+00  0.00000000000E+00  0.99999998245E-14  0.12500000000E+03  0.12500000000E+03 0.  0.
        -11    1    3    3    0    0  0.49038362416E+01 -0.19702408873E+02  0.33329998788E+02  0.39027187252E+02  0.51100000000E-03 0. -1.
         23    2    1    0    0    0  0.86580670912E+01 -0.14154708992E+02 -0.23490005845E+02  0.96240683475E+02  0.91843186294E+02 0.  0.
         11    1    3    3    0    0  0.37542308495E+01  0.55476998811E+01 -0.56820004633E+02  0.57213496223E+02  0.51100000000E-03 0.  1.
         22    1    1    0    0    0 -0.86580670912E+01  0.14154708992E+02  0.23490005845E+02  0.28759316525E+02  0.00000000000E+00 0.  1.
</event>
<event>
 5    1  0.1717518E-003  0.9118800E+02  0.7818608E-02  0.1130116E+00
         25   -1    0    0    0    0  0.00000000000E+00  0.00000000000E+00  0.99999998245E-14  0.12500000000E+03  0.12500000000E+03 0.  0.
        -11    1    3    3    0    0 -0.31773520441E+02 -0.12670487874E+01  0.15188009554E+02  0.35239716916E+02  0.51100000000E-03 0. -1.
         23    2    1    0    0    0  0.88448720289E+01  0.75965525854E+01 -0.27685030621E+02  0.94960021757E+02  0.90083324978E+02 0.  0.
         11    1    3    3    0    0  0.40618392470E+02  0.88636013728E+01 -0.42873040175E+02  0.59720304841E+02  0.51100000000E-03 0.  1.
         22    1    1    0    0    0 -0.88448720289E+01 -0.75965525854E+01  0.27685030621E+02  0.30039978243E+02  0.00000000000E+00 0.  1.
</event>
<event>
 5    1  0.1717518E-003  0.9118800E+02  0.7818608E-02  0.1130116E+00
         25   -1    0    0    0    0  0.00000000000E+00  0.00000000000E+00  0.99999998245E-14  0.12500000000E+03  0.12500000000E+03 0.  0.
        -11    1    3    3    0    0 -0.52679083716E+01  0.30186783449E+02 -0.15895891099E+02  0.34520604104E+02  0.51100000000E-03 0.  1.
         23    2    1    0    0    0  0.13886787636E+01 -0.40062431236E+01  0.31430351580E+02  0.93284933973E+02  0.87728179585E+02 0.  0.
         11    1    3    3    0    0  0.66565871352E+01 -0.34193026573E+02  0.47326242679E+02  0.58764329868E+02  0.51100000000E-03 0. -1.
         22    1    1    0    0    0 -0.13886787636E+01  0.40062431236E+01 -0.31430351580E+02  0.31715066027E+02  0.00000000000E+00 0. -1.
</event>
<event>
 5    1  0.1717518E-003  0.9118800E+02  0.7818608E-02  0.1130116E+00
         25   -1    0    0    0    0  0.00000000000E+00  0.00000000000E+00  0.99999998245E-14  0.12500000000E+03  0.12500000000E+03 0.  0.
        -11    1    3    3    0    0 -0.15121109669E+02  0.29300683518E+02  0.13929482018E+02  0.35793972702E+02  0.51100000000E-03 0. -1.
         23    2    1    0    0    0  0.20284069361E+02 -0.77529384098E+01 -0.18526115422E+02  0.96455850398E+02  0.92135566420E+02 0.  0.
         11    1    3    3    0    0  0.35405179031E+02 -0.37053621928E+02 -0.32455597441E+02  0.60661877696E+02  0.51100000000E-03 0.  1.
         22    1    1    0    0    0 -0.20284069361E+02  0.77529384098E+01  0.18526115422E+02  0.28544149602E+02  0.00000000000E+00 0.  1.
</event>
<event>
 5    1  0.1717518E-003  0.9118800E+02  0.7818608E-02  0.1130116E+00
         25   -1    0    0    0    0  0.00000000000E+00  0.00000000000E+00  0.99999998245E-14  0.12500000000E+03  0.12500000000E+03 0.  0.
        -11    1    3    3    0    0  0.44959521414E+02  0.23285924903E+02  0.12894809701E+02  0.52248148119E+02  0.51100000000E-03 0.  1.
         23    2    1    0    0    0  0.21377101357E+02 -0.12324473202E+02  0.16817054127E+02  0.95138881273E+02  0.90331170247E+02 0.  0.
         11    1    3    3    0    0 -0.23582420057E+02 -0.35610398104E+02  0.39222444256E+01  0.42890733154E+02  0.51100000000E-03 0. -1.
         22    1    1    0    0    0 -0.21377101357E+02  0.12324473202E+02 -0.16817054127E+02  0.29861118727E+02  0.00000000000E+00 0.  1.
</event>
<event>
 5    1  0.1717518E-003  0.9118800E+02  0.7818608E-02  0.1130116E+00
         25   -1    0    0    0    0  0.00000000000E+00  0.00000000000E+00  0.99999998245E-14  0.12500000000E+03  0.12500000000E+03 0.  0.
        -11    1    3    3    0    0  0.42193734244E+01 -0.13974463613E+02  0.32050164313E+02  0.35217918424E+02  0.51100000000E-03 0. -1.
         23    2    1    0    0    0 -0.14925101602E+00  0.21344355901E+02 -0.18306061265E+02  0.96880332795E+02  0.92709671549E+02 0.  0.
         11    1    3    3    0    0 -0.43686244404E+01  0.35318819514E+02 -0.50356225578E+02  0.61662414371E+02  0.51100000000E-03 0.  1.
         22    1    1    0    0    0  0.14925101602E+00 -0.21344355901E+02  0.18306061265E+02  0.28119667205E+02  0.00000000000E+00 0.  1.
</event>
<event>
 5    1  0.1717518E-003  0.9118800E+02  0.7818608E-02  0.1130116E+00
         25   -1    0    0    0    0  0.00000000000E+00  0.00000000000E+00  0.99999998245E-14  0.12500000000E+03  0.12500000000E+03 0.  0.
        -11    1    3    3    0    0 -0.67807670749E+00  0.46340948849E+02  0.34479730899E+02  0.57764999536E+02  0.51100000000E-03 0.  1.
         23    2    1    0    0    0  0.16491794995E+02  0.17281470262E+02  0.16041856282E+02  0.96225537893E+02  0.91822570608E+02 0.  0.
         11    1    3    3    0    0  0.17169871703E+02 -0.29059478587E+02 -0.18437874617E+02  0.38460538357E+02  0.51100000000E-03 0. -1.
         22    1    1    0    0    0 -0.16491794995E+02 -0.17281470262E+02 -0.16041856282E+02  0.28774462107E+02  0.00000000000E+00 0.  1.
</event>
<event>
 5    1  0.1717518E-003  0.9118800E+02  0.7818608E-02  0.1130116E+00
         25   -1    0    0    0    0  0.00000000000E+00  0.00000000000E+00  0.99999998245E-14  0.12500000000E+03  0.12500000000E+03 0.  0.
        -11    1    3    3    0    0  0.92780401661E+01 -0.16740317392E+02  0.29540039460E+02  0.35198496946E+02  0.51100000000E-03 0. -1.
         23    2    1    0    0    0 -0.66687012261E+01 -0.13560487006E+01 -0.27646784777E+02  0.96527993527E+02  0.92233390817E+02 0.  0.
         11    1    3    3    0    0 -0.15946741392E+02  0.15384268691E+02 -0.57186824237E+02  0.61329496580E+02  0.51100000000E-03 0.  1.
         22    1    1    0    0    0  0.66687012261E+01  0.13560487006E+01  0.27646784777E+02  0.28472006473E+02  0.00000000000E+00 0.  1.
</event>
<event>
 5    1  0.1717518E-003  0.9118800E+02  0.7818608E-02  0.1130116E+00
         25   -1    0    0    0    0  0.00000000000E+00  0.00000000000E+00  0.99999998245E-14  0.12500000000E+03  0.12500000000E+03 0.  0.
        -11    1    3    3    0    0 -0.58457622086E+02  0.16781551548E+02  0.30965427661E+01  0.60897476382E+02  0.51100000000E-03 0.  1.
         23    2    1    0    0    0 -0.22381073588E+02  0.16655498327E+02  0.62792786751E-01  0.97101576704E+02  0.93007495267E+02 0.  0.
         11    1    3    3    0    0  0.36076548498E+02 -0.12605322123E+00 -0.30337499793E+01  0.36204100322E+02  0.51100000000E-03 0. -1.
         22    1    1    0    0    0  0.22381073588E+02 -0.16655498327E+02 -0.62792786751E-01  0.27898423296E+02  0.00000000000E+00 0.  1.
</event>
<event>
 5    1  0.1717518E-003  0.9118800E+02  0.7818608E-02  0.1130116E+00
         25   -1    0    0    0    0  0.00000000000E+00  0.00000000000E+00  0.99999998245E-14  0.12500000000E+03  0.12500000000E+03 0.  0.
        -11    1    3    3    0    0 -0.54190327512E+02 -0.25273634835E+01  0.23316996482E+02  0.59047959213E+02  0.51100000000E-03 0. -1.
         23    2    1    0    0    0 -0.23281448896E+02  0.13338988787E+02  0.12182804721E+02  0.95531793142E+02  0.90873253961E+02 0.  0.
         11    1    3    3    0    0  0.30908878617E+02  0.15866352271E+02 -0.11134191761E+02  0.36483833929E+02  0.51100000000E-03 0.  1.
         22    1    1    0    0    0  0.23281448896E+02 -0.13338988787E+02 -0.12182804721E+02  0.29468206858E+02  0.00000000000E+00 0. -1.
</event>
<event>
 5    1  0.1717518E-003  0.9118800E+02  0.7818608E-02  0.1130116E+00
         25   -1    0    0    0    0  0.00000000000E+00  0.00000000000E+00  0.99999998245E-14  0.12500000000E+03  0.12500000000E+03 0.  0.
        -11    1    3    3    0    0  0.29220327935E+02 -0.17814152008E+02 -0.21765277306E+02  0.40557352883E+02  0.51100000000E-03 0.  1.
         23    2    1    0    0    0 -0.24273343095E+02 -0.13814120595E+02 -0.82828126945E+01  0.95868743608E+02  0.91335567563E+02 0.  0.
         11    1    3    3    0    0 -0.53493671031E+02  0.40000314129E+01  0.13482464611E+02  0.55311390725E+02  0.51100000000E-03 0. -1.
         22    1    1    0    0    0  0.24273343095E+02  0.13814120595E+02  0.82828126945E+01  0.29131256392E+02  0.00000000000E+00 0. -1.
</event>
<event>
 5    1  0.1717518E-003  0.9118800E+02  0.7818608E-02  0.1130116E+00
         25   -1    0    0    0    0  0.00000000000E+00  0.00000000000E+00  0.99999998245E-14  0.12500000000E+03  0.12500000000E+03 0.  0.
        -11    1    3    3    0    0 -0.28454060225E+02  0.19095430002E+02  0.15985000508E+02  0.37812553891E+02  0.51100000000E-03 0. -1.
         23    2    1    0    0    0 -0.32544980488E+01 -0.11239635591E+02 -0.26652651131E+02  0.95891840009E+02  0.91367171359E+02 0.  0.
         11    1    3    3    0    0  0.25199562176E+02 -0.30335065593E+02 -0.42637651639E+02  0.58079286118E+02  0.51100000000E-03 0.  1.
         22    1    1    0    0    0  0.32544980488E+01  0.11239635591E+02  0.26652651131E+02  0.29108159991E+02  0.00000000000E+00 0.  1.
</event>
<event>
 5    1  0.1717518E-003  0.9118800E+02  0.7818608E-02  0.1130116E+00
         25   -1    0    0    0    0  0.00000000000E+00  0.00000000000E+00  0.99999998245E-14  0.12500000000E+03  0.12500000000E+03 0.  0.
        -11    1    3    3    0    0 -0.23284297700E+02 -0.13019070669E+02  0.53178417758E+02  0.59494527782E+02  0.51100000000E-03 0. -1.
         23    2    1    0    0    0 -0.21089362960E+02 -0.51418631906E+01  0.14816558875E+02  0.98718249601E+02  0.95155464374E+02 0.  0.
         11    1    3    3    0    0  0.21949347399E+01  0.78772074780E+01 -0.38361858883E+02  0.39223721819E+02  0.51100000000E-03 0.  1.
         22    1    1    0    0    0  0.21089362960E+02  0.51418631906E+01 -0.14816558875E+02  0.26281750399E+02  0.00000000000E+00 0.  1.
</event>
<event>
 5    1  0.1717518E-003  0.9118800E+02  0.7818608E-02  0.1130116E+00
         25   -1    0    0    0    0  0.00000000000E+00  0.00000000000E+00  0.99999998245E-14  0.12500000000E+03  0.12500000000E+03 0.  0.
        -11    1    3    3    0    0 -0.30784682066E+01 -0.32646165957E+02  0.47555705974E+02  0.57764991900E+02  0.51100000000E-03 0.  1.
         23    2    1    0    0    0 -0.14725151559E+02 -0.38147433050E+01  0.23176665208E+02  0.97277443028E+02  0.93243556115E+02 0.  0.
         11    1    3    3    0    0 -0.11646683352E+02  0.28831422652E+02 -0.24379040767E+02  0.39512451129E+02  0.51100000000E-03 0. -1.
         22    1    1    0    0    0  0.14725151559E+02  0.38147433050E+01 -0.23176665208E+02  0.27722556972E+02  0.00000000000E+00 0.  1.
</event>
<event>
 5    1  0.1717518E-003  0.9118800E+02  0.7818608E-02  0.1130116E+00
         25   -1    0    0    0    0  0.00000000000E+00  0.00000000000E+00  0.99999998245E-14  0.12500000000E+03  0.12500000000E+03 0.  0.
        -11    1    3    3    0    0 -0.48742310046E+02  0.19477710162E+02  0.31246042590E+02  0.61086079916E+02  0.51100000000E-03 0.  1.
         23    2    1    0    0    0 -0.25676035181E+02  0.10859246735E+01  0.19057474829E+02  0.93005854256E+02  0.87329625924E+02 0.  0.
         11    1    3    3    0    0  0.23066274865E+02 -0.18391785488E+02 -0.12188567761E+02  0.31919774340E+02  0.51100000000E-03 0. -1.
         22    1    1    0    0    0  0.25676035181E+02 -0.10859246735E+01 -0.19057474829E+02  0.31994145744E+02  0.00000000000E+00 0.  1.
</event>
<event>
 5    1  0.1717518E-003  0.9118800E+02  0.7818608E-02  0.1130116E+00
         25   -1    0    0    0    0  0.00000000000E+00  0.00000000000E+00  0.99999998245E-14  0.12500000000E+03  0.12500000000E+03 0.  0.
        -11    1    3    3    0    0  0.90641068189E+01  0.28864214747E+02 -0.19497787604E+02  0.35992563775E+02  0.51100000000E-03 0.  1.
         23    2    1    0    0    0 -0.28509294973E+02 -0.11018231475E+02  0.79993485699E+00  0.94425153794E+02  0.89338057112E+02 0.  0.
         11    1    3    3    0    0 -0.37573401792E+02 -0.39882446223E+02  0.20297722461E+02  0.58432590019E+02  0.51100000000E-03 0. -1.
         22    1    1    0    0    0  0.28509294973E+02  0.11018231475E+02 -0.79993485699E+00  0.30574846206E+02  0.00000000000E+00 0. -1.
</event>
<event>
 5    1  0.1717518E-003  0.9118800E+02  0.7818608E-02  0.1130116E+00
         25   -1    0    0    0    0  0.00000000000E+00  0.00000000000E+00  0.99999998245E-14  0.12500000000E+03  0.12500000000E+03 0.  0.
        -11    1    3    3    0    0 -0.22672171896E+02 -0.39102439602E+01 -0.11817655210E+02  0.25864538682E+02  0.51100000000E-03 0. -1.
         23    2    1    0    0    0  0.37474704734E+02  0.11736729734E+01  0.65565927551E+00  0.87501188122E+02  0.79058820068E+02 0.  0.
         11    1    3    3    0    0  0.60146876630E+02  0.50839169336E+01  0.12473314485E+02  0.61636649440E+02  0.51100000000E-03 0.  1.
         22    1    1    0    0    0 -0.37474704734E+02 -0.11736729734E+01 -0.65565927551E+00  0.37498811878E+02  0.00000000000E+00 0.  1.
</event>
<event>
 5    1  0.1717518E-003  0.9118800E+02  0.7818608E-02  0.1130116E+00
         25   -1    0    0    0    0  0.00000000000E+00  0.00000000000E+00  0.99999998245E-14  0.12500000000E+03  0.12500000000E+03 0.  0.
        -11    1    3    3    0    0 -0.35785463550E+02  0.11577346788E+02 -0.25251479968E+02  0.45302004381E+02  0.51100000000E-03 0. -1.
         23    2    1    0    0    0 -0.86401692201E+01  0.23640248461E+02  0.15281568691E+02  0.95554453425E+02  0.90904418794E+02 0.  0.
         11    1    3    3    0    0  0.27145294329E+02  0.12062901673E+02  0.40533048659E+02  0.50252449044E+02  0.51100000000E-03 0.  1.
         22    1    1    0    0    0  0.86401692201E+01 -0.23640248461E+02 -0.15281568691E+02  0.29445546575E+02  0.00000000000E+00 0.  1.
</event>
<event>
 5    1  0.1717518E-003  0.9118800E+02  0.7818608E-02  0.1130116E+00
         25   -1    0    0    0    0  0.00000000000E+00  0.00000000000E+00  0.99999998245E-14  0.12500000000E+03  0.12500000000E+03 0.  0.
        -11    1    3    3    0    0 -0.19988156367E+02 -0.86184611276E+01 -0.30590065026E+02  0.37544058727E+02  0.51100000000E-03 0.  1.
         23    2    1    0    0    0 -0.10837931743E+02  0.27061909544E+02  0.11665836237E+02  0.93600964223E+02  0.88177327333E+02 0.  0.
         11    1    3    3    0    0  0.91502246233E+01  0.35680370672E+02  0.42255901263E+02  0.56056905496E+02  0.51100000000E-03 0. -1.
         22    1    1    0    0    0  0.10837931743E+02 -0.27061909544E+02 -0.11665836237E+02  0.31399035777E+02  0.00000000000E+00 0. -1.
</event>
<event>
 5    1  0.1717518E-003  0.9118800E+02  0.7818608E-02  0.1130116E+00
         25   -1    0    0    0    0  0.00000000000E+00  0.00000000000E+00  0.99999998245E-14  0.12500000000E+03  0.12500000000E+03 0.  0.
        -11    1    3    3    0    0  0.11387485637E+02  0.23850966400E+02  0.23358572296E+02  0.35272741988E+02  0.51100000000E-03 0.  1.
         23    2    1    0    0    0  0.63235256512E+01  0.18249105374E-01 -0.30217030957E+02  0.94128390558E+02  0.88921862550E+02 0.  0.
         11    1    3    3    0    0 -0.50639599863E+01 -0.23832717294E+02 -0.53575603253E+02  0.58855648570E+02  0.51100000000E-03 0. -1.
         22    1    1    0    0    0 -0.63235256512E+01 -0.18249105374E-01  0.30217030957E+02  0.30871609442E+02  0.00000000000E+00 0. -1.
</event>
<event>
 5    1  0.1717518E-003  0.9118800E+02  0.7818608E-02  0.1130116E+00
         25   -1    0    0    0    0  0.00000000000E+00  0.00000000000E+00  0.99999998245E-14  0.12500000000E+03  0.12500000000E+03 0.  0.
        -11    1    3    3    0    0  0.24879399815E+02  0.92191299838E+01  0.26888720107E+02  0.37775390958E+02  0.51100000000E-03 0. -1.
         23    2    1    0    0    0 -0.61126860548E+01  0.18547555127E+02 -0.21477254316E+02  0.95971579703E+02  0.91476198684E+02 0.  0.
         11    1    3    3    0    0 -0.30992085870E+02  0.93284251429E+01 -0.48365974423E+02  0.58196188744E+02  0.51100000000E-03 0.  1.
         22    1    1    0    0    0  0.61126860548E+01 -0.18547555127E+02  0.21477254316E+02  0.29028420297E+02  0.00000000000E+00 0.  1.
</event>
<event>
 5    1  0.1717518E-003  0.9118800E+02  0.7818608E-02  0.1130116E+00
         25   -1    0    0    0    0  0.00000000000E+00  0.00000000000E+00  0.99999998245E-14  0.12500000000E+03  0.12500000000E+03 0.  0.
        -11    1    3    3    0    0 -0.50451365828E+02  0.14335471532E+01  0.99150613520E+01  0.51436405524E+02  0.51100000000E-03 0.  1.
         23    2    1    0    0    0 -0.25663237516E+02 -0.19257932560E+02  0.22199585165E+02  0.85983448284E+02  0.76621550957E+02 0.  0.
         11    1    3    3    0    0  0.24788128311E+02 -0.20691479713E+02  0.12284523813E+02  0.34547042760E+02  0.51100000000E-03 0. -1.
         22    1    1    0    0    0  0.25663237516E+02  0.19257932560E+02 -0.22199585165E+02  0.39016551716E+02  0.00000000000E+00 0.  1.
</event>
<event>
 5    1  0.1717518E-003  0.9118800E+02  0.7818608E-02  0.1130116E+00
         25   -1    0    0    0    0  0.00000000000E+00  0.00000000000E+00  0.99999998245E-14  0.12500000000E+03  0.12500000000E+03 0.  0.
        -11    1    3    3    0    0 -0.72369852036E+01  0.59018895586E+02 -0.31251307985E+01  0.59543013308E+02  0.51100000000E-03 0.  1.
         23    2    1    0    0    0 -0.12837197377E+02  0.24696002619E+02 -0.10779749444E+02  0.95152233251E+02  0.90349644785E+02 0.  0.
         11    1    3    3    0    0 -0.56002121734E+01 -0.34322892968E+02 -0.76546186454E+01  0.35609219943E+02  0.51100000000E-03 0. -1.
         22    1    1    0    0    0  0.12837197377E+02 -0.24696002619E+02  0.10779749444E+02  0.29847766749E+02  0.00000000000E+00 0.  1.
</event>
<event>
 5    1  0.1717518E-003  0.9118800E+02  0.7818608E-02  0.1130116E+00
         25   -1    0    0    0    0  0.00000000000E+00  0.00000000000E+00  0.99999998245E-14  0.12500000000E+03  0.12500000000E+03 0.  0.
        -11    1    3    3    0    0  0.25796424082E+02 -0.27140956163E+02 -0.22036603645E+02  0.43447656983E+02  0.51100000000E-03 0. -1.
         23    2    1    0    0    0 -0.76741299995E+01 -0.19866860114E+02  0.18691224998E+02  0.96663693008E+02  0.92417115579E+02 0.  0.
         11    1    3    3    0    0 -0.33470554082E+02  0.72740960486E+01  0.40727828643E+02  0.53216036024E+02  0.51100000000E-03 0.  1.
         22    1    1    0    0    0  0.76741299995E+01  0.19866860114E+02 -0.18691224998E+02  0.28336306992E+02  0.00000000000E+00 0.  1.
</event>
<event>
 5    1  0.1717518E-003  0.9118800E+02  0.7818608E-02  0.1130116E+00
         25   -1    0    0    0    0  0.00000000000E+00  0.00000000000E+00  0.99999998245E-14  0.12500000000E+03  0.12500000000E+03 0.  0.
        -11    1    3    3    0    0 -0.29765824458E+02 -0.24171972173E+02  0.15451385656E+02  0.41340462786E+02  0.51100000000E-03 0.  1.
         23    2    1    0    0    0 -0.14295155929E+02  0.80028689345E+01 -0.24884704374E+02  0.95206613049E+02  0.90424848700E+02 0.  0.
         11    1    3    3    0    0  0.15470668529E+02  0.32174841108E+02 -0.40336090030E+02  0.53866150263E+02  0.51100000000E-03 0. -1.
         22    1    1    0    0    0  0.14295155929E+02 -0.80028689345E+01  0.24884704374E+02  0.29793386951E+02  0.00000000000E+00 0.  1.
</event>
<event>
 5    1  0.1717518E-003  0.9118800E+02  0.7818608E-02  0.1130116E+00
         25   -1    0    0    0    0  0.00000000000E+00  0.00000000000E+00  0.99999998245E-14  0.12500000000E+03  0.12500000000E+03 0.  0.
        -11    1    3    3    0    0 -0.24371683917E+02  0.17652229425E+02 -0.99257575551E+01  0.31687550299E+02  0.51100000000E-03 0. -1.
         23    2    1    0    0    0  0.63835810506E+01 -0.31992202012E+02 -0.12301237872E+02  0.90134952319E+02  0.83118819047E+02 0.  0.
         11    1    3    3    0    0  0.30755264968E+02 -0.49644431437E+02 -0.23754803164E+01  0.58447402020E+02  0.51100000000E-03 0.  1.
         22    1    1    0    0    0 -0.63835810506E+01  0.31992202012E+02  0.12301237872E+02  0.34865047681E+02  0.00000000000E+00 0.  1.
</event>
<event>
 5    1  0.1717518E-003  0.9118800E+02  0.7818608E-02  0.1130116E+00
         25   -1    0    0    0    0  0.00000000000E+00  0.00000000000E+00  0.99999998245E-14  0.12500000000E+03  0.12500000000E+03 0.  0.
        -11    1    3    3    0    0 -0.31263319638E+02 -0.18065567400E+02  0.40654125654E+02  0.54373870685E+02  0.51100000000E-03 0. -1.
         23    2    1    0    0    0  0.47273303993E+01 -0.20392239762E+02  0.20556211204E+02  0.95661477299E+02  0.91051465253E+02 0.  0.
         11    1    3    3    0    0  0.35990650037E+02 -0.23266723625E+01 -0.20097914450E+02  0.41287606614E+02  0.51100000000E-03 0.  1.
         22    1    1    0    0    0 -0.47273303993E+01  0.20392239762E+02 -0.20556211204E+02  0.29338522701E+02  0.00000000000E+00 0. -1.
</event>
<event>
 5    1  0.1717518E-003  0.9118800E+02  0.7818608E-02  0.1130116E+00
         25   -1    0    0    0    0  0.00000000000E+00  0.00000000000E+00  0.99999998245E-14  0.12500000000E+03  0.12500000000E+03 0.  0.
        -11    1    3    3    0    0 -0.69916309795E+01  0.39402504198E+02 -0.17241161102E+01  0.40055122238E+02  0.51100000000E-03 0.  1.
         23    2    1    0    0    0  0.15755956440E+02 -0.14140074495E+02 -0.14142455728E+02  0.99540209661E+02  0.96229166136E+02 0.  0.
         11    1    3    3    0    0  0.22747587419E+02 -0.53542578694E+02 -0.12418339618E+02  0.59485087423E+02  0.51100000000E-03 0. -1.
         22    1    1    0    0    0 -0.15755956440E+02  0.14140074495E+02  0.14142455728E+02  0.25459790339E+02  0.00000000000E+00 0. -1.
</event>
<event>
 5    1  0.1717518E-003  0.9118800E+02  0.7818608E-02  0.1130116E+00
         25   -1    0    0    0    0  0.00000000000E+00  0.00000000000E+00  0.99999998245E-14  0.12500000000E+03  0.12500000000E+03 0.  0.
        -11    1    3    3    0    0 -0.32730953827E+02 -0.27972331828E+02 -0.38632464739E+02  0.57846642239E+02  0.51100000000E-03 0.  1.
         23    2    1    0    0    0 -0.14266939367E+02 -0.24925032701E+02 -0.57064333261E+01  0.95719183834E+02  0.91130653232E+02 0.  0.
         11    1    3    3    0    0  0.18464014460E+02  0.30472991267E+01  0.32926031413E+02  0.37872541594E+02  0.51100000000E-03 0. -1.
         22    1    1    0    0    0  0.14266939367E+02  0.24925032701E+02  0.57064333261E+01  0.29280816166E+02  0.00000000000E+00 0.  1.
</event>
<event>
 5    1  0.1717518E-003  0.9118800E+02  0.7818608E-02  0.1130116E+00
         25   -1    0    0    0    0  0.00000000000E+00  0.00000000000E+00  0.99999998245E-14  0.12500000000E+03  0.12500000000E+03 0.  0.
        -11    1    3    3    0    0  0.23989915655E+02 -0.11536538605E+02  0.30460690457E+02  0.40453200609E+02  0.51100000000E-03 0.  1.
         23    2    1    0    0    0  0.13384784772E+02  0.23904185469E+02 -0.10512696257E+02  0.95655846768E+02  0.91043735051E+02 0.  0.
         11    1    3    3    0    0 -0.10605130883E+02  0.35440724073E+02 -0.40973386714E+02  0.55202646159E+02  0.51100000000E-03 0. -1.
         22    1    1    0    0    0 -0.13384784772E+02 -0.23904185469E+02  0.10512696257E+02  0.29344153232E+02  0.00000000000E+00 0. -1.
</event>
<event>
 5    1  0.1717518E-003  0.9118800E+02  0.7818608E-02  0.1130116E+00
         25   -1    0    0    0    0  0.00000000000E+00  0.00000000000E+00  0.99999998245E-14  0.12500000000E+03  0.12500000000E+03 0.  0.
        -11    1    3    3    0    0 -0.62281630478E+01  0.50594358170E+02  0.25936821406E+02  0.57195260280E+02  0.51100000000E-03 0. -1.
         23    2    1    0    0    0  0.89154192766E+01  0.27789385241E+02 -0.12662750962E+01  0.95788048926E+02  0.91225063615E+02 0.  0.
         11    1    3    3    0    0  0.15143582324E+02 -0.22804972929E+02 -0.27203096503E+02  0.38592788646E+02  0.51100000000E-03 0.  1.
         22    1    1    0    0    0 -0.89154192766E+01 -0.27789385241E+02  0.12662750962E+01  0.29211951074E+02  0.00000000000E+00 0. -1.
</event>
<event>
 5    1  0.1717518E-003  0.9118800E+02  0.7818608E-02  0.1130116E+00
         25   -1    0    0    0    0  0.00000000000E+00  0.00000000000E+00  0.99999998245E-14  0.12500000000E+03  0.12500000000E+03 0.  0.
        -11    1    3    3    0    0 -0.30260563063E+02  0.32900131963E+02 -0.51642204605E+01  0.44997661421E+02  0.51100000000E-03 0.  1.
         23    2    1    0    0    0 -0.13774800411E+02 -0.15330095012E+02 -0.18085865901E+02  0.97580016688E+02  0.93648300422E+02 0.  0.
         11    1    3    3    0    0  0.16485762652E+02 -0.48230226976E+02 -0.12921645440E+02  0.52582355268E+02  0.51100000000E-03 0. -1.
         22    1    1    0    0    0  0.13774800411E+02  0.15330095012E+02  0.18085865901E+02  0.27419983312E+02  0.00000000000E+00 0.  1.
</event>
<event>
 5    1  0.1717518E-003  0.9118800E+02  0.7818608E-02  0.1130116E+00
         25   -1    0    0    0    0  0.00000000000E+00  0.00000000000E+00  0.99999998245E-14  0.12500000000E+03  0.12500000000E+03 0.  0.
        -11    1    3    3    0    0  0.23848285400E+02  0.35097782386E+02  0.52952917473E+01  0.42762543889E+02  0.51100000000E-03 0.  1.
         23    2    1    0    0    0  0.12030254644E+02 -0.73394478143E+01 -0.25052293434E+02  0.96256097563E+02  0.91864162711E+02 0.  0.
         11    1    3    3    0    0 -0.11818030757E+02 -0.42437230200E+02 -0.30347585182E+02  0.53493553674E+02  0.51100000000E-03 0. -1.
         22    1    1    0    0    0 -0.12030254644E+02  0.73394478143E+01  0.25052293434E+02  0.28743902437E+02  0.00000000000E+00 0. -1.
</event>
<event>
 5    1  0.1717518E-003  0.9118800E+02  0.7818608E-02  0.1130116E+00
         25   -1    0    0    0    0  0.00000000000E+00  0.00000000000E+00  0.99999998245E-14  0.12500000000E+03  0.12500000000E+03 0.  0.
        -11    1    3    3    0    0 -0.63801927170E+01  0.37365342275E+01  0.40204671571E+02  0.40878896310E+02  0.51100000000E-03 0. -1.
         23    2    1    0    0    0  0.22412716629E+02  0.17597087872E+02 -0.48290695905E+01  0.96098316980E+02  0.91649218464E+02 0.  0.
         11    1    3    3    0    0  0.28792909346E+02  0.13860553645E+02 -0.45033741161E+02  0.55219420670E+02  0.51100000000E-03 0.  1.
         22    1    1    0    0    0 -0.22412716629E+02 -0.17597087872E+02  0.48290695905E+01  0.28901683020E+02  0.00000000000E+00 0.  1.
</event>
<event>
 5    1  0.1717518E-003  0.9118800E+02  0.7818608E-02  0.1130116E+00
         25   -1    0    0    0    0  0.00000000000E+00  0.00000000000E+00  0.99999998245E-14  0.12500000000E+03  0.12500000000E+03 0.  0.
        -11    1    3    3    0    0  0.13668503344E+02 -0.24081366110E+02  0.25459779616E+02  0.37615695603E+02  0.51100000000E-03 0. -1.
         23    2    1    0    0    0 -0.18259508597E+02  0.21321049646E+02  0.77176211619E+01  0.95887142212E+02  0.91360744047E+02 0.  0.
         11    1    3    3    0    0 -0.31928011942E+02  0.45402415755E+02 -0.17742158454E+02  0.58271446608E+02  0.51100000000E-03 0.  1.
         22    1    1    0    0    0  0.18259508597E+02 -0.21321049646E+02 -0.77176211619E+01  0.29112857788E+02  0.00000000000E+00 0.  1.
</event>
<event>
 5    1  0.1717518E-003  0.9118800E+02  0.7818608E-02  0.1130116E+00
         25   -1    0    0    0    0  0.00000000000E+00  0.00000000000E+00  0.99999998245E-14  0.12500000000E+03  0.12500000000E+03 0.  0.
        -11    1    3    3    0    0 -0.35929929854E+02 -0.21028217923E+02 -0.25836899278E+02  0.48996848602E+02  0.51100000000E-03 0. -1.
         23    2    1    0    0    0 -0.64566427286E+01  0.13059704808E+02 -0.27269920433E+02  0.94082485782E+02  0.88857309466E+02 0.  0.
         11    1    3    3    0    0  0.29473287126E+02  0.34087922730E+02 -0.14330211552E+01  0.45085637180E+02  0.51100000000E-03 0.  1.
         22    1    1    0    0    0  0.64566427286E+01 -0.13059704808E+02  0.27269920433E+02  0.30917514218E+02  0.00000000000E+00 0. -1.
</event>
<event>
 5    1  0.1717518E-003  0.9118800E+02  0.7818608E-02  0.1130116E+00
         25   -1    0    0    0    0  0.00000000000E+00  0.00000000000E+00  0.99999998245E-14  0.12500000000E+03  0.12500000000E+03 0.  0.
        -11    1    3    3    0    0 -0.19006452047E+02  0.44203525331E+02 -0.39048176245E+02  0.61967386094E+02  0.51100000000E-03 0.  1.
         23    2    1    0    0    0 -0.11340262124E+02  0.13863812712E+02 -0.11070347501E+02  0.10394389775E+03  0.10178887188E+03 0.  0.
         11    1    3    3    0    0  0.76661899230E+01 -0.30339712619E+02  0.27977828743E+02  0.41976511660E+02  0.51100000000E-03 0. -1.
         22    1    1    0    0    0  0.11340262124E+02 -0.13863812712E+02  0.11070347501E+02  0.21056102245E+02  0.00000000000E+00 0.  1.
</event>
<event>
 5    1  0.1717518E-003  0.9118800E+02  0.7818608E-02  0.1130116E+00
         25   -1    0    0    0    0  0.00000000000E+00  0.00000000000E+00  0.99999998245E-14  0.12500000000E+03  0.12500000000E+03 0.  0.
        -11    1    3    3    0    0 -0.30115495237E+02 -0.48198913806E+02 -0.10945906611E+01  0.56844317873E+02  0.51100000000E-03 0. -1.
         23    2    1    0    0    0 -0.69259095878E+01 -0.22036485657E+02 -0.18036200471E+02  0.95693354829E+02  0.91095217807E+02 0.  0.
         11    1    3    3    0    0  0.23189585649E+02  0.26162428149E+02 -0.16941609810E+02  0.38849036956E+02  0.51100000000E-03 0.  1.
         22    1    1    0    0    0  0.69259095878E+01  0.22036485657E+02  0.18036200471E+02  0.29306645171E+02  0.00000000000E+00 0. -1.
</event>
<event>
 5    1  0.1717518E-003  0.9118800E+02  0.7818608E-02  0.1130116E+00
         25   -1    0    0    0    0  0.00000000000E+00  0.00000000000E+00  0.99999998245E-14  0.12500000000E+03  0.12500000000E+03 0.  0.
        -11    1    3    3    0    0  0.14899032568E+02 -0.24170933947E+02 -0.19731002740E+02  0.34576403640E+02  0.51100000000E-03 0. -1.
         23    2    1    0    0    0 -0.76891145366E+01  0.66565858559E+01  0.27702142861E+02  0.95489979046E+02  0.90815718692E+02 0.  0.
         11    1    3    3    0    0 -0.22588147104E+02  0.30827519803E+02  0.47433145601E+02  0.60913575406E+02  0.51100000000E-03 0.  1.
         22    1    1    0    0    0  0.76891145366E+01 -0.66565858559E+01 -0.27702142861E+02  0.29510020954E+02  0.00000000000E+00 0.  1.
</event>
<event>
 5    1  0.1717518E-003  0.9118800E+02  0.7818608E-02  0.1130116E+00
         25   -1    0    0    0    0  0.00000000000E+00  0.00000000000E+00  0.99999998245E-14  0.12500000000E+03  0.12500000000E+03 0.  0.
        -11    1    3    3    0    0 -0.33025631143E+02 -0.11628841777E+02 -0.16110449226E+02  0.38541780550E+02  0.51100000000E-03 0. -1.
         23    2    1    0    0    0  0.13076956731E+02 -0.11778055771E+02  0.20910607455E+02  0.97669012107E+02  0.93767014598E+02 0.  0.
         11    1    3    3    0    0  0.46102587873E+02 -0.14921399401E+00  0.37021056681E+02  0.59127231556E+02  0.51100000000E-03 0.  1.
         22    1    1    0    0    0 -0.13076956731E+02  0.11778055771E+02 -0.20910607455E+02  0.27330987893E+02  0.00000000000E+00 0.  1.
</event>
<event>
 5    1  0.1717518E-003  0.9118800E+02  0.7818608E-02  0.1130116E+00
         25   -1    0    0    0    0  0.00000000000E+00  0.00000000000E+00  0.99999998245E-14  0.12500000000E+03  0.12500000000E+03 0.  0.
        -11    1    3    3    0    0 -0.10531792236E+02  0.18505280181E+02  0.45882997024E+02  0.50582738740E+02  0.51100000000E-03 0.  1.
         23    2    1    0    0    0  0.14424616675E+02  0.24458030808E+02  0.95883621814E+01  0.95029989547E+02  0.90180360317E+02 0.  0.
         11    1    3    3    0    0  0.24956408911E+02  0.59527506267E+01 -0.36294634842E+02  0.44447250807E+02  0.51100000000E-03 0. -1.
         22    1    1    0    0    0 -0.14424616675E+02 -0.24458030808E+02 -0.95883621814E+01  0.29970010453E+02  0.00000000000E+00 0.  1.
</event>
<event>
 5    1  0.1717518E-003  0.9118800E+02  0.7818608E-02  0.1130116E+00
         25   -1    0    0    0    0  0.00000000000E+00  0.00000000000E+00  0.99999998245E-14  0.12500000000E+03  0.12500000000E+03 0.  0.
        -11    1    3    3    0    0 -0.38186375286E+02 -0.32078617893E+02  0.74032466238E+01  0.50418697368E+02  0.51100000000E-03 0.  1.
         23    2    1    0    0    0  0.25944996063E+01 -0.24049187826E+02 -0.13876875751E+02  0.97113398488E+02  0.93023382125E+02 0.  0.
         11    1    3    3    0    0  0.40780874893E+02  0.80294300671E+01 -0.21280122374E+02  0.46694701121E+02  0.51100000000E-03 0. -1.
         22    1    1    0    0    0 -0.25944996063E+01  0.24049187826E+02  0.13876875751E+02  0.27886601512E+02  0.00000000000E+00 0.  1.
</event>
<event>
 5    1  0.1717518E-003  0.9118800E+02  0.7818608E-02  0.1130116E+00
         25   -1    0    0    0    0  0.00000000000E+00  0.00000000000E+00  0.99999998245E-14  0.12500000000E+03  0.12500000000E+03 0.  0.
        -11    1    3    3    0    0  0.23286348269E+02  0.24805482876E+01  0.25173107542E+02  0.34381571796E+02  0.51100000000E-03 0.  1.
         23    2    1    0    0    0 -0.26505128399E+02 -0.73376495673E+01 -0.95649142234E+01  0.95882127195E+02  0.91353882231E+02 0.  0.
         11    1    3    3    0    0 -0.49791476668E+02 -0.98181978549E+01 -0.34738021766E+02  0.61500555399E+02  0.51100000000E-03 0. -1.
         22    1    1    0    0    0  0.26505128399E+02  0.73376495673E+01  0.95649142234E+01  0.29117872805E+02  0.00000000000E+00 0. -1.
</event>
<event>
 5    1  0.1717518E-003  0.9118800E+02  0.7818608E-02  0.1130116E+00
         25   -1    0    0    0    0  0.00000000000E+00  0.00000000000E+00  0.99999998245E-14  0.12500000000E+03  0.12500000000E+03 0.  0.
        -11    1    3    3    0    0  0.52812263952E+02  0.66890092409E+01  0.17827101086E+02  0.56139857515E+02  0.51100000000E-03 0. -1.
         23    2    1    0    0    0  0.24269998572E+02  0.96433928032E+01 -0.10861230571E+02  0.96715831549E+02  0.92487609372E+02 0.  0.
         11    1    3    3    0    0 -0.28542265381E+02  0.29543835623E+01 -0.28688331657E+02  0.40575974034E+02  0.51100000000E-03 0.  1.
         22    1    1    0    0    0 -0.24269998572E+02 -0.96433928032E+01  0.10861230571E+02  0.28284168451E+02  0.00000000000E+00 0. -1.
</event>
<event>
 5    1  0.1717518E-003  0.9118800E+02  0.7818608E-02  0.1130116E+00
         25   -1    0    0    0    0  0.00000000000E+00  0.00000000000E+00  0.99999998245E-14  0.12500000000E+03  0.12500000000E+03 0.  0.
        -11    1    3    3    0    0  0.43359547482E+02 -0.19653590286E+02 -0.34760562803E+02  0.58945828483E+02  0.51100000000E-03 0.  1.
         23    2    1    0    0    0  0.20737894023E+02  0.47879831317E+01 -0.21366321369E+02  0.94842004049E+02  0.89919413989E+02 0.  0.
         11    1    3    3    0    0 -0.22621653459E+02  0.24441573418E+02  0.13394241434E+02  0.35896175565E+02  0.51100000000E-03 0. -1.
         22    1    1    0    0    0 -0.20737894023E+02 -0.47879831317E+01  0.21366321369E+02  0.30157995951E+02  0.00000000000E+00 0.  1.
</event>
<event>
 5    1  0.1717518E-003  0.9118800E+02  0.7818608E-02  0.1130116E+00
         25   -1    0    0    0    0  0.00000000000E+00  0.00000000000E+00  0.99999998245E-14  0.12500000000E+03  0.12500000000E+03 0.  0.
        -11    1    3    3    0    0 -0.27075797372E+02 -0.16729738268E+02  0.18486468258E+02  0.36806690353E+02  0.51100000000E-03 0. -1.
         23    2    1    0    0    0  0.10260226193E+00  0.28297761392E+02 -0.78598967246E+01  0.95630767740E+02  0.91009295871E+02 0.  0.
         11    1    3    3    0    0  0.27178399634E+02  0.45027499660E+02 -0.26346364982E+02  0.58824077386E+02  0.51100000000E-03 0.  1.
         22    1    1    0    0    0 -0.10260226193E+00 -0.28297761392E+02  0.78598967246E+01  0.29369232260E+02  0.00000000000E+00 0.  1.
</event>
<event>
 5    1  0.1717518E-003  0.9118800E+02  0.7818608E-02  0.1130116E+00
         25   -1    0    0    0    0  0.00000000000E+00  0.00000000000E+00  0.99999998245E-14  0.12500000000E+03  0.12500000000E+03 0.  0.
        -11    1    3    3    0    0 -0.10732879451E+00  0.21043938043E+02 -0.25294799510E+02  0.32904190164E+02  0.51100000000E-03 0.  1.
         23    2    1    0    0    0 -0.23222436037E+02  0.23180131217E+01  0.24661070410E+02  0.91046751052E+02  0.84478919046E+02 0.  0.
         11    1    3    3    0    0 -0.23115107243E+02 -0.18725924921E+02  0.49955869920E+02  0.58142560889E+02  0.51100000000E-03 0. -1.
         22    1    1    0    0    0  0.23222436037E+02 -0.23180131217E+01 -0.24661070410E+02  0.33953248948E+02  0.00000000000E+00 0. -1.
</event>
<event>
 5    1  0.1717518E-003  0.9118800E+02  0.7818608E-02  0.1130116E+00
         25   -1    0    0    0    0  0.00000000000E+00  0.00000000000E+00  0.99999998245E-14  0.12500000000E+03  0.12500000000E+03 0.  0.
        -11    1    3    3    0    0 -0.31199021580E+01 -0.32295562586E+02  0.35618649423E+02  0.48181172041E+02  0.51100000000E-03 0. -1.
         23    2    1    0    0    0  0.51469252557E+01 -0.26053396769E+02 -0.11233584537E+02  0.96164886954E+02  0.91739968054E+02 0.  0.
         11    1    3    3    0    0  0.82668274137E+01  0.62421658174E+01 -0.46852233960E+02  0.47983714914E+02  0.51100000000E-03 0.  1.
         22    1    1    0    0    0 -0.51469252557E+01  0.26053396769E+02  0.11233584537E+02  0.28835113046E+02  0.00000000000E+00 0. -1.
</event>
<event>
 5    1  0.1717518E-003  0.9118800E+02  0.7818608E-02  0.1130116E+00
         25   -1    0    0    0    0  0.00000000000E+00  0.00000000000E+00  0.99999998245E-14  0.12500000000E+03  0.12500000000E+03 0.  0.
        -11    1    3    3    0    0  0.13487464307E+01 -0.39706146593E+02 -0.33163441573E+02  0.51751435260E+02  0.51100000000E-03 0.  1.
         23    2    1    0    0    0  0.25240205869E+02 -0.16086669882E+02 -0.71872195899E+01  0.94218429773E+02  0.89048343293E+02 0.  0.
         11    1    3    3    0    0  0.23891459439E+02  0.23619476711E+02  0.25976221983E+02  0.42466994513E+02  0.51100000000E-03 0. -1.
         22    1    1    0    0    0 -0.25240205869E+02  0.16086669882E+02  0.71872195899E+01  0.30781570227E+02  0.00000000000E+00 0.  1.
</event>
<event>
 5    1  0.1717518E-003  0.9118800E+02  0.7818608E-02  0.1130116E+00
         25   -1    0    0    0    0  0.00000000000E+00  0.00000000000E+00  0.99999998245E-14  0.12500000000E+03  0.12500000000E+03 0.  0.
        -11    1    3    3    0    0  0.36213204825E+02  0.43997380840E+01  0.51018714848E+01  0.36834535314E+02  0.51100000000E-03 0.  1.
         23    2    1    0    0    0  0.29566655360E+01 -0.22073117917E+02 -0.26926661594E+02  0.90057053498E+02  0.83001586578E+02 0.  0.
         11    1    3    3    0    0 -0.33256539289E+02 -0.26472856001E+02 -0.32028533079E+02  0.53222518183E+02  0.51100000000E-03 0. -1.
         22    1    1    0    0    0 -0.29566655360E+01  0.22073117917E+02  0.26926661594E+02  0.34942946502E+02  0.00000000000E+00 0. -1.
</event>
<event>
 5    1  0.1717518E-003  0.9118800E+02  0.7818608E-02  0.1130116E+00
         25   -1    0    0    0    0  0.00000000000E+00  0.00000000000E+00  0.99999998245E-14  0.12500000000E+03  0.12500000000E+03 0.  0.
        -11    1    3    3    0    0  0.50840692091E+02 -0.45853355970E+01  0.46526674097E+01  0.51258644043E+02  0.51100000000E-03 0. -1.
         23    2    1    0    0    0  0.17627880341E+02  0.11485402279E+02 -0.20270692134E+02  0.95784292060E+02  0.91219915671E+02 0.  0.
         11    1    3    3    0    0 -0.33212811749E+02  0.16070737876E+02 -0.24923359544E+02  0.44525648018E+02  0.51100000000E-03 0.  1.
         22    1    1    0    0    0 -0.17627880341E+02 -0.11485402279E+02  0.20270692134E+02  0.29215707940E+02  0.00000000000E+00 0. -1.
</event>
<event>
 5    1  0.1717518E-003  0.9118800E+02  0.7818608E-02  0.1130116E+00
         25   -1    0    0    0    0  0.00000000000E+00  0.00000000000E+00  0.99999998245E-14  0.12500000000E+03  0.12500000000E+03 0.  0.
        -11    1    3    3    0    0  0.73125660786E+01  0.22864882493E+02  0.25769589141E+02  0.35218577468E+02  0.51100000000E-03 0. -1.
         23    2    1    0    0    0  0.15559258188E+01 -0.23831128951E+02 -0.14425121131E+02  0.97099682226E+02  0.93004949097E+02 0.  0.
         11    1    3    3    0    0 -0.57566402599E+01 -0.46696011445E+02 -0.40194710272E+02  0.61881104758E+02  0.51100000000E-03 0.  1.
         22    1    1    0    0    0 -0.15559258188E+01  0.23831128951E+02  0.14425121131E+02  0.27900317774E+02  0.00000000000E+00 0.  1.
</event>
<event>
 5    1  0.1717518E-003  0.9118800E+02  0.7818608E-02  0.1130116E+00
         25   -1    0    0    0    0  0.00000000000E+00  0.00000000000E+00  0.99999998245E-14  0.12500000000E+03  0.12500000000E+03 0.  0.
        -11    1    3    3    0    0 -0.48324694850E+02 -0.64581373320E+01 -0.31717515445E+02  0.58163428857E+02  0.51100000000E-03 0. -1.
         23    2    1    0    0    0 -0.25288069833E+02  0.39739380482E+01  0.83916727316E+00  0.99387837631E+02  0.96031033566E+02 0.  0.
         11    1    3    3    0    0  0.23036625017E+02  0.10432075380E+02  0.32556682718E+02  0.41224408774E+02  0.51100000000E-03 0.  1.
         22    1    1    0    0    0  0.25288069833E+02 -0.39739380482E+01 -0.83916727316E+00  0.25612162369E+02  0.00000000000E+00 0. -1.
</event>
<event>
 5    1  0.1717518E-003  0.9118800E+02  0.7818608E-02  0.1130116E+00
         25   -1    0    0    0    0  0.00000000000E+00  0.00000000000E+00  0.99999998245E-14  0.12500000000E+03  0.12500000000E+03 0.  0.
        -11    1    3    3    0    0 -0.73000817011E+01 -0.60438678968E+02  0.17566720552E+01  0.60903292236E+02  0.51100000000E-03 0. -1.
         23    2    1    0    0    0  0.24271396649E+01 -0.27867636162E+02  0.89135427533E+01  0.95641059341E+02  0.91023430144E+02 0.  0.
         11    1    3    3    0    0  0.97272213661E+01  0.32571042806E+02  0.71568706981E+01  0.34737767105E+02  0.51100000000E-03 0.  1.
         22    1    1    0    0    0 -0.24271396649E+01  0.27867636162E+02 -0.89135427533E+01  0.29358940659E+02  0.00000000000E+00 0. -1.
</event>
<event>
 5    1  0.1717518E-003  0.9118800E+02  0.7818608E-02  0.1130116E+00
         25   -1    0    0    0    0  0.00000000000E+00  0.00000000000E+00  0.99999998245E-14  0.12500000000E+03  0.12500000000E+03 0.  0.
        -11    1    3    3    0    0  0.22152019688E+02  0.25489192488E+02 -0.18116224065E+02  0.38322427958E+02  0.51100000000E-03 0.  1.
         23    2    1    0    0    0 -0.28962517079E+02  0.37459399206E+01 -0.69509106438E+01  0.94980429380E+02  0.90111638233E+02 0.  0.
         11    1    3    3    0    0 -0.51114536767E+02 -0.21743252567E+02  0.11165313421E+02  0.56658001422E+02  0.51100000000E-03 0. -1.
         22    1    1    0    0    0  0.28962517079E+02 -0.37459399206E+01  0.69509106438E+01  0.30019570620E+02  0.00000000000E+00 0. -1.
</event>
<event>
 5    1  0.1717518E-003  0.9118800E+02  0.7818608E-02  0.1130116E+00
         25   -1    0    0    0    0  0.00000000000E+00  0.00000000000E+00  0.99999998245E-14  0.12500000000E+03  0.12500000000E+03 0.  0.
        -11    1    3    3    0    0 -0.10166569036E+02 -0.18342526775E+02  0.45051390784E+02  0.49693412303E+02  0.51100000000E-03 0.  1.
         23    2    1    0    0    0 -0.18292658735E+02 -0.19852528685E+02 -0.24363095511E+01  0.97895021435E+02  0.94067823185E+02 0.  0.
         11    1    3    3    0    0 -0.81260896992E+01 -0.15100019090E+01 -0.47487700335E+02  0.48201609132E+02  0.51100000000E-03 0. -1.
         22    1    1    0    0    0  0.18292658735E+02  0.19852528685E+02  0.24363095511E+01  0.27104978565E+02  0.00000000000E+00 0.  1.
</event>
<event>
 5    1  0.1717518E-003  0.9118800E+02  0.7818608E-02  0.1130116E+00
         25   -1    0    0    0    0  0.00000000000E+00  0.00000000000E+00  0.99999998245E-14  0.12500000000E+03  0.12500000000E+03 0.  0.
        -11    1    3    3    0    0  0.20402562673E+02  0.29419332834E+02 -0.52105354570E+01  0.36178880414E+02  0.51100000000E-03 0. -1.
         23    2    1    0    0    0 -0.13258925523E+02 -0.84312027726E+01  0.25231498407E+02  0.95276056822E+02  0.90520794326E+02 0.  0.
         11    1    3    3    0    0 -0.33661488196E+02 -0.37850535607E+02  0.30442033864E+02  0.59097176407E+02  0.51100000000E-03 0.  1.
         22    1    1    0    0    0  0.13258925523E+02  0.84312027726E+01 -0.25231498407E+02  0.29723943178E+02  0.00000000000E+00 0.  1.
</event>
<event>
 5    1  0.1717518E-003  0.9118800E+02  0.7818608E-02  0.1130116E+00
         25   -1    0    0    0    0  0.00000000000E+00  0.00000000000E+00  0.99999998245E-14  0.12500000000E+03  0.12500000000E+03 0.  0.
        -11    1    3    3    0    0 -0.21497672584E+01 -0.13657754786E+02  0.48769137227E+02  0.50691069343E+02  0.51100000000E-03 0. -1.
         23    2    1    0    0    0  0.24897107644E+02 -0.46201418544E+01  0.12699706357E+02  0.96671671046E+02  0.92427905751E+02 0.  0.
         11    1    3    3    0    0  0.27046874902E+02  0.90376129315E+01 -0.36069430869E+02  0.45980601703E+02  0.51100000000E-03 0.  1.
         22    1    1    0    0    0 -0.24897107644E+02  0.46201418544E+01 -0.12699706357E+02  0.28328328954E+02  0.00000000000E+00 0. -1.
</event>
<event>
 5    1  0.1717518E-003  0.9118800E+02  0.7818608E-02  0.1130116E+00
         25   -1    0    0    0    0  0.00000000000E+00  0.00000000000E+00  0.99999998245E-14  0.12500000000E+03  0.12500000000E+03 0.  0.
        -11    1    3    3    0    0  0.40770088699E+02 -0.20879125708E+02  0.23026647134E+02  0.51267577487E+02  0.51100000000E-03 0.  1.
         23    2    1    0    0    0  0.25978109515E+02 -0.14508624175E+01 -0.13872109601E+02  0.95514366201E+02  0.90849279305E+02 0.  0.
         11    1    3    3    0    0 -0.14791979184E+02  0.19428263290E+02 -0.36898756735E+02  0.44246788714E+02  0.51100000000E-03 0. -1.
         22    1    1    0    0    0 -0.25978109515E+02  0.14508624175E+01  0.13872109601E+02  0.29485633799E+02  0.00000000000E+00 0.  1.
</event>
<event>
 5    1  0.1717518E-003  0.9118800E+02  0.7818608E-02  0.1130116E+00
         25   -1    0    0    0    0  0.00000000000E+00  0.00000000000E+00  0.99999998245E-14  0.12500000000E+03  0.12500000000E+03 0.  0.
        -11    1    3    3    0    0 -0.32283428372E+02 -0.20760179684E+02  0.37239920086E+02  0.53479121686E+02  0.51100000000E-03 0. -1.
         23    2    1    0    0    0  0.71161642520E+01 -0.17452791560E+02  0.22436039498E+02  0.95697856815E+02  0.91101395180E+02 0.  0.
         11    1    3    3    0    0  0.39399592624E+02  0.33073881245E+01 -0.14803880588E+02  0.42218735129E+02  0.51100000000E-03 0.  1.
         22    1    1    0    0    0 -0.71161642520E+01  0.17452791560E+02 -0.22436039498E+02  0.29302143185E+02  0.00000000000E+00 0. -1.
</event>
<event>
 5    1  0.1717518E-003  0.9118800E+02  0.7818608E-02  0.1130116E+00
         25   -1    0    0    0    0  0.00000000000E+00  0.00000000000E+00  0.99999998245E-14  0.12500000000E+03  0.12500000000E+03 0.  0.
        -11    1    3    3    0    0 -0.28222288317E+02  0.10134240936E+02 -0.46249777180E+02  0.55120252963E+02  0.51100000000E-03 0.  1.
         23    2    1    0    0    0 -0.26363419056E+01 -0.13344726621E+02 -0.26857696846E+02  0.94894055286E+02  0.89991743074E+02 0.  0.
         11    1    3    3    0    0  0.25585946411E+02 -0.23478967557E+02  0.19392080334E+02  0.39773802323E+02  0.51100000000E-03 0. -1.
         22    1    1    0    0    0  0.26363419056E+01  0.13344726621E+02  0.26857696846E+02  0.30105944714E+02  0.00000000000E+00 0.  1.
</event>
<event>
 5    1  0.1717518E-003  0.9118800E+02  0.7818608E-02  0.1130116E+00
         25   -1    0    0    0    0  0.00000000000E+00  0.00000000000E+00  0.99999998245E-14  0.12500000000E+03  0.12500000000E+03 0.  0.
        -11    1    3    3    0    0  0.38118538308E+02 -0.16135687498E+02  0.10182175072E+02  0.42626987499E+02  0.51100000000E-03 0.  1.
         23    2    1    0    0    0  0.68668769128E+01  0.20126671385E+02 -0.17086991006E+02  0.97719931063E+02  0.93834869668E+02 0.  0.
         11    1    3    3    0    0 -0.31251661395E+02  0.36262358883E+02 -0.27269166078E+02  0.55092943564E+02  0.51100000000E-03 0. -1.
         22    1    1    0    0    0 -0.68668769128E+01 -0.20126671385E+02  0.17086991006E+02  0.27280068937E+02  0.00000000000E+00 0. -1.
</event>
<event>
 5    1  0.1717518E-003  0.9118800E+02  0.7818608E-02  0.1130116E+00
         25   -1    0    0    0    0  0.00000000000E+00  0.00000000000E+00  0.99999998245E-14  0.12500000000E+03  0.12500000000E+03 0.  0.
        -11    1    3    3    0    0  0.10897118122E+02  0.33424144717E+02  0.26330208162E+00  0.35156648897E+02  0.51100000000E-03 0. -1.
         23    2    1    0    0    0  0.38287079551E+02  0.21778776557E+02  0.25434378575E+02  0.74136229177E+02  0.53935677378E+02 0.  0.
         11    1    3    3    0    0  0.27389961429E+02 -0.11645368161E+02  0.25171076493E+02  0.38979580280E+02  0.51100000000E-03 0.  1.
         22    1    1    0    0    0 -0.38287079551E+02 -0.21778776557E+02 -0.25434378575E+02  0.50863770823E+02  0.00000000000E+00 0.  1.
</event>
<event>
 5    1  0.1717518E-003  0.9118800E+02  0.7818608E-02  0.1130116E+00
         25   -1    0    0    0    0  0.00000000000E+00  0.00000000000E+00  0.99999998245E-14  0.12500000000E+03  0.12500000000E+03 0.  0.
        -11    1    3    3    0    0 -0.51692724721E+01  0.21693040638E+02 -0.26695491500E+02  0.34784459989E+02  0.51100000000E-03 0. -1.
         23    2    1    0    0    0  0.19719237792E+02 -0.14629485370E+02  0.15657592436E+02  0.95879038783E+02  0.91349656243E+02 0.  0.
         11    1    3    3    0    0  0.24888510265E+02 -0.36322526009E+02  0.42353083936E+02  0.61094578794E+02  0.51100000000E-03 0.  1.
         22    1    1    0    0    0 -0.19719237792E+02  0.14629485370E+02 -0.15657592436E+02  0.29120961217E+02  0.00000000000E+00 0.  1.
</event>
<event>
 5    1  0.1717518E-003  0.9118800E+02  0.7818608E-02  0.1130116E+00
         25   -1    0    0    0    0  0.00000000000E+00  0.00000000000E+00  0.99999998245E-14  0.12500000000E+03  0.12500000000E+03 0.  0.
        -11    1    3    3    0    0 -0.18224202913E+02  0.28114334412E+02 -0.16532827643E+02  0.37361367231E+02  0.51100000000E-03 0.  1.
         23    2    1    0    0    0 -0.37065345086E+01 -0.18201349353E+02  0.19694346398E+02  0.97927970221E+02  0.94111596284E+02 0.  0.
         11    1    3    3    0    0  0.14517668404E+02 -0.46315683765E+02  0.36227174041E+02  0.60566602990E+02  0.51100000000E-03 0. -1.
         22    1    1    0    0    0  0.37065345086E+01  0.18201349353E+02 -0.19694346398E+02  0.27072029779E+02  0.00000000000E+00 0. -1.
</event>
<event>
 5    1  0.1717518E-003  0.9118800E+02  0.7818608E-02  0.1130116E+00
         25   -1    0    0    0    0  0.00000000000E+00  0.00000000000E+00  0.99999998245E-14  0.12500000000E+03  0.12500000000E+03 0.  0.
        -11    1    3    3    0    0  0.68227203211E+00  0.36698078943E+02  0.16528812365E+02  0.40254392701E+02  0.51100000000E-03 0.  1.
         23    2    1    0    0    0 -0.21032000701E+02  0.71758846142E+01 -0.22210095692E+02  0.93581427083E+02  0.88149627174E+02 0.  0.
         11    1    3    3    0    0 -0.21714272733E+02 -0.29522194329E+02 -0.38738908057E+02  0.53327034383E+02  0.51100000000E-03 0. -1.
         22    1    1    0    0    0  0.21032000701E+02 -0.71758846142E+01  0.22210095692E+02  0.31418572917E+02  0.00000000000E+00 0. -1.
</event>
<event>
 5    1  0.1717518E-003  0.9118800E+02  0.7818608E-02  0.1130116E+00
         25   -1    0    0    0    0  0.00000000000E+00  0.00000000000E+00  0.99999998245E-14  0.12500000000E+03  0.12500000000E+03 0.  0.
        -11    1    3    3    0    0 -0.78578820272E+01 -0.24173494026E+02  0.38781684238E+02  0.46369420484E+02  0.51100000000E-03 0.  1.
         23    2    1    0    0    0  0.63603395259E+01 -0.28409058334E+02 -0.74719557893E+01  0.94944074833E+02  0.90061194242E+02 0.  0.
         11    1    3    3    0    0  0.14218221553E+02 -0.42355643080E+01 -0.46253640027E+02  0.48574654350E+02  0.51100000000E-03 0. -1.
         22    1    1    0    0    0 -0.63603395259E+01  0.28409058334E+02  0.74719557893E+01  0.30055925167E+02  0.00000000000E+00 0. -1.
</event>
<event>
 5    1  0.1717518E-003  0.9118800E+02  0.7818608E-02  0.1130116E+00
         25   -1    0    0    0    0  0.00000000000E+00  0.00000000000E+00  0.99999998245E-14  0.12500000000E+03  0.12500000000E+03 0.  0.
        -11    1    3    3    0    0 -0.25180015627E+02 -0.29915774699E+02  0.14953900715E+01  0.39130844031E+02  0.51100000000E-03 0. -1.
         23    2    1    0    0    0  0.22280562959E+01  0.19124891710E+02 -0.18044534322E+02  0.98611916768E+02  0.95015678664E+02 0.  0.
         11    1    3    3    0    0  0.27408071923E+02  0.49040666409E+02 -0.19539924393E+02  0.59481072737E+02  0.51100000000E-03 0.  1.
         22    1    1    0    0    0 -0.22280562959E+01 -0.19124891710E+02  0.18044534322E+02  0.26388083232E+02  0.00000000000E+00 0.  1.
</event>
<event>
 5    1  0.1717518E-003  0.9118800E+02  0.7818608E-02  0.1130116E+00
         25   -1    0    0    0    0  0.00000000000E+00  0.00000000000E+00  0.99999998245E-14  0.12500000000E+03  0.12500000000E+03 0.  0.
        -11    1    3    3    0    0  0.47469487130E+02 -0.38131828491E+01  0.38226653715E+02  0.61066927434E+02  0.51100000000E-03 0. -1.
         23    2    1    0    0    0  0.20384848614E+02 -0.11056375714E+02  0.18183110664E+02  0.95531185800E+02  0.90872418532E+02 0.  0.
         11    1    3    3    0    0 -0.27084638515E+02 -0.72431928647E+01 -0.20043543051E+02  0.34464258365E+02  0.51100000000E-03 0.  1.
         22    1    1    0    0    0 -0.20384848614E+02  0.11056375714E+02 -0.18183110664E+02  0.29468814200E+02  0.00000000000E+00 0. -1.
</event>
<event>
 5    1  0.1717518E-003  0.9118800E+02  0.7818608E-02  0.1130116E+00
         25   -1    0    0    0    0  0.00000000000E+00  0.00000000000E+00  0.99999998245E-14  0.12500000000E+03  0.12500000000E+03 0.  0.
        -11    1    3    3    0    0  0.35016566236E+01 -0.36042049745E+02 -0.30365823382E+02  0.47258588414E+02  0.51100000000E-03 0.  1.
         23    2    1    0    0    0  0.11375647537E+02  0.99397807637E+01 -0.27037802162E+02  0.94028281542E+02  0.88781024918E+02 0.  0.
         11    1    3    3    0    0  0.78739909133E+01  0.45981830508E+02  0.33280212209E+01  0.46769693128E+02  0.51100000000E-03 0. -1.
         22    1    1    0    0    0 -0.11375647537E+02 -0.99397807637E+01  0.27037802162E+02  0.30971718458E+02  0.00000000000E+00 0. -1.
</event>
<event>
 5    1  0.1717518E-003  0.9118800E+02  0.7818608E-02  0.1130116E+00
         25   -1    0    0    0    0  0.00000000000E+00  0.00000000000E+00  0.99999998245E-14  0.12500000000E+03  0.12500000000E+03 0.  0.
        -11    1    3    3    0    0 -0.35855332482E+02 -0.38623204269E+01  0.35911271238E+02  0.50893435615E+02  0.51100000000E-03 0.  1.
         23    2    1    0    0    0  0.60229199033E+01 -0.11482963041E+02  0.27937790850E+02  0.94199770100E+02  0.89022146261E+02 0.  0.
         11    1    3    3    0    0  0.41878252386E+02 -0.76206426140E+01 -0.79734803886E+01  0.43306334485E+02  0.51100000000E-03 0. -1.
         22    1    1    0    0    0 -0.60229199033E+01  0.11482963041E+02 -0.27937790850E+02  0.30800229900E+02  0.00000000000E+00 0.  1.
</event>
<event>
 5    1  0.1717518E-003  0.9118800E+02  0.7818608E-02  0.1130116E+00
         25   -1    0    0    0    0  0.00000000000E+00  0.00000000000E+00  0.99999998245E-14  0.12500000000E+03  0.12500000000E+03 0.  0.
        -11    1    3    3    0    0 -0.28071161928E+02 -0.19420878354E+02  0.61890764624E+01  0.34690997618E+02  0.51100000000E-03 0. -1.
         23    2    1    0    0    0  0.24071047152E+02  0.13006329331E+02  0.91087174894E+01  0.96163414766E+02  0.91737962107E+02 0.  0.
         11    1    3    3    0    0  0.52142209080E+02  0.32427207685E+02  0.29196410271E+01  0.61472417148E+02  0.51100000000E-03 0.  1.
         22    1    1    0    0    0 -0.24071047152E+02 -0.13006329331E+02 -0.91087174894E+01  0.28836585234E+02  0.00000000000E+00 0.  1.
</event>
<event>
 4    1  0.1717518E-003  0.9118800E+02  0.7818608E-02  0.1130116E+00
         25   -1    0    0    0    0  0.00000000000E+00  0.00000000000E+00  0.99999998245E-14  0.12500000000E+03  0.12500000000E+03 0.  0.
        -11    1    1    0    0    0 -0.26412513461E+02 -0.63628079842E+01  0.11014385832E+02  0.29315915273E+02  0.51100000000E-03 0.  1.
         11    1    1    0    0    0 -0.16076701645E+02  0.30764659335E+02  0.17624984650E+02  0.38930254096E+02  0.51100000000E-03 0. -1.
         22    1    1    0    0    0  0.42489215106E+02 -0.24401851351E+02 -0.28639370483E+02  0.56753830631E+02  0.00000000000E+00 0. -1.
</event>
<event>
 5    1  0.1717518E-003  0.9118800E+02  0.7818608E-02  0.1130116E+00
         25   -1    0    0    0    0  0.00000000000E+00  0.00000000000E+00  0.99999998245E-14  0.12500000000E+03  0.12500000000E+03 0.  0.
        -11    1    3    3    0    0  0.27256732536E+02  0.26564117460E+02  0.94483017501E+01  0.39215458829E+02  0.51100000000E-03 0. -1.
         23    2    1    0    0    0 -0.20987796219E+02  0.12043712166E+02 -0.16327832418E+02  0.95808619349E+02  0.91253245625E+02 0.  0.
         11    1    3    3    0    0 -0.48244528755E+02 -0.14520405294E+02 -0.25776134168E+02  0.56593160519E+02  0.51100000000E-03 0.  1.
         22    1    1    0    0    0  0.20987796219E+02 -0.12043712166E+02  0.16327832418E+02  0.29191380651E+02  0.00000000000E+00 0.  1.
</event>
<event>
 5    1  0.1717518E-003  0.9118800E+02  0.7818608E-02  0.1130116E+00
         25   -1    0    0    0    0  0.00000000000E+00  0.00000000000E+00  0.99999998245E-14  0.12500000000E+03  0.12500000000E+03 0.  0.
        -11    1    3    3    0    0 -0.31545252810E+02  0.26419100702E+02  0.72789934987E+01  0.41785830175E+02  0.51100000000E-03 0. -1.
         23    2    1    0    0    0  0.19479341918E+02  0.15629966640E+02  0.16934910934E+02  0.94824980081E+02  0.89895745285E+02 0.  0.
         11    1    3    3    0    0  0.51024594729E+02 -0.10789134062E+02  0.96559174356E+01  0.53039149907E+02  0.51100000000E-03 0.  1.
         22    1    1    0    0    0 -0.19479341918E+02 -0.15629966640E+02 -0.16934910934E+02  0.30175019919E+02  0.00000000000E+00 0.  1.
</event>
<event>
 5    1  0.1717518E-003  0.9118800E+02  0.7818608E-02  0.1130116E+00
         25   -1    0    0    0    0  0.00000000000E+00  0.00000000000E+00  0.99999998245E-14  0.12500000000E+03  0.12500000000E+03 0.  0.
        -11    1    3    3    0    0 -0.57934283834E+02  0.11211332915E+01 -0.12674367239E+02  0.59315072017E+02  0.51100000000E-03 0. -1.
         23    2    1    0    0    0 -0.24588660424E+02  0.13246078685E+02 -0.11440463489E+02  0.94818134139E+02  0.89886225501E+02 0.  0.
         11    1    3    3    0    0  0.33345623409E+02  0.12124945393E+02  0.12339037500E+01  0.35503062122E+02  0.51100000000E-03 0.  1.
         22    1    1    0    0    0  0.24588660424E+02 -0.13246078685E+02  0.11440463489E+02  0.30181865861E+02  0.00000000000E+00 0. -1.
</event>
<event>
 5    1  0.1717518E-003  0.9118800E+02  0.7818608E-02  0.1130116E+00
         25   -1    0    0    0    0  0.00000000000E+00  0.00000000000E+00  0.99999998245E-14  0.12500000000E+03  0.12500000000E+03 0.  0.
        -11    1    3    3    0    0 -0.99008469456E+01 -0.31228059392E+02 -0.11042753940E+02  0.34571098890E+02  0.51100000000E-03 0.  1.
         23    2    1    0    0    0 -0.35604560216E+01  0.19497106731E+02  0.21960006459E+02  0.95418656190E+02  0.90717495818E+02 0.  0.
         11    1    3    3    0    0  0.63403909240E+01  0.50725166122E+02  0.33002760399E+02  0.60847557300E+02  0.51100000000E-03 0. -1.
         22    1    1    0    0    0  0.35604560216E+01 -0.19497106731E+02 -0.21960006459E+02  0.29581343810E+02  0.00000000000E+00 0. -1.
</event>
<event>
 5    1  0.1717518E-003  0.9118800E+02  0.7818608E-02  0.1130116E+00
         25   -1    0    0    0    0  0.00000000000E+00  0.00000000000E+00  0.99999998245E-14  0.12500000000E+03  0.12500000000E+03 0.  0.
        -11    1    3    3    0    0 -0.10470803340E+02 -0.13168971045E+02 -0.32876523580E+02  0.36931359627E+02  0.51100000000E-03 0. -1.
         23    2    1    0    0    0  0.22050285886E+02 -0.92872201335E+01  0.16323528309E+02  0.96035795507E+02  0.91563905971E+02 0.  0.
         11    1    3    3    0    0  0.32521089226E+02  0.38817509115E+01  0.49200051888E+02  0.59104435880E+02  0.51100000000E-03 0.  1.
         22    1    1    0    0    0 -0.22050285886E+02  0.92872201335E+01 -0.16323528309E+02  0.28964204493E+02  0.00000000000E+00 0.  1.
</event>
<event>
 5    1  0.1717518E-003  0.9118800E+02  0.7818608E-02  0.1130116E+00
         25   -1    0    0    0    0  0.00000000000E+00  0.00000000000E+00  0.99999998245E-14  0.12500000000E+03  0.12500000000E+03 0.  0.
        -11    1    3    3    0    0 -0.16049520119E+02  0.94840532519E+01 -0.34731840350E+02  0.39418715054E+02  0.51100000000E-03 0.  1.
         23    2    1    0    0    0  0.26289387196E+02  0.13903682488E+02  0.13611074789E+01  0.95229261355E+02  0.90456151471E+02 0.  0.
         11    1    3    3    0    0  0.42338907315E+02  0.44196292365E+01  0.36092947829E+02  0.55810546301E+02  0.51100000000E-03 0. -1.
         22    1    1    0    0    0 -0.26289387196E+02 -0.13903682488E+02 -0.13611074789E+01  0.29770738645E+02  0.00000000000E+00 0. -1.
</event>
<event>
 5    1  0.1717518E-003  0.9118800E+02  0.7818608E-02  0.1130116E+00
         25   -1    0    0    0    0  0.00000000000E+00  0.00000000000E+00  0.99999998245E-14  0.12500000000E+03  0.12500000000E+03 0.  0.
        -11    1    3    3    0    0  0.32230661915E+02  0.33987291736E+01 -0.21575295871E+02  0.38934050902E+02  0.51100000000E-03 0.  1.
         23    2    1    0    0    0 -0.22301032941E+02  0.14278043302E+02 -0.13978043473E+02  0.95056982616E+02  0.90217767950E+02 0.  0.
         11    1    3    3    0    0 -0.54531694856E+02  0.10879314128E+02  0.75972523980E+01  0.56122931713E+02  0.51100000000E-03 0. -1.
         22    1    1    0    0    0  0.22301032941E+02 -0.14278043302E+02  0.13978043473E+02  0.29943017384E+02  0.00000000000E+00 0. -1.
</event>
<event>
 5    1  0.1717518E-003  0.9118800E+02  0.7818608E-02  0.1130116E+00
         25   -1    0    0    0    0  0.00000000000E+00  0.00000000000E+00  0.99999998245E-14  0.12500000000E+03  0.12500000000E+03 0.  0.
        -11    1    3    3    0    0  0.32297849559E+02  0.12615031314E+02  0.39645226204E+02  0.52669099691E+02  0.51100000000E-03 0. -1.
         23    2    1    0    0    0 -0.82517124442E+01  0.11143128748E+02  0.26098173173E+02  0.95447086108E+02  0.90756661061E+02 0.  0.
         11    1    3    3    0    0 -0.40549562003E+02 -0.14719025660E+01 -0.13547053031E+02  0.42777986417E+02  0.51100000000E-03 0.  1.
         22    1    1    0    0    0  0.82517124442E+01 -0.11143128748E+02 -0.26098173173E+02  0.29552913892E+02  0.00000000000E+00 0. -1.
</event>
<event>
 5    1  0.1717518E-003  0.9118800E+02  0.7818608E-02  0.1130116E+00
         25   -1    0    0    0    0  0.00000000000E+00  0.00000000000E+00  0.99999998245E-14  0.12500000000E+03  0.12500000000E+03 0.  0.
        -11    1    3    3    0    0  0.34899625675E+02  0.75481912636E+01  0.14629159873E+02  0.38587191949E+02  0.51100000000E-03 0. -1.
         23    2    1    0    0    0  0.25043416935E+00 -0.18224224491E+02 -0.22853462585E+02  0.95768752547E+02  0.91198619160E+02 0.  0.
         11    1    3    3    0    0 -0.34649191506E+02 -0.25772415754E+02 -0.37482622458E+02  0.57181560598E+02  0.51100000000E-03 0.  1.
         22    1    1    0    0    0 -0.25043416935E+00  0.18224224491E+02  0.22853462585E+02  0.29231247453E+02  0.00000000000E+00 0.  1.
</event>
<event>
 5    1  0.1717518E-003  0.9118800E+02  0.7818608E-02  0.1130116E+00
         25   -1    0    0    0    0  0.00000000000E+00  0.00000000000E+00  0.99999998245E-14  0.12500000000E+03  0.12500000000E+03 0.  0.
        -11    1    3    3    0    0 -0.14739975589E+02 -0.24235664208E+01  0.43505544940E+02  0.45998619494E+02  0.51100000000E-03 0. -1.
         23    2    1    0    0    0 -0.29544691966E+02  0.20313812339E+02  0.12909229268E+02  0.86892415513E+02  0.78090357140E+02 0.  0.
         11    1    3    3    0    0 -0.14804716377E+02  0.22737378759E+02 -0.30596315672E+02  0.40893796019E+02  0.51100000000E-03 0.  1.
         22    1    1    0    0    0  0.29544691966E+02 -0.20313812339E+02 -0.12909229268E+02  0.38107584487E+02  0.00000000000E+00 0. -1.
</event>
<event>
 5    1  0.1717518E-003  0.9118800E+02  0.7818608E-02  0.1130116E+00
         25   -1    0    0    0    0  0.00000000000E+00  0.00000000000E+00  0.99999998245E-14  0.12500000000E+03  0.12500000000E+03 0.  0.
        -11    1    3    3    0    0  0.28798928813E+01 -0.62220932528E+02 -0.36830943212E+01  0.62396341333E+02  0.51100000000E-03 0.  1.
         23    2    1    0    0    0  0.38727394066E+01 -0.28875075889E+02 -0.18904334006E+01  0.95805105643E+02  0.91248432374E+02 0.  0.
         11    1    3    3    0    0  0.99284652527E+00  0.33345856640E+02  0.17926609206E+01  0.33408764309E+02  0.51100000000E-03 0. -1.
         22    1    1    0    0    0 -0.38727394066E+01  0.28875075889E+02  0.18904334006E+01  0.29194894357E+02  0.00000000000E+00 0.  1.
</event>
<event>
 5    1  0.1717518E-003  0.9118800E+02  0.7818608E-02  0.1130116E+00
         25   -1    0    0    0    0  0.00000000000E+00  0.00000000000E+00  0.99999998245E-14  0.12500000000E+03  0.12500000000E+03 0.  0.
        -11    1    3    3    0    0  0.10888542150E+02 -0.14267397536E+02 -0.36830293360E+02  0.40970593013E+02  0.51100000000E-03 0. -1.
         23    2    1    0    0    0 -0.26451795027E+02 -0.89000998837E+01  0.42782491454E+01  0.96765045531E+02  0.92554099762E+02 0.  0.
         11    1    3    3    0    0 -0.37340337177E+02  0.53672976525E+01  0.41108542506E+02  0.55794452518E+02  0.51100000000E-03 0.  1.
         22    1    1    0    0    0  0.26451795027E+02  0.89000998837E+01 -0.42782491454E+01  0.28234954469E+02  0.00000000000E+00 0.  1.
</event>
<event>
 5    1  0.1717518E-003  0.9118800E+02  0.7818608E-02  0.1130116E+00
         25   -1    0    0    0    0  0.00000000000E+00  0.00000000000E+00  0.99999998245E-14  0.12500000000E+03  0.12500000000E+03 0.  0.
        -11    1    3    3    0    0  0.11605791358E+02  0.33315626384E+02  0.17487618197E+02  0.39375654215E+02  0.51100000000E-03 0.  1.
         23    2    1    0    0    0  0.13043379043E+02 -0.22407758924E+02  0.14717892464E+02  0.95186349512E+02  0.90396832787E+02 0.  0.
         11    1    3    3    0    0  0.14375876844E+01 -0.55723385308E+02 -0.27697257326E+01  0.55810695296E+02  0.51100000000E-03 0. -1.
         22    1    1    0    0    0 -0.13043379043E+02  0.22407758924E+02 -0.14717892464E+02  0.29813650488E+02  0.00000000000E+00 0. -1.
</event>
<event>
 5    1  0.1717518E-003  0.9118800E+02  0.7818608E-02  0.1130116E+00
         25   -1    0    0    0    0  0.00000000000E+00  0.00000000000E+00  0.99999998245E-14  0.12500000000E+03  0.12500000000E+03 0.  0.
        -11    1    3    3    0    0 -0.32187482171E+02  0.14216937537E+02 -0.33437543901E+02  0.48540958621E+02  0.51100000000E-03 0.  1.
         23    2    1    0    0    0 -0.27590681889E+01 -0.21917147463E+02 -0.12354892178E+02  0.99689583747E+02  0.96423005225E+02 0.  0.
         11    1    3    3    0    0  0.29428413982E+02 -0.36134085000E+02  0.21082651723E+02  0.51148625126E+02  0.51100000000E-03 0. -1.
         22    1    1    0    0    0  0.27590681889E+01  0.21917147463E+02  0.12354892178E+02  0.25310416253E+02  0.00000000000E+00 0. -1.
</event>
<event>
 5    1  0.1717518E-003  0.9118800E+02  0.7818608E-02  0.1130116E+00
         25   -1    0    0    0    0  0.00000000000E+00  0.00000000000E+00  0.99999998245E-14  0.12500000000E+03  0.12500000000E+03 0.  0.
        -11    1    3    3    0    0 -0.59809961437E+02 -0.18680139969E+01 -0.10815198613E+02  0.60808630019E+02  0.51100000000E-03 0.  1.
         23    2    1    0    0    0 -0.28207899900E+02 -0.10844482248E+02 -0.26303094034E+01  0.94665087118E+02  0.89673138562E+02 0.  0.
         11    1    3    3    0    0  0.31602061537E+02 -0.89764682513E+01  0.81848892098E+01  0.33856457099E+02  0.51100000000E-03 0. -1.
         22    1    1    0    0    0  0.28207899900E+02  0.10844482248E+02  0.26303094034E+01  0.30334912882E+02  0.00000000000E+00 0.  1.
</event>
<event>
 5    1  0.1717518E-003  0.9118800E+02  0.7818608E-02  0.1130116E+00
         25   -1    0    0    0    0  0.00000000000E+00  0.00000000000E+00  0.99999998245E-14  0.12500000000E+03  0.12500000000E+03 0.  0.
        -11    1    3    3    0    0  0.15401322636E+02 -0.21318800835E+02  0.23634807470E+02  0.35359526756E+02  0.51100000000E-03 0.  1.
         23    2    1    0    0    0 -0.21095855626E+02  0.19695243854E+02 -0.22390266719E+01  0.96052616776E+02  0.91586866930E+02 0.  0.
         11    1    3    3    0    0 -0.36497178262E+02  0.41014044689E+02 -0.25873834142E+02  0.60693090021E+02  0.51100000000E-03 0. -1.
         22    1    1    0    0    0  0.21095855626E+02 -0.19695243854E+02  0.22390266719E+01  0.28947383224E+02  0.00000000000E+00 0. -1.
</event>
<event>
 5    1  0.1717518E-003  0.9118800E+02  0.7818608E-02  0.1130116E+00
         25   -1    0    0    0    0  0.00000000000E+00  0.00000000000E+00  0.99999998245E-14  0.12500000000E+03  0.12500000000E+03 0.  0.
        -11    1    3    3    0    0 -0.83213204516E+01  0.99560785685E+00 -0.60415334972E+02  0.60993838288E+02  0.51100000000E-03 0.  1.
         23    2    1    0    0    0 -0.11142476641E+02 -0.53418756160E+01 -0.24644184210E+02  0.97431426657E+02  0.93449754758E+02 0.  0.
         11    1    3    3    0    0 -0.28211561892E+01 -0.63374834728E+01  0.35771150762E+02  0.36437588369E+02  0.51100000000E-03 0. -1.
         22    1    1    0    0    0  0.11142476641E+02  0.53418756160E+01  0.24644184210E+02  0.27568573343E+02  0.00000000000E+00 0.  1.
</event>
<event>
 5    1  0.1717518E-003  0.9118800E+02  0.7818608E-02  0.1130116E+00
         25   -1    0    0    0    0  0.00000000000E+00  0.00000000000E+00  0.99999998245E-14  0.12500000000E+03  0.12500000000E+03 0.  0.
        -11    1    3    3    0    0 -0.43291173637E+02  0.17463019536E+02  0.52773070451E+01  0.46978002683E+02  0.51100000000E-03 0.  1.
         23    2    1    0    0    0 -0.19520143923E+02 -0.14528487138E+02 -0.19421152302E+02  0.93866511374E+02  0.88552966317E+02 0.  0.
         11    1    3    3    0    0  0.23771029714E+02 -0.31991506674E+02 -0.24698459347E+02  0.46888508691E+02  0.51100000000E-03 0. -1.
         22    1    1    0    0    0  0.19520143923E+02  0.14528487138E+02  0.19421152302E+02  0.31133488626E+02  0.00000000000E+00 0. -1.
</event>
<event>
 5    1  0.1717518E-003  0.9118800E+02  0.7818608E-02  0.1130116E+00
         25   -1    0    0    0    0  0.00000000000E+00  0.00000000000E+00  0.99999998245E-14  0.12500000000E+03  0.12500000000E+03 0.  0.
        -11    1    3    3    0    0  0.11013484252E+02  0.95533485957E+01  0.34175579947E+02  0.37155532155E+02  0.51100000000E-03 0. -1.
         23    2    1    0    0    0 -0.80738112780E+01 -0.25561286621E+02 -0.96882284200E+01  0.96496884868E+02  0.92191220933E+02 0.  0.
         11    1    3    3    0    0 -0.19087295530E+02 -0.35114635217E+02 -0.43863808367E+02  0.59341352713E+02  0.51100000000E-03 0.  1.
         22    1    1    0    0    0  0.80738112780E+01  0.25561286621E+02  0.96882284200E+01  0.28503115132E+02  0.00000000000E+00 0.  1.
</event>
<event>
 5    1  0.1717518E-003  0.9118800E+02  0.7818608E-02  0.1130116E+00
         25   -1    0    0    0    0  0.00000000000E+00  0.00000000000E+00  0.99999998245E-14  0.12500000000E+03  0.12500000000E+03 0.  0.
        -11    1    3    3    0    0  0.49111708776E+02  0.61895425415E+01 -0.40422218353E+01  0.49664976929E+02  0.51100000000E-03 0.  1.
         23    2    1    0    0    0  0.15827309905E+02 -0.23128221397E+02 -0.11617075811E+02  0.94662320224E+02  0.89669281562E+02 0.  0.
         11    1    3    3    0    0 -0.33284398871E+02 -0.29317763938E+02 -0.75748539758E+01  0.44997343294E+02  0.51100000000E-03 0. -1.
         22    1    1    0    0    0 -0.15827309905E+02  0.23128221397E+02  0.11617075811E+02  0.30337679776E+02  0.00000000000E+00 0.  1.
</event>
<event>
 5    1  0.1717518E-003  0.9118800E+02  0.7818608E-02  0.1130116E+00
         25   -1    0    0    0    0  0.00000000000E+00  0.00000000000E+00  0.99999998245E-14  0.12500000000E+03  0.12500000000E+03 0.  0.
        -11    1    3    3    0    0 -0.17341082315E+02  0.43816642751E+02 -0.63031927042E+00  0.47127578131E+02  0.51100000000E-03 0.  1.
         23    2    1    0    0    0  0.76268942186E+01  0.10514915012E+02 -0.26044957717E+02  0.95895485305E+02  0.91372158376E+02 0.  0.
         11    1    3    3    0    0  0.24967976533E+02 -0.33301727739E+02 -0.25414638447E+02  0.48767907175E+02  0.51100000000E-03 0. -1.
         22    1    1    0    0    0 -0.76268942186E+01 -0.10514915012E+02  0.26044957717E+02  0.29104514695E+02  0.00000000000E+00 0. -1.
</event>
<event>
 5    1  0.1717518E-003  0.9118800E+02  0.7818608E-02  0.1130116E+00
         25   -1    0    0    0    0  0.00000000000E+00  0.00000000000E+00  0.99999998245E-14  0.12500000000E+03  0.12500000000E+03 0.  0.
        -11    1    3    3    0    0 -0.20013772178E+02 -0.96162369038E+01  0.43920861606E+02  0.49214481339E+02  0.51100000000E-03 0.  1.
         23    2    1    0    0    0 -0.23160143150E+02  0.16600908883E+02  0.52738738932E+01  0.96020763428E+02  0.91543382377E+02 0.  0.
         11    1    3    3    0    0 -0.31463709719E+01  0.26217145786E+02 -0.38646987713E+02  0.46806282089E+02  0.51100000000E-03 0. -1.
         22    1    1    0    0    0  0.23160143150E+02 -0.16600908883E+02 -0.52738738932E+01  0.28979236572E+02  0.00000000000E+00 0. -1.
</event>
<event>
 5    1  0.1717518E-003  0.9118800E+02  0.7818608E-02  0.1130116E+00
         25   -1    0    0    0    0  0.00000000000E+00  0.00000000000E+00  0.99999998245E-14  0.12500000000E+03  0.12500000000E+03 0.  0.
        -11    1    3    3    0    0 -0.18061863334E+02  0.28845374510E+02 -0.35547762057E+02  0.49213107251E+02  0.51100000000E-03 0. -1.
         23    2    1    0    0    0 -0.31153198363E+02  0.20422585755E+02 -0.29677821189E+00  0.87748263739E+02  0.79448511218E+02 0.  0.
         11    1    3    3    0    0 -0.13091335029E+02 -0.84227887556E+01  0.35250983845E+02  0.38535156488E+02  0.51100000000E-03 0.  1.
         22    1    1    0    0    0  0.31153198363E+02 -0.20422585755E+02  0.29677821189E+00  0.37251736261E+02  0.00000000000E+00 0. -1.
</event>
<event>
 5    1  0.1717518E-003  0.9118800E+02  0.7818608E-02  0.1130116E+00
         25   -1    0    0    0    0  0.00000000000E+00  0.00000000000E+00  0.99999998245E-14  0.12500000000E+03  0.12500000000E+03 0.  0.
        -11    1    3    3    0    0  0.43647820452E+02  0.16558075586E+02 -0.18935075606E+02  0.50376970788E+02  0.51100000000E-03 0.  1.
         23    2    1    0    0    0 -0.18939127688E+01 -0.12807062674E+02 -0.15684481695E+02  0.10466257819E+03  0.10266764119E+03 0.  0.
         11    1    3    3    0    0 -0.45541733220E+02 -0.29365138260E+02  0.32505939119E+01  0.54285607400E+02  0.51100000000E-03 0. -1.
         22    1    1    0    0    0  0.18939127688E+01  0.12807062674E+02  0.15684481695E+02  0.20337421812E+02  0.00000000000E+00 0. -1.
</event>
<event>
 5    1  0.1717518E-003  0.9118800E+02  0.7818608E-02  0.1130116E+00
         25   -1    0    0    0    0  0.00000000000E+00  0.00000000000E+00  0.99999998245E-14  0.12500000000E+03  0.12500000000E+03 0.  0.
        -11    1    3    3    0    0  0.11544644031E+02  0.29537978341E+02  0.53573756385E+02  0.62256873867E+02  0.51100000000E-03 0.  1.
         23    2    1    0    0    0  0.60917587901E+01  0.17331485918E+02  0.23474857585E+02  0.95191295434E+02  0.90403671709E+02 0.  0.
         11    1    3    3    0    0 -0.54528852412E+01 -0.12206492423E+02 -0.30098898799E+02  0.32934421567E+02  0.51100000000E-03 0. -1.
         22    1    1    0    0    0 -0.60917587901E+01 -0.17331485918E+02 -0.23474857585E+02  0.29808704566E+02  0.00000000000E+00 0.  1.
</event>
<event>
 5    1  0.1717518E-003  0.9118800E+02  0.7818608E-02  0.1130116E+00
         25   -1    0    0    0    0  0.00000000000E+00  0.00000000000E+00  0.99999998245E-14  0.12500000000E+03  0.12500000000E+03 0.  0.
        -11    1    3    3    0    0 -0.12913952219E+01  0.49627223027E+02 -0.11063969920E+02  0.50861973985E+02  0.51100000000E-03 0.  1.
         23    2    1    0    0    0 -0.10154877999E+02  0.18149078695E+02  0.20130355082E+02  0.96056230370E+02  0.91591798719E+02 0.  0.
         11    1    3    3    0    0 -0.88634827770E+01 -0.31478144332E+02  0.31194325003E+02  0.45194256385E+02  0.51100000000E-03 0. -1.
         22    1    1    0    0    0  0.10154877999E+02 -0.18149078695E+02 -0.20130355082E+02  0.28943769630E+02  0.00000000000E+00 0.  1.
</event>
<event>
 5    1  0.1717518E-003  0.9118800E+02  0.7818608E-02  0.1130116E+00
         25   -1    0    0    0    0  0.00000000000E+00  0.00000000000E+00  0.99999998245E-14  0.12500000000E+03  0.12500000000E+03 0.  0.
        -11    1    3    3    0    0  0.21937125562E+02 -0.55222371718E+02  0.53831605654E+00  0.59422534451E+02  0.51100000000E-03 0. -1.
         23    2    1    0    0    0  0.90651065434E+01 -0.25571683519E+02  0.14038026620E+02  0.94452441243E+02  0.89376229002E+02 0.  0.
         11    1    3    3    0    0 -0.12872019019E+02  0.29650688199E+02  0.13499710564E+02  0.35029906792E+02  0.51100000000E-03 0.  1.
         22    1    1    0    0    0 -0.90651065434E+01  0.25571683519E+02 -0.14038026620E+02  0.30547558757E+02  0.00000000000E+00 0. -1.
</event>
<event>
 5    1  0.1717518E-003  0.9118800E+02  0.7818608E-02  0.1130116E+00
         25   -1    0    0    0    0  0.00000000000E+00  0.00000000000E+00  0.99999998245E-14  0.12500000000E+03  0.12500000000E+03 0.  0.
        -11    1    3    3    0    0  0.21414650218E+02  0.30780789035E+02  0.18634698113E+02  0.41872379818E+02  0.51100000000E-03 0. -1.
         23    2    1    0    0    0  0.12299830209E+02 -0.20647120038E+02  0.19410182217E+02  0.94107532266E+02  0.88892536619E+02 0.  0.
         11    1    3    3    0    0 -0.91148200093E+01 -0.51427909073E+02  0.77548410369E+00  0.52235152448E+02  0.51100000000E-03 0.  1.
         22    1    1    0    0    0 -0.12299830209E+02  0.20647120038E+02 -0.19410182217E+02  0.30892467734E+02  0.00000000000E+00 0.  1.
</event>
<event>
 5    1  0.1717518E-003  0.9118800E+02  0.7818608E-02  0.1130116E+00
         25   -1    0    0    0    0  0.00000000000E+00  0.00000000000E+00  0.99999998245E-14  0.12500000000E+03  0.12500000000E+03 0.  0.
        -11    1    3    3    0    0 -0.15472812234E+02 -0.48094977677E+01 -0.59376385931E+02  0.61547497055E+02  0.51100000000E-03 0. -1.
         23    2    1    0    0    0 -0.14588292453E+02 -0.24511152623E+01 -0.25481053545E+02  0.95536287870E+02  0.90879436439E+02 0.  0.
         11    1    3    3    0    0  0.88451978187E+00  0.23583825055E+01  0.33895332385E+02  0.33988790815E+02  0.51100000000E-03 0.  1.
         22    1    1    0    0    0  0.14588292453E+02  0.24511152623E+01  0.25481053545E+02  0.29463712130E+02  0.00000000000E+00 0. -1.
</event>
<event>
 5    1  0.1717518E-003  0.9118800E+02  0.7818608E-02  0.1130116E+00
         25   -1    0    0    0    0  0.00000000000E+00  0.00000000000E+00  0.99999998245E-14  0.12500000000E+03  0.12500000000E+03 0.  0.
        -11    1    3    3    0    0  0.50554192265E+01 -0.50366140356E+02  0.35757730602E+02  0.61975161605E+02  0.51100000000E-03 0.  1.
         23    2    1    0    0    0  0.57868273866E+01 -0.25066568833E+02  0.12296823872E+02  0.96486281870E+02  0.92176843445E+02 0.  0.
         11    1    3    3    0    0  0.73140816009E+00  0.25299571523E+02 -0.23460906730E+02  0.34511120265E+02  0.51100000000E-03 0. -1.
         22    1    1    0    0    0 -0.57868273866E+01  0.25066568833E+02 -0.12296823872E+02  0.28513718130E+02  0.00000000000E+00 0.  1.
</event>
<event>
 5    1  0.1717518E-003  0.9118800E+02  0.7818608E-02  0.1130116E+00
         25   -1    0    0    0    0  0.00000000000E+00  0.00000000000E+00  0.99999998245E-14  0.12500000000E+03  0.12500000000E+03 0.  0.
        -11    1    3    3    0    0  0.37123424260E+02 -0.14053408099E+02  0.16454532130E+02  0.42969739770E+02  0.51100000000E-03 0.  1.
         23    2    1    0    0    0 -0.74832694287E+01 -0.31329170633E+02  0.30624755835E+01  0.92644243006E+02  0.86810487567E+02 0.  0.
         11    1    3    3    0    0 -0.44606693689E+02 -0.17275762535E+02 -0.13392056546E+02  0.49674503237E+02  0.51100000000E-03 0. -1.
         22    1    1    0    0    0  0.74832694287E+01  0.31329170633E+02 -0.30624755835E+01  0.32355756994E+02  0.00000000000E+00 0. -1.
</event>
<event>
 5    1  0.1717518E-003  0.9118800E+02  0.7818608E-02  0.1130116E+00
         25   -1    0    0    0    0  0.00000000000E+00  0.00000000000E+00  0.99999998245E-14  0.12500000000E+03  0.12500000000E+03 0.  0.
        -11    1    3    3    0    0 -0.53463211229E+01 -0.17976168159E+02  0.56662682656E+02  0.59685721720E+02  0.51100000000E-03 0. -1.
         23    2    1    0    0    0 -0.15263158174E+02 -0.16466617673E+02  0.38849161242E+02  0.80129399109E+02  0.66387873722E+02 0.  0.
         11    1    3    3    0    0 -0.99168370510E+01  0.15095504857E+01 -0.17813521414E+02  0.20443677389E+02  0.51100000000E-03 0.  1.
         22    1    1    0    0    0  0.15263158174E+02  0.16466617673E+02 -0.38849161242E+02  0.44870600891E+02  0.00000000000E+00 0. -1.
</event>
<event>
 5    1  0.1717518E-003  0.9118800E+02  0.7818608E-02  0.1130116E+00
         25   -1    0    0    0    0  0.00000000000E+00  0.00000000000E+00  0.99999998245E-14  0.12500000000E+03  0.12500000000E+03 0.  0.
        -11    1    3    3    0    0 -0.15383246993E+02  0.25317544727E+02 -0.54946678275E+02  0.62424032333E+02  0.51100000000E-03 0. -1.
         23    2    1    0    0    0 -0.79503000415E+01  0.98092940000E+01 -0.20536851635E+02  0.10089208025E+03  0.97969485365E+02 0.  0.
         11    1    3    3    0    0  0.74329469510E+01 -0.15508250727E+02  0.34409826639E+02  0.38468047918E+02  0.51100000000E-03 0.  1.
         22    1    1    0    0    0  0.79503000415E+01 -0.98092940000E+01  0.20536851635E+02  0.24107919749E+02  0.00000000000E+00 0. -1.
</event>
<event>
 5    1  0.1717518E-003  0.9118800E+02  0.7818608E-02  0.1130116E+00
         25   -1    0    0    0    0  0.00000000000E+00  0.00000000000E+00  0.99999998245E-14  0.12500000000E+03  0.12500000000E+03 0.  0.
        -11    1    3    3    0    0 -0.38844596233E+02 -0.24936551033E+01 -0.29093126894E+02  0.48595586271E+02  0.51100000000E-03 0. -1.
         23    2    1    0    0    0 -0.28844817829E+02 -0.27519183927E+02 -0.48592587811E+01  0.84838558349E+02  0.74730446186E+02 0.  0.
         11    1    3    3    0    0  0.99997784040E+01 -0.25025528824E+02  0.24233868113E+02  0.36242972078E+02  0.51100000000E-03 0.  1.
         22    1    1    0    0    0  0.28844817829E+02  0.27519183927E+02  0.48592587811E+01  0.40161441651E+02  0.00000000000E+00 0. -1.
</event>
<event>
 5    1  0.1717518E-003  0.9118800E+02  0.7818608E-02  0.1130116E+00
         25   -1    0    0    0    0  0.00000000000E+00  0.00000000000E+00  0.99999998245E-14  0.12500000000E+03  0.12500000000E+03 0.  0.
        -11    1    3    3    0    0 -0.13168529489E+00 -0.27398601656E+02 -0.54245074625E+02  0.60771941183E+02  0.51100000000E-03 0. -1.
         23    2    1    0    0    0  0.29481794169E+01 -0.25200410372E+02 -0.28299746391E+02  0.86991736549E+02  0.78249179786E+02 0.  0.
         11    1    3    3    0    0  0.30798647118E+01  0.21981912840E+01  0.25945328235E+02  0.26219795366E+02  0.51100000000E-03 0.  1.
         22    1    1    0    0    0 -0.29481794169E+01  0.25200410372E+02  0.28299746391E+02  0.38008263451E+02  0.00000000000E+00 0. -1.
</event>
<event>
 5    1  0.1717518E-003  0.9118800E+02  0.7818608E-02  0.1130116E+00
         25   -1    0    0    0    0  0.00000000000E+00  0.00000000000E+00  0.99999998245E-14  0.12500000000E+03  0.12500000000E+03 0.  0.
        -11    1    3    3    0    0 -0.39843866691E+02 -0.17227609206E+02  0.15418937929E+01  0.43436179258E+02  0.51100000000E-03 0. -1.
         23    2    1    0    0    0  0.38929247043E+01 -0.59746594041E+01  0.28222944558E+02  0.95890104478E+02  0.91364796938E+02 0.  0.
         11    1    3    3    0    0  0.43736791395E+02  0.11252949802E+02  0.26681050765E+02  0.52453925220E+02  0.51100000000E-03 0.  1.
         22    1    1    0    0    0 -0.38929247043E+01  0.59746594041E+01 -0.28222944558E+02  0.29109895522E+02  0.00000000000E+00 0.  1.
</event>
<event>
 5    1  0.1717518E-003  0.9118800E+02  0.7818608E-02  0.1130116E+00
         25   -1    0    0    0    0  0.00000000000E+00  0.00000000000E+00  0.99999998245E-14  0.12500000000E+03  0.12500000000E+03 0.  0.
        -11    1    3    3    0    0  0.59316599477E+02  0.11829924878E+01  0.12882755668E+00  0.59328534800E+02  0.51100000000E-03 0. -1.
         23    2    1    0    0    0  0.25416280635E+02 -0.57328002654E+01  0.12538356101E+02  0.96085251274E+02  0.91631396467E+02 0.  0.
         11    1    3    3    0    0 -0.33900318842E+02 -0.69157927532E+01  0.12409528544E+02  0.36756716474E+02  0.51100000000E-03 0.  1.
         22    1    1    0    0    0 -0.25416280635E+02  0.57328002654E+01 -0.12538356101E+02  0.28914748726E+02  0.00000000000E+00 0. -1.
</event>
<event>
 5    1  0.1717518E-003  0.9118800E+02  0.7818608E-02  0.1130116E+00
         25   -1    0    0    0    0  0.00000000000E+00  0.00000000000E+00  0.99999998245E-14  0.12500000000E+03  0.12500000000E+03 0.  0.
        -11    1    3    3    0    0 -0.25054514647E+02 -0.33601137437E+02  0.45701993809E+02  0.62011590688E+02  0.51100000000E-03 0.  1.
         23    2    1    0    0    0 -0.62918405701E+01 -0.15919949723E+02  0.22749910306E+02  0.96529129345E+02  0.92234930130E+02 0.  0.
         11    1    3    3    0    0  0.18762674077E+02  0.17681187715E+02 -0.22952083503E+02  0.34517538657E+02  0.51100000000E-03 0. -1.
         22    1    1    0    0    0  0.62918405701E+01  0.15919949723E+02 -0.22749910306E+02  0.28470870655E+02  0.00000000000E+00 0.  1.
</event>
<event>
 5    1  0.1717518E-003  0.9118800E+02  0.7818608E-02  0.1130116E+00
         25   -1    0    0    0    0  0.00000000000E+00  0.00000000000E+00  0.99999998245E-14  0.12500000000E+03  0.12500000000E+03 0.  0.
        -11    1    3    3    0    0  0.33973197876E+02 -0.50282453440E+01  0.44210939742E+02  0.55982752865E+02  0.51100000000E-03 0. -1.
         23    2    1    0    0    0  0.28629348479E+02 -0.55930825363E+00  0.48475902913E+01  0.95957762626E+02  0.91457316036E+02 0.  0.
         11    1    3    3    0    0 -0.53438493971E+01  0.44689370903E+01 -0.39363349451E+02  0.39975009761E+02  0.51100000000E-03 0.  1.
         22    1    1    0    0    0 -0.28629348479E+02  0.55930825363E+00 -0.48475902913E+01  0.29042237374E+02  0.00000000000E+00 0. -1.
</event>
<event>
 5    1  0.1717518E-003  0.9118800E+02  0.7818608E-02  0.1130116E+00
         25   -1    0    0    0    0  0.00000000000E+00  0.00000000000E+00  0.99999998245E-14  0.12500000000E+03  0.12500000000E+03 0.  0.
        -11    1    3    3    0    0 -0.21359347691E+02 -0.14581601458E+02 -0.30922457050E+02  0.40311824384E+02  0.51100000000E-03 0. -1.
         23    2    1    0    0    0  0.21327201514E+02  0.14877412097E+02 -0.16715146109E+02  0.94087494042E+02  0.88864354555E+02 0.  0.
         11    1    3    3    0    0  0.42686549206E+02  0.29459013555E+02  0.14207310941E+02  0.53775669658E+02  0.51100000000E-03 0.  1.
         22    1    1    0    0    0 -0.21327201514E+02 -0.14877412097E+02  0.16715146109E+02  0.30912505958E+02  0.00000000000E+00 0.  1.
</event>
<event>
 5    1  0.1717518E-003  0.9118800E+02  0.7818608E-02  0.1130116E+00
         25   -1    0    0    0    0  0.00000000000E+00  0.00000000000E+00  0.99999998245E-14  0.12500000000E+03  0.12500000000E+03 0.  0.
        -11    1    3    3    0    0  0.45302735363E+01  0.21836139509E+01 -0.44954600851E+02  0.45235027204E+02  0.51100000000E-03 0.  1.
         23    2    1    0    0    0  0.14283929652E+02 -0.25764755837E+02 -0.47521049531E+01  0.95159829237E+02  0.90360153327E+02 0.  0.
         11    1    3    3    0    0  0.97536561162E+01 -0.27948369788E+02  0.40202495898E+02  0.49924802034E+02  0.51100000000E-03 0. -1.
         22    1    1    0    0    0 -0.14283929652E+02  0.25764755837E+02  0.47521049531E+01  0.29840170763E+02  0.00000000000E+00 0.  1.
</event>
<event>
 5    1  0.1717518E-003  0.9118800E+02  0.7818608E-02  0.1130116E+00
         25   -1    0    0    0    0  0.00000000000E+00  0.00000000000E+00  0.99999998245E-14  0.12500000000E+03  0.12500000000E+03 0.  0.
        -11    1    3    3    0    0  0.11045615980E+02 -0.48041279113E+02 -0.35245470134E+02  0.60598789562E+02  0.51100000000E-03 0.  1.
         23    2    1    0    0    0  0.14912013877E+02 -0.21959449979E+02 -0.11537331371E+02  0.96057028203E+02  0.91592887556E+02 0.  0.
         11    1    3    3    0    0  0.38663978969E+01  0.26081829133E+02  0.23708138763E+02  0.35458238641E+02  0.51100000000E-03 0. -1.
         22    1    1    0    0    0 -0.14912013877E+02  0.21959449979E+02  0.11537331371E+02  0.28942971797E+02  0.00000000000E+00 0.  1.
</event>
<event>
 5    1  0.1717518E-003  0.9118800E+02  0.7818608E-02  0.1130116E+00
         25   -1    0    0    0    0  0.00000000000E+00  0.00000000000E+00  0.99999998245E-14  0.12500000000E+03  0.12500000000E+03 0.  0.
        -11    1    3    3    0    0  0.20305936705E+02 -0.36377113346E+02  0.26688105185E+02  0.49476058851E+02  0.51100000000E-03 0.  1.
         23    2    1    0    0    0  0.28492713591E+02 -0.47567098207E+01 -0.57904804393E+01  0.95538318449E+02  0.90882229354E+02 0.  0.
         11    1    3    3    0    0  0.81867768860E+01  0.31620403525E+02 -0.32478585624E+02  0.46062259598E+02  0.51100000000E-03 0. -1.
         22    1    1    0    0    0 -0.28492713591E+02  0.47567098207E+01  0.57904804393E+01  0.29461681551E+02  0.00000000000E+00 0.  1.
</event>
<event>
 5    1  0.1717518E-003  0.9118800E+02  0.7818608E-02  0.1130116E+00
         25   -1    0    0    0    0  0.00000000000E+00  0.00000000000E+00  0.99999998245E-14  0.12500000000E+03  0.12500000000E+03 0.  0.
        -11    1    3    3    0    0 -0.72745136426E+01 -0.27255056840E+02  0.24604223661E+02  0.37431597539E+02  0.51100000000E-03 0.  1.
         23    2    1    0    0    0  0.19119927438E+02 -0.58857053043E+01 -0.22108142128E+02  0.95184180364E+02  0.90393833258E+02 0.  0.
         11    1    3    3    0    0  0.26394441081E+02  0.21369351536E+02 -0.46712365790E+02  0.57752582825E+02  0.51100000000E-03 0. -1.
         22    1    1    0    0    0 -0.19119927438E+02  0.58857053043E+01  0.22108142128E+02  0.29815819636E+02  0.00000000000E+00 0. -1.
</event>
<event>
 5    1  0.1717518E-003  0.9118800E+02  0.7818608E-02  0.1130116E+00
         25   -1    0    0    0    0  0.00000000000E+00  0.00000000000E+00  0.99999998245E-14  0.12500000000E+03  0.12500000000E+03 0.  0.
        -11    1    3    3    0    0  0.36494235463E+01  0.56068468163E+02  0.86460557482E+01  0.56848444963E+02  0.51100000000E-03 0.  1.
         23    2    1    0    0    0  0.14747953484E+02  0.18894749504E+02  0.15792138640E+02  0.96296248789E+02  0.91918780438E+02 0.  0.
         11    1    3    3    0    0  0.11098529938E+02 -0.37173718659E+02  0.71460828914E+01  0.39447803826E+02  0.51100000000E-03 0. -1.
         22    1    1    0    0    0 -0.14747953484E+02 -0.18894749504E+02 -0.15792138640E+02  0.28703751211E+02  0.00000000000E+00 0.  1.
</event>
<event>
 5    1  0.1717518E-003  0.9118800E+02  0.7818608E-02  0.1130116E+00
         25   -1    0    0    0    0  0.00000000000E+00  0.00000000000E+00  0.99999998245E-14  0.12500000000E+03  0.12500000000E+03 0.  0.
        -11    1    3    3    0    0  0.19906455758E+02 -0.26496566130E+02  0.48246969692E+02  0.58532940147E+02  0.51100000000E-03 0.  1.
         23    2    1    0    0    0 -0.44319421168E+01 -0.19865173720E+02  0.18991057869E+02  0.97162480052E+02  0.93089312024E+02 0.  0.
         11    1    3    3    0    0 -0.24338397875E+02  0.66313924101E+01 -0.29255911823E+02  0.38629539905E+02  0.51100000000E-03 0. -1.
         22    1    1    0    0    0  0.44319421168E+01  0.19865173720E+02 -0.18991057869E+02  0.27837519948E+02  0.00000000000E+00 0.  1.
</event>
<event>
 5    1  0.1717518E-003  0.9118800E+02  0.7818608E-02  0.1130116E+00
         25   -1    0    0    0    0  0.00000000000E+00  0.00000000000E+00  0.99999998245E-14  0.12500000000E+03  0.12500000000E+03 0.  0.
        -11    1    3    3    0    0 -0.20229434153E+01 -0.40025903014E+02  0.86869938437E+01  0.41007670922E+02  0.51100000000E-03 0.  1.
         23    2    1    0    0    0 -0.23992040121E+02  0.92137278971E+01 -0.90256403512E+01  0.97760819493E+02  0.93889322467E+02 0.  0.
         11    1    3    3    0    0 -0.21969096706E+02  0.49239630911E+02 -0.17712634195E+02  0.56753148571E+02  0.51100000000E-03 0. -1.
         22    1    1    0    0    0  0.23992040121E+02 -0.92137278971E+01  0.90256403512E+01  0.27239180507E+02  0.00000000000E+00 0. -1.
</event>
<event>
 5    1  0.1717518E-003  0.9118800E+02  0.7818608E-02  0.1130116E+00
         25   -1    0    0    0    0  0.00000000000E+00  0.00000000000E+00  0.99999998245E-14  0.12500000000E+03  0.12500000000E+03 0.  0.
        -11    1    3    3    0    0 -0.13609212978E+02 -0.14683921808E+02 -0.26387630952E+02  0.33123032848E+02  0.51100000000E-03 0. -1.
         23    2    1    0    0    0  0.24967447026E+02  0.10113532538E+02  0.14363155095E+02  0.94472026342E+02  0.89403616177E+02 0.  0.
         11    1    3    3    0    0  0.38576660004E+02  0.24797454346E+02  0.40750786047E+02  0.61348993494E+02  0.51100000000E-03 0.  1.
         22    1    1    0    0    0 -0.24967447026E+02 -0.10113532538E+02 -0.14363155095E+02  0.30527973658E+02  0.00000000000E+00 0.  1.
</event>
<event>
 5    1  0.1717518E-003  0.9118800E+02  0.7818608E-02  0.1130116E+00
         25   -1    0    0    0    0  0.00000000000E+00  0.00000000000E+00  0.99999998245E-14  0.12500000000E+03  0.12500000000E+03 0.  0.
        -11    1    3    3    0    0  0.45338918829E+01  0.34880950567E+02 -0.11351367967E+01  0.35192689921E+02  0.51100000000E-03 0.  1.
         23    2    1    0    0    0  0.89757651832E+01 -0.26465193674E+02 -0.40170139838E+01  0.96766912352E+02  0.92556620984E+02 0.  0.
         11    1    3    3    0    0  0.44418733003E+01 -0.61346144241E+02 -0.28818771870E+01  0.61574222431E+02  0.51100000000E-03 0. -1.
         22    1    1    0    0    0 -0.89757651832E+01  0.26465193674E+02  0.40170139838E+01  0.28233087648E+02  0.00000000000E+00 0. -1.
</event>
<event>
 5    1  0.1717518E-003  0.9118800E+02  0.7818608E-02  0.1130116E+00
         25   -1    0    0    0    0  0.00000000000E+00  0.00000000000E+00  0.99999998245E-14  0.12500000000E+03  0.12500000000E+03 0.  0.
        -11    1    3    3    0    0 -0.48124731555E+02 -0.12931905850E+02  0.23738615534E+02  0.55197335478E+02  0.51100000000E-03 0. -1.
         23    2    1    0    0    0 -0.36428104055E+02  0.64200963781E+01 -0.39318834176E-01  0.88010461635E+02  0.79859973758E+02 0.  0.
         11    1    3    3    0    0  0.11696627500E+02  0.19352002228E+02 -0.23777934368E+02  0.32813126157E+02  0.51100000000E-03 0.  1.
         22    1    1    0    0    0  0.36428104055E+02 -0.64200963781E+01  0.39318834176E-01  0.36989538365E+02  0.00000000000E+00 0. -1.
</event>
<event>
 5    1  0.1717518E-003  0.9118800E+02  0.7818608E-02  0.1130116E+00
         25   -1    0    0    0    0  0.00000000000E+00  0.00000000000E+00  0.99999998245E-14  0.12500000000E+03  0.12500000000E+03 0.  0.
        -11    1    3    3    0    0 -0.24684494385E+01 -0.34832871563E+02 -0.17796550652E+02  0.39193614267E+02  0.51100000000E-03 0.  1.
         23    2    1    0    0    0  0.31552569624E+02  0.14624233350E+00 -0.19300999615E+02  0.88011966492E+02  0.79862329186E+02 0.  0.
         11    1    3    3    0    0  0.34021019062E+02  0.34979113896E+02 -0.15044489624E+01  0.48818352225E+02  0.51100000000E-03 0. -1.
         22    1    1    0    0    0 -0.31552569624E+02 -0.14624233350E+00  0.19300999615E+02  0.36988033508E+02  0.00000000000E+00 0. -1.
</event>
<event>
 5    1  0.1717518E-003  0.9118800E+02  0.7818608E-02  0.1130116E+00
         25   -1    0    0    0    0  0.00000000000E+00  0.00000000000E+00  0.99999998245E-14  0.12500000000E+03  0.12500000000E+03 0.  0.
        -11    1    3    3    0    0  0.34927813137E+02 -0.30408119721E+02 -0.34179068106E+02  0.57557054931E+02  0.51100000000E-03 0. -1.
         23    2    1    0    0    0  0.12885368997E+02 -0.26209620921E+02 -0.34724581904E+01  0.95588523857E+02  0.90951255980E+02 0.  0.
         11    1    3    3    0    0 -0.22042444141E+02  0.41984987992E+01  0.30706609916E+02  0.38031468926E+02  0.51100000000E-03 0.  1.
         22    1    1    0    0    0 -0.12885368997E+02  0.26209620921E+02  0.34724581904E+01  0.29411476143E+02  0.00000000000E+00 0. -1.
</event>
<event>
 5    1  0.1717518E-003  0.9118800E+02  0.7818608E-02  0.1130116E+00
         25   -1    0    0    0    0  0.00000000000E+00  0.00000000000E+00  0.99999998245E-14  0.12500000000E+03  0.12500000000E+03 0.  0.
        -11    1    3    3    0    0 -0.32157280199E+02 -0.10082791272E+02 -0.37676589792E+02  0.50549765264E+02  0.51100000000E-03 0.  1.
         23    2    1    0    0    0 -0.28206365234E+02  0.10221037839E+02  0.16171328871E+01  0.94955303746E+02  0.90076778009E+02 0.  0.
         11    1    3    3    0    0  0.39509149645E+01  0.20303829111E+02  0.39293722679E+02  0.44405538482E+02  0.51100000000E-03 0. -1.
         22    1    1    0    0    0  0.28206365234E+02 -0.10221037839E+02 -0.16171328871E+01  0.30044696254E+02  0.00000000000E+00 0.  1.
</event>
<event>
 5    1  0.1717518E-003  0.9118800E+02  0.7818608E-02  0.1130116E+00
         25   -1    0    0    0    0  0.00000000000E+00  0.00000000000E+00  0.99999998245E-14  0.12500000000E+03  0.12500000000E+03 0.  0.
        -11    1    3    3    0    0  0.27661764777E+02  0.26111971287E+02 -0.24491900147E+02  0.45242252907E+02  0.51100000000E-03 0. -1.
         23    2    1    0    0    0  0.18575970257E+02  0.30193567912E+01  0.20838706302E+02  0.96920917630E+02  0.92764375746E+02 0.  0.
         11    1    3    3    0    0 -0.90857945201E+01 -0.23092614495E+02  0.45330606449E+02  0.51678664723E+02  0.51100000000E-03 0.  1.
         22    1    1    0    0    0 -0.18575970257E+02 -0.30193567912E+01 -0.20838706302E+02  0.28079082370E+02  0.00000000000E+00 0. -1.
</event>
<event>
 5    1  0.1717518E-003  0.9118800E+02  0.7818608E-02  0.1130116E+00
         25   -1    0    0    0    0  0.00000000000E+00  0.00000000000E+00  0.99999998245E-14  0.12500000000E+03  0.12500000000E+03 0.  0.
        -11    1    3    3    0    0 -0.24333907776E+01 -0.33181513278E+02  0.19513384546E+02  0.38570797124E+02  0.51100000000E-03 0. -1.
         23    2    1    0    0    0 -0.17708344730E+02  0.21094814345E+02  0.96772520332E+01  0.95807092090E+02  0.91251153541E+02 0.  0.
         11    1    3    3    0    0 -0.15274953952E+02  0.54276327622E+02 -0.98361325127E+01  0.57236294966E+02  0.51100000000E-03 0.  1.
         22    1    1    0    0    0  0.17708344730E+02 -0.21094814345E+02 -0.96772520332E+01  0.29192907910E+02  0.00000000000E+00 0. -1.
</event>
<event>
 5    1  0.1717518E-003  0.9118800E+02  0.7818608E-02  0.1130116E+00
         25   -1    0    0    0    0  0.00000000000E+00  0.00000000000E+00  0.99999998245E-14  0.12500000000E+03  0.12500000000E+03 0.  0.
        -11    1    3    3    0    0 -0.38201271113E+02  0.33017123003E+02 -0.28274734450E+02  0.57869924266E+02  0.51100000000E-03 0.  1.
         23    2    1    0    0    0 -0.27130092093E+02  0.11163224773E+02  0.49737297525E+00  0.95658785571E+02  0.91047769839E+02 0.  0.
         11    1    3    3    0    0  0.11071179020E+02 -0.21853898230E+02  0.28772107425E+02  0.37788861305E+02  0.51100000000E-03 0. -1.
         22    1    1    0    0    0  0.27130092093E+02 -0.11163224773E+02 -0.49737297525E+00  0.29341214429E+02  0.00000000000E+00 0.  1.
</event>
<event>
 5    1  0.1717518E-003  0.9118800E+02  0.7818608E-02  0.1130116E+00
         25   -1    0    0    0    0  0.00000000000E+00  0.00000000000E+00  0.99999998245E-14  0.12500000000E+03  0.12500000000E+03 0.  0.
        -11    1    3    3    0    0 -0.30631690727E+02  0.40767019046E+02 -0.19284165358E+01  0.51029100612E+02  0.51100000000E-03 0. -1.
         23    2    1    0    0    0 -0.43503352155E+02  0.21177500904E+02  0.70004239207E+01  0.76112024707E+02  0.58335291005E+02 0.  0.
         11    1    3    3    0    0 -0.12871661428E+02 -0.19589518143E+02  0.89288404565E+01  0.25082924094E+02  0.51100000000E-03 0.  1.
         22    1    1    0    0    0  0.43503352155E+02 -0.21177500904E+02 -0.70004239207E+01  0.48887975293E+02  0.00000000000E+00 0. -1.
</event>
<event>
 5    1  0.1717518E-003  0.9118800E+02  0.7818608E-02  0.1130116E+00
         25   -1    0    0    0    0  0.00000000000E+00  0.00000000000E+00  0.99999998245E-14  0.12500000000E+03  0.12500000000E+03 0.  0.
        -11    1    3    3    0    0  0.35379368566E+02  0.87599667184E+01  0.36272453918E+02  0.51421081772E+02  0.51100000000E-03 0. -1.
         23    2    1    0    0    0  0.19500578452E+02  0.28386710943E+02  0.73995489370E+01  0.89774565403E+02  0.82575064945E+02 0.  0.
         11    1    3    3    0    0 -0.15878790114E+02  0.19626744224E+02 -0.28872904981E+02  0.38353483631E+02  0.51100000000E-03 0.  1.
         22    1    1    0    0    0 -0.19500578452E+02 -0.28386710943E+02 -0.73995489370E+01  0.35225434597E+02  0.00000000000E+00 0. -1.
</event>
<event>
 5    1  0.1717518E-003  0.9118800E+02  0.7818608E-02  0.1130116E+00
         25   -1    0    0    0    0  0.00000000000E+00  0.00000000000E+00  0.99999998245E-14  0.12500000000E+03  0.12500000000E+03 0.  0.
        -11    1    3    3    0    0 -0.28960136714E+02  0.22869344274E+02 -0.98633198938E+01  0.38196616416E+02  0.51100000000E-03 0. -1.
         23    2    1    0    0    0  0.24519060666E+02  0.37970571689E+01  0.98574319035E+01  0.98302229628E+02  0.94607385584E+02 0.  0.
         11    1    3    3    0    0  0.53479197381E+02 -0.19072287105E+02  0.19720751797E+02  0.60105613212E+02  0.51100000000E-03 0.  1.
         22    1    1    0    0    0 -0.24519060666E+02 -0.37970571689E+01 -0.98574319035E+01  0.26697770372E+02  0.00000000000E+00 0.  1.
</event>
<event>
 5    1  0.1717518E-003  0.9118800E+02  0.7818608E-02  0.1130116E+00
         25   -1    0    0    0    0  0.00000000000E+00  0.00000000000E+00  0.99999998245E-14  0.12500000000E+03  0.12500000000E+03 0.  0.
        -11    1    3    3    0    0 -0.15826772950E+02 -0.50331957436E+02  0.26378698134E+02  0.58988375100E+02  0.51100000000E-03 0.  1.
         23    2    1    0    0    0  0.32355937001E+01 -0.16027095519E+02  0.20667276602E+02  0.98647140961E+02  0.95062007344E+02 0.  0.
         11    1    3    3    0    0  0.19062366650E+02  0.34304861917E+02 -0.57114215321E+01  0.39658765862E+02  0.51100000000E-03 0. -1.
         22    1    1    0    0    0 -0.32355937001E+01  0.16027095519E+02 -0.20667276602E+02  0.26352859039E+02  0.00000000000E+00 0.  1.
</event>
<event>
 5    1  0.1717518E-003  0.9118800E+02  0.7818608E-02  0.1130116E+00
         25   -1    0    0    0    0  0.00000000000E+00  0.00000000000E+00  0.99999998245E-14  0.12500000000E+03  0.12500000000E+03 0.  0.
        -11    1    3    3    0    0 -0.35243855299E+01 -0.16576446258E+02  0.44707140414E+02  0.47811382203E+02  0.51100000000E-03 0. -1.
         23    2    1    0    0    0  0.22011480815E+02 -0.18543604004E+02  0.39483199109E+01  0.95949014350E+02  0.91445358480E+02 0.  0.
         11    1    3    3    0    0  0.25535866345E+02 -0.19671577463E+01 -0.40758820503E+02  0.48137632147E+02  0.51100000000E-03 0.  1.
         22    1    1    0    0    0 -0.22011480815E+02  0.18543604004E+02 -0.39483199109E+01  0.29050985650E+02  0.00000000000E+00 0. -1.
</event>
<event>
 5    1  0.1717518E-003  0.9118800E+02  0.7818608E-02  0.1130116E+00
         25   -1    0    0    0    0  0.00000000000E+00  0.00000000000E+00  0.99999998245E-14  0.12500000000E+03  0.12500000000E+03 0.  0.
        -11    1    3    3    0    0  0.36537767157E+02 -0.25152225255E+02  0.38353926054E+02  0.58640144168E+02  0.51100000000E-03 0.  1.
         23    2    1    0    0    0  0.68356899906E+01 -0.23421597758E+02  0.16972397418E+02  0.95278624304E+02  0.90524339688E+02 0.  0.
         11    1    3    3    0    0 -0.29702077167E+02  0.17306274970E+01 -0.21381528636E+02  0.36638480135E+02  0.51100000000E-03 0. -1.
         22    1    1    0    0    0 -0.68356899906E+01  0.23421597758E+02 -0.16972397418E+02  0.29721375696E+02  0.00000000000E+00 0.  1.
</event>
<event>
 5    1  0.1717518E-003  0.9118800E+02  0.7818608E-02  0.1130116E+00
         25   -1    0    0    0    0  0.00000000000E+00  0.00000000000E+00  0.99999998245E-14  0.12500000000E+03  0.12500000000E+03 0.  0.
        -11    1    3    3    0    0  0.40383517238E+01 -0.28100173928E+02 -0.29024505573E+02  0.40599876643E+02  0.51100000000E-03 0.  1.
         23    2    1    0    0    0  0.26229793787E+02 -0.16727115284E+01  0.13571043937E+02  0.95420052747E+02  0.90719420119E+02 0.  0.
         11    1    3    3    0    0  0.22191442063E+02  0.26427462399E+02  0.42595549510E+02  0.54820176104E+02  0.51100000000E-03 0. -1.
         22    1    1    0    0    0 -0.26229793787E+02  0.16727115284E+01 -0.13571043937E+02  0.29579947253E+02  0.00000000000E+00 0. -1.
</event>
<event>
 5    1  0.1717518E-003  0.9118800E+02  0.7818608E-02  0.1130116E+00
         25   -1    0    0    0    0  0.00000000000E+00  0.00000000000E+00  0.99999998245E-14  0.12500000000E+03  0.12500000000E+03 0.  0.
        -11    1    3    3    0    0  0.42685539242E+02  0.82003790860E+01 -0.13132682027E+02  0.45406704516E+02  0.51100000000E-03 0.  1.
         23    2    1    0    0    0 -0.52296053908E+01 -0.20145043854E+02 -0.11758674040E+02  0.10109523103E+03  0.98228344977E+02 0.  0.
         11    1    3    3    0    0 -0.47915144633E+02 -0.28345422940E+02  0.13740079867E+01  0.55688526512E+02  0.51100000000E-03 0. -1.
         22    1    1    0    0    0  0.52296053908E+01  0.20145043854E+02  0.11758674040E+02  0.23904768972E+02  0.00000000000E+00 0.  1.
</event>
<event>
 5    1  0.1717518E-003  0.9118800E+02  0.7818608E-02  0.1130116E+00
         25   -1    0    0    0    0  0.00000000000E+00  0.00000000000E+00  0.99999998245E-14  0.12500000000E+03  0.12500000000E+03 0.  0.
        -11    1    3    3    0    0  0.38616640231E+02 -0.91954133492E+01 -0.21556744615E+02  0.45171824936E+02  0.51100000000E-03 0. -1.
         23    2    1    0    0    0 -0.50203665597E+01 -0.28608528342E+02 -0.66732012853E+01  0.95197590874E+02  0.90412375915E+02 0.  0.
         11    1    3    3    0    0 -0.43637006791E+02 -0.19413114993E+02  0.14883543330E+02  0.50025765938E+02  0.51100000000E-03 0.  1.
         22    1    1    0    0    0  0.50203665597E+01  0.28608528342E+02  0.66732012853E+01  0.29802409126E+02  0.00000000000E+00 0.  1.
</event>
<event>
 5    1  0.1717518E-003  0.9118800E+02  0.7818608E-02  0.1130116E+00
         25   -1    0    0    0    0  0.00000000000E+00  0.00000000000E+00  0.99999998245E-14  0.12500000000E+03  0.12500000000E+03 0.  0.
        -11    1    3    3    0    0  0.15526539186E+02  0.23659542107E+02 -0.24804729043E+02  0.37631395602E+02  0.51100000000E-03 0. -1.
         23    2    1    0    0    0 -0.62041497084E+00  0.79514016642E+01  0.28449207825E+02  0.95453982857E+02  0.90766159521E+02 0.  0.
         11    1    3    3    0    0 -0.16146954156E+02 -0.15708140442E+02  0.53253936868E+02  0.57822587255E+02  0.51100000000E-03 0.  1.
         22    1    1    0    0    0  0.62041497084E+00 -0.79514016642E+01 -0.28449207825E+02  0.29546017143E+02  0.00000000000E+00 0.  1.
</event>
<event>
 5    1  0.1717518E-003  0.9118800E+02  0.7818608E-02  0.1130116E+00
         25   -1    0    0    0    0  0.00000000000E+00  0.00000000000E+00  0.99999998245E-14  0.12500000000E+03  0.12500000000E+03 0.  0.
        -11    1    3    3    0    0 -0.11023814159E+02  0.54735417494E+02  0.18126365642E+02  0.58703113533E+02  0.51100000000E-03 0. -1.
         23    2    1    0    0    0 -0.29927873171E+01  0.29310221014E+02 -0.63086823863E+01  0.94869528625E+02  0.89957668691E+02 0.  0.
         11    1    3    3    0    0  0.80310268420E+01 -0.25425196480E+02 -0.24435048029E+02  0.36166415092E+02  0.51100000000E-03 0.  1.
         22    1    1    0    0    0  0.29927873171E+01 -0.29310221014E+02  0.63086823863E+01  0.30130471375E+02  0.00000000000E+00 0. -1.
</event>
<event>
 5    1  0.1717518E-003  0.9118800E+02  0.7818608E-02  0.1130116E+00
         25   -1    0    0    0    0  0.00000000000E+00  0.00000000000E+00  0.99999998245E-14  0.12500000000E+03  0.12500000000E+03 0.  0.
        -11    1    3    3    0    0 -0.47559762824E+02 -0.33624937144E+02  0.19256592401E+02  0.61346424419E+02  0.51100000000E-03 0.  1.
         23    2    1    0    0    0 -0.20944471133E+02 -0.61686566490E+01  0.27592622205E+01  0.10299234851E+03  0.10061355340E+03 0.  0.
         11    1    3    3    0    0  0.26615291691E+02  0.27456280495E+02 -0.16497330181E+02  0.41645924096E+02  0.51100000000E-03 0. -1.
         22    1    1    0    0    0  0.20944471133E+02  0.61686566490E+01 -0.27592622205E+01  0.22007651485E+02  0.00000000000E+00 0.  1.
</event>
<event>
 5    1  0.1717518E-003  0.9118800E+02  0.7818608E-02  0.1130116E+00
         25   -1    0    0    0    0  0.00000000000E+00  0.00000000000E+00  0.99999998245E-14  0.12500000000E+03  0.12500000000E+03 0.  0.
        -11    1    3    3    0    0  0.45906073416E+01  0.24630467662E+02 -0.32599521924E+02  0.41115233709E+02  0.51100000000E-03 0. -1.
         23    2    1    0    0    0 -0.15018837354E+01  0.17356431552E+02  0.22228405073E+02  0.96758127487E+02  0.92544756046E+02 0.  0.
         11    1    3    3    0    0 -0.60924910769E+01 -0.72740361094E+01  0.54827926997E+02  0.55642893777E+02  0.51100000000E-03 0.  1.
         22    1    1    0    0    0  0.15018837354E+01 -0.17356431552E+02 -0.22228405073E+02  0.28241872513E+02  0.00000000000E+00 0.  1.
</event>
<event>
 5    1  0.1717518E-003  0.9118800E+02  0.7818608E-02  0.1130116E+00
         25   -1    0    0    0    0  0.00000000000E+00  0.00000000000E+00  0.99999998245E-14  0.12500000000E+03  0.12500000000E+03 0.  0.
        -11    1    3    3    0    0  0.52698263611E+01 -0.49378506319E+02  0.14903561870E+02  0.51847122512E+02  0.51100000000E-03 0.  1.
         23    2    1    0    0    0 -0.10447412568E+01 -0.74080279035E+01  0.27803900212E+02  0.96207167060E+02  0.91797558600E+02 0.  0.
         11    1    3    3    0    0 -0.63145676179E+01  0.41970478415E+02  0.12900338343E+02  0.44360044547E+02  0.51100000000E-03 0. -1.
         22    1    1    0    0    0  0.10447412568E+01  0.74080279035E+01 -0.27803900212E+02  0.28792832940E+02  0.00000000000E+00 0.  1.
</event>
<event>
 5    1  0.1717518E-003  0.9118800E+02  0.7818608E-02  0.1130116E+00
         25   -1    0    0    0    0  0.00000000000E+00  0.00000000000E+00  0.99999998245E-14  0.12500000000E+03  0.12500000000E+03 0.  0.
        -11    1    3    3    0    0  0.15771536412E+01 -0.20147347106E+02  0.25965070447E+02  0.32902703424E+02  0.51100000000E-03 0.  1.
         23    2    1    0    0    0 -0.22711354098E+02  0.23311987083E+02 -0.57745896460E+01  0.91945496036E+02  0.85798449922E+02 0.  0.
         11    1    3    3    0    0 -0.24288507740E+02  0.43459334189E+02 -0.31739660093E+02  0.59042792612E+02  0.51100000000E-03 0. -1.
         22    1    1    0    0    0  0.22711354098E+02 -0.23311987083E+02  0.57745896460E+01  0.33054503964E+02  0.00000000000E+00 0. -1.
</event>
<event>
 5    1  0.1717518E-003  0.9118800E+02  0.7818608E-02  0.1130116E+00
         25   -1    0    0    0    0  0.00000000000E+00  0.00000000000E+00  0.99999998245E-14  0.12500000000E+03  0.12500000000E+03 0.  0.
        -11    1    3    3    0    0  0.17471600715E+02 -0.36087073114E+02  0.17212192720E+02  0.43632479370E+02  0.51100000000E-03 0. -1.
         23    2    1    0    0    0  0.24094885790E+02  0.35591638238E+01 -0.16071083355E+02  0.95819340505E+02  0.91267930437E+02 0.  0.
         11    1    3    3    0    0  0.66232850753E+01  0.39646236938E+02 -0.33283276075E+02  0.52186861135E+02  0.51100000000E-03 0.  1.
         22    1    1    0    0    0 -0.24094885790E+02 -0.35591638238E+01  0.16071083355E+02  0.29180659495E+02  0.00000000000E+00 0.  1.
</event>
<event>
 5    1  0.1717518E-003  0.9118800E+02  0.7818608E-02  0.1130116E+00
         25   -1    0    0    0    0  0.00000000000E+00  0.00000000000E+00  0.99999998245E-14  0.12500000000E+03  0.12500000000E+03 0.  0.
        -11    1    3    3    0    0 -0.75268091421E+01 -0.85108945639E+00  0.33535073602E+02  0.34379912316E+02  0.51100000000E-03 0. -1.
         23    2    1    0    0    0  0.50836132296E+01  0.18232198923E+01 -0.27608820386E+02  0.96867914806E+02  0.92692926922E+02 0.  0.
         11    1    3    3    0    0  0.12610422372E+02  0.26743093487E+01 -0.61143893988E+02  0.62488002490E+02  0.51100000000E-03 0.  1.
         22    1    1    0    0    0 -0.50836132296E+01 -0.18232198923E+01  0.27608820386E+02  0.28132085194E+02  0.00000000000E+00 0.  1.
</event>
<event>
 5    1  0.1717518E-003  0.9118800E+02  0.7818608E-02  0.1130116E+00
         25   -1    0    0    0    0  0.00000000000E+00  0.00000000000E+00  0.99999998245E-14  0.12500000000E+03  0.12500000000E+03 0.  0.
        -11    1    3    3    0    0  0.38804159158E+01 -0.62173146046E+01 -0.35195046689E+02  0.35950020032E+02  0.51100000000E-03 0.  1.
         23    2    1    0    0    0  0.48554238360E+01 -0.14081320665E+02  0.24586036970E+02  0.96254009912E+02  0.91861321991E+02 0.  0.
         11    1    3    3    0    0  0.97500792015E+00 -0.78640060600E+01  0.59781083659E+02  0.60303989880E+02  0.51100000000E-03 0. -1.
         22    1    1    0    0    0 -0.48554238360E+01  0.14081320665E+02 -0.24586036970E+02  0.28745990088E+02  0.00000000000E+00 0.  1.
</event>
<event>
 5    1  0.1717518E-003  0.9118800E+02  0.7818608E-02  0.1130116E+00
         25   -1    0    0    0    0  0.00000000000E+00  0.00000000000E+00  0.99999998245E-14  0.12500000000E+03  0.12500000000E+03 0.  0.
        -11    1    3    3    0    0  0.38759751533E+02  0.34186380095E+02 -0.14879901231E+02  0.53781394402E+02  0.51100000000E-03 0. -1.
         23    2    1    0    0    0  0.20442840547E+02  0.99683168361E+01  0.16079576666E+02  0.97146277522E+02  0.93067552780E+02 0.  0.
         11    1    3    3    0    0 -0.18316910986E+02 -0.24218063259E+02  0.30959477897E+02  0.43364883120E+02  0.51100000000E-03 0.  1.
         22    1    1    0    0    0 -0.20442840547E+02 -0.99683168361E+01 -0.16079576666E+02  0.27853722478E+02  0.00000000000E+00 0. -1.
</event>
<event>
 5    1  0.1717518E-003  0.9118800E+02  0.7818608E-02  0.1130116E+00
         25   -1    0    0    0    0  0.00000000000E+00  0.00000000000E+00  0.99999998245E-14  0.12500000000E+03  0.12500000000E+03 0.  0.
        -11    1    3    3    0    0 -0.33992675377E+01  0.54012830639E+02  0.27109599665E+02  0.60529920599E+02  0.51100000000E-03 0.  1.
         23    2    1    0    0    0  0.21286541177E+01  0.29777082549E+02  0.32761996848E+01  0.94967695762E+02  0.90093972831E+02 0.  0.
         11    1    3    3    0    0  0.55279216554E+01 -0.24235748090E+02 -0.23833399980E+02  0.34437775163E+02  0.51100000000E-03 0. -1.
         22    1    1    0    0    0 -0.21286541177E+01 -0.29777082549E+02 -0.32761996848E+01  0.30032304238E+02  0.00000000000E+00 0.  1.
</event>
<event>
 5    1  0.1717518E-003  0.9118800E+02  0.7818608E-02  0.1130116E+00
         25   -1    0    0    0    0  0.00000000000E+00  0.00000000000E+00  0.99999998245E-14  0.12500000000E+03  0.12500000000E+03 0.  0.
        -11    1    3    3    0    0 -0.42551736388E+02 -0.19524727406E+02  0.15870494809E+02  0.49434176999E+02  0.51100000000E-03 0. -1.
         23    2    1    0    0    0  0.20446389690E+01 -0.28141911296E+02  0.90715986104E+01  0.95361484159E+02  0.90638684014E+02 0.  0.
         11    1    3    3    0    0  0.44596375357E+02 -0.86171838902E+01 -0.67988961984E+01  0.45927307160E+02  0.51100000000E-03 0.  1.
         22    1    1    0    0    0 -0.20446389690E+01  0.28141911296E+02 -0.90715986104E+01  0.29638515841E+02  0.00000000000E+00 0. -1.
</event>
<event>
 5    1  0.1717518E-003  0.9118800E+02  0.7818608E-02  0.1130116E+00
         25   -1    0    0    0    0  0.00000000000E+00  0.00000000000E+00  0.99999998245E-14  0.12500000000E+03  0.12500000000E+03 0.  0.
        -11    1    3    3    0    0  0.38037856088E+02 -0.33539389492E+02 -0.66676933617E+01  0.51149069183E+02  0.51100000000E-03 0.  1.
         23    2    1    0    0    0  0.22588180799E+02  0.68517164970E+01 -0.17363339930E+02  0.95697141704E+02  0.91100413973E+02 0.  0.
         11    1    3    3    0    0 -0.15449675289E+02  0.40391105989E+02 -0.10695646569E+02  0.44548072521E+02  0.51100000000E-03 0. -1.
         22    1    1    0    0    0 -0.22588180799E+02 -0.68517164970E+01  0.17363339930E+02  0.29302858296E+02  0.00000000000E+00 0.  1.
</event>
<event>
 5    1  0.1717518E-003  0.9118800E+02  0.7818608E-02  0.1130116E+00
         25   -1    0    0    0    0  0.00000000000E+00  0.00000000000E+00  0.99999998245E-14  0.12500000000E+03  0.12500000000E+03 0.  0.
        -11    1    3    3    0    0 -0.27287800392E+02 -0.29637701107E+01  0.52012439605E+02  0.58810729101E+02  0.51100000000E-03 0.  1.
         23    2    1    0    0    0 -0.21796012361E+02 -0.10271066080E+02  0.15734273382E+02  0.96222781369E+02  0.91818818018E+02 0.  0.
         11    1    3    3    0    0  0.54917880307E+01 -0.73072959697E+01 -0.36278166223E+02  0.37412052268E+02  0.51100000000E-03 0. -1.
         22    1    1    0    0    0  0.21796012361E+02  0.10271066080E+02 -0.15734273382E+02  0.28777218631E+02  0.00000000000E+00 0.  1.
</event>
<event>
 5    1  0.1717518E-003  0.9118800E+02  0.7818608E-02  0.1130116E+00
         25   -1    0    0    0    0  0.00000000000E+00  0.00000000000E+00  0.99999998245E-14  0.12500000000E+03  0.12500000000E+03 0.  0.
        -11    1    3    3    0    0  0.33570996854E+02 -0.97342359399E+00  0.19339265929E+02  0.38755213716E+02  0.51100000000E-03 0. -1.
         23    2    1    0    0    0 -0.12646296748E+02 -0.19274022299E+02 -0.13456119137E+02  0.98307605966E+02  0.94614488804E+02 0.  0.
         11    1    3    3    0    0 -0.46217293602E+02 -0.18300598705E+02 -0.32795385065E+02  0.59552392250E+02  0.51100000000E-03 0.  1.
         22    1    1    0    0    0  0.12646296748E+02  0.19274022299E+02  0.13456119137E+02  0.26692394034E+02  0.00000000000E+00 0.  1.
</event>
<event>
 5    1  0.1717518E-003  0.9118800E+02  0.7818608E-02  0.1130116E+00
         25   -1    0    0    0    0  0.00000000000E+00  0.00000000000E+00  0.99999998245E-14  0.12500000000E+03  0.12500000000E+03 0.  0.
        -11    1    3    3    0    0  0.34737086065E+02  0.10642345725E+02  0.90214650944E+01  0.37434095468E+02  0.51100000000E-03 0.  1.
         23    2    1    0    0    0 -0.11402745568E+02  0.56464722903E+01 -0.26318334887E+02  0.95767141655E+02  0.91196411189E+02 0.  0.
         11    1    3    3    0    0 -0.46139831633E+02 -0.49958734342E+01 -0.35339799981E+02  0.58333046187E+02  0.51100000000E-03 0. -1.
         22    1    1    0    0    0  0.11402745568E+02 -0.56464722903E+01  0.26318334887E+02  0.29232858345E+02  0.00000000000E+00 0. -1.
</event>
<event>
 5    1  0.1717518E-003  0.9118800E+02  0.7818608E-02  0.1130116E+00
         25   -1    0    0    0    0  0.00000000000E+00  0.00000000000E+00  0.99999998245E-14  0.12500000000E+03  0.12500000000E+03 0.  0.
        -11    1    3    3    0    0  0.48350246760E+02  0.17491179479E+02 -0.30919262748E+02  0.59997404364E+02  0.51100000000E-03 0.  1.
         23    2    1    0    0    0  0.14935880733E+02  0.18306662927E+02 -0.14951411208E+02  0.97040044029E+02  0.92924759925E+02 0.  0.
         11    1    3    3    0    0 -0.33414366027E+02  0.81548344833E+00  0.15967851540E+02  0.37042639664E+02  0.51100000000E-03 0. -1.
         22    1    1    0    0    0 -0.14935880733E+02 -0.18306662927E+02  0.14951411208E+02  0.27959955971E+02  0.00000000000E+00 0.  1.
</event>
<event>
 5    1  0.1717518E-003  0.9118800E+02  0.7818608E-02  0.1130116E+00
         25   -1    0    0    0    0  0.00000000000E+00  0.00000000000E+00  0.99999998245E-14  0.12500000000E+03  0.12500000000E+03 0.  0.
        -11    1    3    3    0    0 -0.27083380168E+02 -0.42161547947E+01  0.17632826973E+02  0.32591441052E+02  0.51100000000E-03 0.  1.
         23    2    1    0    0    0  0.14669349673E+02  0.18126239964E+02 -0.20933436044E+02  0.93663772727E+02  0.88266319634E+02 0.  0.
         11    1    3    3    0    0  0.41752729841E+02  0.22342394759E+02 -0.38566263017E+02  0.61072331674E+02  0.51100000000E-03 0. -1.
         22    1    1    0    0    0 -0.14669349673E+02 -0.18126239964E+02  0.20933436044E+02  0.31336227273E+02  0.00000000000E+00 0. -1.
</event>
<event>
 5    1  0.1717518E-003  0.9118800E+02  0.7818608E-02  0.1130116E+00
         25   -1    0    0    0    0  0.00000000000E+00  0.00000000000E+00  0.99999998245E-14  0.12500000000E+03  0.12500000000E+03 0.  0.
        -11    1    3    3    0    0  0.36045796134E+02  0.50290250803E+02 -0.68221153802E+01  0.62249096405E+02  0.51100000000E-03 0.  1.
         23    2    1    0    0    0  0.19819048775E+02  0.22263045538E+02 -0.84739792165E+00  0.95181281479E+02  0.90389824482E+02 0.  0.
         11    1    3    3    0    0 -0.16226747359E+02 -0.28027205265E+02  0.59747174585E+01  0.32932185074E+02  0.51100000000E-03 0. -1.
         22    1    1    0    0    0 -0.19819048775E+02 -0.22263045538E+02  0.84739792165E+00  0.29818718521E+02  0.00000000000E+00 0.  1.
</event>
<event>
 5    1  0.1717518E-003  0.9118800E+02  0.7818608E-02  0.1130116E+00
         25   -1    0    0    0    0  0.00000000000E+00  0.00000000000E+00  0.99999998245E-14  0.12500000000E+03  0.12500000000E+03 0.  0.
        -11    1    3    3    0    0  0.54098857503E+02 -0.95879176543E+01  0.26129680305E+02  0.60838924556E+02  0.51100000000E-03 0.  1.
         23    2    1    0    0    0  0.19587862906E+02 -0.64450272551E+01  0.20455755417E+02  0.95954162446E+02  0.91452395329E+02 0.  0.
         11    1    3    3    0    0 -0.34510994597E+02  0.31428903992E+01 -0.56739248877E+01  0.35115237890E+02  0.51100000000E-03 0. -1.
         22    1    1    0    0    0 -0.19587862906E+02  0.64450272551E+01 -0.20455755417E+02  0.29045837554E+02  0.00000000000E+00 0.  1.
</event>
<event>
 5    1  0.1717518E-003  0.9118800E+02  0.7818608E-02  0.1130116E+00
         25   -1    0    0    0    0  0.00000000000E+00  0.00000000000E+00  0.99999998245E-14  0.12500000000E+03  0.12500000000E+03 0.  0.
        -11    1    3    3    0    0  0.40732762428E+01  0.42559075635E+02  0.41675875747E+02  0.59705486496E+02  0.51100000000E-03 0. -1.
         23    2    1    0    0    0 -0.93174583871E+01  0.24206323686E+02  0.13954873765E+02  0.95546653178E+02  0.90893692270E+02 0.  0.
         11    1    3    3    0    0 -0.13390734630E+02 -0.18352751949E+02 -0.27721001981E+02  0.35841166682E+02  0.51100000000E-03 0.  1.
         22    1    1    0    0    0  0.93174583871E+01 -0.24206323686E+02 -0.13954873765E+02  0.29453346822E+02  0.00000000000E+00 0. -1.
</event>
<event>
 5    1  0.1717518E-003  0.9118800E+02  0.7818608E-02  0.1130116E+00
         25   -1    0    0    0    0  0.00000000000E+00  0.00000000000E+00  0.99999998245E-14  0.12500000000E+03  0.12500000000E+03 0.  0.
        -11    1    3    3    0    0 -0.50618816222E+02  0.23298353637E+02 -0.34771924337E+01  0.55831610271E+02  0.51100000000E-03 0.  1.
         23    2    1    0    0    0 -0.25413763985E+02 -0.49237038466E+01 -0.14611484550E+02  0.95274628006E+02  0.90518821256E+02 0.  0.
         11    1    3    3    0    0  0.25205052238E+02 -0.28222057483E+02 -0.11134292116E+02  0.39443017735E+02  0.51100000000E-03 0. -1.
         22    1    1    0    0    0  0.25413763985E+02  0.49237038466E+01  0.14611484550E+02  0.29725371994E+02  0.00000000000E+00 0.  1.
</event>
<event>
 5    1  0.1717518E-003  0.9118800E+02  0.7818608E-02  0.1130116E+00
         25   -1    0    0    0    0  0.00000000000E+00  0.00000000000E+00  0.99999998245E-14  0.12500000000E+03  0.12500000000E+03 0.  0.
        -11    1    3    3    0    0  0.37351745362E+02  0.33457099623E+02  0.16387962472E+01  0.50171865125E+02  0.51100000000E-03 0.  1.
         23    2    1    0    0    0  0.83537372289E+01  0.17008070900E+02 -0.25549137258E+02  0.93190916139E+02  0.87594115298E+02 0.  0.
         11    1    3    3    0    0 -0.28998008133E+02 -0.16449028723E+02 -0.27187933505E+02  0.43019051014E+02  0.51100000000E-03 0. -1.
         22    1    1    0    0    0 -0.83537372289E+01 -0.17008070900E+02  0.25549137258E+02  0.31809083861E+02  0.00000000000E+00 0.  1.
</event>
<event>
 5    1  0.1717518E-003  0.9118800E+02  0.7818608E-02  0.1130116E+00
         25   -1    0    0    0    0  0.00000000000E+00  0.00000000000E+00  0.99999998245E-14  0.12500000000E+03  0.12500000000E+03 0.  0.
        -11    1    3    3    0    0  0.54708293617E+01 -0.36520045173E+02  0.32495098003E+02  0.49189176328E+02  0.51100000000E-03 0. -1.
         23    2    1    0    0    0  0.19055062488E+02 -0.18244944640E+02 -0.94998593696E+01  0.96960371982E+02  0.92817525260E+02 0.  0.
         11    1    3    3    0    0  0.13584233127E+02  0.18275100533E+02 -0.41994957373E+02  0.47771195653E+02  0.51100000000E-03 0.  1.
         22    1    1    0    0    0 -0.19055062488E+02  0.18244944640E+02  0.94998593696E+01  0.28039628018E+02  0.00000000000E+00 0. -1.
</event>
<event>
 5    1  0.1717518E-003  0.9118800E+02  0.7818608E-02  0.1130116E+00
         25   -1    0    0    0    0  0.00000000000E+00  0.00000000000E+00  0.99999998245E-14  0.12500000000E+03  0.12500000000E+03 0.  0.
        -11    1    3    3    0    0  0.28277910785E+02  0.43700951914E+02 -0.24030299196E+02  0.57331219386E+02  0.51100000000E-03 0. -1.
         23    2    1    0    0    0  0.14046769454E+02  0.86124559031E+01 -0.24825499826E+02  0.95204168574E+02  0.90421469483E+02 0.  0.
         11    1    3    3    0    0 -0.14231141331E+02 -0.35088496011E+02 -0.79520063001E+00  0.37872949188E+02  0.51100000000E-03 0.  1.
         22    1    1    0    0    0 -0.14046769454E+02 -0.86124559031E+01  0.24825499826E+02  0.29795831426E+02  0.00000000000E+00 0. -1.
</event>
<event>
 4    1  0.1717518E-003  0.9118800E+02  0.7818608E-02  0.1130116E+00
         25   -1    0    0    0    0  0.00000000000E+00  0.00000000000E+00  0.99999998245E-14  0.12500000000E+03  0.12500000000E+03 0.  0.
        -11    1    1    0    0    0 -0.42446790838E+02  0.19501372955E+02  0.38800884267E+02  0.60725136638E+02  0.51100000000E-03 0. -1.
         11    1    1    0    0    0  0.77708552555E+00 -0.14474937450E+01 -0.10798629982E+02  0.10922889261E+02  0.51100000000E-03 0.  1.
         22    1    1    0    0    0  0.41669705313E+02 -0.18053879210E+02 -0.28002254285E+02  0.53351974100E+02  0.00000000000E+00 0. -1.
</event>
<event>
 5    1  0.1717518E-003  0.9118800E+02  0.7818608E-02  0.1130116E+00
         25   -1    0    0    0    0  0.00000000000E+00  0.00000000000E+00  0.99999998245E-14  0.12500000000E+03  0.12500000000E+03 0.  0.
        -11    1    3    3    0    0 -0.24373899300E+01  0.15447361009E+01  0.31890134892E+02  0.32020427589E+02  0.51100000000E-03 0. -1.
         23    2    1    0    0    0  0.36433381534E+02 -0.11986267224E+02 -0.37465262360E+01  0.86463026185E+02  0.77399977689E+02 0.  0.
         11    1    3    3    0    0  0.38870771464E+02 -0.13531003325E+02 -0.35636661128E+02  0.54442598596E+02  0.51100000000E-03 0.  1.
         22    1    1    0    0    0 -0.36433381534E+02  0.11986267224E+02  0.37465262360E+01  0.38536973815E+02  0.00000000000E+00 0.  1.
</event>
<event>
 5    1  0.1717518E-003  0.9118800E+02  0.7818608E-02  0.1130116E+00
         25   -1    0    0    0    0  0.00000000000E+00  0.00000000000E+00  0.99999998245E-14  0.12500000000E+03  0.12500000000E+03 0.  0.
        -11    1    3    3    0    0 -0.37887948798E+02 -0.84738227567E+01  0.44235122066E+02  0.58856166718E+02  0.51100000000E-03 0. -1.
         23    2    1    0    0    0 -0.72972656070E+01 -0.13601578534E+02  0.25790343852E+02  0.94943472257E+02  0.90060357895E+02 0.  0.
         11    1    3    3    0    0  0.30590683191E+02 -0.51277557778E+01 -0.18444778214E+02  0.36087305539E+02  0.51100000000E-03 0.  1.
         22    1    1    0    0    0  0.72972656070E+01  0.13601578534E+02 -0.25790343852E+02  0.30056527743E+02  0.00000000000E+00 0. -1.
</event>
<event>
 5    1  0.1717518E-003  0.9118800E+02  0.7818608E-02  0.1130116E+00
         25   -1    0    0    0    0  0.00000000000E+00  0.00000000000E+00  0.99999998245E-14  0.12500000000E+03  0.12500000000E+03 0.  0.
        -11    1    3    3    0    0  0.10133964543E+02  0.48354439696E+02 -0.29945116655E+02  0.57771611432E+02  0.51100000000E-03 0. -1.
         23    2    1    0    0    0  0.20401559160E+02  0.19048963503E+02 -0.74649158862E+01  0.96106893627E+02  0.91660915371E+02 0.  0.
         11    1    3    3    0    0  0.10267594617E+02 -0.29305476193E+02  0.22480200769E+02  0.38335282195E+02  0.51100000000E-03 0.  1.
         22    1    1    0    0    0 -0.20401559160E+02 -0.19048963503E+02  0.74649158862E+01  0.28893106373E+02  0.00000000000E+00 0. -1.
</event>
<event>
 5    1  0.1717518E-003  0.9118800E+02  0.7818608E-02  0.1130116E+00
         25   -1    0    0    0    0  0.00000000000E+00  0.00000000000E+00  0.99999998245E-14  0.12500000000E+03  0.12500000000E+03 0.  0.
        -11    1    3    3    0    0 -0.31259219901E+02 -0.40816622733E+02 -0.33513533846E+02  0.61370126864E+02  0.51100000000E-03 0.  1.
         23    2    1    0    0    0 -0.20839494875E+02 -0.13500926548E+02 -0.16310738192E+02  0.95291419679E+02  0.90542006383E+02 0.  0.
         11    1    3    3    0    0  0.10419725027E+02  0.27315696185E+02  0.17202795654E+02  0.33921292815E+02  0.51100000000E-03 0. -1.
         22    1    1    0    0    0  0.20839494875E+02  0.13500926548E+02  0.16310738192E+02  0.29708580321E+02  0.00000000000E+00 0.  1.
</event>
<event>
 5    1  0.1717518E-003  0.9118800E+02  0.7818608E-02  0.1130116E+00
         25   -1    0    0    0    0  0.00000000000E+00  0.00000000000E+00  0.99999998245E-14  0.12500000000E+03  0.12500000000E+03 0.  0.
        -11    1    3    3    0    0  0.25271433420E+02  0.49470916833E+02  0.82546525130E+00  0.55558062894E+02  0.51100000000E-03 0. -1.
         23    2    1    0    0    0  0.26658421055E+02  0.80788408241E+01 -0.20211788610E+01  0.97071085839E+02  0.92966507194E+02 0.  0.
         11    1    3    3    0    0  0.13869876348E+01 -0.41392076009E+02 -0.28466441123E+01  0.41513022945E+02  0.51100000000E-03 0.  1.
         22    1    1    0    0    0 -0.26658421055E+02 -0.80788408241E+01  0.20211788610E+01  0.27928914161E+02  0.00000000000E+00 0. -1.
</event>
<event>
 5    1  0.1717518E-003  0.9118800E+02  0.7818608E-02  0.1130116E+00
         25   -1    0    0    0    0  0.00000000000E+00  0.00000000000E+00  0.99999998245E-14  0.12500000000E+03  0.12500000000E+03 0.  0.
        -11    1    3    3    0    0 -0.27764039719E+02 -0.32440447456E+02 -0.45422923016E+02  0.62341530846E+02  0.51100000000E-03 0.  1.
         23    2    1    0    0    0 -0.16888411136E+02 -0.15818328813E+02 -0.21764834209E+02  0.93232942137E+02  0.87654067414E+02 0.  0.
         11    1    3    3    0    0  0.10875628583E+02  0.16622118643E+02  0.23658088807E+02  0.30891411290E+02  0.51100000000E-03 0. -1.
         22    1    1    0    0    0  0.16888411136E+02  0.15818328813E+02  0.21764834209E+02  0.31767057863E+02  0.00000000000E+00 0.  1.
</event>
<event>
 5    1  0.1717518E-003  0.9118800E+02  0.7818608E-02  0.1130116E+00
         25   -1    0    0    0    0  0.00000000000E+00  0.00000000000E+00  0.99999998245E-14  0.12500000000E+03  0.12500000000E+03 0.  0.
        -11    1    3    3    0    0  0.22943096577E+02 -0.76076172660E+01  0.49549898834E+02  0.55131243372E+02  0.51100000000E-03 0.  1.
         23    2    1    0    0    0  0.23440223353E+02  0.11851059754E+02  0.15091527981E+02  0.94707329188E+02  0.89732002635E+02 0.  0.
         11    1    3    3    0    0  0.49712677649E+00  0.19458677020E+02 -0.34458370853E+02  0.39576085816E+02  0.51100000000E-03 0. -1.
         22    1    1    0    0    0 -0.23440223353E+02 -0.11851059754E+02 -0.15091527981E+02  0.30292670812E+02  0.00000000000E+00 0.  1.
</event>
<event>
 5    1  0.1717518E-003  0.9118800E+02  0.7818608E-02  0.1130116E+00
         25   -1    0    0    0    0  0.00000000000E+00  0.00000000000E+00  0.99999998245E-14  0.12500000000E+03  0.12500000000E+03 0.  0.
        -11    1    3    3    0    0 -0.71281887796E+01 -0.15355352945E+02  0.14960294458E+02  0.22592218791E+02  0.51100000000E-03 0.  1.
         23    2    1    0    0    0  0.77176153691E+01  0.19189094207E+02 -0.34532528702E+02  0.84747317331E+02  0.74577673152E+02 0.  0.
         11    1    3    3    0    0  0.14845804149E+02  0.34544447152E+02 -0.49492823160E+02  0.62155098540E+02  0.51100000000E-03 0. -1.
         22    1    1    0    0    0 -0.77176153691E+01 -0.19189094207E+02  0.34532528702E+02  0.40252682669E+02  0.00000000000E+00 0. -1.
</event>
<event>
 5    1  0.1717518E-003  0.9118800E+02  0.7818608E-02  0.1130116E+00
         25   -1    0    0    0    0  0.00000000000E+00  0.00000000000E+00  0.99999998245E-14  0.12500000000E+03  0.12500000000E+03 0.  0.
        -11    1    3    3    0    0  0.29920716848E+02  0.19258138679E+02 -0.33688583909E+02  0.49000468244E+02  0.51100000000E-03 0.  1.
         23    2    1    0    0    0 -0.12050811384E+02  0.96573136225E+01 -0.28784582406E+02  0.92334453232E+02  0.86363263648E+02 0.  0.
         11    1    3    3    0    0 -0.41971528232E+02 -0.96008250567E+01  0.49040015037E+01  0.43333984987E+02  0.51100000000E-03 0. -1.
         22    1    1    0    0    0  0.12050811384E+02 -0.96573136225E+01  0.28784582406E+02  0.32665546768E+02  0.00000000000E+00 0. -1.
</event>
<event>
 5    1  0.1717518E-003  0.9118800E+02  0.7818608E-02  0.1130116E+00
         25   -1    0    0    0    0  0.00000000000E+00  0.00000000000E+00  0.99999998245E-14  0.12500000000E+03  0.12500000000E+03 0.  0.
        -11    1    3    3    0    0 -0.65411253339E+01  0.17127594782E+02 -0.35657368455E+02  0.40094747150E+02  0.51100000000E-03 0.  1.
         23    2    1    0    0    0 -0.48776768207E+01 -0.27556328109E+02 -0.44184281218E+00  0.97011820797E+02  0.92886787000E+02 0.  0.
         11    1    3    3    0    0  0.16634485132E+01 -0.44683922891E+02  0.35215525643E+02  0.56917073646E+02  0.51100000000E-03 0. -1.
         22    1    1    0    0    0  0.48776768207E+01  0.27556328109E+02  0.44184281218E+00  0.27988179203E+02  0.00000000000E+00 0. -1.
</event>
<event>
 5    1  0.1717518E-003  0.9118800E+02  0.7818608E-02  0.1130116E+00
         25   -1    0    0    0    0  0.00000000000E+00  0.00000000000E+00  0.99999998245E-14  0.12500000000E+03  0.12500000000E+03 0.  0.
        -11    1    3    3    0    0  0.20652850989E+02  0.15924747676E+02  0.20054262738E+02  0.32898499916E+02  0.51100000000E-03 0. -1.
         23    2    1    0    0    0 -0.23022320143E+02 -0.15688101463E+02 -0.10918689433E+02  0.95077407679E+02  0.90246063181E+02 0.  0.
         11    1    3    3    0    0 -0.43675171132E+02 -0.31612849140E+02 -0.30972952171E+02  0.62178907763E+02  0.51100000000E-03 0.  1.
         22    1    1    0    0    0  0.23022320143E+02  0.15688101463E+02  0.10918689433E+02  0.29922592321E+02  0.00000000000E+00 0.  1.
</event>
