<event>
 5    1  0.6903325E-004  0.9118800E+02  0.7818608E-02  0.1130116E+00
         25   -1    0    0    0    0  0.00000000000E+00  0.00000000000E+00  0.99999998245E-14  0.12500000000E+03  0.12500000000E+03 0.  0.
        -13    1    3    3    0    0  0.73185723674E+01  0.38578190142E+02 -0.62956097098E+01  0.39767878015E+02  0.10566000000E+00 0.  1.
         23    2    1    0    0    0 -0.10075903601E+01 -0.26292551492E+01  0.29732748585E+02  0.95134224279E+02  0.90324725684E+02 0.  0.
         13    1    3    3    0    0 -0.83261627275E+01 -0.41207445292E+02  0.36028358295E+02  0.55366346264E+02  0.10566000000E+00 0. -1.
         22    1    1    0    0    0  0.10075903601E+01  0.26292551492E+01 -0.29732748585E+02  0.29865775721E+02  0.00000000000E+00 0. -1.
</event>
<event>
 5    1  0.6903325E-004  0.9118800E+02  0.7818608E-02  0.1130116E+00
         25   -1    0    0    0    0  0.00000000000E+00  0.00000000000E+00  0.99999998245E-14  0.12500000000E+03  0.12500000000E+03 0.  0.
        -13    1    3    3    0    0 -0.40615819310E+02 -0.10285486722E+02  0.18010581198E+02  0.45605133642E+02  0.10566000000E+00 0.  1.
         23    2    1    0    0    0  0.46408424820E+01 -0.15484056086E+02  0.28393345395E+02  0.92327756818E+02  0.86353570884E+02 0.  0.
         13    1    3    3    0    0  0.45256661792E+02 -0.51985693637E+01  0.10382764198E+02  0.46722623176E+02  0.10566000000E+00 0. -1.
         22    1    1    0    0    0 -0.46408424820E+01  0.15484056086E+02 -0.28393345395E+02  0.32672243182E+02  0.00000000000E+00 0.  1.
</event>
<event>
 5    1  0.6903325E-004  0.9118800E+02  0.7818608E-02  0.1130116E+00
         25   -1    0    0    0    0  0.00000000000E+00  0.00000000000E+00  0.99999998245E-14  0.12500000000E+03  0.12500000000E+03 0.  0.
        -13    1    3    3    0    0 -0.38018201420E+02  0.39050108867E+01 -0.13114275699E+02  0.40405793401E+02  0.10566000000E+00 0.  1.
         23    2    1    0    0    0  0.20693894181E+02  0.10632865327E+02 -0.10263697119E+02  0.99570911145E+02  0.96269038565E+02 0.  0.
         13    1    3    3    0    0  0.58712095602E+02  0.67278544404E+01  0.28505785796E+01  0.59165117743E+02  0.10566000000E+00 0. -1.
         22    1    1    0    0    0 -0.20693894181E+02 -0.10632865327E+02  0.10263697119E+02  0.25429088855E+02  0.00000000000E+00 0. -1.
</event>
<event>
 5    1  0.6903325E-004  0.9118800E+02  0.7818608E-02  0.1130116E+00
         25   -1    0    0    0    0  0.00000000000E+00  0.00000000000E+00  0.99999998245E-14  0.12500000000E+03  0.12500000000E+03 0.  0.
        -13    1    3    3    0    0  0.41671752446E+02  0.17011936982E-01  0.20922150240E+02  0.46629205184E+02  0.10566000000E+00 0.  1.
         23    2    1    0    0    0 -0.97450343944E+00  0.23768030950E+02  0.17317136628E+02  0.95576333112E+02  0.90934499932E+02 0.  0.
         13    1    3    3    0    0 -0.42646255886E+02  0.23751019013E+02 -0.36050136124E+01  0.48947127928E+02  0.10566000000E+00 0. -1.
         22    1    1    0    0    0  0.97450343944E+00 -0.23768030950E+02 -0.17317136628E+02  0.29423666888E+02  0.00000000000E+00 0.  1.
</event>
<event>
 5    1  0.6903325E-004  0.9118800E+02  0.7818608E-02  0.1130116E+00
         25   -1    0    0    0    0  0.00000000000E+00  0.00000000000E+00  0.99999998245E-14  0.12500000000E+03  0.12500000000E+03 0.  0.
        -13    1    3    3    0    0 -0.13793249175E+02  0.63622281969E+01 -0.59969917041E+02  0.61863832603E+02  0.10566000000E+00 0.  1.
         23    2    1    0    0    0 -0.24713544822E+01  0.79250299098E+01 -0.26314327394E+02  0.97407292300E+02  0.93417466648E+02 0.  0.
         13    1    3    3    0    0  0.11321894693E+02  0.15628017129E+01  0.33655589647E+02  0.35543459696E+02  0.10566000000E+00 0. -1.
         22    1    1    0    0    0  0.24713544822E+01 -0.79250299098E+01  0.26314327394E+02  0.27592707700E+02  0.00000000000E+00 0.  1.
</event>
<event>
 5    1  0.6903325E-004  0.9118800E+02  0.7818608E-02  0.1130116E+00
         25   -1    0    0    0    0  0.00000000000E+00  0.00000000000E+00  0.99999998245E-14  0.12500000000E+03  0.12500000000E+03 0.  0.
        -13    1    3    3    0    0 -0.30038079717E+02 -0.37247608837E+02  0.21496147441E+02  0.52457278961E+02  0.10566000000E+00 0. -1.
         23    2    1    0    0    0 -0.10120832701E+01 -0.28209933009E+02 -0.88553185002E+01  0.95415522674E+02  0.90713178031E+02 0.  0.
         13    1    3    3    0    0  0.29025996447E+02  0.90376758275E+01 -0.30351465941E+02  0.42958243713E+02  0.10566000000E+00 0.  1.
         22    1    1    0    0    0  0.10120832701E+01  0.28209933009E+02  0.88553185002E+01  0.29584477326E+02  0.00000000000E+00 0. -1.
</event>
<event>
 5    1  0.6903325E-004  0.9118800E+02  0.7818608E-02  0.1130116E+00
         25   -1    0    0    0    0  0.00000000000E+00  0.00000000000E+00  0.99999998245E-14  0.12500000000E+03  0.12500000000E+03 0.  0.
        -13    1    3    3    0    0 -0.35108686949E+02  0.92637661333E+01 -0.24330100093E+02  0.43708147946E+02  0.10566000000E+00 0. -1.
         23    2    1    0    0    0  0.19927995626E+02 -0.53013201936E+01 -0.58135704640E+01  0.10357509377E+03  0.10133495666E+03 0.  0.
         13    1    3    3    0    0  0.55036682575E+02 -0.14565086327E+02  0.18516529629E+02  0.59866945823E+02  0.10566000000E+00 0.  1.
         22    1    1    0    0    0 -0.19927995626E+02  0.53013201936E+01  0.58135704640E+01  0.21424906231E+02  0.00000000000E+00 0.  1.
</event>
<event>
 5    1  0.6903325E-004  0.9118800E+02  0.7818608E-02  0.1130116E+00
         25   -1    0    0    0    0  0.00000000000E+00  0.00000000000E+00  0.99999998245E-14  0.12500000000E+03  0.12500000000E+03 0.  0.
        -13    1    3    3    0    0 -0.11270375515E+02 -0.28397914816E+02  0.31903778327E+02  0.44173806330E+02  0.10566000000E+00 0. -1.
         23    2    1    0    0    0 -0.26985584480E+02  0.11804813704E+02  0.47626827050E+01  0.95162799346E+02  0.90364261943E+02 0.  0.
         13    1    3    3    0    0 -0.15715208965E+02  0.40202728519E+02 -0.27141095622E+02  0.50988993016E+02  0.10566000000E+00 0.  1.
         22    1    1    0    0    0  0.26985584480E+02 -0.11804813704E+02 -0.47626827050E+01  0.29837200654E+02  0.00000000000E+00 0.  1.
</event>
<event>
 5    1  0.6903325E-004  0.9118800E+02  0.7818608E-02  0.1130116E+00
         25   -1    0    0    0    0  0.00000000000E+00  0.00000000000E+00  0.99999998245E-14  0.12500000000E+03  0.12500000000E+03 0.  0.
        -13    1    3    3    0    0 -0.20090506383E+02 -0.83661315992E+01 -0.30357357403E+02  0.37352388373E+02  0.10566000000E+00 0. -1.
         23    2    1    0    0    0 -0.75591034288E+01 -0.60775287299E+01  0.27106014767E+02  0.96210897259E+02  0.91802637842E+02 0.  0.
         13    1    3    3    0    0  0.12531402954E+02  0.22886028693E+01  0.57463372170E+02  0.58858508886E+02  0.10566000000E+00 0.  1.
         22    1    1    0    0    0  0.75591034288E+01  0.60775287299E+01 -0.27106014767E+02  0.28789102741E+02  0.00000000000E+00 0.  1.
</event>
<event>
 5    1  0.6903325E-004  0.9118800E+02  0.7818608E-02  0.1130116E+00
         25   -1    0    0    0    0  0.00000000000E+00  0.00000000000E+00  0.99999998245E-14  0.12500000000E+03  0.12500000000E+03 0.  0.
        -13    1    3    3    0    0  0.19741435427E+01 -0.49169000896E+02 -0.33202181954E+02  0.59362310791E+02  0.10566000000E+00 0. -1.
         23    2    1    0    0    0 -0.59164690149E-01 -0.28911126767E+02 -0.27981670789E+01  0.95953718132E+02  0.91451788025E+02 0.  0.
         13    1    3    3    0    0 -0.20333082329E+01  0.20257874129E+02  0.30404014876E+02  0.36591407341E+02  0.10566000000E+00 0.  1.
         22    1    1    0    0    0  0.59164690149E-01  0.28911126767E+02  0.27981670789E+01  0.29046281868E+02  0.00000000000E+00 0. -1.
</event>
<event>
 5    1  0.6903325E-004  0.9118800E+02  0.7818608E-02  0.1130116E+00
         25   -1    0    0    0    0  0.00000000000E+00  0.00000000000E+00  0.99999998245E-14  0.12500000000E+03  0.12500000000E+03 0.  0.
        -13    1    3    3    0    0 -0.12524099831E+02 -0.53705662629E+02 -0.10085860001E+02  0.56061457446E+02  0.10566000000E+00 0. -1.
         23    2    1    0    0    0 -0.10199936324E+02 -0.13939380253E+02 -0.21426278661E+02  0.97478545822E+02  0.93512760923E+02 0.  0.
         13    1    3    3    0    0  0.23241635070E+01  0.39766282377E+02 -0.11340418660E+02  0.41417088375E+02  0.10566000000E+00 0.  1.
         22    1    1    0    0    0  0.10199936324E+02  0.13939380253E+02  0.21426278661E+02  0.27521454178E+02  0.00000000000E+00 0. -1.
</event>
<event>
 5    1  0.6903325E-004  0.9118800E+02  0.7818608E-02  0.1130116E+00
         25   -1    0    0    0    0  0.00000000000E+00  0.00000000000E+00  0.99999998245E-14  0.12500000000E+03  0.12500000000E+03 0.  0.
        -13    1    3    3    0    0  0.38986870965E+02 -0.11886240610E+02 -0.60455685461E+01  0.41204597881E+02  0.10566000000E+00 0. -1.
         23    2    1    0    0    0 -0.12261030863E+02 -0.12945874596E+02 -0.23631492873E+02  0.95396351537E+02  0.90686756940E+02 0.  0.
         13    1    3    3    0    0 -0.51247901827E+02 -0.10596339856E+01 -0.17585924327E+02  0.54191753657E+02  0.10566000000E+00 0.  1.
         22    1    1    0    0    0  0.12261030863E+02  0.12945874596E+02  0.23631492873E+02  0.29603648463E+02  0.00000000000E+00 0.  1.
</event>
<event>
 5    1  0.6903325E-004  0.9118800E+02  0.7818608E-02  0.1130116E+00
         25   -1    0    0    0    0  0.00000000000E+00  0.00000000000E+00  0.99999998245E-14  0.12500000000E+03  0.12500000000E+03 0.  0.
        -13    1    3    3    0    0  0.33759218508E+02 -0.45661225907E+02 -0.20185524919E+02  0.60266897763E+02  0.10566000000E+00 0. -1.
         23    2    1    0    0    0  0.13506466179E+02 -0.26030425467E+02  0.11789430918E+01  0.95650424441E+02  0.91036290074E+02 0.  0.
         13    1    3    3    0    0 -0.20252752329E+02  0.19630800440E+02  0.21364468011E+02  0.35383526679E+02  0.10566000000E+00 0.  1.
         22    1    1    0    0    0 -0.13506466179E+02  0.26030425467E+02 -0.11789430918E+01  0.29349575559E+02  0.00000000000E+00 0. -1.
</event>
<event>
 5    1  0.6903325E-004  0.9118800E+02  0.7818608E-02  0.1130116E+00
         25   -1    0    0    0    0  0.00000000000E+00  0.00000000000E+00  0.99999998245E-14  0.12500000000E+03  0.12500000000E+03 0.  0.
        -13    1    3    3    0    0 -0.30768412354E+02  0.41702334785E+01  0.12286882536E+02  0.33392584394E+02  0.10566000000E+00 0.  1.
         23    2    1    0    0    0  0.29880069515E+02 -0.11123853647E+01  0.38764245539E+01  0.94849002956E+02  0.89929142879E+02 0.  0.
         13    1    3    3    0    0  0.60648481869E+02 -0.52826188433E+01 -0.84104579822E+01  0.61456418561E+02  0.10566000000E+00 0. -1.
         22    1    1    0    0    0 -0.29880069515E+02  0.11123853647E+01 -0.38764245539E+01  0.30150997044E+02  0.00000000000E+00 0. -1.
</event>
<event>
 5    1  0.6903325E-004  0.9118800E+02  0.7818608E-02  0.1130116E+00
         25   -1    0    0    0    0  0.00000000000E+00  0.00000000000E+00  0.99999998245E-14  0.12500000000E+03  0.12500000000E+03 0.  0.
        -13    1    3    3    0    0 -0.12361571881E+02 -0.38134446256E+02 -0.27523574306E+01  0.40182472373E+02  0.10566000000E+00 0.  1.
         23    2    1    0    0    0  0.27332178186E+02  0.33279069833E+00 -0.99222801633E+01  0.95920619716E+02  0.91406536578E+02 0.  0.
         13    1    3    3    0    0  0.39693750067E+02  0.38467236954E+02 -0.71699227327E+01  0.55738147343E+02  0.10566000000E+00 0. -1.
         22    1    1    0    0    0 -0.27332178186E+02 -0.33279069833E+00  0.99222801633E+01  0.29079380284E+02  0.00000000000E+00 0. -1.
</event>
<event>
 5    1  0.6903325E-004  0.9118800E+02  0.7818608E-02  0.1130116E+00
         25   -1    0    0    0    0  0.00000000000E+00  0.00000000000E+00  0.99999998245E-14  0.12500000000E+03  0.12500000000E+03 0.  0.
        -13    1    3    3    0    0 -0.11416143402E+02 -0.34967489689E+01 -0.54300313433E+02  0.55597578963E+02  0.10566000000E+00 0. -1.
         23    2    1    0    0    0 -0.24674564187E+02 -0.44649503039E+01 -0.18348753166E+02  0.93928362743E+02  0.88640231756E+02 0.  0.
         13    1    3    3    0    0 -0.13258420785E+02 -0.96820133509E+00  0.35951560267E+02  0.38330783780E+02  0.10566000000E+00 0.  1.
         22    1    1    0    0    0  0.24674564187E+02  0.44649503039E+01  0.18348753166E+02  0.31071637257E+02  0.00000000000E+00 0. -1.
</event>
<event>
 5    1  0.6903325E-004  0.9118800E+02  0.7818608E-02  0.1130116E+00
         25   -1    0    0    0    0  0.00000000000E+00  0.00000000000E+00  0.99999998245E-14  0.12500000000E+03  0.12500000000E+03 0.  0.
        -13    1    3    3    0    0 -0.11952432942E+02  0.24738699550E+02 -0.44643019673E+02  0.52420170528E+02  0.10566000000E+00 0. -1.
         23    2    1    0    0    0  0.16640000977E+02  0.20358174462E+02 -0.11815336115E+02  0.96173847508E+02  0.91752176416E+02 0.  0.
         13    1    3    3    0    0  0.28592433919E+02 -0.43805250879E+01  0.32827683558E+02  0.43753676980E+02  0.10566000000E+00 0.  1.
         22    1    1    0    0    0 -0.16640000977E+02 -0.20358174462E+02  0.11815336115E+02  0.28826152492E+02  0.00000000000E+00 0.  1.
</event>
<event>
 5    1  0.6903325E-004  0.9118800E+02  0.7818608E-02  0.1130116E+00
         25   -1    0    0    0    0  0.00000000000E+00  0.00000000000E+00  0.99999998245E-14  0.12500000000E+03  0.12500000000E+03 0.  0.
        -13    1    3    3    0    0  0.37679056116E+02  0.24264399928E+02 -0.33372654651E+02  0.55876807498E+02  0.10566000000E+00 0. -1.
         23    2    1    0    0    0  0.23369480011E+02  0.15567733210E+02  0.38162267633E+01  0.96661854331E+02  0.92414628618E+02 0.  0.
         13    1    3    3    0    0 -0.14309576105E+02 -0.86966667184E+01  0.37188881414E+02  0.40785046833E+02  0.10566000000E+00 0.  1.
         22    1    1    0    0    0 -0.23369480011E+02 -0.15567733210E+02 -0.38162267633E+01  0.28338145669E+02  0.00000000000E+00 0. -1.
</event>
<event>
 5    1  0.6903325E-004  0.9118800E+02  0.7818608E-02  0.1130116E+00
         25   -1    0    0    0    0  0.00000000000E+00  0.00000000000E+00  0.99999998245E-14  0.12500000000E+03  0.12500000000E+03 0.  0.
        -13    1    3    3    0    0 -0.20735799656E+02  0.61825891430E+01 -0.37701953533E+02  0.43470061653E+02  0.10566000000E+00 0. -1.
         23    2    1    0    0    0  0.95726680012E+00 -0.26975251339E+02 -0.22912672408E+00  0.98006796344E+02  0.94216235788E+02 0.  0.
         13    1    3    3    0    0  0.21693066456E+02 -0.33157840482E+02  0.37472826809E+02  0.54536734691E+02  0.10566000000E+00 0.  1.
         22    1    1    0    0    0 -0.95726680012E+00  0.26975251339E+02  0.22912672408E+00  0.26993203656E+02  0.00000000000E+00 0.  1.
</event>
<event>
 5    1  0.6903325E-004  0.9118800E+02  0.7818608E-02  0.1130116E+00
         25   -1    0    0    0    0  0.00000000000E+00  0.00000000000E+00  0.99999998245E-14  0.12500000000E+03  0.12500000000E+03 0.  0.
        -13    1    3    3    0    0  0.33625070411E+02 -0.59871205446E+01  0.51820982369E+02  0.62063808699E+02  0.10566000000E+00 0.  1.
         23    2    1    0    0    0  0.14542792334E+02  0.24985281614E+01  0.23478595815E+02  0.97269512928E+02  0.93232924613E+02 0.  0.
         13    1    3    3    0    0 -0.19082278077E+02  0.84856487059E+01 -0.28342386555E+02  0.35205704228E+02  0.10566000000E+00 0. -1.
         22    1    1    0    0    0 -0.14542792334E+02 -0.24985281614E+01 -0.23478595815E+02  0.27730487072E+02  0.00000000000E+00 0.  1.
</event>
<event>
 5    1  0.6903325E-004  0.9118800E+02  0.7818608E-02  0.1130116E+00
         25   -1    0    0    0    0  0.00000000000E+00  0.00000000000E+00  0.99999998245E-14  0.12500000000E+03  0.12500000000E+03 0.  0.
        -13    1    3    3    0    0 -0.16642620986E+02 -0.60088026645E+02  0.97436475822E+00  0.62357905113E+02  0.10566000000E+00 0.  1.
         23    2    1    0    0    0 -0.86804175065E+01 -0.27262640855E+02 -0.23160181201E+01  0.96295206421E+02  0.91917362915E+02 0.  0.
         13    1    3    3    0    0  0.79622034796E+01  0.32825385790E+02 -0.32903828783E+01  0.33937301308E+02  0.10566000000E+00 0. -1.
         22    1    1    0    0    0  0.86804175065E+01  0.27262640855E+02  0.23160181201E+01  0.28704793579E+02  0.00000000000E+00 0.  1.
</event>
<event>
 5    1  0.6903325E-004  0.9118800E+02  0.7818608E-02  0.1130116E+00
         25   -1    0    0    0    0  0.00000000000E+00  0.00000000000E+00  0.99999998245E-14  0.12500000000E+03  0.12500000000E+03 0.  0.
        -13    1    3    3    0    0  0.32352490215E+02  0.29778777369E+02 -0.16719463163E+02  0.47042648918E+02  0.10566000000E+00 0.  1.
         23    2    1    0    0    0 -0.16285872000E+00 -0.54196958544E+01 -0.28172116542E+02  0.96310842177E+02  0.91938623790E+02 0.  0.
         13    1    3    3    0    0 -0.32515348935E+02 -0.35198473224E+02 -0.11452653379E+02  0.49268193260E+02  0.10566000000E+00 0. -1.
         22    1    1    0    0    0  0.16285872000E+00  0.54196958544E+01  0.28172116542E+02  0.28689157823E+02  0.00000000000E+00 0. -1.
</event>
<event>
 5    1  0.6903325E-004  0.9118800E+02  0.7818608E-02  0.1130116E+00
         25   -1    0    0    0    0  0.00000000000E+00  0.00000000000E+00  0.99999998245E-14  0.12500000000E+03  0.12500000000E+03 0.  0.
        -13    1    3    3    0    0 -0.13410564109E+02 -0.17915464587E+02 -0.20273823653E+02  0.30196791065E+02  0.10566000000E+00 0. -1.
         23    2    1    0    0    0  0.30748620177E+01 -0.35129589727E+01  0.35022033597E+02  0.89668165991E+02  0.82413842877E+02 0.  0.
         13    1    3    3    0    0  0.16485426127E+02  0.14402505614E+02  0.55295857250E+02  0.59471374926E+02  0.10566000000E+00 0.  1.
         22    1    1    0    0    0 -0.30748620177E+01  0.35129589727E+01 -0.35022033597E+02  0.35331834009E+02  0.00000000000E+00 0.  1.
</event>
<event>
 5    1  0.6903325E-004  0.9118800E+02  0.7818608E-02  0.1130116E+00
         25   -1    0    0    0    0  0.00000000000E+00  0.00000000000E+00  0.99999998245E-14  0.12500000000E+03  0.12500000000E+03 0.  0.
        -13    1    3    3    0    0  0.43526487469E+02 -0.44357528669E+02  0.68027395760E+00  0.62149975042E+02  0.10566000000E+00 0. -1.
         23    2    1    0    0    0  0.24196394507E+02 -0.19500308680E+02 -0.26323801253E+01  0.93812551068E+02  0.88476763996E+02 0.  0.
         13    1    3    3    0    0 -0.19330092962E+02  0.24857219990E+02 -0.33126540829E+01  0.31662576027E+02  0.10566000000E+00 0.  1.
         22    1    1    0    0    0 -0.24196394507E+02  0.19500308680E+02  0.26323801253E+01  0.31187448932E+02  0.00000000000E+00 0. -1.
</event>
<event>
 5    1  0.6903325E-004  0.9118800E+02  0.7818608E-02  0.1130116E+00
         25   -1    0    0    0    0  0.00000000000E+00  0.00000000000E+00  0.99999998245E-14  0.12500000000E+03  0.12500000000E+03 0.  0.
        -13    1    3    3    0    0 -0.15715908996E+02 -0.41900206127E+02 -0.41498726411E+02  0.61030914518E+02  0.10566000000E+00 0. -1.
         23    2    1    0    0    0  0.10979291444E+01 -0.15372461718E+02 -0.22467989452E+02  0.97754292490E+02  0.93880632308E+02 0.  0.
         13    1    3    3    0    0  0.16813838140E+02  0.26527744409E+02  0.19030736959E+02  0.36723377972E+02  0.10566000000E+00 0.  1.
         22    1    1    0    0    0 -0.10979291444E+01  0.15372461718E+02  0.22467989452E+02  0.27245707510E+02  0.00000000000E+00 0. -1.
</event>
<event>
 5    1  0.6903325E-004  0.9118800E+02  0.7818608E-02  0.1130116E+00
         25   -1    0    0    0    0  0.00000000000E+00  0.00000000000E+00  0.99999998245E-14  0.12500000000E+03  0.12500000000E+03 0.  0.
        -13    1    3    3    0    0 -0.18971311195E+02  0.32018917161E+02 -0.54056762424E+01  0.37607900823E+02  0.10566000000E+00 0.  1.
         23    2    1    0    0    0  0.54371478046E+01 -0.22617606808E+01  0.31117949539E+02  0.93329747062E+02  0.87792008552E+02 0.  0.
         13    1    3    3    0    0  0.24408459000E+02 -0.34280677842E+02  0.36523625781E+02  0.55721846239E+02  0.10566000000E+00 0. -1.
         22    1    1    0    0    0 -0.54371478046E+01  0.22617606808E+01 -0.31117949539E+02  0.31670252938E+02  0.00000000000E+00 0. -1.
</event>
<event>
 5    1  0.6903325E-004  0.9118800E+02  0.7818608E-02  0.1130116E+00
         25   -1    0    0    0    0  0.00000000000E+00  0.00000000000E+00  0.99999998245E-14  0.12500000000E+03  0.12500000000E+03 0.  0.
        -13    1    3    3    0    0 -0.25048924042E+02 -0.72891135533E+01  0.25523848917E+02  0.36497367023E+02  0.10566000000E+00 0.  1.
         23    2    1    0    0    0  0.21912232976E+02  0.17525390233E+02 -0.29920170804E+01  0.96782320737E+02  0.92577428049E+02 0.  0.
         13    1    3    3    0    0  0.46961157018E+02  0.24814503786E+02 -0.28515865998E+02  0.60284953713E+02  0.10566000000E+00 0. -1.
         22    1    1    0    0    0 -0.21912232976E+02 -0.17525390233E+02  0.29920170804E+01  0.28217679263E+02  0.00000000000E+00 0. -1.
</event>
<event>
 5    1  0.6903325E-004  0.9118800E+02  0.7818608E-02  0.1130116E+00
         25   -1    0    0    0    0  0.00000000000E+00  0.00000000000E+00  0.99999998245E-14  0.12500000000E+03  0.12500000000E+03 0.  0.
        -13    1    3    3    0    0  0.97962582717E+01 -0.34680080085E+02 -0.21824690130E+02  0.42130783213E+02  0.10566000000E+00 0. -1.
         23    2    1    0    0    0  0.10858091264E+02  0.20295245005E+02 -0.14971786726E+02  0.97541858885E+02  0.93597354243E+02 0.  0.
         13    1    3    3    0    0  0.10618329924E+01  0.54975325090E+02  0.68529034041E+01  0.55411075672E+02  0.10566000000E+00 0.  1.
         22    1    1    0    0    0 -0.10858091264E+02 -0.20295245005E+02  0.14971786726E+02  0.27458141115E+02  0.00000000000E+00 0.  1.
</event>
<event>
 5    1  0.6903325E-004  0.9118800E+02  0.7818608E-02  0.1130116E+00
         25   -1    0    0    0    0  0.00000000000E+00  0.00000000000E+00  0.99999998245E-14  0.12500000000E+03  0.12500000000E+03 0.  0.
        -13    1    3    3    0    0  0.26247963168E+02 -0.30906814770E+02  0.85428346266E+01  0.41438845992E+02  0.10566000000E+00 0.  1.
         23    2    1    0    0    0 -0.22725300074E+02 -0.90676903073E+01  0.16272618023E+02  0.95615303842E+02  0.90988053944E+02 0.  0.
         13    1    3    3    0    0 -0.48973263241E+02  0.21839124463E+02  0.77297833968E+01  0.54176457850E+02  0.10566000000E+00 0. -1.
         22    1    1    0    0    0  0.22725300074E+02  0.90676903073E+01 -0.16272618023E+02  0.29384696158E+02  0.00000000000E+00 0. -1.
</event>
<event>
 5    1  0.6903325E-004  0.9118800E+02  0.7818608E-02  0.1130116E+00
         25   -1    0    0    0    0  0.00000000000E+00  0.00000000000E+00  0.99999998245E-14  0.12500000000E+03  0.12500000000E+03 0.  0.
        -13    1    3    3    0    0 -0.36430908291E+02 -0.37976103082E+02  0.13357423862E+02  0.54293898557E+02  0.10566000000E+00 0. -1.
         23    2    1    0    0    0 -0.92536530493E+01  0.97346612327E+01  0.77637414595E+01  0.10948647669E+03  0.10838182123E+03 0.  0.
         13    1    3    3    0    0  0.27177255242E+02  0.47710764315E+02 -0.55936824025E+01  0.55192578132E+02  0.10566000000E+00 0.  1.
         22    1    1    0    0    0  0.92536530493E+01 -0.97346612327E+01 -0.77637414595E+01  0.15513523311E+02  0.00000000000E+00 0. -1.
</event>
<event>
 5    1  0.6903325E-004  0.9118800E+02  0.7818608E-02  0.1130116E+00
         25   -1    0    0    0    0  0.00000000000E+00  0.00000000000E+00  0.99999998245E-14  0.12500000000E+03  0.12500000000E+03 0.  0.
        -13    1    3    3    0    0  0.47686071001E+01 -0.35036730811E+02 -0.30305784226E+02  0.46569988632E+02  0.10566000000E+00 0.  1.
         23    2    1    0    0    0  0.18926479984E+02  0.10448649341E+02 -0.20500164833E+02  0.95206667259E+02  0.90424923637E+02 0.  0.
         13    1    3    3    0    0  0.14157872884E+02  0.45485380152E+02  0.98056193936E+01  0.48636678627E+02  0.10566000000E+00 0. -1.
         22    1    1    0    0    0 -0.18926479984E+02 -0.10448649341E+02  0.20500164833E+02  0.29793332741E+02  0.00000000000E+00 0.  1.
</event>
<event>
 5    1  0.6903325E-004  0.9118800E+02  0.7818608E-02  0.1130116E+00
         25   -1    0    0    0    0  0.00000000000E+00  0.00000000000E+00  0.99999998245E-14  0.12500000000E+03  0.12500000000E+03 0.  0.
        -13    1    3    3    0    0  0.90341902021E+01 -0.29201479954E+02  0.14321673774E+02  0.33755955442E+02  0.10566000000E+00 0. -1.
         23    2    1    0    0    0 -0.42509413304E+01  0.27980326250E+02 -0.63516358536E+01  0.95994613650E+02  0.91507668600E+02 0.  0.
         13    1    3    3    0    0 -0.13285131533E+02  0.57181806204E+02 -0.20673309628E+02  0.62238658208E+02  0.10566000000E+00 0.  1.
         22    1    1    0    0    0  0.42509413304E+01 -0.27980326250E+02  0.63516358536E+01  0.29005386350E+02  0.00000000000E+00 0.  1.
</event>
<event>
 5    1  0.6903325E-004  0.9118800E+02  0.7818608E-02  0.1130116E+00
         25   -1    0    0    0    0  0.00000000000E+00  0.00000000000E+00  0.99999998245E-14  0.12500000000E+03  0.12500000000E+03 0.  0.
        -13    1    3    3    0    0 -0.22625898338E+01  0.41520263962E+01  0.50315148109E+02  0.50536956074E+02  0.10566000000E+00 0. -1.
         23    2    1    0    0    0  0.19751615105E+01 -0.25055067432E+02  0.19648838819E+02  0.93098048117E+02  0.87461488835E+02 0.  0.
         13    1    3    3    0    0  0.42377513443E+01 -0.29207093828E+02 -0.30666309290E+02  0.42561092043E+02  0.10566000000E+00 0.  1.
         22    1    1    0    0    0 -0.19751615105E+01  0.25055067432E+02 -0.19648838819E+02  0.31901951883E+02  0.00000000000E+00 0.  1.
</event>
<event>
 5    1  0.6903325E-004  0.9118800E+02  0.7818608E-02  0.1130116E+00
         25   -1    0    0    0    0  0.00000000000E+00  0.00000000000E+00  0.99999998245E-14  0.12500000000E+03  0.12500000000E+03 0.  0.
        -13    1    3    3    0    0  0.27941662557E+02 -0.45146413180E+02  0.10051580641E+02  0.54036844531E+02  0.10566000000E+00 0.  1.
         23    2    1    0    0    0  0.48547347913E+01 -0.23230387459E+02 -0.16996547956E+02  0.95809213888E+02  0.91254060030E+02 0.  0.
         13    1    3    3    0    0 -0.23086927766E+02  0.21916025721E+02 -0.27048128597E+02  0.41772369357E+02  0.10566000000E+00 0. -1.
         22    1    1    0    0    0 -0.48547347913E+01  0.23230387459E+02  0.16996547956E+02  0.29190786112E+02  0.00000000000E+00 0.  1.
</event>
<event>
 5    1  0.6903325E-004  0.9118800E+02  0.7818608E-02  0.1130116E+00
         25   -1    0    0    0    0  0.00000000000E+00  0.00000000000E+00  0.99999998245E-14  0.12500000000E+03  0.12500000000E+03 0.  0.
        -13    1    3    3    0    0 -0.30789181673E+02  0.17773491562E+02  0.15863781767E+02  0.38929955644E+02  0.10566000000E+00 0.  1.
         23    2    1    0    0    0  0.25658477660E+02  0.51973207257E+01  0.96665969551E+01  0.97092783814E+02  0.92995677069E+02 0.  0.
         13    1    3    3    0    0  0.56447659334E+02 -0.12576170837E+02 -0.61971848115E+01  0.58162828170E+02  0.10566000000E+00 0. -1.
         22    1    1    0    0    0 -0.25658477660E+02 -0.51973207257E+01 -0.96665969551E+01  0.27907216186E+02  0.00000000000E+00 0. -1.
</event>
<event>
 5    1  0.6903325E-004  0.9118800E+02  0.7818608E-02  0.1130116E+00
         25   -1    0    0    0    0  0.00000000000E+00  0.00000000000E+00  0.99999998245E-14  0.12500000000E+03  0.12500000000E+03 0.  0.
        -13    1    3    3    0    0  0.33182070799E+02 -0.11411417159E+02  0.24373740807E+01  0.35174169791E+02  0.10566000000E+00 0. -1.
         23    2    1    0    0    0 -0.11464687807E+02  0.26009601941E+02 -0.10230183160E+02  0.94790810883E+02  0.89848220464E+02 0.  0.
         13    1    3    3    0    0 -0.44646758606E+02  0.37421019100E+02 -0.12667557240E+02  0.59616641091E+02  0.10566000000E+00 0.  1.
         22    1    1    0    0    0  0.11464687807E+02 -0.26009601941E+02  0.10230183160E+02  0.30209189117E+02  0.00000000000E+00 0.  1.
</event>
<event>
 5    1  0.6903325E-004  0.9118800E+02  0.7818608E-02  0.1130116E+00
         25   -1    0    0    0    0  0.00000000000E+00  0.00000000000E+00  0.99999998245E-14  0.12500000000E+03  0.12500000000E+03 0.  0.
        -13    1    3    3    0    0  0.47698058929E+02 -0.25787189871E+02  0.22096454689E+02  0.58552100397E+02  0.10566000000E+00 0.  1.
         23    2    1    0    0    0  0.27124327483E+02 -0.10493836462E+02 -0.45897658198E+01  0.95556567873E+02  0.90907326263E+02 0.  0.
         13    1    3    3    0    0 -0.20573731446E+02  0.15293353410E+02 -0.26686220508E+02  0.37004467476E+02  0.10566000000E+00 0. -1.
         22    1    1    0    0    0 -0.27124327483E+02  0.10493836462E+02  0.45897658198E+01  0.29443432127E+02  0.00000000000E+00 0.  1.
</event>
<event>
 5    1  0.6903325E-004  0.9118800E+02  0.7818608E-02  0.1130116E+00
         25   -1    0    0    0    0  0.00000000000E+00  0.00000000000E+00  0.99999998245E-14  0.12500000000E+03  0.12500000000E+03 0.  0.
        -13    1    3    3    0    0 -0.46448167706E+01 -0.28695074391E+02 -0.21033609882E+02  0.35880433747E+02  0.10566000000E+00 0.  1.
         23    2    1    0    0    0 -0.15307296614E+02  0.12678766597E+02  0.21188006861E+02  0.95948389256E+02  0.91444504012E+02 0.  0.
         13    1    3    3    0    0 -0.10662479843E+02  0.41373840989E+02  0.42221616744E+02  0.60067955509E+02  0.10566000000E+00 0. -1.
         22    1    1    0    0    0  0.15307296614E+02 -0.12678766597E+02 -0.21188006861E+02  0.29051610744E+02  0.00000000000E+00 0. -1.
</event>
<event>
 5    1  0.6903325E-004  0.9118800E+02  0.7818608E-02  0.1130116E+00
         25   -1    0    0    0    0  0.00000000000E+00  0.00000000000E+00  0.99999998245E-14  0.12500000000E+03  0.12500000000E+03 0.  0.
        -13    1    3    3    0    0  0.23251069356E+02  0.42658387952E+02  0.13577481151E+02  0.50445113216E+02  0.10566000000E+00 0.  1.
         23    2    1    0    0    0  0.25350713739E+02 -0.12839167330E+01  0.16808342647E+02  0.94556158065E+02  0.89521167978E+02 0.  0.
         13    1    3    3    0    0  0.20996443827E+01 -0.43942304686E+02  0.32308614958E+01  0.44111044849E+02  0.10566000000E+00 0. -1.
         22    1    1    0    0    0 -0.25350713739E+02  0.12839167330E+01 -0.16808342647E+02  0.30443841935E+02  0.00000000000E+00 0.  1.
</event>
<event>
 5    1  0.6903325E-004  0.9118800E+02  0.7818608E-02  0.1130116E+00
         25   -1    0    0    0    0  0.00000000000E+00  0.00000000000E+00  0.99999998245E-14  0.12500000000E+03  0.12500000000E+03 0.  0.
        -13    1    3    3    0    0 -0.28994423885E+02  0.10546500003E+02  0.17349665113E+02  0.35396713439E+02  0.10566000000E+00 0. -1.
         23    2    1    0    0    0  0.29124114660E+02  0.41983310615E+01  0.49519839043E+01  0.95161062635E+02  0.90361859536E+02 0.  0.
         13    1    3    3    0    0  0.58118538545E+02 -0.63481689412E+01 -0.12397681209E+02  0.59764349197E+02  0.10566000000E+00 0.  1.
         22    1    1    0    0    0 -0.29124114660E+02 -0.41983310615E+01 -0.49519839043E+01  0.29838937365E+02  0.00000000000E+00 0.  1.
</event>
<event>
 5    1  0.6903325E-004  0.9118800E+02  0.7818608E-02  0.1130116E+00
         25   -1    0    0    0    0  0.00000000000E+00  0.00000000000E+00  0.99999998245E-14  0.12500000000E+03  0.12500000000E+03 0.  0.
        -13    1    3    3    0    0  0.12130635582E+02 -0.13419822655E+02 -0.27191554288E+02  0.32659389896E+02  0.10566000000E+00 0. -1.
         23    2    1    0    0    0 -0.82209026037E+01  0.32171365572E+02  0.40392546388E+01  0.91550103432E+02  0.85220454457E+02 0.  0.
         13    1    3    3    0    0 -0.20351538186E+02  0.45591188228E+02  0.31230808927E+02  0.58890713536E+02  0.10566000000E+00 0.  1.
         22    1    1    0    0    0  0.82209026037E+01 -0.32171365572E+02 -0.40392546388E+01  0.33449896568E+02  0.00000000000E+00 0.  1.
</event>
<event>
 5    1  0.6903325E-004  0.9118800E+02  0.7818608E-02  0.1130116E+00
         25   -1    0    0    0    0  0.00000000000E+00  0.00000000000E+00  0.99999998245E-14  0.12500000000E+03  0.12500000000E+03 0.  0.
        -13    1    3    3    0    0 -0.14922440920E+02  0.23243403057E+02 -0.24390337351E+02  0.36848809327E+02  0.10566000000E+00 0.  1.
         23    2    1    0    0    0 -0.31767170026E+01 -0.76651173219E-01  0.28759103436E+02  0.96065877640E+02  0.91604963894E+02 0.  0.
         13    1    3    3    0    0  0.11745723918E+02 -0.23320054230E+02  0.53149440786E+02  0.59217068313E+02  0.10566000000E+00 0. -1.
         22    1    1    0    0    0  0.31767170026E+01  0.76651173219E-01 -0.28759103436E+02  0.28934122360E+02  0.00000000000E+00 0. -1.
</event>
<event>
 5    1  0.6903325E-004  0.9118800E+02  0.7818608E-02  0.1130116E+00
         25   -1    0    0    0    0  0.00000000000E+00  0.00000000000E+00  0.99999998245E-14  0.12500000000E+03  0.12500000000E+03 0.  0.
        -13    1    3    3    0    0  0.55040590528E+01  0.18679541001E+02 -0.36210488134E+02  0.41114845652E+02  0.10566000000E+00 0. -1.
         23    2    1    0    0    0 -0.22746059366E+02  0.14752821735E+02  0.10567040015E+02  0.95902039581E+02  0.91381124393E+02 0.  0.
         13    1    3    3    0    0 -0.28250118419E+02 -0.39267192656E+01  0.46777528149E+02  0.54787193929E+02  0.10566000000E+00 0.  1.
         22    1    1    0    0    0  0.22746059366E+02 -0.14752821735E+02 -0.10567040015E+02  0.29097960419E+02  0.00000000000E+00 0.  1.
</event>
<event>
 5    1  0.6903325E-004  0.9118800E+02  0.7818608E-02  0.1130116E+00
         25   -1    0    0    0    0  0.00000000000E+00  0.00000000000E+00  0.99999998245E-14  0.12500000000E+03  0.12500000000E+03 0.  0.
        -13    1    3    3    0    0  0.35455620391E+02  0.11886021063E+02 -0.17672403617E+02  0.41360651925E+02  0.10566000000E+00 0. -1.
         23    2    1    0    0    0  0.92537301446E+01 -0.23480084210E+02  0.14512149809E+02  0.95887316026E+02  0.91360981860E+02 0.  0.
         13    1    3    3    0    0 -0.26201890246E+02 -0.35366105273E+02  0.32184553426E+02  0.54526664101E+02  0.10566000000E+00 0.  1.
         22    1    1    0    0    0 -0.92537301446E+01  0.23480084210E+02 -0.14512149809E+02  0.29112683974E+02  0.00000000000E+00 0.  1.
</event>
<event>
 5    1  0.6903325E-004  0.9118800E+02  0.7818608E-02  0.1130116E+00
         25   -1    0    0    0    0  0.00000000000E+00  0.00000000000E+00  0.99999998245E-14  0.12500000000E+03  0.12500000000E+03 0.  0.
        -13    1    3    3    0    0 -0.13497175457E+02  0.25081622911E+02  0.17300365206E+02  0.33325296000E+02  0.10566000000E+00 0.  1.
         23    2    1    0    0    0  0.10020430450E+02 -0.20665328353E+02 -0.18092073746E+02  0.95763243088E+02  0.91191067391E+02 0.  0.
         13    1    3    3    0    0  0.23517605907E+02 -0.45746951264E+02 -0.35392438952E+02  0.62437947088E+02  0.10566000000E+00 0. -1.
         22    1    1    0    0    0 -0.10020430450E+02  0.20665328353E+02  0.18092073746E+02  0.29236756912E+02  0.00000000000E+00 0. -1.
</event>
<event>
 5    1  0.6903325E-004  0.9118800E+02  0.7818608E-02  0.1130116E+00
         25   -1    0    0    0    0  0.00000000000E+00  0.00000000000E+00  0.99999998245E-14  0.12500000000E+03  0.12500000000E+03 0.  0.
        -13    1    3    3    0    0  0.47942436030E+02  0.14741690467E+02 -0.30599727949E+02  0.58754992340E+02  0.10566000000E+00 0. -1.
         23    2    1    0    0    0  0.22136198852E+02 -0.77439426690E+01 -0.18742832614E+02  0.94978778805E+02  0.90109348578E+02 0.  0.
         13    1    3    3    0    0 -0.25806237177E+02 -0.22485633136E+02  0.11856895336E+02  0.36223786465E+02  0.10566000000E+00 0.  1.
         22    1    1    0    0    0 -0.22136198852E+02  0.77439426690E+01  0.18742832614E+02  0.30021221195E+02  0.00000000000E+00 0. -1.
</event>
<event>
 5    1  0.6903325E-004  0.9118800E+02  0.7818608E-02  0.1130116E+00
         25   -1    0    0    0    0  0.00000000000E+00  0.00000000000E+00  0.99999998245E-14  0.12500000000E+03  0.12500000000E+03 0.  0.
        -13    1    3    3    0    0  0.15783286465E+01  0.78818747184E+01  0.32062468432E+02  0.33054925750E+02  0.10566000000E+00 0. -1.
         23    2    1    0    0    0  0.20550612542E-01  0.15713574408E+01 -0.29750112870E+02  0.95208410544E+02  0.90427333456E+02 0.  0.
         13    1    3    3    0    0 -0.15577780340E+01 -0.63105172776E+01 -0.61812581302E+02  0.62153484793E+02  0.10566000000E+00 0.  1.
         22    1    1    0    0    0 -0.20550612542E-01 -0.15713574408E+01  0.29750112870E+02  0.29791589456E+02  0.00000000000E+00 0.  1.
</event>
<event>
 5    1  0.6903325E-004  0.9118800E+02  0.7818608E-02  0.1130116E+00
         25   -1    0    0    0    0  0.00000000000E+00  0.00000000000E+00  0.99999998245E-14  0.12500000000E+03  0.12500000000E+03 0.  0.
        -13    1    3    3    0    0 -0.48350997721E+02  0.25667666369E+02 -0.16073963465E+02  0.57052883739E+02  0.10566000000E+00 0. -1.
         23    2    1    0    0    0 -0.13806570310E+02  0.27862944075E+02 -0.10884607513E+02  0.92053987844E+02  0.85956366611E+02 0.  0.
         13    1    3    3    0    0  0.34544427411E+02  0.21952777059E+01  0.51893559521E+01  0.35001104105E+02  0.10566000000E+00 0.  1.
         22    1    1    0    0    0  0.13806570310E+02 -0.27862944075E+02  0.10884607513E+02  0.32946012156E+02  0.00000000000E+00 0. -1.
</event>
<event>
 5    1  0.6903325E-004  0.9118800E+02  0.7818608E-02  0.1130116E+00
         25   -1    0    0    0    0  0.00000000000E+00  0.00000000000E+00  0.99999998245E-14  0.12500000000E+03  0.12500000000E+03 0.  0.
        -13    1    3    3    0    0  0.19490634173E+02 -0.36920729515E+02 -0.32295442910E+02  0.52782874923E+02  0.10566000000E+00 0. -1.
         23    2    1    0    0    0  0.21299847883E+02  0.46023126181E+01 -0.18001927385E+02  0.96734576054E+02  0.92512939709E+02 0.  0.
         13    1    3    3    0    0  0.18092137100E+01  0.41523042133E+02  0.14293515525E+02  0.43951701131E+02  0.10566000000E+00 0.  1.
         22    1    1    0    0    0 -0.21299847883E+02 -0.46023126181E+01  0.18001927385E+02  0.28265423946E+02  0.00000000000E+00 0.  1.
</event>
<event>
 5    1  0.6903325E-004  0.9118800E+02  0.7818608E-02  0.1130116E+00
         25   -1    0    0    0    0  0.00000000000E+00  0.00000000000E+00  0.99999998245E-14  0.12500000000E+03  0.12500000000E+03 0.  0.
        -13    1    3    3    0    0 -0.21577947098E+02  0.44557735291E+02  0.37161266677E+02  0.61902911727E+02  0.10566000000E+00 0.  1.
         23    2    1    0    0    0 -0.56504103948E+01  0.25537013643E+02  0.18001186281E+02  0.93249269128E+02  0.87677347599E+02 0.  0.
         13    1    3    3    0    0  0.15927536703E+02 -0.19020721649E+02 -0.19160080396E+02  0.31346357401E+02  0.10566000000E+00 0. -1.
         22    1    1    0    0    0  0.56504103948E+01 -0.25537013643E+02 -0.18001186281E+02  0.31750730872E+02  0.00000000000E+00 0.  1.
</event>
<event>
 5    1  0.6903325E-004  0.9118800E+02  0.7818608E-02  0.1130116E+00
         25   -1    0    0    0    0  0.00000000000E+00  0.00000000000E+00  0.99999998245E-14  0.12500000000E+03  0.12500000000E+03 0.  0.
        -13    1    3    3    0    0  0.16079240248E+01 -0.19665455792E+02  0.47693918399E+02  0.51614306035E+02  0.10566000000E+00 0.  1.
         23    2    1    0    0    0 -0.23828619864E+02 -0.69485534968E+01  0.11499701170E+02  0.97644403729E+02  0.93734203642E+02 0.  0.
         13    1    3    3    0    0 -0.25436543889E+02  0.12716902296E+02 -0.36194217228E+02  0.46030097695E+02  0.10566000000E+00 0. -1.
         22    1    1    0    0    0  0.23828619864E+02  0.69485534968E+01 -0.11499701170E+02  0.27355596271E+02  0.00000000000E+00 0.  1.
</event>
<event>
 5    1  0.6903325E-004  0.9118800E+02  0.7818608E-02  0.1130116E+00
         25   -1    0    0    0    0  0.00000000000E+00  0.00000000000E+00  0.99999998245E-14  0.12500000000E+03  0.12500000000E+03 0.  0.
        -13    1    3    3    0    0 -0.18383259565E+02 -0.31993006314E+02  0.17417188717E+02  0.40802773338E+02  0.10566000000E+00 0.  1.
         23    2    1    0    0    0  0.37244236068E+00  0.34146733721E+01 -0.25356252726E+02  0.99412146244E+02  0.96062669966E+02 0.  0.
         13    1    3    3    0    0  0.18755701925E+02  0.35407679686E+02 -0.42773441443E+02  0.58609372906E+02  0.10566000000E+00 0. -1.
         22    1    1    0    0    0 -0.37244236068E+00 -0.34146733721E+01  0.25356252726E+02  0.25587853756E+02  0.00000000000E+00 0. -1.
</event>
<event>
 5    1  0.6903325E-004  0.9118800E+02  0.7818608E-02  0.1130116E+00
         25   -1    0    0    0    0  0.00000000000E+00  0.00000000000E+00  0.99999998245E-14  0.12500000000E+03  0.12500000000E+03 0.  0.
        -13    1    3    3    0    0  0.13024647924E+02  0.49203715220E+02  0.26500504260E+02  0.57384100019E+02  0.10566000000E+00 0. -1.
         23    2    1    0    0    0 -0.23477704299E+01  0.14864764982E+02  0.25939414056E+02  0.95011227676E+02  0.90154350527E+02 0.  0.
         13    1    3    3    0    0 -0.15372418353E+02 -0.34338950238E+02 -0.56109020397E+00  0.37627127657E+02  0.10566000000E+00 0.  1.
         22    1    1    0    0    0  0.23477704299E+01 -0.14864764982E+02 -0.25939414056E+02  0.29988772324E+02  0.00000000000E+00 0. -1.
</event>
<event>
 5    1  0.6903325E-004  0.9118800E+02  0.7818608E-02  0.1130116E+00
         25   -1    0    0    0    0  0.00000000000E+00  0.00000000000E+00  0.99999998245E-14  0.12500000000E+03  0.12500000000E+03 0.  0.
        -13    1    3    3    0    0  0.25391379233E+02  0.16042518079E+02  0.22344226080E+02  0.37434744941E+02  0.10566000000E+00 0.  1.
         23    2    1    0    0    0 -0.69962480684E+01  0.15330830033E+02 -0.25029679380E+02  0.94826059481E+02  0.89897246178E+02 0.  0.
         13    1    3    3    0    0 -0.32387627301E+02 -0.71168804526E+00 -0.47373905460E+02  0.57391314540E+02  0.10566000000E+00 0. -1.
         22    1    1    0    0    0  0.69962480684E+01 -0.15330830033E+02  0.25029679380E+02  0.30173940519E+02  0.00000000000E+00 0. -1.
</event>
<event>
 5    1  0.6903325E-004  0.9118800E+02  0.7818608E-02  0.1130116E+00
         25   -1    0    0    0    0  0.00000000000E+00  0.00000000000E+00  0.99999998245E-14  0.12500000000E+03  0.12500000000E+03 0.  0.
        -13    1    3    3    0    0 -0.24258865476E+02 -0.37015486701E+02 -0.36713727735E+02  0.57502589317E+02  0.10566000000E+00 0. -1.
         23    2    1    0    0    0 -0.23086810857E+02 -0.19793693060E+02 -0.42181636312E+01  0.94298468688E+02  0.89160625682E+02 0.  0.
         13    1    3    3    0    0  0.11720546192E+01  0.17221793641E+02  0.32495564104E+02  0.36795879371E+02  0.10566000000E+00 0.  1.
         22    1    1    0    0    0  0.23086810857E+02  0.19793693060E+02  0.42181636312E+01  0.30701531312E+02  0.00000000000E+00 0. -1.
</event>
<event>
 5    1  0.6903325E-004  0.9118800E+02  0.7818608E-02  0.1130116E+00
         25   -1    0    0    0    0  0.00000000000E+00  0.00000000000E+00  0.99999998245E-14  0.12500000000E+03  0.12500000000E+03 0.  0.
        -13    1    3    3    0    0 -0.11217403534E+02  0.56970153477E+02 -0.54714958802E+01  0.58321325092E+02  0.10566000000E+00 0. -1.
         23    2    1    0    0    0  0.10502691161E+02  0.26684300133E+02 -0.64631724975E+01  0.95603894919E+02  0.90972378938E+02 0.  0.
         13    1    3    3    0    0  0.21720094695E+02 -0.30285853344E+02 -0.99167661730E+00  0.37282569827E+02  0.10566000000E+00 0.  1.
         22    1    1    0    0    0 -0.10502691161E+02 -0.26684300133E+02  0.64631724975E+01  0.29396105081E+02  0.00000000000E+00 0. -1.
</event>
<event>
 5    1  0.6903325E-004  0.9118800E+02  0.7818608E-02  0.1130116E+00
         25   -1    0    0    0    0  0.00000000000E+00  0.00000000000E+00  0.99999998245E-14  0.12500000000E+03  0.12500000000E+03 0.  0.
        -13    1    3    3    0    0 -0.30806687067E+02 -0.79284763077E+01  0.37179513789E+02  0.48930972954E+02  0.10566000000E+00 0. -1.
         23    2    1    0    0    0 -0.64794528445E+01 -0.28263100579E+02  0.25370394838E+01  0.95892909234E+02  0.91368634161E+02 0.  0.
         13    1    3    3    0    0  0.24327234222E+02 -0.20334624272E+02 -0.34642474305E+02  0.46961936280E+02  0.10566000000E+00 0.  1.
         22    1    1    0    0    0  0.64794528445E+01  0.28263100579E+02 -0.25370394838E+01  0.29107090766E+02  0.00000000000E+00 0.  1.
</event>
<event>
 5    1  0.6903325E-004  0.9118800E+02  0.7818608E-02  0.1130116E+00
         25   -1    0    0    0    0  0.00000000000E+00  0.00000000000E+00  0.99999998245E-14  0.12500000000E+03  0.12500000000E+03 0.  0.
        -13    1    3    3    0    0 -0.26945602621E+02 -0.16570522832E+02 -0.16781966970E+02  0.35809123236E+02  0.10566000000E+00 0.  1.
         23    2    1    0    0    0  0.16238666221E+02 -0.20789181901E+01  0.23326639292E+02  0.96501784579E+02  0.92197864101E+02 0.  0.
         13    1    3    3    0    0  0.43184268842E+02  0.14491604642E+02  0.40108606263E+02  0.60692661343E+02  0.10566000000E+00 0. -1.
         22    1    1    0    0    0 -0.16238666221E+02  0.20789181901E+01 -0.23326639292E+02  0.28498215421E+02  0.00000000000E+00 0. -1.
</event>
<event>
 5    1  0.6903325E-004  0.9118800E+02  0.7818608E-02  0.1130116E+00
         25   -1    0    0    0    0  0.00000000000E+00  0.00000000000E+00  0.99999998245E-14  0.12500000000E+03  0.12500000000E+03 0.  0.
        -13    1    3    3    0    0  0.10170324518E+02 -0.50293987342E+01 -0.39179341142E+02  0.40789242317E+02  0.10566000000E+00 0.  1.
         23    2    1    0    0    0 -0.16437675940E+02  0.24356713592E+02 -0.13510572202E+01  0.95584493156E+02  0.90945716166E+02 0.  0.
         13    1    3    3    0    0 -0.26608000457E+02  0.29386112326E+02  0.37828283922E+02  0.54795250839E+02  0.10566000000E+00 0. -1.
         22    1    1    0    0    0  0.16437675940E+02 -0.24356713592E+02  0.13510572202E+01  0.29415506844E+02  0.00000000000E+00 0. -1.
</event>
<event>
 5    1  0.6903325E-004  0.9118800E+02  0.7818608E-02  0.1130116E+00
         25   -1    0    0    0    0  0.00000000000E+00  0.00000000000E+00  0.99999998245E-14  0.12500000000E+03  0.12500000000E+03 0.  0.
        -13    1    3    3    0    0  0.37612050124E+02  0.66218315747E+01 -0.37020544133E+02  0.53188784719E+02  0.10566000000E+00 0.  1.
         23    2    1    0    0    0  0.16660793442E+02 -0.20985471861E+02 -0.14323383872E+02  0.94616922590E+02  0.89605974396E+02 0.  0.
         13    1    3    3    0    0 -0.20951256682E+02 -0.27607303436E+02  0.22697160261E+02  0.41428137871E+02  0.10566000000E+00 0. -1.
         22    1    1    0    0    0 -0.16660793442E+02  0.20985471861E+02  0.14323383872E+02  0.30383077410E+02  0.00000000000E+00 0. -1.
</event>
<event>
 5    1  0.6903325E-004  0.9118800E+02  0.7818608E-02  0.1130116E+00
         25   -1    0    0    0    0  0.00000000000E+00  0.00000000000E+00  0.99999998245E-14  0.12500000000E+03  0.12500000000E+03 0.  0.
        -13    1    3    3    0    0  0.31188107496E+02 -0.36588136757E+02 -0.25531025713E+02  0.54435597163E+02  0.10566000000E+00 0.  1.
         23    2    1    0    0    0  0.29403947929E+02 -0.53872341860E+01  0.49038601281E+00  0.95102593350E+02  0.90280941164E+02 0.  0.
         13    1    3    3    0    0 -0.17841595673E+01  0.31200902571E+02  0.26021411726E+02  0.40666996187E+02  0.10566000000E+00 0. -1.
         22    1    1    0    0    0 -0.29403947929E+02  0.53872341860E+01 -0.49038601281E+00  0.29897406650E+02  0.00000000000E+00 0.  1.
</event>
<event>
 5    1  0.6903325E-004  0.9118800E+02  0.7818608E-02  0.1130116E+00
         25   -1    0    0    0    0  0.00000000000E+00  0.00000000000E+00  0.99999998245E-14  0.12500000000E+03  0.12500000000E+03 0.  0.
        -13    1    3    3    0    0 -0.37572350194E+02  0.26051396883E+02  0.16514127577E+02  0.48611566034E+02  0.10566000000E+00 0.  1.
         23    2    1    0    0    0  0.62151591604E+00  0.33449826579E+01  0.29813503432E+02  0.94992997852E+02  0.90129071132E+02 0.  0.
         13    1    3    3    0    0  0.38193866110E+02 -0.22706414225E+02  0.13299375854E+02  0.46381431818E+02  0.10566000000E+00 0. -1.
         22    1    1    0    0    0 -0.62151591604E+00 -0.33449826579E+01 -0.29813503432E+02  0.30007002148E+02  0.00000000000E+00 0.  1.
</event>
<event>
 5    1  0.6903325E-004  0.9118800E+02  0.7818608E-02  0.1130116E+00
         25   -1    0    0    0    0  0.00000000000E+00  0.00000000000E+00  0.99999998245E-14  0.12500000000E+03  0.12500000000E+03 0.  0.
        -13    1    3    3    0    0  0.54185750421E+02  0.87323320350E+01 -0.29351301351E+02  0.62240334402E+02  0.10566000000E+00 0. -1.
         23    2    1    0    0    0  0.24192608398E+02  0.78953609145E+01 -0.12634182727E+02  0.96588002565E+02  0.92314682696E+02 0.  0.
         13    1    3    3    0    0 -0.29993142023E+02 -0.83697112049E+00  0.16717118624E+02  0.34347668163E+02  0.10566000000E+00 0.  1.
         22    1    1    0    0    0 -0.24192608398E+02 -0.78953609145E+01  0.12634182727E+02  0.28411997435E+02  0.00000000000E+00 0. -1.
</event>
<event>
 5    1  0.6903325E-004  0.9118800E+02  0.7818608E-02  0.1130116E+00
         25   -1    0    0    0    0  0.00000000000E+00  0.00000000000E+00  0.99999998245E-14  0.12500000000E+03  0.12500000000E+03 0.  0.
        -13    1    3    3    0    0  0.14445653649E+02 -0.24405008672E+02 -0.44484243247E+02  0.52755477620E+02  0.10566000000E+00 0. -1.
         23    2    1    0    0    0  0.20657421420E+02 -0.17097977127E+02 -0.79317323338E-01  0.98184404298E+02  0.94451580583E+02 0.  0.
         13    1    3    3    0    0  0.62117677716E+01  0.73070315442E+01  0.44404925924E+02  0.45428926679E+02  0.10566000000E+00 0.  1.
         22    1    1    0    0    0 -0.20657421420E+02  0.17097977127E+02  0.79317323338E-01  0.26815595702E+02  0.00000000000E+00 0. -1.
</event>
<event>
 5    1  0.6903325E-004  0.9118800E+02  0.7818608E-02  0.1130116E+00
         25   -1    0    0    0    0  0.00000000000E+00  0.00000000000E+00  0.99999998245E-14  0.12500000000E+03  0.12500000000E+03 0.  0.
        -13    1    3    3    0    0  0.31091316003E+02  0.21376126040E+02 -0.44869002752E+01  0.37996738457E+02  0.10566000000E+00 0.  1.
         23    2    1    0    0    0  0.72690871009E+01 -0.21284061704E+02  0.21968500472E+02  0.93560122092E+02  0.88119410591E+02 0.  0.
         13    1    3    3    0    0 -0.23822228902E+02 -0.42660187744E+02  0.26455400747E+02  0.55563383635E+02  0.10566000000E+00 0. -1.
         22    1    1    0    0    0 -0.72690871009E+01  0.21284061704E+02 -0.21968500472E+02  0.31439877908E+02  0.00000000000E+00 0. -1.
</event>
<event>
 5    1  0.6903325E-004  0.9118800E+02  0.7818608E-02  0.1130116E+00
         25   -1    0    0    0    0  0.00000000000E+00  0.00000000000E+00  0.99999998245E-14  0.12500000000E+03  0.12500000000E+03 0.  0.
        -13    1    3    3    0    0 -0.16204453900E+02  0.99534335439E+01 -0.42216102628E+02  0.46301896837E+02  0.10566000000E+00 0. -1.
         23    2    1    0    0    0  0.18387451380E+02  0.21321157080E+02 -0.94058512842E+01  0.95315658237E+02  0.90575463340E+02 0.  0.
         13    1    3    3    0    0  0.34591905281E+02  0.11367723536E+02  0.32810251344E+02  0.49013761401E+02  0.10566000000E+00 0.  1.
         22    1    1    0    0    0 -0.18387451380E+02 -0.21321157080E+02  0.94058512842E+01  0.29684341763E+02  0.00000000000E+00 0. -1.
</event>
<event>
 5    1  0.6903325E-004  0.9118800E+02  0.7818608E-02  0.1130116E+00
         25   -1    0    0    0    0  0.00000000000E+00  0.00000000000E+00  0.99999998245E-14  0.12500000000E+03  0.12500000000E+03 0.  0.
        -13    1    3    3    0    0 -0.18872555621E+02  0.25487964230E+02 -0.85505641616E+01  0.32847115365E+02  0.10566000000E+00 0.  1.
         23    2    1    0    0    0  0.88856443403E+01 -0.20724722239E+02  0.20881763544E+02  0.94267007371E+02  0.89116507128E+02 0.  0.
         13    1    3    3    0    0  0.27758199962E+02 -0.46212686469E+02  0.29432327706E+02  0.61419892006E+02  0.10566000000E+00 0. -1.
         22    1    1    0    0    0 -0.88856443403E+01  0.20724722239E+02 -0.20881763544E+02  0.30732992629E+02  0.00000000000E+00 0. -1.
</event>
<event>
 5    1  0.6903325E-004  0.9118800E+02  0.7818608E-02  0.1130116E+00
         25   -1    0    0    0    0  0.00000000000E+00  0.00000000000E+00  0.99999998245E-14  0.12500000000E+03  0.12500000000E+03 0.  0.
        -13    1    3    3    0    0 -0.14241213535E+02 -0.30372885609E+02 -0.36240394241E+01  0.33741208765E+02  0.10566000000E+00 0. -1.
         23    2    1    0    0    0  0.16573546535E+02  0.21376061840E+02  0.11130478151E+02  0.95750965684E+02  0.91174236608E+02 0.  0.
         13    1    3    3    0    0  0.30814760069E+02  0.51748947449E+02  0.14754517575E+02  0.62009756919E+02  0.10566000000E+00 0.  1.
         22    1    1    0    0    0 -0.16573546535E+02 -0.21376061840E+02 -0.11130478151E+02  0.29249034316E+02  0.00000000000E+00 0.  1.
</event>
<event>
 5    1  0.6903325E-004  0.9118800E+02  0.7818608E-02  0.1130116E+00
         25   -1    0    0    0    0  0.00000000000E+00  0.00000000000E+00  0.99999998245E-14  0.12500000000E+03  0.12500000000E+03 0.  0.
        -13    1    3    3    0    0 -0.16991064536E+02 -0.19858577962E+02  0.21076983329E+02  0.33575434220E+02  0.10566000000E+00 0.  1.
         23    2    1    0    0    0 -0.17473630354E+02  0.11776822598E+02 -0.26766535236E+02  0.90934346963E+02  0.84312435268E+02 0.  0.
         13    1    3    3    0    0 -0.48256581765E+00  0.31635400560E+02 -0.47843518566E+02  0.57358912744E+02  0.10566000000E+00 0. -1.
         22    1    1    0    0    0  0.17473630354E+02 -0.11776822598E+02  0.26766535236E+02  0.34065653037E+02  0.00000000000E+00 0. -1.
</event>
<event>
 5    1  0.6903325E-004  0.9118800E+02  0.7818608E-02  0.1130116E+00
         25   -1    0    0    0    0  0.00000000000E+00  0.00000000000E+00  0.99999998245E-14  0.12500000000E+03  0.12500000000E+03 0.  0.
        -13    1    3    3    0    0 -0.43831237836E+02 -0.70751117652E+01  0.79105991515E+01  0.45097930770E+02  0.10566000000E+00 0.  1.
         23    2    1    0    0    0  0.34525009100E+01  0.17582704068E+02  0.18256550811E+02  0.99419286711E+02  0.96071960934E+02 0.  0.
         13    1    3    3    0    0  0.47283738746E+02  0.24657815833E+02  0.10345951659E+02  0.54321355941E+02  0.10566000000E+00 0. -1.
         22    1    1    0    0    0 -0.34525009100E+01 -0.17582704068E+02 -0.18256550811E+02  0.25580713289E+02  0.00000000000E+00 0. -1.
</event>
<event>
 5    1  0.6903325E-004  0.9118800E+02  0.7818608E-02  0.1130116E+00
         25   -1    0    0    0    0  0.00000000000E+00  0.00000000000E+00  0.99999998245E-14  0.12500000000E+03  0.12500000000E+03 0.  0.
        -13    1    3    3    0    0  0.28741983913E+02  0.28976384482E+02 -0.31731518505E+02  0.51697513746E+02  0.10566000000E+00 0.  1.
         23    2    1    0    0    0  0.36129386275E+01  0.37259022641E+02 -0.91950483716E+01  0.86453443627E+02  0.77384500430E+02 0.  0.
         13    1    3    3    0    0 -0.25129045285E+02  0.82826381587E+01  0.22536470133E+02  0.34755929881E+02  0.10566000000E+00 0. -1.
         22    1    1    0    0    0 -0.36129386275E+01 -0.37259022641E+02  0.91950483716E+01  0.38546556373E+02  0.00000000000E+00 0.  1.
</event>
<event>
 5    1  0.6903325E-004  0.9118800E+02  0.7818608E-02  0.1130116E+00
         25   -1    0    0    0    0  0.00000000000E+00  0.00000000000E+00  0.99999998245E-14  0.12500000000E+03  0.12500000000E+03 0.  0.
        -13    1    3    3    0    0 -0.39902436051E+02 -0.80025228886E+01  0.96785990986E+01  0.41832179240E+02  0.10566000000E+00 0. -1.
         23    2    1    0    0    0  0.11796404086E+02 -0.23108147300E+02  0.13357836299E+02  0.95818269215E+02  0.91266463193E+02 0.  0.
         13    1    3    3    0    0  0.51698840137E+02 -0.15105624412E+02  0.36792372002E+01  0.53986089975E+02  0.10566000000E+00 0.  1.
         22    1    1    0    0    0 -0.11796404086E+02  0.23108147300E+02 -0.13357836299E+02  0.29181730785E+02  0.00000000000E+00 0.  1.
</event>
<event>
 5    1  0.6903325E-004  0.9118800E+02  0.7818608E-02  0.1130116E+00
         25   -1    0    0    0    0  0.00000000000E+00  0.00000000000E+00  0.99999998245E-14  0.12500000000E+03  0.12500000000E+03 0.  0.
        -13    1    3    3    0    0  0.10375584989E+02  0.19787674859E+02  0.54782199679E+02  0.59163378926E+02  0.10566000000E+00 0.  1.
         23    2    1    0    0    0  0.57646788321E+01 -0.50944203678E+01  0.27797847744E+02  0.96157236954E+02  0.91729543979E+02 0.  0.
         13    1    3    3    0    0 -0.46109061567E+01 -0.24882095227E+02 -0.26984351935E+02  0.36993858029E+02  0.10566000000E+00 0. -1.
         22    1    1    0    0    0 -0.57646788321E+01  0.50944203678E+01 -0.27797847744E+02  0.28842763046E+02  0.00000000000E+00 0.  1.
</event>
<event>
 5    1  0.6903325E-004  0.9118800E+02  0.7818608E-02  0.1130116E+00
         25   -1    0    0    0    0  0.00000000000E+00  0.00000000000E+00  0.99999998245E-14  0.12500000000E+03  0.12500000000E+03 0.  0.
        -13    1    3    3    0    0 -0.33445554123E+02  0.10011947540E+02  0.27162968135E+02  0.44234400483E+02  0.10566000000E+00 0.  1.
         23    2    1    0    0    0 -0.19731636040E+02 -0.25988498362E+02 -0.16289978016E+01  0.92329016823E+02  0.86355394769E+02 0.  0.
         13    1    3    3    0    0  0.13713918084E+02 -0.36000445902E+02 -0.28791965937E+02  0.48094616340E+02  0.10566000000E+00 0. -1.
         22    1    1    0    0    0  0.19731636040E+02  0.25988498362E+02  0.16289978016E+01  0.32670983177E+02  0.00000000000E+00 0. -1.
</event>
<event>
 5    1  0.6903325E-004  0.9118800E+02  0.7818608E-02  0.1130116E+00
         25   -1    0    0    0    0  0.00000000000E+00  0.00000000000E+00  0.99999998245E-14  0.12500000000E+03  0.12500000000E+03 0.  0.
        -13    1    3    3    0    0  0.16990569279E+02 -0.40401770186E+02 -0.35537318773E+02  0.56426010565E+02  0.10566000000E+00 0.  1.
         23    2    1    0    0    0 -0.10865395223E+02 -0.17189388630E+02 -0.21764895962E+02  0.95213382350E+02  0.90434205848E+02 0.  0.
         13    1    3    3    0    0 -0.27855964502E+02  0.23212381556E+02  0.13772422812E+02  0.38787371785E+02  0.10566000000E+00 0. -1.
         22    1    1    0    0    0  0.10865395223E+02  0.17189388630E+02  0.21764895962E+02  0.29786617650E+02  0.00000000000E+00 0.  1.
</event>
<event>
 5    1  0.6903325E-004  0.9118800E+02  0.7818608E-02  0.1130116E+00
         25   -1    0    0    0    0  0.00000000000E+00  0.00000000000E+00  0.99999998245E-14  0.12500000000E+03  0.12500000000E+03 0.  0.
        -13    1    3    3    0    0  0.13982539075E+02  0.39275463745E+02 -0.55781897410E+01  0.42061868910E+02  0.10566000000E+00 0.  1.
         23    2    1    0    0    0  0.33195383852E+01 -0.70907734097E+00  0.28885608829E+02  0.95915630947E+02  0.91399714096E+02 0.  0.
         13    1    3    3    0    0 -0.10663000690E+02 -0.39984541086E+02  0.34463798570E+02  0.53853762037E+02  0.10566000000E+00 0. -1.
         22    1    1    0    0    0 -0.33195383852E+01  0.70907734097E+00 -0.28885608829E+02  0.29084369053E+02  0.00000000000E+00 0. -1.
</event>
<event>
 5    1  0.6903325E-004  0.9118800E+02  0.7818608E-02  0.1130116E+00
         25   -1    0    0    0    0  0.00000000000E+00  0.00000000000E+00  0.99999998245E-14  0.12500000000E+03  0.12500000000E+03 0.  0.
        -13    1    3    3    0    0 -0.95932286805E+01  0.55484949159E+01  0.33795756403E+02  0.35566559396E+02  0.10566000000E+00 0. -1.
         23    2    1    0    0    0 -0.84502055041E+01  0.76783968753E+01 -0.26622065735E+02  0.96032809324E+02  0.91559829243E+02 0.  0.
         13    1    3    3    0    0  0.11430231764E+01  0.21299019593E+01 -0.60417822139E+02  0.60466249928E+02  0.10566000000E+00 0.  1.
         22    1    1    0    0    0  0.84502055041E+01 -0.76783968753E+01  0.26622065735E+02  0.28967190676E+02  0.00000000000E+00 0.  1.
</event>
<event>
 5    1  0.6903325E-004  0.9118800E+02  0.7818608E-02  0.1130116E+00
         25   -1    0    0    0    0  0.00000000000E+00  0.00000000000E+00  0.99999998245E-14  0.12500000000E+03  0.12500000000E+03 0.  0.
        -13    1    3    3    0    0 -0.65793706113E+01  0.43603925898E+02  0.17669309716E+02  0.47505853757E+02  0.10566000000E+00 0.  1.
         23    2    1    0    0    0  0.26842906817E+02  0.12883597649E+02  0.37367150526E+01  0.94991804883E+02  0.90127416588E+02 0.  0.
         13    1    3    3    0    0  0.33422277429E+02 -0.30720328249E+02 -0.13932594663E+02  0.47485951126E+02  0.10566000000E+00 0. -1.
         22    1    1    0    0    0 -0.26842906817E+02 -0.12883597649E+02 -0.37367150526E+01  0.30008195117E+02  0.00000000000E+00 0.  1.
</event>
<event>
 5    1  0.6903325E-004  0.9118800E+02  0.7818608E-02  0.1130116E+00
         25   -1    0    0    0    0  0.00000000000E+00  0.00000000000E+00  0.99999998245E-14  0.12500000000E+03  0.12500000000E+03 0.  0.
        -13    1    3    3    0    0 -0.37873745228E+01  0.61571847563E+02  0.88295701026E+01  0.62317004825E+02  0.10566000000E+00 0.  1.
         23    2    1    0    0    0 -0.35568745920E+01  0.28017993554E+02  0.11812256674E+01  0.96732445919E+02  0.92510061506E+02 0.  0.
         13    1    3    3    0    0  0.23049993084E+00 -0.33553854009E+02 -0.76483444353E+01  0.34415441094E+02  0.10566000000E+00 0. -1.
         22    1    1    0    0    0  0.35568745920E+01 -0.28017993554E+02 -0.11812256674E+01  0.28267554081E+02  0.00000000000E+00 0.  1.
</event>
<event>
 5    1  0.6903325E-004  0.9118800E+02  0.7818608E-02  0.1130116E+00
         25   -1    0    0    0    0  0.00000000000E+00  0.00000000000E+00  0.99999998245E-14  0.12500000000E+03  0.12500000000E+03 0.  0.
        -13    1    3    3    0    0 -0.60088920932E+01 -0.16701587287E+02 -0.28761973455E+02  0.33798107686E+02  0.10566000000E+00 0. -1.
         23    2    1    0    0    0  0.71758593185E+01  0.70803271984E+01  0.27186478615E+02  0.96004679521E+02  0.91521417604E+02 0.  0.
         13    1    3    3    0    0  0.13184751412E+02  0.23781914486E+02  0.55948452070E+02  0.62206571835E+02  0.10566000000E+00 0.  1.
         22    1    1    0    0    0 -0.71758593185E+01 -0.70803271984E+01 -0.27186478615E+02  0.28995320479E+02  0.00000000000E+00 0.  1.
</event>
<event>
 5    1  0.6903325E-004  0.9118800E+02  0.7818608E-02  0.1130116E+00
         25   -1    0    0    0    0  0.00000000000E+00  0.00000000000E+00  0.99999998245E-14  0.12500000000E+03  0.12500000000E+03 0.  0.
        -13    1    3    3    0    0 -0.12233459669E+02  0.24331369960E+02 -0.25794039489E+02  0.37510221764E+02  0.10566000000E+00 0.  1.
         23    2    1    0    0    0 -0.19734018492E+01  0.82513769991E+01  0.28608564278E+02  0.95159934865E+02  0.90360299448E+02 0.  0.
         13    1    3    3    0    0  0.10260057819E+02 -0.16079992961E+02  0.54402603766E+02  0.57649713101E+02  0.10566000000E+00 0. -1.
         22    1    1    0    0    0  0.19734018492E+01 -0.82513769991E+01 -0.28608564278E+02  0.29840065135E+02  0.00000000000E+00 0. -1.
</event>
<event>
 5    1  0.6903325E-004  0.9118800E+02  0.7818608E-02  0.1130116E+00
         25   -1    0    0    0    0  0.00000000000E+00  0.00000000000E+00  0.99999998245E-14  0.12500000000E+03  0.12500000000E+03 0.  0.
        -13    1    3    3    0    0  0.35390276873E+02 -0.89056041433E+01  0.10336179501E+02  0.37929266444E+02  0.10566000000E+00 0.  1.
         23    2    1    0    0    0 -0.48940206961E+01  0.19468728858E+02 -0.20701277527E+02  0.96163812090E+02  0.91738503490E+02 0.  0.
         13    1    3    3    0    0 -0.40284297569E+02  0.28374333001E+02 -0.31037457028E+02  0.58234545646E+02  0.10566000000E+00 0. -1.
         22    1    1    0    0    0  0.48940206961E+01 -0.19468728858E+02  0.20701277527E+02  0.28836187910E+02  0.00000000000E+00 0. -1.
</event>
<event>
 5    1  0.6903325E-004  0.9118800E+02  0.7818608E-02  0.1130116E+00
         25   -1    0    0    0    0  0.00000000000E+00  0.00000000000E+00  0.99999998245E-14  0.12500000000E+03  0.12500000000E+03 0.  0.
        -13    1    3    3    0    0  0.31377311321E+02  0.49047182126E+02 -0.48469322749E+01  0.58426583477E+02  0.10566000000E+00 0.  1.
         23    2    1    0    0    0  0.27109287459E+02  0.13551666857E+02  0.11154612835E+01  0.94671706361E+02  0.89682364991E+02 0.  0.
         13    1    3    3    0    0 -0.42680238615E+01 -0.35495515270E+02  0.59623935584E+01  0.36245122885E+02  0.10566000000E+00 0. -1.
         22    1    1    0    0    0 -0.27109287459E+02 -0.13551666857E+02 -0.11154612835E+01  0.30328293639E+02  0.00000000000E+00 0.  1.
</event>
<event>
 5    1  0.6903325E-004  0.9118800E+02  0.7818608E-02  0.1130116E+00
         25   -1    0    0    0    0  0.00000000000E+00  0.00000000000E+00  0.99999998245E-14  0.12500000000E+03  0.12500000000E+03 0.  0.
        -13    1    3    3    0    0  0.31512208903E+02  0.41050995709E+02  0.90929135693E+01  0.52544227084E+02  0.10566000000E+00 0.  1.
         23    2    1    0    0    0  0.28413405024E+02  0.66993148371E+01 -0.12507369737E+02  0.93240958735E+02  0.87665498822E+02 0.  0.
         13    1    3    3    0    0 -0.30988038788E+01 -0.34351680872E+02 -0.21600283306E+02  0.40696731652E+02  0.10566000000E+00 0. -1.
         22    1    1    0    0    0 -0.28413405024E+02 -0.66993148371E+01  0.12507369737E+02  0.31759041265E+02  0.00000000000E+00 0. -1.
</event>
<event>
 5    1  0.6903325E-004  0.9118800E+02  0.7818608E-02  0.1130116E+00
         25   -1    0    0    0    0  0.00000000000E+00  0.00000000000E+00  0.99999998245E-14  0.12500000000E+03  0.12500000000E+03 0.  0.
        -13    1    3    3    0    0  0.47730346296E+02 -0.15298361789E+02 -0.24642553249E+02  0.55852416471E+02  0.10566000000E+00 0. -1.
         23    2    1    0    0    0  0.27010320853E+02  0.72213501396E+01  0.27274407577E+01  0.96908288349E+02  0.92747356228E+02 0.  0.
         13    1    3    3    0    0 -0.20720025443E+02  0.22519711929E+02  0.27369994007E+02  0.41055871878E+02  0.10566000000E+00 0.  1.
         22    1    1    0    0    0 -0.27010320853E+02 -0.72213501396E+01 -0.27274407577E+01  0.28091711651E+02  0.00000000000E+00 0. -1.
</event>
<event>
 5    1  0.6903325E-004  0.9118800E+02  0.7818608E-02  0.1130116E+00
         25   -1    0    0    0    0  0.00000000000E+00  0.00000000000E+00  0.99999998245E-14  0.12500000000E+03  0.12500000000E+03 0.  0.
        -13    1    3    3    0    0  0.42912969322E+02  0.34501088051E+02  0.28356097988E+01  0.55135286883E+02  0.10566000000E+00 0.  1.
         23    2    1    0    0    0  0.29807317130E+02  0.39348407730E+02 -0.10589685842E+02  0.74513221616E+02  0.54802421516E+02 0.  0.
         13    1    3    3    0    0 -0.13105652192E+02  0.48473196795E+01 -0.13425295641E+02  0.19377934733E+02  0.10566000000E+00 0. -1.
         22    1    1    0    0    0 -0.29807317130E+02 -0.39348407730E+02  0.10589685842E+02  0.50486778384E+02  0.00000000000E+00 0.  1.
</event>
<event>
 5    1  0.6903325E-004  0.9118800E+02  0.7818608E-02  0.1130116E+00
         25   -1    0    0    0    0  0.00000000000E+00  0.00000000000E+00  0.99999998245E-14  0.12500000000E+03  0.12500000000E+03 0.  0.
        -13    1    3    3    0    0 -0.12707972601E+02 -0.53165136234E+02 -0.15094501918E+02  0.56708724466E+02  0.10566000000E+00 0. -1.
         23    2    1    0    0    0 -0.22129403509E+02 -0.18106288849E+02  0.93250405598E+00  0.96391998333E+02  0.92048897784E+02 0.  0.
         13    1    3    3    0    0 -0.94214309084E+01  0.35058847385E+02  0.16027005974E+02  0.39683273867E+02  0.10566000000E+00 0.  1.
         22    1    1    0    0    0  0.22129403509E+02  0.18106288849E+02 -0.93250405598E+00  0.28608001667E+02  0.00000000000E+00 0. -1.
</event>
<event>
 5    1  0.6903325E-004  0.9118800E+02  0.7818608E-02  0.1130116E+00
         25   -1    0    0    0    0  0.00000000000E+00  0.00000000000E+00  0.99999998245E-14  0.12500000000E+03  0.12500000000E+03 0.  0.
        -13    1    3    3    0    0  0.20581815354E+01  0.55133862868E+02  0.78773463765E+01  0.55731882222E+02  0.10566000000E+00 0.  1.
         23    2    1    0    0    0  0.20803115608E+02  0.22249767145E+02 -0.65298019081E+00  0.94532835049E+02  0.89488595710E+02 0.  0.
         13    1    3    3    0    0  0.18744934073E+02 -0.32884095723E+02 -0.85303265673E+01  0.38800952827E+02  0.10566000000E+00 0. -1.
         22    1    1    0    0    0 -0.20803115608E+02 -0.22249767145E+02  0.65298019081E+00  0.30467164951E+02  0.00000000000E+00 0.  1.
</event>
<event>
 5    1  0.6903325E-004  0.9118800E+02  0.7818608E-02  0.1130116E+00
         25   -1    0    0    0    0  0.00000000000E+00  0.00000000000E+00  0.99999998245E-14  0.12500000000E+03  0.12500000000E+03 0.  0.
        -13    1    3    3    0    0 -0.18172328103E+02  0.42335961660E+01  0.37247418782E+02  0.41659791348E+02  0.10566000000E+00 0. -1.
         23    2    1    0    0    0 -0.20320604893E+02  0.13511959046E+02 -0.16043832185E+02  0.95795470014E+02  0.91235231701E+02 0.  0.
         13    1    3    3    0    0 -0.21482767897E+01  0.92783628801E+01 -0.53291250968E+02  0.54135678666E+02  0.10566000000E+00 0.  1.
         22    1    1    0    0    0  0.20320604893E+02 -0.13511959046E+02  0.16043832185E+02  0.29204529986E+02  0.00000000000E+00 0.  1.
</event>
<event>
 5    1  0.6903325E-004  0.9118800E+02  0.7818608E-02  0.1130116E+00
         25   -1    0    0    0    0  0.00000000000E+00  0.00000000000E+00  0.99999998245E-14  0.12500000000E+03  0.12500000000E+03 0.  0.
        -13    1    3    3    0    0  0.18415060432E+02 -0.22912004527E+02 -0.52329981240E+02  0.60020933871E+02  0.10566000000E+00 0. -1.
         23    2    1    0    0    0  0.44426159863E+01 -0.11119225785E+01 -0.31266509820E+02  0.93399875872E+02  0.87891802621E+02 0.  0.
         13    1    3    3    0    0 -0.13972444446E+02  0.21800081949E+02  0.21063471420E+02  0.33378942000E+02  0.10566000000E+00 0.  1.
         22    1    1    0    0    0 -0.44426159863E+01  0.11119225785E+01  0.31266509820E+02  0.31600124128E+02  0.00000000000E+00 0. -1.
</event>
<event>
 5    1  0.6903325E-004  0.9118800E+02  0.7818608E-02  0.1130116E+00
         25   -1    0    0    0    0  0.00000000000E+00  0.00000000000E+00  0.99999998245E-14  0.12500000000E+03  0.12500000000E+03 0.  0.
        -13    1    3    3    0    0  0.33013093625E+02 -0.25376483136E+02 -0.38374758815E+01  0.41815877752E+02  0.10566000000E+00 0. -1.
         23    2    1    0    0    0 -0.13692547596E+02 -0.28608514179E+02  0.11775588417E+02  0.91168100471E+02  0.84658284401E+02 0.  0.
         13    1    3    3    0    0 -0.46705641220E+02 -0.32320310425E+01  0.15613064298E+02  0.49352222719E+02  0.10566000000E+00 0.  1.
         22    1    1    0    0    0  0.13692547596E+02  0.28608514179E+02 -0.11775588417E+02  0.33831899529E+02  0.00000000000E+00 0.  1.
</event>
<event>
 5    1  0.6903325E-004  0.9118800E+02  0.7818608E-02  0.1130116E+00
         25   -1    0    0    0    0  0.00000000000E+00  0.00000000000E+00  0.99999998245E-14  0.12500000000E+03  0.12500000000E+03 0.  0.
        -13    1    3    3    0    0  0.14057670003E+02 -0.50425525041E+02 -0.84440270543E+01  0.53025130066E+02  0.10566000000E+00 0.  1.
         23    2    1    0    0    0 -0.14308136983E+02 -0.20139638625E+02 -0.16495347376E+02  0.95294372370E+02  0.90546082701E+02 0.  0.
         13    1    3    3    0    0 -0.28365806986E+02  0.30285886417E+02 -0.80513203219E+01  0.42269242304E+02  0.10566000000E+00 0. -1.
         22    1    1    0    0    0  0.14308136983E+02  0.20139638625E+02  0.16495347376E+02  0.29705627630E+02  0.00000000000E+00 0. -1.
</event>
<event>
 5    1  0.6903325E-004  0.9118800E+02  0.7818608E-02  0.1130116E+00
         25   -1    0    0    0    0  0.00000000000E+00  0.00000000000E+00  0.99999998245E-14  0.12500000000E+03  0.12500000000E+03 0.  0.
        -13    1    3    3    0    0  0.92692291601E+01  0.57614744877E+02 -0.61195157105E+01  0.58675694056E+02  0.10566000000E+00 0.  1.
         23    2    1    0    0    0  0.18639101809E+02  0.20264797759E+02 -0.27033234177E+01  0.97334387736E+02  0.93319863555E+02 0.  0.
         13    1    3    3    0    0  0.93698726489E+01 -0.37349947118E+02  0.34161922928E+01  0.38658693680E+02  0.10566000000E+00 0. -1.
         22    1    1    0    0    0 -0.18639101809E+02 -0.20264797759E+02  0.27033234177E+01  0.27665612264E+02  0.00000000000E+00 0.  1.
</event>
<event>
 5    1  0.6903325E-004  0.9118800E+02  0.7818608E-02  0.1130116E+00
         25   -1    0    0    0    0  0.00000000000E+00  0.00000000000E+00  0.99999998245E-14  0.12500000000E+03  0.12500000000E+03 0.  0.
        -13    1    3    3    0    0 -0.13843829518E+01  0.24397052669E+02  0.30793446260E+02  0.39311323963E+02  0.10566000000E+00 0.  1.
         23    2    1    0    0    0 -0.21562294548E+02 -0.19260416379E+02  0.63243537315E+00  0.96081214414E+02  0.91625889374E+02 0.  0.
         13    1    3    3    0    0 -0.20177911597E+02 -0.43657469048E+02 -0.30161010887E+02  0.56769890451E+02  0.10566000000E+00 0. -1.
         22    1    1    0    0    0  0.21562294548E+02  0.19260416379E+02 -0.63243537315E+00  0.28918785586E+02  0.00000000000E+00 0. -1.
</event>
<event>
 5    1  0.6903325E-004  0.9118800E+02  0.7818608E-02  0.1130116E+00
         25   -1    0    0    0    0  0.00000000000E+00  0.00000000000E+00  0.99999998245E-14  0.12500000000E+03  0.12500000000E+03 0.  0.
        -13    1    3    3    0    0 -0.18698300118E+02  0.46079117068E+02 -0.23047141972E+02  0.54809610236E+02  0.10566000000E+00 0.  1.
         23    2    1    0    0    0  0.46733281829E+01  0.86216454904E+01 -0.24108414793E+02  0.98973313098E+02  0.95489938079E+02 0.  0.
         13    1    3    3    0    0  0.23371628301E+02 -0.37457471578E+02 -0.10612728219E+01  0.44163702862E+02  0.10566000000E+00 0. -1.
         22    1    1    0    0    0 -0.46733281829E+01 -0.86216454904E+01  0.24108414793E+02  0.26026686902E+02  0.00000000000E+00 0.  1.
</event>
<event>
 5    1  0.6903325E-004  0.9118800E+02  0.7818608E-02  0.1130116E+00
         25   -1    0    0    0    0  0.00000000000E+00  0.00000000000E+00  0.99999998245E-14  0.12500000000E+03  0.12500000000E+03 0.  0.
        -13    1    3    3    0    0 -0.54672124189E+01  0.50414887016E+02  0.18800007347E+01  0.50745411726E+02  0.10566000000E+00 0. -1.
         23    2    1    0    0    0  0.64558140457E+01  0.14932401027E+02 -0.23822725009E+02  0.96152532828E+02  0.91723133434E+02 0.  0.
         13    1    3    3    0    0  0.11923026465E+02 -0.35482485989E+02 -0.25702725744E+02  0.45407121102E+02  0.10566000000E+00 0.  1.
         22    1    1    0    0    0 -0.64558140457E+01 -0.14932401027E+02  0.23822725009E+02  0.28847467172E+02  0.00000000000E+00 0. -1.
</event>
<event>
 5    1  0.6903325E-004  0.9118800E+02  0.7818608E-02  0.1130116E+00
         25   -1    0    0    0    0  0.00000000000E+00  0.00000000000E+00  0.99999998245E-14  0.12500000000E+03  0.12500000000E+03 0.  0.
        -13    1    3    3    0    0 -0.33492225644E+02 -0.40447598859E+02 -0.20164488656E+02  0.56252601707E+02  0.10566000000E+00 0.  1.
         23    2    1    0    0    0 -0.25795223735E+02 -0.89297732716E+01  0.49198977634E+01  0.97263024458E+02  0.93224224933E+02 0.  0.
         13    1    3    3    0    0  0.76970019084E+01  0.31517825587E+02  0.25084386419E+02  0.41010422751E+02  0.10566000000E+00 0. -1.
         22    1    1    0    0    0  0.25795223735E+02  0.89297732716E+01 -0.49198977634E+01  0.27736975542E+02  0.00000000000E+00 0.  1.
</event>
<event>
 5    1  0.6903325E-004  0.9118800E+02  0.7818608E-02  0.1130116E+00
         25   -1    0    0    0    0  0.00000000000E+00  0.00000000000E+00  0.99999998245E-14  0.12500000000E+03  0.12500000000E+03 0.  0.
        -13    1    3    3    0    0 -0.13091504955E+02 -0.39034229796E+01 -0.34187169463E+02  0.36815729422E+02  0.10566000000E+00 0. -1.
         23    2    1    0    0    0  0.13946733549E+02 -0.21858998086E+02  0.14471048328E+02  0.95305919551E+02  0.90562022326E+02 0.  0.
         13    1    3    3    0    0  0.27038238504E+02 -0.17955575107E+02  0.48658217790E+02  0.58490190129E+02  0.10566000000E+00 0.  1.
         22    1    1    0    0    0 -0.13946733549E+02  0.21858998086E+02 -0.14471048328E+02  0.29694080449E+02  0.00000000000E+00 0.  1.
</event>
<event>
 5    1  0.6903325E-004  0.9118800E+02  0.7818608E-02  0.1130116E+00
         25   -1    0    0    0    0  0.00000000000E+00  0.00000000000E+00  0.99999998245E-14  0.12500000000E+03  0.12500000000E+03 0.  0.
        -13    1    3    3    0    0 -0.14511647471E+02 -0.50416680661E+02  0.77424759370E+01  0.53031940365E+02  0.10566000000E+00 0.  1.
         23    2    1    0    0    0 -0.15509979502E+02 -0.15166830254E+02  0.24670303813E+02  0.92148575460E+02  0.86093808517E+02 0.  0.
         13    1    3    3    0    0 -0.99833203091E+00  0.35249850407E+02  0.16927827876E+02  0.39116635095E+02  0.10566000000E+00 0. -1.
         22    1    1    0    0    0  0.15509979502E+02  0.15166830254E+02 -0.24670303813E+02  0.32851424540E+02  0.00000000000E+00 0.  1.
</event>
<event>
 5    1  0.6903325E-004  0.9118800E+02  0.7818608E-02  0.1130116E+00
         25   -1    0    0    0    0  0.00000000000E+00  0.00000000000E+00  0.99999998245E-14  0.12500000000E+03  0.12500000000E+03 0.  0.
        -13    1    3    3    0    0  0.48892158787E+02 -0.14238879367E+02  0.39678266971E+01  0.51077819934E+02  0.10566000000E+00 0. -1.
         23    2    1    0    0    0  0.17380857670E+02  0.14247934812E+02  0.18413190883E+02  0.95945852994E+02  0.91441037005E+02 0.  0.
         13    1    3    3    0    0 -0.31511301117E+02  0.28486814179E+02  0.14445364186E+02  0.44868033060E+02  0.10566000000E+00 0.  1.
         22    1    1    0    0    0 -0.17380857670E+02 -0.14247934812E+02 -0.18413190883E+02  0.29054147006E+02  0.00000000000E+00 0. -1.
</event>
<event>
 5    1  0.6903325E-004  0.9118800E+02  0.7818608E-02  0.1130116E+00
         25   -1    0    0    0    0  0.00000000000E+00  0.00000000000E+00  0.99999998245E-14  0.12500000000E+03  0.12500000000E+03 0.  0.
        -13    1    3    3    0    0 -0.40663622052E+02  0.73723269740E+01  0.33069323185E+02  0.52928939753E+02  0.10566000000E+00 0. -1.
         23    2    1    0    0    0 -0.15069713780E+02  0.24737000545E+02  0.33171908083E+01  0.95844910835E+02  0.91302944688E+02 0.  0.
         13    1    3    3    0    0  0.25593908272E+02  0.17364673571E+02 -0.29752132377E+02  0.42915971082E+02  0.10566000000E+00 0.  1.
         22    1    1    0    0    0  0.15069713780E+02 -0.24737000545E+02 -0.33171908083E+01  0.29155089165E+02  0.00000000000E+00 0. -1.
</event>
<event>
 5    1  0.6903325E-004  0.9118800E+02  0.7818608E-02  0.1130116E+00
         25   -1    0    0    0    0  0.00000000000E+00  0.00000000000E+00  0.99999998245E-14  0.12500000000E+03  0.12500000000E+03 0.  0.
        -13    1    3    3    0    0  0.17384095208E+02  0.45980219051E+00 -0.59385081209E+02  0.61879053148E+02  0.10566000000E+00 0.  1.
         23    2    1    0    0    0  0.46691511358E+01  0.52888610539E+01 -0.28735948141E+02  0.95410682009E+02  0.90706507497E+02 0.  0.
         13    1    3    3    0    0 -0.12714944072E+02  0.48290588634E+01  0.30649133068E+02  0.33531628862E+02  0.10566000000E+00 0. -1.
         22    1    1    0    0    0 -0.46691511358E+01 -0.52888610539E+01  0.28735948141E+02  0.29589317991E+02  0.00000000000E+00 0.  1.
</event>
<event>
 5    1  0.6903325E-004  0.9118800E+02  0.7818608E-02  0.1130116E+00
         25   -1    0    0    0    0  0.00000000000E+00  0.00000000000E+00  0.99999998245E-14  0.12500000000E+03  0.12500000000E+03 0.  0.
        -13    1    3    3    0    0  0.25212741951E+02  0.66449445439E+01  0.37543483973E+01  0.26342815730E+02  0.10566000000E+00 0.  1.
         23    2    1    0    0    0 -0.77241430586E+01 -0.32361781188E+02 -0.23549487686E+02  0.84238184070E+02  0.73719373421E+02 0.  0.
         13    1    3    3    0    0 -0.32936885009E+02 -0.39006725732E+02 -0.27303836083E+02  0.57895368340E+02  0.10566000000E+00 0. -1.
         22    1    1    0    0    0  0.77241430586E+01  0.32361781188E+02  0.23549487686E+02  0.40761815930E+02  0.00000000000E+00 0. -1.
</event>
<event>
 5    1  0.6903325E-004  0.9118800E+02  0.7818608E-02  0.1130116E+00
         25   -1    0    0    0    0  0.00000000000E+00  0.00000000000E+00  0.99999998245E-14  0.12500000000E+03  0.12500000000E+03 0.  0.
        -13    1    3    3    0    0 -0.43506345828E+02 -0.39491589283E+02 -0.13295617675E+02  0.60242612534E+02  0.10566000000E+00 0.  1.
         23    2    1    0    0    0 -0.27989656661E+02 -0.94604564665E+01 -0.52160020086E+01  0.94997870184E+02  0.90135828315E+02 0.  0.
         13    1    3    3    0    0  0.15516689168E+02  0.30031132817E+02  0.80796156664E+01  0.34755257651E+02  0.10566000000E+00 0. -1.
         22    1    1    0    0    0  0.27989656661E+02  0.94604564665E+01  0.52160020086E+01  0.30002129816E+02  0.00000000000E+00 0.  1.
</event>
<event>
 5    1  0.6903325E-004  0.9118800E+02  0.7818608E-02  0.1130116E+00
         25   -1    0    0    0    0  0.00000000000E+00  0.00000000000E+00  0.99999998245E-14  0.12500000000E+03  0.12500000000E+03 0.  0.
        -13    1    3    3    0    0  0.39421917333E+02  0.42036476380E+02  0.41266359434E+01  0.57777099277E+02  0.10566000000E+00 0.  1.
         23    2    1    0    0    0  0.38897114138E+01  0.27372529635E+02  0.74687875741E+01  0.96361424244E+02  0.92007369602E+02 0.  0.
         13    1    3    3    0    0 -0.35532205919E+02 -0.14663946745E+02  0.33421516307E+01  0.38584324967E+02  0.10566000000E+00 0. -1.
         22    1    1    0    0    0 -0.38897114138E+01 -0.27372529635E+02 -0.74687875741E+01  0.28638575756E+02  0.00000000000E+00 0.  1.
</event>
<event>
 5    1  0.6903325E-004  0.9118800E+02  0.7818608E-02  0.1130116E+00
         25   -1    0    0    0    0  0.00000000000E+00  0.00000000000E+00  0.99999998245E-14  0.12500000000E+03  0.12500000000E+03 0.  0.
        -13    1    3    3    0    0 -0.47801692112E+02 -0.47788290248E+01 -0.24921737455E+02  0.54119711173E+02  0.10566000000E+00 0. -1.
         23    2    1    0    0    0 -0.23628543763E+02 -0.18622314137E+02  0.44354563193E+01  0.94589936914E+02  0.89568321567E+02 0.  0.
         13    1    3    3    0    0  0.24173148349E+02 -0.13843485112E+02  0.29357193774E+02  0.40470225741E+02  0.10566000000E+00 0.  1.
         22    1    1    0    0    0  0.23628543763E+02  0.18622314137E+02 -0.44354563193E+01  0.30410063086E+02  0.00000000000E+00 0. -1.
</event>
<event>
 5    1  0.6903325E-004  0.9118800E+02  0.7818608E-02  0.1130116E+00
         25   -1    0    0    0    0  0.00000000000E+00  0.00000000000E+00  0.99999998245E-14  0.12500000000E+03  0.12500000000E+03 0.  0.
        -13    1    3    3    0    0 -0.47671399703E+02  0.18106839567E+02 -0.93494218278E+01  0.51844409933E+02  0.10566000000E+00 0.  1.
         23    2    1    0    0    0 -0.20888658806E+02  0.60661267914E+01  0.21486376681E+02  0.94425527906E+02  0.89338580559E+02 0.  0.
         13    1    3    3    0    0  0.26782740896E+02 -0.12040712776E+02  0.30835798509E+02  0.42581117973E+02  0.10566000000E+00 0. -1.
         22    1    1    0    0    0  0.20888658806E+02 -0.60661267914E+01 -0.21486376681E+02  0.30574472094E+02  0.00000000000E+00 0.  1.
</event>
<event>
 5    1  0.6903325E-004  0.9118800E+02  0.7818608E-02  0.1130116E+00
         25   -1    0    0    0    0  0.00000000000E+00  0.00000000000E+00  0.99999998245E-14  0.12500000000E+03  0.12500000000E+03 0.  0.
        -13    1    3    3    0    0 -0.20358402263E+02 -0.22047994308E+02 -0.23243153890E+02  0.37958318753E+02  0.10566000000E+00 0.  1.
         23    2    1    0    0    0  0.15606048368E+02 -0.11852034773E+02  0.21265220368E+02  0.96082374385E+02  0.91627471843E+02 0.  0.
         13    1    3    3    0    0  0.35964450631E+02  0.10195959536E+02  0.44508374258E+02  0.58124055632E+02  0.10566000000E+00 0. -1.
         22    1    1    0    0    0 -0.15606048368E+02  0.11852034773E+02 -0.21265220368E+02  0.28917625615E+02  0.00000000000E+00 0. -1.
</event>
<event>
 5    1  0.6903325E-004  0.9118800E+02  0.7818608E-02  0.1130116E+00
         25   -1    0    0    0    0  0.00000000000E+00  0.00000000000E+00  0.99999998245E-14  0.12500000000E+03  0.12500000000E+03 0.  0.
        -13    1    3    3    0    0 -0.28074550438E+02  0.14252307340E+02 -0.15389126679E+02  0.35044900210E+02  0.10566000000E+00 0.  1.
         23    2    1    0    0    0 -0.12189083756E+02 -0.69139629670E+01  0.32414990809E+02  0.89685579774E+02  0.82440250749E+02 0.  0.
         13    1    3    3    0    0  0.15885466682E+02 -0.21166270307E+02  0.47804117488E+02  0.54640679564E+02  0.10566000000E+00 0. -1.
         22    1    1    0    0    0  0.12189083756E+02  0.69139629670E+01 -0.32414990809E+02  0.35314420226E+02  0.00000000000E+00 0. -1.
</event>
<event>
 5    1  0.6903325E-004  0.9118800E+02  0.7818608E-02  0.1130116E+00
         25   -1    0    0    0    0  0.00000000000E+00  0.00000000000E+00  0.99999998245E-14  0.12500000000E+03  0.12500000000E+03 0.  0.
        -13    1    3    3    0    0  0.18871203353E+01 -0.27099646421E+02 -0.20251770104E+02  0.33883586228E+02  0.10566000000E+00 0.  1.
         23    2    1    0    0    0 -0.51603827347E+01  0.19990687988E+02  0.20017026539E+02  0.96243461480E+02  0.91846967124E+02 0.  0.
         13    1    3    3    0    0 -0.70475030700E+01  0.47090334409E+02  0.40268796643E+02  0.62359875252E+02  0.10566000000E+00 0. -1.
         22    1    1    0    0    0  0.51603827347E+01 -0.19990687988E+02 -0.20017026539E+02  0.28756538520E+02  0.00000000000E+00 0. -1.
</event>
<event>
 5    1  0.6903325E-004  0.9118800E+02  0.7818608E-02  0.1130116E+00
         25   -1    0    0    0    0  0.00000000000E+00  0.00000000000E+00  0.99999998245E-14  0.12500000000E+03  0.12500000000E+03 0.  0.
        -13    1    3    3    0    0 -0.13084990869E+02 -0.19365236837E+02  0.36017888107E+02  0.42936334398E+02  0.10566000000E+00 0. -1.
         23    2    1    0    0    0 -0.36114332289E+01 -0.24794301995E+02 -0.15459166292E+02  0.95558775775E+02  0.90910362136E+02 0.  0.
         13    1    3    3    0    0  0.94735576398E+01 -0.54290651588E+01 -0.51477054399E+02  0.52622441378E+02  0.10566000000E+00 0.  1.
         22    1    1    0    0    0  0.36114332289E+01  0.24794301995E+02  0.15459166292E+02  0.29441224225E+02  0.00000000000E+00 0.  1.
</event>
<event>
 5    1  0.6903325E-004  0.9118800E+02  0.7818608E-02  0.1130116E+00
         25   -1    0    0    0    0  0.00000000000E+00  0.00000000000E+00  0.99999998245E-14  0.12500000000E+03  0.12500000000E+03 0.  0.
        -13    1    3    3    0    0 -0.51871613674E+02  0.43313437899E+01 -0.10172211436E+02  0.53036872963E+02  0.10566000000E+00 0. -1.
         23    2    1    0    0    0 -0.15280542449E+02  0.21998512826E+02  0.72557432273E+01  0.97249768400E+02  0.93206448811E+02 0.  0.
         13    1    3    3    0    0  0.36591071225E+02  0.17667169036E+02  0.17427954663E+02  0.44212895437E+02  0.10566000000E+00 0.  1.
         22    1    1    0    0    0  0.15280542449E+02 -0.21998512826E+02 -0.72557432273E+01  0.27750231600E+02  0.00000000000E+00 0. -1.
</event>
<event>
 5    1  0.6903325E-004  0.9118800E+02  0.7818608E-02  0.1130116E+00
         25   -1    0    0    0    0  0.00000000000E+00  0.00000000000E+00  0.99999998245E-14  0.12500000000E+03  0.12500000000E+03 0.  0.
        -13    1    3    3    0    0 -0.38763271201E+02  0.86795365673E+01  0.15645213206E+02  0.42693200975E+02  0.10566000000E+00 0.  1.
         23    2    1    0    0    0 -0.10441539129E+01 -0.25852745509E+02  0.17327401942E+02  0.93860096888E+02  0.88543911265E+02 0.  0.
         13    1    3    3    0    0  0.37719117288E+02 -0.34532282076E+02  0.16821887366E+01  0.51166895913E+02  0.10566000000E+00 0. -1.
         22    1    1    0    0    0  0.10441539129E+01  0.25852745509E+02 -0.17327401942E+02  0.31139903112E+02  0.00000000000E+00 0. -1.
</event>
<event>
 5    1  0.6903325E-004  0.9118800E+02  0.7818608E-02  0.1130116E+00
         25   -1    0    0    0    0  0.00000000000E+00  0.00000000000E+00  0.99999998245E-14  0.12500000000E+03  0.12500000000E+03 0.  0.
        -13    1    3    3    0    0  0.52584982000E+01 -0.99237593836E+00  0.32706767883E+02  0.33141823165E+02  0.10566000000E+00 0. -1.
         23    2    1    0    0    0 -0.33944076003E+01 -0.26785696347E+01 -0.29103176930E+02  0.95577361681E+02  0.90935913808E+02 0.  0.
         13    1    3    3    0    0 -0.86529058003E+01 -0.16861936964E+01 -0.61809944813E+02  0.62435538516E+02  0.10566000000E+00 0.  1.
         22    1    1    0    0    0  0.33944076003E+01  0.26785696347E+01  0.29103176930E+02  0.29422638319E+02  0.00000000000E+00 0.  1.
</event>
<event>
 5    1  0.6903325E-004  0.9118800E+02  0.7818608E-02  0.1130116E+00
         25   -1    0    0    0    0  0.00000000000E+00  0.00000000000E+00  0.99999998245E-14  0.12500000000E+03  0.12500000000E+03 0.  0.
        -13    1    3    3    0    0 -0.27977139525E+01  0.89953311471E+01  0.59104812958E+02  0.59850925345E+02  0.10566000000E+00 0.  1.
         23    2    1    0    0    0 -0.79298961004E+01  0.13535683818E+02  0.19850304723E+02  0.99699158390E+02  0.96435416717E+02 0.  0.
         13    1    3    3    0    0 -0.51321821479E+01  0.45403526711E+01 -0.39254508235E+02  0.39848233045E+02  0.10566000000E+00 0. -1.
         22    1    1    0    0    0  0.79298961004E+01 -0.13535683818E+02 -0.19850304723E+02  0.25300841610E+02  0.00000000000E+00 0.  1.
</event>
<event>
 5    1  0.6903325E-004  0.9118800E+02  0.7818608E-02  0.1130116E+00
         25   -1    0    0    0    0  0.00000000000E+00  0.00000000000E+00  0.99999998245E-14  0.12500000000E+03  0.12500000000E+03 0.  0.
        -13    1    3    3    0    0  0.38541450183E+02 -0.20422562892E+02  0.18699675963E+01  0.43658130974E+02  0.10566000000E+00 0. -1.
         23    2    1    0    0    0 -0.17714850386E+01 -0.11388409842E+02 -0.28054569026E+02  0.94670264076E+02  0.89680354700E+02 0.  0.
         13    1    3    3    0    0 -0.40312935222E+02  0.90341530493E+01 -0.29924536622E+02  0.51012133102E+02  0.10566000000E+00 0.  1.
         22    1    1    0    0    0  0.17714850386E+01  0.11388409842E+02  0.28054569026E+02  0.30329735924E+02  0.00000000000E+00 0.  1.
</event>
<event>
 5    1  0.6903325E-004  0.9118800E+02  0.7818608E-02  0.1130116E+00
         25   -1    0    0    0    0  0.00000000000E+00  0.00000000000E+00  0.99999998245E-14  0.12500000000E+03  0.12500000000E+03 0.  0.
        -13    1    3    3    0    0  0.21023534346E+02  0.25924885422E+02  0.99755150774E+01  0.34836916420E+02  0.10566000000E+00 0. -1.
         23    2    1    0    0    0 -0.58821597382E+01 -0.16946093677E+02 -0.23437577302E+02  0.95485767435E+02  0.90809921588E+02 0.  0.
         13    1    3    3    0    0 -0.26905694085E+02 -0.42870979099E+02 -0.33413092380E+02  0.60648851015E+02  0.10566000000E+00 0.  1.
         22    1    1    0    0    0  0.58821597382E+01  0.16946093677E+02  0.23437577302E+02  0.29514232565E+02  0.00000000000E+00 0. -1.
</event>
<event>
 5    1  0.6903325E-004  0.9118800E+02  0.7818608E-02  0.1130116E+00
         25   -1    0    0    0    0  0.00000000000E+00  0.00000000000E+00  0.99999998245E-14  0.12500000000E+03  0.12500000000E+03 0.  0.
        -13    1    3    3    0    0 -0.42431373426E+02  0.26323750960E+02  0.54548335826E+01  0.50230744459E+02  0.10566000000E+00 0.  1.
         23    2    1    0    0    0  0.69919587034E+00  0.20336924525E+02  0.20320300399E+02  0.96242496939E+02  0.91845654414E+02 0.  0.
         13    1    3    3    0    0  0.43130569297E+02 -0.59868264343E+01  0.14865466816E+02  0.46011752480E+02  0.10566000000E+00 0. -1.
         22    1    1    0    0    0 -0.69919587034E+00 -0.20336924525E+02 -0.20320300399E+02  0.28757503061E+02  0.00000000000E+00 0.  1.
</event>
<event>
 5    1  0.6903325E-004  0.9118800E+02  0.7818608E-02  0.1130116E+00
         25   -1    0    0    0    0  0.00000000000E+00  0.00000000000E+00  0.99999998245E-14  0.12500000000E+03  0.12500000000E+03 0.  0.
        -13    1    3    3    0    0 -0.19953971935E+02 -0.11979860661E+02  0.32733567777E+02  0.40164358341E+02  0.10566000000E+00 0.  1.
         23    2    1    0    0    0  0.19025232456E+02  0.15511860011E+02 -0.36858920640E+01  0.10017736776E+03  0.97053294329E+02 0.  0.
         13    1    3    3    0    0  0.38979204391E+02  0.27491720672E+02 -0.36419459841E+02  0.60013009420E+02  0.10566000000E+00 0. -1.
         22    1    1    0    0    0 -0.19025232456E+02 -0.15511860011E+02  0.36858920640E+01  0.24822632240E+02  0.00000000000E+00 0. -1.
</event>
<event>
 5    1  0.6903325E-004  0.9118800E+02  0.7818608E-02  0.1130116E+00
         25   -1    0    0    0    0  0.00000000000E+00  0.00000000000E+00  0.99999998245E-14  0.12500000000E+03  0.12500000000E+03 0.  0.
        -13    1    3    3    0    0  0.20789988590E+02 -0.24701848957E+02 -0.91412469702E+01  0.33555603521E+02  0.10566000000E+00 0. -1.
         23    2    1    0    0    0 -0.98190348584E+01  0.10922377252E+01  0.32330412081E+02  0.91193758356E+02  0.84696160414E+02 0.  0.
         13    1    3    3    0    0 -0.30609023448E+02  0.25794086683E+02  0.41471659051E+02  0.57638154834E+02  0.10566000000E+00 0.  1.
         22    1    1    0    0    0  0.98190348584E+01 -0.10922377252E+01 -0.32330412081E+02  0.33806241644E+02  0.00000000000E+00 0.  1.
</event>
<event>
 5    1  0.6903325E-004  0.9118800E+02  0.7818608E-02  0.1130116E+00
         25   -1    0    0    0    0  0.00000000000E+00  0.00000000000E+00  0.99999998245E-14  0.12500000000E+03  0.12500000000E+03 0.  0.
        -13    1    3    3    0    0  0.12631399070E+02  0.34128702584E+02  0.46022950281E+01  0.36681233160E+02  0.10566000000E+00 0.  1.
         23    2    1    0    0    0 -0.66056722024E+00 -0.14086010351E+02 -0.26076845445E+02  0.95354529773E+02  0.90629092697E+02 0.  0.
         13    1    3    3    0    0 -0.13291966290E+02 -0.48214712935E+02 -0.30679140473E+02  0.58673296613E+02  0.10566000000E+00 0. -1.
         22    1    1    0    0    0  0.66056722024E+00  0.14086010351E+02  0.26076845445E+02  0.29645470227E+02  0.00000000000E+00 0. -1.
</event>
<event>
 5    1  0.6903325E-004  0.9118800E+02  0.7818608E-02  0.1130116E+00
         25   -1    0    0    0    0  0.00000000000E+00  0.00000000000E+00  0.99999998245E-14  0.12500000000E+03  0.12500000000E+03 0.  0.
        -13    1    3    3    0    0  0.11640340487E+02 -0.40733556594E+02  0.12546540008E+01  0.42382844172E+02  0.10566000000E+00 0.  1.
         23    2    1    0    0    0 -0.17360101355E+01 -0.17616270584E+01 -0.30497997852E+02  0.94401880220E+02  0.89305487262E+02 0.  0.
         13    1    3    3    0    0 -0.13376350622E+02  0.38971929535E+02 -0.31752651853E+02  0.52019036048E+02  0.10566000000E+00 0. -1.
         22    1    1    0    0    0  0.17360101355E+01  0.17616270584E+01  0.30497997852E+02  0.30598119780E+02  0.00000000000E+00 0. -1.
</event>
<event>
 5    1  0.6903325E-004  0.9118800E+02  0.7818608E-02  0.1130116E+00
         25   -1    0    0    0    0  0.00000000000E+00  0.00000000000E+00  0.99999998245E-14  0.12500000000E+03  0.12500000000E+03 0.  0.
        -13    1    3    3    0    0 -0.17002549112E+01 -0.59183325903E+02 -0.90885128184E+01  0.59901328541E+02  0.10566000000E+00 0. -1.
         23    2    1    0    0    0 -0.45071372798E+01 -0.26125707925E+02  0.81163256966E+01  0.97273809424E+02  0.93238684869E+02 0.  0.
         13    1    3    3    0    0 -0.28068823686E+01  0.33057617978E+02  0.17204838515E+02  0.37372480883E+02  0.10566000000E+00 0.  1.
         22    1    1    0    0    0  0.45071372798E+01  0.26125707925E+02 -0.81163256966E+01  0.27726190576E+02  0.00000000000E+00 0. -1.
</event>
<event>
 5    1  0.6903325E-004  0.9118800E+02  0.7818608E-02  0.1130116E+00
         25   -1    0    0    0    0  0.00000000000E+00  0.00000000000E+00  0.99999998245E-14  0.12500000000E+03  0.12500000000E+03 0.  0.
        -13    1    3    3    0    0  0.41486426122E+01  0.19451876244E+02  0.53214308543E+02  0.56809862900E+02  0.10566000000E+00 0. -1.
         23    2    1    0    0    0  0.80913205059E+01  0.23986365389E+02  0.14830487592E+02  0.95661313009E+02  0.91051239707E+02 0.  0.
         13    1    3    3    0    0  0.39426778938E+01  0.45344891455E+01 -0.38383820951E+02  0.38851450109E+02  0.10566000000E+00 0.  1.
         22    1    1    0    0    0 -0.80913205059E+01 -0.23986365389E+02 -0.14830487592E+02  0.29338686991E+02  0.00000000000E+00 0. -1.
</event>
<event>
 5    1  0.6903325E-004  0.9118800E+02  0.7818608E-02  0.1130116E+00
         25   -1    0    0    0    0  0.00000000000E+00  0.00000000000E+00  0.99999998245E-14  0.12500000000E+03  0.12500000000E+03 0.  0.
        -13    1    3    3    0    0 -0.14714582145E+02  0.38106622264E+02 -0.33880514152E+02  0.53071027795E+02  0.10566000000E+00 0. -1.
         23    2    1    0    0    0  0.13620281968E+02  0.59802128986E+01 -0.23565791804E+02  0.97132069137E+02  0.93048467394E+02 0.  0.
         13    1    3    3    0    0  0.28334864113E+02 -0.32126409365E+02  0.10314722347E+02  0.44061041342E+02  0.10566000000E+00 0.  1.
         22    1    1    0    0    0 -0.13620281968E+02 -0.59802128986E+01  0.23565791804E+02  0.27867930863E+02  0.00000000000E+00 0.  1.
</event>
<event>
 5    1  0.6903325E-004  0.9118800E+02  0.7818608E-02  0.1130116E+00
         25   -1    0    0    0    0  0.00000000000E+00  0.00000000000E+00  0.99999998245E-14  0.12500000000E+03  0.12500000000E+03 0.  0.
        -13    1    3    3    0    0  0.22846694755E+02 -0.13139856022E+02 -0.32187179481E+02  0.41601117347E+02  0.10566000000E+00 0.  1.
         23    2    1    0    0    0 -0.11945781695E+02  0.23296320161E+02 -0.14970502375E+02  0.94841482551E+02  0.89918689035E+02 0.  0.
         13    1    3    3    0    0 -0.34792476450E+02  0.36436176184E+02  0.17216677106E+02  0.53240365204E+02  0.10566000000E+00 0. -1.
         22    1    1    0    0    0  0.11945781695E+02 -0.23296320161E+02  0.14970502375E+02  0.30158517449E+02  0.00000000000E+00 0. -1.
</event>
<event>
 5    1  0.6903325E-004  0.9118800E+02  0.7818608E-02  0.1130116E+00
         25   -1    0    0    0    0  0.00000000000E+00  0.00000000000E+00  0.99999998245E-14  0.12500000000E+03  0.12500000000E+03 0.  0.
        -13    1    3    3    0    0  0.24627873405E+02 -0.12496216108E+02 -0.18250056115E+02  0.33102315292E+02  0.10566000000E+00 0.  1.
         23    2    1    0    0    0 -0.21354313171E+02  0.10599659368E+02  0.17212517349E+02  0.95595404726E+02  0.90960712297E+02 0.  0.
         13    1    3    3    0    0 -0.45982186576E+02  0.23095875476E+02  0.35462573464E+02  0.62493089434E+02  0.10566000000E+00 0. -1.
         22    1    1    0    0    0  0.21354313171E+02 -0.10599659368E+02 -0.17212517349E+02  0.29404595274E+02  0.00000000000E+00 0. -1.
</event>
<event>
 5    1  0.6903325E-004  0.9118800E+02  0.7818608E-02  0.1130116E+00
         25   -1    0    0    0    0  0.00000000000E+00  0.00000000000E+00  0.99999998245E-14  0.12500000000E+03  0.12500000000E+03 0.  0.
        -13    1    3    3    0    0  0.25517073156E-01  0.38044442111E+02 -0.22685539498E+02  0.44294752432E+02  0.10566000000E+00 0. -1.
         23    2    1    0    0    0 -0.26380868365E+02 -0.48880078453E+01 -0.10782079910E+02  0.96084673898E+02  0.91630608830E+02 0.  0.
         13    1    3    3    0    0 -0.26406385438E+02 -0.42932449957E+02  0.11903459588E+02  0.51789921466E+02  0.10566000000E+00 0.  1.
         22    1    1    0    0    0  0.26380868365E+02  0.48880078453E+01  0.10782079910E+02  0.28915326102E+02  0.00000000000E+00 0.  1.
</event>
<event>
 5    1  0.6903325E-004  0.9118800E+02  0.7818608E-02  0.1130116E+00
         25   -1    0    0    0    0  0.00000000000E+00  0.00000000000E+00  0.99999998245E-14  0.12500000000E+03  0.12500000000E+03 0.  0.
        -13    1    3    3    0    0  0.15638489216E+02  0.30434921240E+02 -0.39852583016E+01  0.34449096122E+02  0.10566000000E+00 0.  1.
         23    2    1    0    0    0  0.14783836353E+02 -0.26802032907E+02  0.88970564901E+01  0.93124172176E+02  0.87498817386E+02 0.  0.
         13    1    3    3    0    0 -0.85465286284E+00 -0.57236954147E+02  0.12882314792E+02  0.58675076054E+02  0.10566000000E+00 0. -1.
         22    1    1    0    0    0 -0.14783836353E+02  0.26802032907E+02 -0.88970564901E+01  0.31875827824E+02  0.00000000000E+00 0. -1.
</event>
<event>
 5    1  0.6903325E-004  0.9118800E+02  0.7818608E-02  0.1130116E+00
         25   -1    0    0    0    0  0.00000000000E+00  0.00000000000E+00  0.99999998245E-14  0.12500000000E+03  0.12500000000E+03 0.  0.
        -13    1    3    3    0    0  0.11611982219E+01  0.20337266519E+01 -0.54184440921E+02  0.54235129089E+02  0.10566000000E+00 0. -1.
         23    2    1    0    0    0  0.20733634848E+02  0.92238537002E+01 -0.17848010374E+02  0.96129347680E+02  0.91691531343E+02 0.  0.
         13    1    3    3    0    0  0.19572436626E+02  0.71901270483E+01  0.36336430547E+02  0.41894218591E+02  0.10566000000E+00 0.  1.
         22    1    1    0    0    0 -0.20733634848E+02 -0.92238537002E+01  0.17848010374E+02  0.28870652320E+02  0.00000000000E+00 0. -1.
</event>
<event>
 5    1  0.6903325E-004  0.9118800E+02  0.7818608E-02  0.1130116E+00
         25   -1    0    0    0    0  0.00000000000E+00  0.00000000000E+00  0.99999998245E-14  0.12500000000E+03  0.12500000000E+03 0.  0.
        -13    1    3    3    0    0  0.39736794780E+02  0.27365367993E+02  0.21962779632E+02  0.53011801309E+02  0.10566000000E+00 0. -1.
         23    2    1    0    0    0  0.28208516297E+02 -0.31402941629E+01 -0.60230232039E+01  0.95985199507E+02  0.91494807923E+02 0.  0.
         13    1    3    3    0    0 -0.11528278483E+02 -0.30505662156E+02 -0.27985802836E+02  0.42973398199E+02  0.10566000000E+00 0.  1.
         22    1    1    0    0    0 -0.28208516297E+02  0.31402941629E+01  0.60230232039E+01  0.29014800493E+02  0.00000000000E+00 0. -1.
</event>
<event>
 5    1  0.6903325E-004  0.9118800E+02  0.7818608E-02  0.1130116E+00
         25   -1    0    0    0    0  0.00000000000E+00  0.00000000000E+00  0.99999998245E-14  0.12500000000E+03  0.12500000000E+03 0.  0.
        -13    1    3    3    0    0 -0.35079838765E+02  0.23247834509E+02  0.30060849217E+01  0.42191285922E+02  0.10566000000E+00 0.  1.
         23    2    1    0    0    0 -0.69997795602E+01 -0.19754734324E+02 -0.17700643647E+02  0.97567187027E+02  0.93631174064E+02 0.  0.
         13    1    3    3    0    0  0.28080059205E+02 -0.43002568832E+02 -0.20706728569E+02  0.55375901105E+02  0.10566000000E+00 0. -1.
         22    1    1    0    0    0  0.69997795602E+01  0.19754734324E+02  0.17700643647E+02  0.27432812973E+02  0.00000000000E+00 0. -1.
</event>
<event>
 5    1  0.6903325E-004  0.9118800E+02  0.7818608E-02  0.1130116E+00
         25   -1    0    0    0    0  0.00000000000E+00  0.00000000000E+00  0.99999998245E-14  0.12500000000E+03  0.12500000000E+03 0.  0.
        -13    1    3    3    0    0 -0.29495369617E+02 -0.44685806595E+02  0.19057490273E+01  0.53576498423E+02  0.10566000000E+00 0. -1.
         23    2    1    0    0    0 -0.28578849191E+02 -0.47297197559E+01  0.10000532573E+02  0.94354747157E+02  0.89239491198E+02 0.  0.
         13    1    3    3    0    0  0.91652042632E+00  0.39956086839E+02  0.80947835454E+01  0.40778248734E+02  0.10566000000E+00 0.  1.
         22    1    1    0    0    0  0.28578849191E+02  0.47297197559E+01 -0.10000532573E+02  0.30645252843E+02  0.00000000000E+00 0. -1.
</event>
<event>
 5    1  0.6903325E-004  0.9118800E+02  0.7818608E-02  0.1130116E+00
         25   -1    0    0    0    0  0.00000000000E+00  0.00000000000E+00  0.99999998245E-14  0.12500000000E+03  0.12500000000E+03 0.  0.
        -13    1    3    3    0    0 -0.83493435966E+01  0.22236440516E+02  0.30338917912E+02  0.38530921731E+02  0.10566000000E+00 0. -1.
         23    2    1    0    0    0  0.28144695159E+02 -0.20219751412E+00 -0.76980750357E+01  0.95820810349E+02  0.91269943504E+02 0.  0.
         13    1    3    3    0    0  0.36494038756E+02 -0.22438638030E+02 -0.38036992948E+02  0.57289888618E+02  0.10566000000E+00 0.  1.
         22    1    1    0    0    0 -0.28144695159E+02  0.20219751412E+00  0.76980750357E+01  0.29179189651E+02  0.00000000000E+00 0.  1.
</event>
<event>
 5    1  0.6903325E-004  0.9118800E+02  0.7818608E-02  0.1130116E+00
         25   -1    0    0    0    0  0.00000000000E+00  0.00000000000E+00  0.99999998245E-14  0.12500000000E+03  0.12500000000E+03 0.  0.
        -13    1    3    3    0    0 -0.37828647012E+02  0.22898971419E+02  0.85512364038E+01  0.45038919113E+02  0.10566000000E+00 0.  1.
         23    2    1    0    0    0 -0.21296169739E+02 -0.13315300647E+02 -0.19046222923E+02  0.93478853376E+02  0.88004052997E+02 0.  0.
         13    1    3    3    0    0  0.16532477273E+02 -0.36214272066E+02 -0.27597459327E+02  0.48439934262E+02  0.10566000000E+00 0. -1.
         22    1    1    0    0    0  0.21296169739E+02  0.13315300647E+02  0.19046222923E+02  0.31521146624E+02  0.00000000000E+00 0. -1.
</event>
<event>
 5    1  0.6903325E-004  0.9118800E+02  0.7818608E-02  0.1130116E+00
         25   -1    0    0    0    0  0.00000000000E+00  0.00000000000E+00  0.99999998245E-14  0.12500000000E+03  0.12500000000E+03 0.  0.
        -13    1    3    3    0    0  0.59728859686E+01 -0.50547332983E+02 -0.16887125136E+02  0.53627366128E+02  0.10566000000E+00 0. -1.
         23    2    1    0    0    0  0.21168912041E+02 -0.19188398405E+02  0.66326984923E+01  0.95668955701E+02  0.91061731399E+02 0.  0.
         13    1    3    3    0    0  0.15196026073E+02  0.31358934578E+02  0.23519823628E+02  0.42041589573E+02  0.10566000000E+00 0.  1.
         22    1    1    0    0    0 -0.21168912041E+02  0.19188398405E+02 -0.66326984923E+01  0.29331044299E+02  0.00000000000E+00 0. -1.
</event>
<event>
 5    1  0.6903325E-004  0.9118800E+02  0.7818608E-02  0.1130116E+00
         25   -1    0    0    0    0  0.00000000000E+00  0.00000000000E+00  0.99999998245E-14  0.12500000000E+03  0.12500000000E+03 0.  0.
        -13    1    3    3    0    0 -0.47387033225E+02 -0.29122277653E+02 -0.27071788071E+02  0.61858959310E+02  0.10566000000E+00 0. -1.
         23    2    1    0    0    0 -0.25255173188E+02 -0.81401519063E+01 -0.13220381967E+02  0.95354353689E+02  0.90628849834E+02 0.  0.
         13    1    3    3    0    0  0.22131860037E+02  0.20982125746E+02  0.13851406103E+02  0.33495394379E+02  0.10566000000E+00 0.  1.
         22    1    1    0    0    0  0.25255173188E+02  0.81401519063E+01  0.13220381967E+02  0.29645646311E+02  0.00000000000E+00 0. -1.
</event>
<event>
 5    1  0.6903325E-004  0.9118800E+02  0.7818608E-02  0.1130116E+00
         25   -1    0    0    0    0  0.00000000000E+00  0.00000000000E+00  0.99999998245E-14  0.12500000000E+03  0.12500000000E+03 0.  0.
        -13    1    3    3    0    0  0.32936926314E+02 -0.90543386031E+01  0.28232430596E+00  0.34160108805E+02  0.10566000000E+00 0.  1.
         23    2    1    0    0    0 -0.28026280901E+02 -0.13588536376E+01  0.73003143599E+01  0.96006664661E+02  0.91524128869E+02 0.  0.
         13    1    3    3    0    0 -0.60963207215E+02  0.76954849655E+01  0.70179900540E+01  0.61846555855E+02  0.10566000000E+00 0. -1.
         22    1    1    0    0    0  0.28026280901E+02  0.13588536376E+01 -0.73003143599E+01  0.28993335339E+02  0.00000000000E+00 0. -1.
</event>
<event>
 5    1  0.6903325E-004  0.9118800E+02  0.7818608E-02  0.1130116E+00
         25   -1    0    0    0    0  0.00000000000E+00  0.00000000000E+00  0.99999998245E-14  0.12500000000E+03  0.12500000000E+03 0.  0.
        -13    1    3    3    0    0  0.15199100800E+02  0.15854283099E+02  0.30536007737E+02  0.37614224573E+02  0.10566000000E+00 0. -1.
         23    2    1    0    0    0 -0.51159402429E+01  0.17034454635E+02 -0.23599816395E+02  0.95448404051E+02  0.90758476259E+02 0.  0.
         13    1    3    3    0    0 -0.20315041042E+02  0.11801715355E+01 -0.54135824132E+02  0.57834179478E+02  0.10566000000E+00 0.  1.
         22    1    1    0    0    0  0.51159402429E+01 -0.17034454635E+02  0.23599816395E+02  0.29551595949E+02  0.00000000000E+00 0.  1.
</event>
<event>
 5    1  0.6903325E-004  0.9118800E+02  0.7818608E-02  0.1130116E+00
         25   -1    0    0    0    0  0.00000000000E+00  0.00000000000E+00  0.99999998245E-14  0.12500000000E+03  0.12500000000E+03 0.  0.
        -13    1    3    3    0    0 -0.33457560873E+02  0.10252120386E+02 -0.60463303868E+01  0.35511739286E+02  0.10566000000E+00 0.  1.
         23    2    1    0    0    0  0.23825512251E+02  0.16446663215E+02  0.82900207346E+01  0.94885681002E+02  0.89980110305E+02 0.  0.
         13    1    3    3    0    0  0.57283073123E+02  0.61945428292E+01  0.14336351121E+02  0.59373941716E+02  0.10566000000E+00 0. -1.
         22    1    1    0    0    0 -0.23825512251E+02 -0.16446663215E+02 -0.82900207346E+01  0.30114318998E+02  0.00000000000E+00 0. -1.
</event>
<event>
 5    1  0.6903325E-004  0.9118800E+02  0.7818608E-02  0.1130116E+00
         25   -1    0    0    0    0  0.00000000000E+00  0.00000000000E+00  0.99999998245E-14  0.12500000000E+03  0.12500000000E+03 0.  0.
        -13    1    3    3    0    0 -0.39981606216E+02  0.11039758499E+02  0.17666983405E+02  0.45083684077E+02  0.10566000000E+00 0.  1.
         23    2    1    0    0    0 -0.64384028390E+01  0.20078644254E+02 -0.19727398697E+02  0.96124833411E+02  0.91685376984E+02 0.  0.
         13    1    3    3    0    0  0.33543203377E+02  0.90388857549E+01 -0.37394382102E+02  0.51041149333E+02  0.10566000000E+00 0. -1.
         22    1    1    0    0    0  0.64384028390E+01 -0.20078644254E+02  0.19727398697E+02  0.28875166589E+02  0.00000000000E+00 0. -1.
</event>
<event>
 5    1  0.6903325E-004  0.9118800E+02  0.7818608E-02  0.1130116E+00
         25   -1    0    0    0    0  0.00000000000E+00  0.00000000000E+00  0.99999998245E-14  0.12500000000E+03  0.12500000000E+03 0.  0.
        -13    1    3    3    0    0 -0.13346698346E+02  0.29531606582E+02  0.38555012552E+02  0.50366162262E+02  0.10566000000E+00 0.  1.
         23    2    1    0    0    0  0.19838929903E+02  0.30123840170E+01  0.19824416989E+02  0.96792463664E+02  0.92591122231E+02 0.  0.
         13    1    3    3    0    0  0.33185628249E+02 -0.26519222565E+02 -0.18730595563E+02  0.46426301403E+02  0.10566000000E+00 0. -1.
         22    1    1    0    0    0 -0.19838929903E+02 -0.30123840170E+01 -0.19824416989E+02  0.28207536336E+02  0.00000000000E+00 0.  1.
</event>
<event>
 5    1  0.6903325E-004  0.9118800E+02  0.7818608E-02  0.1130116E+00
         25   -1    0    0    0    0  0.00000000000E+00  0.00000000000E+00  0.99999998245E-14  0.12500000000E+03  0.12500000000E+03 0.  0.
        -13    1    3    3    0    0  0.22216788218E+02 -0.35710677626E+02  0.43257180212E+02  0.60332685827E+02  0.10566000000E+00 0.  1.
         23    2    1    0    0    0  0.20397074008E+02 -0.11400618780E+02  0.17428200121E+02  0.95849410022E+02  0.91309104176E+02 0.  0.
         13    1    3    3    0    0 -0.18197142104E+01  0.24310058846E+02 -0.25828980091E+02  0.35516724194E+02  0.10566000000E+00 0. -1.
         22    1    1    0    0    0 -0.20397074008E+02  0.11400618780E+02 -0.17428200121E+02  0.29150589978E+02  0.00000000000E+00 0.  1.
</event>
<event>
 5    1  0.6903325E-004  0.9118800E+02  0.7818608E-02  0.1130116E+00
         25   -1    0    0    0    0  0.00000000000E+00  0.00000000000E+00  0.99999998245E-14  0.12500000000E+03  0.12500000000E+03 0.  0.
        -13    1    3    3    0    0  0.48454724259E+02  0.22510855043E+02  0.19437111103E+02  0.56854299308E+02  0.10566000000E+00 0.  1.
         23    2    1    0    0    0  0.11569344701E+02  0.25268361024E+02  0.12671734470E+02  0.94456381024E+02  0.89381738940E+02 0.  0.
         13    1    3    3    0    0 -0.36885379557E+02  0.27575059814E+01 -0.67653766326E+01  0.37602081716E+02  0.10566000000E+00 0. -1.
         22    1    1    0    0    0 -0.11569344701E+02 -0.25268361024E+02 -0.12671734470E+02  0.30543618976E+02  0.00000000000E+00 0.  1.
</event>
<event>
 5    1  0.6903325E-004  0.9118800E+02  0.7818608E-02  0.1130116E+00
         25   -1    0    0    0    0  0.00000000000E+00  0.00000000000E+00  0.99999998245E-14  0.12500000000E+03  0.12500000000E+03 0.  0.
        -13    1    3    3    0    0  0.13935766435E+02 -0.56270338706E+02 -0.90282930108E+01  0.58669223985E+02  0.10566000000E+00 0.  1.
         23    2    1    0    0    0  0.43015357994E+01 -0.25560897405E+02  0.11285917574E+02  0.96729262092E+02  0.92505759404E+02 0.  0.
         13    1    3    3    0    0 -0.96342306353E+01  0.30709441301E+02  0.20314210585E+02  0.38060038107E+02  0.10566000000E+00 0. -1.
         22    1    1    0    0    0 -0.43015357994E+01  0.25560897405E+02 -0.11285917574E+02  0.28270737908E+02  0.00000000000E+00 0.  1.
</event>
<event>
 5    1  0.6903325E-004  0.9118800E+02  0.7818608E-02  0.1130116E+00
         25   -1    0    0    0    0  0.00000000000E+00  0.00000000000E+00  0.99999998245E-14  0.12500000000E+03  0.12500000000E+03 0.  0.
        -13    1    3    3    0    0  0.75515463754E+01 -0.32275236605E+02 -0.99645329727E+01  0.34612423087E+02  0.10566000000E+00 0.  1.
         23    2    1    0    0    0  0.11322794522E+02  0.20445092885E+02  0.18996893424E+02  0.94882074132E+02  0.89975099516E+02 0.  0.
         13    1    3    3    0    0  0.37712481467E+01  0.52720329489E+02  0.28961426397E+02  0.60269651045E+02  0.10566000000E+00 0. -1.
         22    1    1    0    0    0 -0.11322794522E+02 -0.20445092885E+02 -0.18996893424E+02  0.30117925868E+02  0.00000000000E+00 0. -1.
</event>
<event>
 5    1  0.6903325E-004  0.9118800E+02  0.7818608E-02  0.1130116E+00
         25   -1    0    0    0    0  0.00000000000E+00  0.00000000000E+00  0.99999998245E-14  0.12500000000E+03  0.12500000000E+03 0.  0.
        -13    1    3    3    0    0  0.33660085229E+02  0.24952000455E+02  0.14767777525E+02  0.44426366962E+02  0.10566000000E+00 0. -1.
         23    2    1    0    0    0  0.10104800594E+01 -0.12975043602E+02  0.26187034856E+02  0.95757332185E+02  0.91182964671E+02 0.  0.
         13    1    3    3    0    0 -0.32649605170E+02 -0.37927044057E+02  0.11419257330E+02  0.51330965223E+02  0.10566000000E+00 0.  1.
         22    1    1    0    0    0 -0.10104800594E+01  0.12975043602E+02 -0.26187034856E+02  0.29242667815E+02  0.00000000000E+00 0. -1.
</event>
<event>
 5    1  0.6903325E-004  0.9118800E+02  0.7818608E-02  0.1130116E+00
         25   -1    0    0    0    0  0.00000000000E+00  0.00000000000E+00  0.99999998245E-14  0.12500000000E+03  0.12500000000E+03 0.  0.
        -13    1    3    3    0    0  0.47016549397E+00 -0.42043409823E+01  0.57088245304E+02  0.57244881471E+02  0.10566000000E+00 0.  1.
         23    2    1    0    0    0 -0.52854680506E+01  0.15282978406E+02  0.25591316308E+02  0.94727552595E+02  0.89760170170E+02 0.  0.
         13    1    3    3    0    0 -0.57556335446E+01  0.19487319389E+02 -0.31496928996E+02  0.37482671125E+02  0.10566000000E+00 0. -1.
         22    1    1    0    0    0  0.52854680506E+01 -0.15282978406E+02 -0.25591316308E+02  0.30272447405E+02  0.00000000000E+00 0.  1.
</event>
<event>
 5    1  0.6903325E-004  0.9118800E+02  0.7818608E-02  0.1130116E+00
         25   -1    0    0    0    0  0.00000000000E+00  0.00000000000E+00  0.99999998245E-14  0.12500000000E+03  0.12500000000E+03 0.  0.
        -13    1    3    3    0    0 -0.12932945279E+02  0.46059098576E+02  0.39704537406E+02  0.62170435819E+02  0.10566000000E+00 0.  1.
         23    2    1    0    0    0 -0.61806562227E+01  0.18994871800E+02  0.22359465854E+02  0.95017482105E+02  0.90163021945E+02 0.  0.
         13    1    3    3    0    0  0.67522890564E+01 -0.27064226777E+02 -0.17345071552E+02  0.32847046286E+02  0.10566000000E+00 0. -1.
         22    1    1    0    0    0  0.61806562227E+01 -0.18994871800E+02 -0.22359465854E+02  0.29982517895E+02  0.00000000000E+00 0.  1.
</event>
<event>
 5    1  0.6903325E-004  0.9118800E+02  0.7818608E-02  0.1130116E+00
         25   -1    0    0    0    0  0.00000000000E+00  0.00000000000E+00  0.99999998245E-14  0.12500000000E+03  0.12500000000E+03 0.  0.
        -13    1    3    3    0    0 -0.16207170100E+02  0.22166695363E+02 -0.49348958383E+02  0.56474468598E+02  0.10566000000E+00 0. -1.
         23    2    1    0    0    0 -0.51428258912E+01 -0.41354979245E+01  0.42181834238E+01  0.11716775430E+03  0.11690568240E+03 0.  0.
         13    1    3    3    0    0  0.11064344209E+02 -0.26302193288E+02  0.53567141806E+02  0.60693285707E+02  0.10566000000E+00 0.  1.
         22    1    1    0    0    0  0.51428258912E+01  0.41354979245E+01 -0.42181834238E+01  0.78322456950E+01  0.00000000000E+00 0.  1.
</event>
<event>
 5    1  0.6903325E-004  0.9118800E+02  0.7818608E-02  0.1130116E+00
         25   -1    0    0    0    0  0.00000000000E+00  0.00000000000E+00  0.99999998245E-14  0.12500000000E+03  0.12500000000E+03 0.  0.
        -13    1    3    3    0    0 -0.26411195377E+02 -0.10832705953E+00  0.27011230744E+02  0.37778045560E+02  0.10566000000E+00 0. -1.
         23    2    1    0    0    0  0.28200791349E+02  0.20307535507E+01  0.97198916163E+01  0.95102092285E+02  0.90280247404E+02 0.  0.
         13    1    3    3    0    0  0.54611986726E+02  0.21390806102E+01 -0.17291339127E+02  0.57324046725E+02  0.10566000000E+00 0.  1.
         22    1    1    0    0    0 -0.28200791349E+02 -0.20307535507E+01 -0.97198916163E+01  0.29897907715E+02  0.00000000000E+00 0.  1.
</event>
<event>
 5    1  0.6903325E-004  0.9118800E+02  0.7818608E-02  0.1130116E+00
         25   -1    0    0    0    0  0.00000000000E+00  0.00000000000E+00  0.99999998245E-14  0.12500000000E+03  0.12500000000E+03 0.  0.
        -13    1    3    3    0    0  0.75234325150E+00 -0.27187072091E+02  0.28866915681E+02  0.39661226585E+02  0.10566000000E+00 0. -1.
         23    2    1    0    0    0 -0.24452551913E+02  0.45829599606E+00 -0.14209354321E+02  0.96714967200E+02  0.92486441169E+02 0.  0.
         13    1    3    3    0    0 -0.25204895164E+02  0.27645368087E+02 -0.43076270002E+02  0.57053740615E+02  0.10566000000E+00 0.  1.
         22    1    1    0    0    0  0.24452551913E+02 -0.45829599606E+00  0.14209354321E+02  0.28285032800E+02  0.00000000000E+00 0.  1.
</event>
<event>
 5    1  0.6903325E-004  0.9118800E+02  0.7818608E-02  0.1130116E+00
         25   -1    0    0    0    0  0.00000000000E+00  0.00000000000E+00  0.99999998245E-14  0.12500000000E+03  0.12500000000E+03 0.  0.
        -13    1    3    3    0    0  0.11254422020E+02  0.39234130214E+02  0.19545053031E+02  0.45254825717E+02  0.10566000000E+00 0.  1.
         23    2    1    0    0    0 -0.19481235940E+02  0.84934385483E+00  0.23353264525E+02  0.94576080090E+02  0.89548981136E+02 0.  0.
         13    1    3    3    0    0 -0.30735657960E+02 -0.38384786359E+02  0.38082114937E+01  0.49321254373E+02  0.10566000000E+00 0. -1.
         22    1    1    0    0    0  0.19481235940E+02 -0.84934385483E+00 -0.23353264525E+02  0.30423919910E+02  0.00000000000E+00 0.  1.
</event>
<event>
 5    1  0.6903325E-004  0.9118800E+02  0.7818608E-02  0.1130116E+00
         25   -1    0    0    0    0  0.00000000000E+00  0.00000000000E+00  0.99999998245E-14  0.12500000000E+03  0.12500000000E+03 0.  0.
        -13    1    3    3    0    0 -0.33690710333E+02  0.35702267040E+02  0.81504359033E+01  0.49760994805E+02  0.10566000000E+00 0. -1.
         23    2    1    0    0    0  0.52260599351E+01  0.16624556199E+02  0.23502913288E+02  0.95741249099E+02  0.91160914183E+02 0.  0.
         13    1    3    3    0    0  0.38916770268E+02 -0.19077710841E+02  0.15352477385E+02  0.45980254294E+02  0.10566000000E+00 0.  1.
         22    1    1    0    0    0 -0.52260599351E+01 -0.16624556199E+02 -0.23502913288E+02  0.29258750901E+02  0.00000000000E+00 0.  1.
</event>
<event>
 5    1  0.6903325E-004  0.9118800E+02  0.7818608E-02  0.1130116E+00
         25   -1    0    0    0    0  0.00000000000E+00  0.00000000000E+00  0.99999998245E-14  0.12500000000E+03  0.12500000000E+03 0.  0.
        -13    1    3    3    0    0  0.27525317946E+02  0.45910865246E+02  0.60967698866E+01  0.53876084145E+02  0.10566000000E+00 0.  1.
         23    2    1    0    0    0 -0.49049772937E+01  0.28467074161E+02 -0.10495629024E+02  0.94265795241E+02  0.89114806908E+02 0.  0.
         13    1    3    3    0    0 -0.32430295240E+02 -0.17443791086E+02 -0.16592398911E+02  0.40389711096E+02  0.10566000000E+00 0. -1.
         22    1    1    0    0    0  0.49049772937E+01 -0.28467074161E+02  0.10495629024E+02  0.30734204759E+02  0.00000000000E+00 0.  1.
</event>
<event>
 5    1  0.6903325E-004  0.9118800E+02  0.7818608E-02  0.1130116E+00
         25   -1    0    0    0    0  0.00000000000E+00  0.00000000000E+00  0.99999998245E-14  0.12500000000E+03  0.12500000000E+03 0.  0.
        -13    1    3    3    0    0 -0.16796451197E+02  0.14974687816E+02  0.41831256897E+02  0.47499760691E+02  0.10566000000E+00 0. -1.
         23    2    1    0    0    0  0.22834184807E+02  0.10956819684E+02  0.14394182306E+02  0.95868498534E+02  0.91335232159E+02 0.  0.
         13    1    3    3    0    0  0.39630636004E+02 -0.40178681319E+01 -0.27437074592E+02  0.48368737844E+02  0.10566000000E+00 0.  1.
         22    1    1    0    0    0 -0.22834184807E+02 -0.10956819684E+02 -0.14394182306E+02  0.29131501466E+02  0.00000000000E+00 0.  1.
</event>
<event>
 5    1  0.6903325E-004  0.9118800E+02  0.7818608E-02  0.1130116E+00
         25   -1    0    0    0    0  0.00000000000E+00  0.00000000000E+00  0.99999998245E-14  0.12500000000E+03  0.12500000000E+03 0.  0.
        -13    1    3    3    0    0  0.30007095860E+02 -0.27908322070E+02  0.17000293520E+01  0.41014649901E+02  0.10566000000E+00 0. -1.
         23    2    1    0    0    0  0.11597472287E+02  0.24169767094E+02  0.89780015467E+01  0.96728397346E+02  0.92504590895E+02 0.  0.
         13    1    3    3    0    0 -0.18409623573E+02  0.52078089164E+02  0.72779721947E+01  0.55713747445E+02  0.10566000000E+00 0.  1.
         22    1    1    0    0    0 -0.11597472287E+02 -0.24169767094E+02 -0.89780015467E+01  0.28271602654E+02  0.00000000000E+00 0.  1.
</event>
<event>
 5    1  0.6903325E-004  0.9118800E+02  0.7818608E-02  0.1130116E+00
         25   -1    0    0    0    0  0.00000000000E+00  0.00000000000E+00  0.99999998245E-14  0.12500000000E+03  0.12500000000E+03 0.  0.
        -13    1    3    3    0    0  0.23573464639E+02  0.21851480112E+02 -0.48899015462E+01  0.32513346788E+02  0.10566000000E+00 0.  1.
         23    2    1    0    0    0 -0.22190906106E+02 -0.12506464086E+02  0.17640906250E+02  0.94015333936E+02  0.88762793355E+02 0.  0.
         13    1    3    3    0    0 -0.45764370745E+02 -0.34357944198E+02  0.22530807796E+02  0.61501987149E+02  0.10566000000E+00 0. -1.
         22    1    1    0    0    0  0.22190906106E+02  0.12506464086E+02 -0.17640906250E+02  0.30984666064E+02  0.00000000000E+00 0. -1.
</event>
<event>
 5    1  0.6903325E-004  0.9118800E+02  0.7818608E-02  0.1130116E+00
         25   -1    0    0    0    0  0.00000000000E+00  0.00000000000E+00  0.99999998245E-14  0.12500000000E+03  0.12500000000E+03 0.  0.
        -13    1    3    3    0    0  0.22172888759E+02  0.56996874733E+01 -0.57422848030E+02  0.61818428265E+02  0.10566000000E+00 0.  1.
         23    2    1    0    0    0  0.16096089600E+02  0.14171358624E+01 -0.23937435841E+02  0.96119328105E+02  0.91677870974E+02 0.  0.
         13    1    3    3    0    0 -0.60767991588E+01 -0.42825516109E+01  0.33485412190E+02  0.34300899840E+02  0.10566000000E+00 0. -1.
         22    1    1    0    0    0 -0.16096089600E+02 -0.14171358624E+01  0.23937435841E+02  0.28880671895E+02  0.00000000000E+00 0.  1.
</event>
<event>
 5    1  0.6903325E-004  0.9118800E+02  0.7818608E-02  0.1130116E+00
         25   -1    0    0    0    0  0.00000000000E+00  0.00000000000E+00  0.99999998245E-14  0.12500000000E+03  0.12500000000E+03 0.  0.
        -13    1    3    3    0    0 -0.12955123423E+02  0.39332489507E+02 -0.20884190260E+02  0.46379311342E+02  0.10566000000E+00 0.  1.
         23    2    1    0    0    0 -0.28014089203E+02  0.71586399063E+00 -0.24217649863E+02  0.87962232519E+02  0.79784447919E+02 0.  0.
         13    1    3    3    0    0 -0.15058965779E+02 -0.38616625516E+02 -0.33334596024E+01  0.41582921177E+02  0.10566000000E+00 0. -1.
         22    1    1    0    0    0  0.28014089203E+02 -0.71586399063E+00  0.24217649863E+02  0.37037767481E+02  0.00000000000E+00 0.  1.
</event>
<event>
 5    1  0.6903325E-004  0.9118800E+02  0.7818608E-02  0.1130116E+00
         25   -1    0    0    0    0  0.00000000000E+00  0.00000000000E+00  0.99999998245E-14  0.12500000000E+03  0.12500000000E+03 0.  0.
        -13    1    3    3    0    0  0.30404943684E+02 -0.26081368872E+02 -0.13641038331E+02  0.42317697166E+02  0.10566000000E+00 0. -1.
         23    2    1    0    0    0  0.12872224087E+01  0.20313438277E+02 -0.18743758906E+02  0.97330138886E+02  0.93314172136E+02 0.  0.
         13    1    3    3    0    0 -0.29117721275E+02  0.46394807149E+02 -0.51027205754E+01  0.55012441720E+02  0.10566000000E+00 0.  1.
         22    1    1    0    0    0 -0.12872224087E+01 -0.20313438277E+02  0.18743758906E+02  0.27669861114E+02  0.00000000000E+00 0. -1.
</event>
<event>
 5    1  0.6903325E-004  0.9118800E+02  0.7818608E-02  0.1130116E+00
         25   -1    0    0    0    0  0.00000000000E+00  0.00000000000E+00  0.99999998245E-14  0.12500000000E+03  0.12500000000E+03 0.  0.
        -13    1    3    3    0    0 -0.21488576328E+01  0.18384323840E+02  0.43228779268E+02  0.47024881426E+02  0.10566000000E+00 0. -1.
         23    2    1    0    0    0  0.77515523763E+01 -0.21878707660E+02  0.18644230737E+02  0.95228003881E+02  0.90454413769E+02 0.  0.
         13    1    3    3    0    0  0.99004100091E+01 -0.40263031500E+02 -0.24584548530E+02  0.48203122455E+02  0.10566000000E+00 0.  1.
         22    1    1    0    0    0 -0.77515523763E+01  0.21878707660E+02 -0.18644230737E+02  0.29771996119E+02  0.00000000000E+00 0.  1.
</event>
<event>
 5    1  0.6903325E-004  0.9118800E+02  0.7818608E-02  0.1130116E+00
         25   -1    0    0    0    0  0.00000000000E+00  0.00000000000E+00  0.99999998245E-14  0.12500000000E+03  0.12500000000E+03 0.  0.
        -13    1    3    3    0    0 -0.23246875747E+02 -0.19734611017E+02  0.15737358531E+01  0.30534569140E+02  0.10566000000E+00 0. -1.
         23    2    1    0    0    0  0.19747728462E+02  0.24007763096E+02  0.97706704993E+01  0.92414551249E+02  0.86479117782E+02 0.  0.
         13    1    3    3    0    0  0.42994604209E+02  0.43742374113E+02  0.81969346462E+01  0.61879982109E+02  0.10566000000E+00 0.  1.
         22    1    1    0    0    0 -0.19747728462E+02 -0.24007763096E+02 -0.97706704993E+01  0.32585448751E+02  0.00000000000E+00 0.  1.
</event>
<event>
 5    1  0.6903325E-004  0.9118800E+02  0.7818608E-02  0.1130116E+00
         25   -1    0    0    0    0  0.00000000000E+00  0.00000000000E+00  0.99999998245E-14  0.12500000000E+03  0.12500000000E+03 0.  0.
        -13    1    3    3    0    0  0.32566293024E+02  0.39372916064E+02  0.31259987875E+02  0.59899816082E+02  0.10566000000E+00 0. -1.
         23    2    1    0    0    0  0.16530761074E+02  0.93895979263E+01  0.23493856410E+02  0.94777625839E+02  0.89829875096E+02 0.  0.
         13    1    3    3    0    0 -0.16035531950E+02 -0.29983318138E+02 -0.77661314649E+01  0.34877809757E+02  0.10566000000E+00 0.  1.
         22    1    1    0    0    0 -0.16530761074E+02 -0.93895979263E+01 -0.23493856410E+02  0.30222374161E+02  0.00000000000E+00 0. -1.
</event>
<event>
 5    1  0.6903325E-004  0.9118800E+02  0.7818608E-02  0.1130116E+00
         25   -1    0    0    0    0  0.00000000000E+00  0.00000000000E+00  0.99999998245E-14  0.12500000000E+03  0.12500000000E+03 0.  0.
        -13    1    3    3    0    0  0.46610630093E+01  0.36325051739E+02  0.20328907908E+02  0.41886878053E+02  0.10566000000E+00 0.  1.
         23    2    1    0    0    0  0.28276209993E+02 -0.76442204023E+01  0.18577671524E+00  0.95708146693E+02  0.91115512803E+02 0.  0.
         13    1    3    3    0    0  0.23615146984E+02 -0.43969272142E+02 -0.20143131193E+02  0.53821268640E+02  0.10566000000E+00 0. -1.
         22    1    1    0    0    0 -0.28276209993E+02  0.76442204023E+01 -0.18577671524E+00  0.29291853307E+02  0.00000000000E+00 0. -1.
</event>
<event>
 5    1  0.6903325E-004  0.9118800E+02  0.7818608E-02  0.1130116E+00
         25   -1    0    0    0    0  0.00000000000E+00  0.00000000000E+00  0.99999998245E-14  0.12500000000E+03  0.12500000000E+03 0.  0.
        -13    1    3    3    0    0  0.21865385989E+02 -0.23545561701E+01 -0.27993300898E+02  0.35598807542E+02  0.10566000000E+00 0.  1.
         23    2    1    0    0    0 -0.26147132719E+02  0.37558559210E+00  0.10119462112E+02  0.96960436391E+02  0.92817612002E+02 0.  0.
         13    1    3    3    0    0 -0.48012518708E+02  0.27301417622E+01  0.38112763010E+02  0.61361628849E+02  0.10566000000E+00 0. -1.
         22    1    1    0    0    0  0.26147132719E+02 -0.37558559210E+00 -0.10119462112E+02  0.28039563609E+02  0.00000000000E+00 0. -1.
</event>
<event>
 5    1  0.6903325E-004  0.9118800E+02  0.7818608E-02  0.1130116E+00
         25   -1    0    0    0    0  0.00000000000E+00  0.00000000000E+00  0.99999998245E-14  0.12500000000E+03  0.12500000000E+03 0.  0.
        -13    1    3    3    0    0  0.26552069100E+02 -0.26602164586E+02 -0.22369578524E+02  0.43738961368E+02  0.10566000000E+00 0.  1.
         23    2    1    0    0    0  0.48532380586E+01  0.21531641225E+02 -0.17632526529E+02  0.96749840969E+02  0.92533562788E+02 0.  0.
         13    1    3    3    0    0 -0.21698831041E+02  0.48133805811E+02  0.47370519954E+01  0.53010879601E+02  0.10566000000E+00 0. -1.
         22    1    1    0    0    0 -0.48532380586E+01 -0.21531641225E+02  0.17632526529E+02  0.28250159031E+02  0.00000000000E+00 0. -1.
</event>
<event>
 5    1  0.6903325E-004  0.9118800E+02  0.7818608E-02  0.1130116E+00
         25   -1    0    0    0    0  0.00000000000E+00  0.00000000000E+00  0.99999998245E-14  0.12500000000E+03  0.12500000000E+03 0.  0.
        -13    1    3    3    0    0 -0.42201218361E+02 -0.12687374134E+02 -0.11148249707E+02  0.45455548937E+02  0.10566000000E+00 0.  1.
         23    2    1    0    0    0 -0.12071962078E+02  0.29631713755E+01  0.26243417251E+02  0.95961584031E+02  0.91462538821E+02 0.  0.
         13    1    3    3    0    0  0.30129256283E+02  0.15650545509E+02  0.37391666958E+02  0.50506035094E+02  0.10566000000E+00 0. -1.
         22    1    1    0    0    0  0.12071962078E+02 -0.29631713755E+01 -0.26243417251E+02  0.29038415969E+02  0.00000000000E+00 0. -1.
</event>
<event>
 5    1  0.6903325E-004  0.9118800E+02  0.7818608E-02  0.1130116E+00
         25   -1    0    0    0    0  0.00000000000E+00  0.00000000000E+00  0.99999998245E-14  0.12500000000E+03  0.12500000000E+03 0.  0.
        -13    1    3    3    0    0  0.45379001312E+02  0.10171777129E+02 -0.28329419159E+02  0.54454439341E+02  0.10566000000E+00 0.  1.
         23    2    1    0    0    0  0.52887714156E+01  0.33586121711E+01 -0.29206516638E+02  0.95129077803E+02  0.90317603216E+02 0.  0.
         13    1    3    3    0    0 -0.40090229897E+02 -0.68131649580E+01 -0.87709747876E+00  0.40674638461E+02  0.10566000000E+00 0. -1.
         22    1    1    0    0    0 -0.52887714156E+01 -0.33586121711E+01  0.29206516638E+02  0.29870922197E+02  0.00000000000E+00 0.  1.
</event>
<event>
 5    1  0.6903325E-004  0.9118800E+02  0.7818608E-02  0.1130116E+00
         25   -1    0    0    0    0  0.00000000000E+00  0.00000000000E+00  0.99999998245E-14  0.12500000000E+03  0.12500000000E+03 0.  0.
        -13    1    3    3    0    0 -0.26420939444E+02  0.18451998022E+02 -0.13853494529E+02  0.35078094971E+02  0.10566000000E+00 0. -1.
         23    2    1    0    0    0  0.26087225789E+02 -0.37407980182E+01  0.99178895458E+01  0.96841494141E+02  0.92657290783E+02 0.  0.
         13    1    3    3    0    0  0.52508165233E+02 -0.22192796040E+02  0.23771384075E+02  0.61763399170E+02  0.10566000000E+00 0.  1.
         22    1    1    0    0    0 -0.26087225789E+02  0.37407980182E+01 -0.99178895458E+01  0.28158505859E+02  0.00000000000E+00 0.  1.
</event>
<event>
 5    1  0.6903325E-004  0.9118800E+02  0.7818608E-02  0.1130116E+00
         25   -1    0    0    0    0  0.00000000000E+00  0.00000000000E+00  0.99999998245E-14  0.12500000000E+03  0.12500000000E+03 0.  0.
        -13    1    3    3    0    0 -0.13233642553E+00  0.26753421027E+02 -0.12632327944E+02  0.29586313101E+02  0.10566000000E+00 0. -1.
         23    2    1    0    0    0 -0.44036698458E+01 -0.27764220629E+02  0.17364466723E+02  0.91958072699E+02  0.85816770940E+02 0.  0.
         13    1    3    3    0    0 -0.42713334203E+01 -0.54517641656E+02  0.29996794667E+02  0.62371759597E+02  0.10566000000E+00 0.  1.
         22    1    1    0    0    0  0.44036698458E+01  0.27764220629E+02 -0.17364466723E+02  0.33041927301E+02  0.00000000000E+00 0.  1.
</event>
<event>
 5    1  0.6903325E-004  0.9118800E+02  0.7818608E-02  0.1130116E+00
         25   -1    0    0    0    0  0.00000000000E+00  0.00000000000E+00  0.99999998245E-14  0.12500000000E+03  0.12500000000E+03 0.  0.
        -13    1    3    3    0    0  0.32219016489E+02  0.19816610979E+02 -0.45955386052E+02  0.59520347491E+02  0.10566000000E+00 0. -1.
         23    2    1    0    0    0  0.25429141390E+02  0.54905532477E+01 -0.13387071840E+02  0.95742503538E+02  0.91162634256E+02 0.  0.
         13    1    3    3    0    0 -0.67898750998E+01 -0.14326057732E+02  0.32568314212E+02  0.36222156047E+02  0.10566000000E+00 0.  1.
         22    1    1    0    0    0 -0.25429141390E+02 -0.54905532477E+01  0.13387071840E+02  0.29257496462E+02  0.00000000000E+00 0. -1.
</event>
<event>
 5    1  0.6903325E-004  0.9118800E+02  0.7818608E-02  0.1130116E+00
         25   -1    0    0    0    0  0.00000000000E+00  0.00000000000E+00  0.99999998245E-14  0.12500000000E+03  0.12500000000E+03 0.  0.
        -13    1    3    3    0    0  0.37424612938E+00 -0.14852706649E+02  0.45338216982E+02  0.47710670066E+02  0.10566000000E+00 0. -1.
         23    2    1    0    0    0 -0.14627740190E+02  0.19912761048E+02  0.18912432240E+02  0.93884586956E+02  0.88578477855E+02 0.  0.
         13    1    3    3    0    0 -0.15001986320E+02  0.34765467698E+02 -0.26425784742E+02  0.46173916891E+02  0.10566000000E+00 0.  1.
         22    1    1    0    0    0  0.14627740190E+02 -0.19912761048E+02 -0.18912432240E+02  0.31115413044E+02  0.00000000000E+00 0.  1.
</event>
<event>
 5    1  0.6903325E-004  0.9118800E+02  0.7818608E-02  0.1130116E+00
         25   -1    0    0    0    0  0.00000000000E+00  0.00000000000E+00  0.99999998245E-14  0.12500000000E+03  0.12500000000E+03 0.  0.
        -13    1    3    3    0    0  0.13153693639E+02  0.32360772466E+02 -0.14209499112E+02  0.37711540409E+02  0.10566000000E+00 0.  1.
         23    2    1    0    0    0 -0.21997271348E+02 -0.50252941928E+01  0.16073290259E+02  0.97296495019E+02  0.93269093245E+02 0.  0.
         13    1    3    3    0    0 -0.35150964987E+02 -0.37386066659E+02  0.30282789371E+02  0.59584954610E+02  0.10566000000E+00 0. -1.
         22    1    1    0    0    0  0.21997271348E+02  0.50252941928E+01 -0.16073290259E+02  0.27703504981E+02  0.00000000000E+00 0. -1.
</event>
<event>
 5    1  0.6903325E-004  0.9118800E+02  0.7818608E-02  0.1130116E+00
         25   -1    0    0    0    0  0.00000000000E+00  0.00000000000E+00  0.99999998245E-14  0.12500000000E+03  0.12500000000E+03 0.  0.
        -13    1    3    3    0    0  0.43823757694E+02 -0.56843600227E+01  0.15316253408E+01  0.44217538686E+02  0.10566000000E+00 0.  1.
         23    2    1    0    0    0  0.83470690819E+01  0.29584022314E+02  0.98594107554E+00  0.94245162684E+02  0.89085861230E+02 0.  0.
         13    1    3    3    0    0 -0.35476688612E+02  0.35268382337E+02 -0.54568426531E+00  0.50027623998E+02  0.10566000000E+00 0. -1.
         22    1    1    0    0    0 -0.83470690819E+01 -0.29584022314E+02 -0.98594107554E+00  0.30754837316E+02  0.00000000000E+00 0. -1.
</event>
<event>
 5    1  0.6903325E-004  0.9118800E+02  0.7818608E-02  0.1130116E+00
         25   -1    0    0    0    0  0.00000000000E+00  0.00000000000E+00  0.99999998245E-14  0.12500000000E+03  0.12500000000E+03 0.  0.
        -13    1    3    3    0    0 -0.40915246529E+02  0.13268425000E+02  0.40767740525E+00  0.43014949325E+02  0.10566000000E+00 0.  1.
         23    2    1    0    0    0  0.85882790949E+01  0.28752332105E+02 -0.18754119065E+01  0.94933867740E+02  0.90047026241E+02 0.  0.
         13    1    3    3    0    0  0.49503525624E+02  0.15483907105E+02 -0.22830893118E+01  0.51918918414E+02  0.10566000000E+00 0. -1.
         22    1    1    0    0    0 -0.85882790949E+01 -0.28752332105E+02  0.18754119065E+01  0.30066132260E+02  0.00000000000E+00 0. -1.
</event>
<event>
 5    1  0.6903325E-004  0.9118800E+02  0.7818608E-02  0.1130116E+00
         25   -1    0    0    0    0  0.00000000000E+00  0.00000000000E+00  0.99999998245E-14  0.12500000000E+03  0.12500000000E+03 0.  0.
        -13    1    3    3    0    0 -0.31678789539E+02  0.98474243995E+01 -0.24989373276E+02  0.41533088192E+02  0.10566000000E+00 0.  1.
         23    2    1    0    0    0 -0.11697132007E+02 -0.23951668462E+02  0.12264944914E+02  0.95658319866E+02  0.91047130469E+02 0.  0.
         13    1    3    3    0    0  0.19981657532E+02 -0.33799092862E+02  0.37254318190E+02  0.54125231675E+02  0.10566000000E+00 0. -1.
         22    1    1    0    0    0  0.11697132007E+02  0.23951668462E+02 -0.12264944914E+02  0.29341680134E+02  0.00000000000E+00 0. -1.
</event>
<event>
 5    1  0.6903325E-004  0.9118800E+02  0.7818608E-02  0.1130116E+00
         25   -1    0    0    0    0  0.00000000000E+00  0.00000000000E+00  0.99999998245E-14  0.12500000000E+03  0.12500000000E+03 0.  0.
        -13    1    3    3    0    0  0.15465299758E+02  0.19340241606E+02 -0.26374963421E+02  0.36178312584E+02  0.10566000000E+00 0. -1.
         23    2    1    0    0    0 -0.28019044566E+02 -0.90507765921E+01  0.22366580368E+01  0.95470590008E+02  0.90789027431E+02 0.  0.
         13    1    3    3    0    0 -0.43484344324E+02 -0.28391018198E+02  0.28611621458E+02  0.59292277423E+02  0.10566000000E+00 0.  1.
         22    1    1    0    0    0  0.28019044566E+02  0.90507765921E+01 -0.22366580368E+01  0.29529409992E+02  0.00000000000E+00 0.  1.
</event>
<event>
 5    1  0.6903325E-004  0.9118800E+02  0.7818608E-02  0.1130116E+00
         25   -1    0    0    0    0  0.00000000000E+00  0.00000000000E+00  0.99999998245E-14  0.12500000000E+03  0.12500000000E+03 0.  0.
        -13    1    3    3    0    0 -0.93900954555E+01  0.58181403365E+01  0.39275249914E+02  0.40799277805E+02  0.10566000000E+00 0. -1.
         23    2    1    0    0    0  0.11207697088E+02  0.34314024430E+02  0.76285868364E+01  0.88104741717E+02  0.80007408590E+02 0.  0.
         13    1    3    3    0    0  0.20597792544E+02  0.28495884094E+02 -0.31646663077E+02  0.47305463912E+02  0.10566000000E+00 0.  1.
         22    1    1    0    0    0 -0.11207697088E+02 -0.34314024430E+02 -0.76285868364E+01  0.36895258283E+02  0.00000000000E+00 0.  1.
</event>
<event>
 5    1  0.6903325E-004  0.9118800E+02  0.7818608E-02  0.1130116E+00
         25   -1    0    0    0    0  0.00000000000E+00  0.00000000000E+00  0.99999998245E-14  0.12500000000E+03  0.12500000000E+03 0.  0.
        -13    1    3    3    0    0  0.25882264180E+02  0.33221802374E+02 -0.75663980670E+01  0.42788331304E+02  0.10566000000E+00 0.  1.
         23    2    1    0    0    0 -0.20562900545E+01 -0.10540674915E+02 -0.25188383326E+02  0.97617728161E+02  0.93698623471E+02 0.  0.
         13    1    3    3    0    0 -0.27938554234E+02 -0.43762477289E+02 -0.17621985260E+02  0.54829396857E+02  0.10566000000E+00 0. -1.
         22    1    1    0    0    0  0.20562900545E+01  0.10540674915E+02  0.25188383326E+02  0.27382271839E+02  0.00000000000E+00 0. -1.
</event>
<event>
 5    1  0.6903325E-004  0.9118800E+02  0.7818608E-02  0.1130116E+00
         25   -1    0    0    0    0  0.00000000000E+00  0.00000000000E+00  0.99999998245E-14  0.12500000000E+03  0.12500000000E+03 0.  0.
        -13    1    3    3    0    0  0.27760141597E+02 -0.42812317270E+02 -0.81199066406E-02  0.51024809666E+02  0.10566000000E+00 0.  1.
         23    2    1    0    0    0 -0.94669064612E+01 -0.31017207680E+02 -0.94893221765E+01  0.91210405070E+02  0.84720725135E+02 0.  0.
         13    1    3    3    0    0 -0.37227048058E+02  0.11795109591E+02 -0.94812022699E+01  0.40185595403E+02  0.10566000000E+00 0. -1.
         22    1    1    0    0    0  0.94669064612E+01  0.31017207680E+02  0.94893221765E+01  0.33789594930E+02  0.00000000000E+00 0.  1.
</event>
<event>
 5    1  0.6903325E-004  0.9118800E+02  0.7818608E-02  0.1130116E+00
         25   -1    0    0    0    0  0.00000000000E+00  0.00000000000E+00  0.99999998245E-14  0.12500000000E+03  0.12500000000E+03 0.  0.
        -13    1    3    3    0    0  0.17342677130E+02 -0.55290060040E+02  0.20663531293E+02  0.61520337116E+02  0.10566000000E+00 0. -1.
         23    2    1    0    0    0  0.17350184648E+01 -0.25104637091E+02  0.14180277534E+02  0.96115170703E+02  0.91672202307E+02 0.  0.
         13    1    3    3    0    0 -0.15607658665E+02  0.30185422949E+02 -0.64832537589E+01  0.34594833588E+02  0.10566000000E+00 0.  1.
         22    1    1    0    0    0 -0.17350184648E+01  0.25104637091E+02 -0.14180277534E+02  0.28884829297E+02  0.00000000000E+00 0. -1.
</event>
<event>
 5    1  0.6903325E-004  0.9118800E+02  0.7818608E-02  0.1130116E+00
         25   -1    0    0    0    0  0.00000000000E+00  0.00000000000E+00  0.99999998245E-14  0.12500000000E+03  0.12500000000E+03 0.  0.
        -13    1    3    3    0    0  0.97847356966E+00  0.50473092266E+02  0.20990397078E+02  0.54672647521E+02  0.10566000000E+00 0. -1.
         23    2    1    0    0    0  0.64877651391E+01  0.24139581813E+02 -0.12024971111E+02  0.97261751374E+02  0.93222517899E+02 0.  0.
         13    1    3    3    0    0  0.55092915695E+01 -0.26333510452E+02 -0.33015368189E+02  0.42589103853E+02  0.10566000000E+00 0.  1.
         22    1    1    0    0    0 -0.64877651391E+01 -0.24139581813E+02  0.12024971111E+02  0.27738248626E+02  0.00000000000E+00 0. -1.
</event>
<event>
 5    1  0.6903325E-004  0.9118800E+02  0.7818608E-02  0.1130116E+00
         25   -1    0    0    0    0  0.00000000000E+00  0.00000000000E+00  0.99999998245E-14  0.12500000000E+03  0.12500000000E+03 0.  0.
        -13    1    3    3    0    0  0.12251690011E+02 -0.88537732907E+01  0.18772470433E+02  0.24102075010E+02  0.10566000000E+00 0. -1.
         23    2    1    0    0    0 -0.16081920948E+02  0.66956686845E+01 -0.34465263379E+02  0.86382458127E+02  0.77269751726E+02 0.  0.
         13    1    3    3    0    0 -0.28333610959E+02  0.15549441975E+02 -0.53237733812E+02  0.62280383117E+02  0.10566000000E+00 0.  1.
         22    1    1    0    0    0  0.16081920948E+02 -0.66956686845E+01  0.34465263379E+02  0.38617541873E+02  0.00000000000E+00 0.  1.
</event>
<event>
 5    1  0.6903325E-004  0.9118800E+02  0.7818608E-02  0.1130116E+00
         25   -1    0    0    0    0  0.00000000000E+00  0.00000000000E+00  0.99999998245E-14  0.12500000000E+03  0.12500000000E+03 0.  0.
        -13    1    3    3    0    0 -0.17539499840E+02  0.69786480965E+01  0.48627126852E+02  0.52162670693E+02  0.10566000000E+00 0.  1.
         23    2    1    0    0    0  0.11795378295E+02 -0.12886107237E+02  0.24024212341E+02  0.95295699175E+02  0.90547914354E+02 0.  0.
         13    1    3    3    0    0  0.29334878136E+02 -0.19864755333E+02 -0.24602914510E+02  0.43133028483E+02  0.10566000000E+00 0. -1.
         22    1    1    0    0    0 -0.11795378295E+02  0.12886107237E+02 -0.24024212341E+02  0.29704300825E+02  0.00000000000E+00 0. -1.
</event>
<event>
 5    1  0.6903325E-004  0.9118800E+02  0.7818608E-02  0.1130116E+00
         25   -1    0    0    0    0  0.00000000000E+00  0.00000000000E+00  0.99999998245E-14  0.12500000000E+03  0.12500000000E+03 0.  0.
        -13    1    3    3    0    0 -0.29122109975E+02 -0.21865845604E+02  0.15561660854E+02  0.39602890626E+02  0.10566000000E+00 0. -1.
         23    2    1    0    0    0  0.19434905334E+02  0.12104477765E+01  0.24076438441E+02  0.94034606136E+02  0.88789929237E+02 0.  0.
         13    1    3    3    0    0  0.48557015309E+02  0.23076293380E+02  0.85147775873E+01  0.54431715509E+02  0.10566000000E+00 0.  1.
         22    1    1    0    0    0 -0.19434905334E+02 -0.12104477765E+01 -0.24076438441E+02  0.30965393864E+02  0.00000000000E+00 0.  1.
</event>
<event>
 5    1  0.6903325E-004  0.9118800E+02  0.7818608E-02  0.1130116E+00
         25   -1    0    0    0    0  0.00000000000E+00  0.00000000000E+00  0.99999998245E-14  0.12500000000E+03  0.12500000000E+03 0.  0.
        -13    1    3    3    0    0  0.44128884576E+01  0.50352447020E+02 -0.21389216789E+02  0.54884900149E+02  0.10566000000E+00 0.  1.
         23    2    1    0    0    0 -0.15833594780E+02  0.25464512328E+02  0.25365411919E+01  0.94907174393E+02  0.90009963884E+02 0.  0.
         13    1    3    3    0    0 -0.20246483238E+02 -0.24887934692E+02  0.23925757980E+02  0.40022274245E+02  0.10566000000E+00 0. -1.
         22    1    1    0    0    0  0.15833594780E+02 -0.25464512328E+02 -0.25365411919E+01  0.30092825607E+02  0.00000000000E+00 0.  1.
</event>
<event>
 5    1  0.6903325E-004  0.9118800E+02  0.7818608E-02  0.1130116E+00
         25   -1    0    0    0    0  0.00000000000E+00  0.00000000000E+00  0.99999998245E-14  0.12500000000E+03  0.12500000000E+03 0.  0.
        -13    1    3    3    0    0 -0.34733318322E+02 -0.22485515202E+01  0.98443657799E+01  0.36171564622E+02  0.10566000000E+00 0.  1.
         23    2    1    0    0    0  0.25288456800E+02 -0.76507993246E+01 -0.46962043337E+01  0.98165412006E+02  0.94426442280E+02 0.  0.
         13    1    3    3    0    0  0.60021775122E+02 -0.54022478045E+01 -0.14540570114E+02  0.61993847384E+02  0.10566000000E+00 0. -1.
         22    1    1    0    0    0 -0.25288456800E+02  0.76507993246E+01  0.46962043337E+01  0.26834587994E+02  0.00000000000E+00 0. -1.
</event>
<event>
 5    1  0.6903325E-004  0.9118800E+02  0.7818608E-02  0.1130116E+00
         25   -1    0    0    0    0  0.00000000000E+00  0.00000000000E+00  0.99999998245E-14  0.12500000000E+03  0.12500000000E+03 0.  0.
        -13    1    3    3    0    0 -0.40632211791E+02 -0.27615629022E+02 -0.37060479716E+02  0.61539336380E+02  0.10566000000E+00 0.  1.
         23    2    1    0    0    0 -0.13694578897E+02 -0.12407160305E+02 -0.22936251883E+02  0.95545785218E+02  0.90892498615E+02 0.  0.
         13    1    3    3    0    0  0.26937632893E+02  0.15208468717E+02  0.14124227833E+02  0.34006448838E+02  0.10566000000E+00 0. -1.
         22    1    1    0    0    0  0.13694578897E+02  0.12407160305E+02  0.22936251883E+02  0.29454214782E+02  0.00000000000E+00 0.  1.
</event>
<event>
 5    1  0.6903325E-004  0.9118800E+02  0.7818608E-02  0.1130116E+00
         25   -1    0    0    0    0  0.00000000000E+00  0.00000000000E+00  0.99999998245E-14  0.12500000000E+03  0.12500000000E+03 0.  0.
        -13    1    3    3    0    0 -0.12391026376E+02  0.25699598244E+02 -0.23761218958E+02  0.37129685899E+02  0.10566000000E+00 0. -1.
         23    2    1    0    0    0 -0.10629560673E+02 -0.26460208524E+02  0.39371806393E+01  0.96214038376E+02  0.91806914740E+02 0.  0.
         13    1    3    3    0    0  0.17614657026E+01 -0.52159806767E+02  0.27698399597E+02  0.59084352478E+02  0.10566000000E+00 0.  1.
         22    1    1    0    0    0  0.10629560673E+02  0.26460208524E+02 -0.39371806393E+01  0.28785961624E+02  0.00000000000E+00 0.  1.
</event>
<event>
 5    1  0.6903325E-004  0.9118800E+02  0.7818608E-02  0.1130116E+00
         25   -1    0    0    0    0  0.00000000000E+00  0.00000000000E+00  0.99999998245E-14  0.12500000000E+03  0.12500000000E+03 0.  0.
        -13    1    3    3    0    0  0.10517172805E+02  0.82408162558E+01  0.33302885136E+02  0.35883356849E+02  0.10566000000E+00 0. -1.
         23    2    1    0    0    0  0.20387762744E+02 -0.12241251854E+02 -0.20060374628E+02  0.93888462801E+02  0.88583947193E+02 0.  0.
         13    1    3    3    0    0  0.98705899383E+01 -0.20482068110E+02 -0.53363259764E+02  0.58005105952E+02  0.10566000000E+00 0.  1.
         22    1    1    0    0    0 -0.20387762744E+02  0.12241251854E+02  0.20060374628E+02  0.31111537199E+02  0.00000000000E+00 0. -1.
</event>
<event>
 5    1  0.6903325E-004  0.9118800E+02  0.7818608E-02  0.1130116E+00
         25   -1    0    0    0    0  0.00000000000E+00  0.00000000000E+00  0.99999998245E-14  0.12500000000E+03  0.12500000000E+03 0.  0.
        -13    1    3    3    0    0 -0.29925051410E+02  0.99769032295E+01 -0.26733666136E+02  0.41349091514E+02  0.10566000000E+00 0.  1.
         23    2    1    0    0    0  0.22379271106E+02 -0.46307097381E+01 -0.16992018746E+02  0.96521868935E+02  0.92225090044E+02 0.  0.
         13    1    3    3    0    0  0.52304322515E+02 -0.14607612968E+02  0.97416473897E+01  0.55172777421E+02  0.10566000000E+00 0. -1.
         22    1    1    0    0    0 -0.22379271106E+02  0.46307097381E+01  0.16992018746E+02  0.28478131065E+02  0.00000000000E+00 0. -1.
</event>
<event>
 5    1  0.6903325E-004  0.9118800E+02  0.7818608E-02  0.1130116E+00
         25   -1    0    0    0    0  0.00000000000E+00  0.00000000000E+00  0.99999998245E-14  0.12500000000E+03  0.12500000000E+03 0.  0.
        -13    1    3    3    0    0  0.31750164532E+02  0.20506950477E+01 -0.30432227087E+02  0.44027376795E+02  0.10566000000E+00 0.  1.
         23    2    1    0    0    0 -0.86049338377E+01  0.26457560747E+02 -0.12763334813E+02  0.94390358993E+02  0.89289359659E+02 0.  0.
         13    1    3    3    0    0 -0.40355098369E+02  0.24406865699E+02  0.17668892274E+02  0.50362982198E+02  0.10566000000E+00 0. -1.
         22    1    1    0    0    0  0.86049338377E+01 -0.26457560747E+02  0.12763334813E+02  0.30609641007E+02  0.00000000000E+00 0.  1.
</event>
<event>
 5    1  0.6903325E-004  0.9118800E+02  0.7818608E-02  0.1130116E+00
         25   -1    0    0    0    0  0.00000000000E+00  0.00000000000E+00  0.99999998245E-14  0.12500000000E+03  0.12500000000E+03 0.  0.
        -13    1    3    3    0    0 -0.31912066558E+02  0.10866128292E+02 -0.41951764478E+02  0.53818346713E+02  0.10566000000E+00 0. -1.
         23    2    1    0    0    0 -0.10409157975E+02 -0.17960002063E+02 -0.21154339852E+02  0.95361876942E+02  0.90639225699E+02 0.  0.
         13    1    3    3    0    0  0.21502908583E+02 -0.28826130355E+02  0.20797424626E+02  0.41543530229E+02  0.10566000000E+00 0.  1.
         22    1    1    0    0    0  0.10409157975E+02  0.17960002063E+02  0.21154339852E+02  0.29638123058E+02  0.00000000000E+00 0.  1.
</event>
<event>
 5    1  0.6903325E-004  0.9118800E+02  0.7818608E-02  0.1130116E+00
         25   -1    0    0    0    0  0.00000000000E+00  0.00000000000E+00  0.99999998245E-14  0.12500000000E+03  0.12500000000E+03 0.  0.
        -13    1    3    3    0    0  0.19044924466E+01 -0.25987687942E+02 -0.26086284970E+02  0.36871295660E+02  0.10566000000E+00 0.  1.
         23    2    1    0    0    0  0.10824375396E+02  0.87637510985E+00  0.26372074038E+02  0.96479456086E+02  0.92167586610E+02 0.  0.
         13    1    3    3    0    0  0.89198829496E+01  0.26864063052E+02  0.52458359008E+02  0.59608160426E+02  0.10566000000E+00 0. -1.
         22    1    1    0    0    0 -0.10824375396E+02 -0.87637510985E+00 -0.26372074038E+02  0.28520543914E+02  0.00000000000E+00 0. -1.
</event>
<event>
 5    1  0.6903325E-004  0.9118800E+02  0.7818608E-02  0.1130116E+00
         25   -1    0    0    0    0  0.00000000000E+00  0.00000000000E+00  0.99999998245E-14  0.12500000000E+03  0.12500000000E+03 0.  0.
        -13    1    3    3    0    0  0.23427899816E+02  0.18949401056E+02 -0.25288021366E+02  0.39337532698E+02  0.10566000000E+00 0. -1.
         23    2    1    0    0    0  0.74040928490E+01  0.55498603025E+01  0.27434423981E+02  0.96047121741E+02  0.91579366865E+02 0.  0.
         13    1    3    3    0    0 -0.16023806967E+02 -0.13399540753E+02  0.52722445347E+02  0.56709589043E+02  0.10566000000E+00 0.  1.
         22    1    1    0    0    0 -0.74040928490E+01 -0.55498603025E+01 -0.27434423981E+02  0.28952878259E+02  0.00000000000E+00 0.  1.
</event>
<event>
 5    1  0.6903325E-004  0.9118800E+02  0.7818608E-02  0.1130116E+00
         25   -1    0    0    0    0  0.00000000000E+00  0.00000000000E+00  0.99999998245E-14  0.12500000000E+03  0.12500000000E+03 0.  0.
        -13    1    3    3    0    0 -0.41611425168E+02  0.21319089749E+02  0.25725782015E+02  0.53365169507E+02  0.10566000000E+00 0.  1.
         23    2    1    0    0    0 -0.36008177472E+01  0.17563041959E+01  0.28514400898E+02  0.96205529151E+02  0.91795328246E+02 0.  0.
         13    1    3    3    0    0  0.38010607421E+02 -0.19562785553E+02  0.27886188833E+01  0.42840359644E+02  0.10566000000E+00 0. -1.
         22    1    1    0    0    0  0.36008177472E+01 -0.17563041959E+01 -0.28514400898E+02  0.28794470849E+02  0.00000000000E+00 0.  1.
</event>
<event>
 5    1  0.6903325E-004  0.9118800E+02  0.7818608E-02  0.1130116E+00
         25   -1    0    0    0    0  0.00000000000E+00  0.00000000000E+00  0.99999998245E-14  0.12500000000E+03  0.12500000000E+03 0.  0.
        -13    1    3    3    0    0  0.14574641922E+02  0.52207783412E+01  0.60487806056E+02  0.62437669392E+02  0.10566000000E+00 0. -1.
         23    2    1    0    0    0  0.56173381187E+01  0.39053911037E+01  0.29205582106E+02  0.95003790350E+02  0.90144038003E+02 0.  0.
         13    1    3    3    0    0 -0.89573038030E+01 -0.13153872375E+01 -0.31282223950E+02  0.32566120958E+02  0.10566000000E+00 0.  1.
         22    1    1    0    0    0 -0.56173381187E+01 -0.39053911037E+01 -0.29205582106E+02  0.29996209650E+02  0.00000000000E+00 0. -1.
</event>
<event>
 5    1  0.6903325E-004  0.9118800E+02  0.7818608E-02  0.1130116E+00
         25   -1    0    0    0    0  0.00000000000E+00  0.00000000000E+00  0.99999998245E-14  0.12500000000E+03  0.12500000000E+03 0.  0.
        -13    1    3    3    0    0 -0.12610688752E+02 -0.31171140982E+02 -0.30413020677E+00  0.33626970725E+02  0.10566000000E+00 0. -1.
         23    2    1    0    0    0  0.72897017106E+01  0.24506175969E+02 -0.16047063360E+02  0.94813899654E+02  0.89880336634E+02 0.  0.
         13    1    3    3    0    0  0.19900390463E+02  0.55677316951E+02 -0.15742933153E+02  0.61186928929E+02  0.10566000000E+00 0.  1.
         22    1    1    0    0    0 -0.72897017106E+01 -0.24506175969E+02  0.16047063360E+02  0.30186100346E+02  0.00000000000E+00 0.  1.
</event>
<event>
 5    1  0.6903325E-004  0.9118800E+02  0.7818608E-02  0.1130116E+00
         25   -1    0    0    0    0  0.00000000000E+00  0.00000000000E+00  0.99999998245E-14  0.12500000000E+03  0.12500000000E+03 0.  0.
        -13    1    3    3    0    0 -0.55147710638E+02 -0.97712762075E+01  0.11200717948E+02  0.57115804065E+02  0.10566000000E+00 0. -1.
         23    2    1    0    0    0 -0.19256314969E+02  0.11984085076E+02  0.12493179480E+02  0.99105917765E+02  0.95663365199E+02 0.  0.
         13    1    3    3    0    0  0.35891395670E+02  0.21755361283E+02  0.12924615325E+01  0.41990113700E+02  0.10566000000E+00 0.  1.
         22    1    1    0    0    0  0.19256314969E+02 -0.11984085076E+02 -0.12493179480E+02  0.25894082235E+02  0.00000000000E+00 0. -1.
</event>
<event>
 5    1  0.6903325E-004  0.9118800E+02  0.7818608E-02  0.1130116E+00
         25   -1    0    0    0    0  0.00000000000E+00  0.00000000000E+00  0.99999998245E-14  0.12500000000E+03  0.12500000000E+03 0.  0.
        -13    1    3    3    0    0 -0.88042365131E+01  0.22721657794E+02 -0.38111255327E+02  0.45235685693E+02  0.10566000000E+00 0.  1.
         23    2    1    0    0    0  0.97600882618E+01 -0.63379537840E+01  0.13417876037E+02  0.10723857049E+03  0.10575747076E+03 0.  0.
         13    1    3    3    0    0  0.18564324775E+02 -0.29059611578E+02  0.51529131364E+02  0.62002884793E+02  0.10566000000E+00 0. -1.
         22    1    1    0    0    0 -0.97600882618E+01  0.63379537840E+01 -0.13417876037E+02  0.17761429514E+02  0.00000000000E+00 0. -1.
</event>
<event>
 5    1  0.6903325E-004  0.9118800E+02  0.7818608E-02  0.1130116E+00
         25   -1    0    0    0    0  0.00000000000E+00  0.00000000000E+00  0.99999998245E-14  0.12500000000E+03  0.12500000000E+03 0.  0.
        -13    1    3    3    0    0  0.85857048583E+01  0.21243304203E+02 -0.24002840008E+02  0.33183426494E+02  0.10566000000E+00 0.  1.
         23    2    1    0    0    0 -0.15888595009E+02 -0.28365322344E+02 -0.30155694580E+01  0.92348313640E+02  0.86383322522E+02 0.  0.
         13    1    3    3    0    0 -0.24474299867E+02 -0.49608626547E+02  0.20987270550E+02  0.59164887146E+02  0.10566000000E+00 0. -1.
         22    1    1    0    0    0  0.15888595009E+02  0.28365322344E+02  0.30155694580E+01  0.32651686360E+02  0.00000000000E+00 0. -1.
</event>
<event>
 5    1  0.6903325E-004  0.9118800E+02  0.7818608E-02  0.1130116E+00
         25   -1    0    0    0    0  0.00000000000E+00  0.00000000000E+00  0.99999998245E-14  0.12500000000E+03  0.12500000000E+03 0.  0.
        -13    1    3    3    0    0  0.11648936771E+01  0.50529884927E+02  0.31817056193E+02  0.59724052750E+02  0.10566000000E+00 0.  1.
         23    2    1    0    0    0 -0.70062529680E+01  0.16271741510E+02  0.22886236284E+02  0.96058041468E+02  0.91594270383E+02 0.  0.
         13    1    3    3    0    0 -0.81711466451E+01 -0.34258143417E+02 -0.89308199091E+01  0.36333988718E+02  0.10566000000E+00 0. -1.
         22    1    1    0    0    0  0.70062529680E+01 -0.16271741510E+02 -0.22886236284E+02  0.28941958532E+02  0.00000000000E+00 0.  1.
</event>
<event>
 5    1  0.6903325E-004  0.9118800E+02  0.7818608E-02  0.1130116E+00
         25   -1    0    0    0    0  0.00000000000E+00  0.00000000000E+00  0.99999998245E-14  0.12500000000E+03  0.12500000000E+03 0.  0.
        -13    1    3    3    0    0 -0.39631894824E+02  0.35444756036E+02  0.25016585583E+02  0.58761029059E+02  0.10566000000E+00 0.  1.
         23    2    1    0    0    0 -0.26555138751E+02  0.54104270607E+01  0.41939298466E+01  0.97576704016E+02  0.93643878625E+02 0.  0.
         13    1    3    3    0    0  0.13076756072E+02 -0.30034328975E+02 -0.20822655737E+02  0.38815674957E+02  0.10566000000E+00 0. -1.
         22    1    1    0    0    0  0.26555138751E+02 -0.54104270607E+01 -0.41939298466E+01  0.27423295984E+02  0.00000000000E+00 0.  1.
</event>
<event>
 5    1  0.6903325E-004  0.9118800E+02  0.7818608E-02  0.1130116E+00
         25   -1    0    0    0    0  0.00000000000E+00  0.00000000000E+00  0.99999998245E-14  0.12500000000E+03  0.12500000000E+03 0.  0.
        -13    1    3    3    0    0 -0.22108422470E+02  0.42357009961E+02 -0.10630467859E+02  0.48948101576E+02  0.10566000000E+00 0. -1.
         23    2    1    0    0    0 -0.19526383388E+02 -0.25900706882E+01 -0.22088479101E+02  0.95404577662E+02  0.90698094883E+02 0.  0.
         13    1    3    3    0    0  0.25820390821E+01 -0.44947080649E+02 -0.11458011242E+02  0.46456476086E+02  0.10566000000E+00 0.  1.
         22    1    1    0    0    0  0.19526383388E+02  0.25900706882E+01  0.22088479101E+02  0.29595422338E+02  0.00000000000E+00 0. -1.
</event>
<event>
 5    1  0.6903325E-004  0.9118800E+02  0.7818608E-02  0.1130116E+00
         25   -1    0    0    0    0  0.00000000000E+00  0.00000000000E+00  0.99999998245E-14  0.12500000000E+03  0.12500000000E+03 0.  0.
        -13    1    3    3    0    0  0.27111491906E+02  0.40358473913E+01 -0.26857739193E+02  0.38375387635E+02  0.10566000000E+00 0.  1.
         23    2    1    0    0    0  0.30580961791E+01  0.22885248929E+02  0.20091059315E+02  0.94393836647E+02  0.89294228042E+02 0.  0.
         13    1    3    3    0    0 -0.24053395727E+02  0.18849401538E+02  0.46948798508E+02  0.56018449012E+02  0.10566000000E+00 0. -1.
         22    1    1    0    0    0 -0.30580961791E+01 -0.22885248929E+02 -0.20091059315E+02  0.30606163353E+02  0.00000000000E+00 0. -1.
</event>
<event>
 5    1  0.6903325E-004  0.9118800E+02  0.7818608E-02  0.1130116E+00
         25   -1    0    0    0    0  0.00000000000E+00  0.00000000000E+00  0.99999998245E-14  0.12500000000E+03  0.12500000000E+03 0.  0.
        -13    1    3    3    0    0  0.98933705931E+01 -0.24145742421E+02  0.24978155860E+02  0.36122224363E+02  0.10566000000E+00 0. -1.
         23    2    1    0    0    0  0.15247303706E+02  0.11850373057E+02 -0.22116383691E+02  0.95639379444E+02  0.91021123158E+02 0.  0.
         13    1    3    3    0    0  0.53539331125E+01  0.35996115478E+02 -0.47094539551E+02  0.59517155080E+02  0.10566000000E+00 0.  1.
         22    1    1    0    0    0 -0.15247303706E+02 -0.11850373057E+02  0.22116383691E+02  0.29360620556E+02  0.00000000000E+00 0.  1.
</event>
<event>
 5    1  0.6903325E-004  0.9118800E+02  0.7818608E-02  0.1130116E+00
         25   -1    0    0    0    0  0.00000000000E+00  0.00000000000E+00  0.99999998245E-14  0.12500000000E+03  0.12500000000E+03 0.  0.
        -13    1    3    3    0    0  0.25634867665E+02 -0.45571542833E+02 -0.19327189775E+02  0.55744626513E+02  0.10566000000E+00 0.  1.
         23    2    1    0    0    0  0.20623838318E+02 -0.19898701864E+02 -0.29556309899E+02  0.83831122220E+02  0.73025889621E+02 0.  0.
         13    1    3    3    0    0 -0.50110293477E+01  0.25672840969E+02 -0.10229120124E+02  0.28086495707E+02  0.10566000000E+00 0. -1.
         22    1    1    0    0    0 -0.20623838318E+02  0.19898701864E+02  0.29556309899E+02  0.41168877780E+02  0.00000000000E+00 0.  1.
</event>
<event>
 5    1  0.6903325E-004  0.9118800E+02  0.7818608E-02  0.1130116E+00
         25   -1    0    0    0    0  0.00000000000E+00  0.00000000000E+00  0.99999998245E-14  0.12500000000E+03  0.12500000000E+03 0.  0.
        -13    1    3    3    0    0  0.36802069355E+02 -0.16758073680E+02  0.88661219256E+01  0.41398606550E+02  0.10566000000E+00 0.  1.
         23    2    1    0    0    0  0.68108530677E+01  0.16593484911E+02 -0.22569508304E+02  0.96170949268E+02  0.91748227869E+02 0.  0.
         13    1    3    3    0    0 -0.29991216288E+02  0.33351558591E+02 -0.31435630230E+02  0.54772342718E+02  0.10566000000E+00 0. -1.
         22    1    1    0    0    0 -0.68108530677E+01 -0.16593484911E+02  0.22569508304E+02  0.28829050732E+02  0.00000000000E+00 0. -1.
</event>
<event>
 5    1  0.6903325E-004  0.9118800E+02  0.7818608E-02  0.1130116E+00
         25   -1    0    0    0    0  0.00000000000E+00  0.00000000000E+00  0.99999998245E-14  0.12500000000E+03  0.12500000000E+03 0.  0.
        -13    1    3    3    0    0  0.87654811707E+01  0.20386860577E+02  0.27884184321E+02  0.35637012271E+02  0.10566000000E+00 0. -1.
         23    2    1    0    0    0  0.13881544508E+02 -0.16245432963E+01 -0.26782280309E+02  0.94790283725E+02  0.89847487061E+02 0.  0.
         13    1    3    3    0    0  0.51160633374E+01 -0.22011403873E+02 -0.54666464630E+02  0.59153271454E+02  0.10566000000E+00 0.  1.
         22    1    1    0    0    0 -0.13881544508E+02  0.16245432963E+01  0.26782280309E+02  0.30209716275E+02  0.00000000000E+00 0.  1.
</event>
<event>
 5    1  0.6903325E-004  0.9118800E+02  0.7818608E-02  0.1130116E+00
         25   -1    0    0    0    0  0.00000000000E+00  0.00000000000E+00  0.99999998245E-14  0.12500000000E+03  0.12500000000E+03 0.  0.
        -13    1    3    3    0    0 -0.43518208631E+02 -0.16276998379E+02 -0.21482078455E+02  0.51188534043E+02  0.10566000000E+00 0.  1.
         23    2    1    0    0    0 -0.49906865914E+01 -0.20804198638E+02  0.10222306855E+02  0.10128888043E+03  0.98474464246E+02 0.  0.
         13    1    3    3    0    0  0.38527522039E+02 -0.45272002583E+01  0.31704385310E+02  0.50100346392E+02  0.10566000000E+00 0. -1.
         22    1    1    0    0    0  0.49906865914E+01  0.20804198638E+02 -0.10222306855E+02  0.23711119566E+02  0.00000000000E+00 0. -1.
</event>
<event>
 5    1  0.6903325E-004  0.9118800E+02  0.7818608E-02  0.1130116E+00
         25   -1    0    0    0    0  0.00000000000E+00  0.00000000000E+00  0.99999998245E-14  0.12500000000E+03  0.12500000000E+03 0.  0.
        -13    1    3    3    0    0  0.56072869210E+02  0.18772107465E+02 -0.59881573297E+01  0.59434231486E+02  0.10566000000E+00 0.  1.
         23    2    1    0    0    0  0.14754724672E+02  0.18134807638E+02  0.20479684762E+01  0.10153156752E+03  0.98782042294E+02 0.  0.
         13    1    3    3    0    0 -0.41318144538E+02 -0.63729982621E+00  0.80361258059E+01  0.42097336034E+02  0.10566000000E+00 0. -1.
         22    1    1    0    0    0 -0.14754724672E+02 -0.18134807638E+02 -0.20479684762E+01  0.23468432481E+02  0.00000000000E+00 0.  1.
</event>
<event>
 5    1  0.6903325E-004  0.9118800E+02  0.7818608E-02  0.1130116E+00
         25   -1    0    0    0    0  0.00000000000E+00  0.00000000000E+00  0.99999998245E-14  0.12500000000E+03  0.12500000000E+03 0.  0.
        -13    1    3    3    0    0  0.10598028521E+02 -0.15736121482E+01  0.60266431862E+02  0.61211505758E+02  0.10566000000E+00 0.  1.
         23    2    1    0    0    0  0.91636809761E+01 -0.84673803140E+01  0.26429261551E+02  0.95773719967E+02  0.91205427425E+02 0.  0.
         13    1    3    3    0    0 -0.14343475448E+01 -0.68937681658E+01 -0.33837170311E+02  0.34562214210E+02  0.10566000000E+00 0. -1.
         22    1    1    0    0    0 -0.91636809761E+01  0.84673803140E+01 -0.26429261551E+02  0.29226280033E+02  0.00000000000E+00 0.  1.
</event>
<event>
 5    1  0.6903325E-004  0.9118800E+02  0.7818608E-02  0.1130116E+00
         25   -1    0    0    0    0  0.00000000000E+00  0.00000000000E+00  0.99999998245E-14  0.12500000000E+03  0.12500000000E+03 0.  0.
        -13    1    3    3    0    0 -0.14693717551E+02  0.40135973865E+02  0.90623961152E+01  0.43691417017E+02  0.10566000000E+00 0.  1.
         23    2    1    0    0    0  0.25481783676E+02  0.11646410779E+02 -0.80797031081E+01  0.95841094231E+02  0.91297719346E+02 0.  0.
         13    1    3    3    0    0  0.40175501227E+02 -0.28489563086E+02 -0.17142099223E+02  0.52149677214E+02  0.10566000000E+00 0. -1.
         22    1    1    0    0    0 -0.25481783676E+02 -0.11646410779E+02  0.80797031081E+01  0.29158905769E+02  0.00000000000E+00 0. -1.
</event>
<event>
 5    1  0.6903325E-004  0.9118800E+02  0.7818608E-02  0.1130116E+00
         25   -1    0    0    0    0  0.00000000000E+00  0.00000000000E+00  0.99999998245E-14  0.12500000000E+03  0.12500000000E+03 0.  0.
        -13    1    3    3    0    0  0.32790800675E+02  0.93305038381E+01  0.40459079538E+02  0.52907874574E+02  0.10566000000E+00 0.  1.
         23    2    1    0    0    0  0.15116903270E+02  0.24504361034E+02  0.43464018379E+01  0.95881695051E+02  0.91353290925E+02 0.  0.
         13    1    3    3    0    0 -0.17673897405E+02  0.15173857196E+02 -0.36112677700E+02  0.42973820477E+02  0.10566000000E+00 0. -1.
         22    1    1    0    0    0 -0.15116903270E+02 -0.24504361034E+02 -0.43464018379E+01  0.29118304949E+02  0.00000000000E+00 0.  1.
</event>
<event>
 5    1  0.6903325E-004  0.9118800E+02  0.7818608E-02  0.1130116E+00
         25   -1    0    0    0    0  0.00000000000E+00  0.00000000000E+00  0.99999998245E-14  0.12500000000E+03  0.12500000000E+03 0.  0.
        -13    1    3    3    0    0  0.40959308397E+02 -0.27490306355E+02  0.89137937808E+01  0.50128323046E+02  0.10566000000E+00 0. -1.
         23    2    1    0    0    0  0.30859973325E+01 -0.26756734434E+02 -0.14248663978E+02  0.94529183761E+02  0.89483495351E+02 0.  0.
         13    1    3    3    0    0 -0.37873311064E+02  0.73357192110E+00 -0.23162457759E+02  0.44400860715E+02  0.10566000000E+00 0.  1.
         22    1    1    0    0    0 -0.30859973325E+01  0.26756734434E+02  0.14248663978E+02  0.30470816239E+02  0.00000000000E+00 0. -1.
</event>
<event>
 5    1  0.6903325E-004  0.9118800E+02  0.7818608E-02  0.1130116E+00
         25   -1    0    0    0    0  0.00000000000E+00  0.00000000000E+00  0.99999998245E-14  0.12500000000E+03  0.12500000000E+03 0.  0.
        -13    1    3    3    0    0  0.11003995708E+02  0.37141289182E+01  0.23732867786E+02  0.26422393013E+02  0.10566000000E+00 0.  1.
         23    2    1    0    0    0 -0.23851092811E+00  0.10943665033E+02 -0.35865467842E+02  0.87501300351E+02  0.79058997513E+02 0.  0.
         13    1    3    3    0    0 -0.11242506636E+02  0.72295361144E+01 -0.59598335628E+02  0.61078907338E+02  0.10566000000E+00 0. -1.
         22    1    1    0    0    0  0.23851092811E+00 -0.10943665033E+02  0.35865467842E+02  0.37498699649E+02  0.00000000000E+00 0. -1.
</event>
<event>
 5    1  0.6903325E-004  0.9118800E+02  0.7818608E-02  0.1130116E+00
         25   -1    0    0    0    0  0.00000000000E+00  0.00000000000E+00  0.99999998245E-14  0.12500000000E+03  0.12500000000E+03 0.  0.
        -13    1    3    3    0    0  0.36554291559E+02  0.24205825939E+02 -0.44185947078E+02  0.62245861903E+02  0.10566000000E+00 0. -1.
         23    2    1    0    0    0  0.20059943049E+02  0.13596333281E+02 -0.18777813140E+02  0.94342735606E+02  0.89222664729E+02 0.  0.
         13    1    3    3    0    0 -0.16494348510E+02 -0.10609492658E+02  0.25408133939E+02  0.32096873703E+02  0.10566000000E+00 0.  1.
         22    1    1    0    0    0 -0.20059943049E+02 -0.13596333281E+02  0.18777813140E+02  0.30657264394E+02  0.00000000000E+00 0. -1.
</event>
<event>
 5    1  0.6903325E-004  0.9118800E+02  0.7818608E-02  0.1130116E+00
         25   -1    0    0    0    0  0.00000000000E+00  0.00000000000E+00  0.99999998245E-14  0.12500000000E+03  0.12500000000E+03 0.  0.
        -13    1    3    3    0    0  0.33630747479E+02 -0.28265799842E+02  0.11943249535E+02  0.45526201140E+02  0.10566000000E+00 0. -1.
         23    2    1    0    0    0  0.10068026373E+02 -0.14277291566E+02 -0.26816889805E+02  0.92994503779E+02  0.87313377811E+02 0.  0.
         13    1    3    3    0    0 -0.23562721107E+02  0.13988508276E+02 -0.38760139340E+02  0.47468302639E+02  0.10566000000E+00 0.  1.
         22    1    1    0    0    0 -0.10068026373E+02  0.14277291566E+02  0.26816889805E+02  0.32005496221E+02  0.00000000000E+00 0. -1.
</event>
<event>
 5    1  0.6903325E-004  0.9118800E+02  0.7818608E-02  0.1130116E+00
         25   -1    0    0    0    0  0.00000000000E+00  0.00000000000E+00  0.99999998245E-14  0.12500000000E+03  0.12500000000E+03 0.  0.
        -13    1    3    3    0    0 -0.19368419251E+02  0.44108511259E+01 -0.27217018842E+02  0.33695230384E+02  0.10566000000E+00 0.  1.
         23    2    1    0    0    0 -0.50907029739E+01  0.91627080833E+01  0.30190185549E+02  0.93041937173E+02  0.87381258249E+02 0.  0.
         13    1    3    3    0    0  0.14277716278E+02  0.47518569575E+01  0.57407204391E+02  0.59346706789E+02  0.10566000000E+00 0. -1.
         22    1    1    0    0    0  0.50907029739E+01 -0.91627080833E+01 -0.30190185549E+02  0.31958062827E+02  0.00000000000E+00 0. -1.
</event>
<event>
 5    1  0.6903325E-004  0.9118800E+02  0.7818608E-02  0.1130116E+00
         25   -1    0    0    0    0  0.00000000000E+00  0.00000000000E+00  0.99999998245E-14  0.12500000000E+03  0.12500000000E+03 0.  0.
        -13    1    3    3    0    0  0.38521786033E+02 -0.61826057668E+01  0.13477020500E+02  0.41277037913E+02  0.10566000000E+00 0. -1.
         23    2    1    0    0    0 -0.12539679290E+02 -0.24396593316E+02  0.10685243796E+02  0.95561729719E+02  0.90914423662E+02 0.  0.
         13    1    3    3    0    0 -0.51061465323E+02 -0.18213987550E+02 -0.27917767037E+01  0.54284691807E+02  0.10566000000E+00 0.  1.
         22    1    1    0    0    0  0.12539679290E+02  0.24396593316E+02 -0.10685243796E+02  0.29438270281E+02  0.00000000000E+00 0.  1.
</event>
<event>
 5    1  0.6903325E-004  0.9118800E+02  0.7818608E-02  0.1130116E+00
         25   -1    0    0    0    0  0.00000000000E+00  0.00000000000E+00  0.99999998245E-14  0.12500000000E+03  0.12500000000E+03 0.  0.
        -13    1    3    3    0    0  0.23792789513E+02  0.52062338783E+02 -0.14696392877E+02  0.59098046330E+02  0.10566000000E+00 0. -1.
         23    2    1    0    0    0  0.15381251816E+02  0.22400198807E+02  0.71706053749E+01  0.96897163925E+02  0.92732362104E+02 0.  0.
         13    1    3    3    0    0 -0.84115376972E+01 -0.29662139977E+02  0.21866998252E+02  0.37799117596E+02  0.10566000000E+00 0.  1.
         22    1    1    0    0    0 -0.15381251816E+02 -0.22400198807E+02 -0.71706053749E+01  0.28102836075E+02  0.00000000000E+00 0. -1.
</event>
<event>
 5    1  0.6903325E-004  0.9118800E+02  0.7818608E-02  0.1130116E+00
         25   -1    0    0    0    0  0.00000000000E+00  0.00000000000E+00  0.99999998245E-14  0.12500000000E+03  0.12500000000E+03 0.  0.
        -13    1    3    3    0    0  0.31776133761E+02  0.56561827209E+01  0.29058311469E+02  0.43429387622E+02  0.10566000000E+00 0. -1.
         23    2    1    0    0    0 -0.16282291307E+02 -0.76651484788E+01  0.25981068992E+02  0.93394882418E+02  0.87884700628E+02 0.  0.
         13    1    3    3    0    0 -0.48058425068E+02 -0.13321331200E+02 -0.30772424765E+01  0.49965494796E+02  0.10566000000E+00 0.  1.
         22    1    1    0    0    0  0.16282291307E+02  0.76651484788E+01 -0.25981068992E+02  0.31605117582E+02  0.00000000000E+00 0.  1.
</event>
<event>
 5    1  0.6903325E-004  0.9118800E+02  0.7818608E-02  0.1130116E+00
         25   -1    0    0    0    0  0.00000000000E+00  0.00000000000E+00  0.99999998245E-14  0.12500000000E+03  0.12500000000E+03 0.  0.
        -13    1    3    3    0    0  0.30008514395E+02 -0.20784763498E+02 -0.43742857844E+01  0.36764967973E+02  0.10566000000E+00 0. -1.
         23    2    1    0    0    0 -0.56686667712E+00  0.27306922646E+02  0.10623621595E+02  0.95693845390E+02  0.91095890948E+02 0.  0.
         13    1    3    3    0    0 -0.30575381072E+02  0.48091686145E+02  0.14997907379E+02  0.58928877418E+02  0.10566000000E+00 0.  1.
         22    1    1    0    0    0  0.56686667712E+00 -0.27306922646E+02 -0.10623621595E+02  0.29306154610E+02  0.00000000000E+00 0.  1.
</event>
<event>
 5    1  0.6903325E-004  0.9118800E+02  0.7818608E-02  0.1130116E+00
         25   -1    0    0    0    0  0.00000000000E+00  0.00000000000E+00  0.99999998245E-14  0.12500000000E+03  0.12500000000E+03 0.  0.
        -13    1    3    3    0    0  0.21391249881E+02 -0.80308915194E+01  0.33839950239E+02  0.40831779122E+02  0.10566000000E+00 0.  1.
         23    2    1    0    0    0 -0.20350207797E+02 -0.21322700387E+02  0.11302776811E+01  0.95503118185E+02  0.90833801782E+02 0.  0.
         13    1    3    3    0    0 -0.41741457678E+02 -0.13291808868E+02 -0.32709672558E+02  0.54671339063E+02  0.10566000000E+00 0. -1.
         22    1    1    0    0    0  0.20350207797E+02  0.21322700387E+02 -0.11302776811E+01  0.29496881815E+02  0.00000000000E+00 0. -1.
</event>
<event>
 5    1  0.6903325E-004  0.9118800E+02  0.7818608E-02  0.1130116E+00
         25   -1    0    0    0    0  0.00000000000E+00  0.00000000000E+00  0.99999998245E-14  0.12500000000E+03  0.12500000000E+03 0.  0.
        -13    1    3    3    0    0  0.20313590995E+02 -0.14598304852E+02  0.21926686574E+02  0.33264744578E+02  0.10566000000E+00 0. -1.
         23    2    1    0    0    0 -0.14677973647E+02 -0.18962950297E+02 -0.23937031027E+02  0.91117587915E+02  0.84583668511E+02 0.  0.
         13    1    3    3    0    0 -0.34991564642E+02 -0.43646454450E+01 -0.45863717601E+02  0.57852843337E+02  0.10566000000E+00 0.  1.
         22    1    1    0    0    0  0.14677973647E+02  0.18962950297E+02  0.23937031027E+02  0.33882412085E+02  0.00000000000E+00 0.  1.
</event>
<event>
 5    1  0.6903325E-004  0.9118800E+02  0.7818608E-02  0.1130116E+00
         25   -1    0    0    0    0  0.00000000000E+00  0.00000000000E+00  0.99999998245E-14  0.12500000000E+03  0.12500000000E+03 0.  0.
        -13    1    3    3    0    0 -0.37773271036E+02 -0.16668718453E+01 -0.37469362726E+02  0.53231219915E+02  0.10566000000E+00 0.  1.
         23    2    1    0    0    0 -0.19163506589E+02  0.21743125049E+02 -0.86731791489E+01  0.94747272714E+02  0.89787628204E+02 0.  0.
         13    1    3    3    0    0  0.18609764447E+02  0.23409996894E+02  0.28796183577E+02  0.41516052799E+02  0.10566000000E+00 0. -1.
         22    1    1    0    0    0  0.19163506589E+02 -0.21743125049E+02  0.86731791489E+01  0.30252727286E+02  0.00000000000E+00 0.  1.
</event>
<event>
 5    1  0.6903325E-004  0.9118800E+02  0.7818608E-02  0.1130116E+00
         25   -1    0    0    0    0  0.00000000000E+00  0.00000000000E+00  0.99999998245E-14  0.12500000000E+03  0.12500000000E+03 0.  0.
        -13    1    3    3    0    0 -0.23665019912E+02 -0.28265476743E+01  0.22564057744E+02  0.32820274300E+02  0.10566000000E+00 0.  1.
         23    2    1    0    0    0  0.26713731601E+02  0.17455420250E+02 -0.31979972321E+01  0.92929104496E+02  0.87219700320E+02 0.  0.
         13    1    3    3    0    0  0.50378751513E+02  0.20281967924E+02 -0.25762054976E+02  0.60108830196E+02  0.10566000000E+00 0. -1.
         22    1    1    0    0    0 -0.26713731601E+02 -0.17455420250E+02  0.31979972321E+01  0.32070895504E+02  0.00000000000E+00 0. -1.
</event>
<event>
 5    1  0.6903325E-004  0.9118800E+02  0.7818608E-02  0.1130116E+00
         25   -1    0    0    0    0  0.00000000000E+00  0.00000000000E+00  0.99999998245E-14  0.12500000000E+03  0.12500000000E+03 0.  0.
        -13    1    3    3    0    0 -0.45843925451E+02 -0.71848642048E+00 -0.74692235078E+01  0.46454086875E+02  0.10566000000E+00 0. -1.
         23    2    1    0    0    0 -0.22337719329E+01 -0.11503945137E+02 -0.27095938677E+02  0.95478475927E+02  0.90799884261E+02 0.  0.
         13    1    3    3    0    0  0.43610153518E+02 -0.10785458716E+02 -0.19626715170E+02  0.49024389053E+02  0.10566000000E+00 0.  1.
         22    1    1    0    0    0  0.22337719329E+01  0.11503945137E+02  0.27095938677E+02  0.29521524073E+02  0.00000000000E+00 0. -1.
</event>
<event>
 5    1  0.6903325E-004  0.9118800E+02  0.7818608E-02  0.1130116E+00
         25   -1    0    0    0    0  0.00000000000E+00  0.00000000000E+00  0.99999998245E-14  0.12500000000E+03  0.12500000000E+03 0.  0.
        -13    1    3    3    0    0  0.44863544422E+02  0.16083225308E+02  0.11134701977E+02  0.48942828960E+02  0.10566000000E+00 0.  1.
         23    2    1    0    0    0 -0.42372258013E+00  0.19751851737E+02  0.21765054956E+02  0.95605565066E+02  0.90974673764E+02 0.  0.
         13    1    3    3    0    0 -0.45287267002E+02  0.36686264287E+01  0.10630352980E+02  0.46662736106E+02  0.10566000000E+00 0. -1.
         22    1    1    0    0    0  0.42372258013E+00 -0.19751851737E+02 -0.21765054956E+02  0.29394434934E+02  0.00000000000E+00 0.  1.
</event>
<event>
 5    1  0.6903325E-004  0.9118800E+02  0.7818608E-02  0.1130116E+00
         25   -1    0    0    0    0  0.00000000000E+00  0.00000000000E+00  0.99999998245E-14  0.12500000000E+03  0.12500000000E+03 0.  0.
        -13    1    3    3    0    0 -0.51700271416E+02  0.17329223944E+02 -0.19453360876E+02  0.57893561649E+02  0.10566000000E+00 0. -1.
         23    2    1    0    0    0 -0.25328819392E+02 -0.72575726388E+01 -0.16141821395E+02  0.94100487862E+02  0.88882630280E+02 0.  0.
         13    1    3    3    0    0  0.26371452024E+02 -0.24586796583E+02  0.33115394810E+01  0.36206926213E+02  0.10566000000E+00 0.  1.
         22    1    1    0    0    0  0.25328819392E+02  0.72575726388E+01  0.16141821395E+02  0.30899512138E+02  0.00000000000E+00 0. -1.
</event>
<event>
 5    1  0.6903325E-004  0.9118800E+02  0.7818608E-02  0.1130116E+00
         25   -1    0    0    0    0  0.00000000000E+00  0.00000000000E+00  0.99999998245E-14  0.12500000000E+03  0.12500000000E+03 0.  0.
        -13    1    3    3    0    0  0.40609696955E+02 -0.10768040780E+02  0.27953183542E+02  0.50462756793E+02  0.10566000000E+00 0.  1.
         23    2    1    0    0    0  0.23764342070E+02  0.15295953024E+02 -0.56231925270E+01  0.96184545342E+02  0.91766749619E+02 0.  0.
         13    1    3    3    0    0 -0.16845354885E+02  0.26063993804E+02 -0.33576376069E+02  0.45721788549E+02  0.10566000000E+00 0. -1.
         22    1    1    0    0    0 -0.23764342070E+02 -0.15295953024E+02  0.56231925270E+01  0.28815454658E+02  0.00000000000E+00 0.  1.
</event>
<event>
 5    1  0.6903325E-004  0.9118800E+02  0.7818608E-02  0.1130116E+00
         25   -1    0    0    0    0  0.00000000000E+00  0.00000000000E+00  0.99999998245E-14  0.12500000000E+03  0.12500000000E+03 0.  0.
        -13    1    3    3    0    0 -0.42617252598E+02 -0.63237606997E+01 -0.21963031261E+02  0.48359136413E+02  0.10566000000E+00 0.  1.
         23    2    1    0    0    0 -0.10936111357E+02 -0.25960322395E+02  0.74748695397E+01  0.95855351347E+02  0.91317237348E+02 0.  0.
         13    1    3    3    0    0  0.31681141241E+02 -0.19636561695E+02  0.29437900801E+02  0.47496214934E+02  0.10566000000E+00 0. -1.
         22    1    1    0    0    0  0.10936111357E+02  0.25960322395E+02 -0.74748695397E+01  0.29144648653E+02  0.00000000000E+00 0. -1.
</event>
<event>
 5    1  0.6903325E-004  0.9118800E+02  0.7818608E-02  0.1130116E+00
         25   -1    0    0    0    0  0.00000000000E+00  0.00000000000E+00  0.99999998245E-14  0.12500000000E+03  0.12500000000E+03 0.  0.
        -13    1    3    3    0    0  0.51528213040E+02  0.12358204449E+02  0.20051061084E+02  0.56656316249E+02  0.10566000000E+00 0.  1.
         23    2    1    0    0    0  0.12430929386E+02  0.14856658419E+02  0.21754951933E+02  0.95870526294E+02  0.91338007278E+02 0.  0.
         13    1    3    3    0    0 -0.39097283654E+02  0.24984539709E+01  0.17038908487E+01  0.39214210045E+02  0.10566000000E+00 0. -1.
         22    1    1    0    0    0 -0.12430929386E+02 -0.14856658419E+02 -0.21754951933E+02  0.29129473706E+02  0.00000000000E+00 0.  1.
</event>
<event>
 5    1  0.6903325E-004  0.9118800E+02  0.7818608E-02  0.1130116E+00
         25   -1    0    0    0    0  0.00000000000E+00  0.00000000000E+00  0.99999998245E-14  0.12500000000E+03  0.12500000000E+03 0.  0.
        -13    1    3    3    0    0  0.57628226019E+01  0.27356750781E+02 -0.25205232823E+02  0.37641956157E+02  0.10566000000E+00 0. -1.
         23    2    1    0    0    0  0.14938402643E+02 -0.25738361324E+02 -0.87379873347E+01  0.93984333961E+02  0.88719126969E+02 0.  0.
         13    1    3    3    0    0  0.91755800409E+01 -0.53095112106E+02  0.16467245488E+02  0.56342377804E+02  0.10566000000E+00 0.  1.
         22    1    1    0    0    0 -0.14938402643E+02  0.25738361324E+02  0.87379873347E+01  0.31015666039E+02  0.00000000000E+00 0.  1.
</event>
<event>
 5    1  0.6903325E-004  0.9118800E+02  0.7818608E-02  0.1130116E+00
         25   -1    0    0    0    0  0.00000000000E+00  0.00000000000E+00  0.99999998245E-14  0.12500000000E+03  0.12500000000E+03 0.  0.
        -13    1    3    3    0    0 -0.54736630766E+02 -0.13248731577E+01 -0.89622312718E+01  0.55481409408E+02  0.10566000000E+00 0.  1.
         23    2    1    0    0    0 -0.23884008427E+02 -0.57191034669E+01  0.16236764854E+02  0.95558761304E+02  0.90910342240E+02 0.  0.
         13    1    3    3    0    0  0.30852622339E+02 -0.43942303092E+01  0.25198996126E+02  0.40077351896E+02  0.10566000000E+00 0. -1.
         22    1    1    0    0    0  0.23884008427E+02  0.57191034669E+01 -0.16236764854E+02  0.29441238696E+02  0.00000000000E+00 0.  1.
</event>
<event>
 5    1  0.6903325E-004  0.9118800E+02  0.7818608E-02  0.1130116E+00
         25   -1    0    0    0    0  0.00000000000E+00  0.00000000000E+00  0.99999998245E-14  0.12500000000E+03  0.12500000000E+03 0.  0.
        -13    1    3    3    0    0 -0.43626102920E+02  0.10972957492E+01  0.23700710854E+02  0.49660605846E+02  0.10566000000E+00 0. -1.
         23    2    1    0    0    0 -0.15100497084E+02 -0.27340760096E+02  0.10145070069E+02  0.92160014897E+02  0.86110415888E+02 0.  0.
         13    1    3    3    0    0  0.28525605836E+02 -0.28438055845E+02 -0.13555640785E+02  0.42499409051E+02  0.10566000000E+00 0.  1.
         22    1    1    0    0    0  0.15100497084E+02  0.27340760096E+02 -0.10145070069E+02  0.32839985103E+02  0.00000000000E+00 0. -1.
</event>
<event>
 5    1  0.6903325E-004  0.9118800E+02  0.7818608E-02  0.1130116E+00
         25   -1    0    0    0    0  0.00000000000E+00  0.00000000000E+00  0.99999998245E-14  0.12500000000E+03  0.12500000000E+03 0.  0.
        -13    1    3    3    0    0 -0.38433643061E+02 -0.14853820539E+02  0.34643850748E+02  0.53832968173E+02  0.10566000000E+00 0.  1.
         23    2    1    0    0    0 -0.13532568001E+02 -0.26376163775E+02  0.38038285435E+01  0.95111849777E+02  0.90293756396E+02 0.  0.
         13    1    3    3    0    0  0.24901075061E+02 -0.11522343236E+02 -0.30840022205E+02  0.41278881604E+02  0.10566000000E+00 0. -1.
         22    1    1    0    0    0  0.13532568001E+02  0.26376163775E+02 -0.38038285435E+01  0.29888150223E+02  0.00000000000E+00 0.  1.
</event>
<event>
 5    1  0.6903325E-004  0.9118800E+02  0.7818608E-02  0.1130116E+00
         25   -1    0    0    0    0  0.00000000000E+00  0.00000000000E+00  0.99999998245E-14  0.12500000000E+03  0.12500000000E+03 0.  0.
        -13    1    3    3    0    0 -0.55161560091E+02 -0.19279824531E+02 -0.17688347271E+02  0.61052421237E+02  0.10566000000E+00 0. -1.
         23    2    1    0    0    0 -0.21121902765E+02 -0.16100611591E+02 -0.12553715299E+02  0.95623815124E+02  0.90999746050E+02 0.  0.
         13    1    3    3    0    0  0.34039657326E+02  0.31792129403E+01  0.51346319721E+01  0.34571393887E+02  0.10566000000E+00 0.  1.
         22    1    1    0    0    0  0.21121902765E+02  0.16100611591E+02  0.12553715299E+02  0.29376184876E+02  0.00000000000E+00 0. -1.
</event>
<event>
 5    1  0.6903325E-004  0.9118800E+02  0.7818608E-02  0.1130116E+00
         25   -1    0    0    0    0  0.00000000000E+00  0.00000000000E+00  0.99999998245E-14  0.12500000000E+03  0.12500000000E+03 0.  0.
        -13    1    3    3    0    0 -0.60971923840E+02  0.11895602537E+02  0.50758294013E+01  0.62328613530E+02  0.10566000000E+00 0. -1.
         23    2    1    0    0    0 -0.29604996781E+02  0.91096524842E+01  0.24726062444E+01  0.93926612923E+02  0.88637764135E+02 0.  0.
         13    1    3    3    0    0  0.31366927059E+02 -0.27859500524E+01 -0.26032231569E+01  0.31597999393E+02  0.10566000000E+00 0.  1.
         22    1    1    0    0    0  0.29604996781E+02 -0.91096524842E+01 -0.24726062444E+01  0.31073387077E+02  0.00000000000E+00 0. -1.
</event>
<event>
 5    1  0.6903325E-004  0.9118800E+02  0.7818608E-02  0.1130116E+00
         25   -1    0    0    0    0  0.00000000000E+00  0.00000000000E+00  0.99999998245E-14  0.12500000000E+03  0.12500000000E+03 0.  0.
        -13    1    3    3    0    0 -0.16549128584E+02 -0.28109583627E+02 -0.11786540554E+02  0.34683656826E+02  0.10566000000E+00 0.  1.
         23    2    1    0    0    0 -0.10048698408E+02  0.16529542162E+02  0.25349203635E+02  0.93112945751E+02  0.87482777949E+02 0.  0.
         13    1    3    3    0    0  0.65004301760E+01  0.44639125789E+02  0.37135744189E+02  0.58429288924E+02  0.10566000000E+00 0. -1.
         22    1    1    0    0    0  0.10048698408E+02 -0.16529542162E+02 -0.25349203635E+02  0.31887054249E+02  0.00000000000E+00 0. -1.
</event>
<event>
 5    1  0.6903325E-004  0.9118800E+02  0.7818608E-02  0.1130116E+00
         25   -1    0    0    0    0  0.00000000000E+00  0.00000000000E+00  0.99999998245E-14  0.12500000000E+03  0.12500000000E+03 0.  0.
        -13    1    3    3    0    0  0.13475485724E+02 -0.35287772886E+02  0.67952942406E+01  0.38379718845E+02  0.10566000000E+00 0. -1.
         23    2    1    0    0    0  0.55818380916E+01  0.19358482833E+01 -0.31845575193E+02  0.92611034526E+02  0.86762656896E+02 0.  0.
         13    1    3    3    0    0 -0.78936476323E+01  0.37223621170E+02 -0.38640869434E+02  0.54231315682E+02  0.10566000000E+00 0.  1.
         22    1    1    0    0    0 -0.55818380916E+01 -0.19358482833E+01  0.31845575193E+02  0.32388965474E+02  0.00000000000E+00 0. -1.
</event>
<event>
 5    1  0.6903325E-004  0.9118800E+02  0.7818608E-02  0.1130116E+00
         25   -1    0    0    0    0  0.00000000000E+00  0.00000000000E+00  0.99999998245E-14  0.12500000000E+03  0.12500000000E+03 0.  0.
        -13    1    3    3    0    0  0.32674764965E+01 -0.10045973161E+02 -0.50570718875E+02  0.51662430749E+02  0.10566000000E+00 0.  1.
         23    2    1    0    0    0  0.19002562722E+02  0.14281331258E+02 -0.18529317454E+02  0.94860500704E+02  0.89945123136E+02 0.  0.
         13    1    3    3    0    0  0.15735086225E+02  0.24327304419E+02  0.32041401420E+02  0.43198069955E+02  0.10566000000E+00 0. -1.
         22    1    1    0    0    0 -0.19002562722E+02 -0.14281331258E+02  0.18529317454E+02  0.30139499296E+02  0.00000000000E+00 0.  1.
</event>
<event>
 5    1  0.6903325E-004  0.9118800E+02  0.7818608E-02  0.1130116E+00
         25   -1    0    0    0    0  0.00000000000E+00  0.00000000000E+00  0.99999998245E-14  0.12500000000E+03  0.12500000000E+03 0.  0.
        -13    1    3    3    0    0 -0.31554779658E+02  0.12429114247E+02  0.84414150860E+01  0.34949329792E+02  0.10566000000E+00 0.  1.
         23    2    1    0    0    0  0.28105843479E+02  0.41845822828E+01 -0.35634367268E+01  0.96361786929E+02  0.92007862340E+02 0.  0.
         13    1    3    3    0    0  0.59660623138E+02 -0.82445319641E+01 -0.12004851813E+02  0.61412457137E+02  0.10566000000E+00 0. -1.
         22    1    1    0    0    0 -0.28105843479E+02 -0.41845822828E+01  0.35634367268E+01  0.28638213071E+02  0.00000000000E+00 0. -1.
</event>
<event>
 5    1  0.6903325E-004  0.9118800E+02  0.7818608E-02  0.1130116E+00
         25   -1    0    0    0    0  0.00000000000E+00  0.00000000000E+00  0.99999998245E-14  0.12500000000E+03  0.12500000000E+03 0.  0.
        -13    1    3    3    0    0  0.12489167052E+02 -0.70402002115E+01  0.39637775945E+02  0.42151016104E+02  0.10566000000E+00 0. -1.
         23    2    1    0    0    0  0.22102655320E+02  0.10810488601E+02 -0.11998806251E+02  0.97625460964E+02  0.93708938961E+02 0.  0.
         13    1    3    3    0    0  0.96134882676E+01  0.17850688813E+02 -0.51636582195E+02  0.55474444861E+02  0.10566000000E+00 0.  1.
         22    1    1    0    0    0 -0.22102655320E+02 -0.10810488601E+02  0.11998806251E+02  0.27374539036E+02  0.00000000000E+00 0.  1.
</event>
<event>
 5    1  0.6903325E-004  0.9118800E+02  0.7818608E-02  0.1130116E+00
         25   -1    0    0    0    0  0.00000000000E+00  0.00000000000E+00  0.99999998245E-14  0.12500000000E+03  0.12500000000E+03 0.  0.
        -13    1    3    3    0    0 -0.29334367816E+02 -0.45183712626E+02 -0.23616158015E+02  0.58820125002E+02  0.10566000000E+00 0. -1.
         23    2    1    0    0    0 -0.12321799507E+02 -0.11589065089E+02 -0.22958701032E+02  0.96482722328E+02  0.92172016263E+02 0.  0.
         13    1    3    3    0    0  0.17012568309E+02  0.33594647537E+02  0.65745698315E+00  0.37662597326E+02  0.10566000000E+00 0.  1.
         22    1    1    0    0    0  0.12321799507E+02  0.11589065089E+02  0.22958701032E+02  0.28517277672E+02  0.00000000000E+00 0. -1.
</event>
<event>
 5    1  0.6903325E-004  0.9118800E+02  0.7818608E-02  0.1130116E+00
         25   -1    0    0    0    0  0.00000000000E+00  0.00000000000E+00  0.99999998245E-14  0.12500000000E+03  0.12500000000E+03 0.  0.
        -13    1    3    3    0    0 -0.26822019956E+02 -0.36997159963E+02 -0.11731136231E+02  0.47178822804E+02  0.10566000000E+00 0. -1.
         23    2    1    0    0    0 -0.21805528846E+02  0.10226965005E+02 -0.17795205256E+02  0.95054362061E+02  0.90214137003E+02 0.  0.
         13    1    3    3    0    0  0.50164911096E+01  0.47224124968E+02 -0.60640690242E+01  0.47875539257E+02  0.10566000000E+00 0.  1.
         22    1    1    0    0    0  0.21805528846E+02 -0.10226965005E+02  0.17795205256E+02  0.29945637939E+02  0.00000000000E+00 0. -1.
</event>
<event>
 5    1  0.6903325E-004  0.9118800E+02  0.7818608E-02  0.1130116E+00
         25   -1    0    0    0    0  0.00000000000E+00  0.00000000000E+00  0.99999998245E-14  0.12500000000E+03  0.12500000000E+03 0.  0.
        -13    1    3    3    0    0  0.33046316086E+02 -0.23100936679E+02  0.30626089024E+02  0.50632803352E+02  0.10566000000E+00 0.  1.
         23    2    1    0    0    0  0.12928277337E+02  0.15950227759E+02  0.21053531226E+02  0.95592495898E+02  0.90956714840E+02 0.  0.
         13    1    3    3    0    0 -0.20118038749E+02  0.39051164437E+02 -0.95725577985E+01  0.44959692546E+02  0.10566000000E+00 0. -1.
         22    1    1    0    0    0 -0.12928277337E+02 -0.15950227759E+02 -0.21053531226E+02  0.29407504102E+02  0.00000000000E+00 0.  1.
</event>
<event>
 5    1  0.6903325E-004  0.9118800E+02  0.7818608E-02  0.1130116E+00
         25   -1    0    0    0    0  0.00000000000E+00  0.00000000000E+00  0.99999998245E-14  0.12500000000E+03  0.12500000000E+03 0.  0.
        -13    1    3    3    0    0 -0.18029682544E+02 -0.87620782339E+01  0.27863002898E+02  0.34324940817E+02  0.10566000000E+00 0. -1.
         23    2    1    0    0    0 -0.60101440116E+01  0.19066297954E+02 -0.23611575928E+02  0.94062125695E+02  0.88828663300E+02 0.  0.
         13    1    3    3    0    0  0.12019538532E+02  0.27828376188E+02 -0.51474578826E+02  0.59737184878E+02  0.10566000000E+00 0.  1.
         22    1    1    0    0    0  0.60101440116E+01 -0.19066297954E+02  0.23611575928E+02  0.30937874305E+02  0.00000000000E+00 0.  1.
</event>
<event>
 5    1  0.6903325E-004  0.9118800E+02  0.7818608E-02  0.1130116E+00
         25   -1    0    0    0    0  0.00000000000E+00  0.00000000000E+00  0.99999998245E-14  0.12500000000E+03  0.12500000000E+03 0.  0.
        -13    1    3    3    0    0 -0.31551960190E+02  0.22853002629E+02 -0.32482123174E+02  0.50723617881E+02  0.10566000000E+00 0.  1.
         23    2    1    0    0    0  0.39046498580E+01 -0.58508467934E+01 -0.27500898853E+02  0.96613768541E+02  0.92349564889E+02 0.  0.
         13    1    3    3    0    0  0.35456610048E+02 -0.28703849422E+02  0.49812243207E+01  0.45890150660E+02  0.10566000000E+00 0. -1.
         22    1    1    0    0    0 -0.39046498580E+01  0.58508467934E+01  0.27500898853E+02  0.28386231459E+02  0.00000000000E+00 0.  1.
</event>
<event>
 5    1  0.6903325E-004  0.9118800E+02  0.7818608E-02  0.1130116E+00
         25   -1    0    0    0    0  0.00000000000E+00  0.00000000000E+00  0.99999998245E-14  0.12500000000E+03  0.12500000000E+03 0.  0.
        -13    1    3    3    0    0 -0.21684368728E+02  0.34562485879E+02  0.50336160076E+01  0.41111138776E+02  0.10566000000E+00 0.  1.
         23    2    1    0    0    0  0.12114341422E+02  0.58326545167E+01 -0.26328229868E+02  0.95437307044E+02  0.90743191266E+02 0.  0.
         13    1    3    3    0    0  0.33798710150E+02 -0.28729831363E+02 -0.31361845876E+02  0.54326168268E+02  0.10566000000E+00 0. -1.
         22    1    1    0    0    0 -0.12114341422E+02 -0.58326545167E+01  0.26328229868E+02  0.29562692956E+02  0.00000000000E+00 0. -1.
</event>
<event>
 5    1  0.6903325E-004  0.9118800E+02  0.7818608E-02  0.1130116E+00
         25   -1    0    0    0    0  0.00000000000E+00  0.00000000000E+00  0.99999998245E-14  0.12500000000E+03  0.12500000000E+03 0.  0.
        -13    1    3    3    0    0 -0.31791912529E+02  0.88981105672E+01 -0.23162162332E+02  0.40328637490E+02  0.10566000000E+00 0. -1.
         23    2    1    0    0    0  0.19779038589E+02 -0.97357358656E+01 -0.19967983113E+02  0.95255836372E+02  0.90492867636E+02 0.  0.
         13    1    3    3    0    0  0.51570951117E+02 -0.18633846433E+02  0.31941792186E+01  0.54927198881E+02  0.10566000000E+00 0.  1.
         22    1    1    0    0    0 -0.19779038589E+02  0.97357358656E+01  0.19967983113E+02  0.29744163628E+02  0.00000000000E+00 0.  1.
</event>
<event>
 5    1  0.6903325E-004  0.9118800E+02  0.7818608E-02  0.1130116E+00
         25   -1    0    0    0    0  0.00000000000E+00  0.00000000000E+00  0.99999998245E-14  0.12500000000E+03  0.12500000000E+03 0.  0.
        -13    1    3    3    0    0 -0.12435295587E+02 -0.18293954355E+02  0.23259140396E+02  0.32098350709E+02  0.10566000000E+00 0. -1.
         23    2    1    0    0    0  0.27916764647E+02 -0.14723996299E+02 -0.16949275302E+02  0.89175151799E+02  0.81662647212E+02 0.  0.
         13    1    3    3    0    0  0.40352060235E+02  0.35699580557E+01 -0.40208415697E+02  0.57076801090E+02  0.10566000000E+00 0.  1.
         22    1    1    0    0    0 -0.27916764647E+02  0.14723996299E+02  0.16949275302E+02  0.35824848201E+02  0.00000000000E+00 0.  1.
</event>
<event>
 5    1  0.6903325E-004  0.9118800E+02  0.7818608E-02  0.1130116E+00
         25   -1    0    0    0    0  0.00000000000E+00  0.00000000000E+00  0.99999998245E-14  0.12500000000E+03  0.12500000000E+03 0.  0.
        -13    1    3    3    0    0 -0.13507061186E+02 -0.30269269961E+02  0.38681026340E+02  0.50940184222E+02  0.10566000000E+00 0. -1.
         23    2    1    0    0    0  0.18298881096E+02 -0.22591705225E+02  0.10608736996E+02  0.94051987221E+02  0.88814395260E+02 0.  0.
         13    1    3    3    0    0  0.31805942282E+02  0.76775647361E+01 -0.28072289345E+02  0.43111802999E+02  0.10566000000E+00 0.  1.
         22    1    1    0    0    0 -0.18298881096E+02  0.22591705225E+02 -0.10608736996E+02  0.30948012779E+02  0.00000000000E+00 0.  1.
</event>
<event>
 5    1  0.6903325E-004  0.9118800E+02  0.7818608E-02  0.1130116E+00
         25   -1    0    0    0    0  0.00000000000E+00  0.00000000000E+00  0.99999998245E-14  0.12500000000E+03  0.12500000000E+03 0.  0.
        -13    1    3    3    0    0  0.56537146033E+02 -0.22848499505E+00  0.54140878171E+01  0.56796343174E+02  0.10566000000E+00 0.  1.
         23    2    1    0    0    0  0.24316063809E+02 -0.15457971908E+02 -0.83499204221E+01  0.95000982920E+02  0.90140144942E+02 0.  0.
         13    1    3    3    0    0 -0.32221082224E+02 -0.15229486913E+02 -0.13764008239E+02  0.38204639747E+02  0.10566000000E+00 0. -1.
         22    1    1    0    0    0 -0.24316063809E+02  0.15457971908E+02  0.83499204221E+01  0.29999017080E+02  0.00000000000E+00 0.  1.
</event>
<event>
 5    1  0.6903325E-004  0.9118800E+02  0.7818608E-02  0.1130116E+00
         25   -1    0    0    0    0  0.00000000000E+00  0.00000000000E+00  0.99999998245E-14  0.12500000000E+03  0.12500000000E+03 0.  0.
        -13    1    3    3    0    0  0.37717097012E+02  0.61141053258E+01  0.39241546567E+02  0.54771085729E+02  0.10566000000E+00 0. -1.
         23    2    1    0    0    0  0.29450250108E+02 -0.10471434066E+01 -0.23524560239E-01  0.95531130084E+02  0.90872341892E+02 0.  0.
         13    1    3    3    0    0 -0.82668469049E+01 -0.71612487324E+01 -0.39265071127E+02  0.40760044355E+02  0.10566000000E+00 0.  1.
         22    1    1    0    0    0 -0.29450250108E+02  0.10471434066E+01  0.23524560239E-01  0.29468869916E+02  0.00000000000E+00 0. -1.
</event>
<event>
 5    1  0.6903325E-004  0.9118800E+02  0.7818608E-02  0.1130116E+00
         25   -1    0    0    0    0  0.00000000000E+00  0.00000000000E+00  0.99999998245E-14  0.12500000000E+03  0.12500000000E+03 0.  0.
        -13    1    3    3    0    0  0.28892268281E+02  0.48167495210E+02  0.24000835799E+02  0.61081274089E+02  0.10566000000E+00 0. -1.
         23    2    1    0    0    0  0.21405644518E+02  0.17700977196E+02  0.94944858679E+01  0.95645758861E+02  0.91029883639E+02 0.  0.
         13    1    3    3    0    0 -0.74866237632E+01 -0.30466518013E+02 -0.14506349931E+02  0.34564484773E+02  0.10566000000E+00 0.  1.
         22    1    1    0    0    0 -0.21405644518E+02 -0.17700977196E+02 -0.94944858679E+01  0.29354241139E+02  0.00000000000E+00 0. -1.
</event>
<event>
 5    1  0.6903325E-004  0.9118800E+02  0.7818608E-02  0.1130116E+00
         25   -1    0    0    0    0  0.00000000000E+00  0.00000000000E+00  0.99999998245E-14  0.12500000000E+03  0.12500000000E+03 0.  0.
        -13    1    3    3    0    0  0.28468727752E+02  0.13334818002E+02  0.91877569760E+01  0.32752280428E+02  0.10566000000E+00 0. -1.
         23    2    1    0    0    0 -0.29404818080E+02  0.12804360075E+02  0.12149658171E+02  0.90704094167E+02  0.83970373000E+02 0.  0.
         13    1    3    3    0    0 -0.57873545832E+02 -0.53045792647E+00  0.29619011950E+01  0.57951813738E+02  0.10566000000E+00 0.  1.
         22    1    1    0    0    0  0.29404818080E+02 -0.12804360075E+02 -0.12149658171E+02  0.34295905833E+02  0.00000000000E+00 0.  1.
</event>
<event>
 5    1  0.6903325E-004  0.9118800E+02  0.7818608E-02  0.1130116E+00
         25   -1    0    0    0    0  0.00000000000E+00  0.00000000000E+00  0.99999998245E-14  0.12500000000E+03  0.12500000000E+03 0.  0.
        -13    1    3    3    0    0 -0.34124548765E+02  0.10879070611E+02 -0.14456142472E+02  0.38624218115E+02  0.10566000000E+00 0. -1.
         23    2    1    0    0    0  0.14130510491E+02  0.19681937171E+02  0.15629457030E+02  0.96167207826E+02  0.91743130295E+02 0.  0.
         13    1    3    3    0    0  0.48255059256E+02  0.88028665597E+01  0.30085599502E+02  0.57542989711E+02  0.10566000000E+00 0.  1.
         22    1    1    0    0    0 -0.14130510491E+02 -0.19681937171E+02 -0.15629457030E+02  0.28832792174E+02  0.00000000000E+00 0.  1.
</event>
<event>
 5    1  0.6903325E-004  0.9118800E+02  0.7818608E-02  0.1130116E+00
         25   -1    0    0    0    0  0.00000000000E+00  0.00000000000E+00  0.99999998245E-14  0.12500000000E+03  0.12500000000E+03 0.  0.
        -13    1    3    3    0    0 -0.87167752309E+01  0.63320172489E+01  0.28727126145E+02  0.30681192178E+02  0.10566000000E+00 0. -1.
         23    2    1    0    0    0  0.26983542061E+02  0.76476886319E+01 -0.19603258710E+02  0.90781782110E+02  0.84085941318E+02 0.  0.
         13    1    3    3    0    0  0.35700317292E+02  0.13156713830E+01 -0.48330384855E+02  0.60100589932E+02  0.10566000000E+00 0.  1.
         22    1    1    0    0    0 -0.26983542061E+02 -0.76476886319E+01  0.19603258710E+02  0.34218217890E+02  0.00000000000E+00 0.  1.
</event>
<event>
 5    1  0.6903325E-004  0.9118800E+02  0.7818608E-02  0.1130116E+00
         25   -1    0    0    0    0  0.00000000000E+00  0.00000000000E+00  0.99999998245E-14  0.12500000000E+03  0.12500000000E+03 0.  0.
        -13    1    3    3    0    0  0.91206155497E+01 -0.23353459059E+02  0.29806931343E+02  0.38949120634E+02  0.10566000000E+00 0. -1.
         23    2    1    0    0    0 -0.31235445174E+02  0.46731919444E+01  0.12210976765E+02  0.91138521714E+02  0.84614599382E+02 0.  0.
         13    1    3    3    0    0 -0.40356060723E+02  0.28026651004E+02 -0.17595954578E+02  0.52189401080E+02  0.10566000000E+00 0.  1.
         22    1    1    0    0    0  0.31235445174E+02 -0.46731919444E+01 -0.12210976765E+02  0.33861478286E+02  0.00000000000E+00 0.  1.
</event>
<event>
 5    1  0.6903325E-004  0.9118800E+02  0.7818608E-02  0.1130116E+00
         25   -1    0    0    0    0  0.00000000000E+00  0.00000000000E+00  0.99999998245E-14  0.12500000000E+03  0.12500000000E+03 0.  0.
        -13    1    3    3    0    0 -0.27555999992E+02 -0.18063028428E+02  0.40050438208E+02  0.51861882884E+02  0.10566000000E+00 0. -1.
         23    2    1    0    0    0  0.77017554516E+01 -0.24136549967E+02  0.14716399452E+02  0.95700469387E+02  0.91104979813E+02 0.  0.
         13    1    3    3    0    0  0.35257755444E+02 -0.60735215389E+01 -0.25334038756E+02  0.43838586503E+02  0.10566000000E+00 0.  1.
         22    1    1    0    0    0 -0.77017554516E+01  0.24136549967E+02 -0.14716399452E+02  0.29299530613E+02  0.00000000000E+00 0.  1.
</event>
<event>
 5    1  0.6903325E-004  0.9118800E+02  0.7818608E-02  0.1130116E+00
         25   -1    0    0    0    0  0.00000000000E+00  0.00000000000E+00  0.99999998245E-14  0.12500000000E+03  0.12500000000E+03 0.  0.
        -13    1    3    3    0    0 -0.17025110543E+02  0.20056222508E+02 -0.31018005574E+02  0.40672279062E+02  0.10566000000E+00 0.  1.
         23    2    1    0    0    0 -0.17612701331E+02 -0.17445770213E+02  0.11757719780E+02  0.97562687433E+02  0.93625166799E+02 0.  0.
         13    1    3    3    0    0 -0.58759078854E+00 -0.37501992720E+02  0.42775725354E+02  0.56890408371E+02  0.10566000000E+00 0. -1.
         22    1    1    0    0    0  0.17612701331E+02  0.17445770213E+02 -0.11757719780E+02  0.27437312567E+02  0.00000000000E+00 0. -1.
</event>
<event>
 5    1  0.6903325E-004  0.9118800E+02  0.7818608E-02  0.1130116E+00
         25   -1    0    0    0    0  0.00000000000E+00  0.00000000000E+00  0.99999998245E-14  0.12500000000E+03  0.12500000000E+03 0.  0.
        -13    1    3    3    0    0 -0.50244765069E+02 -0.31117652086E+02  0.66341383323E+01  0.59471570045E+02  0.10566000000E+00 0.  1.
         23    2    1    0    0    0 -0.14537419564E+02 -0.24983295748E+02  0.42950386488E+01  0.95777594366E+02  0.91210737260E+02 0.  0.
         13    1    3    3    0    0  0.35707345504E+02  0.61343563381E+01 -0.23390996835E+01  0.36306024321E+02  0.10566000000E+00 0. -1.
         22    1    1    0    0    0  0.14537419564E+02  0.24983295748E+02 -0.42950386488E+01  0.29222405634E+02  0.00000000000E+00 0.  1.
</event>
<event>
 5    1  0.6903325E-004  0.9118800E+02  0.7818608E-02  0.1130116E+00
         25   -1    0    0    0    0  0.00000000000E+00  0.00000000000E+00  0.99999998245E-14  0.12500000000E+03  0.12500000000E+03 0.  0.
        -13    1    3    3    0    0  0.21807358660E+02 -0.45690284725E+02  0.19847258010E+02  0.54379112024E+02  0.10566000000E+00 0.  1.
         23    2    1    0    0    0  0.26073054463E+02 -0.17273500755E+02  0.26651275229E+02  0.83909022052E+02  0.73159110937E+02 0.  0.
         13    1    3    3    0    0  0.42656958029E+01  0.28416783971E+02  0.68040172192E+01  0.29529910028E+02  0.10566000000E+00 0. -1.
         22    1    1    0    0    0 -0.26073054463E+02  0.17273500755E+02 -0.26651275229E+02  0.41090977948E+02  0.00000000000E+00 0.  1.
</event>
<event>
 5    1  0.6903325E-004  0.9118800E+02  0.7818608E-02  0.1130116E+00
         25   -1    0    0    0    0  0.00000000000E+00  0.00000000000E+00  0.99999998245E-14  0.12500000000E+03  0.12500000000E+03 0.  0.
        -13    1    3    3    0    0 -0.17110418338E+02  0.38757614990E+02  0.45914420841E+02  0.62474509527E+02  0.10566000000E+00 0.  1.
         23    2    1    0    0    0 -0.83095439080E+01  0.18383921705E+02  0.23704539751E+02  0.93872483202E+02  0.88561395656E+02 0.  0.
         13    1    3    3    0    0  0.88008744300E+01 -0.20373693285E+02 -0.22209881090E+02  0.31397973675E+02  0.10566000000E+00 0. -1.
         22    1    1    0    0    0  0.83095439080E+01 -0.18383921705E+02 -0.23704539751E+02  0.31127516798E+02  0.00000000000E+00 0.  1.
</event>
<event>
 5    1  0.6903325E-004  0.9118800E+02  0.7818608E-02  0.1130116E+00
         25   -1    0    0    0    0  0.00000000000E+00  0.00000000000E+00  0.99999998245E-14  0.12500000000E+03  0.12500000000E+03 0.  0.
        -13    1    3    3    0    0 -0.41073889363E+02 -0.37910623480E+02  0.42652271285E+00  0.55896984227E+02  0.10566000000E+00 0. -1.
         23    2    1    0    0    0 -0.27750809387E+02  0.83899612166E+00  0.36396129547E+01  0.96998962188E+02  0.92869481246E+02 0.  0.
         13    1    3    3    0    0  0.13323079976E+02  0.38749619602E+02  0.32130902419E+01  0.41101977960E+02  0.10566000000E+00 0.  1.
         22    1    1    0    0    0  0.27750809387E+02 -0.83899612166E+00 -0.36396129547E+01  0.28001037812E+02  0.00000000000E+00 0.  1.
</event>
<event>
 5    1  0.6903325E-004  0.9118800E+02  0.7818608E-02  0.1130116E+00
         25   -1    0    0    0    0  0.00000000000E+00  0.00000000000E+00  0.99999998245E-14  0.12500000000E+03  0.12500000000E+03 0.  0.
        -13    1    3    3    0    0 -0.63140027719E+00  0.67569371734E+01 -0.36104122471E+02  0.36736544335E+02  0.10566000000E+00 0.  1.
         23    2    1    0    0    0  0.23584132247E+02  0.24163611274E+01  0.17377750904E+02  0.95605505253E+02  0.90974591581E+02 0.  0.
         13    1    3    3    0    0  0.24215532524E+02 -0.43405760459E+01  0.53481873375E+02  0.58868960918E+02  0.10566000000E+00 0. -1.
         22    1    1    0    0    0 -0.23584132247E+02 -0.24163611274E+01 -0.17377750904E+02  0.29394494747E+02  0.00000000000E+00 0. -1.
</event>
<event>
 5    1  0.6903325E-004  0.9118800E+02  0.7818608E-02  0.1130116E+00
         25   -1    0    0    0    0  0.00000000000E+00  0.00000000000E+00  0.99999998245E-14  0.12500000000E+03  0.12500000000E+03 0.  0.
        -13    1    3    3    0    0  0.40729752423E+02 -0.81652520567E+01 -0.19444092719E+02  0.45865760425E+02  0.10566000000E+00 0. -1.
         23    2    1    0    0    0  0.86285287664E+01 -0.20315528447E+02  0.17895869879E+02  0.96584610446E+02  0.92310089436E+02 0.  0.
         13    1    3    3    0    0 -0.32101223657E+02 -0.12150276390E+02  0.37339962599E+02  0.50718850022E+02  0.10566000000E+00 0.  1.
         22    1    1    0    0    0 -0.86285287664E+01  0.20315528447E+02 -0.17895869879E+02  0.28415389554E+02  0.00000000000E+00 0.  1.
</event>
<event>
 5    1  0.6903325E-004  0.9118800E+02  0.7818608E-02  0.1130116E+00
         25   -1    0    0    0    0  0.00000000000E+00  0.00000000000E+00  0.99999998245E-14  0.12500000000E+03  0.12500000000E+03 0.  0.
        -13    1    3    3    0    0 -0.25086158889E+02  0.16711006890E+01  0.52135490294E+02  0.57881158053E+02  0.10566000000E+00 0.  1.
         23    2    1    0    0    0  0.30388267447E+01  0.47120873056E+01  0.31771555497E+02  0.92737483460E+02  0.86944642532E+02 0.  0.
         13    1    3    3    0    0  0.28124985633E+02  0.30409866166E+01 -0.20363934797E+02  0.34856325408E+02  0.10566000000E+00 0. -1.
         22    1    1    0    0    0 -0.30388267447E+01 -0.47120873056E+01 -0.31771555497E+02  0.32262516540E+02  0.00000000000E+00 0.  1.
</event>
<event>
 5    1  0.6903325E-004  0.9118800E+02  0.7818608E-02  0.1130116E+00
         25   -1    0    0    0    0  0.00000000000E+00  0.00000000000E+00  0.99999998245E-14  0.12500000000E+03  0.12500000000E+03 0.  0.
        -13    1    3    3    0    0  0.41882439841E+02 -0.30287511813E+02  0.32664941280E+00  0.51687425963E+02  0.10566000000E+00 0.  1.
         23    2    1    0    0    0 -0.12427182931E+01 -0.27272248141E+02  0.98902033596E+01  0.95963195942E+02  0.91464741761E+02 0.  0.
         13    1    3    3    0    0 -0.43125158134E+02  0.30152636718E+01  0.95635539468E+01  0.44275769979E+02  0.10566000000E+00 0. -1.
         22    1    1    0    0    0  0.12427182931E+01  0.27272248141E+02 -0.98902033596E+01  0.29036804058E+02  0.00000000000E+00 0.  1.
</event>
<event>
 5    1  0.6903325E-004  0.9118800E+02  0.7818608E-02  0.1130116E+00
         25   -1    0    0    0    0  0.00000000000E+00  0.00000000000E+00  0.99999998245E-14  0.12500000000E+03  0.12500000000E+03 0.  0.
        -13    1    3    3    0    0  0.37545111827E+02  0.56976575929E+01  0.11713655605E+02  0.39740654447E+02  0.10566000000E+00 0. -1.
         23    2    1    0    0    0 -0.67883778700E+01  0.19852729481E+02 -0.19964899669E+02  0.96037780458E+02  0.91566615721E+02 0.  0.
         13    1    3    3    0    0 -0.44333489697E+02  0.14155071888E+02 -0.31678555274E+02  0.56297126012E+02  0.10566000000E+00 0.  1.
         22    1    1    0    0    0  0.67883778700E+01 -0.19852729481E+02  0.19964899669E+02  0.28962219542E+02  0.00000000000E+00 0. -1.
</event>
<event>
 5    1  0.6903325E-004  0.9118800E+02  0.7818608E-02  0.1130116E+00
         25   -1    0    0    0    0  0.00000000000E+00  0.00000000000E+00  0.99999998245E-14  0.12500000000E+03  0.12500000000E+03 0.  0.
        -13    1    3    3    0    0 -0.32410484221E+02  0.10605252349E+02 -0.91561647590E+01  0.35309451737E+02  0.10566000000E+00 0.  1.
         23    2    1    0    0    0  0.22029820861E+02 -0.16629878124E+02 -0.82589211148E+01  0.96188966843E+02  0.91772772164E+02 0.  0.
         13    1    3    3    0    0  0.54440305082E+02 -0.27235130473E+02  0.89724364417E+00  0.60879515106E+02  0.10566000000E+00 0. -1.
         22    1    1    0    0    0 -0.22029820861E+02  0.16629878124E+02  0.82589211148E+01  0.28811033157E+02  0.00000000000E+00 0. -1.
</event>
<event>
 5    1  0.6903325E-004  0.9118800E+02  0.7818608E-02  0.1130116E+00
         25   -1    0    0    0    0  0.00000000000E+00  0.00000000000E+00  0.99999998245E-14  0.12500000000E+03  0.12500000000E+03 0.  0.
        -13    1    3    3    0    0  0.11755863908E+02 -0.19409134465E+02  0.25508235819E+02  0.34140827400E+02  0.10566000000E+00 0. -1.
         23    2    1    0    0    0 -0.91664352360E+01  0.23253002695E+02 -0.14365884848E+02  0.96171120092E+02  0.91748460603E+02 0.  0.
         13    1    3    3    0    0 -0.20922299144E+02  0.42662137160E+02 -0.39874120667E+02  0.62030292693E+02  0.10566000000E+00 0.  1.
         22    1    1    0    0    0  0.91664352360E+01 -0.23253002695E+02  0.14365884848E+02  0.28828879908E+02  0.00000000000E+00 0.  1.
</event>
<event>
 5    1  0.6903325E-004  0.9118800E+02  0.7818608E-02  0.1130116E+00
         25   -1    0    0    0    0  0.00000000000E+00  0.00000000000E+00  0.99999998245E-14  0.12500000000E+03  0.12500000000E+03 0.  0.
        -13    1    3    3    0    0  0.14493834288E+02 -0.20660524956E+01 -0.50735729045E+02  0.52805919848E+02  0.10566000000E+00 0.  1.
         23    2    1    0    0    0  0.23970789160E+02 -0.19823707690E+02 -0.28310460102E+02  0.82939801823E+02  0.71483917462E+02 0.  0.
         13    1    3    3    0    0  0.94769548714E+01 -0.17757655195E+02  0.22425268943E+02  0.30133881974E+02  0.10566000000E+00 0. -1.
         22    1    1    0    0    0 -0.23970789160E+02  0.19823707690E+02  0.28310460102E+02  0.42060198177E+02  0.00000000000E+00 0.  1.
</event>
<event>
 5    1  0.6903325E-004  0.9118800E+02  0.7818608E-02  0.1130116E+00
         25   -1    0    0    0    0  0.00000000000E+00  0.00000000000E+00  0.99999998245E-14  0.12500000000E+03  0.12500000000E+03 0.  0.
        -13    1    3    3    0    0  0.85839314257E+01 -0.11143447458E+02  0.36114152895E+02  0.38756980059E+02  0.10566000000E+00 0. -1.
         23    2    1    0    0    0 -0.46783850348E+01  0.31411695406E+02  0.56594897723E+01  0.92741486096E+02  0.86950396917E+02 0.  0.
         13    1    3    3    0    0 -0.13262316461E+02  0.42555142864E+02 -0.30454663122E+02  0.53984506037E+02  0.10566000000E+00 0.  1.
         22    1    1    0    0    0  0.46783850348E+01 -0.31411695406E+02 -0.56594897723E+01  0.32258513904E+02  0.00000000000E+00 0.  1.
</event>
<event>
 5    1  0.6903325E-004  0.9118800E+02  0.7818608E-02  0.1130116E+00
         25   -1    0    0    0    0  0.00000000000E+00  0.00000000000E+00  0.99999998245E-14  0.12500000000E+03  0.12500000000E+03 0.  0.
        -13    1    3    3    0    0 -0.12086531514E+02 -0.25355713457E+02  0.19297248980E+02  0.34079193523E+02  0.10566000000E+00 0.  1.
         23    2    1    0    0    0  0.23034857793E+02  0.49752962872E+01 -0.19379216114E+02  0.94489145147E+02  0.89427547695E+02 0.  0.
         13    1    3    3    0    0  0.35121389307E+02  0.30331009744E+02 -0.38676465094E+02  0.60409951624E+02  0.10566000000E+00 0. -1.
         22    1    1    0    0    0 -0.23034857793E+02 -0.49752962872E+01  0.19379216114E+02  0.30510854853E+02  0.00000000000E+00 0. -1.
</event>
<event>
 5    1  0.6903325E-004  0.9118800E+02  0.7818608E-02  0.1130116E+00
         25   -1    0    0    0    0  0.00000000000E+00  0.00000000000E+00  0.99999998245E-14  0.12500000000E+03  0.12500000000E+03 0.  0.
        -13    1    3    3    0    0 -0.37118588291E+02  0.19029406571E+02  0.32354702783E+02  0.52789637879E+02  0.10566000000E+00 0.  1.
         23    2    1    0    0    0 -0.72732333352E+01  0.26626538763E+02  0.83686558821E-01  0.97397835355E+02  0.93404811647E+02 0.  0.
         13    1    3    3    0    0  0.29845354956E+02  0.75971321915E+01 -0.32271016224E+02  0.44608197477E+02  0.10566000000E+00 0. -1.
         22    1    1    0    0    0  0.72732333352E+01 -0.26626538763E+02 -0.83686558821E-01  0.27602164645E+02  0.00000000000E+00 0.  1.
</event>
<event>
 5    1  0.6903325E-004  0.9118800E+02  0.7818608E-02  0.1130116E+00
         25   -1    0    0    0    0  0.00000000000E+00  0.00000000000E+00  0.99999998245E-14  0.12500000000E+03  0.12500000000E+03 0.  0.
        -13    1    3    3    0    0 -0.35945289753E+02 -0.42656430503E+02 -0.64126408325E+01  0.56149515093E+02  0.10566000000E+00 0. -1.
         23    2    1    0    0    0 -0.21701425284E+02 -0.16402942770E+01  0.78699304054E+01  0.10185743685E+03  0.99193544205E+02 0.  0.
         13    1    3    3    0    0  0.14243864469E+02  0.41016136226E+02  0.14282571238E+02  0.45707921755E+02  0.10566000000E+00 0.  1.
         22    1    1    0    0    0  0.21701425284E+02  0.16402942770E+01 -0.78699304054E+01  0.23142563153E+02  0.00000000000E+00 0. -1.
</event>
<event>
 5    1  0.6903325E-004  0.9118800E+02  0.7818608E-02  0.1130116E+00
         25   -1    0    0    0    0  0.00000000000E+00  0.00000000000E+00  0.99999998245E-14  0.12500000000E+03  0.12500000000E+03 0.  0.
        -13    1    3    3    0    0 -0.11534356455E+01  0.60021751691E+01 -0.46513400585E+02  0.46913368228E+02  0.10566000000E+00 0.  1.
         23    2    1    0    0    0  0.13936702643E+02 -0.19873902269E+02 -0.18973352070E+01  0.10065244257E+03  0.97663251237E+02 0.  0.
         13    1    3    3    0    0  0.15090138289E+02 -0.25876077438E+02  0.44616065378E+02  0.53739074341E+02  0.10566000000E+00 0. -1.
         22    1    1    0    0    0 -0.13936702643E+02  0.19873902269E+02  0.18973352070E+01  0.24347557431E+02  0.00000000000E+00 0.  1.
</event>
<event>
 5    1  0.6903325E-004  0.9118800E+02  0.7818608E-02  0.1130116E+00
         25   -1    0    0    0    0  0.00000000000E+00  0.00000000000E+00  0.99999998245E-14  0.12500000000E+03  0.12500000000E+03 0.  0.
        -13    1    3    3    0    0  0.31369629242E+02 -0.14884255570E+02 -0.10188793976E+02  0.36185872788E+02  0.10566000000E+00 0.  1.
         23    2    1    0    0    0 -0.14622585503E+02  0.23876260884E+02 -0.14515463144E+01  0.96964258039E+02  0.92822758576E+02 0.  0.
         13    1    3    3    0    0 -0.45992214745E+02  0.38760516455E+02  0.87372476621E+01  0.60778385251E+02  0.10566000000E+00 0. -1.
         22    1    1    0    0    0  0.14622585503E+02 -0.23876260884E+02  0.14515463144E+01  0.28035741961E+02  0.00000000000E+00 0. -1.
</event>
<event>
 5    1  0.6903325E-004  0.9118800E+02  0.7818608E-02  0.1130116E+00
         25   -1    0    0    0    0  0.00000000000E+00  0.00000000000E+00  0.99999998245E-14  0.12500000000E+03  0.12500000000E+03 0.  0.
        -13    1    3    3    0    0  0.28988185910E+02  0.19307232641E+02 -0.18069577269E+02  0.39237799904E+02  0.10566000000E+00 0. -1.
         23    2    1    0    0    0 -0.14440722192E+02 -0.17327347222E+02 -0.18139723655E+02  0.96054862352E+02  0.91589931696E+02 0.  0.
         13    1    3    3    0    0 -0.43428908102E+02 -0.36634579863E+02 -0.70146385681E-01  0.56817062448E+02  0.10566000000E+00 0.  1.
         22    1    1    0    0    0  0.14440722192E+02  0.17327347222E+02  0.18139723655E+02  0.28945137648E+02  0.00000000000E+00 0.  1.
</event>
<event>
 5    1  0.6903325E-004  0.9118800E+02  0.7818608E-02  0.1130116E+00
         25   -1    0    0    0    0  0.00000000000E+00  0.00000000000E+00  0.99999998245E-14  0.12500000000E+03  0.12500000000E+03 0.  0.
        -13    1    3    3    0    0 -0.19129874666E+02  0.42821409633E+01 -0.29667757536E+02  0.35559469023E+02  0.10566000000E+00 0.  1.
         23    2    1    0    0    0  0.24589628775E+01 -0.18496709376E+02  0.22086795487E+02  0.96086313084E+02  0.91632844936E+02 0.  0.
         13    1    3    3    0    0  0.21588837543E+02 -0.22778850339E+02  0.51754553024E+02  0.60526844061E+02  0.10566000000E+00 0. -1.
         22    1    1    0    0    0 -0.24589628775E+01  0.18496709376E+02 -0.22086795487E+02  0.28913686916E+02  0.00000000000E+00 0. -1.
</event>
<event>
 5    1  0.6903325E-004  0.9118800E+02  0.7818608E-02  0.1130116E+00
         25   -1    0    0    0    0  0.00000000000E+00  0.00000000000E+00  0.99999998245E-14  0.12500000000E+03  0.12500000000E+03 0.  0.
        -13    1    3    3    0    0 -0.61241291216E+02 -0.52580275557E+01  0.10623342136E+02  0.62377954164E+02  0.10566000000E+00 0.  1.
         23    2    1    0    0    0 -0.49195022723E+02 -0.64042082561E+01  0.82895393548E+01  0.74702081486E+02  0.55231516107E+02 0.  0.
         13    1    3    3    0    0  0.12046268492E+02 -0.11461807005E+01 -0.23338027813E+01  0.12324127322E+02  0.10566000000E+00 0. -1.
         22    1    1    0    0    0  0.49195022723E+02  0.64042082561E+01 -0.82895393548E+01  0.50297918514E+02  0.00000000000E+00 0.  1.
</event>
<event>
 5    1  0.6903325E-004  0.9118800E+02  0.7818608E-02  0.1130116E+00
         25   -1    0    0    0    0  0.00000000000E+00  0.00000000000E+00  0.99999998245E-14  0.12500000000E+03  0.12500000000E+03 0.  0.
        -13    1    3    3    0    0  0.54406756176E+02  0.33492202538E+01  0.93214520665E+01  0.55301112345E+02  0.10566000000E+00 0.  1.
         23    2    1    0    0    0  0.19854943810E+02 -0.18630310934E+02  0.92282039951E+01  0.96251660427E+02  0.91858124882E+02 0.  0.
         13    1    3    3    0    0 -0.34551812366E+02 -0.21979531188E+02 -0.93248071413E-01  0.40950548082E+02  0.10566000000E+00 0. -1.
         22    1    1    0    0    0 -0.19854943810E+02  0.18630310934E+02 -0.92282039951E+01  0.28748339573E+02  0.00000000000E+00 0.  1.
</event>
<event>
 5    1  0.6903325E-004  0.9118800E+02  0.7818608E-02  0.1130116E+00
         25   -1    0    0    0    0  0.00000000000E+00  0.00000000000E+00  0.99999998245E-14  0.12500000000E+03  0.12500000000E+03 0.  0.
        -13    1    3    3    0    0  0.33126253107E+01  0.39935682142E+00  0.45969470574E+02  0.46090523551E+02  0.10566000000E+00 0. -1.
         23    2    1    0    0    0  0.16082778252E+02  0.24454736273E+02  0.49696088916E+01  0.95311839143E+02  0.90570192590E+02 0.  0.
         13    1    3    3    0    0  0.12770152942E+02  0.24055379452E+02 -0.40999861682E+02  0.49221315593E+02  0.10566000000E+00 0.  1.
         22    1    1    0    0    0 -0.16082778252E+02 -0.24454736273E+02 -0.49696088916E+01  0.29688160857E+02  0.00000000000E+00 0.  1.
</event>
<event>
 5    1  0.6903325E-004  0.9118800E+02  0.7818608E-02  0.1130116E+00
         25   -1    0    0    0    0  0.00000000000E+00  0.00000000000E+00  0.99999998245E-14  0.12500000000E+03  0.12500000000E+03 0.  0.
        -13    1    3    3    0    0  0.76426189100E+01 -0.32127055474E+02 -0.51356904311E+02  0.61058169819E+02  0.10566000000E+00 0. -1.
         23    2    1    0    0    0 -0.55493319942E+01 -0.11703537252E+02 -0.24506397916E+02  0.97281208385E+02  0.93248603722E+02 0.  0.
         13    1    3    3    0    0 -0.13191950904E+02  0.20423518222E+02  0.26850506395E+02  0.36223038565E+02  0.10566000000E+00 0.  1.
         22    1    1    0    0    0  0.55493319942E+01  0.11703537252E+02  0.24506397916E+02  0.27718791615E+02  0.00000000000E+00 0. -1.
</event>
<event>
 5    1  0.6903325E-004  0.9118800E+02  0.7818608E-02  0.1130116E+00
         25   -1    0    0    0    0  0.00000000000E+00  0.00000000000E+00  0.99999998245E-14  0.12500000000E+03  0.12500000000E+03 0.  0.
        -13    1    3    3    0    0  0.17086410233E+02  0.56703466434E+02  0.48132036873E+01  0.59417224893E+02  0.10566000000E+00 0.  1.
         23    2    1    0    0    0  0.60859660257E+01  0.26956635303E+02 -0.11482213059E+02  0.95074419203E+02  0.90241923743E+02 0.  0.
         13    1    3    3    0    0 -0.11000444207E+02 -0.29746831131E+02 -0.16295416746E+02  0.35657194310E+02  0.10566000000E+00 0. -1.
         22    1    1    0    0    0 -0.60859660257E+01 -0.26956635303E+02  0.11482213059E+02  0.29925580797E+02  0.00000000000E+00 0.  1.
</event>
<event>
 5    1  0.6903325E-004  0.9118800E+02  0.7818608E-02  0.1130116E+00
         25   -1    0    0    0    0  0.00000000000E+00  0.00000000000E+00  0.99999998245E-14  0.12500000000E+03  0.12500000000E+03 0.  0.
        -13    1    3    3    0    0  0.43216749589E+02  0.31491613174E+01 -0.24972432620E+02  0.50012380637E+02  0.10566000000E+00 0.  1.
         23    2    1    0    0    0  0.19014234721E+02  0.21463012179E+02  0.83987745262E+01  0.95121221120E+02  0.90306728875E+02 0.  0.
         13    1    3    3    0    0 -0.24202514868E+02  0.18313850861E+02  0.33371207146E+02  0.45108840483E+02  0.10566000000E+00 0. -1.
         22    1    1    0    0    0 -0.19014234721E+02 -0.21463012179E+02 -0.83987745262E+01  0.29878778880E+02  0.00000000000E+00 0.  1.
</event>
<event>
 5    1  0.6903325E-004  0.9118800E+02  0.7818608E-02  0.1130116E+00
         25   -1    0    0    0    0  0.00000000000E+00  0.00000000000E+00  0.99999998245E-14  0.12500000000E+03  0.12500000000E+03 0.  0.
        -13    1    3    3    0    0 -0.22189816739E+02  0.19926755604E+02 -0.28099761586E+02  0.40976472774E+02  0.10566000000E+00 0. -1.
         23    2    1    0    0    0 -0.17684505463E+02 -0.21238756000E+02  0.83335848443E+01  0.96133494734E+02  0.91697184709E+02 0.  0.
         13    1    3    3    0    0  0.45053112758E+01 -0.41165511604E+02  0.36433346430E+02  0.55157021959E+02  0.10566000000E+00 0.  1.
         22    1    1    0    0    0  0.17684505463E+02  0.21238756000E+02 -0.83335848443E+01  0.28866505266E+02  0.00000000000E+00 0. -1.
</event>
<event>
 5    1  0.6903325E-004  0.9118800E+02  0.7818608E-02  0.1130116E+00
         25   -1    0    0    0    0  0.00000000000E+00  0.00000000000E+00  0.99999998245E-14  0.12500000000E+03  0.12500000000E+03 0.  0.
        -13    1    3    3    0    0  0.42758649249E+02  0.21524327061E+02  0.45071722509E+01  0.48082476088E+02  0.10566000000E+00 0.  1.
         23    2    1    0    0    0  0.17756039207E+02 -0.15719867972E+02 -0.14936439391E+02  0.96973434048E+02  0.92835114650E+02 0.  0.
         13    1    3    3    0    0 -0.25002610042E+02 -0.37244195032E+02 -0.19443611642E+02  0.48890957960E+02  0.10566000000E+00 0. -1.
         22    1    1    0    0    0 -0.17756039207E+02  0.15719867972E+02  0.14936439391E+02  0.28026565952E+02  0.00000000000E+00 0.  1.
</event>
<event>
 5    1  0.6903325E-004  0.9118800E+02  0.7818608E-02  0.1130116E+00
         25   -1    0    0    0    0  0.00000000000E+00  0.00000000000E+00  0.99999998245E-14  0.12500000000E+03  0.12500000000E+03 0.  0.
        -13    1    3    3    0    0  0.99912541266E+01 -0.48752608173E+02 -0.67694595127E+01  0.50224284055E+02  0.10566000000E+00 0. -1.
         23    2    1    0    0    0  0.28800083948E+02 -0.86645133789E+01 -0.72705840585E+00  0.94915996918E+02  0.90022215200E+02 0.  0.
         13    1    3    3    0    0  0.18808829821E+02  0.40088094794E+02  0.60424011068E+01  0.44691712863E+02  0.10566000000E+00 0.  1.
         22    1    1    0    0    0 -0.28800083948E+02  0.86645133789E+01  0.72705840585E+00  0.30084003082E+02  0.00000000000E+00 0.  1.
</event>
<event>
 5    1  0.6903325E-004  0.9118800E+02  0.7818608E-02  0.1130116E+00
         25   -1    0    0    0    0  0.00000000000E+00  0.00000000000E+00  0.99999998245E-14  0.12500000000E+03  0.12500000000E+03 0.  0.
        -13    1    3    3    0    0 -0.30113997440E+02 -0.59724820660E+01 -0.39811348194E+02  0.50274029011E+02  0.10566000000E+00 0.  1.
         23    2    1    0    0    0 -0.13443696678E+02  0.24079526191E+02 -0.25287569122E+02  0.87583189419E+02  0.79188366284E+02 0.  0.
         13    1    3    3    0    0  0.16670300763E+02  0.30052008257E+02  0.14523779072E+02  0.37309160408E+02  0.10566000000E+00 0. -1.
         22    1    1    0    0    0  0.13443696678E+02 -0.24079526191E+02  0.25287569122E+02  0.37416810581E+02  0.00000000000E+00 0. -1.
</event>
<event>
 5    1  0.6903325E-004  0.9118800E+02  0.7818608E-02  0.1130116E+00
         25   -1    0    0    0    0  0.00000000000E+00  0.00000000000E+00  0.99999998245E-14  0.12500000000E+03  0.12500000000E+03 0.  0.
        -13    1    3    3    0    0 -0.13892437450E+02 -0.50630130061E+02 -0.24106317214E+00  0.52502182466E+02  0.10566000000E+00 0.  1.
         23    2    1    0    0    0 -0.37090196803E+01 -0.87966783739E+01 -0.22200400810E+02  0.10083398722E+03  0.97895335975E+02 0.  0.
         13    1    3    3    0    0  0.10183417769E+02  0.41833451687E+02 -0.21959337638E+02  0.48331804757E+02  0.10566000000E+00 0. -1.
         22    1    1    0    0    0  0.37090196803E+01  0.87966783739E+01  0.22200400810E+02  0.24166012777E+02  0.00000000000E+00 0. -1.
</event>
<event>
 5    1  0.6903325E-004  0.9118800E+02  0.7818608E-02  0.1130116E+00
         25   -1    0    0    0    0  0.00000000000E+00  0.00000000000E+00  0.99999998245E-14  0.12500000000E+03  0.12500000000E+03 0.  0.
        -13    1    3    3    0    0 -0.16483193839E+02 -0.31253619999E+02 -0.70042948553E+01  0.36021601195E+02  0.10566000000E+00 0. -1.
         23    2    1    0    0    0  0.13978449817E+02 -0.73498595130E+00  0.29389719372E+02  0.92447075886E+02  0.86526117279E+02 0.  0.
         13    1    3    3    0    0  0.30461643656E+02  0.30518634048E+02  0.36394014228E+02  0.56425474690E+02  0.10566000000E+00 0.  1.
         22    1    1    0    0    0 -0.13978449817E+02  0.73498595130E+00 -0.29389719372E+02  0.32552924114E+02  0.00000000000E+00 0.  1.
</event>
<event>
 5    1  0.6903325E-004  0.9118800E+02  0.7818608E-02  0.1130116E+00
         25   -1    0    0    0    0  0.00000000000E+00  0.00000000000E+00  0.99999998245E-14  0.12500000000E+03  0.12500000000E+03 0.  0.
        -13    1    3    3    0    0  0.30490189136E+02 -0.16660273094E+02  0.22559237738E+02  0.41426401056E+02  0.10566000000E+00 0. -1.
         23    2    1    0    0    0 -0.20184553057E+02 -0.15835852801E+01  0.23078657370E+02  0.94299049681E+02  0.89161440210E+02 0.  0.
         13    1    3    3    0    0 -0.50674742193E+02  0.15076687814E+02  0.51941963185E+00  0.52872648625E+02  0.10566000000E+00 0.  1.
         22    1    1    0    0    0  0.20184553057E+02  0.15835852801E+01 -0.23078657370E+02  0.30700950319E+02  0.00000000000E+00 0.  1.
</event>
<event>
 5    1  0.6903325E-004  0.9118800E+02  0.7818608E-02  0.1130116E+00
         25   -1    0    0    0    0  0.00000000000E+00  0.00000000000E+00  0.99999998245E-14  0.12500000000E+03  0.12500000000E+03 0.  0.
        -13    1    3    3    0    0 -0.44631679659E+02 -0.14538772926E+02 -0.40658780048E+02  0.62100807614E+02  0.10566000000E+00 0.  1.
         23    2    1    0    0    0 -0.14348861906E+02 -0.85239808825E+01 -0.18373331383E+02  0.10017808641E+03  0.97054219913E+02 0.  0.
         13    1    3    3    0    0  0.30282817753E+02  0.60147920439E+01  0.22285448665E+02  0.38077278797E+02  0.10566000000E+00 0. -1.
         22    1    1    0    0    0  0.14348861906E+02  0.85239808825E+01  0.18373331383E+02  0.24821913589E+02  0.00000000000E+00 0.  1.
</event>
<event>
 5    1  0.6903325E-004  0.9118800E+02  0.7818608E-02  0.1130116E+00
         25   -1    0    0    0    0  0.00000000000E+00  0.00000000000E+00  0.99999998245E-14  0.12500000000E+03  0.12500000000E+03 0.  0.
        -13    1    3    3    0    0  0.20658596335E+02 -0.83108891728E+01 -0.99086690478E+01  0.24372963868E+02  0.10566000000E+00 0. -1.
         23    2    1    0    0    0 -0.34444796851E+02 -0.15787246461E+02 -0.21866812821E+02  0.81252557973E+02  0.68469989727E+02 0.  0.
         13    1    3    3    0    0 -0.55103393187E+02 -0.74763572883E+01 -0.11958143773E+02  0.56879594105E+02  0.10566000000E+00 0.  1.
         22    1    1    0    0    0  0.34444796851E+02  0.15787246461E+02  0.21866812821E+02  0.43747442027E+02  0.00000000000E+00 0.  1.
</event>
<event>
 5    1  0.6903325E-004  0.9118800E+02  0.7818608E-02  0.1130116E+00
         25   -1    0    0    0    0  0.00000000000E+00  0.00000000000E+00  0.99999998245E-14  0.12500000000E+03  0.12500000000E+03 0.  0.
        -13    1    3    3    0    0 -0.30116840974E+02 -0.16394987507E+02 -0.59209895509E+01  0.34797830491E+02  0.10566000000E+00 0.  1.
         23    2    1    0    0    0  0.26753765321E+01  0.27208195863E+02  0.15687839768E+02  0.93479342039E+02  0.88004747087E+02 0.  0.
         13    1    3    3    0    0  0.32792217506E+02  0.43603183370E+02  0.21608829319E+02  0.58681511548E+02  0.10566000000E+00 0. -1.
         22    1    1    0    0    0 -0.26753765321E+01 -0.27208195863E+02 -0.15687839768E+02  0.31520657961E+02  0.00000000000E+00 0. -1.
</event>
<event>
 5    1  0.6903325E-004  0.9118800E+02  0.7818608E-02  0.1130116E+00
         25   -1    0    0    0    0  0.00000000000E+00  0.00000000000E+00  0.99999998245E-14  0.12500000000E+03  0.12500000000E+03 0.  0.
        -13    1    3    3    0    0  0.42533842215E+02 -0.30947157790E+02  0.46918584673E+01  0.52809838181E+02  0.10566000000E+00 0. -1.
         23    2    1    0    0    0  0.15892485476E+02  0.81114329221E+01  0.15563628518E+02  0.10132315538E+03  0.98517962039E+02 0.  0.
         13    1    3    3    0    0 -0.26641356739E+02  0.39058590712E+02  0.10871770050E+02  0.48513317196E+02  0.10566000000E+00 0.  1.
         22    1    1    0    0    0 -0.15892485476E+02 -0.81114329221E+01 -0.15563628518E+02  0.23676844623E+02  0.00000000000E+00 0. -1.
</event>
<event>
 5    1  0.6903325E-004  0.9118800E+02  0.7818608E-02  0.1130116E+00
         25   -1    0    0    0    0  0.00000000000E+00  0.00000000000E+00  0.99999998245E-14  0.12500000000E+03  0.12500000000E+03 0.  0.
        -13    1    3    3    0    0 -0.13192039143E+02 -0.47430431541E+02  0.18945188357E+02  0.52750422357E+02  0.10566000000E+00 0.  1.
         23    2    1    0    0    0 -0.69620002702E+01 -0.22498766872E+02 -0.16291679418E+02  0.96362912564E+02  0.92009391592E+02 0.  0.
         13    1    3    3    0    0  0.62300388731E+01  0.24931664669E+02 -0.35236867775E+02  0.43612490208E+02  0.10566000000E+00 0. -1.
         22    1    1    0    0    0  0.69620002702E+01  0.22498766872E+02  0.16291679418E+02  0.28637087436E+02  0.00000000000E+00 0.  1.
</event>
<event>
 5    1  0.6903325E-004  0.9118800E+02  0.7818608E-02  0.1130116E+00
         25   -1    0    0    0    0  0.00000000000E+00  0.00000000000E+00  0.99999998245E-14  0.12500000000E+03  0.12500000000E+03 0.  0.
        -13    1    3    3    0    0 -0.28520546027E+02 -0.37137097223E+02 -0.10501373672E+02  0.47988285538E+02  0.10566000000E+00 0. -1.
         23    2    1    0    0    0 -0.22389264311E+02  0.12682477869E+00 -0.27613980812E+02  0.89449652924E+02  0.82081747247E+02 0.  0.
         13    1    3    3    0    0  0.61312817169E+01  0.37263922001E+02 -0.17112607140E+02  0.41461367387E+02  0.10566000000E+00 0.  1.
         22    1    1    0    0    0  0.22389264311E+02 -0.12682477869E+00  0.27613980812E+02  0.35550347076E+02  0.00000000000E+00 0. -1.
</event>
<event>
 5    1  0.6903325E-004  0.9118800E+02  0.7818608E-02  0.1130116E+00
         25   -1    0    0    0    0  0.00000000000E+00  0.00000000000E+00  0.99999998245E-14  0.12500000000E+03  0.12500000000E+03 0.  0.
        -13    1    3    3    0    0  0.50080687407E+02  0.24758920442E+02  0.16679590661E+02  0.58303510196E+02  0.10566000000E+00 0. -1.
         23    2    1    0    0    0  0.31565002492E+02 -0.23758871094E+01  0.66045437390E+01  0.92664041380E+02  0.86838990926E+02 0.  0.
         13    1    3    3    0    0 -0.18515684915E+02 -0.27134807551E+02 -0.10075046922E+02  0.34360531184E+02  0.10566000000E+00 0.  1.
         22    1    1    0    0    0 -0.31565002492E+02  0.23758871094E+01 -0.66045437390E+01  0.32335958620E+02  0.00000000000E+00 0. -1.
</event>
<event>
 5    1  0.6903325E-004  0.9118800E+02  0.7818608E-02  0.1130116E+00
         25   -1    0    0    0    0  0.00000000000E+00  0.00000000000E+00  0.99999998245E-14  0.12500000000E+03  0.12500000000E+03 0.  0.
        -13    1    3    3    0    0 -0.96528209661E+01  0.48059063290E+02 -0.16973689584E+02  0.51874539217E+02  0.10566000000E+00 0. -1.
         23    2    1    0    0    0 -0.20829239479E+02  0.60414810392E+01 -0.20053067639E+02  0.95462189787E+02  0.90777461117E+02 0.  0.
         13    1    3    3    0    0 -0.11176418513E+02 -0.42017582251E+02 -0.30793780545E+01  0.43587650570E+02  0.10566000000E+00 0.  1.
         22    1    1    0    0    0  0.20829239479E+02 -0.60414810392E+01  0.20053067639E+02  0.29537810213E+02  0.00000000000E+00 0. -1.
</event>
<event>
 5    1  0.6903325E-004  0.9118800E+02  0.7818608E-02  0.1130116E+00
         25   -1    0    0    0    0  0.00000000000E+00  0.00000000000E+00  0.99999998245E-14  0.12500000000E+03  0.12500000000E+03 0.  0.
        -13    1    3    3    0    0  0.28787335711E+02  0.20830075423E+02 -0.21627851635E+02  0.41597810878E+02  0.10566000000E+00 0. -1.
         23    2    1    0    0    0 -0.12337399675E+02 -0.16368273928E+02 -0.18902945350E+02  0.97117152852E+02  0.93028426909E+02 0.  0.
         13    1    3    3    0    0 -0.41124735386E+02 -0.37198349351E+02  0.27249062841E+01  0.55519341975E+02  0.10566000000E+00 0.  1.
         22    1    1    0    0    0  0.12337399675E+02  0.16368273928E+02  0.18902945350E+02  0.27882847148E+02  0.00000000000E+00 0.  1.
</event>
<event>
 5    1  0.6903325E-004  0.9118800E+02  0.7818608E-02  0.1130116E+00
         25   -1    0    0    0    0  0.00000000000E+00  0.00000000000E+00  0.99999998245E-14  0.12500000000E+03  0.12500000000E+03 0.  0.
        -13    1    3    3    0    0  0.24266788711E+02 -0.24035635508E+02 -0.49621352031E+02  0.60240173888E+02  0.10566000000E+00 0. -1.
         23    2    1    0    0    0  0.19561636439E+02 -0.10552989098E+02 -0.13714008624E+02  0.98883008757E+02  0.95371652964E+02 0.  0.
         13    1    3    3    0    0 -0.47051522721E+01  0.13482646410E+02  0.35907343407E+02  0.38642834869E+02  0.10566000000E+00 0.  1.
         22    1    1    0    0    0 -0.19561636439E+02  0.10552989098E+02  0.13714008624E+02  0.26116991243E+02  0.00000000000E+00 0. -1.
</event>
<event>
 5    1  0.6903325E-004  0.9118800E+02  0.7818608E-02  0.1130116E+00
         25   -1    0    0    0    0  0.00000000000E+00  0.00000000000E+00  0.99999998245E-14  0.12500000000E+03  0.12500000000E+03 0.  0.
        -13    1    3    3    0    0  0.93260292754E+01  0.81882087095E+01  0.40788895717E+02  0.42635276025E+02  0.10566000000E+00 0.  1.
         23    2    1    0    0    0 -0.87615136501E+00 -0.30503895445E+02  0.10843629172E+02  0.92614207248E+02  0.86767227754E+02 0.  0.
         13    1    3    3    0    0 -0.10202180640E+02 -0.38692104154E+02 -0.29945266545E+02  0.49978931223E+02  0.10566000000E+00 0. -1.
         22    1    1    0    0    0  0.87615136501E+00  0.30503895445E+02 -0.10843629172E+02  0.32385792752E+02  0.00000000000E+00 0.  1.
</event>
<event>
 5    1  0.6903325E-004  0.9118800E+02  0.7818608E-02  0.1130116E+00
         25   -1    0    0    0    0  0.00000000000E+00  0.00000000000E+00  0.99999998245E-14  0.12500000000E+03  0.12500000000E+03 0.  0.
        -13    1    3    3    0    0 -0.11523625229E+02  0.50932850494E+02 -0.21705078280E+02  0.56551487912E+02  0.10566000000E+00 0. -1.
         23    2    1    0    0    0  0.84593128678E+01  0.18011508207E+02 -0.22358710154E+02  0.95068639826E+02  0.90233917994E+02 0.  0.
         13    1    3    3    0    0  0.19982938097E+02 -0.32921342287E+02 -0.65363187365E+00  0.38517151915E+02  0.10566000000E+00 0.  1.
         22    1    1    0    0    0 -0.84593128678E+01 -0.18011508207E+02  0.22358710154E+02  0.29931360174E+02  0.00000000000E+00 0. -1.
</event>
<event>
 5    1  0.6903325E-004  0.9118800E+02  0.7818608E-02  0.1130116E+00
         25   -1    0    0    0    0  0.00000000000E+00  0.00000000000E+00  0.99999998245E-14  0.12500000000E+03  0.12500000000E+03 0.  0.
        -13    1    3    3    0    0 -0.19166369372E+02 -0.25815587538E+02  0.10122112282E+02  0.33708494418E+02  0.10566000000E+00 0.  1.
         23    2    1    0    0    0  0.28225484992E+02  0.87437396734E+01 -0.66466325990E+01  0.94712895295E+02  0.89739756093E+02 0.  0.
         13    1    3    3    0    0  0.47391854364E+02  0.34559327212E+02 -0.16768744881E+02  0.61004400877E+02  0.10566000000E+00 0. -1.
         22    1    1    0    0    0 -0.28225484992E+02 -0.87437396734E+01  0.66466325990E+01  0.30287104705E+02  0.00000000000E+00 0. -1.
</event>
<event>
 5    1  0.6903325E-004  0.9118800E+02  0.7818608E-02  0.1130116E+00
         25   -1    0    0    0    0  0.00000000000E+00  0.00000000000E+00  0.99999998245E-14  0.12500000000E+03  0.12500000000E+03 0.  0.
        -13    1    3    3    0    0  0.10428335347E+02  0.10019677845E+02  0.53164093220E+02  0.55096062420E+02  0.10566000000E+00 0.  1.
         23    2    1    0    0    0  0.22793574899E+02  0.11970144110E+02  0.15128944464E+02  0.95138379694E+02  0.90330476161E+02 0.  0.
         13    1    3    3    0    0  0.12365239552E+02  0.19504662643E+01 -0.38035148756E+02  0.40042317275E+02  0.10566000000E+00 0. -1.
         22    1    1    0    0    0 -0.22793574899E+02 -0.11970144110E+02 -0.15128944464E+02  0.29861620306E+02  0.00000000000E+00 0. -1.
</event>
<event>
 5    1  0.6903325E-004  0.9118800E+02  0.7818608E-02  0.1130116E+00
         25   -1    0    0    0    0  0.00000000000E+00  0.00000000000E+00  0.99999998245E-14  0.12500000000E+03  0.12500000000E+03 0.  0.
        -13    1    3    3    0    0 -0.47656513238E+01  0.34814688588E+02 -0.12201070009E+02  0.37197462916E+02  0.10566000000E+00 0. -1.
         23    2    1    0    0    0  0.33873314034E+02  0.34250815444E+02 -0.43312665405E+01  0.76633899970E+02  0.59443039900E+02 0.  0.
         13    1    3    3    0    0  0.38638965358E+02 -0.56387314330E+00  0.78698034683E+01  0.39436437054E+02  0.10566000000E+00 0.  1.
         22    1    1    0    0    0 -0.33873314034E+02 -0.34250815444E+02  0.43312665405E+01  0.48366100030E+02  0.00000000000E+00 0. -1.
</event>
<event>
 5    1  0.6903325E-004  0.9118800E+02  0.7818608E-02  0.1130116E+00
         25   -1    0    0    0    0  0.00000000000E+00  0.00000000000E+00  0.99999998245E-14  0.12500000000E+03  0.12500000000E+03 0.  0.
        -13    1    3    3    0    0 -0.48532349070E+02 -0.38693356133E+02 -0.61548031805E+01  0.62373531897E+02  0.10566000000E+00 0. -1.
         23    2    1    0    0    0 -0.26162168087E+02 -0.20392981098E+02 -0.60814543709E+01  0.91275872075E+02  0.84817262504E+02 0.  0.
         13    1    3    3    0    0  0.22370180983E+02  0.18300375036E+02  0.73348809621E-01  0.28902340177E+02  0.10566000000E+00 0.  1.
         22    1    1    0    0    0  0.26162168087E+02  0.20392981098E+02  0.60814543709E+01  0.33724127925E+02  0.00000000000E+00 0. -1.
</event>
<event>
 5    1  0.6903325E-004  0.9118800E+02  0.7818608E-02  0.1130116E+00
         25   -1    0    0    0    0  0.00000000000E+00  0.00000000000E+00  0.99999998245E-14  0.12500000000E+03  0.12500000000E+03 0.  0.
        -13    1    3    3    0    0 -0.21828317597E+02  0.24747745887E+02  0.52439867734E+02  0.61958673869E+02  0.10566000000E+00 0.  1.
         23    2    1    0    0    0 -0.14763781646E+02  0.80713313187E+01  0.23539066458E+02  0.96065534609E+02  0.91604495808E+02 0.  0.
         13    1    3    3    0    0  0.70645359510E+01 -0.16676414568E+02 -0.28900801276E+02  0.34106860739E+02  0.10566000000E+00 0. -1.
         22    1    1    0    0    0  0.14763781646E+02 -0.80713313187E+01 -0.23539066458E+02  0.28934465391E+02  0.00000000000E+00 0.  1.
</event>
<event>
 5    1  0.6903325E-004  0.9118800E+02  0.7818608E-02  0.1130116E+00
         25   -1    0    0    0    0  0.00000000000E+00  0.00000000000E+00  0.99999998245E-14  0.12500000000E+03  0.12500000000E+03 0.  0.
        -13    1    3    3    0    0 -0.95273608430E+01  0.89755994795E+01 -0.31897487942E+02  0.34478876021E+02  0.10566000000E+00 0.  1.
         23    2    1    0    0    0  0.17184248894E+02 -0.10097610374E+02  0.20563988722E+02  0.96361952276E+02  0.92008086975E+02 0.  0.
         13    1    3    3    0    0  0.26711609737E+02 -0.19073209853E+02  0.52461476664E+02  0.61883076254E+02  0.10566000000E+00 0. -1.
         22    1    1    0    0    0 -0.17184248894E+02  0.10097610374E+02 -0.20563988722E+02  0.28638047724E+02  0.00000000000E+00 0. -1.
</event>
<event>
 5    1  0.6903325E-004  0.9118800E+02  0.7818608E-02  0.1130116E+00
         25   -1    0    0    0    0  0.00000000000E+00  0.00000000000E+00  0.99999998245E-14  0.12500000000E+03  0.12500000000E+03 0.  0.
        -13    1    3    3    0    0  0.49342859251E+02  0.32453907872E+02 -0.66184360033E+01  0.59428854560E+02  0.10566000000E+00 0.  1.
         23    2    1    0    0    0  0.30268945174E+02  0.33707580765E+01 -0.31547478700E+01  0.94380994692E+02  0.89276249210E+02 0.  0.
         13    1    3    3    0    0 -0.19073914077E+02 -0.29083149796E+02  0.34636881333E+01  0.34952140132E+02  0.10566000000E+00 0. -1.
         22    1    1    0    0    0 -0.30268945174E+02 -0.33707580765E+01  0.31547478700E+01  0.30619005308E+02  0.00000000000E+00 0.  1.
</event>
<event>
 5    1  0.6903325E-004  0.9118800E+02  0.7818608E-02  0.1130116E+00
         25   -1    0    0    0    0  0.00000000000E+00  0.00000000000E+00  0.99999998245E-14  0.12500000000E+03  0.12500000000E+03 0.  0.
        -13    1    3    3    0    0 -0.37793911708E+02  0.88627389286E+00 -0.14223624638E+02  0.40391681142E+02  0.10566000000E+00 0.  1.
         23    2    1    0    0    0  0.15237921113E+02 -0.15322627707E+02 -0.19232771862E+02  0.96071179195E+02  0.91612197870E+02 0.  0.
         13    1    3    3    0    0  0.53031832821E+02 -0.16208901599E+02 -0.50091472242E+01  0.55679498052E+02  0.10566000000E+00 0. -1.
         22    1    1    0    0    0 -0.15237921113E+02  0.15322627707E+02  0.19232771862E+02  0.28928820805E+02  0.00000000000E+00 0. -1.
</event>
<event>
 5    1  0.6903325E-004  0.9118800E+02  0.7818608E-02  0.1130116E+00
         25   -1    0    0    0    0  0.00000000000E+00  0.00000000000E+00  0.99999998245E-14  0.12500000000E+03  0.12500000000E+03 0.  0.
        -13    1    3    3    0    0  0.36064563029E+02 -0.45193585216E+02  0.10488722195E+02  0.58763401097E+02  0.10566000000E+00 0. -1.
         23    2    1    0    0    0  0.28115007460E+02 -0.11141697043E+02  0.23439317188E+01  0.94667095863E+02  0.89675938611E+02 0.  0.
         13    1    3    3    0    0 -0.79495555687E+01  0.34051888174E+02 -0.81447904759E+01  0.35903694766E+02  0.10566000000E+00 0.  1.
         22    1    1    0    0    0 -0.28115007460E+02  0.11141697043E+02 -0.23439317188E+01  0.30332904137E+02  0.00000000000E+00 0. -1.
</event>
<event>
 5    1  0.6903325E-004  0.9118800E+02  0.7818608E-02  0.1130116E+00
         25   -1    0    0    0    0  0.00000000000E+00  0.00000000000E+00  0.99999998245E-14  0.12500000000E+03  0.12500000000E+03 0.  0.
        -13    1    3    3    0    0  0.17968221252E+02 -0.92478948018E+01  0.50190338843E+02  0.54106023790E+02  0.10566000000E+00 0.  1.
         23    2    1    0    0    0  0.22667456043E+02 -0.15649735821E+02  0.90493869834E+01  0.96006566269E+02  0.91523994489E+02 0.  0.
         13    1    3    3    0    0  0.46992347918E+01 -0.64018410191E+01 -0.41140951859E+02  0.41900542479E+02  0.10566000000E+00 0. -1.
         22    1    1    0    0    0 -0.22667456043E+02  0.15649735821E+02 -0.90493869834E+01  0.28993433731E+02  0.00000000000E+00 0.  1.
</event>
<event>
 5    1  0.6903325E-004  0.9118800E+02  0.7818608E-02  0.1130116E+00
         25   -1    0    0    0    0  0.00000000000E+00  0.00000000000E+00  0.99999998245E-14  0.12500000000E+03  0.12500000000E+03 0.  0.
        -13    1    3    3    0    0 -0.22684725108E+02 -0.38678895243E+02  0.27139179739E+01  0.44922491085E+02  0.10566000000E+00 0.  1.
         23    2    1    0    0    0  0.14237256837E+02 -0.13872979909E+02 -0.21624522562E+02  0.95626899553E+02  0.91003982816E+02 0.  0.
         13    1    3    3    0    0  0.36921981945E+02  0.24805915334E+02 -0.24338440536E+02  0.50704408468E+02  0.10566000000E+00 0. -1.
         22    1    1    0    0    0 -0.14237256837E+02  0.13872979909E+02  0.21624522562E+02  0.29373100447E+02  0.00000000000E+00 0.  1.
</event>
<event>
 5    1  0.6903325E-004  0.9118800E+02  0.7818608E-02  0.1130116E+00
         25   -1    0    0    0    0  0.00000000000E+00  0.00000000000E+00  0.99999998245E-14  0.12500000000E+03  0.12500000000E+03 0.  0.
        -13    1    3    3    0    0  0.39652817750E+02 -0.13257860970E+02  0.43896841809E+01  0.42040424882E+02  0.10566000000E+00 0.  1.
         23    2    1    0    0    0 -0.48766259360E+01  0.34795453927E+01  0.28851912182E+02  0.95532703666E+02  0.90874506417E+02 0.  0.
         13    1    3    3    0    0 -0.44529443686E+02  0.16737406363E+02  0.24462228001E+02  0.53492278784E+02  0.10566000000E+00 0. -1.
         22    1    1    0    0    0  0.48766259360E+01 -0.34795453927E+01 -0.28851912182E+02  0.29467296334E+02  0.00000000000E+00 0. -1.
</event>
<event>
 5    1  0.6903325E-004  0.9118800E+02  0.7818608E-02  0.1130116E+00
         25   -1    0    0    0    0  0.00000000000E+00  0.00000000000E+00  0.99999998245E-14  0.12500000000E+03  0.12500000000E+03 0.  0.
        -13    1    3    3    0    0  0.47210418481E+02  0.27179408625E+02  0.26700961015E+02  0.60667094454E+02  0.10566000000E+00 0. -1.
         23    2    1    0    0    0  0.15709778222E+02  0.10161456520E+02  0.20919031445E+02  0.96934750901E+02  0.92783014206E+02 0.  0.
         13    1    3    3    0    0 -0.31500640259E+02 -0.17017952105E+02 -0.57819295702E+01  0.36267656447E+02  0.10566000000E+00 0.  1.
         22    1    1    0    0    0 -0.15709778222E+02 -0.10161456520E+02 -0.20919031445E+02  0.28065249099E+02  0.00000000000E+00 0. -1.
</event>
<event>
 5    1  0.6903325E-004  0.9118800E+02  0.7818608E-02  0.1130116E+00
         25   -1    0    0    0    0  0.00000000000E+00  0.00000000000E+00  0.99999998245E-14  0.12500000000E+03  0.12500000000E+03 0.  0.
        -13    1    3    3    0    0  0.34458417609E+02 -0.42723438307E+02 -0.25881894800E+02  0.60684086608E+02  0.10566000000E+00 0.  1.
         23    2    1    0    0    0  0.19154138593E+02 -0.16694409770E+02 -0.22487950957E+02  0.91069301790E+02  0.84512279862E+02 0.  0.
         13    1    3    3    0    0 -0.15304279017E+02  0.26029028537E+02  0.33939438425E+01  0.30385215182E+02  0.10566000000E+00 0. -1.
         22    1    1    0    0    0 -0.19154138593E+02  0.16694409770E+02  0.22487950957E+02  0.33930698210E+02  0.00000000000E+00 0.  1.
</event>
<event>
 5    1  0.6903325E-004  0.9118800E+02  0.7818608E-02  0.1130116E+00
         25   -1    0    0    0    0  0.00000000000E+00  0.00000000000E+00  0.99999998245E-14  0.12500000000E+03  0.12500000000E+03 0.  0.
        -13    1    3    3    0    0  0.32822039050E+02 -0.13189268420E+01 -0.11128549192E+02  0.34682583331E+02  0.10566000000E+00 0. -1.
         23    2    1    0    0    0 -0.18150266232E+02  0.18215705861E+02  0.15031034365E+02  0.95214498521E+02  0.90435748629E+02 0.  0.
         13    1    3    3    0    0 -0.50972305282E+02  0.19534632703E+02  0.26159583557E+02  0.60531915189E+02  0.10566000000E+00 0.  1.
         22    1    1    0    0    0  0.18150266232E+02 -0.18215705861E+02 -0.15031034365E+02  0.29785501479E+02  0.00000000000E+00 0.  1.
</event>
<event>
 5    1  0.6903325E-004  0.9118800E+02  0.7818608E-02  0.1130116E+00
         25   -1    0    0    0    0  0.00000000000E+00  0.00000000000E+00  0.99999998245E-14  0.12500000000E+03  0.12500000000E+03 0.  0.
        -13    1    3    3    0    0 -0.30697156553E+02 -0.88728650783E+01 -0.18480945612E+02  0.36913407725E+02  0.10566000000E+00 0. -1.
         23    2    1    0    0    0  0.22806298397E+02  0.15155135363E+02 -0.77876671288E+01  0.96531541423E+02  0.92238199005E+02 0.  0.
         13    1    3    3    0    0  0.53503454950E+02  0.24028000442E+02  0.10693278483E+02  0.59618133698E+02  0.10566000000E+00 0.  1.
         22    1    1    0    0    0 -0.22806298397E+02 -0.15155135363E+02  0.77876671288E+01  0.28468458577E+02  0.00000000000E+00 0.  1.
</event>
<event>
 5    1  0.6903325E-004  0.9118800E+02  0.7818608E-02  0.1130116E+00
         25   -1    0    0    0    0  0.00000000000E+00  0.00000000000E+00  0.99999998245E-14  0.12500000000E+03  0.12500000000E+03 0.  0.
        -13    1    3    3    0    0 -0.22874748956E+02 -0.23790728812E+02 -0.24522255779E+02  0.41116968635E+02  0.10566000000E+00 0. -1.
         23    2    1    0    0    0  0.18369427833E+02  0.10778004211E+02  0.58523323107E+01  0.10291264961E+03  0.10051448852E+03 0.  0.
         13    1    3    3    0    0  0.41244176789E+02  0.34568733023E+02  0.30374588089E+02  0.61795680977E+02  0.10566000000E+00 0.  1.
         22    1    1    0    0    0 -0.18369427833E+02 -0.10778004211E+02 -0.58523323107E+01  0.22087350388E+02  0.00000000000E+00 0.  1.
</event>
<event>
 5    1  0.6903325E-004  0.9118800E+02  0.7818608E-02  0.1130116E+00
         25   -1    0    0    0    0  0.00000000000E+00  0.00000000000E+00  0.99999998245E-14  0.12500000000E+03  0.12500000000E+03 0.  0.
        -13    1    3    3    0    0 -0.40497885540E+02 -0.34975665918E+00  0.40212011520E+02  0.57072043046E+02  0.10566000000E+00 0.  1.
         23    2    1    0    0    0 -0.25842196187E+02 -0.13203648573E+02  0.77076814141E+01  0.94973948108E+02  0.90102647170E+02 0.  0.
         13    1    3    3    0    0  0.14655689353E+02 -0.12853891914E+02 -0.32504330105E+02  0.37901905063E+02  0.10566000000E+00 0. -1.
         22    1    1    0    0    0  0.25842196187E+02  0.13203648573E+02 -0.77076814141E+01  0.30026051892E+02  0.00000000000E+00 0.  1.
</event>
<event>
 5    1  0.6903325E-004  0.9118800E+02  0.7818608E-02  0.1130116E+00
         25   -1    0    0    0    0  0.00000000000E+00  0.00000000000E+00  0.99999998245E-14  0.12500000000E+03  0.12500000000E+03 0.  0.
        -13    1    3    3    0    0  0.28407294013E+02  0.33773656307E+02  0.24579061395E+02  0.50515103054E+02  0.10566000000E+00 0. -1.
         23    2    1    0    0    0  0.18418574563E+02  0.17338135746E+02 -0.15754524769E+02  0.95199666264E+02  0.90415245207E+02 0.  0.
         13    1    3    3    0    0 -0.99887194498E+01 -0.16435520561E+02 -0.40333586164E+02  0.44684563209E+02  0.10566000000E+00 0.  1.
         22    1    1    0    0    0 -0.18418574563E+02 -0.17338135746E+02  0.15754524769E+02  0.29800333736E+02  0.00000000000E+00 0.  1.
</event>
<event>
 5    1  0.6903325E-004  0.9118800E+02  0.7818608E-02  0.1130116E+00
         25   -1    0    0    0    0  0.00000000000E+00  0.00000000000E+00  0.99999998245E-14  0.12500000000E+03  0.12500000000E+03 0.  0.
        -13    1    3    3    0    0 -0.94394137920E+01 -0.34396500869E+02 -0.44216792151E+01  0.35941399749E+02  0.10566000000E+00 0. -1.
         23    2    1    0    0    0  0.26727410930E+02  0.12651908891E+02 -0.26479016856E+01  0.95311000742E+02  0.90569035468E+02 0.  0.
         13    1    3    3    0    0  0.36166824722E+02  0.47048409760E+02  0.17737775295E+01  0.59369600994E+02  0.10566000000E+00 0.  1.
         22    1    1    0    0    0 -0.26727410930E+02 -0.12651908891E+02  0.26479016856E+01  0.29688999258E+02  0.00000000000E+00 0.  1.
</event>
<event>
 5    1  0.6903325E-004  0.9118800E+02  0.7818608E-02  0.1130116E+00
         25   -1    0    0    0    0  0.00000000000E+00  0.00000000000E+00  0.99999998245E-14  0.12500000000E+03  0.12500000000E+03 0.  0.
        -13    1    3    3    0    0 -0.18314651769E+02 -0.14990762232E+02  0.24227006271E+02  0.33868989040E+02  0.10566000000E+00 0. -1.
         23    2    1    0    0    0  0.19487492962E+02  0.18534262580E+02 -0.11499717011E+02  0.95750645090E+02  0.91173797072E+02 0.  0.
         13    1    3    3    0    0  0.37802144731E+02  0.33525024812E+02 -0.35726723282E+02  0.61881656049E+02  0.10566000000E+00 0.  1.
         22    1    1    0    0    0 -0.19487492962E+02 -0.18534262580E+02  0.11499717011E+02  0.29249354910E+02  0.00000000000E+00 0.  1.
</event>
<event>
 5    1  0.6903325E-004  0.9118800E+02  0.7818608E-02  0.1130116E+00
         25   -1    0    0    0    0  0.00000000000E+00  0.00000000000E+00  0.99999998245E-14  0.12500000000E+03  0.12500000000E+03 0.  0.
        -13    1    3    3    0    0  0.49879315561E+02 -0.23233249357E+02 -0.55110004158E+01  0.55300201502E+02  0.10566000000E+00 0.  1.
         23    2    1    0    0    0  0.95323921967E+01 -0.26746121914E+02 -0.67339775693E+01  0.95818362069E+02  0.91266590367E+02 0.  0.
         13    1    3    3    0    0 -0.40346923365E+02 -0.35128725571E+01 -0.12229771536E+01  0.40518160567E+02  0.10566000000E+00 0. -1.
         22    1    1    0    0    0 -0.95323921967E+01  0.26746121914E+02  0.67339775693E+01  0.29181637931E+02  0.00000000000E+00 0.  1.
</event>
<event>
 5    1  0.6903325E-004  0.9118800E+02  0.7818608E-02  0.1130116E+00
         25   -1    0    0    0    0  0.00000000000E+00  0.00000000000E+00  0.99999998245E-14  0.12500000000E+03  0.12500000000E+03 0.  0.
        -13    1    3    3    0    0  0.26653783925E+02 -0.15436965104E+02 -0.16734027062E+02  0.35053714709E+02  0.10566000000E+00 0.  1.
         23    2    1    0    0    0 -0.11060008696E+02  0.21694103378E+02  0.14647782693E+02  0.96583183648E+02  0.92308157343E+02 0.  0.
         13    1    3    3    0    0 -0.37713792621E+02  0.37131068482E+02  0.31381809755E+02  0.61529468940E+02  0.10566000000E+00 0. -1.
         22    1    1    0    0    0  0.11060008696E+02 -0.21694103378E+02 -0.14647782693E+02  0.28416816352E+02  0.00000000000E+00 0. -1.
</event>
<event>
 5    1  0.6903325E-004  0.9118800E+02  0.7818608E-02  0.1130116E+00
         25   -1    0    0    0    0  0.00000000000E+00  0.00000000000E+00  0.99999998245E-14  0.12500000000E+03  0.12500000000E+03 0.  0.
        -13    1    3    3    0    0  0.77067262160E+00 -0.52369196052E+02 -0.22000334773E+02  0.56808032228E+02  0.10566000000E+00 0.  1.
         23    2    1    0    0    0 -0.17894465443E+02 -0.26796924330E+02 -0.15970618557E+02  0.89036856309E+02  0.81450684941E+02 0.  0.
         13    1    3    3    0    0 -0.18665138064E+02  0.25572271722E+02  0.60297162160E+01  0.32228824081E+02  0.10566000000E+00 0. -1.
         22    1    1    0    0    0  0.17894465443E+02  0.26796924330E+02  0.15970618557E+02  0.35963143691E+02  0.00000000000E+00 0.  1.
</event>
<event>
 5    1  0.6903325E-004  0.9118800E+02  0.7818608E-02  0.1130116E+00
         25   -1    0    0    0    0  0.00000000000E+00  0.00000000000E+00  0.99999998245E-14  0.12500000000E+03  0.12500000000E+03 0.  0.
        -13    1    3    3    0    0  0.14927142981E+02  0.27986156250E+02 -0.90080671447E+01  0.32972730808E+02  0.10566000000E+00 0.  1.
         23    2    1    0    0    0 -0.48836426046E+00 -0.26220823988E+02  0.15619859475E+02  0.94475417771E+02  0.89408357790E+02 0.  0.
         13    1    3    3    0    0 -0.15415507242E+02 -0.54206980237E+02  0.24627926620E+02  0.61502686963E+02  0.10566000000E+00 0. -1.
         22    1    1    0    0    0  0.48836426046E+00  0.26220823988E+02 -0.15619859475E+02  0.30524582229E+02  0.00000000000E+00 0. -1.
</event>
<event>
 5    1  0.6903325E-004  0.9118800E+02  0.7818608E-02  0.1130116E+00
         25   -1    0    0    0    0  0.00000000000E+00  0.00000000000E+00  0.99999998245E-14  0.12500000000E+03  0.12500000000E+03 0.  0.
        -13    1    3    3    0    0  0.46918126903E+02  0.71022581990E+01  0.21912562313E+02  0.52267812799E+02  0.10566000000E+00 0.  1.
         23    2    1    0    0    0  0.13830405361E+02 -0.20158082429E+02  0.16562036320E+02  0.95471548522E+02  0.90790347121E+02 0.  0.
         13    1    3    3    0    0 -0.33087721542E+02 -0.27260340628E+02 -0.53505259934E+01  0.43203735723E+02  0.10566000000E+00 0. -1.
         22    1    1    0    0    0 -0.13830405361E+02  0.20158082429E+02 -0.16562036320E+02  0.29528451478E+02  0.00000000000E+00 0. -1.
</event>
<event>
 5    1  0.6903325E-004  0.9118800E+02  0.7818608E-02  0.1130116E+00
         25   -1    0    0    0    0  0.00000000000E+00  0.00000000000E+00  0.99999998245E-14  0.12500000000E+03  0.12500000000E+03 0.  0.
        -13    1    3    3    0    0  0.27895545471E+02  0.24821531293E+02  0.34433557020E+01  0.37498503108E+02  0.10566000000E+00 0.  1.
         23    2    1    0    0    0 -0.27701891018E+02  0.76888413120E+01 -0.32852556002E+01  0.96063760592E+02  0.91602075021E+02 0.  0.
         13    1    3    3    0    0 -0.55597436489E+02 -0.17132689981E+02 -0.67286113021E+01  0.58565257484E+02  0.10566000000E+00 0. -1.
         22    1    1    0    0    0  0.27701891018E+02 -0.76888413120E+01  0.32852556002E+01  0.28936239408E+02  0.00000000000E+00 0.  1.
</event>
<event>
 5    1  0.6903325E-004  0.9118800E+02  0.7818608E-02  0.1130116E+00
         25   -1    0    0    0    0  0.00000000000E+00  0.00000000000E+00  0.99999998245E-14  0.12500000000E+03  0.12500000000E+03 0.  0.
        -13    1    3    3    0    0 -0.87285899676E+00 -0.18022458536E+02  0.24807079397E+02  0.30675287231E+02  0.10566000000E+00 0. -1.
         23    2    1    0    0    0 -0.37582744927E+02  0.47330505330E+01 -0.96312903809E+01  0.85915140553E+02  0.76510032925E+02 0.  0.
         13    1    3    3    0    0 -0.36709885930E+02  0.22755509069E+02 -0.34438369778E+02  0.55239853321E+02  0.10566000000E+00 0.  1.
         22    1    1    0    0    0  0.37582744927E+02 -0.47330505330E+01  0.96312903809E+01  0.39084859447E+02  0.00000000000E+00 0.  1.
</event>
<event>
 5    1  0.6903325E-004  0.9118800E+02  0.7818608E-02  0.1130116E+00
         25   -1    0    0    0    0  0.00000000000E+00  0.00000000000E+00  0.99999998245E-14  0.12500000000E+03  0.12500000000E+03 0.  0.
        -13    1    3    3    0    0  0.34679721097E+02 -0.10408309060E+02  0.26076690384E+02  0.44620857212E+02  0.10566000000E+00 0. -1.
         23    2    1    0    0    0  0.81806780673E+01  0.28051586781E+02  0.12112202802E+02  0.93368995095E+02  0.87847872904E+02 0.  0.
         13    1    3    3    0    0 -0.26499043030E+02  0.38459895841E+02 -0.13964487582E+02  0.48748137883E+02  0.10566000000E+00 0.  1.
         22    1    1    0    0    0 -0.81806780673E+01 -0.28051586781E+02 -0.12112202802E+02  0.31631004905E+02  0.00000000000E+00 0.  1.
</event>
<event>
 5    1  0.6903325E-004  0.9118800E+02  0.7818608E-02  0.1130116E+00
         25   -1    0    0    0    0  0.00000000000E+00  0.00000000000E+00  0.99999998245E-14  0.12500000000E+03  0.12500000000E+03 0.  0.
        -13    1    3    3    0    0  0.18539148548E+02  0.46742402563E+01  0.57924349965E+02  0.60998278941E+02  0.10566000000E+00 0. -1.
         23    2    1    0    0    0  0.16264519778E+02  0.75455066663E+01  0.24408045996E+02  0.94714327086E+02  0.89741750437E+02 0.  0.
         13    1    3    3    0    0 -0.22746287698E+01  0.28712664100E+01 -0.33516303968E+02  0.33716048146E+02  0.10566000000E+00 0.  1.
         22    1    1    0    0    0 -0.16264519778E+02 -0.75455066663E+01 -0.24408045996E+02  0.30285672914E+02  0.00000000000E+00 0. -1.
</event>
<event>
 5    1  0.6903325E-004  0.9118800E+02  0.7818608E-02  0.1130116E+00
         25   -1    0    0    0    0  0.00000000000E+00  0.00000000000E+00  0.99999998245E-14  0.12500000000E+03  0.12500000000E+03 0.  0.
        -13    1    3    3    0    0 -0.45927323825E+02 -0.19334767996E+02  0.21439937172E+02  0.54247897629E+02  0.10566000000E+00 0. -1.
         23    2    1    0    0    0 -0.33771596955E+01 -0.24285792888E+02  0.62753906191E+01  0.99690209973E+02  0.96423817043E+02 0.  0.
         13    1    3    3    0    0  0.42550164130E+02 -0.49510248918E+01 -0.15164546553E+02  0.45442312344E+02  0.10566000000E+00 0.  1.
         22    1    1    0    0    0  0.33771596955E+01  0.24285792888E+02 -0.62753906191E+01  0.25309790027E+02  0.00000000000E+00 0.  1.
</event>
<event>
 5    1  0.6903325E-004  0.9118800E+02  0.7818608E-02  0.1130116E+00
         25   -1    0    0    0    0  0.00000000000E+00  0.00000000000E+00  0.99999998245E-14  0.12500000000E+03  0.12500000000E+03 0.  0.
        -13    1    3    3    0    0  0.50381396328E+02 -0.30318513622E+01 -0.24983527760E+02  0.56317537606E+02  0.10566000000E+00 0.  1.
         23    2    1    0    0    0  0.11472646188E+02  0.24175361022E+01 -0.26903109845E+02  0.95653051084E+02  0.91039896589E+02 0.  0.
         13    1    3    3    0    0 -0.38908750140E+02  0.54493874645E+01 -0.19195820853E+01  0.39335513478E+02  0.10566000000E+00 0. -1.
         22    1    1    0    0    0 -0.11472646188E+02 -0.24175361022E+01  0.26903109845E+02  0.29346948916E+02  0.00000000000E+00 0.  1.
</event>
<event>
 5    1  0.6903325E-004  0.9118800E+02  0.7818608E-02  0.1130116E+00
         25   -1    0    0    0    0  0.00000000000E+00  0.00000000000E+00  0.99999998245E-14  0.12500000000E+03  0.12500000000E+03 0.  0.
        -13    1    3    3    0    0 -0.10636956051E+02  0.23772046603E+02 -0.27403335318E+02  0.37804880430E+02  0.10566000000E+00 0.  1.
         23    2    1    0    0    0 -0.27711587350E+01 -0.24780703669E+02  0.84508088808E+01  0.98671711681E+02  0.95094310662E+02 0.  0.
         13    1    3    3    0    0  0.78657973161E+01 -0.48552750271E+02  0.35854144199E+02  0.60866831252E+02  0.10566000000E+00 0. -1.
         22    1    1    0    0    0  0.27711587350E+01  0.24780703669E+02 -0.84508088808E+01  0.26328288319E+02  0.00000000000E+00 0. -1.
</event>
<event>
 5    1  0.6903325E-004  0.9118800E+02  0.7818608E-02  0.1130116E+00
         25   -1    0    0    0    0  0.00000000000E+00  0.00000000000E+00  0.99999998245E-14  0.12500000000E+03  0.12500000000E+03 0.  0.
        -13    1    3    3    0    0 -0.31970434675E+02  0.44710982842E+02 -0.35700168080E+01  0.55081184302E+02  0.10566000000E+00 0. -1.
         23    2    1    0    0    0 -0.26860738456E+02  0.46019914267E+01 -0.98968056376E+01  0.96006477321E+02  0.91523873008E+02 0.  0.
         13    1    3    3    0    0  0.51096962192E+01 -0.40108991415E+02 -0.63267888296E+01  0.40925293020E+02  0.10566000000E+00 0.  1.
         22    1    1    0    0    0  0.26860738456E+02 -0.46019914267E+01  0.98968056376E+01  0.28993522679E+02  0.00000000000E+00 0. -1.
</event>
<event>
 5    1  0.6903325E-004  0.9118800E+02  0.7818608E-02  0.1130116E+00
         25   -1    0    0    0    0  0.00000000000E+00  0.00000000000E+00  0.99999998245E-14  0.12500000000E+03  0.12500000000E+03 0.  0.
        -13    1    3    3    0    0  0.15369649407E+02 -0.16950133461E+02 -0.26034921724E+02  0.34660661570E+02  0.10566000000E+00 0.  1.
         23    2    1    0    0    0 -0.31126488873E+02  0.67165455066E+01  0.41325121108E+00  0.93154418365E+02  0.87542016148E+02 0.  0.
         13    1    3    3    0    0 -0.46496138280E+02  0.23666678967E+02  0.26448172935E+02  0.58493756795E+02  0.10566000000E+00 0. -1.
         22    1    1    0    0    0  0.31126488873E+02 -0.67165455066E+01 -0.41325121108E+00  0.31845581635E+02  0.00000000000E+00 0. -1.
</event>
<event>
 5    1  0.6903325E-004  0.9118800E+02  0.7818608E-02  0.1130116E+00
         25   -1    0    0    0    0  0.00000000000E+00  0.00000000000E+00  0.99999998245E-14  0.12500000000E+03  0.12500000000E+03 0.  0.
        -13    1    3    3    0    0  0.70140664974E+01 -0.47357971114E+02  0.34097989474E+02  0.58776343941E+02  0.10566000000E+00 0.  1.
         23    2    1    0    0    0  0.12418617551E+02 -0.29703713759E+02  0.62270549769E+01  0.92208097239E+02  0.86180185134E+02 0.  0.
         13    1    3    3    0    0  0.54045510541E+01  0.17654257354E+02 -0.27870934497E+02  0.33431753298E+02  0.10566000000E+00 0. -1.
         22    1    1    0    0    0 -0.12418617551E+02  0.29703713759E+02 -0.62270549769E+01  0.32791902761E+02  0.00000000000E+00 0.  1.
</event>
<event>
 5    1  0.6903325E-004  0.9118800E+02  0.7818608E-02  0.1130116E+00
         25   -1    0    0    0    0  0.00000000000E+00  0.00000000000E+00  0.99999998245E-14  0.12500000000E+03  0.12500000000E+03 0.  0.
        -13    1    3    3    0    0 -0.33058449083E+02  0.34643001924E+02  0.25921963259E+02  0.54451427726E+02  0.10566000000E+00 0.  1.
         23    2    1    0    0    0 -0.78133296200E+01  0.18301026018E+01  0.27968886768E+02  0.95902645784E+02  0.91381953613E+02 0.  0.
         13    1    3    3    0    0  0.25245119463E+02 -0.32812899322E+02  0.20469235096E+01  0.41451218059E+02  0.10566000000E+00 0. -1.
         22    1    1    0    0    0  0.78133296200E+01 -0.18301026018E+01 -0.27968886768E+02  0.29097354216E+02  0.00000000000E+00 0. -1.
</event>
<event>
 5    1  0.6903325E-004  0.9118800E+02  0.7818608E-02  0.1130116E+00
         25   -1    0    0    0    0  0.00000000000E+00  0.00000000000E+00  0.99999998245E-14  0.12500000000E+03  0.12500000000E+03 0.  0.
        -13    1    3    3    0    0 -0.39828497468E+02 -0.19306292391E+01 -0.31682905712E+02  0.50929895132E+02  0.10566000000E+00 0.  1.
         23    2    1    0    0    0  0.13288206587E+01  0.17613079791E+02 -0.20683648989E+02  0.97800741194E+02  0.93942457380E+02 0.  0.
         13    1    3    3    0    0  0.41157318127E+02  0.19543709030E+02  0.10999256722E+02  0.46870846062E+02  0.10566000000E+00 0. -1.
         22    1    1    0    0    0 -0.13288206587E+01 -0.17613079791E+02  0.20683648989E+02  0.27199258806E+02  0.00000000000E+00 0.  1.
</event>
<event>
 5    1  0.6903325E-004  0.9118800E+02  0.7818608E-02  0.1130116E+00
         25   -1    0    0    0    0  0.00000000000E+00  0.00000000000E+00  0.99999998245E-14  0.12500000000E+03  0.12500000000E+03 0.  0.
        -13    1    3    3    0    0 -0.17989693483E+02 -0.28486694850E+02 -0.40272978741E+02  0.52507569319E+02  0.10566000000E+00 0. -1.
         23    2    1    0    0    0  0.50769863203E+01 -0.30993833495E+02 -0.74192335164E+01  0.92728673241E+02  0.86931975189E+02 0.  0.
         13    1    3    3    0    0  0.23066679804E+02 -0.25071386449E+01  0.32853745225E+02  0.40221103922E+02  0.10566000000E+00 0.  1.
         22    1    1    0    0    0 -0.50769863203E+01  0.30993833495E+02  0.74192335164E+01  0.32271326759E+02  0.00000000000E+00 0. -1.
</event>
<event>
 5    1  0.6903325E-004  0.9118800E+02  0.7818608E-02  0.1130116E+00
         25   -1    0    0    0    0  0.00000000000E+00  0.00000000000E+00  0.99999998245E-14  0.12500000000E+03  0.12500000000E+03 0.  0.
        -13    1    3    3    0    0 -0.22211710268E+02  0.74770312385E+01 -0.51557984763E+02  0.56634821674E+02  0.10566000000E+00 0.  1.
         23    2    1    0    0    0 -0.25627797560E+02  0.71931839342E+01 -0.12942805775E+02  0.95401991212E+02  0.90694530172E+02 0.  0.
         13    1    3    3    0    0 -0.34160872924E+01 -0.28384730433E+00  0.38615178988E+02  0.38767169539E+02  0.10566000000E+00 0. -1.
         22    1    1    0    0    0  0.25627797560E+02 -0.71931839342E+01  0.12942805775E+02  0.29598008788E+02  0.00000000000E+00 0.  1.
</event>
<event>
 5    1  0.6903325E-004  0.9118800E+02  0.7818608E-02  0.1130116E+00
         25   -1    0    0    0    0  0.00000000000E+00  0.00000000000E+00  0.99999998245E-14  0.12500000000E+03  0.12500000000E+03 0.  0.
        -13    1    3    3    0    0  0.45674614270E+02 -0.11231170436E+02 -0.37510429508E+02  0.60161059365E+02  0.10566000000E+00 0.  1.
         23    2    1    0    0    0  0.18245556161E+02 -0.16754004200E+02 -0.15296211772E+02  0.95886926117E+02  0.91360448385E+02 0.  0.
         13    1    3    3    0    0 -0.27429058108E+02 -0.55228337643E+01  0.22214217736E+02  0.35725866752E+02  0.10566000000E+00 0. -1.
         22    1    1    0    0    0 -0.18245556161E+02  0.16754004200E+02  0.15296211772E+02  0.29113073883E+02  0.00000000000E+00 0.  1.
</event>
<event>
 5    1  0.6903325E-004  0.9118800E+02  0.7818608E-02  0.1130116E+00
         25   -1    0    0    0    0  0.00000000000E+00  0.00000000000E+00  0.99999998245E-14  0.12500000000E+03  0.12500000000E+03 0.  0.
        -13    1    3    3    0    0  0.52474627008E+01  0.50933138753E+02  0.21458619290E+02  0.55517600758E+02  0.10566000000E+00 0. -1.
         23    2    1    0    0    0 -0.41155838203E+01  0.30058006334E+02 -0.87617481928E+01  0.93421684555E+02  0.87922813528E+02 0.  0.
         13    1    3    3    0    0 -0.93630465210E+01 -0.20875132419E+02 -0.30220367483E+02  0.37904083797E+02  0.10566000000E+00 0.  1.
         22    1    1    0    0    0  0.41155838203E+01 -0.30058006334E+02  0.87617481928E+01  0.31578315445E+02  0.00000000000E+00 0. -1.
</event>
<event>
 5    1  0.6903325E-004  0.9118800E+02  0.7818608E-02  0.1130116E+00
         25   -1    0    0    0    0  0.00000000000E+00  0.00000000000E+00  0.99999998245E-14  0.12500000000E+03  0.12500000000E+03 0.  0.
        -13    1    3    3    0    0 -0.23989267725E+01  0.49225396061E+02 -0.31958608180E+02  0.58738899103E+02  0.10566000000E+00 0.  1.
         23    2    1    0    0    0 -0.12171244959E+02  0.26564800478E+02 -0.48814512255E+01  0.95374733852E+02  0.90656954852E+02 0.  0.
         13    1    3    3    0    0 -0.97723181870E+01 -0.22660595583E+02  0.27077156955E+02  0.36635834749E+02  0.10566000000E+00 0. -1.
         22    1    1    0    0    0  0.12171244959E+02 -0.26564800478E+02  0.48814512255E+01  0.29625266148E+02  0.00000000000E+00 0. -1.
</event>
<event>
 5    1  0.6903325E-004  0.9118800E+02  0.7818608E-02  0.1130116E+00
         25   -1    0    0    0    0  0.00000000000E+00  0.00000000000E+00  0.99999998245E-14  0.12500000000E+03  0.12500000000E+03 0.  0.
        -13    1    3    3    0    0  0.17504946977E+02 -0.14208456147E+02 -0.52262197990E+02  0.56917940033E+02  0.10566000000E+00 0.  1.
         23    2    1    0    0    0  0.20358663281E+01  0.11012829927E+02 -0.26803671464E+02  0.95950663025E+02  0.91447612086E+02 0.  0.
         13    1    3    3    0    0 -0.15469080649E+02  0.25221286073E+02  0.25458526526E+02  0.39032722993E+02  0.10566000000E+00 0. -1.
         22    1    1    0    0    0 -0.20358663281E+01 -0.11012829927E+02  0.26803671464E+02  0.29049336975E+02  0.00000000000E+00 0.  1.
</event>
<event>
 5    1  0.6903325E-004  0.9118800E+02  0.7818608E-02  0.1130116E+00
         25   -1    0    0    0    0  0.00000000000E+00  0.00000000000E+00  0.99999998245E-14  0.12500000000E+03  0.12500000000E+03 0.  0.
        -13    1    3    3    0    0 -0.54889239204E+02  0.20391515271E+01 -0.15168393273E+02  0.56983138189E+02  0.10566000000E+00 0. -1.
         23    2    1    0    0    0 -0.16312130212E+02 -0.23420379170E+01 -0.23113821409E+02  0.96613040427E+02  0.92348579344E+02 0.  0.
         13    1    3    3    0    0  0.38577108992E+02 -0.43811894441E+01 -0.79454281360E+01  0.39629902238E+02  0.10566000000E+00 0.  1.
         22    1    1    0    0    0  0.16312130212E+02  0.23420379170E+01  0.23113821409E+02  0.28386959573E+02  0.00000000000E+00 0. -1.
</event>
<event>
 5    1  0.6903325E-004  0.9118800E+02  0.7818608E-02  0.1130116E+00
         25   -1    0    0    0    0  0.00000000000E+00  0.00000000000E+00  0.99999998245E-14  0.12500000000E+03  0.12500000000E+03 0.  0.
        -13    1    3    3    0    0  0.48308711089E+02  0.64079053790E+01 -0.64062551986E+01  0.49151236893E+02  0.10566000000E+00 0. -1.
         23    2    1    0    0    0  0.12865529333E+02  0.77481161809E+01  0.24544392576E+02  0.96225317443E+02  0.91822270505E+02 0.  0.
         13    1    3    3    0    0 -0.35443181756E+02  0.13402108019E+01  0.30950647774E+02  0.47074080550E+02  0.10566000000E+00 0.  1.
         22    1    1    0    0    0 -0.12865529333E+02 -0.77481161809E+01 -0.24544392576E+02  0.28774682557E+02  0.00000000000E+00 0. -1.
</event>
<event>
 5    1  0.6903325E-004  0.9118800E+02  0.7818608E-02  0.1130116E+00
         25   -1    0    0    0    0  0.00000000000E+00  0.00000000000E+00  0.99999998245E-14  0.12500000000E+03  0.12500000000E+03 0.  0.
        -13    1    3    3    0    0 -0.48115770928E+02 -0.36074525702E+01  0.18720752726E+01  0.48287233881E+02  0.10566000000E+00 0.  1.
         23    2    1    0    0    0 -0.40309505904E+01  0.89419192513E+01 -0.22683485853E+02  0.10028670372E+03  0.97194011802E+02 0.  0.
         13    1    3    3    0    0  0.44084820338E+02  0.12549371821E+02 -0.24555561126E+02  0.51999469839E+02  0.10566000000E+00 0. -1.
         22    1    1    0    0    0  0.40309505904E+01 -0.89419192513E+01  0.22683485853E+02  0.24713296279E+02  0.00000000000E+00 0.  1.
</event>
<event>
 5    1  0.6903325E-004  0.9118800E+02  0.7818608E-02  0.1130116E+00
         25   -1    0    0    0    0  0.00000000000E+00  0.00000000000E+00  0.99999998245E-14  0.12500000000E+03  0.12500000000E+03 0.  0.
        -13    1    3    3    0    0 -0.48076555761E+01 -0.30972164002E+02  0.12486995739E+02  0.33739068181E+02  0.10566000000E+00 0. -1.
         23    2    1    0    0    0 -0.44113872290E+01  0.29390517394E+02  0.53250334396E+00  0.95275491430E+02  0.90520013574E+02 0.  0.
         13    1    3    3    0    0  0.39626834716E+00  0.60362681395E+02 -0.11954492395E+02  0.61536423249E+02  0.10566000000E+00 0.  1.
         22    1    1    0    0    0  0.44113872290E+01 -0.29390517394E+02 -0.53250334396E+00  0.29724508570E+02  0.00000000000E+00 0.  1.
</event>
<event>
 5    1  0.6903325E-004  0.9118800E+02  0.7818608E-02  0.1130116E+00
         25   -1    0    0    0    0  0.00000000000E+00  0.00000000000E+00  0.99999998245E-14  0.12500000000E+03  0.12500000000E+03 0.  0.
        -13    1    3    3    0    0  0.39841490180E+02 -0.73384715152E+01  0.28880374705E+02  0.49752233227E+02  0.10566000000E+00 0.  1.
         23    2    1    0    0    0 -0.88886395346E+00 -0.24122126861E+02  0.17301131190E+02  0.95301578765E+02  0.90556030673E+02 0.  0.
         13    1    3    3    0    0 -0.40730354133E+02 -0.16783655345E+02 -0.11579243514E+02  0.45549345538E+02  0.10566000000E+00 0. -1.
         22    1    1    0    0    0  0.88886395346E+00  0.24122126861E+02 -0.17301131190E+02  0.29698421235E+02  0.00000000000E+00 0.  1.
</event>
<event>
 5    1  0.6903325E-004  0.9118800E+02  0.7818608E-02  0.1130116E+00
         25   -1    0    0    0    0  0.00000000000E+00  0.00000000000E+00  0.99999998245E-14  0.12500000000E+03  0.12500000000E+03 0.  0.
        -13    1    3    3    0    0 -0.20794255362E+02  0.44521426853E+02 -0.15757958182E+02  0.51603128928E+02  0.10566000000E+00 0.  1.
         23    2    1    0    0    0 -0.10841822830E+02  0.32792430827E+01 -0.27192117357E+02  0.95543085637E+02  0.90888785937E+02 0.  0.
         13    1    3    3    0    0  0.99524325324E+01 -0.41242183770E+02 -0.11434159175E+02  0.43939956708E+02  0.10566000000E+00 0. -1.
         22    1    1    0    0    0  0.10841822830E+02 -0.32792430827E+01  0.27192117357E+02  0.29456914363E+02  0.00000000000E+00 0.  1.
</event>
<event>
 5    1  0.6903325E-004  0.9118800E+02  0.7818608E-02  0.1130116E+00
         25   -1    0    0    0    0  0.00000000000E+00  0.00000000000E+00  0.99999998245E-14  0.12500000000E+03  0.12500000000E+03 0.  0.
        -13    1    3    3    0    0  0.32565703968E+02  0.23667270839E+01 -0.22815485520E+02  0.39833202427E+02  0.10566000000E+00 0. -1.
         23    2    1    0    0    0 -0.19277234711E+02 -0.16985385964E+02 -0.13591188291E+02  0.95933945682E+02  0.91424758247E+02 0.  0.
         13    1    3    3    0    0 -0.51842938679E+02 -0.19352113048E+02  0.92242972295E+01  0.56100743255E+02  0.10566000000E+00 0.  1.
         22    1    1    0    0    0  0.19277234711E+02  0.16985385964E+02  0.13591188291E+02  0.29066054318E+02  0.00000000000E+00 0. -1.
</event>
<event>
 5    1  0.6903325E-004  0.9118800E+02  0.7818608E-02  0.1130116E+00
         25   -1    0    0    0    0  0.00000000000E+00  0.00000000000E+00  0.99999998245E-14  0.12500000000E+03  0.12500000000E+03 0.  0.
        -13    1    3    3    0    0  0.28369497090E+01  0.33798907218E+02  0.69868769219E+01  0.34630074010E+02  0.10566000000E+00 0.  1.
         23    2    1    0    0    0  0.64713654729E+01 -0.27033427310E+02  0.95040571668E+01  0.95622936399E+02  0.90998538998E+02 0.  0.
         13    1    3    3    0    0  0.36344157638E+01 -0.60832334527E+02  0.25171802448E+01  0.60992862389E+02  0.10566000000E+00 0. -1.
         22    1    1    0    0    0 -0.64713654729E+01  0.27033427310E+02 -0.95040571668E+01  0.29377063601E+02  0.00000000000E+00 0. -1.
</event>
<event>
 5    1  0.6903325E-004  0.9118800E+02  0.7818608E-02  0.1130116E+00
         25   -1    0    0    0    0  0.00000000000E+00  0.00000000000E+00  0.99999998245E-14  0.12500000000E+03  0.12500000000E+03 0.  0.
        -13    1    3    3    0    0 -0.41691615638E+01 -0.18126932192E+02 -0.54656193403E+02  0.57734549623E+02  0.10566000000E+00 0.  1.
         23    2    1    0    0    0  0.11226367843E+02  0.25306148621E+01 -0.27609416937E+02  0.95088208844E+02  0.90261022657E+02 0.  0.
         13    1    3    3    0    0  0.15395529407E+02  0.20657547054E+02  0.27046776465E+02  0.37353659221E+02  0.10566000000E+00 0. -1.
         22    1    1    0    0    0 -0.11226367843E+02 -0.25306148621E+01  0.27609416937E+02  0.29911791156E+02  0.00000000000E+00 0.  1.
</event>
<event>
 5    1  0.6903325E-004  0.9118800E+02  0.7818608E-02  0.1130116E+00
         25   -1    0    0    0    0  0.00000000000E+00  0.00000000000E+00  0.99999998245E-14  0.12500000000E+03  0.12500000000E+03 0.  0.
        -13    1    3    3    0    0 -0.31796867340E+02  0.21554962881E+02  0.12367532023E+02  0.40356216495E+02  0.10566000000E+00 0.  1.
         23    2    1    0    0    0 -0.10934704892E+02 -0.25757886302E+02 -0.79451159060E+01  0.95911147417E+02  0.91393582129E+02 0.  0.
         13    1    3    3    0    0  0.20862162449E+02 -0.47312849183E+02 -0.20312647929E+02  0.55554930922E+02  0.10566000000E+00 0. -1.
         22    1    1    0    0    0  0.10934704892E+02  0.25757886302E+02  0.79451159060E+01  0.29088852583E+02  0.00000000000E+00 0. -1.
</event>
<event>
 5    1  0.6903325E-004  0.9118800E+02  0.7818608E-02  0.1130116E+00
         25   -1    0    0    0    0  0.00000000000E+00  0.00000000000E+00  0.99999998245E-14  0.12500000000E+03  0.12500000000E+03 0.  0.
        -13    1    3    3    0    0  0.96755720014E+01  0.20583796244E+02 -0.44662721518E+02  0.50120646632E+02  0.10566000000E+00 0.  1.
         23    2    1    0    0    0  0.17575581296E+02 -0.15322493033E+02 -0.18254849976E+02  0.95387175104E+02  0.90674107529E+02 0.  0.
         13    1    3    3    0    0  0.79000092949E+01 -0.35906289277E+02  0.26407871542E+02  0.45266528472E+02  0.10566000000E+00 0. -1.
         22    1    1    0    0    0 -0.17575581296E+02  0.15322493033E+02  0.18254849976E+02  0.29612824896E+02  0.00000000000E+00 0.  1.
</event>
<event>
 5    1  0.6903325E-004  0.9118800E+02  0.7818608E-02  0.1130116E+00
         25   -1    0    0    0    0  0.00000000000E+00  0.00000000000E+00  0.99999998245E-14  0.12500000000E+03  0.12500000000E+03 0.  0.
        -13    1    3    3    0    0 -0.49189163120E+02  0.21545505090E+02 -0.27617893563E+02  0.60386602545E+02  0.10566000000E+00 0. -1.
         23    2    1    0    0    0 -0.17862895348E+02  0.20300740934E+02 -0.11913887069E+02  0.95450992948E+02  0.90762041829E+02 0.  0.
         13    1    3    3    0    0  0.31326267772E+02 -0.12447641561E+01  0.15704006493E+02  0.35064390403E+02  0.10566000000E+00 0.  1.
         22    1    1    0    0    0  0.17862895348E+02 -0.20300740934E+02  0.11913887069E+02  0.29549007052E+02  0.00000000000E+00 0. -1.
</event>
<event>
 5    1  0.6903325E-004  0.9118800E+02  0.7818608E-02  0.1130116E+00
         25   -1    0    0    0    0  0.00000000000E+00  0.00000000000E+00  0.99999998245E-14  0.12500000000E+03  0.12500000000E+03 0.  0.
        -13    1    3    3    0    0  0.29846534387E+02 -0.48492540915E+02  0.24717641659E+02  0.62075076420E+02  0.10566000000E+00 0. -1.
         23    2    1    0    0    0  0.14242099535E+02 -0.22942855370E+02  0.17337419430E+02  0.92909532191E+02  0.87191645516E+02 0.  0.
         13    1    3    3    0    0 -0.15604434853E+02  0.25549685545E+02 -0.73802222286E+01  0.30834455771E+02  0.10566000000E+00 0.  1.
         22    1    1    0    0    0 -0.14242099535E+02  0.22942855370E+02 -0.17337419430E+02  0.32090467809E+02  0.00000000000E+00 0. -1.
</event>
<event>
 5    1  0.6903325E-004  0.9118800E+02  0.7818608E-02  0.1130116E+00
         25   -1    0    0    0    0  0.00000000000E+00  0.00000000000E+00  0.99999998245E-14  0.12500000000E+03  0.12500000000E+03 0.  0.
        -13    1    3    3    0    0  0.51314543723E+02  0.13986483626E+02 -0.20448926860E+02  0.56982224381E+02  0.10566000000E+00 0. -1.
         23    2    1    0    0    0  0.15890744570E+02 -0.55421121571E+01 -0.21805599490E+02  0.97455219382E+02  0.93481574899E+02 0.  0.
         13    1    3    3    0    0 -0.35423799153E+02 -0.19528595784E+02 -0.13566726309E+01  0.40472995001E+02  0.10566000000E+00 0.  1.
         22    1    1    0    0    0 -0.15890744570E+02  0.55421121571E+01  0.21805599490E+02  0.27544780618E+02  0.00000000000E+00 0. -1.
</event>
<event>
 5    1  0.6903325E-004  0.9118800E+02  0.7818608E-02  0.1130116E+00
         25   -1    0    0    0    0  0.00000000000E+00  0.00000000000E+00  0.99999998245E-14  0.12500000000E+03  0.12500000000E+03 0.  0.
        -13    1    3    3    0    0  0.30760834015E+02 -0.15754093353E+01  0.23367050335E+00  0.30802217287E+02  0.10566000000E+00 0. -1.
         23    2    1    0    0    0  0.11056348759E+02 -0.12315613282E+02 -0.42676566624E+02  0.79226574116E+02  0.64665628652E+02 0.  0.
         13    1    3    3    0    0 -0.19704485255E+02 -0.10740203946E+02 -0.42910237127E+02  0.48424356829E+02  0.10566000000E+00 0.  1.
         22    1    1    0    0    0 -0.11056348759E+02  0.12315613282E+02  0.42676566624E+02  0.45773425884E+02  0.00000000000E+00 0.  1.
</event>
<event>
 5    1  0.6903325E-004  0.9118800E+02  0.7818608E-02  0.1130116E+00
         25   -1    0    0    0    0  0.00000000000E+00  0.00000000000E+00  0.99999998245E-14  0.12500000000E+03  0.12500000000E+03 0.  0.
        -13    1    3    3    0    0  0.70751022761E+01  0.18440998787E+02 -0.33290528826E+02  0.38709145974E+02  0.10566000000E+00 0.  1.
         23    2    1    0    0    0  0.13172930831E+02 -0.26305155842E+02  0.12352330184E+01  0.95554913293E+02  0.90905051143E+02 0.  0.
         13    1    3    3    0    0  0.60978285554E+01 -0.44746154629E+02  0.34525761844E+02  0.56845767319E+02  0.10566000000E+00 0. -1.
         22    1    1    0    0    0 -0.13172930831E+02  0.26305155842E+02 -0.12352330184E+01  0.29445086707E+02  0.00000000000E+00 0. -1.
</event>
<event>
 5    1  0.6903325E-004  0.9118800E+02  0.7818608E-02  0.1130116E+00
         25   -1    0    0    0    0  0.00000000000E+00  0.00000000000E+00  0.99999998245E-14  0.12500000000E+03  0.12500000000E+03 0.  0.
        -13    1    3    3    0    0  0.24919967200E+02 -0.22097264502E+02 -0.22501513452E+02  0.40194814782E+02  0.10566000000E+00 0.  1.
         23    2    1    0    0    0 -0.24934199970E+02 -0.47695864980E+00 -0.17011065921E+02  0.94811953003E+02  0.89877629313E+02 0.  0.
         13    1    3    3    0    0 -0.49854167170E+02  0.21620305852E+02  0.54904475309E+01  0.54617138221E+02  0.10566000000E+00 0. -1.
         22    1    1    0    0    0  0.24934199970E+02  0.47695864980E+00  0.17011065921E+02  0.30188046997E+02  0.00000000000E+00 0. -1.
</event>
<event>
 5    1  0.6903325E-004  0.9118800E+02  0.7818608E-02  0.1130116E+00
         25   -1    0    0    0    0  0.00000000000E+00  0.00000000000E+00  0.99999998245E-14  0.12500000000E+03  0.12500000000E+03 0.  0.
        -13    1    3    3    0    0  0.53311267072E+01  0.36578792045E+02  0.10518937386E+02  0.38432904486E+02  0.10566000000E+00 0.  1.
         23    2    1    0    0    0 -0.32484263073E+02 -0.37434652338E+00 -0.79947210619E+00  0.92503744241E+02  0.86607944556E+02 0.  0.
         13    1    3    3    0    0 -0.37815389780E+02 -0.36953138568E+02 -0.11318409493E+02  0.54070839755E+02  0.10566000000E+00 0. -1.
         22    1    1    0    0    0  0.32484263073E+02  0.37434652338E+00  0.79947210619E+00  0.32496255759E+02  0.00000000000E+00 0. -1.
</event>
<event>
 5    1  0.6903325E-004  0.9118800E+02  0.7818608E-02  0.1130116E+00
         25   -1    0    0    0    0  0.00000000000E+00  0.00000000000E+00  0.99999998245E-14  0.12500000000E+03  0.12500000000E+03 0.  0.
        -13    1    3    3    0    0  0.27522418859E+02  0.45368065676E+02  0.69324356215E+01  0.53514621840E+02  0.10566000000E+00 0.  1.
         23    2    1    0    0    0 -0.30460780985E+00  0.16886694613E+02  0.23010008936E+02  0.96456809006E+02  0.92136866951E+02 0.  0.
         13    1    3    3    0    0 -0.27827026669E+02 -0.28481371063E+02  0.16077573315E+02  0.42942187166E+02  0.10566000000E+00 0. -1.
         22    1    1    0    0    0  0.30460780985E+00 -0.16886694613E+02 -0.23010008936E+02  0.28543190994E+02  0.00000000000E+00 0.  1.
</event>
<event>
 5    1  0.6903325E-004  0.9118800E+02  0.7818608E-02  0.1130116E+00
         25   -1    0    0    0    0  0.00000000000E+00  0.00000000000E+00  0.99999998245E-14  0.12500000000E+03  0.12500000000E+03 0.  0.
        -13    1    3    3    0    0 -0.27756990738E+02  0.16123629362E+02 -0.25769758939E+02  0.41164470098E+02  0.10566000000E+00 0.  1.
         23    2    1    0    0    0  0.23294195901E+02  0.36160210232E+01 -0.20082174862E+02  0.94032453796E+02  0.88786899084E+02 0.  0.
         13    1    3    3    0    0  0.51051186639E+02 -0.12507608339E+02  0.56875840764E+01  0.52867983698E+02  0.10566000000E+00 0. -1.
         22    1    1    0    0    0 -0.23294195901E+02 -0.36160210232E+01  0.20082174862E+02  0.30967546204E+02  0.00000000000E+00 0. -1.
</event>
<event>
 5    1  0.6903325E-004  0.9118800E+02  0.7818608E-02  0.1130116E+00
         25   -1    0    0    0    0  0.00000000000E+00  0.00000000000E+00  0.99999998245E-14  0.12500000000E+03  0.12500000000E+03 0.  0.
        -13    1    3    3    0    0 -0.11167201022E+02 -0.22416854950E+02 -0.23751455862E+02  0.34516149613E+02  0.10566000000E+00 0.  1.
         23    2    1    0    0    0 -0.19367050940E+01  0.22861964245E+01  0.30244266070E+02  0.94607679410E+02  0.89593079267E+02 0.  0.
         13    1    3    3    0    0  0.92304959282E+01  0.24703051375E+02  0.53995721932E+02  0.60091529797E+02  0.10566000000E+00 0. -1.
         22    1    1    0    0    0  0.19367050940E+01 -0.22861964245E+01 -0.30244266070E+02  0.30392320590E+02  0.00000000000E+00 0. -1.
</event>
<event>
 5    1  0.6903325E-004  0.9118800E+02  0.7818608E-02  0.1130116E+00
         25   -1    0    0    0    0  0.00000000000E+00  0.00000000000E+00  0.99999998245E-14  0.12500000000E+03  0.12500000000E+03 0.  0.
        -13    1    3    3    0    0  0.13210852199E+02  0.49273804232E+02 -0.23629638936E+02  0.56221040542E+02  0.10566000000E+00 0. -1.
         23    2    1    0    0    0 -0.13710448336E+02  0.23493258196E+02 -0.12014525364E+02  0.95263517458E+02  0.90503477085E+02 0.  0.
         13    1    3    3    0    0 -0.26921300535E+02 -0.25780546036E+02  0.11615113573E+02  0.39042476916E+02  0.10566000000E+00 0.  1.
         22    1    1    0    0    0  0.13710448336E+02 -0.23493258196E+02  0.12014525364E+02  0.29736482542E+02  0.00000000000E+00 0. -1.
</event>
<event>
 5    1  0.6903325E-004  0.9118800E+02  0.7818608E-02  0.1130116E+00
         25   -1    0    0    0    0  0.00000000000E+00  0.00000000000E+00  0.99999998245E-14  0.12500000000E+03  0.12500000000E+03 0.  0.
        -13    1    3    3    0    0 -0.22775245506E+02  0.42007328388E+02  0.93543222932E+01  0.48691292402E+02  0.10566000000E+00 0.  1.
         23    2    1    0    0    0 -0.18001478882E+02  0.63075983025E+01 -0.21600414601E+02  0.96183044067E+02  0.91764704635E+02 0.  0.
         13    1    3    3    0    0  0.47737666236E+01 -0.35699730086E+02 -0.30954736894E+02  0.47491751665E+02  0.10566000000E+00 0. -1.
         22    1    1    0    0    0  0.18001478882E+02 -0.63075983025E+01  0.21600414601E+02  0.28816955933E+02  0.00000000000E+00 0. -1.
</event>
<event>
 5    1  0.6903325E-004  0.9118800E+02  0.7818608E-02  0.1130116E+00
         25   -1    0    0    0    0  0.00000000000E+00  0.00000000000E+00  0.99999998245E-14  0.12500000000E+03  0.12500000000E+03 0.  0.
        -13    1    3    3    0    0  0.54589521930E+02  0.27740092841E+02 -0.78543454545E+01  0.61735164712E+02  0.10566000000E+00 0. -1.
         23    2    1    0    0    0  0.31386104235E+02  0.11079885448E+02 -0.96151702676E+01  0.90354612142E+02  0.83448505292E+02 0.  0.
         13    1    3    3    0    0 -0.23203417695E+02 -0.16660207393E+02 -0.17608248131E+01  0.28619447430E+02  0.10566000000E+00 0.  1.
         22    1    1    0    0    0 -0.31386104235E+02 -0.11079885448E+02  0.96151702676E+01  0.34645387858E+02  0.00000000000E+00 0. -1.
</event>
<event>
 5    1  0.6903325E-004  0.9118800E+02  0.7818608E-02  0.1130116E+00
         25   -1    0    0    0    0  0.00000000000E+00  0.00000000000E+00  0.99999998245E-14  0.12500000000E+03  0.12500000000E+03 0.  0.
        -13    1    3    3    0    0  0.15445019017E+02 -0.41293015211E+02  0.15323802528E+01  0.44113728826E+02  0.10566000000E+00 0.  1.
         23    2    1    0    0    0  0.21599983469E+01 -0.37170372103E+01 -0.29850291052E+02  0.94841720301E+02  0.89919019542E+02 0.  0.
         13    1    3    3    0    0 -0.13285020670E+02  0.37575978000E+02 -0.31382671305E+02  0.50727991476E+02  0.10566000000E+00 0. -1.
         22    1    1    0    0    0 -0.21599983469E+01  0.37170372103E+01  0.29850291052E+02  0.30158279699E+02  0.00000000000E+00 0. -1.
</event>
<event>
 5    1  0.6903325E-004  0.9118800E+02  0.7818608E-02  0.1130116E+00
         25   -1    0    0    0    0  0.00000000000E+00  0.00000000000E+00  0.99999998245E-14  0.12500000000E+03  0.12500000000E+03 0.  0.
        -13    1    3    3    0    0 -0.12039105950E+02  0.36993188224E+02  0.72784051756E+01  0.39578054436E+02  0.10566000000E+00 0.  1.
         23    2    1    0    0    0  0.19128264026E+01 -0.14078421355E+02  0.25699690180E+02  0.95634460195E+02  0.91014367266E+02 0.  0.
         13    1    3    3    0    0  0.13951932353E+02 -0.51071609579E+02  0.18421285004E+02  0.56056405759E+02  0.10566000000E+00 0. -1.
         22    1    1    0    0    0 -0.19128264026E+01  0.14078421355E+02 -0.25699690180E+02  0.29365539805E+02  0.00000000000E+00 0. -1.
</event>
<event>
 5    1  0.6903325E-004  0.9118800E+02  0.7818608E-02  0.1130116E+00
         25   -1    0    0    0    0  0.00000000000E+00  0.00000000000E+00  0.99999998245E-14  0.12500000000E+03  0.12500000000E+03 0.  0.
        -13    1    3    3    0    0  0.32378546282E+02 -0.50640245478E+01 -0.12614548114E+02  0.35116272469E+02  0.10566000000E+00 0. -1.
         23    2    1    0    0    0 -0.24156177923E+02  0.15561701270E+02 -0.58582443151E+01  0.95674132499E+02  0.91068837286E+02 0.  0.
         13    1    3    3    0    0 -0.56534724204E+02  0.20625725817E+02  0.67563037993E+01  0.60557860030E+02  0.10566000000E+00 0.  1.
         22    1    1    0    0    0  0.24156177923E+02 -0.15561701270E+02  0.58582443151E+01  0.29325867501E+02  0.00000000000E+00 0.  1.
</event>
<event>
 5    1  0.6903325E-004  0.9118800E+02  0.7818608E-02  0.1130116E+00
         25   -1    0    0    0    0  0.00000000000E+00  0.00000000000E+00  0.99999998245E-14  0.12500000000E+03  0.12500000000E+03 0.  0.
        -13    1    3    3    0    0  0.39894181791E+02 -0.14012724028E+02  0.37278234133E+02  0.56370028203E+02  0.10566000000E+00 0.  1.
         23    2    1    0    0    0  0.49972669456E+01 -0.20034244194E+02  0.21663603420E+02  0.95072498760E+02  0.90239263571E+02 0.  0.
         13    1    3    3    0    0 -0.34896914846E+02 -0.60215201657E+01 -0.15614630713E+02  0.38702470557E+02  0.10566000000E+00 0. -1.
         22    1    1    0    0    0 -0.49972669456E+01  0.20034244194E+02 -0.21663603420E+02  0.29927501240E+02  0.00000000000E+00 0.  1.
</event>
<event>
 5    1  0.6903325E-004  0.9118800E+02  0.7818608E-02  0.1130116E+00
         25   -1    0    0    0    0  0.00000000000E+00  0.00000000000E+00  0.99999998245E-14  0.12500000000E+03  0.12500000000E+03 0.  0.
        -13    1    3    3    0    0 -0.37785444170E+02 -0.10335442383E+02 -0.52559156729E+01  0.39524637557E+02  0.10566000000E+00 0.  1.
         23    2    1    0    0    0  0.18032706086E+02 -0.79037386410E+01 -0.19611328588E+02  0.97210581469E+02  0.93153880045E+02 0.  0.
         13    1    3    3    0    0  0.55818150256E+02  0.24317037423E+01 -0.14355412915E+02  0.57685943913E+02  0.10566000000E+00 0. -1.
         22    1    1    0    0    0 -0.18032706086E+02  0.79037386410E+01  0.19611328588E+02  0.27789418531E+02  0.00000000000E+00 0. -1.
</event>
<event>
 5    1  0.6903325E-004  0.9118800E+02  0.7818608E-02  0.1130116E+00
         25   -1    0    0    0    0  0.00000000000E+00  0.00000000000E+00  0.99999998245E-14  0.12500000000E+03  0.12500000000E+03 0.  0.
        -13    1    3    3    0    0 -0.25810521423E+02 -0.32503428416E+02  0.25155907442E+02  0.48533356758E+02  0.10566000000E+00 0. -1.
         23    2    1    0    0    0  0.49704649437E+01 -0.26479064835E+02 -0.10556713253E+02  0.96064026006E+02  0.91602437202E+02 0.  0.
         13    1    3    3    0    0  0.30780986367E+02  0.60243635803E+01 -0.35712620695E+02  0.47530669248E+02  0.10566000000E+00 0.  1.
         22    1    1    0    0    0 -0.49704649437E+01  0.26479064835E+02  0.10556713253E+02  0.28935973994E+02  0.00000000000E+00 0. -1.
</event>
<event>
 5    1  0.6903325E-004  0.9118800E+02  0.7818608E-02  0.1130116E+00
         25   -1    0    0    0    0  0.00000000000E+00  0.00000000000E+00  0.99999998245E-14  0.12500000000E+03  0.12500000000E+03 0.  0.
        -13    1    3    3    0    0  0.16812880014E+02 -0.27248845806E+02  0.75380969941E+00  0.32027362133E+02  0.10566000000E+00 0. -1.
         23    2    1    0    0    0 -0.18877650372E+02  0.22997913612E+02  0.82754495666E+01  0.94117111864E+02  0.88906006355E+02 0.  0.
         13    1    3    3    0    0 -0.35690530386E+02  0.50246759418E+02  0.75216398672E+01  0.62089749731E+02  0.10566000000E+00 0.  1.
         22    1    1    0    0    0  0.18877650372E+02 -0.22997913612E+02 -0.82754495666E+01  0.30882888136E+02  0.00000000000E+00 0.  1.
</event>
<event>
 5    1  0.6903325E-004  0.9118800E+02  0.7818608E-02  0.1130116E+00
         25   -1    0    0    0    0  0.00000000000E+00  0.00000000000E+00  0.99999998245E-14  0.12500000000E+03  0.12500000000E+03 0.  0.
        -13    1    3    3    0    0  0.24773909838E+02  0.16891656399E+02  0.17497730180E+02  0.34716802705E+02  0.10566000000E+00 0.  1.
         23    2    1    0    0    0 -0.23909327679E+02 -0.16850151354E+02  0.38999335277E+01  0.95490797500E+02  0.90816845216E+02 0.  0.
         13    1    3    3    0    0 -0.48683237516E+02 -0.33741807753E+02 -0.13597796652E+02  0.60773994795E+02  0.10566000000E+00 0. -1.
         22    1    1    0    0    0  0.23909327679E+02  0.16850151354E+02 -0.38999335277E+01  0.29509202500E+02  0.00000000000E+00 0. -1.
</event>
<event>
 5    1  0.6903325E-004  0.9118800E+02  0.7818608E-02  0.1130116E+00
         25   -1    0    0    0    0  0.00000000000E+00  0.00000000000E+00  0.99999998245E-14  0.12500000000E+03  0.12500000000E+03 0.  0.
        -13    1    3    3    0    0 -0.15611828804E+02 -0.24925237703E+01 -0.34786869715E+02  0.38210984572E+02  0.10566000000E+00 0.  1.
         23    2    1    0    0    0 -0.24212068472E+02  0.22379020104E+02  0.10336061751E+02  0.90447446216E+02  0.83587448543E+02 0.  0.
         13    1    3    3    0    0 -0.86002396679E+01  0.24871543874E+02  0.45122931465E+02  0.52236461644E+02  0.10566000000E+00 0. -1.
         22    1    1    0    0    0  0.24212068472E+02 -0.22379020104E+02 -0.10336061751E+02  0.34552553784E+02  0.00000000000E+00 0. -1.
</event>
<event>
 5    1  0.6903325E-004  0.9118800E+02  0.7818608E-02  0.1130116E+00
         25   -1    0    0    0    0  0.00000000000E+00  0.00000000000E+00  0.99999998245E-14  0.12500000000E+03  0.12500000000E+03 0.  0.
        -13    1    3    3    0    0  0.30276682190E+02  0.21768922579E+02 -0.34256976977E+02  0.50637092238E+02  0.10566000000E+00 0. -1.
         23    2    1    0    0    0  0.22288662986E+02 -0.15116852343E+02 -0.70538724381E+01  0.97160085510E+02  0.93086096585E+02 0.  0.
         13    1    3    3    0    0 -0.79880192041E+01 -0.36885774922E+02  0.27203104539E+02  0.46522993272E+02  0.10566000000E+00 0.  1.
         22    1    1    0    0    0 -0.22288662986E+02  0.15116852343E+02  0.70538724381E+01  0.27839914490E+02  0.00000000000E+00 0. -1.
</event>
<event>
 5    1  0.6903325E-004  0.9118800E+02  0.7818608E-02  0.1130116E+00
         25   -1    0    0    0    0  0.00000000000E+00  0.00000000000E+00  0.99999998245E-14  0.12500000000E+03  0.12500000000E+03 0.  0.
        -13    1    3    3    0    0 -0.25272286153E+00  0.37399949782E+02  0.58732257526E+01  0.37859292880E+02  0.10566000000E+00 0.  1.
         23    2    1    0    0    0 -0.18928784307E+02 -0.16173191976E+02  0.15879051704E+02  0.95470094870E+02  0.90788345713E+02 0.  0.
         13    1    3    3    0    0 -0.18676061445E+02 -0.53573141758E+02  0.10005825951E+02  0.57610801990E+02  0.10566000000E+00 0. -1.
         22    1    1    0    0    0  0.18928784307E+02  0.16173191976E+02 -0.15879051704E+02  0.29529905130E+02  0.00000000000E+00 0. -1.
</event>
<event>
 5    1  0.6903325E-004  0.9118800E+02  0.7818608E-02  0.1130116E+00
         25   -1    0    0    0    0  0.00000000000E+00  0.00000000000E+00  0.99999998245E-14  0.12500000000E+03  0.12500000000E+03 0.  0.
        -13    1    3    3    0    0  0.30666052589E+02 -0.20378097278E+02  0.17375342477E+02  0.40713478362E+02  0.10566000000E+00 0. -1.
         23    2    1    0    0    0  0.10998148825E+02  0.27119628429E+02 -0.20344802593E+01  0.95664481705E+02  0.91055589759E+02 0.  0.
         13    1    3    3    0    0 -0.19667903763E+02  0.47497725707E+02 -0.19409822737E+02  0.54951003344E+02  0.10566000000E+00 0.  1.
         22    1    1    0    0    0 -0.10998148825E+02 -0.27119628429E+02  0.20344802593E+01  0.29335518295E+02  0.00000000000E+00 0.  1.
</event>
<event>
 5    1  0.6903325E-004  0.9118800E+02  0.7818608E-02  0.1130116E+00
         25   -1    0    0    0    0  0.00000000000E+00  0.00000000000E+00  0.99999998245E-14  0.12500000000E+03  0.12500000000E+03 0.  0.
        -13    1    3    3    0    0 -0.20401716271E+02 -0.26302883002E+02  0.10946229964E+02  0.35041443970E+02  0.10566000000E+00 0.  1.
         23    2    1    0    0    0  0.46226114992E+01  0.22130767819E+02 -0.17385139657E+02  0.96480138461E+02  0.92168512059E+02 0.  0.
         13    1    3    3    0    0  0.25024327770E+02  0.48433650821E+02 -0.28331369621E+02  0.61438694491E+02  0.10566000000E+00 0. -1.
         22    1    1    0    0    0 -0.46226114992E+01 -0.22130767819E+02  0.17385139657E+02  0.28519861539E+02  0.00000000000E+00 0. -1.
</event>
<event>
 5    1  0.6903325E-004  0.9118800E+02  0.7818608E-02  0.1130116E+00
         25   -1    0    0    0    0  0.00000000000E+00  0.00000000000E+00  0.99999998245E-14  0.12500000000E+03  0.12500000000E+03 0.  0.
        -13    1    3    3    0    0 -0.50211695299E+02  0.11050339632E+01  0.36841682661E+02  0.62287688913E+02  0.10566000000E+00 0.  1.
         23    2    1    0    0    0 -0.22515437278E+02 -0.20157984066E+01  0.19746514071E+02  0.94984451080E+02  0.90117216834E+02 0.  0.
         13    1    3    3    0    0  0.27696258021E+02 -0.31208323699E+01 -0.17095168590E+02  0.32696762167E+02  0.10566000000E+00 0. -1.
         22    1    1    0    0    0  0.22515437278E+02  0.20157984066E+01 -0.19746514071E+02  0.30015548920E+02  0.00000000000E+00 0.  1.
</event>
<event>
 5    1  0.6903325E-004  0.9118800E+02  0.7818608E-02  0.1130116E+00
         25   -1    0    0    0    0  0.00000000000E+00  0.00000000000E+00  0.99999998245E-14  0.12500000000E+03  0.12500000000E+03 0.  0.
        -13    1    3    3    0    0  0.32390861209E+02 -0.14626654751E+02 -0.27093806810E+02  0.44689959170E+02  0.10566000000E+00 0.  1.
         23    2    1    0    0    0  0.20231689002E+02  0.22536041913E+01  0.20178131570E+02  0.96337184971E+02  0.91974432549E+02 0.  0.
         13    1    3    3    0    0 -0.12159172207E+02  0.16880258942E+02  0.47271938380E+02  0.51647225801E+02  0.10566000000E+00 0. -1.
         22    1    1    0    0    0 -0.20231689002E+02 -0.22536041913E+01 -0.20178131570E+02  0.28662815029E+02  0.00000000000E+00 0.  1.
</event>
<event>
 5    1  0.6903325E-004  0.9118800E+02  0.7818608E-02  0.1130116E+00
         25   -1    0    0    0    0  0.00000000000E+00  0.00000000000E+00  0.99999998245E-14  0.12500000000E+03  0.12500000000E+03 0.  0.
        -13    1    3    3    0    0  0.98279300333E+00  0.30241746421E+02 -0.51980853554E+02  0.60146067278E+02  0.10566000000E+00 0.  1.
         23    2    1    0    0    0  0.10783542593E+02  0.18214621306E+02 -0.19161607521E+02  0.96447864826E+02  0.92124731786E+02 0.  0.
         13    1    3    3    0    0  0.98007495895E+01 -0.12027125114E+02  0.32819246034E+02  0.36301797549E+02  0.10566000000E+00 0. -1.
         22    1    1    0    0    0 -0.10783542593E+02 -0.18214621306E+02  0.19161607521E+02  0.28552135174E+02  0.00000000000E+00 0.  1.
</event>
<event>
 5    1  0.6903325E-004  0.9118800E+02  0.7818608E-02  0.1130116E+00
         25   -1    0    0    0    0  0.00000000000E+00  0.00000000000E+00  0.99999998245E-14  0.12500000000E+03  0.12500000000E+03 0.  0.
        -13    1    3    3    0    0 -0.27302978629E+02  0.12353126950E+02 -0.20330899813E+02  0.36213382039E+02  0.10566000000E+00 0. -1.
         23    2    1    0    0    0  0.28805356617E+02  0.32987005649E+01 -0.19717098158E+01  0.95939414409E+02  0.91432235029E+02 0.  0.
         13    1    3    3    0    0  0.56108335247E+02 -0.90544263852E+01  0.18359189997E+02  0.59726032370E+02  0.10566000000E+00 0.  1.
         22    1    1    0    0    0 -0.28805356617E+02 -0.32987005649E+01  0.19717098158E+01  0.29060585591E+02  0.00000000000E+00 0.  1.
</event>
<event>
 5    1  0.6903325E-004  0.9118800E+02  0.7818608E-02  0.1130116E+00
         25   -1    0    0    0    0  0.00000000000E+00  0.00000000000E+00  0.99999998245E-14  0.12500000000E+03  0.12500000000E+03 0.  0.
        -13    1    3    3    0    0 -0.23179379426E+02  0.20093774244E+02 -0.51118009970E+02  0.59616319085E+02  0.10566000000E+00 0. -1.
         23    2    1    0    0    0 -0.36557809531E+01 -0.72085142111E-01 -0.30091709436E+02  0.94686951532E+02  0.89703611316E+02 0.  0.
         13    1    3    3    0    0  0.19523598473E+02 -0.20165859386E+02  0.21026300534E+02  0.35070632448E+02  0.10566000000E+00 0.  1.
         22    1    1    0    0    0  0.36557809531E+01  0.72085142111E-01  0.30091709436E+02  0.30313048468E+02  0.00000000000E+00 0. -1.
</event>
<event>
 5    1  0.6903325E-004  0.9118800E+02  0.7818608E-02  0.1130116E+00
         25   -1    0    0    0    0  0.00000000000E+00  0.00000000000E+00  0.99999998245E-14  0.12500000000E+03  0.12500000000E+03 0.  0.
        -13    1    3    3    0    0 -0.27575857034E+01  0.40295900336E+02 -0.15487664150E+02  0.43257863651E+02  0.10566000000E+00 0. -1.
         23    2    1    0    0    0 -0.31243797045E+01  0.71773638556E+01  0.26861794032E+02  0.97020859930E+02  0.92898950384E+02 0.  0.
         13    1    3    3    0    0 -0.36679400105E+00 -0.33118536481E+02  0.42349458182E+02  0.53762996278E+02  0.10566000000E+00 0.  1.
         22    1    1    0    0    0  0.31243797045E+01 -0.71773638556E+01 -0.26861794032E+02  0.27979140070E+02  0.00000000000E+00 0.  1.
</event>
<event>
 5    1  0.6903325E-004  0.9118800E+02  0.7818608E-02  0.1130116E+00
         25   -1    0    0    0    0  0.00000000000E+00  0.00000000000E+00  0.99999998245E-14  0.12500000000E+03  0.12500000000E+03 0.  0.
        -13    1    3    3    0    0  0.17438313791E+02 -0.16818609281E+02  0.54466970588E+02  0.59612267656E+02  0.10566000000E+00 0.  1.
         23    2    1    0    0    0  0.84796157436E+01 -0.20277279309E+02  0.20379610545E+02  0.95026670767E+02  0.90175760001E+02 0.  0.
         13    1    3    3    0    0 -0.89586980474E+01 -0.34586700279E+01 -0.34087360042E+02  0.35414403112E+02  0.10566000000E+00 0. -1.
         22    1    1    0    0    0 -0.84796157436E+01  0.20277279309E+02 -0.20379610545E+02  0.29973329233E+02  0.00000000000E+00 0.  1.
</event>
<event>
 5    1  0.6903325E-004  0.9118800E+02  0.7818608E-02  0.1130116E+00
         25   -1    0    0    0    0  0.00000000000E+00  0.00000000000E+00  0.99999998245E-14  0.12500000000E+03  0.12500000000E+03 0.  0.
        -13    1    3    3    0    0 -0.34557300103E+02  0.22056294546E+02 -0.35358825038E+02  0.54138200853E+02  0.10566000000E+00 0.  1.
         23    2    1    0    0    0 -0.24978242243E+02  0.10812026521E+02  0.51881102249E+01  0.97292077113E+02  0.93263172143E+02 0.  0.
         13    1    3    3    0    0  0.95790578599E+01 -0.11244268025E+02  0.40546935263E+02  0.43153876259E+02  0.10566000000E+00 0. -1.
         22    1    1    0    0    0  0.24978242243E+02 -0.10812026521E+02 -0.51881102249E+01  0.27707922887E+02  0.00000000000E+00 0.  1.
</event>
<event>
 5    1  0.6903325E-004  0.9118800E+02  0.7818608E-02  0.1130116E+00
         25   -1    0    0    0    0  0.00000000000E+00  0.00000000000E+00  0.99999998245E-14  0.12500000000E+03  0.12500000000E+03 0.  0.
        -13    1    3    3    0    0  0.13098535292E+02 -0.95276895228E+01  0.59965397534E+02  0.62114479470E+02  0.10566000000E+00 0.  1.
         23    2    1    0    0    0  0.11026162449E+02 -0.29226071948E+01  0.29160114997E+02  0.93688177986E+02  0.88300874835E+02 0.  0.
         13    1    3    3    0    0 -0.20723728430E+01  0.66050823280E+01 -0.30805282537E+02  0.31573698516E+02  0.10566000000E+00 0. -1.
         22    1    1    0    0    0 -0.11026162449E+02  0.29226071948E+01 -0.29160114997E+02  0.31311822014E+02  0.00000000000E+00 0.  1.
</event>
<event>
 5    1  0.6903325E-004  0.9118800E+02  0.7818608E-02  0.1130116E+00
         25   -1    0    0    0    0  0.00000000000E+00  0.00000000000E+00  0.99999998245E-14  0.12500000000E+03  0.12500000000E+03 0.  0.
        -13    1    3    3    0    0  0.15789924570E+02  0.37816896780E+02  0.16505490672E+02  0.44180106228E+02  0.10566000000E+00 0. -1.
         23    2    1    0    0    0 -0.72546188857E+01 -0.70034210019E+01  0.27453565580E+02  0.95753193953E+02  0.91177291516E+02 0.  0.
         13    1    3    3    0    0 -0.23044543455E+02 -0.44820317782E+02  0.10948074908E+02  0.51573087724E+02  0.10566000000E+00 0.  1.
         22    1    1    0    0    0  0.72546188857E+01  0.70034210019E+01 -0.27453565580E+02  0.29246806047E+02  0.00000000000E+00 0.  1.
</event>
<event>
 5    1  0.6903325E-004  0.9118800E+02  0.7818608E-02  0.1130116E+00
         25   -1    0    0    0    0  0.00000000000E+00  0.00000000000E+00  0.99999998245E-14  0.12500000000E+03  0.12500000000E+03 0.  0.
        -13    1    3    3    0    0  0.21325195596E+02 -0.37287391814E+02  0.68675524933E+01  0.43500436742E+02  0.10566000000E+00 0.  1.
         23    2    1    0    0    0  0.12793990073E+02 -0.11523270521E+02 -0.30673369319E+02  0.89824333256E+02  0.82650367900E+02 0.  0.
         13    1    3    3    0    0 -0.85312055237E+01  0.25764121293E+02 -0.37540921812E+02  0.46323896514E+02  0.10566000000E+00 0. -1.
         22    1    1    0    0    0 -0.12793990073E+02  0.11523270521E+02  0.30673369319E+02  0.35175666744E+02  0.00000000000E+00 0. -1.
</event>
<event>
 5    1  0.6903325E-004  0.9118800E+02  0.7818608E-02  0.1130116E+00
         25   -1    0    0    0    0  0.00000000000E+00  0.00000000000E+00  0.99999998245E-14  0.12500000000E+03  0.12500000000E+03 0.  0.
        -13    1    3    3    0    0 -0.36120387448E+02  0.98011572303E+01  0.32776738480E+02  0.49750083636E+02  0.10566000000E+00 0. -1.
         23    2    1    0    0    0  0.93064649929E+01  0.10968594400E+02  0.25431920510E+02  0.95781804734E+02  0.91216507188E+02 0.  0.
         13    1    3    3    0    0  0.45426852440E+02  0.11674371697E+01 -0.73448179700E+01  0.46031721098E+02  0.10566000000E+00 0.  1.
         22    1    1    0    0    0 -0.93064649929E+01 -0.10968594400E+02 -0.25431920510E+02  0.29218195266E+02  0.00000000000E+00 0. -1.
</event>
<event>
 5    1  0.6903325E-004  0.9118800E+02  0.7818608E-02  0.1130116E+00
         25   -1    0    0    0    0  0.00000000000E+00  0.00000000000E+00  0.99999998245E-14  0.12500000000E+03  0.12500000000E+03 0.  0.
        -13    1    3    3    0    0  0.99094483190E+01  0.10431311762E+01 -0.30313499172E+02  0.31909319716E+02  0.10566000000E+00 0.  1.
         23    2    1    0    0    0 -0.11898756045E+02 -0.52489173660E+01  0.27805553582E+02  0.94303414865E+02  0.89167559775E+02 0.  0.
         13    1    3    3    0    0 -0.21808204364E+02 -0.62920485422E+01  0.58119052754E+02  0.62394095149E+02  0.10566000000E+00 0. -1.
         22    1    1    0    0    0  0.11898756045E+02  0.52489173660E+01 -0.27805553582E+02  0.30696585135E+02  0.00000000000E+00 0. -1.
</event>
<event>
 5    1  0.6903325E-004  0.9118800E+02  0.7818608E-02  0.1130116E+00
         25   -1    0    0    0    0  0.00000000000E+00  0.00000000000E+00  0.99999998245E-14  0.12500000000E+03  0.12500000000E+03 0.  0.
        -13    1    3    3    0    0 -0.36510291178E+02 -0.18063876901E+02  0.16111221280E+02  0.43805109585E+02  0.10566000000E+00 0. -1.
         23    2    1    0    0    0  0.64433641845E+01  0.10421288715E+02  0.25974300215E+02  0.96280938871E+02  0.91897958181E+02 0.  0.
         13    1    3    3    0    0  0.42953655363E+02  0.28485165615E+02  0.98630789344E+01  0.52475829286E+02  0.10566000000E+00 0.  1.
         22    1    1    0    0    0 -0.64433641845E+01 -0.10421288715E+02 -0.25974300215E+02  0.28719061129E+02  0.00000000000E+00 0. -1.
</event>
<event>
 5    1  0.6903325E-004  0.9118800E+02  0.7818608E-02  0.1130116E+00
         25   -1    0    0    0    0  0.00000000000E+00  0.00000000000E+00  0.99999998245E-14  0.12500000000E+03  0.12500000000E+03 0.  0.
        -13    1    3    3    0    0 -0.24936485922E+02 -0.48496550267E+02 -0.53117350523E+01  0.54790230984E+02  0.10566000000E+00 0. -1.
         23    2    1    0    0    0 -0.80506027539E+01 -0.16881767968E+02 -0.23486098584E+02  0.94976623755E+02  0.90106359036E+02 0.  0.
         13    1    3    3    0    0  0.16885883168E+02  0.31614782299E+02 -0.18174363532E+02  0.40186392772E+02  0.10566000000E+00 0.  1.
         22    1    1    0    0    0  0.80506027539E+01  0.16881767968E+02  0.23486098584E+02  0.30023376245E+02  0.00000000000E+00 0. -1.
</event>
<event>
 5    1  0.6903325E-004  0.9118800E+02  0.7818608E-02  0.1130116E+00
         25   -1    0    0    0    0  0.00000000000E+00  0.00000000000E+00  0.99999998245E-14  0.12500000000E+03  0.12500000000E+03 0.  0.
        -13    1    3    3    0    0  0.19972590385E+02  0.48979648215E+02  0.72360402431E+01  0.53388030010E+02  0.10566000000E+00 0. -1.
         23    2    1    0    0    0  0.51808941220E+01  0.19235523575E+02 -0.20316365169E+02  0.96546498901E+02  0.92258466956E+02 0.  0.
         13    1    3    3    0    0 -0.14791696263E+02 -0.29744124639E+02 -0.27552405413E+02  0.43158468890E+02  0.10566000000E+00 0.  1.
         22    1    1    0    0    0 -0.51808941220E+01 -0.19235523575E+02  0.20316365169E+02  0.28453501099E+02  0.00000000000E+00 0. -1.
</event>
<event>
 5    1  0.6903325E-004  0.9118800E+02  0.7818608E-02  0.1130116E+00
         25   -1    0    0    0    0  0.00000000000E+00  0.00000000000E+00  0.99999998245E-14  0.12500000000E+03  0.12500000000E+03 0.  0.
        -13    1    3    3    0    0  0.22391901779E+02 -0.58870345437E+01  0.25953461478E+02  0.34779990911E+02  0.10566000000E+00 0. -1.
         23    2    1    0    0    0 -0.18110264762E+02 -0.13062530598E+02 -0.18977363314E+02  0.95695534236E+02  0.91098208320E+02 0.  0.
         13    1    3    3    0    0 -0.40502166541E+02 -0.71754960545E+01 -0.44930824792E+02  0.60915543326E+02  0.10566000000E+00 0.  1.
         22    1    1    0    0    0  0.18110264762E+02  0.13062530598E+02  0.18977363314E+02  0.29304465764E+02  0.00000000000E+00 0.  1.
</event>
<event>
 5    1  0.6903325E-004  0.9118800E+02  0.7818608E-02  0.1130116E+00
         25   -1    0    0    0    0  0.00000000000E+00  0.00000000000E+00  0.99999998245E-14  0.12500000000E+03  0.12500000000E+03 0.  0.
        -13    1    3    3    0    0  0.32875799038E+02  0.27033030137E+02  0.32778045421E+02  0.53721637228E+02  0.10566000000E+00 0. -1.
         23    2    1    0    0    0  0.27203546806E+02 -0.70549224357E+01  0.97281589817E+01  0.95260430962E+02  0.90499214032E+02 0.  0.
         13    1    3    3    0    0 -0.56722522316E+01 -0.34087952573E+02 -0.23049886439E+02  0.41538793734E+02  0.10566000000E+00 0.  1.
         22    1    1    0    0    0 -0.27203546806E+02  0.70549224357E+01 -0.97281589817E+01  0.29739569038E+02  0.00000000000E+00 0. -1.
</event>
<event>
 5    1  0.6903325E-004  0.9118800E+02  0.7818608E-02  0.1130116E+00
         25   -1    0    0    0    0  0.00000000000E+00  0.00000000000E+00  0.99999998245E-14  0.12500000000E+03  0.12500000000E+03 0.  0.
        -13    1    3    3    0    0  0.87517287581E+00  0.32915167919E+02 -0.12387817941E+02  0.35180156397E+02  0.10566000000E+00 0. -1.
         23    2    1    0    0    0  0.26460232593E+00 -0.14966005747E+02  0.24951848564E+02  0.95902816474E+02  0.91382187096E+02 0.  0.
         13    1    3    3    0    0 -0.61057054988E+00 -0.47881173667E+02  0.37339666504E+02  0.60722660077E+02  0.10566000000E+00 0.  1.
         22    1    1    0    0    0 -0.26460232593E+00  0.14966005747E+02 -0.24951848564E+02  0.29097183526E+02  0.00000000000E+00 0.  1.
</event>
<event>
 5    1  0.6903325E-004  0.9118800E+02  0.7818608E-02  0.1130116E+00
         25   -1    0    0    0    0  0.00000000000E+00  0.00000000000E+00  0.99999998245E-14  0.12500000000E+03  0.12500000000E+03 0.  0.
        -13    1    3    3    0    0 -0.19408357015E+02  0.51438924657E+02  0.10994958517E+02  0.56067348508E+02  0.10566000000E+00 0.  1.
         23    2    1    0    0    0 -0.19961857113E+02  0.10631672431E+02 -0.79041103995E+01  0.10104205436E+03  0.98160651943E+02 0.  0.
         13    1    3    3    0    0 -0.55350009831E+00 -0.40807252225E+02 -0.18899068916E+02  0.44974705852E+02  0.10566000000E+00 0. -1.
         22    1    1    0    0    0  0.19961857113E+02 -0.10631672431E+02  0.79041103995E+01  0.23957945640E+02  0.00000000000E+00 0. -1.
</event>
<event>
 5    1  0.6903325E-004  0.9118800E+02  0.7818608E-02  0.1130116E+00
         25   -1    0    0    0    0  0.00000000000E+00  0.00000000000E+00  0.99999998245E-14  0.12500000000E+03  0.12500000000E+03 0.  0.
        -13    1    3    3    0    0  0.41285138133E+02  0.31032936509E+01 -0.23956135301E+02  0.47833049712E+02  0.10566000000E+00 0. -1.
         23    2    1    0    0    0  0.15967112690E+02 -0.12922138823E+00  0.20451601382E+02  0.99053258684E+02  0.95594532642E+02 0.  0.
         13    1    3    3    0    0 -0.25318025443E+02 -0.32325150392E+01  0.44407736683E+02  0.51220208972E+02  0.10566000000E+00 0.  1.
         22    1    1    0    0    0 -0.15967112690E+02  0.12922138823E+00 -0.20451601382E+02  0.25946741316E+02  0.00000000000E+00 0. -1.
</event>
<event>
 5    1  0.6903325E-004  0.9118800E+02  0.7818608E-02  0.1130116E+00
         25   -1    0    0    0    0  0.00000000000E+00  0.00000000000E+00  0.99999998245E-14  0.12500000000E+03  0.12500000000E+03 0.  0.
        -13    1    3    3    0    0  0.18878918982E+02  0.20174815163E+02 -0.51193254539E+02  0.58173853432E+02  0.10566000000E+00 0.  1.
         23    2    1    0    0    0 -0.54305536542E+01  0.28429419760E+01 -0.28959776870E+02  0.95398616444E+02  0.90689878769E+02 0.  0.
         13    1    3    3    0    0 -0.24309472636E+02 -0.17331873187E+02  0.22233477669E+02  0.37224763012E+02  0.10566000000E+00 0. -1.
         22    1    1    0    0    0  0.54305536542E+01 -0.28429419760E+01  0.28959776870E+02  0.29601383556E+02  0.00000000000E+00 0.  1.
</event>
<event>
 5    1  0.6903325E-004  0.9118800E+02  0.7818608E-02  0.1130116E+00
         25   -1    0    0    0    0  0.00000000000E+00  0.00000000000E+00  0.99999998245E-14  0.12500000000E+03  0.12500000000E+03 0.  0.
        -13    1    3    3    0    0  0.25761536928E+02  0.40530265585E+02  0.18230697584E+02  0.51368557617E+02  0.10566000000E+00 0.  1.
         23    2    1    0    0    0 -0.30396769224E+01  0.95086867017E+01  0.28394302809E+02  0.94901973643E+02  0.90002741129E+02 0.  0.
         13    1    3    3    0    0 -0.28801213850E+02 -0.31021578883E+02  0.10163605225E+02  0.43533416025E+02  0.10566000000E+00 0. -1.
         22    1    1    0    0    0  0.30396769224E+01 -0.95086867017E+01 -0.28394302809E+02  0.30098026357E+02  0.00000000000E+00 0. -1.
</event>
<event>
 5    1  0.6903325E-004  0.9118800E+02  0.7818608E-02  0.1130116E+00
         25   -1    0    0    0    0  0.00000000000E+00  0.00000000000E+00  0.99999998245E-14  0.12500000000E+03  0.12500000000E+03 0.  0.
        -13    1    3    3    0    0 -0.33242482130E+02 -0.14225922698E+02 -0.32772920266E+02  0.48800768042E+02  0.10566000000E+00 0. -1.
         23    2    1    0    0    0  0.11809249676E+02 -0.45084671747E+01 -0.26921374513E+02  0.95258697745E+02  0.90496820034E+02 0.  0.
         13    1    3    3    0    0  0.45051731805E+02  0.97174555232E+01  0.58515457530E+01  0.46457929703E+02  0.10566000000E+00 0.  1.
         22    1    1    0    0    0 -0.11809249676E+02  0.45084671747E+01  0.26921374513E+02  0.29741302255E+02  0.00000000000E+00 0.  1.
</event>
<event>
 5    1  0.6903325E-004  0.9118800E+02  0.7818608E-02  0.1130116E+00
         25   -1    0    0    0    0  0.00000000000E+00  0.00000000000E+00  0.99999998245E-14  0.12500000000E+03  0.12500000000E+03 0.  0.
        -13    1    3    3    0    0  0.17584588823E+02 -0.23612466433E+02  0.34542312498E+02  0.45386659404E+02  0.10566000000E+00 0.  1.
         23    2    1    0    0    0  0.23710833072E+02  0.95412495579E+01 -0.66237078378E+01  0.98597110885E+02  0.94996198457E+02 0.  0.
         13    1    3    3    0    0  0.61262442486E+01  0.33153715990E+02 -0.41166020335E+02  0.53210451481E+02  0.10566000000E+00 0. -1.
         22    1    1    0    0    0 -0.23710833072E+02 -0.95412495579E+01  0.66237078378E+01  0.26402889115E+02  0.00000000000E+00 0. -1.
</event>
<event>
 5    1  0.6903325E-004  0.9118800E+02  0.7818608E-02  0.1130116E+00
         25   -1    0    0    0    0  0.00000000000E+00  0.00000000000E+00  0.99999998245E-14  0.12500000000E+03  0.12500000000E+03 0.  0.
        -13    1    3    3    0    0 -0.32715943926E+02  0.98430407336E+01 -0.15261121104E+02  0.37418329990E+02  0.10566000000E+00 0. -1.
         23    2    1    0    0    0  0.21943541936E+02 -0.77741084209E+01 -0.18974669141E+02  0.94966787328E+02  0.90092712424E+02 0.  0.
         13    1    3    3    0    0  0.54659485861E+02 -0.17617149154E+02 -0.37135480369E+01  0.57548457338E+02  0.10566000000E+00 0.  1.
         22    1    1    0    0    0 -0.21943541936E+02  0.77741084209E+01  0.18974669141E+02  0.30033212672E+02  0.00000000000E+00 0. -1.
</event>
<event>
 5    1  0.6903325E-004  0.9118800E+02  0.7818608E-02  0.1130116E+00
         25   -1    0    0    0    0  0.00000000000E+00  0.00000000000E+00  0.99999998245E-14  0.12500000000E+03  0.12500000000E+03 0.  0.
        -13    1    3    3    0    0  0.62307157195E+01  0.41296541804E+02 -0.10521717143E+02  0.43069059417E+02  0.10566000000E+00 0. -1.
         23    2    1    0    0    0 -0.63320035134E+01 -0.76782017409E+01 -0.26981704386E+02  0.96241324404E+02  0.91844058605E+02 0.  0.
         13    1    3    3    0    0 -0.12562719233E+02 -0.48974743545E+02 -0.16459987243E+02  0.53172264988E+02  0.10566000000E+00 0.  1.
         22    1    1    0    0    0  0.63320035134E+01  0.76782017409E+01  0.26981704386E+02  0.28758675596E+02  0.00000000000E+00 0.  1.
</event>
<event>
 5    1  0.6903325E-004  0.9118800E+02  0.7818608E-02  0.1130116E+00
         25   -1    0    0    0    0  0.00000000000E+00  0.00000000000E+00  0.99999998245E-14  0.12500000000E+03  0.12500000000E+03 0.  0.
        -13    1    3    3    0    0 -0.40163945935E+02 -0.31581946310E+01  0.47766574485E+02  0.62488187271E+02  0.10566000000E+00 0. -1.
         23    2    1    0    0    0 -0.18369218759E+02 -0.19168449102E+01  0.22999694028E+02  0.95502738812E+02  0.90833279711E+02 0.  0.
         13    1    3    3    0    0  0.21794727176E+02  0.12413497207E+01 -0.24766880457E+02  0.33014551541E+02  0.10566000000E+00 0.  1.
         22    1    1    0    0    0  0.18369218759E+02  0.19168449102E+01 -0.22999694028E+02  0.29497261188E+02  0.00000000000E+00 0. -1.
</event>
<event>
 5    1  0.6903325E-004  0.9118800E+02  0.7818608E-02  0.1130116E+00
         25   -1    0    0    0    0  0.00000000000E+00  0.00000000000E+00  0.99999998245E-14  0.12500000000E+03  0.12500000000E+03 0.  0.
        -13    1    3    3    0    0 -0.52829328825E+02  0.29493015239E+02  0.11487823467E+02  0.61585365014E+02  0.10566000000E+00 0.  1.
         23    2    1    0    0    0 -0.25340042226E+02  0.56398616484E+01  0.42324982087E+01  0.98697151855E+02  0.95127745499E+02 0.  0.
         13    1    3    3    0    0  0.27489286598E+02 -0.23853153590E+02 -0.72553252580E+01  0.37111786841E+02  0.10566000000E+00 0. -1.
         22    1    1    0    0    0  0.25340042226E+02 -0.56398616484E+01 -0.42324982087E+01  0.26302848145E+02  0.00000000000E+00 0.  1.
</event>
<event>
 5    1  0.6903325E-004  0.9118800E+02  0.7818608E-02  0.1130116E+00
         25   -1    0    0    0    0  0.00000000000E+00  0.00000000000E+00  0.99999998245E-14  0.12500000000E+03  0.12500000000E+03 0.  0.
        -13    1    3    3    0    0 -0.81898563127E+01  0.47244506940E+02  0.31997571360E+02  0.57645233275E+02  0.10566000000E+00 0.  1.
         23    2    1    0    0    0 -0.13565507955E+02  0.10868136202E+02  0.24150145161E+02  0.95244850834E+02  0.90477691773E+02 0.  0.
         13    1    3    3    0    0 -0.53756516420E+01 -0.36376370737E+02 -0.78474261988E+01  0.37599617559E+02  0.10566000000E+00 0. -1.
         22    1    1    0    0    0  0.13565507955E+02 -0.10868136202E+02 -0.24150145161E+02  0.29755149166E+02  0.00000000000E+00 0.  1.
</event>
<event>
 5    1  0.6903325E-004  0.9118800E+02  0.7818608E-02  0.1130116E+00
         25   -1    0    0    0    0  0.00000000000E+00  0.00000000000E+00  0.99999998245E-14  0.12500000000E+03  0.12500000000E+03 0.  0.
        -13    1    3    3    0    0 -0.12315243249E+02  0.19225424570E+02 -0.28360793523E+02  0.36409173836E+02  0.10566000000E+00 0. -1.
         23    2    1    0    0    0  0.32805333756E+01  0.70291329609E+01  0.27894624898E+02  0.96046922312E+02  0.91579094656E+02 0.  0.
         13    1    3    3    0    0  0.15595776625E+02 -0.12196291609E+02  0.56255418421E+02  0.59637748476E+02  0.10566000000E+00 0.  1.
         22    1    1    0    0    0 -0.32805333756E+01 -0.70291329609E+01 -0.27894624898E+02  0.28953077688E+02  0.00000000000E+00 0.  1.
</event>
<event>
 5    1  0.6903325E-004  0.9118800E+02  0.7818608E-02  0.1130116E+00
         25   -1    0    0    0    0  0.00000000000E+00  0.00000000000E+00  0.99999998245E-14  0.12500000000E+03  0.12500000000E+03 0.  0.
        -13    1    3    3    0    0  0.35030521984E+01  0.32440007120E+02  0.15467018718E+02  0.36109074604E+02  0.10566000000E+00 0.  1.
         23    2    1    0    0    0  0.13168521338E+02 -0.25449826440E+02  0.78258295715E+01  0.95295669868E+02  0.90547873896E+02 0.  0.
         13    1    3    3    0    0  0.96654691398E+01 -0.57889833561E+02 -0.76411891469E+01  0.59186595265E+02  0.10566000000E+00 0. -1.
         22    1    1    0    0    0 -0.13168521338E+02  0.25449826440E+02 -0.78258295715E+01  0.29704330132E+02  0.00000000000E+00 0. -1.
</event>
<event>
 5    1  0.6903325E-004  0.9118800E+02  0.7818608E-02  0.1130116E+00
         25   -1    0    0    0    0  0.00000000000E+00  0.00000000000E+00  0.99999998245E-14  0.12500000000E+03  0.12500000000E+03 0.  0.
        -13    1    3    3    0    0  0.53798725076E+02 -0.22603008691E+02 -0.73172730630E+01  0.58811159407E+02  0.10566000000E+00 0.  1.
         23    2    1    0    0    0  0.25626863908E+02  0.88689099842E+00 -0.13519509080E+02  0.96012073976E+02  0.91531516397E+02 0.  0.
         13    1    3    3    0    0 -0.28171861168E+02  0.23489899689E+02 -0.62022360173E+01  0.37200914568E+02  0.10566000000E+00 0. -1.
         22    1    1    0    0    0 -0.25626863908E+02 -0.88689099842E+00  0.13519509080E+02  0.28987926024E+02  0.00000000000E+00 0.  1.
</event>
<event>
 5    1  0.6903325E-004  0.9118800E+02  0.7818608E-02  0.1130116E+00
         25   -1    0    0    0    0  0.00000000000E+00  0.00000000000E+00  0.99999998245E-14  0.12500000000E+03  0.12500000000E+03 0.  0.
        -13    1    3    3    0    0 -0.11694147534E+02  0.48404356057E+02 -0.21846837458E+02  0.54378582575E+02  0.10566000000E+00 0. -1.
         23    2    1    0    0    0  0.59854553807E+01  0.26885402514E+02  0.90810134391E+01  0.95998011283E+02  0.91512309668E+02 0.  0.
         13    1    3    3    0    0  0.17679602915E+02 -0.21518953543E+02  0.30927850898E+02  0.41619428708E+02  0.10566000000E+00 0.  1.
         22    1    1    0    0    0 -0.59854553807E+01 -0.26885402514E+02 -0.90810134391E+01  0.29001988717E+02  0.00000000000E+00 0.  1.
</event>
<event>
 5    1  0.6903325E-004  0.9118800E+02  0.7818608E-02  0.1130116E+00
         25   -1    0    0    0    0  0.00000000000E+00  0.00000000000E+00  0.99999998245E-14  0.12500000000E+03  0.12500000000E+03 0.  0.
        -13    1    3    3    0    0 -0.24862184820E+02 -0.33529337111E+02 -0.16707447998E+02  0.44961034950E+02  0.10566000000E+00 0. -1.
         23    2    1    0    0    0  0.70509949442E+00  0.94152947260E+01 -0.27354501147E+02  0.96061899283E+02  0.91599535047E+02 0.  0.
         13    1    3    3    0    0  0.25567284314E+02  0.42944631837E+02 -0.10647053149E+02  0.51100864333E+02  0.10566000000E+00 0.  1.
         22    1    1    0    0    0 -0.70509949442E+00 -0.94152947260E+01  0.27354501147E+02  0.28938100717E+02  0.00000000000E+00 0.  1.
</event>
<event>
 5    1  0.6903325E-004  0.9118800E+02  0.7818608E-02  0.1130116E+00
         25   -1    0    0    0    0  0.00000000000E+00  0.00000000000E+00  0.99999998245E-14  0.12500000000E+03  0.12500000000E+03 0.  0.
        -13    1    3    3    0    0  0.48167689623E+02 -0.34648490929E+01 -0.12644241605E+02  0.49920131336E+02  0.10566000000E+00 0.  1.
         23    2    1    0    0    0  0.10065608428E+02 -0.26166289132E+02  0.26595922749E+01  0.96838597495E+02  0.92653382959E+02 0.  0.
         13    1    3    3    0    0 -0.38102081195E+02 -0.22701440039E+02  0.15303833880E+02  0.46918466159E+02  0.10566000000E+00 0. -1.
         22    1    1    0    0    0 -0.10065608428E+02  0.26166289132E+02 -0.26595922749E+01  0.28161402505E+02  0.00000000000E+00 0.  1.
</event>
<event>
 5    1  0.6903325E-004  0.9118800E+02  0.7818608E-02  0.1130116E+00
         25   -1    0    0    0    0  0.00000000000E+00  0.00000000000E+00  0.99999998245E-14  0.12500000000E+03  0.12500000000E+03 0.  0.
        -13    1    3    3    0    0  0.32953970280E+02 -0.43748494936E+01  0.22829102960E+02  0.40327193942E+02  0.10566000000E+00 0. -1.
         23    2    1    0    0    0 -0.20056203966E+02  0.88029416911E+01  0.20499424192E+02  0.95000508468E+02  0.90139487003E+02 0.  0.
         13    1    3    3    0    0 -0.53010174246E+02  0.13177791185E+02 -0.23296787677E+01  0.54673314526E+02  0.10566000000E+00 0.  1.
         22    1    1    0    0    0  0.20056203966E+02 -0.88029416911E+01 -0.20499424192E+02  0.29999491532E+02  0.00000000000E+00 0.  1.
</event>
<event>
 5    1  0.6903325E-004  0.9118800E+02  0.7818608E-02  0.1130116E+00
         25   -1    0    0    0    0  0.00000000000E+00  0.00000000000E+00  0.99999998245E-14  0.12500000000E+03  0.12500000000E+03 0.  0.
        -13    1    3    3    0    0  0.10110473950E+02  0.53924568294E+02  0.13364347510E+02  0.56468554945E+02  0.10566000000E+00 0. -1.
         23    2    1    0    0    0  0.36229197273E+01  0.25300983257E+02 -0.13357762261E+02  0.96160875296E+02  0.91734501818E+02 0.  0.
         13    1    3    3    0    0 -0.64875542226E+01 -0.28623585037E+02 -0.26722109771E+02  0.39692320351E+02  0.10566000000E+00 0.  1.
         22    1    1    0    0    0 -0.36229197273E+01 -0.25300983257E+02  0.13357762261E+02  0.28839124704E+02  0.00000000000E+00 0. -1.
</event>
<event>
 5    1  0.6903325E-004  0.9118800E+02  0.7818608E-02  0.1130116E+00
         25   -1    0    0    0    0  0.00000000000E+00  0.00000000000E+00  0.99999998245E-14  0.12500000000E+03  0.12500000000E+03 0.  0.
        -13    1    3    3    0    0 -0.29073462762E+02 -0.23085250339E+02 -0.18544303846E+02  0.41498161277E+02  0.10566000000E+00 0.  1.
         23    2    1    0    0    0 -0.16321690901E+02  0.25844403255E+02 -0.36153194486E+01  0.94220115202E+02  0.89050709151E+02 0.  0.
         13    1    3    3    0    0  0.12751771861E+02  0.48929653595E+02  0.14928984397E+02  0.52721953925E+02  0.10566000000E+00 0. -1.
         22    1    1    0    0    0  0.16321690901E+02 -0.25844403255E+02  0.36153194486E+01  0.30779884798E+02  0.00000000000E+00 0. -1.
</event>
<event>
 5    1  0.6903325E-004  0.9118800E+02  0.7818608E-02  0.1130116E+00
         25   -1    0    0    0    0  0.00000000000E+00  0.00000000000E+00  0.99999998245E-14  0.12500000000E+03  0.12500000000E+03 0.  0.
        -13    1    3    3    0    0 -0.33108379354E+02 -0.18180068553E+02  0.16731813806E+02  0.41311553267E+02  0.10566000000E+00 0. -1.
         23    2    1    0    0    0  0.15047796486E+02 -0.23154318076E+02 -0.87652032176E+01  0.96027816581E+02  0.91553012758E+02 0.  0.
         13    1    3    3    0    0  0.48156175840E+02 -0.49742495226E+01 -0.25497017023E+02  0.54716263314E+02  0.10566000000E+00 0.  1.
         22    1    1    0    0    0 -0.15047796486E+02  0.23154318076E+02  0.87652032176E+01  0.28972183419E+02  0.00000000000E+00 0.  1.
</event>
<event>
 5    1  0.6903325E-004  0.9118800E+02  0.7818608E-02  0.1130116E+00
         25   -1    0    0    0    0  0.00000000000E+00  0.00000000000E+00  0.99999998245E-14  0.12500000000E+03  0.12500000000E+03 0.  0.
        -13    1    3    3    0    0 -0.16169276302E+02  0.29159306728E+02  0.17260391171E+02  0.37545211844E+02  0.10566000000E+00 0.  1.
         23    2    1    0    0    0  0.28371435847E+02 -0.58977858139E+01  0.41214334544E+01  0.95730417439E+02  0.91146060583E+02 0.  0.
         13    1    3    3    0    0  0.44540712150E+02 -0.35057092542E+02 -0.13138957717E+02  0.58185205596E+02  0.10566000000E+00 0. -1.
         22    1    1    0    0    0 -0.28371435847E+02  0.58977858139E+01 -0.41214334544E+01  0.29269582561E+02  0.00000000000E+00 0. -1.
</event>
<event>
 5    1  0.6903325E-004  0.9118800E+02  0.7818608E-02  0.1130116E+00
         25   -1    0    0    0    0  0.00000000000E+00  0.00000000000E+00  0.99999998245E-14  0.12500000000E+03  0.12500000000E+03 0.  0.
        -13    1    3    3    0    0 -0.19112656586E+02  0.40130984955E+02 -0.14521871903E+01  0.44473695674E+02  0.10566000000E+00 0.  1.
         23    2    1    0    0    0 -0.23927103393E+02 -0.35247113161E+01  0.20243605465E+02  0.93460605129E+02  0.87978129567E+02 0.  0.
         13    1    3    3    0    0 -0.48144468072E+01 -0.43655696271E+02  0.21695792655E+02  0.48986909455E+02  0.10566000000E+00 0. -1.
         22    1    1    0    0    0  0.23927103393E+02  0.35247113161E+01 -0.20243605465E+02  0.31539394871E+02  0.00000000000E+00 0.  1.
</event>
<event>
 5    1  0.6903325E-004  0.9118800E+02  0.7818608E-02  0.1130116E+00
         25   -1    0    0    0    0  0.00000000000E+00  0.00000000000E+00  0.99999998245E-14  0.12500000000E+03  0.12500000000E+03 0.  0.
        -13    1    3    3    0    0 -0.24898618722E+02 -0.33910436626E+02 -0.28107646833E+02  0.50595552186E+02  0.10566000000E+00 0. -1.
         23    2    1    0    0    0  0.36013145230E+01 -0.27198742641E+02  0.73661518669E+01  0.96592232385E+02  0.92320409966E+02 0.  0.
         13    1    3    3    0    0  0.28499933245E+02  0.67116939849E+01  0.35473798700E+02  0.45996680200E+02  0.10566000000E+00 0.  1.
         22    1    1    0    0    0 -0.36013145230E+01  0.27198742641E+02 -0.73661518669E+01  0.28407767615E+02  0.00000000000E+00 0. -1.
</event>
<event>
 5    1  0.6903325E-004  0.9118800E+02  0.7818608E-02  0.1130116E+00
         25   -1    0    0    0    0  0.00000000000E+00  0.00000000000E+00  0.99999998245E-14  0.12500000000E+03  0.12500000000E+03 0.  0.
        -13    1    3    3    0    0 -0.39732327161E+02  0.13912499060E+02  0.46024693016E+02  0.62373864583E+02  0.10566000000E+00 0.  1.
         23    2    1    0    0    0 -0.19695745778E+02  0.81512600581E+01  0.19510767159E+02  0.96103019580E+02  0.91655632096E+02 0.  0.
         13    1    3    3    0    0  0.20036581383E+02 -0.57612390020E+01 -0.26513925857E+02  0.33729154996E+02  0.10566000000E+00 0. -1.
         22    1    1    0    0    0  0.19695745778E+02 -0.81512600581E+01 -0.19510767159E+02  0.28896980420E+02  0.00000000000E+00 0.  1.
</event>
<event>
 5    1  0.6903325E-004  0.9118800E+02  0.7818608E-02  0.1130116E+00
         25   -1    0    0    0    0  0.00000000000E+00  0.00000000000E+00  0.99999998245E-14  0.12500000000E+03  0.12500000000E+03 0.  0.
        -13    1    3    3    0    0  0.89128212395E+01 -0.35980655898E+02 -0.11001774214E+02  0.38666473607E+02  0.10566000000E+00 0.  1.
         23    2    1    0    0    0 -0.27942700540E+02  0.24870013850E+01  0.89498194444E+01  0.95553795535E+02  0.90903514143E+02 0.  0.
         13    1    3    3    0    0 -0.36855521779E+02  0.38467657283E+02  0.19951593659E+02  0.56887321927E+02  0.10566000000E+00 0. -1.
         22    1    1    0    0    0  0.27942700540E+02 -0.24870013850E+01 -0.89498194444E+01  0.29446204465E+02  0.00000000000E+00 0.  1.
</event>
<event>
 5    1  0.6903325E-004  0.9118800E+02  0.7818608E-02  0.1130116E+00
         25   -1    0    0    0    0  0.00000000000E+00  0.00000000000E+00  0.99999998245E-14  0.12500000000E+03  0.12500000000E+03 0.  0.
        -13    1    3    3    0    0  0.12367144719E+02 -0.55873723137E+02 -0.11961499575E+02  0.58462875757E+02  0.10566000000E+00 0.  1.
         23    2    1    0    0    0  0.10429356430E+02 -0.24940205260E+02  0.97031507187E+01  0.96278293090E+02  0.91894359308E+02 0.  0.
         13    1    3    3    0    0 -0.19377882892E+01  0.30933517877E+02  0.21664650294E+02  0.37815417333E+02  0.10566000000E+00 0. -1.
         22    1    1    0    0    0 -0.10429356430E+02  0.24940205260E+02 -0.97031507187E+01  0.28721706910E+02  0.00000000000E+00 0.  1.
</event>
<event>
 5    1  0.6903325E-004  0.9118800E+02  0.7818608E-02  0.1130116E+00
         25   -1    0    0    0    0  0.00000000000E+00  0.00000000000E+00  0.99999998245E-14  0.12500000000E+03  0.12500000000E+03 0.  0.
        -13    1    3    3    0    0 -0.58183212795E+02  0.15183196655E+02  0.12888248096E+02  0.61497429335E+02  0.10566000000E+00 0.  1.
         23    2    1    0    0    0 -0.26130793168E+02  0.60317861802E+01  0.13792632094E+02  0.94843118594E+02  0.89920963342E+02 0.  0.
         13    1    3    3    0    0  0.32052419628E+02 -0.91514104747E+01  0.90438399765E+00  0.33345689258E+02  0.10566000000E+00 0. -1.
         22    1    1    0    0    0  0.26130793168E+02 -0.60317861802E+01 -0.13792632094E+02  0.30156881406E+02  0.00000000000E+00 0.  1.
</event>
<event>
 5    1  0.6903325E-004  0.9118800E+02  0.7818608E-02  0.1130116E+00
         25   -1    0    0    0    0  0.00000000000E+00  0.00000000000E+00  0.99999998245E-14  0.12500000000E+03  0.12500000000E+03 0.  0.
        -13    1    3    3    0    0 -0.13480484058E+02  0.56504673715E+02 -0.12025293638E+02  0.59322175055E+02  0.10566000000E+00 0. -1.
         23    2    1    0    0    0 -0.12569531739E+02  0.20592604278E+02 -0.16855840829E+02  0.95569270326E+02  0.90924790797E+02 0.  0.
         13    1    3    3    0    0  0.91095231878E+00 -0.35912069437E+02 -0.48305471907E+01  0.36247095271E+02  0.10566000000E+00 0.  1.
         22    1    1    0    0    0  0.12569531739E+02 -0.20592604278E+02  0.16855840829E+02  0.29430729674E+02  0.00000000000E+00 0. -1.
</event>
<event>
 5    1  0.6903325E-004  0.9118800E+02  0.7818608E-02  0.1130116E+00
         25   -1    0    0    0    0  0.00000000000E+00  0.00000000000E+00  0.99999998245E-14  0.12500000000E+03  0.12500000000E+03 0.  0.
        -13    1    3    3    0    0 -0.21058619296E+02 -0.17402568494E+02  0.52844664515E+02  0.59488524680E+02  0.10566000000E+00 0.  1.
         23    2    1    0    0    0 -0.32863673957E+01  0.28951409760E+01  0.29533786795E+02  0.95143231682E+02  0.90337190130E+02 0.  0.
         13    1    3    3    0    0  0.17772251901E+02  0.20297709470E+02 -0.23310877720E+02  0.35654707003E+02  0.10566000000E+00 0. -1.
         22    1    1    0    0    0  0.32863673957E+01 -0.28951409760E+01 -0.29533786795E+02  0.29856768318E+02  0.00000000000E+00 0.  1.
</event>
<event>
 5    1  0.6903325E-004  0.9118800E+02  0.7818608E-02  0.1130116E+00
         25   -1    0    0    0    0  0.00000000000E+00  0.00000000000E+00  0.99999998245E-14  0.12500000000E+03  0.12500000000E+03 0.  0.
        -13    1    3    3    0    0  0.28063215570E+02 -0.51297555392E+02 -0.82464961988E+01  0.59050818122E+02  0.10566000000E+00 0.  1.
         23    2    1    0    0    0  0.20463178896E+01 -0.27750539822E+02  0.53153880262E+01  0.96670982594E+02  0.92426974680E+02 0.  0.
         13    1    3    3    0    0 -0.26016897680E+02  0.23547015570E+02  0.13561884225E+02  0.37620164472E+02  0.10566000000E+00 0. -1.
         22    1    1    0    0    0 -0.20463178896E+01  0.27750539822E+02 -0.53153880262E+01  0.28329017406E+02  0.00000000000E+00 0.  1.
</event>
<event>
 5    1  0.6903325E-004  0.9118800E+02  0.7818608E-02  0.1130116E+00
         25   -1    0    0    0    0  0.00000000000E+00  0.00000000000E+00  0.99999998245E-14  0.12500000000E+03  0.12500000000E+03 0.  0.
        -13    1    3    3    0    0 -0.37995079611E+02  0.46636159812E+01 -0.12150810701E+02  0.40162529220E+02  0.10566000000E+00 0.  1.
         23    2    1    0    0    0  0.11569838635E+02 -0.20461004078E+02 -0.17071483332E+02  0.95949192833E+02  0.91445602454E+02 0.  0.
         13    1    3    3    0    0  0.49564918246E+02 -0.25124620059E+02 -0.49206726307E+01  0.55786663612E+02  0.10566000000E+00 0. -1.
         22    1    1    0    0    0 -0.11569838635E+02  0.20461004078E+02  0.17071483332E+02  0.29050807167E+02  0.00000000000E+00 0. -1.
</event>
<event>
 5    1  0.6903325E-004  0.9118800E+02  0.7818608E-02  0.1130116E+00
         25   -1    0    0    0    0  0.00000000000E+00  0.00000000000E+00  0.99999998245E-14  0.12500000000E+03  0.12500000000E+03 0.  0.
        -13    1    3    3    0    0 -0.34756784713E+02 -0.79265927482E+00 -0.25972874037E+01  0.34862866465E+02  0.10566000000E+00 0. -1.
         23    2    1    0    0    0  0.23514973169E+02 -0.61531533033E+01 -0.17258472453E+02  0.95189429222E+02  0.90401091284E+02 0.  0.
         13    1    3    3    0    0  0.58271757882E+02 -0.53604940285E+01 -0.14661185049E+02  0.60326562756E+02  0.10566000000E+00 0.  1.
         22    1    1    0    0    0 -0.23514973169E+02  0.61531533033E+01  0.17258472453E+02  0.29810570778E+02  0.00000000000E+00 0.  1.
</event>
<event>
 5    1  0.6903325E-004  0.9118800E+02  0.7818608E-02  0.1130116E+00
         25   -1    0    0    0    0  0.00000000000E+00  0.00000000000E+00  0.99999998245E-14  0.12500000000E+03  0.12500000000E+03 0.  0.
        -13    1    3    3    0    0  0.29586125952E+02 -0.15379158885E+02 -0.80475133333E+01  0.34302055503E+02  0.10566000000E+00 0. -1.
         23    2    1    0    0    0 -0.26855678756E+02  0.80804279409E+01 -0.93451893185E+01  0.95438989183E+02  0.90745508405E+02 0.  0.
         13    1    3    3    0    0 -0.56441804708E+02  0.23459586826E+02 -0.12976759852E+01  0.61136933679E+02  0.10566000000E+00 0.  1.
         22    1    1    0    0    0  0.26855678756E+02 -0.80804279409E+01  0.93451893185E+01  0.29561010817E+02  0.00000000000E+00 0.  1.
</event>
<event>
 5    1  0.6903325E-004  0.9118800E+02  0.7818608E-02  0.1130116E+00
         25   -1    0    0    0    0  0.00000000000E+00  0.00000000000E+00  0.99999998245E-14  0.12500000000E+03  0.12500000000E+03 0.  0.
        -13    1    3    3    0    0  0.27092514503E+02 -0.94453973990E+01 -0.50326711447E+02  0.57931070448E+02  0.10566000000E+00 0. -1.
         23    2    1    0    0    0  0.24598845354E+02 -0.71194502330E+01 -0.11464960637E+02  0.96942290066E+02  0.92793170634E+02 0.  0.
         13    1    3    3    0    0 -0.24936691493E+01  0.23259471660E+01  0.38861750810E+02  0.39011219618E+02  0.10566000000E+00 0.  1.
         22    1    1    0    0    0 -0.24598845354E+02  0.71194502330E+01  0.11464960637E+02  0.28057709934E+02  0.00000000000E+00 0. -1.
</event>
<event>
 5    1  0.6903325E-004  0.9118800E+02  0.7818608E-02  0.1130116E+00
         25   -1    0    0    0    0  0.00000000000E+00  0.00000000000E+00  0.99999998245E-14  0.12500000000E+03  0.12500000000E+03 0.  0.
        -13    1    3    3    0    0  0.23230608592E+02 -0.34680762084E+02 -0.35386796870E+01  0.41892121601E+02  0.10566000000E+00 0. -1.
         23    2    1    0    0    0  0.22458061735E+02  0.18741711911E+02 -0.49202902332E+01  0.95338146413E+02  0.90606493162E+02 0.  0.
         13    1    3    3    0    0 -0.77254685738E+00  0.53422473995E+02 -0.13816105462E+01  0.53446024811E+02  0.10566000000E+00 0.  1.
         22    1    1    0    0    0 -0.22458061735E+02 -0.18741711911E+02  0.49202902332E+01  0.29661853587E+02  0.00000000000E+00 0.  1.
</event>
<event>
 5    1  0.6903325E-004  0.9118800E+02  0.7818608E-02  0.1130116E+00
         25   -1    0    0    0    0  0.00000000000E+00  0.00000000000E+00  0.99999998245E-14  0.12500000000E+03  0.12500000000E+03 0.  0.
        -13    1    3    3    0    0 -0.32234115132E+02  0.36490243251E+02  0.19451416766E+02  0.52430380592E+02  0.10566000000E+00 0.  1.
         23    2    1    0    0    0  0.25005300567E+01  0.10340823561E+02  0.26471104431E+02  0.96470985781E+02  0.92156098253E+02 0.  0.
         13    1    3    3    0    0  0.34734645188E+02 -0.26149419689E+02  0.70196876655E+01  0.44040605189E+02  0.10566000000E+00 0. -1.
         22    1    1    0    0    0 -0.25005300567E+01 -0.10340823561E+02 -0.26471104431E+02  0.28529014219E+02  0.00000000000E+00 0. -1.
</event>
<event>
 5    1  0.6903325E-004  0.9118800E+02  0.7818608E-02  0.1130116E+00
         25   -1    0    0    0    0  0.00000000000E+00  0.00000000000E+00  0.99999998245E-14  0.12500000000E+03  0.12500000000E+03 0.  0.
        -13    1    3    3    0    0 -0.67811301180E+01  0.29949030572E+02  0.26752007578E+02  0.40726026462E+02  0.10566000000E+00 0. -1.
         23    2    1    0    0    0  0.25869155919E+02  0.64131487693E+01 -0.11240679365E+02  0.96074326668E+02  0.91616492331E+02 0.  0.
         13    1    3    3    0    0  0.32650286037E+02 -0.23535881803E+02 -0.37992686943E+02  0.55348300206E+02  0.10566000000E+00 0.  1.
         22    1    1    0    0    0 -0.25869155919E+02 -0.64131487693E+01  0.11240679365E+02  0.28925673332E+02  0.00000000000E+00 0.  1.
</event>
<event>
 5    1  0.6903325E-004  0.9118800E+02  0.7818608E-02  0.1130116E+00
         25   -1    0    0    0    0  0.00000000000E+00  0.00000000000E+00  0.99999998245E-14  0.12500000000E+03  0.12500000000E+03 0.  0.
        -13    1    3    3    0    0 -0.37044932031E+02 -0.66066802691E+01  0.90408715949E+01  0.38700435870E+02  0.10566000000E+00 0.  1.
         23    2    1    0    0    0  0.30963100626E+01  0.15582496054E+02 -0.24694140496E+02  0.95636725419E+02  0.91017478292E+02 0.  0.
         13    1    3    3    0    0  0.40141242093E+02  0.22189176324E+02 -0.33735012091E+02  0.56936289548E+02  0.10566000000E+00 0. -1.
         22    1    1    0    0    0 -0.30963100626E+01 -0.15582496054E+02  0.24694140496E+02  0.29363274581E+02  0.00000000000E+00 0. -1.
</event>
<event>
 5    1  0.6903325E-004  0.9118800E+02  0.7818608E-02  0.1130116E+00
         25   -1    0    0    0    0  0.00000000000E+00  0.00000000000E+00  0.99999998245E-14  0.12500000000E+03  0.12500000000E+03 0.  0.
        -13    1    3    3    0    0 -0.57847099121E+02 -0.63938624024E+01 -0.22533277468E+02  0.62409359159E+02  0.10566000000E+00 0.  1.
         23    2    1    0    0    0 -0.25897225997E+02 -0.47032988362E+01 -0.11785170360E+02  0.96161179381E+02  0.91734916173E+02 0.  0.
         13    1    3    3    0    0  0.31949873124E+02  0.16905635662E+01  0.10748107109E+02  0.33751820222E+02  0.10566000000E+00 0. -1.
         22    1    1    0    0    0  0.25897225997E+02  0.47032988362E+01  0.11785170360E+02  0.28838820619E+02  0.00000000000E+00 0.  1.
</event>
<event>
 5    1  0.6903325E-004  0.9118800E+02  0.7818608E-02  0.1130116E+00
         25   -1    0    0    0    0  0.00000000000E+00  0.00000000000E+00  0.99999998245E-14  0.12500000000E+03  0.12500000000E+03 0.  0.
        -13    1    3    3    0    0  0.22665108714E+02 -0.26614072501E+02 -0.37056784679E+02  0.50943424138E+02  0.10566000000E+00 0. -1.
         23    2    1    0    0    0  0.82914324838E+01 -0.27270913090E+02  0.55911138321E+01  0.95953294382E+02  0.91451208824E+02 0.  0.
         13    1    3    3    0    0 -0.14373676231E+02 -0.65684058894E+00  0.42647898511E+02  0.45009870244E+02  0.10566000000E+00 0.  1.
         22    1    1    0    0    0 -0.82914324838E+01  0.27270913090E+02 -0.55911138321E+01  0.29046705618E+02  0.00000000000E+00 0.  1.
</event>
<event>
 5    1  0.6903325E-004  0.9118800E+02  0.7818608E-02  0.1130116E+00
         25   -1    0    0    0    0  0.00000000000E+00  0.00000000000E+00  0.99999998245E-14  0.12500000000E+03  0.12500000000E+03 0.  0.
        -13    1    3    3    0    0  0.12482222534E+01 -0.25165688667E+02 -0.25546972641E+02  0.35882153224E+02  0.10566000000E+00 0. -1.
         23    2    1    0    0    0 -0.65505075839E+01  0.29043170979E+02 -0.31163335998E+01  0.95064628527E+02  0.90228361017E+02 0.  0.
         13    1    3    3    0    0 -0.77987298373E+01  0.54208859646E+02  0.22430639041E+02  0.59182475303E+02  0.10566000000E+00 0.  1.
         22    1    1    0    0    0  0.65505075839E+01 -0.29043170979E+02  0.31163335998E+01  0.29935371473E+02  0.00000000000E+00 0.  1.
</event>
<event>
 5    1  0.6903325E-004  0.9118800E+02  0.7818608E-02  0.1130116E+00
         25   -1    0    0    0    0  0.00000000000E+00  0.00000000000E+00  0.99999998245E-14  0.12500000000E+03  0.12500000000E+03 0.  0.
        -13    1    3    3    0    0  0.29881852563E+02  0.22101551472E+02 -0.77699131619E+01  0.37970862574E+02  0.10566000000E+00 0.  1.
         23    2    1    0    0    0 -0.11836970939E+02 -0.16230865044E+02 -0.20776171934E+02  0.96100100670E+02  0.91651651199E+02 0.  0.
         13    1    3    3    0    0 -0.41718823501E+02 -0.38332416516E+02 -0.13006258772E+02  0.58129238096E+02  0.10566000000E+00 0. -1.
         22    1    1    0    0    0  0.11836970939E+02  0.16230865044E+02  0.20776171934E+02  0.28899899330E+02  0.00000000000E+00 0. -1.
</event>
<event>
 5    1  0.6903325E-004  0.9118800E+02  0.7818608E-02  0.1130116E+00
         25   -1    0    0    0    0  0.00000000000E+00  0.00000000000E+00  0.99999998245E-14  0.12500000000E+03  0.12500000000E+03 0.  0.
        -13    1    3    3    0    0  0.47724474670E+01  0.20968588405E+02  0.32677615833E+02  0.39118994045E+02  0.10566000000E+00 0.  1.
         23    2    1    0    0    0 -0.25037480276E+02 -0.29011459476E+01 -0.11312227911E+02  0.97372865391E+02  0.93371389343E+02 0.  0.
         13    1    3    3    0    0 -0.29809927743E+02 -0.23869734352E+02 -0.43989843744E+02  0.58253871346E+02  0.10566000000E+00 0. -1.
         22    1    1    0    0    0  0.25037480276E+02  0.29011459476E+01  0.11312227911E+02  0.27627134609E+02  0.00000000000E+00 0. -1.
</event>
<event>
 5    1  0.6903325E-004  0.9118800E+02  0.7818608E-02  0.1130116E+00
         25   -1    0    0    0    0  0.00000000000E+00  0.00000000000E+00  0.99999998245E-14  0.12500000000E+03  0.12500000000E+03 0.  0.
        -13    1    3    3    0    0  0.26955797405E+02  0.32337188444E+02  0.24958510512E+02  0.48941262562E+02  0.10566000000E+00 0. -1.
         23    2    1    0    0    0 -0.12825694541E+02  0.26313676142E+02  0.11252877923E+01  0.95705388462E+02  0.91111728748E+02 0.  0.
         13    1    3    3    0    0 -0.39781491946E+02 -0.60235123024E+01 -0.23833222720E+02  0.46764125900E+02  0.10566000000E+00 0.  1.
         22    1    1    0    0    0  0.12825694541E+02 -0.26313676142E+02 -0.11252877923E+01  0.29294611538E+02  0.00000000000E+00 0. -1.
</event>
<event>
 5    1  0.6903325E-004  0.9118800E+02  0.7818608E-02  0.1130116E+00
         25   -1    0    0    0    0  0.00000000000E+00  0.00000000000E+00  0.99999998245E-14  0.12500000000E+03  0.12500000000E+03 0.  0.
        -13    1    3    3    0    0 -0.47063659776E+02  0.15817492746E+02 -0.26864494540E+02  0.56452576373E+02  0.10566000000E+00 0.  1.
         23    2    1    0    0    0 -0.72134173943E+01  0.13351867905E+02 -0.24158024911E+02  0.96470788047E+02  0.92155830048E+02 0.  0.
         13    1    3    3    0    0  0.39850242381E+02 -0.24656248405E+01  0.27064696289E+01  0.40018211674E+02  0.10566000000E+00 0. -1.
         22    1    1    0    0    0  0.72134173943E+01 -0.13351867905E+02  0.24158024911E+02  0.28529211953E+02  0.00000000000E+00 0.  1.
</event>
<event>
 5    1  0.6903325E-004  0.9118800E+02  0.7818608E-02  0.1130116E+00
         25   -1    0    0    0    0  0.00000000000E+00  0.00000000000E+00  0.99999998245E-14  0.12500000000E+03  0.12500000000E+03 0.  0.
        -13    1    3    3    0    0 -0.14248140469E+02  0.14311077597E+02  0.27732133020E+02  0.34305958880E+02  0.10566000000E+00 0.  1.
         23    2    1    0    0    0  0.32851116371E+01 -0.25301861299E+02 -0.15204353505E+02  0.95299015013E+02  0.90552491701E+02 0.  0.
         13    1    3    3    0    0  0.17533252106E+02 -0.39612938896E+02 -0.42936486525E+02  0.60993056134E+02  0.10566000000E+00 0. -1.
         22    1    1    0    0    0 -0.32851116371E+01  0.25301861299E+02  0.15204353505E+02  0.29700984987E+02  0.00000000000E+00 0. -1.
</event>
<event>
 5    1  0.6903325E-004  0.9118800E+02  0.7818608E-02  0.1130116E+00
         25   -1    0    0    0    0  0.00000000000E+00  0.00000000000E+00  0.99999998245E-14  0.12500000000E+03  0.12500000000E+03 0.  0.
        -13    1    3    3    0    0 -0.56555834000E+02 -0.66823341447E+01  0.14032802511E+02  0.58652763442E+02  0.10566000000E+00 0.  1.
         23    2    1    0    0    0 -0.22727101072E+02  0.92483199334E+01  0.15330853793E+02  0.96067533414E+02  0.91607223260E+02 0.  0.
         13    1    3    3    0    0  0.33828732928E+02  0.15930654078E+02  0.12980512819E+01  0.37414769972E+02  0.10566000000E+00 0. -1.
         22    1    1    0    0    0  0.22727101072E+02 -0.92483199334E+01 -0.15330853793E+02  0.28932466586E+02  0.00000000000E+00 0.  1.
</event>
<event>
 5    1  0.6903325E-004  0.9118800E+02  0.7818608E-02  0.1130116E+00
         25   -1    0    0    0    0  0.00000000000E+00  0.00000000000E+00  0.99999998245E-14  0.12500000000E+03  0.12500000000E+03 0.  0.
        -13    1    3    3    0    0 -0.47612052853E+02 -0.16118476679E+02  0.31612138362E+02  0.59380563514E+02  0.10566000000E+00 0.  1.
         23    2    1    0    0    0 -0.20605370311E+02  0.36690261685E+01  0.22901936448E+02  0.93975143324E+02  0.88706176961E+02 0.  0.
         13    1    3    3    0    0  0.27006682542E+02  0.19787502847E+02 -0.87102019139E+01  0.34594579811E+02  0.10566000000E+00 0. -1.
         22    1    1    0    0    0  0.20605370311E+02 -0.36690261685E+01 -0.22901936448E+02  0.31024856676E+02  0.00000000000E+00 0.  1.
</event>
<event>
 5    1  0.6903325E-004  0.9118800E+02  0.7818608E-02  0.1130116E+00
         25   -1    0    0    0    0  0.00000000000E+00  0.00000000000E+00  0.99999998245E-14  0.12500000000E+03  0.12500000000E+03 0.  0.
        -13    1    3    3    0    0 -0.32066078339E+02  0.29134430312E+02 -0.24532183184E+02  0.49788428228E+02  0.10566000000E+00 0. -1.
         23    2    1    0    0    0 -0.85776871839E+01  0.23448812657E+02  0.14816823119E+02  0.95966195912E+02  0.91468841570E+02 0.  0.
         13    1    3    3    0    0  0.23488391155E+02 -0.56856176543E+01  0.39349006303E+02  0.46177767684E+02  0.10566000000E+00 0.  1.
         22    1    1    0    0    0  0.85776871839E+01 -0.23448812657E+02 -0.14816823119E+02  0.29033804088E+02  0.00000000000E+00 0. -1.
</event>
<event>
 5    1  0.6903325E-004  0.9118800E+02  0.7818608E-02  0.1130116E+00
         25   -1    0    0    0    0  0.00000000000E+00  0.00000000000E+00  0.99999998245E-14  0.12500000000E+03  0.12500000000E+03 0.  0.
        -13    1    3    3    0    0 -0.49016134341E+02 -0.21053923300E+02 -0.25599514075E+02  0.59170899917E+02  0.10566000000E+00 0.  1.
         23    2    1    0    0    0 -0.18453419745E+02 -0.22210407368E+02 -0.59693363014E+01  0.95513327220E+02  0.90847849755E+02 0.  0.
         13    1    3    3    0    0  0.30562714596E+02 -0.11564840675E+01  0.19630177773E+02  0.36342427304E+02  0.10566000000E+00 0. -1.
         22    1    1    0    0    0  0.18453419745E+02  0.22210407368E+02  0.59693363014E+01  0.29486672780E+02  0.00000000000E+00 0.  1.
</event>
<event>
 5    1  0.6903325E-004  0.9118800E+02  0.7818608E-02  0.1130116E+00
         25   -1    0    0    0    0  0.00000000000E+00  0.00000000000E+00  0.99999998245E-14  0.12500000000E+03  0.12500000000E+03 0.  0.
        -13    1    3    3    0    0 -0.49268767381E+02  0.28472967799E+02 -0.25424687030E+02  0.62326135844E+02  0.10566000000E+00 0. -1.
         23    2    1    0    0    0 -0.20790891890E+02  0.11718886896E+02 -0.14238338135E+02  0.97209286290E+02  0.93152142071E+02 0.  0.
         13    1    3    3    0    0  0.28477875492E+02 -0.16754080903E+02  0.11186348895E+02  0.34883150446E+02  0.10566000000E+00 0.  1.
         22    1    1    0    0    0  0.20790891890E+02 -0.11718886896E+02  0.14238338135E+02  0.27790713710E+02  0.00000000000E+00 0. -1.
</event>
<event>
 5    1  0.6903325E-004  0.9118800E+02  0.7818608E-02  0.1130116E+00
         25   -1    0    0    0    0  0.00000000000E+00  0.00000000000E+00  0.99999998245E-14  0.12500000000E+03  0.12500000000E+03 0.  0.
        -13    1    3    3    0    0 -0.31575754805E+02  0.13964248512E+02  0.38799105292E+02  0.51936598498E+02  0.10566000000E+00 0. -1.
         23    2    1    0    0    0 -0.12738344881E+02  0.25902279026E+02  0.64846790606E+00  0.96127625666E+02  0.91689183749E+02 0.  0.
         13    1    3    3    0    0  0.18837409925E+02  0.11938030514E+02 -0.38150637386E+02  0.44191027168E+02  0.10566000000E+00 0.  1.
         22    1    1    0    0    0  0.12738344881E+02 -0.25902279026E+02 -0.64846790606E+00  0.28872374334E+02  0.00000000000E+00 0. -1.
</event>
<event>
 5    1  0.6903325E-004  0.9118800E+02  0.7818608E-02  0.1130116E+00
         25   -1    0    0    0    0  0.00000000000E+00  0.00000000000E+00  0.99999998245E-14  0.12500000000E+03  0.12500000000E+03 0.  0.
        -13    1    3    3    0    0  0.45282603648E+02  0.38984321539E+02  0.32794539311E+01  0.59841937645E+02  0.10566000000E+00 0.  1.
         23    2    1    0    0    0  0.21615503956E+02  0.14336968395E+02  0.13831283254E+02  0.95604710063E+02  0.90973498975E+02 0.  0.
         13    1    3    3    0    0 -0.23667099693E+02 -0.24647353145E+02  0.10551829323E+02  0.35762772418E+02  0.10566000000E+00 0. -1.
         22    1    1    0    0    0 -0.21615503956E+02 -0.14336968395E+02 -0.13831283254E+02  0.29395289937E+02  0.00000000000E+00 0.  1.
</event>
<event>
 5    1  0.6903325E-004  0.9118800E+02  0.7818608E-02  0.1130116E+00
         25   -1    0    0    0    0  0.00000000000E+00  0.00000000000E+00  0.99999998245E-14  0.12500000000E+03  0.12500000000E+03 0.  0.
        -13    1    3    3    0    0 -0.16597445139E+02 -0.34862170197E+02  0.24174185661E+02  0.45554895592E+02  0.10566000000E+00 0.  1.
         23    2    1    0    0    0  0.67505183324E+01 -0.23080312336E+02 -0.17849746355E+02  0.95051982366E+02  0.90210839656E+02 0.  0.
         13    1    3    3    0    0  0.23347963472E+02  0.11781857861E+02 -0.42023932016E+02  0.49497086774E+02  0.10566000000E+00 0. -1.
         22    1    1    0    0    0 -0.67505183324E+01  0.23080312336E+02  0.17849746355E+02  0.29948017634E+02  0.00000000000E+00 0. -1.
</event>
<event>
 5    1  0.6903325E-004  0.9118800E+02  0.7818608E-02  0.1130116E+00
         25   -1    0    0    0    0  0.00000000000E+00  0.00000000000E+00  0.99999998245E-14  0.12500000000E+03  0.12500000000E+03 0.  0.
        -13    1    3    3    0    0 -0.27222896931E+01  0.53593881960E+02 -0.32357993219E+01  0.53760548788E+02  0.10566000000E+00 0. -1.
         23    2    1    0    0    0 -0.33961228029E+01  0.16625250257E+02 -0.23569473222E+02  0.95957743474E+02  0.91457289859E+02 0.  0.
         13    1    3    3    0    0 -0.67383310977E+00 -0.36968631703E+02 -0.20333673900E+02  0.42197194686E+02  0.10566000000E+00 0.  1.
         22    1    1    0    0    0  0.33961228029E+01 -0.16625250257E+02  0.23569473222E+02  0.29042256526E+02  0.00000000000E+00 0.  1.
</event>
<event>
 5    1  0.6903325E-004  0.9118800E+02  0.7818608E-02  0.1130116E+00
         25   -1    0    0    0    0  0.00000000000E+00  0.00000000000E+00  0.99999998245E-14  0.12500000000E+03  0.12500000000E+03 0.  0.
        -13    1    3    3    0    0 -0.15472758299E+02 -0.43169903738E+02  0.11322421131E+02  0.47236164349E+02  0.10566000000E+00 0.  1.
         23    2    1    0    0    0 -0.28366444766E+02  0.34373662052E+01  0.38628348741E+01  0.96166128107E+02  0.91741659167E+02 0.  0.
         13    1    3    3    0    0 -0.12893686466E+02  0.46607269943E+02 -0.74595862570E+01  0.48929963758E+02  0.10566000000E+00 0. -1.
         22    1    1    0    0    0  0.28366444766E+02 -0.34373662052E+01 -0.38628348741E+01  0.28833871893E+02  0.00000000000E+00 0. -1.
</event>
<event>
 5    1  0.6903325E-004  0.9118800E+02  0.7818608E-02  0.1130116E+00
         25   -1    0    0    0    0  0.00000000000E+00  0.00000000000E+00  0.99999998245E-14  0.12500000000E+03  0.12500000000E+03 0.  0.
        -13    1    3    3    0    0 -0.49201125213E+01 -0.98601778730E+01 -0.82420137583E+01  0.13761270644E+02  0.10566000000E+00 0. -1.
         23    2    1    0    0    0  0.33923993609E+02  0.31567876971E+02  0.16639684193E+02  0.75763354207E+02  0.57583318347E+02 0.  0.
         13    1    3    3    0    0  0.38844106130E+02  0.41428054844E+02  0.24881697952E+02  0.62002083563E+02  0.10566000000E+00 0.  1.
         22    1    1    0    0    0 -0.33923993609E+02 -0.31567876971E+02 -0.16639684193E+02  0.49236645793E+02  0.00000000000E+00 0.  1.
</event>
<event>
 5    1  0.6903325E-004  0.9118800E+02  0.7818608E-02  0.1130116E+00
         25   -1    0    0    0    0  0.00000000000E+00  0.00000000000E+00  0.99999998245E-14  0.12500000000E+03  0.12500000000E+03 0.  0.
        -13    1    3    3    0    0 -0.45267828244E+02 -0.34504473969E+02 -0.25724633635E+02  0.62462011955E+02  0.10566000000E+00 0. -1.
         23    2    1    0    0    0 -0.19725724140E+02 -0.16468559430E+02 -0.12730318283E+02  0.96322854987E+02  0.91954954987E+02 0.  0.
         13    1    3    3    0    0  0.25542104104E+02  0.18035914539E+02  0.12994315352E+02  0.33860843032E+02  0.10566000000E+00 0.  1.
         22    1    1    0    0    0  0.19725724140E+02  0.16468559430E+02  0.12730318283E+02  0.28677145013E+02  0.00000000000E+00 0. -1.
</event>
<event>
 5    1  0.6903325E-004  0.9118800E+02  0.7818608E-02  0.1130116E+00
         25   -1    0    0    0    0  0.00000000000E+00  0.00000000000E+00  0.99999998245E-14  0.12500000000E+03  0.12500000000E+03 0.  0.
        -13    1    3    3    0    0  0.92901103359E+01  0.48534626834E+02  0.17794935443E+02  0.52522252840E+02  0.10566000000E+00 0.  1.
         23    2    1    0    0    0 -0.20011132034E+02  0.16469263568E+02  0.12323708112E+02  0.96302337563E+02  0.91927060166E+02 0.  0.
         13    1    3    3    0    0 -0.29301242369E+02 -0.32065363266E+02 -0.54712273308E+01  0.43780084723E+02  0.10566000000E+00 0. -1.
         22    1    1    0    0    0  0.20011132034E+02 -0.16469263568E+02 -0.12323708112E+02  0.28697662437E+02  0.00000000000E+00 0.  1.
</event>
<event>
 5    1  0.6903325E-004  0.9118800E+02  0.7818608E-02  0.1130116E+00
         25   -1    0    0    0    0  0.00000000000E+00  0.00000000000E+00  0.99999998245E-14  0.12500000000E+03  0.12500000000E+03 0.  0.
        -13    1    3    3    0    0  0.46622936700E+02 -0.36125774337E+01 -0.35892851717E+02  0.58949613321E+02  0.10566000000E+00 0.  1.
         23    2    1    0    0    0  0.10846642129E+02 -0.96978778530E+00 -0.26966860439E+02  0.95917329975E+02  0.91402037690E+02 0.  0.
         13    1    3    3    0    0 -0.35776294571E+02  0.26427896484E+01  0.89259912777E+01  0.36967716655E+02  0.10566000000E+00 0. -1.
         22    1    1    0    0    0 -0.10846642129E+02  0.96978778530E+00  0.26966860439E+02  0.29082670025E+02  0.00000000000E+00 0.  1.
</event>
<event>
 5    1  0.6903325E-004  0.9118800E+02  0.7818608E-02  0.1130116E+00
         25   -1    0    0    0    0  0.00000000000E+00  0.00000000000E+00  0.99999998245E-14  0.12500000000E+03  0.12500000000E+03 0.  0.
        -13    1    3    3    0    0 -0.23549321832E+01 -0.42367451059E+02 -0.63887607262E+01  0.42911234455E+02  0.10566000000E+00 0.  1.
         23    2    1    0    0    0  0.27253833050E+02  0.23719934118E+01 -0.77102519412E+01  0.96577372506E+02  0.92300287792E+02 0.  0.
         13    1    3    3    0    0  0.29608765233E+02  0.44739444471E+02 -0.13214912150E+01  0.53666138051E+02  0.10566000000E+00 0. -1.
         22    1    1    0    0    0 -0.27253833050E+02 -0.23719934118E+01  0.77102519412E+01  0.28422627494E+02  0.00000000000E+00 0. -1.
</event>
<event>
 5    1  0.6903325E-004  0.9118800E+02  0.7818608E-02  0.1130116E+00
         25   -1    0    0    0    0  0.00000000000E+00  0.00000000000E+00  0.99999998245E-14  0.12500000000E+03  0.12500000000E+03 0.  0.
        -13    1    3    3    0    0 -0.27766095365E+02 -0.21188963866E+02 -0.13291707806E+02  0.37371230940E+02  0.10566000000E+00 0. -1.
         23    2    1    0    0    0  0.65638600437E+01 -0.95854885141E+00  0.28866532190E+02  0.95381091255E+02  0.90665720169E+02 0.  0.
         13    1    3    3    0    0  0.34329955409E+02  0.20230415015E+02  0.42158239997E+02  0.58009860314E+02  0.10566000000E+00 0.  1.
         22    1    1    0    0    0 -0.65638600437E+01  0.95854885141E+00 -0.28866532190E+02  0.29618908745E+02  0.00000000000E+00 0.  1.
</event>
<event>
 5    1  0.6903325E-004  0.9118800E+02  0.7818608E-02  0.1130116E+00
         25   -1    0    0    0    0  0.00000000000E+00  0.00000000000E+00  0.99999998245E-14  0.12500000000E+03  0.12500000000E+03 0.  0.
        -13    1    3    3    0    0 -0.29743993615E+02 -0.17971975546E+02  0.96759865778E+01  0.36073992591E+02  0.10566000000E+00 0. -1.
         23    2    1    0    0    0  0.20635793913E+02  0.16066296187E+02 -0.43920401002E+01  0.98481103344E+02  0.94843428007E+02 0.  0.
         13    1    3    3    0    0  0.50379787528E+02  0.34038271733E+02 -0.14068026678E+02  0.62407110753E+02  0.10566000000E+00 0.  1.
         22    1    1    0    0    0 -0.20635793913E+02 -0.16066296187E+02  0.43920401002E+01  0.26518896656E+02  0.00000000000E+00 0.  1.
</event>
<event>
 5    1  0.6903325E-004  0.9118800E+02  0.7818608E-02  0.1130116E+00
         25   -1    0    0    0    0  0.00000000000E+00  0.00000000000E+00  0.99999998245E-14  0.12500000000E+03  0.12500000000E+03 0.  0.
        -13    1    3    3    0    0  0.18704298881E+02  0.27821405060E+02  0.49035721561E+02  0.59400290649E+02  0.10566000000E+00 0. -1.
         23    2    1    0    0    0  0.61890720180E+01  0.15732822999E+01  0.30395217172E+02  0.93941200014E+02  0.88658332961E+02 0.  0.
         13    1    3    3    0    0 -0.12515226863E+02 -0.26248122760E+02 -0.18640504388E+02  0.34540909365E+02  0.10566000000E+00 0.  1.
         22    1    1    0    0    0 -0.61890720180E+01 -0.15732822999E+01 -0.30395217172E+02  0.31058799986E+02  0.00000000000E+00 0. -1.
</event>
<event>
 5    1  0.6903325E-004  0.9118800E+02  0.7818608E-02  0.1130116E+00
         25   -1    0    0    0    0  0.00000000000E+00  0.00000000000E+00  0.99999998245E-14  0.12500000000E+03  0.12500000000E+03 0.  0.
        -13    1    3    3    0    0  0.66555003167E+01  0.12036657765E+02  0.36612496368E+02  0.39110904732E+02  0.10566000000E+00 0. -1.
         23    2    1    0    0    0 -0.20167080533E+02  0.13309219569E+02 -0.14480216661E+02  0.96830457275E+02  0.92642400222E+02 0.  0.
         13    1    3    3    0    0 -0.26822580850E+02  0.12725618041E+01 -0.51092713029E+02  0.57719552543E+02  0.10566000000E+00 0.  1.
         22    1    1    0    0    0  0.20167080533E+02 -0.13309219569E+02  0.14480216661E+02  0.28169542725E+02  0.00000000000E+00 0.  1.
</event>
<event>
 5    1  0.6903325E-004  0.9118800E+02  0.7818608E-02  0.1130116E+00
         25   -1    0    0    0    0  0.00000000000E+00  0.00000000000E+00  0.99999998245E-14  0.12500000000E+03  0.12500000000E+03 0.  0.
        -13    1    3    3    0    0  0.41719433234E+02 -0.14140003507E+02 -0.36618896534E+02  0.57283553975E+02  0.10566000000E+00 0.  1.
         23    2    1    0    0    0  0.35086704258E+02  0.31506862454E+01 -0.12658326270E+02  0.87566901498E+02  0.79162651386E+02 0.  0.
         13    1    3    3    0    0 -0.66327289762E+01  0.17290689752E+02  0.23960570265E+02  0.30283347523E+02  0.10566000000E+00 0. -1.
         22    1    1    0    0    0 -0.35086704258E+02 -0.31506862454E+01  0.12658326270E+02  0.37433098502E+02  0.00000000000E+00 0.  1.
</event>
<event>
 5    1  0.6903325E-004  0.9118800E+02  0.7818608E-02  0.1130116E+00
         25   -1    0    0    0    0  0.00000000000E+00  0.00000000000E+00  0.99999998245E-14  0.12500000000E+03  0.12500000000E+03 0.  0.
        -13    1    3    3    0    0  0.33189329080E+02  0.94044246529E+01  0.49184217997E+02  0.60075562685E+02  0.10566000000E+00 0.  1.
         23    2    1    0    0    0  0.20614490757E+02  0.13679945784E+02  0.16754043290E+02  0.95120306019E+02  0.90305462209E+02 0.  0.
         13    1    3    3    0    0 -0.12574838323E+02  0.42755211307E+01 -0.32430174707E+02  0.35044743334E+02  0.10566000000E+00 0. -1.
         22    1    1    0    0    0 -0.20614490757E+02 -0.13679945784E+02 -0.16754043290E+02  0.29879693981E+02  0.00000000000E+00 0.  1.
</event>
<event>
 5    1  0.6903325E-004  0.9118800E+02  0.7818608E-02  0.1130116E+00
         25   -1    0    0    0    0  0.00000000000E+00  0.00000000000E+00  0.99999998245E-14  0.12500000000E+03  0.12500000000E+03 0.  0.
        -13    1    3    3    0    0 -0.21771226967E+02 -0.18719589532E+02  0.41490674594E+02  0.50456878602E+02  0.10566000000E+00 0. -1.
         23    2    1    0    0    0  0.13874446616E+02  0.25919197883E+01  0.27161457202E+02  0.94390147429E+02  0.89289063481E+02 0.  0.
         13    1    3    3    0    0  0.35645673583E+02  0.21311509320E+02 -0.14329217393E+02  0.43933268827E+02  0.10566000000E+00 0.  1.
         22    1    1    0    0    0 -0.13874446616E+02 -0.25919197883E+01 -0.27161457202E+02  0.30609852571E+02  0.00000000000E+00 0. -1.
</event>
<event>
 5    1  0.6903325E-004  0.9118800E+02  0.7818608E-02  0.1130116E+00
         25   -1    0    0    0    0  0.00000000000E+00  0.00000000000E+00  0.99999998245E-14  0.12500000000E+03  0.12500000000E+03 0.  0.
        -13    1    3    3    0    0 -0.51914951698E+02 -0.11025943116E+02  0.17383683665E+02  0.55847446255E+02  0.10566000000E+00 0.  1.
         23    2    1    0    0    0 -0.13982204498E+02 -0.12503865032E+02  0.24164131447E+02  0.94409904676E+02  0.89316718306E+02 0.  0.
         13    1    3    3    0    0  0.37932747200E+02 -0.14779219156E+01  0.67804477819E+01  0.38562458421E+02  0.10566000000E+00 0. -1.
         22    1    1    0    0    0  0.13982204498E+02  0.12503865032E+02 -0.24164131447E+02  0.30590095324E+02  0.00000000000E+00 0.  1.
</event>
<event>
 5    1  0.6903325E-004  0.9118800E+02  0.7818608E-02  0.1130116E+00
         25   -1    0    0    0    0  0.00000000000E+00  0.00000000000E+00  0.99999998245E-14  0.12500000000E+03  0.12500000000E+03 0.  0.
        -13    1    3    3    0    0 -0.34370301898E+02 -0.18104893464E+01 -0.25079789349E+01  0.34509370417E+02  0.10566000000E+00 0. -1.
         23    2    1    0    0    0  0.19832871653E+02 -0.36905442011E+01  0.22967937321E+02  0.94430586213E+02  0.89345657719E+02 0.  0.
         13    1    3    3    0    0  0.54203173551E+02 -0.18800548547E+01  0.25475916256E+02  0.59921215795E+02  0.10566000000E+00 0.  1.
         22    1    1    0    0    0 -0.19832871653E+02  0.36905442011E+01 -0.22967937321E+02  0.30569413787E+02  0.00000000000E+00 0.  1.
</event>
<event>
 5    1  0.6903325E-004  0.9118800E+02  0.7818608E-02  0.1130116E+00
         25   -1    0    0    0    0  0.00000000000E+00  0.00000000000E+00  0.99999998245E-14  0.12500000000E+03  0.12500000000E+03 0.  0.
        -13    1    3    3    0    0 -0.32943082299E+02 -0.32572792806E+02 -0.41210887159E+02  0.62004692460E+02  0.10566000000E+00 0. -1.
         23    2    1    0    0    0 -0.11798474906E+02 -0.19151375838E+02 -0.17402699653E+02  0.96560007704E+02  0.92276768073E+02 0.  0.
         13    1    3    3    0    0  0.21144607394E+02  0.13421416968E+02  0.23808187506E+02  0.34555315244E+02  0.10566000000E+00 0.  1.
         22    1    1    0    0    0  0.11798474906E+02  0.19151375838E+02  0.17402699653E+02  0.28439992296E+02  0.00000000000E+00 0. -1.
</event>
<event>
 5    1  0.6903325E-004  0.9118800E+02  0.7818608E-02  0.1130116E+00
         25   -1    0    0    0    0  0.00000000000E+00  0.00000000000E+00  0.99999998245E-14  0.12500000000E+03  0.12500000000E+03 0.  0.
        -13    1    3    3    0    0  0.10236787237E+02  0.10848561675E+02 -0.35151739255E+02  0.38185586810E+02  0.10566000000E+00 0. -1.
         23    2    1    0    0    0  0.19162813792E+02 -0.10766011553E+01  0.21158811403E+02  0.96433099530E+02  0.92104695225E+02 0.  0.
         13    1    3    3    0    0  0.89260265549E+01 -0.11925162830E+02  0.56310550658E+02  0.58247512720E+02  0.10566000000E+00 0.  1.
         22    1    1    0    0    0 -0.19162813792E+02  0.10766011553E+01 -0.21158811403E+02  0.28566900470E+02  0.00000000000E+00 0.  1.
</event>
<event>
 5    1  0.6903325E-004  0.9118800E+02  0.7818608E-02  0.1130116E+00
         25   -1    0    0    0    0  0.00000000000E+00  0.00000000000E+00  0.99999998245E-14  0.12500000000E+03  0.12500000000E+03 0.  0.
        -13    1    3    3    0    0  0.11306252772E+02  0.39754454816E+02 -0.88950855985E+01  0.42277437734E+02  0.10566000000E+00 0. -1.
         23    2    1    0    0    0  0.11736816181E+02 -0.90626428471E+00  0.26382419367E+02  0.96110447897E+02  0.91665762280E+02 0.  0.
         13    1    3    3    0    0  0.43056340899E+00 -0.40660719101E+02  0.35277504966E+02  0.53833010164E+02  0.10566000000E+00 0.  1.
         22    1    1    0    0    0 -0.11736816181E+02  0.90626428471E+00 -0.26382419367E+02  0.28889552103E+02  0.00000000000E+00 0.  1.
</event>
<event>
 5    1  0.6903325E-004  0.9118800E+02  0.7818608E-02  0.1130116E+00
         25   -1    0    0    0    0  0.00000000000E+00  0.00000000000E+00  0.99999998245E-14  0.12500000000E+03  0.12500000000E+03 0.  0.
        -13    1    3    3    0    0  0.15526999610E+02 -0.50193967430E+02 -0.20568224407E+02  0.56423267387E+02  0.10566000000E+00 0. -1.
         23    2    1    0    0    0  0.22818444303E+02 -0.12199822799E+02 -0.13720743631E+02  0.95712188840E+02  0.91121057994E+02 0.  0.
         13    1    3    3    0    0  0.72914446930E+01  0.37994144631E+02  0.68474807762E+01  0.39288921453E+02  0.10566000000E+00 0.  1.
         22    1    1    0    0    0 -0.22818444303E+02  0.12199822799E+02  0.13720743631E+02  0.29287811160E+02  0.00000000000E+00 0. -1.
</event>
<event>
 5    1  0.6903325E-004  0.9118800E+02  0.7818608E-02  0.1130116E+00
         25   -1    0    0    0    0  0.00000000000E+00  0.00000000000E+00  0.99999998245E-14  0.12500000000E+03  0.12500000000E+03 0.  0.
        -13    1    3    3    0    0 -0.21067941040E+01  0.49655236564E+02  0.50050452032E+01  0.49951403795E+02  0.10566000000E+00 0. -1.
         23    2    1    0    0    0  0.24942227292E+02  0.12327614148E+02  0.77116862725E+01  0.96128649529E+02  0.91690579572E+02 0.  0.
         13    1    3    3    0    0  0.27049021396E+02 -0.37327622415E+02  0.27066410694E+01  0.46177245734E+02  0.10566000000E+00 0.  1.
         22    1    1    0    0    0 -0.24942227292E+02 -0.12327614148E+02 -0.77116862725E+01  0.28871350471E+02  0.00000000000E+00 0.  1.
</event>
<event>
 5    1  0.6903325E-004  0.9118800E+02  0.7818608E-02  0.1130116E+00
         25   -1    0    0    0    0  0.00000000000E+00  0.00000000000E+00  0.99999998245E-14  0.12500000000E+03  0.12500000000E+03 0.  0.
        -13    1    3    3    0    0 -0.58869210877E+02  0.19121160140E+02 -0.48137270930E+00  0.61898672345E+02  0.10566000000E+00 0. -1.
         23    2    1    0    0    0 -0.25461401050E+02  0.12787860493E+02  0.41191164568E+01  0.96211470343E+02  0.91803418160E+02 0.  0.
         13    1    3    3    0    0  0.33407809827E+02 -0.63332996466E+01  0.46004891661E+01  0.34312797998E+02  0.10566000000E+00 0.  1.
         22    1    1    0    0    0  0.25461401050E+02 -0.12787860493E+02 -0.41191164568E+01  0.28788529657E+02  0.00000000000E+00 0. -1.
</event>
<event>
 5    1  0.6903325E-004  0.9118800E+02  0.7818608E-02  0.1130116E+00
         25   -1    0    0    0    0  0.00000000000E+00  0.00000000000E+00  0.99999998245E-14  0.12500000000E+03  0.12500000000E+03 0.  0.
        -13    1    3    3    0    0 -0.65715252618E+00 -0.14042755848E+02  0.52448399776E+02  0.54299877020E+02  0.10566000000E+00 0. -1.
         23    2    1    0    0    0  0.20104766300E+02  0.24703155646E+01  0.28472947461E+02  0.90057006080E+02  0.83001515166E+02 0.  0.
         13    1    3    3    0    0  0.20761918827E+02  0.16513071413E+02 -0.23975452315E+02  0.35757129060E+02  0.10566000000E+00 0.  1.
         22    1    1    0    0    0 -0.20104766300E+02 -0.24703155646E+01 -0.28472947461E+02  0.34942993920E+02  0.00000000000E+00 0. -1.
</event>
<event>
 5    1  0.6903325E-004  0.9118800E+02  0.7818608E-02  0.1130116E+00
         25   -1    0    0    0    0  0.00000000000E+00  0.00000000000E+00  0.99999998245E-14  0.12500000000E+03  0.12500000000E+03 0.  0.
        -13    1    3    3    0    0 -0.31193495944E+02 -0.94999647617E+00 -0.34164065055E+02  0.46272358786E+02  0.10566000000E+00 0.  1.
         23    2    1    0    0    0  0.54952967799E+01  0.24973308205E+02 -0.16635402300E+02  0.94494246132E+02  0.89434677463E+02 0.  0.
         13    1    3    3    0    0  0.36688792724E+02  0.25923304681E+02  0.17528662755E+02  0.48221887345E+02  0.10566000000E+00 0. -1.
         22    1    1    0    0    0 -0.54952967799E+01 -0.24973308205E+02  0.16635402300E+02  0.30505753868E+02  0.00000000000E+00 0. -1.
</event>
<event>
 5    1  0.6903325E-004  0.9118800E+02  0.7818608E-02  0.1130116E+00
         25   -1    0    0    0    0  0.00000000000E+00  0.00000000000E+00  0.99999998245E-14  0.12500000000E+03  0.12500000000E+03 0.  0.
        -13    1    3    3    0    0 -0.89650542650E+01  0.32960959339E+02  0.21129588748E+02  0.40165504145E+02  0.10566000000E+00 0. -1.
         23    2    1    0    0    0 -0.25693984854E+02 -0.10785062517E+02  0.25529934122E+02  0.87207461484E+02  0.78593036403E+02 0.  0.
         13    1    3    3    0    0 -0.16728930589E+02 -0.43746021856E+02  0.44003453745E+01  0.47041957339E+02  0.10566000000E+00 0.  1.
         22    1    1    0    0    0  0.25693984854E+02  0.10785062517E+02 -0.25529934122E+02  0.37792538516E+02  0.00000000000E+00 0.  1.
</event>
<event>
 4    1  0.6903325E-004  0.9118800E+02  0.7818608E-02  0.1130116E+00
         25   -1    0    0    0    0  0.00000000000E+00  0.00000000000E+00  0.99999998245E-14  0.12500000000E+03  0.12500000000E+03 0.  0.
        -13    1    1    0    0    0  0.60457416099E+01 -0.12689274221E+02 -0.10990999733E+01  0.14099214753E+02  0.10566000000E+00 0. -1.
         13    1    1    0    0    0 -0.54548872086E+02  0.19446316273E+02 -0.14140236565E+02  0.59612885491E+02  0.10566000000E+00 0.  1.
         22    1    1    0    0    0  0.48503130476E+02 -0.67570420513E+01  0.15239336538E+02  0.51287899756E+02  0.00000000000E+00 0.  1.
</event>
<event>
 5    1  0.6903325E-004  0.9118800E+02  0.7818608E-02  0.1130116E+00
         25   -1    0    0    0    0  0.00000000000E+00  0.00000000000E+00  0.99999998245E-14  0.12500000000E+03  0.12500000000E+03 0.  0.
        -13    1    3    3    0    0  0.18250433628E+02  0.42662890905E+01  0.33635184875E+02  0.38504757833E+02  0.10566000000E+00 0. -1.
         23    2    1    0    0    0  0.49239318416E+01  0.17806829896E+02 -0.21400795714E+02  0.96727710511E+02  0.92503662780E+02 0.  0.
         13    1    3    3    0    0 -0.13326501786E+02  0.13540540806E+02 -0.55035980589E+02  0.58222952678E+02  0.10566000000E+00 0.  1.
         22    1    1    0    0    0 -0.49239318416E+01 -0.17806829896E+02  0.21400795714E+02  0.28272289489E+02  0.00000000000E+00 0.  1.
</event>
<event>
 5    1  0.6903325E-004  0.9118800E+02  0.7818608E-02  0.1130116E+00
         25   -1    0    0    0    0  0.00000000000E+00  0.00000000000E+00  0.99999998245E-14  0.12500000000E+03  0.12500000000E+03 0.  0.
        -13    1    3    3    0    0 -0.52219894038E+01 -0.30000685489E+02  0.71757752810E+01  0.31285990764E+02  0.10566000000E+00 0.  1.
         23    2    1    0    0    0 -0.81382839221E+01  0.25004926972E+02 -0.19280500841E+02  0.92393010707E+02  0.86447976707E+02 0.  0.
         13    1    3    3    0    0 -0.29162945183E+01  0.55005612461E+02 -0.26456276122E+02  0.61107019943E+02  0.10566000000E+00 0. -1.
         22    1    1    0    0    0  0.81382839221E+01 -0.25004926972E+02  0.19280500841E+02  0.32606989293E+02  0.00000000000E+00 0. -1.
</event>
<event>
 5    1  0.6903325E-004  0.9118800E+02  0.7818608E-02  0.1130116E+00
         25   -1    0    0    0    0  0.00000000000E+00  0.00000000000E+00  0.99999998245E-14  0.12500000000E+03  0.12500000000E+03 0.  0.
        -13    1    3    3    0    0 -0.33321365331E+01  0.16850154681E+02  0.53533591104E+02  0.56221769691E+02  0.10566000000E+00 0.  1.
         23    2    1    0    0    0 -0.15218975214E+02  0.19756398124E+02  0.16824597591E+02  0.94916789442E+02  0.90023315649E+02 0.  0.
         13    1    3    3    0    0 -0.11886838681E+02  0.29062434424E+01 -0.36708993512E+02  0.38695019751E+02  0.10566000000E+00 0. -1.
         22    1    1    0    0    0  0.15218975214E+02 -0.19756398124E+02 -0.16824597591E+02  0.30083210558E+02  0.00000000000E+00 0. -1.
</event>
<event>
 5    1  0.6903325E-004  0.9118800E+02  0.7818608E-02  0.1130116E+00
         25   -1    0    0    0    0  0.00000000000E+00  0.00000000000E+00  0.99999998245E-14  0.12500000000E+03  0.12500000000E+03 0.  0.
        -13    1    3    3    0    0  0.10086757248E+02  0.50809572609E+02  0.26789390492E+02  0.58318418595E+02  0.10566000000E+00 0.  1.
         23    2    1    0    0    0 -0.27386970405E+00  0.13787870446E+02  0.24567186939E+02  0.96826838123E+02  0.92637516864E+02 0.  0.
         13    1    3    3    0    0 -0.10360626952E+02 -0.37021702163E+02 -0.22222035531E+01  0.38508419528E+02  0.10566000000E+00 0. -1.
         22    1    1    0    0    0  0.27386970405E+00 -0.13787870446E+02 -0.24567186939E+02  0.28173161877E+02  0.00000000000E+00 0.  1.
</event>
<event>
 5    1  0.6903325E-004  0.9118800E+02  0.7818608E-02  0.1130116E+00
         25   -1    0    0    0    0  0.00000000000E+00  0.00000000000E+00  0.99999998245E-14  0.12500000000E+03  0.12500000000E+03 0.  0.
        -13    1    3    3    0    0 -0.55741357979E+02 -0.76255781530E+01  0.16670854460E+02  0.58678590508E+02  0.10566000000E+00 0. -1.
         23    2    1    0    0    0 -0.35115699672E+02  0.92799221711E+01  0.15879868062E+02  0.85359117963E+02  0.75596160556E+02 0.  0.
         13    1    3    3    0    0  0.20625658307E+02  0.16905500324E+02 -0.79098639809E+00  0.26680527456E+02  0.10566000000E+00 0.  1.
         22    1    1    0    0    0  0.35115699672E+02 -0.92799221711E+01 -0.15879868062E+02  0.39640882037E+02  0.00000000000E+00 0. -1.
</event>
<event>
 5    1  0.6903325E-004  0.9118800E+02  0.7818608E-02  0.1130116E+00
         25   -1    0    0    0    0  0.00000000000E+00  0.00000000000E+00  0.99999998245E-14  0.12500000000E+03  0.12500000000E+03 0.  0.
        -13    1    3    3    0    0 -0.15693192550E+02 -0.52497449377E+02 -0.68010674858E+01  0.55213441900E+02  0.10566000000E+00 0. -1.
         23    2    1    0    0    0 -0.21438310130E+02 -0.17481451237E+02 -0.17489475032E+02  0.92272580067E+02  0.86273663518E+02 0.  0.
         13    1    3    3    0    0 -0.57451175795E+01  0.35015998140E+02 -0.10688407546E+02  0.37059138167E+02  0.10566000000E+00 0.  1.
         22    1    1    0    0    0  0.21438310130E+02  0.17481451237E+02  0.17489475032E+02  0.32727419933E+02  0.00000000000E+00 0. -1.
</event>
<event>
 5    1  0.6903325E-004  0.9118800E+02  0.7818608E-02  0.1130116E+00
         25   -1    0    0    0    0  0.00000000000E+00  0.00000000000E+00  0.99999998245E-14  0.12500000000E+03  0.12500000000E+03 0.  0.
        -13    1    3    3    0    0  0.57548488849E+01  0.36985155301E+02  0.35136771247E+02  0.51338327359E+02  0.10566000000E+00 0.  1.
         23    2    1    0    0    0 -0.18022660277E+02  0.37059871982E+01  0.25833172396E+02  0.93284019476E+02  0.87726876549E+02 0.  0.
         13    1    3    3    0    0 -0.23777509162E+02 -0.33279168103E+02 -0.93035988516E+01  0.41945692117E+02  0.10566000000E+00 0. -1.
         22    1    1    0    0    0  0.18022660277E+02 -0.37059871982E+01 -0.25833172396E+02  0.31715980524E+02  0.00000000000E+00 0.  1.
</event>
<event>
 5    1  0.6903325E-004  0.9118800E+02  0.7818608E-02  0.1130116E+00
         25   -1    0    0    0    0  0.00000000000E+00  0.00000000000E+00  0.99999998245E-14  0.12500000000E+03  0.12500000000E+03 0.  0.
        -13    1    3    3    0    0 -0.28786976645E+02  0.42018383736E+02  0.29297622152E+02  0.58758798694E+02  0.10566000000E+00 0. -1.
         23    2    1    0    0    0 -0.11903137035E+02  0.26825120107E+02  0.22571587223E+00  0.95651700429E+02  0.91038042088E+02 0.  0.
         13    1    3    3    0    0  0.16883839610E+02 -0.15193263629E+02 -0.29071906280E+02  0.36892901735E+02  0.10566000000E+00 0.  1.
         22    1    1    0    0    0  0.11903137035E+02 -0.26825120107E+02 -0.22571587223E+00  0.29348299571E+02  0.00000000000E+00 0. -1.
</event>
<event>
 5    1  0.6903325E-004  0.9118800E+02  0.7818608E-02  0.1130116E+00
         25   -1    0    0    0    0  0.00000000000E+00  0.00000000000E+00  0.99999998245E-14  0.12500000000E+03  0.12500000000E+03 0.  0.
        -13    1    3    3    0    0 -0.18106163820E+02 -0.18217200190E+02  0.28612578017E+02  0.38449841819E+02  0.10566000000E+00 0. -1.
         23    2    1    0    0    0  0.26408500008E+02 -0.64141838790E+01 -0.73116972849E+01  0.96857300330E+02  0.92678611786E+02 0.  0.
         13    1    3    3    0    0  0.44514663828E+02  0.11803016311E+02 -0.35924275302E+02  0.58407458512E+02  0.10566000000E+00 0.  1.
         22    1    1    0    0    0 -0.26408500008E+02  0.64141838790E+01  0.73116972849E+01  0.28142699670E+02  0.00000000000E+00 0.  1.
</event>
<event>
 5    1  0.6903325E-004  0.9118800E+02  0.7818608E-02  0.1130116E+00
         25   -1    0    0    0    0  0.00000000000E+00  0.00000000000E+00  0.99999998245E-14  0.12500000000E+03  0.12500000000E+03 0.  0.
        -13    1    3    3    0    0 -0.51637546448E+02  0.33127276785E+01 -0.16864744668E+02  0.54422799860E+02  0.10566000000E+00 0. -1.
         23    2    1    0    0    0 -0.16674470578E+02 -0.17991463511E+02 -0.16626417350E+02  0.95366092357E+02  0.90645038966E+02 0.  0.
         13    1    3    3    0    0  0.34963075870E+02 -0.21304191189E+02  0.23832731845E+00  0.40943292497E+02  0.10566000000E+00 0.  1.
         22    1    1    0    0    0  0.16674470578E+02  0.17991463511E+02  0.16626417350E+02  0.29633907643E+02  0.00000000000E+00 0. -1.
</event>
<event>
 5    1  0.6903325E-004  0.9118800E+02  0.7818608E-02  0.1130116E+00
         25   -1    0    0    0    0  0.00000000000E+00  0.00000000000E+00  0.99999998245E-14  0.12500000000E+03  0.12500000000E+03 0.  0.
        -13    1    3    3    0    0 -0.29433365212E+02  0.24742939884E+02  0.56847249737E+01  0.38869825364E+02  0.10566000000E+00 0.  1.
         23    2    1    0    0    0 -0.69871243147E+01 -0.27563285210E+02 -0.28386205085E+01  0.96423569780E+02  0.92091761005E+02 0.  0.
         13    1    3    3    0    0  0.22446240897E+02 -0.52306225094E+02 -0.85233454822E+01  0.57553744415E+02  0.10566000000E+00 0. -1.
         22    1    1    0    0    0  0.69871243147E+01  0.27563285210E+02  0.28386205085E+01  0.28576430220E+02  0.00000000000E+00 0. -1.
</event>
<event>
 5    1  0.6903325E-004  0.9118800E+02  0.7818608E-02  0.1130116E+00
         25   -1    0    0    0    0  0.00000000000E+00  0.00000000000E+00  0.99999998245E-14  0.12500000000E+03  0.12500000000E+03 0.  0.
        -13    1    3    3    0    0 -0.97279030644E+01  0.30513189867E+02 -0.19614369190E+02  0.37555578769E+02  0.10566000000E+00 0.  1.
         23    2    1    0    0    0  0.49833195595E+01 -0.25743912023E+02 -0.11865653087E+02  0.96218474619E+02  0.91812954721E+02 0.  0.
         13    1    3    3    0    0  0.14711222624E+02 -0.56257101891E+02  0.77487161029E+01  0.58662895850E+02  0.10566000000E+00 0. -1.
         22    1    1    0    0    0 -0.49833195595E+01  0.25743912023E+02  0.11865653087E+02  0.28781525381E+02  0.00000000000E+00 0. -1.
</event>
<event>
 5    1  0.6903325E-004  0.9118800E+02  0.7818608E-02  0.1130116E+00
         25   -1    0    0    0    0  0.00000000000E+00  0.00000000000E+00  0.99999998245E-14  0.12500000000E+03  0.12500000000E+03 0.  0.
        -13    1    3    3    0    0  0.21305943074E+02  0.30350035391E+02 -0.51387928575E+00  0.37085618432E+02  0.10566000000E+00 0.  1.
         23    2    1    0    0    0 -0.65720223158E+01 -0.16070898085E+02 -0.23391359496E+02  0.95868900782E+02  0.91335782667E+02 0.  0.
         13    1    3    3    0    0 -0.27877965390E+02 -0.46420933476E+02 -0.22877480211E+02  0.58783282350E+02  0.10566000000E+00 0. -1.
         22    1    1    0    0    0  0.65720223158E+01  0.16070898085E+02  0.23391359496E+02  0.29131099218E+02  0.00000000000E+00 0. -1.
</event>
<event>
 5    1  0.6903325E-004  0.9118800E+02  0.7818608E-02  0.1130116E+00
         25   -1    0    0    0    0  0.00000000000E+00  0.00000000000E+00  0.99999998245E-14  0.12500000000E+03  0.12500000000E+03 0.  0.
        -13    1    3    3    0    0  0.31556391836E+02  0.15418523511E+02  0.42774019980E+02  0.55345864183E+02  0.10566000000E+00 0.  1.
         23    2    1    0    0    0 -0.18573786707E+01 -0.24526975336E+01  0.29263399924E+02  0.95575313837E+02  0.90933098810E+02 0.  0.
         13    1    3    3    0    0 -0.33413770507E+02 -0.17871221044E+02 -0.13510620056E+02  0.40229449653E+02  0.10566000000E+00 0. -1.
         22    1    1    0    0    0  0.18573786707E+01  0.24526975336E+01 -0.29263399924E+02  0.29424686163E+02  0.00000000000E+00 0.  1.
</event>
<event>
 5    1  0.6903325E-004  0.9118800E+02  0.7818608E-02  0.1130116E+00
         25   -1    0    0    0    0  0.00000000000E+00  0.00000000000E+00  0.99999998245E-14  0.12500000000E+03  0.12500000000E+03 0.  0.
        -13    1    3    3    0    0  0.27975448472E+02 -0.29737888065E+02 -0.14130358418E-01  0.40828654980E+02  0.10566000000E+00 0.  1.
         23    2    1    0    0    0  0.36656754701E+02  0.14161597733E+02  0.22758631680E+01  0.85636970788E+02  0.76054208937E+02 0.  0.
         13    1    3    3    0    0  0.86813062296E+01  0.43899485798E+02  0.22899935264E+01  0.44808315808E+02  0.10566000000E+00 0. -1.
         22    1    1    0    0    0 -0.36656754701E+02 -0.14161597733E+02 -0.22758631680E+01  0.39363029212E+02  0.00000000000E+00 0.  1.
</event>
<event>
 5    1  0.6903325E-004  0.9118800E+02  0.7818608E-02  0.1130116E+00
         25   -1    0    0    0    0  0.00000000000E+00  0.00000000000E+00  0.99999998245E-14  0.12500000000E+03  0.12500000000E+03 0.  0.
        -13    1    3    3    0    0 -0.13040358421E+02 -0.19920811925E+01  0.43713572943E+02  0.45660781407E+02  0.10566000000E+00 0.  1.
         23    2    1    0    0    0  0.73067032047E+01 -0.27864439084E+02  0.62619832261E+01  0.95520730825E+02  0.90858036002E+02 0.  0.
         13    1    3    3    0    0  0.20347061626E+02 -0.25872357891E+02 -0.37451589717E+02  0.49859949418E+02  0.10566000000E+00 0. -1.
         22    1    1    0    0    0 -0.73067032047E+01  0.27864439084E+02 -0.62619832261E+01  0.29479269175E+02  0.00000000000E+00 0. -1.
</event>
<event>
 5    1  0.6903325E-004  0.9118800E+02  0.7818608E-02  0.1130116E+00
         25   -1    0    0    0    0  0.00000000000E+00  0.00000000000E+00  0.99999998245E-14  0.12500000000E+03  0.12500000000E+03 0.  0.
        -13    1    3    3    0    0 -0.10633375081E+02 -0.12910871265E+01  0.33112957575E+02  0.34802509895E+02  0.10566000000E+00 0. -1.
         23    2    1    0    0    0  0.26106492108E+02 -0.13893194525E+02 -0.10880620234E+02  0.93488768971E+02  0.88018135874E+02 0.  0.
         13    1    3    3    0    0  0.36739867188E+02 -0.12602107398E+02 -0.43993577809E+02  0.58686259076E+02  0.10566000000E+00 0.  1.
         22    1    1    0    0    0 -0.26106492108E+02  0.13893194525E+02  0.10880620234E+02  0.31511231029E+02  0.00000000000E+00 0.  1.
</event>
<event>
 5    1  0.6903325E-004  0.9118800E+02  0.7818608E-02  0.1130116E+00
         25   -1    0    0    0    0  0.00000000000E+00  0.00000000000E+00  0.99999998245E-14  0.12500000000E+03  0.12500000000E+03 0.  0.
        -13    1    3    3    0    0  0.28914575852E+02  0.93092463092E+01  0.10636503154E+02  0.32184796518E+02  0.10566000000E+00 0.  1.
         23    2    1    0    0    0 -0.26941706597E+02 -0.51934043330E+01 -0.13113871940E+02  0.94589464980E+02  0.89567662942E+02 0.  0.
         13    1    3    3    0    0 -0.55856282449E+02 -0.14502650642E+02 -0.23750375095E+02  0.62404668462E+02  0.10566000000E+00 0. -1.
         22    1    1    0    0    0  0.26941706597E+02  0.51934043330E+01  0.13113871940E+02  0.30410535020E+02  0.00000000000E+00 0. -1.
</event>
<event>
 5    1  0.6903325E-004  0.9118800E+02  0.7818608E-02  0.1130116E+00
         25   -1    0    0    0    0  0.00000000000E+00  0.00000000000E+00  0.99999998245E-14  0.12500000000E+03  0.12500000000E+03 0.  0.
        -13    1    3    3    0    0  0.34450303614E+01 -0.16308373311E+02 -0.28103948586E+02  0.32675286753E+02  0.10566000000E+00 0. -1.
         23    2    1    0    0    0 -0.27204756550E+02  0.15221769939E+02  0.11420491230E+02  0.91800170498E+02  0.85586462858E+02 0.  0.
         13    1    3    3    0    0 -0.30649786912E+02  0.31530143250E+02  0.39524439816E+02  0.59124883745E+02  0.10566000000E+00 0.  1.
         22    1    1    0    0    0  0.27204756550E+02 -0.15221769939E+02 -0.11420491230E+02  0.33199829502E+02  0.00000000000E+00 0.  1.
</event>
<event>
 5    1  0.6903325E-004  0.9118800E+02  0.7818608E-02  0.1130116E+00
         25   -1    0    0    0    0  0.00000000000E+00  0.00000000000E+00  0.99999998245E-14  0.12500000000E+03  0.12500000000E+03 0.  0.
        -13    1    3    3    0    0  0.29606708238E+02  0.24216771134E+02 -0.18730155578E+02  0.42589189577E+02  0.10566000000E+00 0. -1.
         23    2    1    0    0    0 -0.48547705755E+01  0.19847945954E+02  0.21228002878E+02  0.95535820695E+02  0.90878793861E+02 0.  0.
         13    1    3    3    0    0 -0.34461478813E+02 -0.43688251800E+01  0.39958158456E+02  0.52946631117E+02  0.10566000000E+00 0.  1.
         22    1    1    0    0    0  0.48547705755E+01 -0.19847945954E+02 -0.21228002878E+02  0.29464179305E+02  0.00000000000E+00 0.  1.
</event>
<event>
 5    1  0.6903325E-004  0.9118800E+02  0.7818608E-02  0.1130116E+00
         25   -1    0    0    0    0  0.00000000000E+00  0.00000000000E+00  0.99999998245E-14  0.12500000000E+03  0.12500000000E+03 0.  0.
        -13    1    3    3    0    0  0.50791629813E+02  0.23624231024E+02  0.17243374193E+02  0.58610912534E+02  0.10566000000E+00 0.  1.
         23    2    1    0    0    0  0.29539198385E+02 -0.54192746380E+00 -0.68116978620E+00  0.95447979445E+02  0.90757891454E+02 0.  0.
         13    1    3    3    0    0 -0.21252431427E+02 -0.24166158488E+02 -0.17924543979E+02  0.36837066910E+02  0.10566000000E+00 0. -1.
         22    1    1    0    0    0 -0.29539198385E+02  0.54192746380E+00  0.68116978620E+00  0.29552020555E+02  0.00000000000E+00 0.  1.
</event>
<event>
 5    1  0.6903325E-004  0.9118800E+02  0.7818608E-02  0.1130116E+00
         25   -1    0    0    0    0  0.00000000000E+00  0.00000000000E+00  0.99999998245E-14  0.12500000000E+03  0.12500000000E+03 0.  0.
        -13    1    3    3    0    0  0.79114494613E+01  0.46667109192E+02  0.17843249422E+02  0.50584610574E+02  0.10566000000E+00 0.  1.
         23    2    1    0    0    0 -0.41578180920E+01  0.44106981983E+01  0.28547697995E+02  0.95815881533E+02  0.91263192927E+02 0.  0.
         13    1    3    3    0    0 -0.12069267553E+02 -0.42256410994E+02  0.10704448573E+02  0.45231270960E+02  0.10566000000E+00 0. -1.
         22    1    1    0    0    0  0.41578180920E+01 -0.44106981983E+01 -0.28547697995E+02  0.29184118467E+02  0.00000000000E+00 0.  1.
</event>
<event>
 5    1  0.6903325E-004  0.9118800E+02  0.7818608E-02  0.1130116E+00
         25   -1    0    0    0    0  0.00000000000E+00  0.00000000000E+00  0.99999998245E-14  0.12500000000E+03  0.12500000000E+03 0.  0.
        -13    1    3    3    0    0  0.53613277196E+02 -0.12878341694E+02  0.20443222636E+02  0.58806221544E+02  0.10566000000E+00 0. -1.
         23    2    1    0    0    0  0.19683042646E+02  0.23360731616E+00  0.22331997544E+02  0.95230974916E+02  0.90458519383E+02 0.  0.
         13    1    3    3    0    0 -0.33930234551E+02  0.13111949010E+02  0.18887749084E+01  0.36424753372E+02  0.10566000000E+00 0.  1.
         22    1    1    0    0    0 -0.19683042646E+02 -0.23360731616E+00 -0.22331997544E+02  0.29769025084E+02  0.00000000000E+00 0. -1.
</event>
<event>
 5    1  0.6903325E-004  0.9118800E+02  0.7818608E-02  0.1130116E+00
         25   -1    0    0    0    0  0.00000000000E+00  0.00000000000E+00  0.99999998245E-14  0.12500000000E+03  0.12500000000E+03 0.  0.
        -13    1    3    3    0    0 -0.25277577244E+02 -0.54300114428E+01 -0.51769478492E+02  0.57866492921E+02  0.10566000000E+00 0.  1.
         23    2    1    0    0    0 -0.57564946381E+01 -0.18412616735E+02 -0.22824675177E+02  0.95114761462E+02  0.90297787157E+02 0.  0.
         13    1    3    3    0    0  0.19521082606E+02 -0.12982605292E+02  0.28944803315E+02  0.37248268540E+02  0.10566000000E+00 0. -1.
         22    1    1    0    0    0  0.57564946381E+01  0.18412616735E+02  0.22824675177E+02  0.29885238538E+02  0.00000000000E+00 0.  1.
</event>
<event>
 5    1  0.6903325E-004  0.9118800E+02  0.7818608E-02  0.1130116E+00
         25   -1    0    0    0    0  0.00000000000E+00  0.00000000000E+00  0.99999998245E-14  0.12500000000E+03  0.12500000000E+03 0.  0.
        -13    1    3    3    0    0  0.18535920336E+02 -0.21287487090E+02 -0.18987361494E+02  0.34018649442E+02  0.10566000000E+00 0. -1.
         23    2    1    0    0    0 -0.20594112906E+02  0.17925691923E+02  0.92182088999E+01  0.96182934004E+02  0.91764554709E+02 0.  0.
         13    1    3    3    0    0 -0.39130033242E+02  0.39213179013E+02  0.28205570394E+02  0.62164284562E+02  0.10566000000E+00 0.  1.
         22    1    1    0    0    0  0.20594112906E+02 -0.17925691923E+02 -0.92182088999E+01  0.28817065996E+02  0.00000000000E+00 0.  1.
</event>
<event>
 5    1  0.6903325E-004  0.9118800E+02  0.7818608E-02  0.1130116E+00
         25   -1    0    0    0    0  0.00000000000E+00  0.00000000000E+00  0.99999998245E-14  0.12500000000E+03  0.12500000000E+03 0.  0.
        -13    1    3    3    0    0 -0.35826660968E+02  0.15163271834E+02  0.23963325887E+02  0.45691646944E+02  0.10566000000E+00 0. -1.
         23    2    1    0    0    0 -0.21211775106E+02 -0.15952623571E+02 -0.12376163803E+02  0.95715276466E+02  0.91125293506E+02 0.  0.
         13    1    3    3    0    0  0.14614885862E+02 -0.31115895406E+02 -0.36339489690E+02  0.50023629522E+02  0.10566000000E+00 0.  1.
         22    1    1    0    0    0  0.21211775106E+02  0.15952623571E+02  0.12376163803E+02  0.29284723534E+02  0.00000000000E+00 0.  1.
</event>
<event>
 5    1  0.6903325E-004  0.9118800E+02  0.7818608E-02  0.1130116E+00
         25   -1    0    0    0    0  0.00000000000E+00  0.00000000000E+00  0.99999998245E-14  0.12500000000E+03  0.12500000000E+03 0.  0.
        -13    1    3    3    0    0 -0.12933697375E+02 -0.64778756075E+01 -0.31291801306E+02  0.34473633304E+02  0.10566000000E+00 0. -1.
         23    2    1    0    0    0 -0.53329871907E+01 -0.77066371492E+01  0.28623277109E+02  0.94881484084E+02  0.89974279775E+02 0.  0.
         13    1    3    3    0    0  0.76007101840E+01 -0.12287615417E+01  0.59915078416E+02  0.60407850780E+02  0.10566000000E+00 0.  1.
         22    1    1    0    0    0  0.53329871907E+01  0.77066371492E+01 -0.28623277109E+02  0.30118515916E+02  0.00000000000E+00 0.  1.
</event>
<event>
 5    1  0.6903325E-004  0.9118800E+02  0.7818608E-02  0.1130116E+00
         25   -1    0    0    0    0  0.00000000000E+00  0.00000000000E+00  0.99999998245E-14  0.12500000000E+03  0.12500000000E+03 0.  0.
        -13    1    3    3    0    0  0.51541130826E+02 -0.31531554548E+02 -0.91505690620E+00  0.60428268155E+02  0.10566000000E+00 0. -1.
         23    2    1    0    0    0  0.28903874079E+02 -0.44234338869E+01 -0.90835768985E+00  0.95745499187E+02  0.91166741725E+02 0.  0.
         13    1    3    3    0    0 -0.22637256747E+02  0.27108120661E+02  0.66992163509E-02  0.35317231031E+02  0.10566000000E+00 0.  1.
         22    1    1    0    0    0 -0.28903874079E+02  0.44234338869E+01  0.90835768985E+00  0.29254500813E+02  0.00000000000E+00 0. -1.
</event>
<event>
 5    1  0.6903325E-004  0.9118800E+02  0.7818608E-02  0.1130116E+00
         25   -1    0    0    0    0  0.00000000000E+00  0.00000000000E+00  0.99999998245E-14  0.12500000000E+03  0.12500000000E+03 0.  0.
        -13    1    3    3    0    0  0.33071415311E+02 -0.15293326858E+02 -0.16275101391E+01  0.36472788629E+02  0.10566000000E+00 0.  1.
         23    2    1    0    0    0 -0.18880010129E+02  0.81294292369E+01 -0.19971315651E+02  0.96339995621E+02  0.91978252349E+02 0.  0.
         13    1    3    3    0    0 -0.51951425440E+02  0.23422756095E+02 -0.18343805512E+02  0.59867206992E+02  0.10566000000E+00 0. -1.
         22    1    1    0    0    0  0.18880010129E+02 -0.81294292369E+01  0.19971315651E+02  0.28660004379E+02  0.00000000000E+00 0. -1.
</event>
<event>
 5    1  0.6903325E-004  0.9118800E+02  0.7818608E-02  0.1130116E+00
         25   -1    0    0    0    0  0.00000000000E+00  0.00000000000E+00  0.99999998245E-14  0.12500000000E+03  0.12500000000E+03 0.  0.
        -13    1    3    3    0    0 -0.79868215625E+01  0.11418523472E+02 -0.11665074603E+02  0.18172977920E+02  0.10566000000E+00 0.  1.
         23    2    1    0    0    0  0.24120814434E+02  0.18609986459E+02  0.37096163150E+02  0.76997181276E+02  0.60202120552E+02 0.  0.
         13    1    3    3    0    0  0.32107635997E+02  0.71914629875E+01  0.48761237753E+02  0.58824203356E+02  0.10566000000E+00 0. -1.
         22    1    1    0    0    0 -0.24120814434E+02 -0.18609986459E+02 -0.37096163150E+02  0.48002818724E+02  0.00000000000E+00 0. -1.
</event>
<event>
 5    1  0.6903325E-004  0.9118800E+02  0.7818608E-02  0.1130116E+00
         25   -1    0    0    0    0  0.00000000000E+00  0.00000000000E+00  0.99999998245E-14  0.12500000000E+03  0.12500000000E+03 0.  0.
        -13    1    3    3    0    0  0.18996394719E+02  0.60268920817E+00 -0.28110133839E+02  0.33932536526E+02  0.10566000000E+00 0.  1.
         23    2    1    0    0    0 -0.31996283101E+02 -0.56040547143E+00  0.15968584914E+01  0.92958992780E+02  0.87262524575E+02 0.  0.
         13    1    3    3    0    0 -0.50992677821E+02 -0.11630946796E+01  0.29706992331E+02  0.59026456254E+02  0.10566000000E+00 0. -1.
         22    1    1    0    0    0  0.31996283101E+02  0.56040547143E+00 -0.15968584914E+01  0.32041007220E+02  0.00000000000E+00 0. -1.
</event>
<event>
 5    1  0.6903325E-004  0.9118800E+02  0.7818608E-02  0.1130116E+00
         25   -1    0    0    0    0  0.00000000000E+00  0.00000000000E+00  0.99999998245E-14  0.12500000000E+03  0.12500000000E+03 0.  0.
        -13    1    3    3    0    0  0.31005145555E+02  0.52454632883E+01 -0.53767519113E+02  0.62287970039E+02  0.10566000000E+00 0.  1.
         23    2    1    0    0    0  0.16143420878E+02 -0.67095013434E+00 -0.24272035390E+02  0.95841949419E+02  0.91298890217E+02 0.  0.
         13    1    3    3    0    0 -0.14861724677E+02 -0.59164134227E+01  0.29495483723E+02  0.33553979380E+02  0.10566000000E+00 0. -1.
         22    1    1    0    0    0 -0.16143420878E+02  0.67095013434E+00  0.24272035390E+02  0.29158050581E+02  0.00000000000E+00 0.  1.
</event>
<event>
 5    1  0.6903325E-004  0.9118800E+02  0.7818608E-02  0.1130116E+00
         25   -1    0    0    0    0  0.00000000000E+00  0.00000000000E+00  0.99999998245E-14  0.12500000000E+03  0.12500000000E+03 0.  0.
        -13    1    3    3    0    0 -0.18531514565E+02 -0.24207069149E+02  0.15574571654E+02  0.34234159477E+02  0.10566000000E+00 0. -1.
         23    2    1    0    0    0  0.19412190198E+02  0.20997972528E+02  0.13721274664E+02  0.93282160273E+02  0.87724227373E+02 0.  0.
         13    1    3    3    0    0  0.37943704763E+02  0.45205041677E+02 -0.18532969901E+01  0.59048000796E+02  0.10566000000E+00 0.  1.
         22    1    1    0    0    0 -0.19412190198E+02 -0.20997972528E+02 -0.13721274664E+02  0.31717839727E+02  0.00000000000E+00 0.  1.
</event>
<event>
 5    1  0.6903325E-004  0.9118800E+02  0.7818608E-02  0.1130116E+00
         25   -1    0    0    0    0  0.00000000000E+00  0.00000000000E+00  0.99999998245E-14  0.12500000000E+03  0.12500000000E+03 0.  0.
        -13    1    3    3    0    0  0.37118797366E+02  0.13607156198E+02 -0.34992720339E+02  0.52796415205E+02  0.10566000000E+00 0. -1.
         23    2    1    0    0    0  0.59116440245E+01 -0.14363512611E+02 -0.24489224404E+02  0.96000342390E+02  0.91515493757E+02 0.  0.
         13    1    3    3    0    0 -0.31207153342E+02 -0.27970668809E+02  0.10503495936E+02  0.43203927185E+02  0.10566000000E+00 0.  1.
         22    1    1    0    0    0 -0.59116440245E+01  0.14363512611E+02  0.24489224404E+02  0.28999657610E+02  0.00000000000E+00 0.  1.
</event>
<event>
 5    1  0.6903325E-004  0.9118800E+02  0.7818608E-02  0.1130116E+00
         25   -1    0    0    0    0  0.00000000000E+00  0.00000000000E+00  0.99999998245E-14  0.12500000000E+03  0.12500000000E+03 0.  0.
        -13    1    3    3    0    0 -0.19669529088E+02  0.22720780634E+02  0.43674383153E+02  0.53014971046E+02  0.10566000000E+00 0.  1.
         23    2    1    0    0    0  0.13274273095E+02 -0.65408428839E+00  0.23106227668E+02  0.98344195575E+02  0.94662816849E+02 0.  0.
         13    1    3    3    0    0  0.32943802183E+02 -0.23374864922E+02 -0.20568155484E+02  0.45329224530E+02  0.10566000000E+00 0. -1.
         22    1    1    0    0    0 -0.13274273095E+02  0.65408428839E+00 -0.23106227668E+02  0.26655804425E+02  0.00000000000E+00 0. -1.
</event>
<event>
 5    1  0.6903325E-004  0.9118800E+02  0.7818608E-02  0.1130116E+00
         25   -1    0    0    0    0  0.00000000000E+00  0.00000000000E+00  0.99999998245E-14  0.12500000000E+03  0.12500000000E+03 0.  0.
        -13    1    3    3    0    0  0.37957350648E+01 -0.10022726803E+02  0.47829068279E+02  0.49015238383E+02  0.10566000000E+00 0.  1.
         23    2    1    0    0    0  0.27887027072E+02 -0.14188042899E+01  0.87217904787E+01  0.95746471774E+02  0.91168075243E+02 0.  0.
         13    1    3    3    0    0  0.24091292007E+02  0.86039225129E+01 -0.39107277801E+02  0.46731233391E+02  0.10566000000E+00 0. -1.
         22    1    1    0    0    0 -0.27887027072E+02  0.14188042899E+01 -0.87217904787E+01  0.29253528226E+02  0.00000000000E+00 0. -1.
</event>
<event>
 5    1  0.6903325E-004  0.9118800E+02  0.7818608E-02  0.1130116E+00
         25   -1    0    0    0    0  0.00000000000E+00  0.00000000000E+00  0.99999998245E-14  0.12500000000E+03  0.12500000000E+03 0.  0.
        -13    1    3    3    0    0  0.30747212902E+01 -0.21445943843E+02  0.38498515170E+02  0.44176116315E+02  0.10566000000E+00 0.  1.
         23    2    1    0    0    0  0.15846817056E+02  0.21213368895E+02  0.15924746358E+02  0.94101356385E+02  0.88883851718E+02 0.  0.
         13    1    3    3    0    0  0.12772095766E+02  0.42659312738E+02 -0.22573768812E+02  0.49925240070E+02  0.10566000000E+00 0. -1.
         22    1    1    0    0    0 -0.15846817056E+02 -0.21213368895E+02 -0.15924746358E+02  0.30898643615E+02  0.00000000000E+00 0.  1.
</event>
<event>
 5    1  0.6903325E-004  0.9118800E+02  0.7818608E-02  0.1130116E+00
         25   -1    0    0    0    0  0.00000000000E+00  0.00000000000E+00  0.99999998245E-14  0.12500000000E+03  0.12500000000E+03 0.  0.
        -13    1    3    3    0    0  0.22961206615E+01  0.52313074230E+02  0.21383528905E+02  0.56561438966E+02  0.10566000000E+00 0.  1.
         23    2    1    0    0    0  0.19788304820E+02  0.19511777180E+02  0.10451014860E+02  0.95309763087E+02  0.90567327286E+02 0.  0.
         13    1    3    3    0    0  0.17492184159E+02 -0.32801297050E+02 -0.10932514045E+02  0.38748324121E+02  0.10566000000E+00 0. -1.
         22    1    1    0    0    0 -0.19788304820E+02 -0.19511777180E+02 -0.10451014860E+02  0.29690236913E+02  0.00000000000E+00 0.  1.
</event>
<event>
 5    1  0.6903325E-004  0.9118800E+02  0.7818608E-02  0.1130116E+00
         25   -1    0    0    0    0  0.00000000000E+00  0.00000000000E+00  0.99999998245E-14  0.12500000000E+03  0.12500000000E+03 0.  0.
        -13    1    3    3    0    0  0.28788754573E+01  0.42468142804E+02 -0.13038835572E+02  0.44518012919E+02  0.10566000000E+00 0.  1.
         23    2    1    0    0    0  0.74711538453E+01 -0.69380455757E+01 -0.27062197565E+02  0.96080851443E+02  0.91625394192E+02 0.  0.
         13    1    3    3    0    0  0.45922783880E+01 -0.49406188380E+02 -0.14023361994E+02  0.51562838524E+02  0.10566000000E+00 0. -1.
         22    1    1    0    0    0 -0.74711538453E+01  0.69380455757E+01  0.27062197565E+02  0.28919148557E+02  0.00000000000E+00 0.  1.
</event>
<event>
 5    1  0.6903325E-004  0.9118800E+02  0.7818608E-02  0.1130116E+00
         25   -1    0    0    0    0  0.00000000000E+00  0.00000000000E+00  0.99999998245E-14  0.12500000000E+03  0.12500000000E+03 0.  0.
        -13    1    3    3    0    0 -0.31309272614E+02  0.11291077999E+02 -0.19244632554E+02  0.38446404776E+02  0.10566000000E+00 0.  1.
         23    2    1    0    0    0  0.14780579745E+02 -0.22446904355E+02 -0.10080724285E+02  0.96295469786E+02  0.91917721069E+02 0.  0.
         13    1    3    3    0    0  0.46089852359E+02 -0.33737982354E+02  0.91639082694E+01  0.57849065010E+02  0.10566000000E+00 0. -1.
         22    1    1    0    0    0 -0.14780579745E+02  0.22446904355E+02  0.10080724285E+02  0.28704530214E+02  0.00000000000E+00 0. -1.
</event>
<event>
 5    1  0.6903325E-004  0.9118800E+02  0.7818608E-02  0.1130116E+00
         25   -1    0    0    0    0  0.00000000000E+00  0.00000000000E+00  0.99999998245E-14  0.12500000000E+03  0.12500000000E+03 0.  0.
        -13    1    3    3    0    0 -0.32819115872E+02  0.20880957397E+02  0.15413061798E+02  0.41841156610E+02  0.10566000000E+00 0. -1.
         23    2    1    0    0    0  0.32822903673E+01  0.22546997586E+02 -0.21622992986E+02  0.93588308612E+02  0.88159384940E+02 0.  0.
         13    1    3    3    0    0  0.36101406239E+02  0.16660401887E+01 -0.37036054783E+02  0.51747152002E+02  0.10566000000E+00 0.  1.
         22    1    1    0    0    0 -0.32822903673E+01 -0.22546997586E+02  0.21622992986E+02  0.31411691388E+02  0.00000000000E+00 0.  1.
</event>
<event>
 5    1  0.6903325E-004  0.9118800E+02  0.7818608E-02  0.1130116E+00
         25   -1    0    0    0    0  0.00000000000E+00  0.00000000000E+00  0.99999998245E-14  0.12500000000E+03  0.12500000000E+03 0.  0.
        -13    1    3    3    0    0  0.28904391060E+02  0.12940874390E+02  0.50983291326E+02  0.60018640529E+02  0.10566000000E+00 0.  1.
         23    2    1    0    0    0  0.23484754008E+02  0.45890242012E+01  0.16441099280E+02  0.95967215781E+02  0.91470235297E+02 0.  0.
         13    1    3    3    0    0 -0.54196370516E+01 -0.83518501892E+01 -0.34542192045E+02  0.35948575252E+02  0.10566000000E+00 0. -1.
         22    1    1    0    0    0 -0.23484754008E+02 -0.45890242012E+01 -0.16441099280E+02  0.29032784219E+02  0.00000000000E+00 0.  1.
</event>
<event>
 5    1  0.6903325E-004  0.9118800E+02  0.7818608E-02  0.1130116E+00
         25   -1    0    0    0    0  0.00000000000E+00  0.00000000000E+00  0.99999998245E-14  0.12500000000E+03  0.12500000000E+03 0.  0.
        -13    1    3    3    0    0 -0.27684778569E+02  0.15694738887E+02  0.31508975411E+02  0.44783908813E+02  0.10566000000E+00 0.  1.
         23    2    1    0    0    0 -0.15807971740E+01 -0.24880596073E+02  0.15620545851E+02  0.95579863472E+02  0.90939352691E+02 0.  0.
         13    1    3    3    0    0  0.26103981395E+02 -0.40575334959E+02 -0.15888429560E+02  0.50795954658E+02  0.10566000000E+00 0. -1.
         22    1    1    0    0    0  0.15807971740E+01  0.24880596073E+02 -0.15620545851E+02  0.29420136528E+02  0.00000000000E+00 0. -1.
</event>
<event>
 5    1  0.6903325E-004  0.9118800E+02  0.7818608E-02  0.1130116E+00
         25   -1    0    0    0    0  0.00000000000E+00  0.00000000000E+00  0.99999998245E-14  0.12500000000E+03  0.12500000000E+03 0.  0.
        -13    1    3    3    0    0  0.30431477766E+01 -0.82140684535E+01  0.46742315825E+02  0.47556144941E+02  0.10566000000E+00 0.  1.
         23    2    1    0    0    0  0.27683778425E+02  0.58268957310E+01  0.79426916178E+01  0.95615809491E+02  0.90988748606E+02 0.  0.
         13    1    3    3    0    0  0.24640630648E+02  0.14040964184E+02 -0.38799624207E+02  0.48059664550E+02  0.10566000000E+00 0. -1.
         22    1    1    0    0    0 -0.27683778425E+02 -0.58268957310E+01 -0.79426916178E+01  0.29384190509E+02  0.00000000000E+00 0. -1.
</event>
<event>
 5    1  0.6903325E-004  0.9118800E+02  0.7818608E-02  0.1130116E+00
         25   -1    0    0    0    0  0.00000000000E+00  0.00000000000E+00  0.99999998245E-14  0.12500000000E+03  0.12500000000E+03 0.  0.
        -13    1    3    3    0    0  0.17324145120E+02  0.29338900421E+02  0.11151886926E+02  0.35850701919E+02  0.10566000000E+00 0.  1.
         23    2    1    0    0    0  0.20875945566E+01 -0.28417956481E+02  0.65618127007E+01  0.95759690707E+02  0.91186197842E+02 0.  0.
         13    1    3    3    0    0 -0.15236550563E+02 -0.57756856902E+02 -0.45900742254E+01  0.59908988789E+02  0.10566000000E+00 0. -1.
         22    1    1    0    0    0 -0.20875945566E+01  0.28417956481E+02 -0.65618127007E+01  0.29240309293E+02  0.00000000000E+00 0. -1.
</event>
<event>
 5    1  0.6903325E-004  0.9118800E+02  0.7818608E-02  0.1130116E+00
         25   -1    0    0    0    0  0.00000000000E+00  0.00000000000E+00  0.99999998245E-14  0.12500000000E+03  0.12500000000E+03 0.  0.
        -13    1    3    3    0    0 -0.45753737864E+02 -0.31149420565E+02 -0.20708276938E+02  0.59097671932E+02  0.10566000000E+00 0.  1.
         23    2    1    0    0    0 -0.27721505296E+02 -0.89309273471E+01  0.22559670867E+01  0.95788140993E+02  0.91225189768E+02 0.  0.
         13    1    3    3    0    0  0.18032232567E+02  0.22218493218E+02  0.22964244025E+02  0.36690469061E+02  0.10566000000E+00 0. -1.
         22    1    1    0    0    0  0.27721505296E+02  0.89309273471E+01 -0.22559670867E+01  0.29211859007E+02  0.00000000000E+00 0.  1.
</event>
<event>
 5    1  0.6903325E-004  0.9118800E+02  0.7818608E-02  0.1130116E+00
         25   -1    0    0    0    0  0.00000000000E+00  0.00000000000E+00  0.99999998245E-14  0.12500000000E+03  0.12500000000E+03 0.  0.
        -13    1    3    3    0    0  0.20840653124E+02  0.21301797489E+02 -0.20492564237E+02  0.36167053404E+02  0.10566000000E+00 0.  1.
         23    2    1    0    0    0 -0.31428538413E+02  0.95423814887E+01 -0.86173560934E+01  0.91043131809E+02  0.84473563630E+02 0.  0.
         13    1    3    3    0    0 -0.52269191537E+02 -0.11759416000E+02  0.11875208144E+02  0.54876078405E+02  0.10566000000E+00 0. -1.
         22    1    1    0    0    0  0.31428538413E+02 -0.95423814887E+01  0.86173560934E+01  0.33956868191E+02  0.00000000000E+00 0. -1.
</event>
<event>
 5    1  0.6903325E-004  0.9118800E+02  0.7818608E-02  0.1130116E+00
         25   -1    0    0    0    0  0.00000000000E+00  0.00000000000E+00  0.99999998245E-14  0.12500000000E+03  0.12500000000E+03 0.  0.
        -13    1    3    3    0    0  0.42886584506E+02  0.40436099948E+02  0.10031801321E+02  0.59791182556E+02  0.10566000000E+00 0.  1.
         23    2    1    0    0    0  0.25383080680E+02  0.96663802314E+01  0.12129620719E+02  0.95253279334E+02  0.90489335468E+02 0.  0.
         13    1    3    3    0    0 -0.17503503826E+02 -0.30769719717E+02  0.20978193972E+01  0.35462096778E+02  0.10566000000E+00 0. -1.
         22    1    1    0    0    0 -0.25383080680E+02 -0.96663802314E+01 -0.12129620719E+02  0.29746720666E+02  0.00000000000E+00 0.  1.
</event>
<event>
 5    1  0.6903325E-004  0.9118800E+02  0.7818608E-02  0.1130116E+00
         25   -1    0    0    0    0  0.00000000000E+00  0.00000000000E+00  0.99999998245E-14  0.12500000000E+03  0.12500000000E+03 0.  0.
        -13    1    3    3    0    0  0.30883893233E+02  0.48828516287E+02 -0.11415566585E+02  0.58892827989E+02  0.10566000000E+00 0.  1.
         23    2    1    0    0    0  0.70536803109E+01  0.26501280851E+02  0.74182874128E+01  0.96590436807E+02  0.92317978757E+02 0.  0.
         13    1    3    3    0    0 -0.23830212923E+02 -0.22327235436E+02  0.18833853998E+02  0.37697608818E+02  0.10566000000E+00 0. -1.
         22    1    1    0    0    0 -0.70536803109E+01 -0.26501280851E+02 -0.74182874128E+01  0.28409563193E+02  0.00000000000E+00 0.  1.
</event>
<event>
 5    1  0.6903325E-004  0.9118800E+02  0.7818608E-02  0.1130116E+00
         25   -1    0    0    0    0  0.00000000000E+00  0.00000000000E+00  0.99999998245E-14  0.12500000000E+03  0.12500000000E+03 0.  0.
        -13    1    3    3    0    0  0.25757891388E+02  0.91055709194E+01 -0.12064901487E+02  0.29865588935E+02  0.10566000000E+00 0. -1.
         23    2    1    0    0    0 -0.31032627523E+02 -0.12056027010E+02  0.23811183615E+00  0.91706930819E+02  0.85450176739E+02 0.  0.
         13    1    3    3    0    0 -0.56790518911E+02 -0.21161597930E+02  0.12303013323E+02  0.61841341884E+02  0.10566000000E+00 0.  1.
         22    1    1    0    0    0  0.31032627523E+02  0.12056027010E+02 -0.23811183615E+00  0.33293069181E+02  0.00000000000E+00 0.  1.
</event>
<event>
 5    1  0.6903325E-004  0.9118800E+02  0.7818608E-02  0.1130116E+00
         25   -1    0    0    0    0  0.00000000000E+00  0.00000000000E+00  0.99999998245E-14  0.12500000000E+03  0.12500000000E+03 0.  0.
        -13    1    3    3    0    0 -0.25914154691E+00  0.23253265408E+01  0.36429636649E+02  0.36504847463E+02  0.10566000000E+00 0. -1.
         23    2    1    0    0    0 -0.68459791340E+01 -0.14866409596E+02 -0.21893598219E+02  0.97664908862E+02  0.93761544438E+02 0.  0.
         13    1    3    3    0    0 -0.65868375870E+01 -0.17191736136E+02 -0.58323234868E+02  0.61160061399E+02  0.10566000000E+00 0.  1.
         22    1    1    0    0    0  0.68459791340E+01  0.14866409596E+02  0.21893598219E+02  0.27335091138E+02  0.00000000000E+00 0.  1.
</event>
<event>
 5    1  0.6903325E-004  0.9118800E+02  0.7818608E-02  0.1130116E+00
         25   -1    0    0    0    0  0.00000000000E+00  0.00000000000E+00  0.99999998245E-14  0.12500000000E+03  0.12500000000E+03 0.  0.
        -13    1    3    3    0    0 -0.13432642922E+02  0.23549469908E+01 -0.24330460559E+02  0.27892008645E+02  0.10566000000E+00 0.  1.
         23    2    1    0    0    0 -0.43931414402E+00  0.35334734738E+02  0.19798100249E+02  0.84494429403E+02  0.74152595037E+02 0.  0.
         13    1    3    3    0    0  0.12993328778E+02  0.32979787747E+02  0.44128560808E+02  0.56602420758E+02  0.10566000000E+00 0. -1.
         22    1    1    0    0    0  0.43931414402E+00 -0.35334734738E+02 -0.19798100249E+02  0.40505570597E+02  0.00000000000E+00 0. -1.
</event>
<event>
 5    1  0.6903325E-004  0.9118800E+02  0.7818608E-02  0.1130116E+00
         25   -1    0    0    0    0  0.00000000000E+00  0.00000000000E+00  0.99999998245E-14  0.12500000000E+03  0.12500000000E+03 0.  0.
        -13    1    3    3    0    0 -0.38611801908E+01 -0.25727234254E+02  0.40027278987E+02  0.47738805200E+02  0.10566000000E+00 0.  1.
         23    2    1    0    0    0  0.23466709652E+02 -0.15312705633E+02  0.41636625271E+00  0.96976103474E+02  0.92838708890E+02 0.  0.
         13    1    3    3    0    0  0.27327889842E+02  0.10414528621E+02 -0.39610912734E+02  0.49237298274E+02  0.10566000000E+00 0. -1.
         22    1    1    0    0    0 -0.23466709652E+02  0.15312705633E+02 -0.41636625271E+00  0.28023896526E+02  0.00000000000E+00 0. -1.
</event>
<event>
 5    1  0.6903325E-004  0.9118800E+02  0.7818608E-02  0.1130116E+00
         25   -1    0    0    0    0  0.00000000000E+00  0.00000000000E+00  0.99999998245E-14  0.12500000000E+03  0.12500000000E+03 0.  0.
        -13    1    3    3    0    0 -0.49258478489E+02 -0.34024022028E+02 -0.13514794012E+02  0.61373386734E+02  0.10566000000E+00 0.  1.
         23    2    1    0    0    0 -0.27921803487E+02 -0.94573857230E+01 -0.86736121780E+01  0.94270522248E+02  0.89121437164E+02 0.  0.
         13    1    3    3    0    0  0.21336675002E+02  0.24566636305E+02  0.48411818340E+01  0.32897135514E+02  0.10566000000E+00 0. -1.
         22    1    1    0    0    0  0.27921803487E+02  0.94573857230E+01  0.86736121780E+01  0.30729477752E+02  0.00000000000E+00 0.  1.
</event>
<event>
 5    1  0.6903325E-004  0.9118800E+02  0.7818608E-02  0.1130116E+00
         25   -1    0    0    0    0  0.00000000000E+00  0.00000000000E+00  0.99999998245E-14  0.12500000000E+03  0.12500000000E+03 0.  0.
        -13    1    3    3    0    0 -0.40829656159E+02  0.37435512068E+02  0.26950264051E+02  0.61601999012E+02  0.10566000000E+00 0.  1.
         23    2    1    0    0    0 -0.17883536240E+02  0.13217213553E+02  0.18638408660E+02  0.95984385584E+02  0.91493695936E+02 0.  0.
         13    1    3    3    0    0  0.22946119919E+02 -0.24218298515E+02 -0.83118553905E+01  0.34382386572E+02  0.10566000000E+00 0. -1.
         22    1    1    0    0    0  0.17883536240E+02 -0.13217213553E+02 -0.18638408660E+02  0.29015614416E+02  0.00000000000E+00 0.  1.
</event>
<event>
 5    1  0.6903325E-004  0.9118800E+02  0.7818608E-02  0.1130116E+00
         25   -1    0    0    0    0  0.00000000000E+00  0.00000000000E+00  0.99999998245E-14  0.12500000000E+03  0.12500000000E+03 0.  0.
        -13    1    3    3    0    0 -0.14393157544E+02  0.25357395582E+02  0.18111547618E+02  0.34324915381E+02  0.10566000000E+00 0. -1.
         23    2    1    0    0    0 -0.13730667319E+02 -0.18928981206E+02 -0.21117701889E+02  0.93491352178E+02  0.88021804369E+02 0.  0.
         13    1    3    3    0    0  0.66249022565E+00 -0.44286376787E+02 -0.39229249507E+02  0.59166436796E+02  0.10566000000E+00 0.  1.
         22    1    1    0    0    0  0.13730667319E+02  0.18928981206E+02  0.21117701889E+02  0.31508647822E+02  0.00000000000E+00 0.  1.
</event>
<event>
 5    1  0.6903325E-004  0.9118800E+02  0.7818608E-02  0.1130116E+00
         25   -1    0    0    0    0  0.00000000000E+00  0.00000000000E+00  0.99999998245E-14  0.12500000000E+03  0.12500000000E+03 0.  0.
        -13    1    3    3    0    0 -0.18373662881E+02 -0.30577542142E+02 -0.50087987909E+01  0.36023281367E+02  0.10566000000E+00 0.  1.
         23    2    1    0    0    0 -0.57953679259E+01  0.27766781552E+02 -0.71537216095E+01  0.95746689418E+02  0.91168373653E+02 0.  0.
         13    1    3    3    0    0  0.12578294955E+02  0.58344323694E+02 -0.21449228185E+01  0.59723408051E+02  0.10566000000E+00 0. -1.
         22    1    1    0    0    0  0.57953679259E+01 -0.27766781552E+02  0.71537216095E+01  0.29253310582E+02  0.00000000000E+00 0. -1.
</event>
<event>
 5    1  0.6903325E-004  0.9118800E+02  0.7818608E-02  0.1130116E+00
         25   -1    0    0    0    0  0.00000000000E+00  0.00000000000E+00  0.99999998245E-14  0.12500000000E+03  0.12500000000E+03 0.  0.
        -13    1    3    3    0    0  0.69767574911E+01  0.78554624946E+01  0.37593628236E+02  0.39034286007E+02  0.10566000000E+00 0. -1.
         23    2    1    0    0    0  0.26998730280E+02 -0.14681708559E+02 -0.75830209744E+01  0.93345834239E+02  0.87814910805E+02 0.  0.
         13    1    3    3    0    0  0.20021972789E+02 -0.22537171054E+02 -0.45176649210E+02  0.54311548232E+02  0.10566000000E+00 0.  1.
         22    1    1    0    0    0 -0.26998730280E+02  0.14681708559E+02  0.75830209744E+01  0.31654165761E+02  0.00000000000E+00 0.  1.
</event>
<event>
 5    1  0.6903325E-004  0.9118800E+02  0.7818608E-02  0.1130116E+00
         25   -1    0    0    0    0  0.00000000000E+00  0.00000000000E+00  0.99999998245E-14  0.12500000000E+03  0.12500000000E+03 0.  0.
        -13    1    3    3    0    0 -0.23135174582E+02 -0.28464646716E+02  0.11239005876E+02  0.38364030455E+02  0.10566000000E+00 0.  1.
         23    2    1    0    0    0  0.22122693040E+02  0.55319259623E+01  0.18766897577E+02  0.95466761152E+02  0.90783755639E+02 0.  0.
         13    1    3    3    0    0  0.45257867622E+02  0.33996572678E+02  0.75278917008E+01  0.57102730697E+02  0.10566000000E+00 0. -1.
         22    1    1    0    0    0 -0.22122693040E+02 -0.55319259623E+01 -0.18766897577E+02  0.29533238848E+02  0.00000000000E+00 0. -1.
</event>
<event>
 5    1  0.6903325E-004  0.9118800E+02  0.7818608E-02  0.1130116E+00
         25   -1    0    0    0    0  0.00000000000E+00  0.00000000000E+00  0.99999998245E-14  0.12500000000E+03  0.12500000000E+03 0.  0.
        -13    1    3    3    0    0 -0.20991239531E+02  0.23057786266E+01  0.57437662706E+02  0.61196772900E+02  0.10566000000E+00 0. -1.
         23    2    1    0    0    0 -0.23832212022E+01  0.62186125601E+01  0.27826396375E+02  0.96387778474E+02  0.92043167147E+02 0.  0.
         13    1    3    3    0    0  0.18608018329E+02  0.39128339335E+01 -0.29611266332E+02  0.35191005574E+02  0.10566000000E+00 0.  1.
         22    1    1    0    0    0  0.23832212022E+01 -0.62186125601E+01 -0.27826396375E+02  0.28612221526E+02  0.00000000000E+00 0. -1.
</event>
<event>
 5    1  0.6903325E-004  0.9118800E+02  0.7818608E-02  0.1130116E+00
         25   -1    0    0    0    0  0.00000000000E+00  0.00000000000E+00  0.99999998245E-14  0.12500000000E+03  0.12500000000E+03 0.  0.
        -13    1    3    3    0    0 -0.14373191183E+02 -0.31831793642E+02  0.75618218322E+01  0.35735752752E+02  0.10566000000E+00 0. -1.
         23    2    1    0    0    0 -0.16308638507E+02  0.26135611817E+02  0.49848746790E+01  0.93792775347E+02  0.88448820437E+02 0.  0.
         13    1    3    3    0    0 -0.19354473234E+01  0.57967405459E+02 -0.25769471532E+01  0.58057022595E+02  0.10566000000E+00 0.  1.
         22    1    1    0    0    0  0.16308638507E+02 -0.26135611817E+02 -0.49848746790E+01  0.31207224653E+02  0.00000000000E+00 0.  1.
</event>
<event>
 5    1  0.6903325E-004  0.9118800E+02  0.7818608E-02  0.1130116E+00
         25   -1    0    0    0    0  0.00000000000E+00  0.00000000000E+00  0.99999998245E-14  0.12500000000E+03  0.12500000000E+03 0.  0.
        -13    1    3    3    0    0 -0.28924891053E+02  0.12795850930E+02  0.35671570142E+02  0.47674471196E+02  0.10566000000E+00 0. -1.
         23    2    1    0    0    0  0.12932608171E+02  0.22203112253E+02  0.13978458479E+02  0.95748882940E+02  0.91171381119E+02 0.  0.
         13    1    3    3    0    0  0.41857499224E+02  0.94072613229E+01 -0.21693111663E+02  0.48074411744E+02  0.10566000000E+00 0.  1.
         22    1    1    0    0    0 -0.12932608171E+02 -0.22203112253E+02 -0.13978458479E+02  0.29251117060E+02  0.00000000000E+00 0.  1.
</event>
<event>
 5    1  0.6903325E-004  0.9118800E+02  0.7818608E-02  0.1130116E+00
         25   -1    0    0    0    0  0.00000000000E+00  0.00000000000E+00  0.99999998245E-14  0.12500000000E+03  0.12500000000E+03 0.  0.
        -13    1    3    3    0    0  0.51404430835E+02  0.24863749727E+02 -0.12085335384E+02  0.58366840375E+02  0.10566000000E+00 0. -1.
         23    2    1    0    0    0  0.16629037928E+02  0.25681324961E+02 -0.34249603376E+01  0.94213871509E+02  0.89041944482E+02 0.  0.
         13    1    3    3    0    0 -0.34775392907E+02  0.81757523377E+00  0.86603750468E+01  0.35847031134E+02  0.10566000000E+00 0.  1.
         22    1    1    0    0    0 -0.16629037928E+02 -0.25681324961E+02  0.34249603376E+01  0.30786128491E+02  0.00000000000E+00 0. -1.
</event>
<event>
 5    1  0.6903325E-004  0.9118800E+02  0.7818608E-02  0.1130116E+00
         25   -1    0    0    0    0  0.00000000000E+00  0.00000000000E+00  0.99999998245E-14  0.12500000000E+03  0.12500000000E+03 0.  0.
        -13    1    3    3    0    0 -0.30275174024E+01 -0.28116349593E+02 -0.17397500518E+02  0.33202095783E+02  0.10566000000E+00 0. -1.
         23    2    1    0    0    0  0.54341445216E+00  0.25099557504E+02  0.15143428962E+02  0.95680952831E+02  0.91078198312E+02 0.  0.
         13    1    3    3    0    0  0.35709318545E+01  0.53215907097E+02  0.32540929480E+02  0.62478857048E+02  0.10566000000E+00 0.  1.
         22    1    1    0    0    0 -0.54341445216E+00 -0.25099557504E+02 -0.15143428962E+02  0.29319047169E+02  0.00000000000E+00 0.  1.
</event>
<event>
 5    1  0.6903325E-004  0.9118800E+02  0.7818608E-02  0.1130116E+00
         25   -1    0    0    0    0  0.00000000000E+00  0.00000000000E+00  0.99999998245E-14  0.12500000000E+03  0.12500000000E+03 0.  0.
        -13    1    3    3    0    0  0.28390147240E+02  0.38902657192E+02  0.35275838245E+02  0.59697681068E+02  0.10566000000E+00 0.  1.
         23    2    1    0    0    0  0.19052109842E+02  0.14338041970E+02  0.30297372145E+02  0.86444934239E+02  0.77370753904E+02 0.  0.
         13    1    3    3    0    0 -0.93380373977E+01 -0.24564615222E+02 -0.49784661003E+01  0.26747253171E+02  0.10566000000E+00 0. -1.
         22    1    1    0    0    0 -0.19052109842E+02 -0.14338041970E+02 -0.30297372145E+02  0.38555065761E+02  0.00000000000E+00 0.  1.
</event>
<event>
 5    1  0.6903325E-004  0.9118800E+02  0.7818608E-02  0.1130116E+00
         25   -1    0    0    0    0  0.00000000000E+00  0.00000000000E+00  0.99999998245E-14  0.12500000000E+03  0.12500000000E+03 0.  0.
        -13    1    3    3    0    0 -0.50223585106E+02 -0.62801388826E+01 -0.21969086201E+02  0.55176993012E+02  0.10566000000E+00 0. -1.
         23    2    1    0    0    0 -0.19902437024E+02 -0.20719726884E+02  0.16307089710E+01  0.96223737328E+02  0.91820119429E+02 0.  0.
         13    1    3    3    0    0  0.30321148083E+02 -0.14439588002E+02  0.23599795172E+02  0.41046744316E+02  0.10566000000E+00 0.  1.
         22    1    1    0    0    0  0.19902437024E+02  0.20719726884E+02 -0.16307089710E+01  0.28776262672E+02  0.00000000000E+00 0. -1.
</event>
<event>
 5    1  0.6903325E-004  0.9118800E+02  0.7818608E-02  0.1130116E+00
         25   -1    0    0    0    0  0.00000000000E+00  0.00000000000E+00  0.99999998245E-14  0.12500000000E+03  0.12500000000E+03 0.  0.
        -13    1    3    3    0    0  0.27294744220E+02 -0.14012355111E+02 -0.41542339014E+02  0.51644227679E+02  0.10566000000E+00 0. -1.
         23    2    1    0    0    0  0.34096081751E+02 -0.22994725158E+02 -0.13744776637E+02  0.81638507167E+02  0.69170996753E+02 0.  0.
         13    1    3    3    0    0  0.68013375316E+01 -0.89823700472E+01  0.27797562377E+02  0.29994279488E+02  0.10566000000E+00 0.  1.
         22    1    1    0    0    0 -0.34096081751E+02  0.22994725158E+02  0.13744776637E+02  0.43361492833E+02  0.00000000000E+00 0. -1.
</event>
<event>
 5    1  0.6903325E-004  0.9118800E+02  0.7818608E-02  0.1130116E+00
         25   -1    0    0    0    0  0.00000000000E+00  0.00000000000E+00  0.99999998245E-14  0.12500000000E+03  0.12500000000E+03 0.  0.
        -13    1    3    3    0    0 -0.26431235359E+02 -0.17360616996E+02  0.31495984431E+02  0.44631932788E+02  0.10566000000E+00 0.  1.
         23    2    1    0    0    0 -0.24320439822E+02  0.18079004032E+02 -0.35138153124E+01  0.94492933966E+02  0.89432843473E+02 0.  0.
         13    1    3    3    0    0  0.21107955369E+01  0.35439621028E+02 -0.35009799743E+02  0.49861001178E+02  0.10566000000E+00 0. -1.
         22    1    1    0    0    0  0.24320439822E+02 -0.18079004032E+02  0.35138153124E+01  0.30507066034E+02  0.00000000000E+00 0. -1.
</event>
<event>
 5    1  0.6903325E-004  0.9118800E+02  0.7818608E-02  0.1130116E+00
         25   -1    0    0    0    0  0.00000000000E+00  0.00000000000E+00  0.99999998245E-14  0.12500000000E+03  0.12500000000E+03 0.  0.
        -13    1    3    3    0    0  0.24549468419E+02  0.27003813540E+02 -0.21189851714E+02  0.42200750290E+02  0.10566000000E+00 0.  1.
         23    2    1    0    0    0  0.13814202891E+02 -0.24086531601E+02 -0.89993345457E+01  0.95811282516E+02  0.91256893597E+02 0.  0.
         13    1    3    3    0    0 -0.10735265528E+02 -0.51090345142E+02  0.12190517168E+02  0.53610532226E+02  0.10566000000E+00 0. -1.
         22    1    1    0    0    0 -0.13814202891E+02  0.24086531601E+02  0.89993345457E+01  0.29188717484E+02  0.00000000000E+00 0. -1.
</event>
<event>
 5    1  0.6903325E-004  0.9118800E+02  0.7818608E-02  0.1130116E+00
         25   -1    0    0    0    0  0.00000000000E+00  0.00000000000E+00  0.99999998245E-14  0.12500000000E+03  0.12500000000E+03 0.  0.
        -13    1    3    3    0    0 -0.17757743905E+02  0.12475562024E+02  0.54522151977E+02  0.58682649366E+02  0.10566000000E+00 0. -1.
         23    2    1    0    0    0 -0.16168918760E+02  0.91785411058E+01  0.90143236868E+01  0.10433753204E+03  0.10227112501E+03 0.  0.
         13    1    3    3    0    0  0.15888251452E+01 -0.32970209181E+01 -0.45507828290E+02  0.45654882674E+02  0.10566000000E+00 0.  1.
         22    1    1    0    0    0  0.16168918760E+02 -0.91785411058E+01 -0.90143236868E+01  0.20662467960E+02  0.00000000000E+00 0. -1.
</event>
<event>
 5    1  0.6903325E-004  0.9118800E+02  0.7818608E-02  0.1130116E+00
         25   -1    0    0    0    0  0.00000000000E+00  0.00000000000E+00  0.99999998245E-14  0.12500000000E+03  0.12500000000E+03 0.  0.
        -13    1    3    3    0    0 -0.28869647345E+02 -0.41815408597E+00 -0.27168941616E+02  0.39645856571E+02  0.10566000000E+00 0.  1.
         23    2    1    0    0    0  0.22311466609E+01 -0.30363470909E+02  0.58486463889E+01  0.93997983200E+02  0.88738355856E+02 0.  0.
         13    1    3    3    0    0  0.31100794006E+02 -0.29945316823E+02  0.33017588005E+02  0.54352126629E+02  0.10566000000E+00 0. -1.
         22    1    1    0    0    0 -0.22311466609E+01  0.30363470909E+02 -0.58486463889E+01  0.31002016800E+02  0.00000000000E+00 0. -1.
</event>
<event>
 5    1  0.6903325E-004  0.9118800E+02  0.7818608E-02  0.1130116E+00
         25   -1    0    0    0    0  0.00000000000E+00  0.00000000000E+00  0.99999998245E-14  0.12500000000E+03  0.12500000000E+03 0.  0.
        -13    1    3    3    0    0 -0.28501427980E+02  0.13126445210E+02  0.17096557181E+02  0.35734274754E+02  0.10566000000E+00 0. -1.
         23    2    1    0    0    0  0.10353237922E+02 -0.24297652045E+02 -0.10798335606E+02  0.96466344745E+02  0.92149802963E+02 0.  0.
         13    1    3    3    0    0  0.38854665901E+02 -0.37424097255E+02 -0.27894892787E+02  0.60732069990E+02  0.10566000000E+00 0.  1.
         22    1    1    0    0    0 -0.10353237922E+02  0.24297652045E+02  0.10798335606E+02  0.28533655255E+02  0.00000000000E+00 0.  1.
</event>
<event>
 5    1  0.6903325E-004  0.9118800E+02  0.7818608E-02  0.1130116E+00
         25   -1    0    0    0    0  0.00000000000E+00  0.00000000000E+00  0.99999998245E-14  0.12500000000E+03  0.12500000000E+03 0.  0.
        -13    1    3    3    0    0 -0.26747044919E+02  0.19232078379E+02 -0.44238720181E+01  0.33239420246E+02  0.10566000000E+00 0.  1.
         23    2    1    0    0    0  0.17206047053E+02 -0.22729189476E+02  0.82684521523E+01  0.95317826723E+02  0.90578455942E+02 0.  0.
         13    1    3    3    0    0  0.43953091972E+02 -0.41961267854E+02  0.12692324170E+02  0.62078406477E+02  0.10566000000E+00 0. -1.
         22    1    1    0    0    0 -0.17206047053E+02  0.22729189476E+02 -0.82684521523E+01  0.29682173277E+02  0.00000000000E+00 0. -1.
</event>
<event>
 5    1  0.6903325E-004  0.9118800E+02  0.7818608E-02  0.1130116E+00
         25   -1    0    0    0    0  0.00000000000E+00  0.00000000000E+00  0.99999998245E-14  0.12500000000E+03  0.12500000000E+03 0.  0.
        -13    1    3    3    0    0 -0.33407928059E+02 -0.49809361208E+01  0.41914867695E+02  0.53830908220E+02  0.10566000000E+00 0.  1.
         23    2    1    0    0    0 -0.98559620515E+01  0.20533390174E+02  0.15747153746E+02  0.97310056860E+02  0.93287267164E+02 0.  0.
         13    1    3    3    0    0  0.23551966007E+02  0.25514326295E+02 -0.26167713949E+02  0.43479148640E+02  0.10566000000E+00 0. -1.
         22    1    1    0    0    0  0.98559620515E+01 -0.20533390174E+02 -0.15747153746E+02  0.27689943140E+02  0.00000000000E+00 0.  1.
</event>
<event>
 5    1  0.6903325E-004  0.9118800E+02  0.7818608E-02  0.1130116E+00
         25   -1    0    0    0    0  0.00000000000E+00  0.00000000000E+00  0.99999998245E-14  0.12500000000E+03  0.12500000000E+03 0.  0.
        -13    1    3    3    0    0 -0.20056352024E+02  0.34190765393E+02 -0.10653588233E+01  0.39653648611E+02  0.10566000000E+00 0.  1.
         23    2    1    0    0    0  0.19619227996E+01 -0.19447999465E+01  0.31705179274E+02  0.93174699048E+02  0.87570969858E+02 0.  0.
         13    1    3    3    0    0  0.22018274823E+02 -0.36135565340E+02  0.32770538098E+02  0.53521050437E+02  0.10566000000E+00 0. -1.
         22    1    1    0    0    0 -0.19619227996E+01  0.19447999465E+01 -0.31705179274E+02  0.31825300952E+02  0.00000000000E+00 0.  1.
</event>
<event>
 5    1  0.6903325E-004  0.9118800E+02  0.7818608E-02  0.1130116E+00
         25   -1    0    0    0    0  0.00000000000E+00  0.00000000000E+00  0.99999998245E-14  0.12500000000E+03  0.12500000000E+03 0.  0.
        -13    1    3    3    0    0  0.10209330278E+02 -0.17504221168E+02 -0.56999095420E+02  0.60494100755E+02  0.10566000000E+00 0.  1.
         23    2    1    0    0    0 -0.43622622851E+01 -0.34829002684E+01 -0.31353307551E+02  0.93153652943E+02  0.87540923206E+02 0.  0.
         13    1    3    3    0    0 -0.14571592563E+02  0.14021320900E+02  0.25645787869E+02  0.32659552188E+02  0.10566000000E+00 0. -1.
         22    1    1    0    0    0  0.43622622851E+01  0.34829002684E+01  0.31353307551E+02  0.31846347057E+02  0.00000000000E+00 0.  1.
</event>
<event>
 5    1  0.6903325E-004  0.9118800E+02  0.7818608E-02  0.1130116E+00
         25   -1    0    0    0    0  0.00000000000E+00  0.00000000000E+00  0.99999998245E-14  0.12500000000E+03  0.12500000000E+03 0.  0.
        -13    1    3    3    0    0 -0.15239509662E+02 -0.56651024674E+02 -0.11174772260E+01  0.58675728975E+02  0.10566000000E+00 0. -1.
         23    2    1    0    0    0 -0.11802029513E+02 -0.24034755405E+02  0.13994968677E+02  0.94787146506E+02  0.89843122310E+02 0.  0.
         13    1    3    3    0    0  0.34374801490E+01  0.32616269270E+02  0.15112445903E+02  0.36111417530E+02  0.10566000000E+00 0.  1.
         22    1    1    0    0    0  0.11802029513E+02  0.24034755405E+02 -0.13994968677E+02  0.30212853494E+02  0.00000000000E+00 0. -1.
</event>
<event>
 5    1  0.6903325E-004  0.9118800E+02  0.7818608E-02  0.1130116E+00
         25   -1    0    0    0    0  0.00000000000E+00  0.00000000000E+00  0.99999998245E-14  0.12500000000E+03  0.12500000000E+03 0.  0.
        -13    1    3    3    0    0 -0.50928613016E+02  0.46710197721E+01 -0.31457559801E+02  0.60042745458E+02  0.10566000000E+00 0.  1.
         23    2    1    0    0    0 -0.17547749594E+02 -0.47292555009E+01 -0.22904426413E+02  0.95761290679E+02  0.91188391092E+02 0.  0.
         13    1    3    3    0    0  0.33380863422E+02 -0.94002752730E+01  0.85531333881E+01  0.35718545222E+02  0.10566000000E+00 0. -1.
         22    1    1    0    0    0  0.17547749594E+02  0.47292555009E+01  0.22904426413E+02  0.29238709321E+02  0.00000000000E+00 0.  1.
</event>
<event>
 5    1  0.6903325E-004  0.9118800E+02  0.7818608E-02  0.1130116E+00
         25   -1    0    0    0    0  0.00000000000E+00  0.00000000000E+00  0.99999998245E-14  0.12500000000E+03  0.12500000000E+03 0.  0.
        -13    1    3    3    0    0  0.34218676664E+02 -0.12373141258E+02  0.15881655567E+01  0.36421777704E+02  0.10566000000E+00 0. -1.
         23    2    1    0    0    0 -0.11231474471E+02  0.22314604994E+02 -0.14881771900E+02  0.95921575873E+02  0.91407844128E+02 0.  0.
         13    1    3    3    0    0 -0.45450151135E+02  0.34687746253E+02 -0.16469937457E+02  0.59499798169E+02  0.10566000000E+00 0.  1.
         22    1    1    0    0    0  0.11231474471E+02 -0.22314604994E+02  0.14881771900E+02  0.29078424127E+02  0.00000000000E+00 0.  1.
</event>
<event>
 5    1  0.6903325E-004  0.9118800E+02  0.7818608E-02  0.1130116E+00
         25   -1    0    0    0    0  0.00000000000E+00  0.00000000000E+00  0.99999998245E-14  0.12500000000E+03  0.12500000000E+03 0.  0.
        -13    1    3    3    0    0  0.45324426902E+02 -0.59822546238E+01 -0.64151799997E+01  0.46165536310E+02  0.10566000000E+00 0. -1.
         23    2    1    0    0    0 -0.93955658315E+01 -0.19536060431E+02 -0.58678883845E+01  0.10254189615E+03  0.10005235648E+03 0.  0.
         13    1    3    3    0    0 -0.54719992733E+02 -0.13553805807E+02  0.54729161518E+00  0.56376359839E+02  0.10566000000E+00 0.  1.
         22    1    1    0    0    0  0.93955658315E+01  0.19536060431E+02  0.58678883845E+01  0.22458103851E+02  0.00000000000E+00 0.  1.
</event>
<event>
 5    1  0.6903325E-004  0.9118800E+02  0.7818608E-02  0.1130116E+00
         25   -1    0    0    0    0  0.00000000000E+00  0.00000000000E+00  0.99999998245E-14  0.12500000000E+03  0.12500000000E+03 0.  0.
        -13    1    3    3    0    0 -0.39009607278E+02  0.87441122033E+01 -0.11428005905E+01  0.39994076004E+02  0.10566000000E+00 0.  1.
         23    2    1    0    0    0  0.23470407649E+01 -0.11352757942E+02 -0.29009124380E+02  0.93760233507E+02  0.88402818828E+02 0.  0.
         13    1    3    3    0    0  0.41356648043E+02 -0.20096870146E+02 -0.27866323790E+02  0.53766157502E+02  0.10566000000E+00 0. -1.
         22    1    1    0    0    0 -0.23470407649E+01  0.11352757942E+02  0.29009124380E+02  0.31239766493E+02  0.00000000000E+00 0.  1.
</event>
<event>
 5    1  0.6903325E-004  0.9118800E+02  0.7818608E-02  0.1130116E+00
         25   -1    0    0    0    0  0.00000000000E+00  0.00000000000E+00  0.99999998245E-14  0.12500000000E+03  0.12500000000E+03 0.  0.
        -13    1    3    3    0    0 -0.47661668943E+02  0.45683481781E+01  0.37532752315E+02  0.60837678719E+02  0.10566000000E+00 0. -1.
         23    2    1    0    0    0 -0.19374136646E+02  0.11910417763E+02  0.18105540318E+02  0.95930672311E+02  0.91420282638E+02 0.  0.
         13    1    3    3    0    0  0.28287532297E+02  0.73420695853E+01 -0.19427211996E+02  0.35092993592E+02  0.10566000000E+00 0.  1.
         22    1    1    0    0    0  0.19374136646E+02 -0.11910417763E+02 -0.18105540318E+02  0.29069327689E+02  0.00000000000E+00 0. -1.
</event>
<event>
 5    1  0.6903325E-004  0.9118800E+02  0.7818608E-02  0.1130116E+00
         25   -1    0    0    0    0  0.00000000000E+00  0.00000000000E+00  0.99999998245E-14  0.12500000000E+03  0.12500000000E+03 0.  0.
        -13    1    3    3    0    0  0.65668817624E+01 -0.36803080151E+02  0.99541800049E+00  0.37397762844E+02  0.10566000000E+00 0.  1.
         23    2    1    0    0    0  0.45556467414E+01 -0.17560037891E+02  0.40077970227E+02  0.81007358053E+02  0.68020875570E+02 0.  0.
         13    1    3    3    0    0 -0.20112350210E+01  0.19243042260E+02  0.39082552226E+02  0.43609595209E+02  0.10566000000E+00 0. -1.
         22    1    1    0    0    0 -0.45556467414E+01  0.17560037891E+02 -0.40077970227E+02  0.43992641947E+02  0.00000000000E+00 0. -1.
</event>
<event>
 5    1  0.6903325E-004  0.9118800E+02  0.7818608E-02  0.1130116E+00
         25   -1    0    0    0    0  0.00000000000E+00  0.00000000000E+00  0.99999998245E-14  0.12500000000E+03  0.12500000000E+03 0.  0.
        -13    1    3    3    0    0  0.12914699445E+01 -0.27743178783E+02  0.24309102382E+02  0.36909287263E+02  0.10566000000E+00 0.  1.
         23    2    1    0    0    0 -0.19496078698E+02  0.21047294720E+02 -0.22503209610E+01  0.96222410732E+02  0.91818313441E+02 0.  0.
         13    1    3    3    0    0 -0.20787548642E+02  0.48790473504E+02 -0.26559423343E+02  0.59313123469E+02  0.10566000000E+00 0. -1.
         22    1    1    0    0    0  0.19496078698E+02 -0.21047294720E+02  0.22503209610E+01  0.28777589268E+02  0.00000000000E+00 0. -1.
</event>
<event>
 5    1  0.6903325E-004  0.9118800E+02  0.7818608E-02  0.1130116E+00
         25   -1    0    0    0    0  0.00000000000E+00  0.00000000000E+00  0.99999998245E-14  0.12500000000E+03  0.12500000000E+03 0.  0.
        -13    1    3    3    0    0 -0.12541910565E+02  0.32552284867E+02  0.23692620737E+02  0.42169920703E+02  0.10566000000E+00 0. -1.
         23    2    1    0    0    0  0.28416689325E+02  0.89966769855E+01 -0.36442931845E+00  0.95190920214E+02  0.90403152895E+02 0.  0.
         13    1    3    3    0    0  0.40958599890E+02 -0.23555607882E+02 -0.24057050056E+02  0.53020999510E+02  0.10566000000E+00 0.  1.
         22    1    1    0    0    0 -0.28416689325E+02 -0.89966769855E+01  0.36442931845E+00  0.29809079786E+02  0.00000000000E+00 0.  1.
</event>
<event>
 5    1  0.6903325E-004  0.9118800E+02  0.7818608E-02  0.1130116E+00
         25   -1    0    0    0    0  0.00000000000E+00  0.00000000000E+00  0.99999998245E-14  0.12500000000E+03  0.12500000000E+03 0.  0.
        -13    1    3    3    0    0 -0.27964770443E+02 -0.11183996866E+01  0.23190228153E+02  0.36346623634E+02  0.10566000000E+00 0. -1.
         23    2    1    0    0    0  0.28755063840E+02 -0.17641497867E+01  0.66360769104E+01  0.95436450861E+02  0.90742011854E+02 0.  0.
         13    1    3    3    0    0  0.56719834283E+02 -0.64575010007E+00 -0.16554151243E+02  0.59089827227E+02  0.10566000000E+00 0.  1.
         22    1    1    0    0    0 -0.28755063840E+02  0.17641497867E+01 -0.66360769104E+01  0.29563549139E+02  0.00000000000E+00 0.  1.
</event>
<event>
 5    1  0.6903325E-004  0.9118800E+02  0.7818608E-02  0.1130116E+00
         25   -1    0    0    0    0  0.00000000000E+00  0.00000000000E+00  0.99999998245E-14  0.12500000000E+03  0.12500000000E+03 0.  0.
        -13    1    3    3    0    0 -0.20000593985E+02 -0.19752881418E+02 -0.24784398742E+02  0.37476361471E+02  0.10566000000E+00 0.  1.
         23    2    1    0    0    0  0.76906038320E+01  0.13006055164E+02  0.20291956568E+02  0.99700467206E+02  0.96437113196E+02 0.  0.
         13    1    3    3    0    0  0.27691197817E+02  0.32758936582E+02  0.45076355310E+02  0.62224105735E+02  0.10566000000E+00 0. -1.
         22    1    1    0    0    0 -0.76906038320E+01 -0.13006055164E+02 -0.20291956568E+02  0.25299532794E+02  0.00000000000E+00 0. -1.
</event>
<event>
 5    1  0.6903325E-004  0.9118800E+02  0.7818608E-02  0.1130116E+00
         25   -1    0    0    0    0  0.00000000000E+00  0.00000000000E+00  0.99999998245E-14  0.12500000000E+03  0.12500000000E+03 0.  0.
        -13    1    3    3    0    0  0.30320525702E+01  0.33542737250E+02 -0.61762662760E+01  0.34241290779E+02  0.10566000000E+00 0.  1.
         23    2    1    0    0    0 -0.24950499715E+02 -0.18478993881E+02  0.20619451969E+01  0.93883247777E+02  0.88576588015E+02 0.  0.
         13    1    3    3    0    0 -0.27982552285E+02 -0.52021731132E+02  0.82382114729E+01  0.59641956999E+02  0.10566000000E+00 0. -1.
         22    1    1    0    0    0  0.24950499715E+02  0.18478993881E+02 -0.20619451969E+01  0.31116752223E+02  0.00000000000E+00 0. -1.
</event>
<event>
 5    1  0.6903325E-004  0.9118800E+02  0.7818608E-02  0.1130116E+00
         25   -1    0    0    0    0  0.00000000000E+00  0.00000000000E+00  0.99999998245E-14  0.12500000000E+03  0.12500000000E+03 0.  0.
        -13    1    3    3    0    0 -0.61478765845E+02 -0.14763049323E+01  0.39596759876E+01  0.61623926555E+02  0.10566000000E+00 0. -1.
         23    2    1    0    0    0 -0.28137635680E+02  0.31843138065E+01 -0.44785129659E+01  0.96330792225E+02  0.91965743928E+02 0.  0.
         13    1    3    3    0    0  0.33341130166E+02  0.46606187388E+01 -0.84381889535E+01  0.34706865670E+02  0.10566000000E+00 0.  1.
         22    1    1    0    0    0  0.28137635680E+02 -0.31843138065E+01  0.44785129659E+01  0.28669207775E+02  0.00000000000E+00 0. -1.
</event>
<event>
 5    1  0.6903325E-004  0.9118800E+02  0.7818608E-02  0.1130116E+00
         25   -1    0    0    0    0  0.00000000000E+00  0.00000000000E+00  0.99999998245E-14  0.12500000000E+03  0.12500000000E+03 0.  0.
        -13    1    3    3    0    0  0.40303774086E+02 -0.17286762448E+02  0.24400993324E+02  0.50186113625E+02  0.10566000000E+00 0. -1.
         23    2    1    0    0    0 -0.30212164516E+01 -0.25319186169E+02  0.15562577261E+02  0.95127223964E+02  0.90315037457E+02 0.  0.
         13    1    3    3    0    0 -0.43324990538E+02 -0.80324237214E+01 -0.88384160631E+01  0.44941110339E+02  0.10566000000E+00 0.  1.
         22    1    1    0    0    0  0.30212164516E+01  0.25319186169E+02 -0.15562577261E+02  0.29872776036E+02  0.00000000000E+00 0. -1.
</event>
<event>
 5    1  0.6903325E-004  0.9118800E+02  0.7818608E-02  0.1130116E+00
         25   -1    0    0    0    0  0.00000000000E+00  0.00000000000E+00  0.99999998245E-14  0.12500000000E+03  0.12500000000E+03 0.  0.
        -13    1    3    3    0    0  0.46798508118E+02 -0.25000165950E+02  0.24756026946E+02  0.58548959801E+02  0.10566000000E+00 0. -1.
         23    2    1    0    0    0  0.25315433566E+02  0.37366339433E+01  0.12944294645E+02  0.96322685382E+02  0.91954724433E+02 0.  0.
         13    1    3    3    0    0 -0.21483074552E+02  0.28736799893E+02 -0.11811732301E+02  0.37773725581E+02  0.10566000000E+00 0.  1.
         22    1    1    0    0    0 -0.25315433566E+02 -0.37366339433E+01 -0.12944294645E+02  0.28677314618E+02  0.00000000000E+00 0. -1.
</event>
<event>
 5    1  0.6903325E-004  0.9118800E+02  0.7818608E-02  0.1130116E+00
         25   -1    0    0    0    0  0.00000000000E+00  0.00000000000E+00  0.99999998245E-14  0.12500000000E+03  0.12500000000E+03 0.  0.
        -13    1    3    3    0    0  0.25466995789E+02  0.47316542538E+02 -0.30244027429E+02  0.61661458233E+02  0.10566000000E+00 0. -1.
         23    2    1    0    0    0  0.11077524887E+02  0.27308914873E+02 -0.90350553599E+01  0.94175973421E+02  0.88988726001E+02 0.  0.
         13    1    3    3    0    0 -0.14389470901E+02 -0.20007627665E+02  0.21208972070E+02  0.32514515188E+02  0.10566000000E+00 0.  1.
         22    1    1    0    0    0 -0.11077524887E+02 -0.27308914873E+02  0.90350553599E+01  0.30824026579E+02  0.00000000000E+00 0. -1.
</event>
<event>
 5    1  0.6903325E-004  0.9118800E+02  0.7818608E-02  0.1130116E+00
         25   -1    0    0    0    0  0.00000000000E+00  0.00000000000E+00  0.99999998245E-14  0.12500000000E+03  0.12500000000E+03 0.  0.
        -13    1    3    3    0    0  0.37945043624E+02  0.16329785059E+01 -0.18232139575E+02  0.42129740468E+02  0.10566000000E+00 0.  1.
         23    2    1    0    0    0  0.59334506975E+01  0.24789930328E+02  0.16417278517E+02  0.94680476310E+02  0.89694587783E+02 0.  0.
         13    1    3    3    0    0 -0.32011592927E+02  0.23156951822E+02  0.34649418092E+02  0.52550735842E+02  0.10566000000E+00 0. -1.
         22    1    1    0    0    0 -0.59334506975E+01 -0.24789930328E+02 -0.16417278517E+02  0.30319523690E+02  0.00000000000E+00 0. -1.
</event>
<event>
 5    1  0.6903325E-004  0.9118800E+02  0.7818608E-02  0.1130116E+00
         25   -1    0    0    0    0  0.00000000000E+00  0.00000000000E+00  0.99999998245E-14  0.12500000000E+03  0.12500000000E+03 0.  0.
        -13    1    3    3    0    0 -0.15787504256E+02 -0.37469187999E+02 -0.25078688962E+02  0.47771719082E+02  0.10566000000E+00 0.  1.
         23    2    1    0    0    0  0.20007277587E+02 -0.20708154636E+02  0.26961864296E+01  0.96079622303E+02  0.91623717321E+02 0.  0.
         13    1    3    3    0    0  0.35794781843E+02  0.16761033363E+02  0.27774875391E+02  0.48307903221E+02  0.10566000000E+00 0. -1.
         22    1    1    0    0    0 -0.20007277587E+02  0.20708154636E+02 -0.26961864296E+01  0.28920377697E+02  0.00000000000E+00 0. -1.
</event>
<event>
 5    1  0.6903325E-004  0.9118800E+02  0.7818608E-02  0.1130116E+00
         25   -1    0    0    0    0  0.00000000000E+00  0.00000000000E+00  0.99999998245E-14  0.12500000000E+03  0.12500000000E+03 0.  0.
        -13    1    3    3    0    0 -0.32540254407E+02 -0.52054661061E+02  0.83835207090E+01  0.61958457684E+02  0.10566000000E+00 0.  1.
         23    2    1    0    0    0 -0.13213578056E+02 -0.31983363650E+02  0.40181262324E+01  0.90162096305E+02  0.83159630088E+02 0.  0.
         13    1    3    3    0    0  0.19326676351E+02  0.20071297411E+02 -0.43653944766E+01  0.28203638621E+02  0.10566000000E+00 0. -1.
         22    1    1    0    0    0  0.13213578056E+02  0.31983363650E+02 -0.40181262324E+01  0.34837903695E+02  0.00000000000E+00 0.  1.
</event>
<event>
 5    1  0.6903325E-004  0.9118800E+02  0.7818608E-02  0.1130116E+00
         25   -1    0    0    0    0  0.00000000000E+00  0.00000000000E+00  0.99999998245E-14  0.12500000000E+03  0.12500000000E+03 0.  0.
        -13    1    3    3    0    0  0.11094254484E+02 -0.58385664103E+02  0.63296168042E+01  0.59766574841E+02  0.10566000000E+00 0. -1.
         23    2    1    0    0    0 -0.37204196549E+01 -0.25328006748E+02  0.12495855402E+02  0.96513233766E+02  0.92213385371E+02 0.  0.
         13    1    3    3    0    0 -0.14814674139E+02  0.33057657356E+02  0.61662385977E+01  0.36746658925E+02  0.10566000000E+00 0.  1.
         22    1    1    0    0    0  0.37204196549E+01  0.25328006748E+02 -0.12495855402E+02  0.28486766234E+02  0.00000000000E+00 0. -1.
</event>
<event>
 5    1  0.6903325E-004  0.9118800E+02  0.7818608E-02  0.1130116E+00
         25   -1    0    0    0    0  0.00000000000E+00  0.00000000000E+00  0.99999998245E-14  0.12500000000E+03  0.12500000000E+03 0.  0.
        -13    1    3    3    0    0 -0.26274030992E+02  0.41222023396E+02 -0.32493265721E+02  0.58697558711E+02  0.10566000000E+00 0. -1.
         23    2    1    0    0    0 -0.62841068388E+01  0.10264611023E+02 -0.26316070396E+02  0.96062346341E+02  0.91600145116E+02 0.  0.
         13    1    3    3    0    0  0.19989924153E+02 -0.30957412373E+02  0.61771953251E+01  0.37364787629E+02  0.10566000000E+00 0.  1.
         22    1    1    0    0    0  0.62841068388E+01 -0.10264611023E+02  0.26316070396E+02  0.28937653659E+02  0.00000000000E+00 0. -1.
</event>
<event>
 5    1  0.6903325E-004  0.9118800E+02  0.7818608E-02  0.1130116E+00
         25   -1    0    0    0    0  0.00000000000E+00  0.00000000000E+00  0.99999998245E-14  0.12500000000E+03  0.12500000000E+03 0.  0.
        -13    1    3    3    0    0  0.16437289516E+02  0.25157304946E+02  0.18812058293E+02  0.35453902184E+02  0.10566000000E+00 0. -1.
         23    2    1    0    0    0 -0.23323390377E+02 -0.10921945092E+02 -0.11147057262E+02  0.96937100847E+02  0.92786180069E+02 0.  0.
         13    1    3    3    0    0 -0.39760679893E+02 -0.36079250039E+02 -0.29959115556E+02  0.61483198663E+02  0.10566000000E+00 0.  1.
         22    1    1    0    0    0  0.23323390377E+02  0.10921945092E+02  0.11147057262E+02  0.28062899153E+02  0.00000000000E+00 0.  1.
</event>
<event>
 5    1  0.6903325E-004  0.9118800E+02  0.7818608E-02  0.1130116E+00
         25   -1    0    0    0    0  0.00000000000E+00  0.00000000000E+00  0.99999998245E-14  0.12500000000E+03  0.12500000000E+03 0.  0.
        -13    1    3    3    0    0 -0.50132751849E+01  0.50269940712E+02 -0.29069181029E+02  0.58285747117E+02  0.10566000000E+00 0. -1.
         23    2    1    0    0    0  0.12094856314E+02  0.18305150743E+02 -0.19161673751E+02  0.95870395919E+02  0.91337828854E+02 0.  0.
         13    1    3    3    0    0  0.17108131499E+02 -0.31964789969E+02  0.99075072777E+01  0.37584648803E+02  0.10566000000E+00 0.  1.
         22    1    1    0    0    0 -0.12094856314E+02 -0.18305150743E+02  0.19161673751E+02  0.29129604081E+02  0.00000000000E+00 0. -1.
</event>
<event>
 5    1  0.6903325E-004  0.9118800E+02  0.7818608E-02  0.1130116E+00
         25   -1    0    0    0    0  0.00000000000E+00  0.00000000000E+00  0.99999998245E-14  0.12500000000E+03  0.12500000000E+03 0.  0.
        -13    1    3    3    0    0 -0.21209930743E+02  0.33574513503E+02 -0.19515257246E+02  0.44248904490E+02  0.10566000000E+00 0. -1.
         23    2    1    0    0    0  0.18897045705E+02  0.31231514126E+01 -0.23405687553E+02  0.94756345774E+02  0.89800258593E+02 0.  0.
         13    1    3    3    0    0  0.40106976449E+02 -0.30451362091E+02 -0.38904303073E+01  0.50507441284E+02  0.10566000000E+00 0.  1.
         22    1    1    0    0    0 -0.18897045705E+02 -0.31231514126E+01  0.23405687553E+02  0.30243654226E+02  0.00000000000E+00 0.  1.
</event>
<event>
 5    1  0.6903325E-004  0.9118800E+02  0.7818608E-02  0.1130116E+00
         25   -1    0    0    0    0  0.00000000000E+00  0.00000000000E+00  0.99999998245E-14  0.12500000000E+03  0.12500000000E+03 0.  0.
        -13    1    3    3    0    0 -0.13656961111E+02  0.52748769482E+02  0.14479669809E+02  0.56379227296E+02  0.10566000000E+00 0. -1.
         23    2    1    0    0    0 -0.10722130210E+02  0.25965658984E+02 -0.12268706029E+02  0.94345462484E+02  0.89226484975E+02 0.  0.
         13    1    3    3    0    0  0.29348309007E+01 -0.26783110498E+02 -0.26748375838E+02  0.37966235188E+02  0.10566000000E+00 0.  1.
         22    1    1    0    0    0  0.10722130210E+02 -0.25965658984E+02  0.12268706029E+02  0.30654537516E+02  0.00000000000E+00 0. -1.
</event>
<event>
 5    1  0.6903325E-004  0.9118800E+02  0.7818608E-02  0.1130116E+00
         25   -1    0    0    0    0  0.00000000000E+00  0.00000000000E+00  0.99999998245E-14  0.12500000000E+03  0.12500000000E+03 0.  0.
        -13    1    3    3    0    0 -0.49280281216E+02  0.34229208545E+02 -0.10437369475E+02  0.60902665622E+02  0.10566000000E+00 0. -1.
         23    2    1    0    0    0 -0.24249666612E+02  0.15481237867E+02 -0.15077569062E+02  0.92518495332E+02  0.86629231978E+02 0.  0.
         13    1    3    3    0    0  0.25030614604E+02 -0.18747970678E+02 -0.46401995871E+01  0.31615829710E+02  0.10566000000E+00 0.  1.
         22    1    1    0    0    0  0.24249666612E+02 -0.15481237867E+02  0.15077569062E+02  0.32481504668E+02  0.00000000000E+00 0. -1.
</event>
<event>
 5    1  0.6903325E-004  0.9118800E+02  0.7818608E-02  0.1130116E+00
         25   -1    0    0    0    0  0.00000000000E+00  0.00000000000E+00  0.99999998245E-14  0.12500000000E+03  0.12500000000E+03 0.  0.
        -13    1    3    3    0    0  0.16718271207E+02 -0.12595875410E+02 -0.21204357849E+02  0.29795849129E+02  0.10566000000E+00 0. -1.
         23    2    1    0    0    0  0.93924449817E+01  0.48811941908E+01  0.34645665858E+02  0.88773404215E+02  0.81045364171E+02 0.  0.
         13    1    3    3    0    0 -0.73258262251E+01  0.17477069601E+02  0.55850023707E+02  0.58977555085E+02  0.10566000000E+00 0.  1.
         22    1    1    0    0    0 -0.93924449817E+01 -0.48811941908E+01 -0.34645665858E+02  0.36226595785E+02  0.00000000000E+00 0.  1.
</event>
<event>
 5    1  0.6903325E-004  0.9118800E+02  0.7818608E-02  0.1130116E+00
         25   -1    0    0    0    0  0.00000000000E+00  0.00000000000E+00  0.99999998245E-14  0.12500000000E+03  0.12500000000E+03 0.  0.
        -13    1    3    3    0    0  0.13872950583E+00  0.97218932256E+00 -0.62404928790E+02  0.62412744686E+02  0.10566000000E+00 0.  1.
         23    2    1    0    0    0 -0.17550515976E+01 -0.10001491635E+01 -0.29179167361E+02  0.95750994678E+02  0.91174276358E+02 0.  0.
         13    1    3    3    0    0 -0.18937811034E+01 -0.19723384861E+01  0.33225761428E+02  0.33338249992E+02  0.10566000000E+00 0. -1.
         22    1    1    0    0    0  0.17550515976E+01  0.10001491635E+01  0.29179167361E+02  0.29249005322E+02  0.00000000000E+00 0.  1.
</event>
<event>
 5    1  0.6903325E-004  0.9118800E+02  0.7818608E-02  0.1130116E+00
         25   -1    0    0    0    0  0.00000000000E+00  0.00000000000E+00  0.99999998245E-14  0.12500000000E+03  0.12500000000E+03 0.  0.
        -13    1    3    3    0    0 -0.27112917143E+02  0.15966280078E+02  0.18426389232E+02  0.36463342685E+02  0.10566000000E+00 0.  1.
         23    2    1    0    0    0  0.28307068710E+02  0.83156166682E+01  0.13281618921E+02  0.92645077334E+02  0.86811688923E+02 0.  0.
         13    1    3    3    0    0  0.55419985854E+02 -0.76506634103E+01 -0.51447703114E+01  0.56181734650E+02  0.10566000000E+00 0. -1.
         22    1    1    0    0    0 -0.28307068710E+02 -0.83156166682E+01 -0.13281618921E+02  0.32354922666E+02  0.00000000000E+00 0. -1.
</event>
<event>
 5    1  0.6903325E-004  0.9118800E+02  0.7818608E-02  0.1130116E+00
         25   -1    0    0    0    0  0.00000000000E+00  0.00000000000E+00  0.99999998245E-14  0.12500000000E+03  0.12500000000E+03 0.  0.
        -13    1    3    3    0    0  0.42990004815E+02  0.83170728915E+01  0.13184552901E+02  0.45729179029E+02  0.10566000000E+00 0. -1.
         23    2    1    0    0    0  0.20511958855E+01  0.28205067051E+02 -0.75295581166E+01  0.95735218140E+02  0.91152644147E+02 0.  0.
         13    1    3    3    0    0 -0.40938808929E+02  0.19887994159E+02 -0.20714111018E+02  0.50006039110E+02  0.10566000000E+00 0.  1.
         22    1    1    0    0    0 -0.20511958855E+01 -0.28205067051E+02  0.75295581166E+01  0.29264781860E+02  0.00000000000E+00 0.  1.
</event>
<event>
 5    1  0.6903325E-004  0.9118800E+02  0.7818608E-02  0.1130116E+00
         25   -1    0    0    0    0  0.00000000000E+00  0.00000000000E+00  0.99999998245E-14  0.12500000000E+03  0.12500000000E+03 0.  0.
        -13    1    3    3    0    0 -0.35511552227E+02  0.30289890872E+01 -0.82314729976E+01  0.36578865868E+02  0.10566000000E+00 0. -1.
         23    2    1    0    0    0  0.19281978891E+01 -0.19543596770E+02  0.26220573114E+02  0.92240442978E+02  0.86227088230E+02 0.  0.
         13    1    3    3    0    0  0.37439750116E+02 -0.22572585857E+02  0.34452046112E+02  0.55661577110E+02  0.10566000000E+00 0.  1.
         22    1    1    0    0    0 -0.19281978891E+01  0.19543596770E+02 -0.26220573114E+02  0.32759557022E+02  0.00000000000E+00 0.  1.
</event>
<event>
 5    1  0.6903325E-004  0.9118800E+02  0.7818608E-02  0.1130116E+00
         25   -1    0    0    0    0  0.00000000000E+00  0.00000000000E+00  0.99999998245E-14  0.12500000000E+03  0.12500000000E+03 0.  0.
        -13    1    3    3    0    0  0.34959254437E+02  0.31389920350E+02  0.12427241926E+02  0.48599630414E+02  0.10566000000E+00 0. -1.
         23    2    1    0    0    0  0.57210473013E+01  0.22891165107E+02 -0.20712407206E+02  0.93603509201E+02  0.88180935016E+02 0.  0.
         13    1    3    3    0    0 -0.29238207136E+02 -0.84987552429E+01 -0.33139649133E+02  0.45003878787E+02  0.10566000000E+00 0.  1.
         22    1    1    0    0    0 -0.57210473013E+01 -0.22891165107E+02  0.20712407206E+02  0.31396490799E+02  0.00000000000E+00 0.  1.
</event>
<event>
 5    1  0.6903325E-004  0.9118800E+02  0.7818608E-02  0.1130116E+00
         25   -1    0    0    0    0  0.00000000000E+00  0.00000000000E+00  0.99999998245E-14  0.12500000000E+03  0.12500000000E+03 0.  0.
        -13    1    3    3    0    0  0.34071843296E+02 -0.19838170330E+01 -0.13943344215E+02  0.36868062704E+02  0.10566000000E+00 0.  1.
         23    2    1    0    0    0 -0.13569174207E+02 -0.18998574461E+02  0.16955099945E+02  0.96146166037E+02  0.91714456380E+02 0.  0.
         13    1    3    3    0    0 -0.47641017504E+02 -0.17014757428E+02  0.30898444160E+02  0.59278103332E+02  0.10566000000E+00 0. -1.
         22    1    1    0    0    0  0.13569174207E+02  0.18998574461E+02 -0.16955099945E+02  0.28853833963E+02  0.00000000000E+00 0. -1.
</event>
<event>
 5    1  0.6903325E-004  0.9118800E+02  0.7818608E-02  0.1130116E+00
         25   -1    0    0    0    0  0.00000000000E+00  0.00000000000E+00  0.99999998245E-14  0.12500000000E+03  0.12500000000E+03 0.  0.
        -13    1    3    3    0    0  0.24574101604E+02 -0.38869068503E+02  0.22155801857E+02  0.51044898628E+02  0.10566000000E+00 0.  1.
         23    2    1    0    0    0  0.80789847608E+01 -0.23687684506E+02 -0.15997157769E+02  0.95296709800E+02  0.90549309494E+02 0.  0.
         13    1    3    3    0    0 -0.16495116844E+02  0.15181383997E+02 -0.38152959626E+02  0.44251811172E+02  0.10566000000E+00 0. -1.
         22    1    1    0    0    0 -0.80789847608E+01  0.23687684506E+02  0.15997157769E+02  0.29703290200E+02  0.00000000000E+00 0.  1.
</event>
<event>
 5    1  0.6903325E-004  0.9118800E+02  0.7818608E-02  0.1130116E+00
         25   -1    0    0    0    0  0.00000000000E+00  0.00000000000E+00  0.99999998245E-14  0.12500000000E+03  0.12500000000E+03 0.  0.
        -13    1    3    3    0    0  0.23002827690E+02  0.31898238581E+02 -0.41506559089E+01  0.39545755965E+02  0.10566000000E+00 0.  1.
         23    2    1    0    0    0  0.20778060889E+02 -0.22652241220E+02 -0.62959603424E+00  0.94255110380E+02  0.89099818154E+02 0.  0.
         13    1    3    3    0    0 -0.22247668016E+01 -0.54550479801E+02  0.35210598746E+01  0.54709354415E+02  0.10566000000E+00 0. -1.
         22    1    1    0    0    0 -0.20778060889E+02  0.22652241220E+02  0.62959603424E+00  0.30744889620E+02  0.00000000000E+00 0. -1.
</event>
<event>
 5    1  0.6903325E-004  0.9118800E+02  0.7818608E-02  0.1130116E+00
         25   -1    0    0    0    0  0.00000000000E+00  0.00000000000E+00  0.99999998245E-14  0.12500000000E+03  0.12500000000E+03 0.  0.
        -13    1    3    3    0    0 -0.42033172508E+02 -0.35406330518E+02 -0.17545892427E+02  0.57691120087E+02  0.10566000000E+00 0.  1.
         23    2    1    0    0    0 -0.21621224026E+02 -0.37160185389E+01 -0.19792002166E+02  0.95453266307E+02  0.90765172708E+02 0.  0.
         13    1    3    3    0    0  0.20411948481E+02  0.31690311979E+02 -0.22461097390E+01  0.37762146220E+02  0.10566000000E+00 0. -1.
         22    1    1    0    0    0  0.21621224026E+02  0.37160185389E+01  0.19792002166E+02  0.29546733693E+02  0.00000000000E+00 0.  1.
</event>
<event>
 5    1  0.6903325E-004  0.9118800E+02  0.7818608E-02  0.1130116E+00
         25   -1    0    0    0    0  0.00000000000E+00  0.00000000000E+00  0.99999998245E-14  0.12500000000E+03  0.12500000000E+03 0.  0.
        -13    1    3    3    0    0 -0.18085266358E+02 -0.32049771519E+02 -0.31685280623E+02  0.48561640065E+02  0.10566000000E+00 0.  1.
         23    2    1    0    0    0 -0.21311266853E+01 -0.27826013667E+02  0.11517295068E+02  0.94809325558E+02  0.89873975040E+02 0.  0.
         13    1    3    3    0    0  0.15954139673E+02  0.42237578517E+01  0.43202575691E+02  0.46247685493E+02  0.10566000000E+00 0. -1.
         22    1    1    0    0    0  0.21311266853E+01  0.27826013667E+02 -0.11517295068E+02  0.30190674442E+02  0.00000000000E+00 0.  1.
</event>
<event>
 5    1  0.6903325E-004  0.9118800E+02  0.7818608E-02  0.1130116E+00
         25   -1    0    0    0    0  0.00000000000E+00  0.00000000000E+00  0.99999998245E-14  0.12500000000E+03  0.12500000000E+03 0.  0.
        -13    1    3    3    0    0 -0.35174729327E+02  0.91739943463E+01 -0.25110819128E+02  0.44181310039E+02  0.10566000000E+00 0.  1.
         23    2    1    0    0    0  0.77277153157E+01 -0.19831964994E+02 -0.19253766708E+02  0.96299269139E+02  0.91922887708E+02 0.  0.
         13    1    3    3    0    0  0.42902444643E+02 -0.29005959340E+02  0.58570524200E+01  0.52117959099E+02  0.10566000000E+00 0. -1.
         22    1    1    0    0    0 -0.77277153157E+01  0.19831964994E+02  0.19253766708E+02  0.28700730861E+02  0.00000000000E+00 0. -1.
</event>
<event>
 5    1  0.6903325E-004  0.9118800E+02  0.7818608E-02  0.1130116E+00
         25   -1    0    0    0    0  0.00000000000E+00  0.00000000000E+00  0.99999998245E-14  0.12500000000E+03  0.12500000000E+03 0.  0.
        -13    1    3    3    0    0  0.14928355467E+02 -0.39990789899E+02  0.17023230151E+02  0.45955637331E+02  0.10566000000E+00 0. -1.
         23    2    1    0    0    0 -0.24845286071E+02 -0.93989668182E+01  0.18746643146E+01  0.98370257540E+02  0.94697224801E+02 0.  0.
         13    1    3    3    0    0 -0.39773641538E+02  0.30591823081E+02 -0.15148565837E+02  0.52414620208E+02  0.10566000000E+00 0.  1.
         22    1    1    0    0    0  0.24845286071E+02  0.93989668182E+01 -0.18746643146E+01  0.26629742460E+02  0.00000000000E+00 0.  1.
</event>
<event>
 5    1  0.6903325E-004  0.9118800E+02  0.7818608E-02  0.1130116E+00
         25   -1    0    0    0    0  0.00000000000E+00  0.00000000000E+00  0.99999998245E-14  0.12500000000E+03  0.12500000000E+03 0.  0.
        -13    1    3    3    0    0  0.23242212533E+01  0.52166293795E+02  0.33255652967E+02  0.61908592546E+02  0.10566000000E+00 0. -1.
         23    2    1    0    0    0 -0.19889470031E+01  0.25869330450E+02  0.10287666983E+02  0.97089173067E+02  0.92990823562E+02 0.  0.
         13    1    3    3    0    0 -0.43131682564E+01 -0.26296963345E+02 -0.22967985984E+02  0.35180580520E+02  0.10566000000E+00 0.  1.
         22    1    1    0    0    0  0.19889470031E+01 -0.25869330450E+02 -0.10287666983E+02  0.27910826933E+02  0.00000000000E+00 0. -1.
</event>
<event>
 5    1  0.6903325E-004  0.9118800E+02  0.7818608E-02  0.1130116E+00
         25   -1    0    0    0    0  0.00000000000E+00  0.00000000000E+00  0.99999998245E-14  0.12500000000E+03  0.12500000000E+03 0.  0.
        -13    1    3    3    0    0 -0.35065398828E+02 -0.34054473878E+02 -0.85633886914E+01  0.49624914871E+02  0.10566000000E+00 0.  1.
         23    2    1    0    0    0 -0.24451800195E+02  0.11092859096E+02 -0.10804588597E+02  0.96057277418E+02  0.91593227667E+02 0.  0.
         13    1    3    3    0    0  0.10613598632E+02  0.45147332974E+02 -0.22411999059E+01  0.46432362546E+02  0.10566000000E+00 0. -1.
         22    1    1    0    0    0  0.24451800195E+02 -0.11092859096E+02  0.10804588597E+02  0.28942722582E+02  0.00000000000E+00 0. -1.
</event>
<event>
 5    1  0.6903325E-004  0.9118800E+02  0.7818608E-02  0.1130116E+00
         25   -1    0    0    0    0  0.00000000000E+00  0.00000000000E+00  0.99999998245E-14  0.12500000000E+03  0.12500000000E+03 0.  0.
        -13    1    3    3    0    0  0.13575495693E+02 -0.21733920408E+02 -0.28888333210E+02  0.38616115021E+02  0.10566000000E+00 0. -1.
         23    2    1    0    0    0 -0.28407926756E+02  0.82136603176E+01 -0.71781350852E+01  0.94569749562E+02  0.89540144017E+02 0.  0.
         13    1    3    3    0    0 -0.41983422449E+02  0.29947580725E+02  0.21710198125E+02  0.55953634542E+02  0.10566000000E+00 0.  1.
         22    1    1    0    0    0  0.28407926756E+02 -0.82136603176E+01  0.71781350852E+01  0.30430250438E+02  0.00000000000E+00 0.  1.
</event>
<event>
 5    1  0.6903325E-004  0.9118800E+02  0.7818608E-02  0.1130116E+00
         25   -1    0    0    0    0  0.00000000000E+00  0.00000000000E+00  0.99999998245E-14  0.12500000000E+03  0.12500000000E+03 0.  0.
        -13    1    3    3    0    0  0.19198583316E+02 -0.24884853603E+02 -0.48698163763E+02  0.57960019479E+02  0.10566000000E+00 0.  1.
         23    2    1    0    0    0  0.23514814056E+02 -0.17206201775E+02 -0.16135923759E+02  0.91692825170E+02  0.85429539930E+02 0.  0.
         13    1    3    3    0    0  0.43162307392E+01  0.76786518280E+01  0.32562240004E+02  0.33732805691E+02  0.10566000000E+00 0. -1.
         22    1    1    0    0    0 -0.23514814056E+02  0.17206201775E+02  0.16135923759E+02  0.33307174830E+02  0.00000000000E+00 0.  1.
</event>
<event>
 5    1  0.6903325E-004  0.9118800E+02  0.7818608E-02  0.1130116E+00
         25   -1    0    0    0    0  0.00000000000E+00  0.00000000000E+00  0.99999998245E-14  0.12500000000E+03  0.12500000000E+03 0.  0.
        -13    1    3    3    0    0  0.27796154168E+02 -0.15510916155E+02  0.13858129905E+02  0.34717051071E+02  0.10566000000E+00 0. -1.
         23    2    1    0    0    0 -0.11422473160E+02  0.24267768428E+02 -0.11191143570E+02  0.95937323386E+02  0.91429376278E+02 0.  0.
         13    1    3    3    0    0 -0.39218627328E+02  0.39778684583E+02 -0.25049273476E+02  0.61220272315E+02  0.10566000000E+00 0.  1.
         22    1    1    0    0    0  0.11422473160E+02 -0.24267768428E+02  0.11191143570E+02  0.29062676614E+02  0.00000000000E+00 0.  1.
</event>
<event>
 5    1  0.6903325E-004  0.9118800E+02  0.7818608E-02  0.1130116E+00
         25   -1    0    0    0    0  0.00000000000E+00  0.00000000000E+00  0.99999998245E-14  0.12500000000E+03  0.12500000000E+03 0.  0.
        -13    1    3    3    0    0  0.24200126043E+02  0.22297434484E+02  0.19051565838E+02  0.38023611217E+02  0.10566000000E+00 0.  1.
         23    2    1    0    0    0 -0.26219000057E+02  0.10985984896E+02 -0.67533806909E+01  0.95781239265E+02  0.91215732285E+02 0.  0.
         13    1    3    3    0    0 -0.50419126099E+02 -0.11311449588E+02 -0.25804946529E+02  0.57757628049E+02  0.10566000000E+00 0. -1.
         22    1    1    0    0    0  0.26219000057E+02 -0.10985984896E+02  0.67533806909E+01  0.29218760735E+02  0.00000000000E+00 0. -1.
</event>
<event>
 5    1  0.6903325E-004  0.9118800E+02  0.7818608E-02  0.1130116E+00
         25   -1    0    0    0    0  0.00000000000E+00  0.00000000000E+00  0.99999998245E-14  0.12500000000E+03  0.12500000000E+03 0.  0.
        -13    1    3    3    0    0  0.29808766147E+02  0.24674974429E+02 -0.16686445215E+02  0.42141019450E+02  0.10566000000E+00 0.  1.
         23    2    1    0    0    0  0.41884797283E+01  0.95774001304E+01  0.27600713088E+02  0.95486116511E+02  0.90810402089E+02 0.  0.
         13    1    3    3    0    0 -0.25620286419E+02 -0.15097574299E+02  0.44287158303E+02  0.53345097061E+02  0.10566000000E+00 0. -1.
         22    1    1    0    0    0 -0.41884797283E+01 -0.95774001304E+01 -0.27600713088E+02  0.29513883489E+02  0.00000000000E+00 0. -1.
</event>
<event>
 5    1  0.6903325E-004  0.9118800E+02  0.7818608E-02  0.1130116E+00
         25   -1    0    0    0    0  0.00000000000E+00  0.00000000000E+00  0.99999998245E-14  0.12500000000E+03  0.12500000000E+03 0.  0.
        -13    1    3    3    0    0  0.32677304406E+02 -0.47223922781E+02 -0.40181020495E+01  0.57567885268E+02  0.10566000000E+00 0.  1.
         23    2    1    0    0    0  0.25957871406E+02 -0.91701929017E+01 -0.77762402812E+01  0.96392772964E+02  0.92049949707E+02 0.  0.
         13    1    3    3    0    0 -0.67194330005E+01  0.38053729880E+02 -0.37581382317E+01  0.38824887696E+02  0.10566000000E+00 0. -1.
         22    1    1    0    0    0 -0.25957871406E+02  0.91701929017E+01  0.77762402812E+01  0.28607227036E+02  0.00000000000E+00 0.  1.
</event>
<event>
 5    1  0.6903325E-004  0.9118800E+02  0.7818608E-02  0.1130116E+00
         25   -1    0    0    0    0  0.00000000000E+00  0.00000000000E+00  0.99999998245E-14  0.12500000000E+03  0.12500000000E+03 0.  0.
        -13    1    3    3    0    0 -0.28779145488E+02  0.20314250362E+02 -0.24267090671E+02  0.42776288250E+02  0.10566000000E+00 0. -1.
         23    2    1    0    0    0 -0.18223057755E+02 -0.23590011229E+02  0.21882936652E+01  0.95110920173E+02  0.90292469472E+02 0.  0.
         13    1    3    3    0    0  0.10556087733E+02 -0.43904261592E+02  0.26455384336E+02  0.52334631923E+02  0.10566000000E+00 0.  1.
         22    1    1    0    0    0  0.18223057755E+02  0.23590011229E+02 -0.21882936652E+01  0.29889079827E+02  0.00000000000E+00 0.  1.
</event>
<event>
 5    1  0.6903325E-004  0.9118800E+02  0.7818608E-02  0.1130116E+00
         25   -1    0    0    0    0  0.00000000000E+00  0.00000000000E+00  0.99999998245E-14  0.12500000000E+03  0.12500000000E+03 0.  0.
        -13    1    3    3    0    0 -0.20428048636E+02 -0.32087112734E+02  0.96471203413E+01  0.39242401424E+02  0.10566000000E+00 0. -1.
         23    2    1    0    0    0  0.37473551655E+01  0.20169310880E+02  0.18352376162E+02  0.97474493957E+02  0.93507344574E+02 0.  0.
         13    1    3    3    0    0  0.24175403801E+02  0.52256423613E+02  0.87052558211E+01  0.58232092533E+02  0.10566000000E+00 0.  1.
         22    1    1    0    0    0 -0.37473551655E+01 -0.20169310880E+02 -0.18352376162E+02  0.27525506043E+02  0.00000000000E+00 0.  1.
</event>
<event>
 5    1  0.6903325E-004  0.9118800E+02  0.7818608E-02  0.1130116E+00
         25   -1    0    0    0    0  0.00000000000E+00  0.00000000000E+00  0.99999998245E-14  0.12500000000E+03  0.12500000000E+03 0.  0.
        -13    1    3    3    0    0  0.46028280115E+02 -0.58108450501E+00  0.23367608837E+01  0.46091342408E+02  0.10566000000E+00 0.  1.
         23    2    1    0    0    0  0.53794932931E+01 -0.25241974739E+02 -0.13070585006E+02  0.96070146401E+02  0.91610788668E+02 0.  0.
         13    1    3    3    0    0 -0.40648786821E+02 -0.24660890234E+02 -0.15407345890E+02  0.49978803993E+02  0.10566000000E+00 0. -1.
         22    1    1    0    0    0 -0.53794932931E+01  0.25241974739E+02  0.13070585006E+02  0.28929853599E+02  0.00000000000E+00 0. -1.
</event>
<event>
 5    1  0.6903325E-004  0.9118800E+02  0.7818608E-02  0.1130116E+00
         25   -1    0    0    0    0  0.00000000000E+00  0.00000000000E+00  0.99999998245E-14  0.12500000000E+03  0.12500000000E+03 0.  0.
        -13    1    3    3    0    0  0.42572734935E+02  0.60030027476E+00 -0.22081531889E+02  0.47962520105E+02  0.10566000000E+00 0.  1.
         23    2    1    0    0    0  0.10444948786E+02 -0.28522705177E+02 -0.74851701406E+01  0.93716307158E+02  0.88340685924E+02 0.  0.
         13    1    3    3    0    0 -0.32127786149E+02 -0.29123005452E+02  0.14596361748E+02  0.45753787053E+02  0.10566000000E+00 0. -1.
         22    1    1    0    0    0 -0.10444948786E+02  0.28522705177E+02  0.74851701406E+01  0.31283692842E+02  0.00000000000E+00 0. -1.
</event>
<event>
 5    1  0.6903325E-004  0.9118800E+02  0.7818608E-02  0.1130116E+00
         25   -1    0    0    0    0  0.00000000000E+00  0.00000000000E+00  0.99999998245E-14  0.12500000000E+03  0.12500000000E+03 0.  0.
        -13    1    3    3    0    0  0.10625951953E+02 -0.37707476832E+02  0.48160585658E+02  0.62082347241E+02  0.10566000000E+00 0.  1.
         23    2    1    0    0    0  0.63426831013E+01 -0.14276210055E+02  0.12374938587E+02  0.10507065211E+03  0.10316328333E+03 0.  0.
         13    1    3    3    0    0 -0.42832688517E+01  0.23431266777E+02 -0.35785647071E+02  0.42988304865E+02  0.10566000000E+00 0. -1.
         22    1    1    0    0    0 -0.63426831013E+01  0.14276210055E+02 -0.12374938587E+02  0.19929347894E+02  0.00000000000E+00 0.  1.
</event>
<event>
 5    1  0.6903325E-004  0.9118800E+02  0.7818608E-02  0.1130116E+00
         25   -1    0    0    0    0  0.00000000000E+00  0.00000000000E+00  0.99999998245E-14  0.12500000000E+03  0.12500000000E+03 0.  0.
        -13    1    3    3    0    0 -0.82354001334E+01 -0.25766251797E+02  0.55066349892E+02  0.61351736744E+02  0.10566000000E+00 0.  1.
         23    2    1    0    0    0 -0.11078396585E+02 -0.76980774842E+01  0.26326600324E+02  0.95418229389E+02  0.90716907725E+02 0.  0.
         13    1    3    3    0    0 -0.28429964515E+01  0.18068174313E+02 -0.28739749568E+02  0.34066492645E+02  0.10566000000E+00 0. -1.
         22    1    1    0    0    0  0.11078396585E+02  0.76980774842E+01 -0.26326600324E+02  0.29581770611E+02  0.00000000000E+00 0.  1.
</event>
<event>
 5    1  0.6903325E-004  0.9118800E+02  0.7818608E-02  0.1130116E+00
         25   -1    0    0    0    0  0.00000000000E+00  0.00000000000E+00  0.99999998245E-14  0.12500000000E+03  0.12500000000E+03 0.  0.
        -13    1    3    3    0    0  0.30891911015E+01  0.56832498846E+02  0.25012413772E+02  0.62169993031E+02  0.10566000000E+00 0. -1.
         23    2    1    0    0    0  0.60975062763E+01  0.28716969723E+02  0.12404213859E+02  0.93129818728E+02  0.87506883627E+02 0.  0.
         13    1    3    3    0    0  0.30083151748E+01 -0.28115529124E+02 -0.12608199913E+02  0.30959825697E+02  0.10566000000E+00 0.  1.
         22    1    1    0    0    0 -0.60975062763E+01 -0.28716969723E+02 -0.12404213859E+02  0.31870181272E+02  0.00000000000E+00 0. -1.
</event>
<event>
 5    1  0.6903325E-004  0.9118800E+02  0.7818608E-02  0.1130116E+00
         25   -1    0    0    0    0  0.00000000000E+00  0.00000000000E+00  0.99999998245E-14  0.12500000000E+03  0.12500000000E+03 0.  0.
        -13    1    3    3    0    0 -0.42170416660E+02  0.21539092037E+02 -0.37640330999E+02  0.60490348063E+02  0.10566000000E+00 0. -1.
         23    2    1    0    0    0 -0.10099386695E+02  0.79818805519E+01 -0.23765792965E+02  0.97971849045E+02  0.94169858561E+02 0.  0.
         13    1    3    3    0    0  0.32071029964E+02 -0.13557211485E+02  0.13874538033E+02  0.37481500983E+02  0.10566000000E+00 0.  1.
         22    1    1    0    0    0  0.10099386695E+02 -0.79818805519E+01  0.23765792965E+02  0.27028150955E+02  0.00000000000E+00 0. -1.
</event>
<event>
 5    1  0.6903325E-004  0.9118800E+02  0.7818608E-02  0.1130116E+00
         25   -1    0    0    0    0  0.00000000000E+00  0.00000000000E+00  0.99999998245E-14  0.12500000000E+03  0.12500000000E+03 0.  0.
        -13    1    3    3    0    0  0.15939966566E+02  0.30940443051E+02  0.51874225385E+02  0.62468711957E+02  0.10566000000E+00 0.  1.
         23    2    1    0    0    0  0.67514526293E+01  0.15310135950E+02  0.23172849072E+02  0.96417429970E+02  0.92083426807E+02 0.  0.
         13    1    3    3    0    0 -0.91885139364E+01 -0.15630307101E+02 -0.28701376313E+02  0.33948718013E+02  0.10566000000E+00 0. -1.
         22    1    1    0    0    0 -0.67514526293E+01 -0.15310135950E+02 -0.23172849072E+02  0.28582570030E+02  0.00000000000E+00 0.  1.
</event>
<event>
 5    1  0.6903325E-004  0.9118800E+02  0.7818608E-02  0.1130116E+00
         25   -1    0    0    0    0  0.00000000000E+00  0.00000000000E+00  0.99999998245E-14  0.12500000000E+03  0.12500000000E+03 0.  0.
        -13    1    3    3    0    0  0.22454309175E+02 -0.48757439266E+02  0.11430782825E+01  0.53691728192E+02  0.10566000000E+00 0. -1.
         23    2    1    0    0    0  0.13782038994E+02 -0.10103878557E+02 -0.20079516990E+02  0.98632975836E+02  0.95043379354E+02 0.  0.
         13    1    3    3    0    0 -0.86722701808E+01  0.38653560710E+02 -0.21222595273E+02  0.44941247643E+02  0.10566000000E+00 0.  1.
         22    1    1    0    0    0 -0.13782038994E+02  0.10103878557E+02  0.20079516990E+02  0.26367024164E+02  0.00000000000E+00 0. -1.
</event>
<event>
 5    1  0.6903325E-004  0.9118800E+02  0.7818608E-02  0.1130116E+00
         25   -1    0    0    0    0  0.00000000000E+00  0.00000000000E+00  0.99999998245E-14  0.12500000000E+03  0.12500000000E+03 0.  0.
        -13    1    3    3    0    0  0.35150633131E+02 -0.29212163928E+02  0.33345967012E+02  0.56576339673E+02  0.10566000000E+00 0. -1.
         23    2    1    0    0    0  0.29422691337E+02 -0.53364211316E+01  0.40132501812E+01  0.94829180770E+02  0.89901586151E+02 0.  0.
         13    1    3    3    0    0 -0.57279417939E+01  0.23875742796E+02 -0.29332716830E+02  0.38252841096E+02  0.10566000000E+00 0.  1.
         22    1    1    0    0    0 -0.29422691337E+02  0.53364211316E+01 -0.40132501812E+01  0.30170819230E+02  0.00000000000E+00 0. -1.
</event>
<event>
 5    1  0.6903325E-004  0.9118800E+02  0.7818608E-02  0.1130116E+00
         25   -1    0    0    0    0  0.00000000000E+00  0.00000000000E+00  0.99999998245E-14  0.12500000000E+03  0.12500000000E+03 0.  0.
        -13    1    3    3    0    0 -0.20320196578E+02  0.10824838786E+02 -0.35005540294E+02  0.41898526693E+02  0.10566000000E+00 0. -1.
         23    2    1    0    0    0  0.19562751732E+02 -0.17617068240E+02 -0.13786204754E+02  0.95282634871E+02  0.90529877487E+02 0.  0.
         13    1    3    3    0    0  0.39882948310E+02 -0.28441907026E+02  0.21219335540E+02  0.53384108178E+02  0.10566000000E+00 0.  1.
         22    1    1    0    0    0 -0.19562751732E+02  0.17617068240E+02  0.13786204754E+02  0.29717365129E+02  0.00000000000E+00 0.  1.
</event>
<event>
 5    1  0.6903325E-004  0.9118800E+02  0.7818608E-02  0.1130116E+00
         25   -1    0    0    0    0  0.00000000000E+00  0.00000000000E+00  0.99999998245E-14  0.12500000000E+03  0.12500000000E+03 0.  0.
        -13    1    3    3    0    0  0.83553991816E+01  0.37724064433E+02  0.19891247319E+02  0.43457917768E+02  0.10566000000E+00 0. -1.
         23    2    1    0    0    0  0.17595341864E+02 -0.13492506698E+02  0.19452871897E+02  0.95503254123E+02  0.90833988852E+02 0.  0.
         13    1    3    3    0    0  0.92399426821E+01 -0.51216571131E+02 -0.43837542171E+00  0.52045336354E+02  0.10566000000E+00 0.  1.
         22    1    1    0    0    0 -0.17595341864E+02  0.13492506698E+02 -0.19452871897E+02  0.29496745877E+02  0.00000000000E+00 0.  1.
</event>
<event>
 5    1  0.6903325E-004  0.9118800E+02  0.7818608E-02  0.1130116E+00
         25   -1    0    0    0    0  0.00000000000E+00  0.00000000000E+00  0.99999998245E-14  0.12500000000E+03  0.12500000000E+03 0.  0.
        -13    1    3    3    0    0 -0.19462661758E+02 -0.24404194422E+02 -0.27949644829E+02  0.41899328374E+02  0.10566000000E+00 0.  1.
         23    2    1    0    0    0 -0.69038999263E+01 -0.23148170980E+02  0.21333060936E+02  0.92772664664E+02  0.86995207719E+02 0.  0.
         13    1    3    3    0    0  0.12558761831E+02  0.12560234422E+01  0.49282705766E+02  0.50873336290E+02  0.10566000000E+00 0. -1.
         22    1    1    0    0    0  0.69038999263E+01  0.23148170980E+02 -0.21333060936E+02  0.32227335336E+02  0.00000000000E+00 0. -1.
</event>
<event>
 5    1  0.6903325E-004  0.9118800E+02  0.7818608E-02  0.1130116E+00
         25   -1    0    0    0    0  0.00000000000E+00  0.00000000000E+00  0.99999998245E-14  0.12500000000E+03  0.12500000000E+03 0.  0.
        -13    1    3    3    0    0 -0.94993181097E+01  0.30115176028E+02  0.70752318987E+01  0.32360947795E+02  0.10566000000E+00 0.  1.
         23    2    1    0    0    0 -0.36109396167E+01 -0.25750189017E+02  0.22499367064E+02  0.90614935835E+02  0.83837545043E+02 0.  0.
         13    1    3    3    0    0  0.58883784930E+01 -0.55865365045E+02  0.15424135165E+02  0.58253988040E+02  0.10566000000E+00 0. -1.
         22    1    1    0    0    0  0.36109396167E+01  0.25750189017E+02 -0.22499367064E+02  0.34385064165E+02  0.00000000000E+00 0. -1.
</event>
<event>
 5    1  0.6903325E-004  0.9118800E+02  0.7818608E-02  0.1130116E+00
         25   -1    0    0    0    0  0.00000000000E+00  0.00000000000E+00  0.99999998245E-14  0.12500000000E+03  0.12500000000E+03 0.  0.
        -13    1    3    3    0    0 -0.13216158795E+02  0.56438245656E+02  0.21925102247E+02  0.61973088503E+02  0.10566000000E+00 0. -1.
         23    2    1    0    0    0 -0.12839919921E+01  0.27908589299E+02  0.76498825673E+01  0.96033490107E+02  0.91560758662E+02 0.  0.
         13    1    3    3    0    0  0.11932166803E+02 -0.28529656357E+02 -0.14275219679E+02  0.34060401604E+02  0.10566000000E+00 0.  1.
         22    1    1    0    0    0  0.12839919921E+01 -0.27908589299E+02 -0.76498825673E+01  0.28966509893E+02  0.00000000000E+00 0. -1.
</event>
<event>
 5    1  0.6903325E-004  0.9118800E+02  0.7818608E-02  0.1130116E+00
         25   -1    0    0    0    0  0.00000000000E+00  0.00000000000E+00  0.99999998245E-14  0.12500000000E+03  0.12500000000E+03 0.  0.
        -13    1    3    3    0    0 -0.76289753492E+01  0.39222359088E+02 -0.96067964536E+00  0.39969097897E+02  0.10566000000E+00 0. -1.
         23    2    1    0    0    0 -0.13236324698E+02 -0.19036978058E+02 -0.10973427753E+02  0.99348042146E+02  0.95979219295E+02 0.  0.
         13    1    3    3    0    0 -0.56073493490E+01 -0.58259337146E+02 -0.10012748108E+02  0.59378944249E+02  0.10566000000E+00 0.  1.
         22    1    1    0    0    0  0.13236324698E+02  0.19036978058E+02  0.10973427753E+02  0.25651957854E+02  0.00000000000E+00 0.  1.
</event>
<event>
 5    1  0.6903325E-004  0.9118800E+02  0.7818608E-02  0.1130116E+00
         25   -1    0    0    0    0  0.00000000000E+00  0.00000000000E+00  0.99999998245E-14  0.12500000000E+03  0.12500000000E+03 0.  0.
        -13    1    3    3    0    0 -0.20438517513E+02  0.44198906889E+02 -0.28816749438E+02  0.56583500957E+02  0.10566000000E+00 0.  1.
         23    2    1    0    0    0 -0.20524487465E+02  0.23542838966E+02  0.20221681937E+01  0.93701293693E+02  0.88319439668E+02 0.  0.
         13    1    3    3    0    0 -0.85969951930E-01 -0.20656067924E+02  0.30838917631E+02  0.37117792736E+02  0.10566000000E+00 0. -1.
         22    1    1    0    0    0  0.20524487465E+02 -0.23542838966E+02 -0.20221681937E+01  0.31298706307E+02  0.00000000000E+00 0.  1.
</event>
<event>
 5    1  0.6903325E-004  0.9118800E+02  0.7818608E-02  0.1130116E+00
         25   -1    0    0    0    0  0.00000000000E+00  0.00000000000E+00  0.99999998245E-14  0.12500000000E+03  0.12500000000E+03 0.  0.
        -13    1    3    3    0    0  0.23068932899E+01 -0.28181109860E+02  0.30615438474E+02  0.41675087841E+02  0.10566000000E+00 0. -1.
         23    2    1    0    0    0  0.14648447410E+02  0.21651964770E+02  0.11141519837E+02  0.96583137854E+02  0.92308095331E+02 0.  0.
         13    1    3    3    0    0  0.12341554120E+02  0.49833074629E+02 -0.19473918637E+02  0.54908050013E+02  0.10566000000E+00 0.  1.
         22    1    1    0    0    0 -0.14648447410E+02 -0.21651964770E+02 -0.11141519837E+02  0.28416862146E+02  0.00000000000E+00 0.  1.
</event>
<event>
 5    1  0.6903325E-004  0.9118800E+02  0.7818608E-02  0.1130116E+00
         25   -1    0    0    0    0  0.00000000000E+00  0.00000000000E+00  0.99999998245E-14  0.12500000000E+03  0.12500000000E+03 0.  0.
        -13    1    3    3    0    0 -0.61951268065E+01 -0.14415356972E+02 -0.31330519807E+02  0.35039902228E+02  0.10566000000E+00 0. -1.
         23    2    1    0    0    0  0.22864365147E+02  0.57129077457E+01  0.17729190478E+02  0.95508633407E+02  0.90841391182E+02 0.  0.
         13    1    3    3    0    0  0.29059491953E+02  0.20128264718E+02  0.49059710285E+02  0.60468731179E+02  0.10566000000E+00 0.  1.
         22    1    1    0    0    0 -0.22864365147E+02 -0.57129077457E+01 -0.17729190478E+02  0.29491366593E+02  0.00000000000E+00 0.  1.
</event>
<event>
 5    1  0.6903325E-004  0.9118800E+02  0.7818608E-02  0.1130116E+00
         25   -1    0    0    0    0  0.00000000000E+00  0.00000000000E+00  0.99999998245E-14  0.12500000000E+03  0.12500000000E+03 0.  0.
        -13    1    3    3    0    0  0.11426399161E+02  0.53626717996E+02 -0.10253966250E+02  0.55781201750E+02  0.10566000000E+00 0. -1.
         23    2    1    0    0    0 -0.12705616371E+02  0.25738211019E+02  0.53076978029E+01  0.95809935770E+02  0.91255048860E+02 0.  0.
         13    1    3    3    0    0 -0.24132015532E+02 -0.27888506977E+02  0.15561664053E+02  0.40028734019E+02  0.10566000000E+00 0.  1.
         22    1    1    0    0    0  0.12705616371E+02 -0.25738211019E+02 -0.53076978029E+01  0.29190064230E+02  0.00000000000E+00 0. -1.
</event>
<event>
 5    1  0.6903325E-004  0.9118800E+02  0.7818608E-02  0.1130116E+00
         25   -1    0    0    0    0  0.00000000000E+00  0.00000000000E+00  0.99999998245E-14  0.12500000000E+03  0.12500000000E+03 0.  0.
        -13    1    3    3    0    0  0.24040952785E+02  0.22779211365E+02  0.43680481533E+02  0.54816562390E+02  0.10566000000E+00 0. -1.
         23    2    1    0    0    0  0.74754186154E+01  0.24619501563E+02  0.26121769332E+01  0.99138344812E+02  0.95705727118E+02 0.  0.
         13    1    3    3    0    0 -0.16565534170E+02  0.18402901987E+01 -0.41068304600E+02  0.44321782423E+02  0.10566000000E+00 0.  1.
         22    1    1    0    0    0 -0.74754186154E+01 -0.24619501563E+02 -0.26121769332E+01  0.25861655188E+02  0.00000000000E+00 0. -1.
</event>
<event>
 5    1  0.6903325E-004  0.9118800E+02  0.7818608E-02  0.1130116E+00
         25   -1    0    0    0    0  0.00000000000E+00  0.00000000000E+00  0.99999998245E-14  0.12500000000E+03  0.12500000000E+03 0.  0.
        -13    1    3    3    0    0 -0.38791006021E+02  0.32070801214E+02  0.30424819675E+02  0.58812917415E+02  0.10566000000E+00 0. -1.
         23    2    1    0    0    0 -0.25294959478E+02  0.18418462608E+02  0.13159914308E+01  0.93682168446E+02  0.88292367232E+02 0.  0.
         13    1    3    3    0    0  0.13496046543E+02 -0.13652338606E+02 -0.29108828244E+02  0.34869251031E+02  0.10566000000E+00 0.  1.
         22    1    1    0    0    0  0.25294959478E+02 -0.18418462608E+02 -0.13159914308E+01  0.31317831554E+02  0.00000000000E+00 0. -1.
</event>
<event>
 5    1  0.6903325E-004  0.9118800E+02  0.7818608E-02  0.1130116E+00
         25   -1    0    0    0    0  0.00000000000E+00  0.00000000000E+00  0.99999998245E-14  0.12500000000E+03  0.12500000000E+03 0.  0.
        -13    1    3    3    0    0 -0.19878884550E+02  0.43404183312E+02 -0.33013934895E+02  0.58043296264E+02  0.10566000000E+00 0.  1.
         23    2    1    0    0    0 -0.14245615682E+02  0.25567922857E+02 -0.29703303709E+00  0.95729802289E+02  0.91145216947E+02 0.  0.
         13    1    3    3    0    0  0.56332688685E+01 -0.17836260455E+02  0.32716901858E+02  0.37686506025E+02  0.10566000000E+00 0. -1.
         22    1    1    0    0    0  0.14245615682E+02 -0.25567922857E+02  0.29703303709E+00  0.29270197711E+02  0.00000000000E+00 0.  1.
</event>
<event>
 5    1  0.6903325E-004  0.9118800E+02  0.7818608E-02  0.1130116E+00
         25   -1    0    0    0    0  0.00000000000E+00  0.00000000000E+00  0.99999998245E-14  0.12500000000E+03  0.12500000000E+03 0.  0.
        -13    1    3    3    0    0 -0.19591879118E+02  0.14988655149E+02 -0.26097251489E+02  0.35910711631E+02  0.10566000000E+00 0.  1.
         23    2    1    0    0    0  0.27264631852E+02 -0.10164172801E+02  0.15738888066E+01  0.95859861278E+02  0.91323410577E+02 0.  0.
         13    1    3    3    0    0  0.46856510970E+02 -0.25152827949E+02  0.27671140295E+02  0.59949149647E+02  0.10566000000E+00 0. -1.
         22    1    1    0    0    0 -0.27264631852E+02  0.10164172801E+02 -0.15738888066E+01  0.29140138722E+02  0.00000000000E+00 0. -1.
</event>
<event>
 5    1  0.6903325E-004  0.9118800E+02  0.7818608E-02  0.1130116E+00
         25   -1    0    0    0    0  0.00000000000E+00  0.00000000000E+00  0.99999998245E-14  0.12500000000E+03  0.12500000000E+03 0.  0.
        -13    1    3    3    0    0 -0.93532903126E+01 -0.60335229371E+02  0.48188828911E+01  0.61245871202E+02  0.10566000000E+00 0.  1.
         23    2    1    0    0    0 -0.12969664617E+02 -0.29255198914E+02  0.54279551740E+01  0.92541695036E+02  0.86662701083E+02 0.  0.
         13    1    3    3    0    0 -0.36163743048E+01  0.31080030457E+02  0.60907228286E+00  0.31295823834E+02  0.10566000000E+00 0. -1.
         22    1    1    0    0    0  0.12969664617E+02  0.29255198914E+02 -0.54279551740E+01  0.32458304964E+02  0.00000000000E+00 0.  1.
</event>
<event>
 5    1  0.6903325E-004  0.9118800E+02  0.7818608E-02  0.1130116E+00
         25   -1    0    0    0    0  0.00000000000E+00  0.00000000000E+00  0.99999998245E-14  0.12500000000E+03  0.12500000000E+03 0.  0.
        -13    1    3    3    0    0  0.38510950517E+02  0.27566312231E+02  0.16935581607E+02  0.50297315715E+02  0.10566000000E+00 0. -1.
         23    2    1    0    0    0 -0.28121328667E+01  0.18277112084E+02  0.25491715403E+02  0.93507326700E+02  0.88044486909E+02 0.  0.
         13    1    3    3    0    0 -0.41323083384E+02 -0.92892001469E+01  0.85561337960E+01  0.43210010985E+02  0.10566000000E+00 0.  1.
         22    1    1    0    0    0  0.28121328667E+01 -0.18277112084E+02 -0.25491715403E+02  0.31492673300E+02  0.00000000000E+00 0. -1.
</event>
<event>
 5    1  0.6903325E-004  0.9118800E+02  0.7818608E-02  0.1130116E+00
         25   -1    0    0    0    0  0.00000000000E+00  0.00000000000E+00  0.99999998245E-14  0.12500000000E+03  0.12500000000E+03 0.  0.
        -13    1    3    3    0    0 -0.53988500427E+00  0.50444872127E+02 -0.23546365568E+02  0.55672426705E+02  0.10566000000E+00 0. -1.
         23    2    1    0    0    0 -0.18058165599E+02  0.93618878269E+01 -0.48560712912E+01  0.10408771373E+03  0.10196532957E+03 0.  0.
         13    1    3    3    0    0 -0.17518280595E+02 -0.41082984300E+02  0.18690294277E+02  0.48415287029E+02  0.10566000000E+00 0.  1.
         22    1    1    0    0    0  0.18058165599E+02 -0.93618878269E+01  0.48560712912E+01  0.20912286266E+02  0.00000000000E+00 0. -1.
</event>
<event>
 5    1  0.6903325E-004  0.9118800E+02  0.7818608E-02  0.1130116E+00
         25   -1    0    0    0    0  0.00000000000E+00  0.00000000000E+00  0.99999998245E-14  0.12500000000E+03  0.12500000000E+03 0.  0.
        -13    1    3    3    0    0 -0.34353994924E+02 -0.37439341494E+02  0.33649973411E+02  0.60944508640E+02  0.10566000000E+00 0.  1.
         23    2    1    0    0    0 -0.15084675892E+02 -0.98911291928E+01  0.22057609154E+02  0.96505789973E+02  0.92203294374E+02 0.  0.
         13    1    3    3    0    0  0.19269319032E+02  0.27548212301E+02 -0.11592364258E+02  0.35561281334E+02  0.10566000000E+00 0. -1.
         22    1    1    0    0    0  0.15084675892E+02  0.98911291928E+01 -0.22057609154E+02  0.28494210027E+02  0.00000000000E+00 0.  1.
</event>
<event>
 5    1  0.6903325E-004  0.9118800E+02  0.7818608E-02  0.1130116E+00
         25   -1    0    0    0    0  0.00000000000E+00  0.00000000000E+00  0.99999998245E-14  0.12500000000E+03  0.12500000000E+03 0.  0.
        -13    1    3    3    0    0 -0.63192860807E-01 -0.55580748487E+02 -0.15090616853E+02  0.57593067958E+02  0.10566000000E+00 0. -1.
         23    2    1    0    0    0  0.15161371811E+02 -0.20460765790E+02 -0.14115836662E+02  0.95883561746E+02  0.91355845115E+02 0.  0.
         13    1    3    3    0    0  0.15224564672E+02  0.35119982698E+02  0.97478019079E+00  0.38290493789E+02  0.10566000000E+00 0.  1.
         22    1    1    0    0    0 -0.15161371811E+02  0.20460765790E+02  0.14115836662E+02  0.29116438254E+02  0.00000000000E+00 0. -1.
</event>
<event>
 5    1  0.6903325E-004  0.9118800E+02  0.7818608E-02  0.1130116E+00
         25   -1    0    0    0    0  0.00000000000E+00  0.00000000000E+00  0.99999998245E-14  0.12500000000E+03  0.12500000000E+03 0.  0.
        -13    1    3    3    0    0  0.25067171432E+01  0.35150211560E+02  0.17378328386E+02  0.39291709878E+02  0.10566000000E+00 0.  1.
         23    2    1    0    0    0  0.37107538880E+01 -0.12383453738E+01 -0.27580206881E+02  0.97143743875E+02  0.93064149751E+02 0.  0.
         13    1    3    3    0    0  0.12040367447E+01 -0.36388556934E+02 -0.44958535267E+02  0.57852033998E+02  0.10566000000E+00 0. -1.
         22    1    1    0    0    0 -0.37107538880E+01  0.12383453738E+01  0.27580206881E+02  0.27856256125E+02  0.00000000000E+00 0. -1.
</event>
<event>
 5    1  0.6903325E-004  0.9118800E+02  0.7818608E-02  0.1130116E+00
         25   -1    0    0    0    0  0.00000000000E+00  0.00000000000E+00  0.99999998245E-14  0.12500000000E+03  0.12500000000E+03 0.  0.
        -13    1    3    3    0    0  0.48524766735E+02 -0.16838102358E+02 -0.24423005561E+00  0.51363853926E+02  0.10566000000E+00 0.  1.
         23    2    1    0    0    0  0.49659861925E+01 -0.27509032999E+02  0.52874686146E+01  0.96550654845E+02  0.92264097629E+02 0.  0.
         13    1    3    3    0    0 -0.43558780543E+02 -0.10670930641E+02  0.55316986702E+01  0.45186800920E+02  0.10566000000E+00 0. -1.
         22    1    1    0    0    0 -0.49659861925E+01  0.27509032999E+02 -0.52874686146E+01  0.28449345155E+02  0.00000000000E+00 0. -1.
</event>
<event>
 5    1  0.6903325E-004  0.9118800E+02  0.7818608E-02  0.1130116E+00
         25   -1    0    0    0    0  0.00000000000E+00  0.00000000000E+00  0.99999998245E-14  0.12500000000E+03  0.12500000000E+03 0.  0.
        -13    1    3    3    0    0  0.21739939522E+01  0.40662914365E+02  0.27273695720E+02  0.49010861007E+02  0.10566000000E+00 0. -1.
         23    2    1    0    0    0 -0.67959692858E+01 -0.37289563994E+01  0.29641256273E+02  0.94361880152E+02  0.89249482004E+02 0.  0.
         13    1    3    3    0    0 -0.89699632380E+01 -0.44391870765E+02  0.23675605533E+01  0.45351019145E+02  0.10566000000E+00 0.  1.
         22    1    1    0    0    0  0.67959692858E+01  0.37289563994E+01 -0.29641256273E+02  0.30638119848E+02  0.00000000000E+00 0.  1.
</event>
<event>
 5    1  0.6903325E-004  0.9118800E+02  0.7818608E-02  0.1130116E+00
         25   -1    0    0    0    0  0.00000000000E+00  0.00000000000E+00  0.99999998245E-14  0.12500000000E+03  0.12500000000E+03 0.  0.
        -13    1    3    3    0    0 -0.39807542666E+01  0.30718094393E+02 -0.37175601827E+01  0.31197422096E+02  0.10566000000E+00 0. -1.
         23    2    1    0    0    0  0.25507946237E+02 -0.10482474926E+02  0.23549903766E+02  0.88735202066E+02  0.80986421803E+02 0.  0.
         13    1    3    3    0    0  0.29488700504E+02 -0.41200569320E+02  0.27267463948E+02  0.57537779970E+02  0.10566000000E+00 0.  1.
         22    1    1    0    0    0 -0.25507946237E+02  0.10482474926E+02 -0.23549903766E+02  0.36264797934E+02  0.00000000000E+00 0.  1.
</event>
<event>
 5    1  0.6903325E-004  0.9118800E+02  0.7818608E-02  0.1130116E+00
         25   -1    0    0    0    0  0.00000000000E+00  0.00000000000E+00  0.99999998245E-14  0.12500000000E+03  0.12500000000E+03 0.  0.
        -13    1    3    3    0    0  0.47994561605E+02  0.28348155434E+02  0.67473215769E+01  0.56148315849E+02  0.10566000000E+00 0. -1.
         23    2    1    0    0    0  0.16653044995E+02  0.14775418289E+02  0.22132155916E+02  0.93607815961E+02  0.88187039809E+02 0.  0.
         13    1    3    3    0    0 -0.31341516610E+02 -0.13572737145E+02  0.15384834339E+02  0.37459500112E+02  0.10566000000E+00 0.  1.
         22    1    1    0    0    0 -0.16653044995E+02 -0.14775418289E+02 -0.22132155916E+02  0.31392184039E+02  0.00000000000E+00 0. -1.
</event>
<event>
 5    1  0.6903325E-004  0.9118800E+02  0.7818608E-02  0.1130116E+00
         25   -1    0    0    0    0  0.00000000000E+00  0.00000000000E+00  0.99999998245E-14  0.12500000000E+03  0.12500000000E+03 0.  0.
        -13    1    3    3    0    0  0.14362394677E+02 -0.18883472750E+02  0.38157617101E+02  0.44931935534E+02  0.10566000000E+00 0.  1.
         23    2    1    0    0    0 -0.26327776553E+02 -0.78442892924E+01  0.94088061924E+01  0.95961915926E+02  0.91462992414E+02 0.  0.
         13    1    3    3    0    0 -0.40690171230E+02  0.11039183458E+02 -0.28748810908E+02  0.51029980392E+02  0.10566000000E+00 0. -1.
         22    1    1    0    0    0  0.26327776553E+02  0.78442892924E+01 -0.94088061924E+01  0.29038084074E+02  0.00000000000E+00 0. -1.
</event>
<event>
 5    1  0.6903325E-004  0.9118800E+02  0.7818608E-02  0.1130116E+00
         25   -1    0    0    0    0  0.00000000000E+00  0.00000000000E+00  0.99999998245E-14  0.12500000000E+03  0.12500000000E+03 0.  0.
        -13    1    3    3    0    0 -0.28435414232E+02 -0.18852300504E+02  0.26417805792E+02  0.43149665627E+02  0.10566000000E+00 0.  1.
         23    2    1    0    0    0  0.17943649205E+02  0.52637078984E+01  0.22747777573E+02  0.95552715708E+02  0.90902029279E+02 0.  0.
         13    1    3    3    0    0  0.46379063438E+02  0.24116008402E+02 -0.36700282184E+01  0.52403050081E+02  0.10566000000E+00 0. -1.
         22    1    1    0    0    0 -0.17943649205E+02 -0.52637078984E+01 -0.22747777573E+02  0.29447284292E+02  0.00000000000E+00 0. -1.
</event>
<event>
 5    1  0.6903325E-004  0.9118800E+02  0.7818608E-02  0.1130116E+00
         25   -1    0    0    0    0  0.00000000000E+00  0.00000000000E+00  0.99999998245E-14  0.12500000000E+03  0.12500000000E+03 0.  0.
        -13    1    3    3    0    0 -0.28441128160E+02  0.22623774469E+02  0.98623183367E+01  0.37656465968E+02  0.10566000000E+00 0.  1.
         23    2    1    0    0    0 -0.50154772924E+01 -0.24180953798E+02 -0.15526497685E+02  0.95829026937E+02  0.91281195951E+02 0.  0.
         13    1    3    3    0    0  0.23425650867E+02 -0.46804728267E+02 -0.25388816022E+02  0.58172560969E+02  0.10566000000E+00 0. -1.
         22    1    1    0    0    0  0.50154772924E+01  0.24180953798E+02  0.15526497685E+02  0.29170973063E+02  0.00000000000E+00 0. -1.
</event>
<event>
 5    1  0.6903325E-004  0.9118800E+02  0.7818608E-02  0.1130116E+00
         25   -1    0    0    0    0  0.00000000000E+00  0.00000000000E+00  0.99999998245E-14  0.12500000000E+03  0.12500000000E+03 0.  0.
        -13    1    3    3    0    0 -0.43888878940E+00  0.93937444700E+01 -0.41964190777E+02  0.43005110512E+02  0.10566000000E+00 0.  1.
         23    2    1    0    0    0 -0.15431316765E+02 -0.23891009921E+02 -0.29962817354E+01  0.96401335758E+02  0.92061576890E+02 0.  0.
         13    1    3    3    0    0 -0.14992427976E+02 -0.33284754391E+02  0.38967909041E+02  0.53396225247E+02  0.10566000000E+00 0. -1.
         22    1    1    0    0    0  0.15431316765E+02  0.23891009921E+02  0.29962817354E+01  0.28598664242E+02  0.00000000000E+00 0. -1.
</event>
<event>
 5    1  0.6903325E-004  0.9118800E+02  0.7818608E-02  0.1130116E+00
         25   -1    0    0    0    0  0.00000000000E+00  0.00000000000E+00  0.99999998245E-14  0.12500000000E+03  0.12500000000E+03 0.  0.
        -13    1    3    3    0    0  0.25008804355E+02  0.22172855384E+02  0.47477339124E+02  0.58061904081E+02  0.10566000000E+00 0. -1.
         23    2    1    0    0    0 -0.39593280317E+01  0.14638177912E+02  0.25995375261E+02  0.94904949477E+02  0.90006874011E+02 0.  0.
         13    1    3    3    0    0 -0.28968132387E+02 -0.75346774721E+01 -0.21481963863E+02  0.36843045396E+02  0.10566000000E+00 0.  1.
         22    1    1    0    0    0  0.39593280317E+01 -0.14638177912E+02 -0.25995375261E+02  0.30095050523E+02  0.00000000000E+00 0. -1.
</event>
<event>
 5    1  0.6903325E-004  0.9118800E+02  0.7818608E-02  0.1130116E+00
         25   -1    0    0    0    0  0.00000000000E+00  0.00000000000E+00  0.99999998245E-14  0.12500000000E+03  0.12500000000E+03 0.  0.
        -13    1    3    3    0    0  0.38585037171E+02  0.10490740810E+02 -0.69370349749E+01  0.40583178221E+02  0.10566000000E+00 0. -1.
         23    2    1    0    0    0 -0.27188868243E+01  0.80487601303E+01  0.28624423712E+02  0.95141458207E+02  0.90334736130E+02 0.  0.
         13    1    3    3    0    0 -0.41303923995E+02 -0.24419806800E+01  0.35561458686E+02  0.54558279986E+02  0.10566000000E+00 0.  1.
         22    1    1    0    0    0  0.27188868243E+01 -0.80487601303E+01 -0.28624423712E+02  0.29858541793E+02  0.00000000000E+00 0.  1.
</event>
<event>
 5    1  0.6903325E-004  0.9118800E+02  0.7818608E-02  0.1130116E+00
         25   -1    0    0    0    0  0.00000000000E+00  0.00000000000E+00  0.99999998245E-14  0.12500000000E+03  0.12500000000E+03 0.  0.
        -13    1    3    3    0    0 -0.79073398916E+01 -0.18423358571E+02  0.33311366608E+02  0.38879357949E+02  0.10566000000E+00 0.  1.
         23    2    1    0    0    0  0.26763660131E+02  0.11896980441E+02  0.17981877467E-01  0.95711231324E+02  0.91119744463E+02 0.  0.
         13    1    3    3    0    0  0.34671000023E+02  0.30320339012E+02 -0.33293384731E+02  0.56831873374E+02  0.10566000000E+00 0. -1.
         22    1    1    0    0    0 -0.26763660131E+02 -0.11896980441E+02 -0.17981877467E-01  0.29288768676E+02  0.00000000000E+00 0. -1.
</event>
<event>
 5    1  0.6903325E-004  0.9118800E+02  0.7818608E-02  0.1130116E+00
         25   -1    0    0    0    0  0.00000000000E+00  0.00000000000E+00  0.99999998245E-14  0.12500000000E+03  0.12500000000E+03 0.  0.
        -13    1    3    3    0    0  0.12686940298E+01 -0.57510625452E+02  0.14534750671E+02  0.59332552326E+02  0.10566000000E+00 0.  1.
         23    2    1    0    0    0 -0.29114243489E+01 -0.22443540779E+02  0.19664466828E+02  0.95018669642E+02  0.90164668304E+02 0.  0.
         13    1    3    3    0    0 -0.41801183787E+01  0.35067084673E+02  0.51297161571E+01  0.35686117315E+02  0.10566000000E+00 0. -1.
         22    1    1    0    0    0  0.29114243489E+01  0.22443540779E+02 -0.19664466828E+02  0.29981330358E+02  0.00000000000E+00 0.  1.
</event>
<event>
 5    1  0.6903325E-004  0.9118800E+02  0.7818608E-02  0.1130116E+00
         25   -1    0    0    0    0  0.00000000000E+00  0.00000000000E+00  0.99999998245E-14  0.12500000000E+03  0.12500000000E+03 0.  0.
        -13    1    3    3    0    0 -0.11929847349E+02  0.39286772330E+02  0.11606411592E+02  0.42667220345E+02  0.10566000000E+00 0.  1.
         23    2    1    0    0    0 -0.10419778799E+02 -0.14633377355E+02  0.20940154511E+02  0.97410190396E+02  0.93421344451E+02 0.  0.
         13    1    3    3    0    0  0.15100685496E+01 -0.53920149685E+02  0.93337429182E+01  0.54742970051E+02  0.10566000000E+00 0. -1.
         22    1    1    0    0    0  0.10419778799E+02  0.14633377355E+02 -0.20940154511E+02  0.27589809604E+02  0.00000000000E+00 0. -1.
</event>
<event>
 5    1  0.6903325E-004  0.9118800E+02  0.7818608E-02  0.1130116E+00
         25   -1    0    0    0    0  0.00000000000E+00  0.00000000000E+00  0.99999998245E-14  0.12500000000E+03  0.12500000000E+03 0.  0.
        -13    1    3    3    0    0  0.34009001866E+02 -0.17672377638E+02  0.23076556020E+02  0.44737721680E+02  0.10566000000E+00 0.  1.
         23    2    1    0    0    0 -0.49627951726E+01 -0.33397406389E+02  0.16993625126E+02  0.87200537248E+02  0.78582022830E+02 0.  0.
         13    1    3    3    0    0 -0.38971797039E+02 -0.15725028750E+02 -0.60829308940E+01  0.42462815568E+02  0.10566000000E+00 0. -1.
         22    1    1    0    0    0  0.49627951726E+01  0.33397406389E+02 -0.16993625126E+02  0.37799462752E+02  0.00000000000E+00 0.  1.
</event>
<event>
 5    1  0.6903325E-004  0.9118800E+02  0.7818608E-02  0.1130116E+00
         25   -1    0    0    0    0  0.00000000000E+00  0.00000000000E+00  0.99999998245E-14  0.12500000000E+03  0.12500000000E+03 0.  0.
        -13    1    3    3    0    0 -0.86001921133E+01 -0.31123539132E+02 -0.16596452630E+01  0.32332701386E+02  0.10566000000E+00 0.  1.
         23    2    1    0    0    0 -0.69156328323E+01  0.30152138935E+02 -0.47148524525E+01  0.93707711917E+02  0.88328523022E+02 0.  0.
         13    1    3    3    0    0  0.16845592811E+01  0.61275678067E+02 -0.30552071895E+01  0.61375010530E+02  0.10566000000E+00 0. -1.
         22    1    1    0    0    0  0.69156328323E+01 -0.30152138935E+02  0.47148524525E+01  0.31292288083E+02  0.00000000000E+00 0. -1.
</event>
<event>
 5    1  0.6903325E-004  0.9118800E+02  0.7818608E-02  0.1130116E+00
         25   -1    0    0    0    0  0.00000000000E+00  0.00000000000E+00  0.99999998245E-14  0.12500000000E+03  0.12500000000E+03 0.  0.
        -13    1    3    3    0    0  0.51873045988E+00 -0.19743990819E+01 -0.57636840451E+02  0.57673077551E+02  0.10566000000E+00 0.  1.
         23    2    1    0    0    0 -0.32943631054E+01 -0.17807029217E+02 -0.25208111091E+02  0.93961443613E+02  0.88686869959E+02 0.  0.
         13    1    3    3    0    0 -0.38130935653E+01 -0.15832630135E+02  0.32428729359E+02  0.36288366062E+02  0.10566000000E+00 0. -1.
         22    1    1    0    0    0  0.32943631054E+01  0.17807029217E+02  0.25208111091E+02  0.31038556387E+02  0.00000000000E+00 0.  1.
</event>
<event>
 5    1  0.6903325E-004  0.9118800E+02  0.7818608E-02  0.1130116E+00
         25   -1    0    0    0    0  0.00000000000E+00  0.00000000000E+00  0.99999998245E-14  0.12500000000E+03  0.12500000000E+03 0.  0.
        -13    1    3    3    0    0 -0.58005738117E+01  0.29842651442E+02 -0.39417573520E+02  0.49779380951E+02  0.10566000000E+00 0. -1.
         23    2    1    0    0    0 -0.26840733640E+02  0.32658853381E+00 -0.10393326274E+02  0.96215405623E+02  0.91808776301E+02 0.  0.
         13    1    3    3    0    0 -0.21040159828E+02 -0.29516062908E+02  0.29024247246E+02  0.46436024673E+02  0.10566000000E+00 0.  1.
         22    1    1    0    0    0  0.26840733640E+02 -0.32658853381E+00  0.10393326274E+02  0.28784594377E+02  0.00000000000E+00 0.  1.
</event>
<event>
 5    1  0.6903325E-004  0.9118800E+02  0.7818608E-02  0.1130116E+00
         25   -1    0    0    0    0  0.00000000000E+00  0.00000000000E+00  0.99999998245E-14  0.12500000000E+03  0.12500000000E+03 0.  0.
        -13    1    3    3    0    0  0.40551470535E+02 -0.24187364463E+02 -0.68420605778E+01  0.47710327176E+02  0.10566000000E+00 0. -1.
         23    2    1    0    0    0 -0.64465842064E+01 -0.20057312927E+02 -0.19215584429E+02  0.96485215507E+02  0.92175397350E+02 0.  0.
         13    1    3    3    0    0 -0.46998054741E+02  0.41300515361E+01 -0.12373523851E+02  0.48774888331E+02  0.10566000000E+00 0.  1.
         22    1    1    0    0    0  0.64465842064E+01  0.20057312927E+02  0.19215584429E+02  0.28514784493E+02  0.00000000000E+00 0.  1.
</event>
<event>
 5    1  0.6903325E-004  0.9118800E+02  0.7818608E-02  0.1130116E+00
         25   -1    0    0    0    0  0.00000000000E+00  0.00000000000E+00  0.99999998245E-14  0.12500000000E+03  0.12500000000E+03 0.  0.
        -13    1    3    3    0    0 -0.18611666988E+02 -0.20705834960E+02 -0.49180240999E+02  0.56514007274E+02  0.10566000000E+00 0.  1.
         23    2    1    0    0    0 -0.25517308601E+02 -0.24083189159E+01 -0.16761762632E+02  0.94375014698E+02  0.89267875938E+02 0.  0.
         13    1    3    3    0    0 -0.69056416127E+01  0.18297516044E+02  0.32418478367E+02  0.37861007424E+02  0.10566000000E+00 0. -1.
         22    1    1    0    0    0  0.25517308601E+02  0.24083189159E+01  0.16761762632E+02  0.30624985302E+02  0.00000000000E+00 0.  1.
</event>
<event>
 5    1  0.6903325E-004  0.9118800E+02  0.7818608E-02  0.1130116E+00
         25   -1    0    0    0    0  0.00000000000E+00  0.00000000000E+00  0.99999998245E-14  0.12500000000E+03  0.12500000000E+03 0.  0.
        -13    1    3    3    0    0 -0.22007833161E+02  0.36579758260E+01  0.23292228003E+02  0.32253132514E+02  0.10566000000E+00 0. -1.
         23    2    1    0    0    0  0.68645485322E+01 -0.15739224709E+02 -0.26759939707E+02  0.93204723713E+02  0.87613816995E+02 0.  0.
         13    1    3    3    0    0  0.28872381693E+02 -0.19397200535E+02 -0.50052167710E+02  0.60951591200E+02  0.10566000000E+00 0.  1.
         22    1    1    0    0    0 -0.68645485322E+01  0.15739224709E+02  0.26759939707E+02  0.31795276287E+02  0.00000000000E+00 0.  1.
</event>
<event>
 5    1  0.6903325E-004  0.9118800E+02  0.7818608E-02  0.1130116E+00
         25   -1    0    0    0    0  0.00000000000E+00  0.00000000000E+00  0.99999998245E-14  0.12500000000E+03  0.12500000000E+03 0.  0.
        -13    1    3    3    0    0  0.50222472136E+01  0.20652727037E+02 -0.35102503021E+01  0.21542774249E+02  0.10566000000E+00 0.  1.
         23    2    1    0    0    0 -0.34482061345E+02 -0.16865067104E+02  0.20957598166E+02  0.81265986191E+02  0.68494500127E+02 0.  0.
         13    1    3    3    0    0 -0.39504308558E+02 -0.37517794141E+02  0.24467848468E+02  0.59723211941E+02  0.10566000000E+00 0. -1.
         22    1    1    0    0    0  0.34482061345E+02  0.16865067104E+02 -0.20957598166E+02  0.43734013809E+02  0.00000000000E+00 0. -1.
</event>
<event>
 5    1  0.6903325E-004  0.9118800E+02  0.7818608E-02  0.1130116E+00
         25   -1    0    0    0    0  0.00000000000E+00  0.00000000000E+00  0.99999998245E-14  0.12500000000E+03  0.12500000000E+03 0.  0.
        -13    1    3    3    0    0 -0.39900374970E+02 -0.21068424889E+01  0.32816039342E+02  0.51704761001E+02  0.10566000000E+00 0.  1.
         23    2    1    0    0    0  0.36215476105E+01  0.18431814781E+01  0.29159842525E+02  0.95558374006E+02  0.90909809710E+02 0.  0.
         13    1    3    3    0    0  0.43521922580E+02  0.39500239670E+01 -0.36561968168E+01  0.43853613006E+02  0.10566000000E+00 0. -1.
         22    1    1    0    0    0 -0.36215476105E+01 -0.18431814781E+01 -0.29159842525E+02  0.29441625994E+02  0.00000000000E+00 0. -1.
</event>
<event>
 5    1  0.6903325E-004  0.9118800E+02  0.7818608E-02  0.1130116E+00
         25   -1    0    0    0    0  0.00000000000E+00  0.00000000000E+00  0.99999998245E-14  0.12500000000E+03  0.12500000000E+03 0.  0.
        -13    1    3    3    0    0  0.42941048281E+01 -0.15271079100E+02 -0.21375705486E+02  0.26619112348E+02  0.10566000000E+00 0.  1.
         23    2    1    0    0    0 -0.25273094335E+02  0.22009828414E+02  0.16695789486E+02  0.87557894949E+02  0.79148428520E+02 0.  0.
         13    1    3    3    0    0 -0.29567199163E+02  0.37280907514E+02  0.38071494972E+02  0.60938782601E+02  0.10566000000E+00 0. -1.
         22    1    1    0    0    0  0.25273094335E+02 -0.22009828414E+02 -0.16695789486E+02  0.37442105051E+02  0.00000000000E+00 0. -1.
</event>
<event>
 5    1  0.6903325E-004  0.9118800E+02  0.7818608E-02  0.1130116E+00
         25   -1    0    0    0    0  0.00000000000E+00  0.00000000000E+00  0.99999998245E-14  0.12500000000E+03  0.12500000000E+03 0.  0.
        -13    1    3    3    0    0  0.24639854652E+02 -0.17209022615E+02  0.20889636516E+02  0.36601379406E+02  0.10566000000E+00 0.  1.
         23    2    1    0    0    0 -0.16076774208E+02  0.23059903507E+02  0.23634014435E+01  0.96789940003E+02  0.92587715172E+02 0.  0.
         13    1    3    3    0    0 -0.40716628860E+02  0.40268926121E+02 -0.18526235073E+02  0.60188560597E+02  0.10566000000E+00 0. -1.
         22    1    1    0    0    0  0.16076774208E+02 -0.23059903507E+02 -0.23634014435E+01  0.28210059997E+02  0.00000000000E+00 0. -1.
</event>
<event>
 5    1  0.6903325E-004  0.9118800E+02  0.7818608E-02  0.1130116E+00
         25   -1    0    0    0    0  0.00000000000E+00  0.00000000000E+00  0.99999998245E-14  0.12500000000E+03  0.12500000000E+03 0.  0.
        -13    1    3    3    0    0 -0.28554020829E+02  0.21569216043E+02 -0.18945137627E+02  0.40490648179E+02  0.10566000000E+00 0. -1.
         23    2    1    0    0    0 -0.96542330567E+01 -0.34485048436E+01  0.27002494646E+02  0.96116940629E+02  0.91674615664E+02 0.  0.
         13    1    3    3    0    0  0.18899787772E+02 -0.25017720887E+02  0.45947632273E+02  0.55626292450E+02  0.10566000000E+00 0.  1.
         22    1    1    0    0    0  0.96542330567E+01  0.34485048436E+01 -0.27002494646E+02  0.28883059371E+02  0.00000000000E+00 0.  1.
</event>
<event>
 5    1  0.6903325E-004  0.9118800E+02  0.7818608E-02  0.1130116E+00
         25   -1    0    0    0    0  0.00000000000E+00  0.00000000000E+00  0.99999998245E-14  0.12500000000E+03  0.12500000000E+03 0.  0.
        -13    1    3    3    0    0  0.27066524096E+01  0.27441074427E+02  0.21900724356E+01  0.27661274632E+02  0.10566000000E+00 0. -1.
         23    2    1    0    0    0  0.60326741327E+01 -0.23323755618E+02 -0.28971810239E+02  0.87320343396E+02  0.78772367293E+02 0.  0.
         13    1    3    3    0    0  0.33260217231E+01 -0.50764830044E+02 -0.31161882674E+02  0.59659068764E+02  0.10566000000E+00 0.  1.
         22    1    1    0    0    0 -0.60326741327E+01  0.23323755618E+02  0.28971810239E+02  0.37679656604E+02  0.00000000000E+00 0.  1.
</event>
<event>
 5    1  0.6903325E-004  0.9118800E+02  0.7818608E-02  0.1130116E+00
         25   -1    0    0    0    0  0.00000000000E+00  0.00000000000E+00  0.99999998245E-14  0.12500000000E+03  0.12500000000E+03 0.  0.
        -13    1    3    3    0    0 -0.52638874548E+02  0.24857285907E+01 -0.16353199622E+02  0.55176700357E+02  0.10566000000E+00 0. -1.
         23    2    1    0    0    0 -0.18432015826E+02  0.21646960736E+02 -0.97913040830E+01  0.94930085598E+02  0.90041775857E+02 0.  0.
         13    1    3    3    0    0  0.34206858723E+02  0.19161232146E+02  0.65618955390E+01  0.39753385241E+02  0.10566000000E+00 0.  1.
         22    1    1    0    0    0  0.18432015826E+02 -0.21646960736E+02  0.97913040830E+01  0.30069914402E+02  0.00000000000E+00 0. -1.
</event>
<event>
 5    1  0.6903325E-004  0.9118800E+02  0.7818608E-02  0.1130116E+00
         25   -1    0    0    0    0  0.00000000000E+00  0.00000000000E+00  0.99999998245E-14  0.12500000000E+03  0.12500000000E+03 0.  0.
        -13    1    3    3    0    0  0.21725389025E+02 -0.55605846516E+02 -0.17334528061E+02  0.62165100516E+02  0.10566000000E+00 0.  1.
         23    2    1    0    0    0  0.14030214561E+02 -0.23675444814E+02 -0.68954871170E+01  0.96628864134E+02  0.92369995309E+02 0.  0.
         13    1    3    3    0    0 -0.76951744641E+01  0.31930401702E+02  0.10439040944E+02  0.34463763618E+02  0.10566000000E+00 0. -1.
         22    1    1    0    0    0 -0.14030214561E+02  0.23675444814E+02  0.68954871170E+01  0.28371135866E+02  0.00000000000E+00 0.  1.
</event>
<event>
 5    1  0.6903325E-004  0.9118800E+02  0.7818608E-02  0.1130116E+00
         25   -1    0    0    0    0  0.00000000000E+00  0.00000000000E+00  0.99999998245E-14  0.12500000000E+03  0.12500000000E+03 0.  0.
        -13    1    3    3    0    0 -0.13159078943E+01  0.53218425143E+02 -0.53013630113E+01  0.53498112136E+02  0.10566000000E+00 0.  1.
         23    2    1    0    0    0  0.55041973195E+01  0.31360239489E+01 -0.18255597504E+02  0.10567649942E+03  0.10389477781E+03 0.  0.
         13    1    3    3    0    0  0.68201052138E+01 -0.50082401194E+02 -0.12954234493E+02  0.52178387287E+02  0.10566000000E+00 0. -1.
         22    1    1    0    0    0 -0.55041973195E+01 -0.31360239489E+01  0.18255597504E+02  0.19323500578E+02  0.00000000000E+00 0.  1.
</event>
<event>
 5    1  0.6903325E-004  0.9118800E+02  0.7818608E-02  0.1130116E+00
         25   -1    0    0    0    0  0.00000000000E+00  0.00000000000E+00  0.99999998245E-14  0.12500000000E+03  0.12500000000E+03 0.  0.
        -13    1    3    3    0    0  0.47074485772E+02 -0.22701664684E+02  0.60249876202E+00  0.52266116738E+02  0.10566000000E+00 0. -1.
         23    2    1    0    0    0  0.21426315870E+02  0.31409349633E+01 -0.21192056948E+02  0.94700564991E+02  0.89722579364E+02 0.  0.
         13    1    3    3    0    0 -0.25648169902E+02  0.25842599647E+02 -0.21794555710E+02  0.42434448252E+02  0.10566000000E+00 0.  1.
         22    1    1    0    0    0 -0.21426315870E+02 -0.31409349633E+01  0.21192056948E+02  0.30299435009E+02  0.00000000000E+00 0. -1.
</event>
<event>
 5    1  0.6903325E-004  0.9118800E+02  0.7818608E-02  0.1130116E+00
         25   -1    0    0    0    0  0.00000000000E+00  0.00000000000E+00  0.99999998245E-14  0.12500000000E+03  0.12500000000E+03 0.  0.
        -13    1    3    3    0    0  0.40428040200E+02  0.31876578834E+02  0.30319465467E+02  0.59748003003E+02  0.10566000000E+00 0. -1.
         23    2    1    0    0    0  0.12150856987E+02  0.25360344339E+02  0.10082101544E+02  0.95126279743E+02  0.90313730604E+02 0.  0.
         13    1    3    3    0    0 -0.28277183213E+02 -0.65162344951E+01 -0.20237363923E+02  0.35378276740E+02  0.10566000000E+00 0.  1.
         22    1    1    0    0    0 -0.12150856987E+02 -0.25360344339E+02 -0.10082101544E+02  0.29873720257E+02  0.00000000000E+00 0. -1.
</event>
<event>
 5    1  0.6903325E-004  0.9118800E+02  0.7818608E-02  0.1130116E+00
         25   -1    0    0    0    0  0.00000000000E+00  0.00000000000E+00  0.99999998245E-14  0.12500000000E+03  0.12500000000E+03 0.  0.
        -13    1    3    3    0    0 -0.28798505246E+02 -0.23051374263E+02 -0.71105577633E+01  0.37567152614E+02  0.10566000000E+00 0.  1.
         23    2    1    0    0    0  0.19016512582E+02 -0.77751502628E+01  0.21432523765E+02  0.95311049406E+02  0.90569102632E+02 0.  0.
         13    1    3    3    0    0  0.47815017828E+02  0.15276224000E+02  0.28543081529E+02  0.57743896792E+02  0.10566000000E+00 0. -1.
         22    1    1    0    0    0 -0.19016512582E+02  0.77751502628E+01 -0.21432523765E+02  0.29688950594E+02  0.00000000000E+00 0. -1.
</event>
<event>
 5    1  0.6903325E-004  0.9118800E+02  0.7818608E-02  0.1130116E+00
         25   -1    0    0    0    0  0.00000000000E+00  0.00000000000E+00  0.99999998245E-14  0.12500000000E+03  0.12500000000E+03 0.  0.
        -13    1    3    3    0    0  0.22982938677E+02 -0.11247323270E+02  0.21626128118E+02  0.33502512330E+02  0.10566000000E+00 0. -1.
         23    2    1    0    0    0 -0.26568562873E+02  0.93435053714E+01 -0.91821560963E+01  0.95377346231E+02  0.90660556791E+02 0.  0.
         13    1    3    3    0    0 -0.49551501550E+02  0.20590828642E+02 -0.30808284214E+02  0.61874833901E+02  0.10566000000E+00 0.  1.
         22    1    1    0    0    0  0.26568562873E+02 -0.93435053714E+01  0.91821560963E+01  0.29622653769E+02  0.00000000000E+00 0.  1.
</event>
<event>
 5    1  0.6903325E-004  0.9118800E+02  0.7818608E-02  0.1130116E+00
         25   -1    0    0    0    0  0.00000000000E+00  0.00000000000E+00  0.99999998245E-14  0.12500000000E+03  0.12500000000E+03 0.  0.
        -13    1    3    3    0    0  0.18001266296E+02  0.54381017531E+02 -0.24404063673E+02  0.62264838744E+02  0.10566000000E+00 0.  1.
         23    2    1    0    0    0  0.99391305525E+01  0.29476847723E+02 -0.90921961809E+01  0.92591067601E+02  0.86733885536E+02 0.  0.
         13    1    3    3    0    0 -0.80621357431E+01 -0.24904169808E+02  0.15311867492E+02  0.30326228857E+02  0.10566000000E+00 0. -1.
         22    1    1    0    0    0 -0.99391305525E+01 -0.29476847723E+02  0.90921961809E+01  0.32408932399E+02  0.00000000000E+00 0.  1.
</event>
<event>
 5    1  0.6903325E-004  0.9118800E+02  0.7818608E-02  0.1130116E+00
         25   -1    0    0    0    0  0.00000000000E+00  0.00000000000E+00  0.99999998245E-14  0.12500000000E+03  0.12500000000E+03 0.  0.
        -13    1    3    3    0    0  0.14315488631E+02 -0.27337801792E+02  0.14965615392E+02  0.34296784538E+02  0.10566000000E+00 0.  1.
         23    2    1    0    0    0  0.46184524975E+01  0.29975747054E+02 -0.12513510057E+01  0.94644746842E+02  0.89644780721E+02 0.  0.
         13    1    3    3    0    0 -0.96970361330E+01  0.57313548846E+02 -0.16216966398E+02  0.60347962304E+02  0.10566000000E+00 0. -1.
         22    1    1    0    0    0 -0.46184524975E+01 -0.29975747054E+02  0.12513510057E+01  0.30355253158E+02  0.00000000000E+00 0. -1.
</event>
<event>
 5    1  0.6903325E-004  0.9118800E+02  0.7818608E-02  0.1130116E+00
         25   -1    0    0    0    0  0.00000000000E+00  0.00000000000E+00  0.99999998245E-14  0.12500000000E+03  0.12500000000E+03 0.  0.
        -13    1    3    3    0    0 -0.98121827552E+01  0.47923802262E+02 -0.15271078157E+02  0.51246333974E+02  0.10566000000E+00 0. -1.
         23    2    1    0    0    0 -0.60222714567E+01  0.12198087941E+02 -0.31514954348E+02  0.90674303350E+02  0.83926014070E+02 0.  0.
         13    1    3    3    0    0  0.37899112985E+01 -0.35725714321E+02 -0.16243876191E+02  0.39427969376E+02  0.10566000000E+00 0.  1.
         22    1    1    0    0    0  0.60222714567E+01 -0.12198087941E+02  0.31514954348E+02  0.34325696650E+02  0.00000000000E+00 0. -1.
</event>
<event>
 5    1  0.6903325E-004  0.9118800E+02  0.7818608E-02  0.1130116E+00
         25   -1    0    0    0    0  0.00000000000E+00  0.00000000000E+00  0.99999998245E-14  0.12500000000E+03  0.12500000000E+03 0.  0.
        -13    1    3    3    0    0  0.63316284346E+01  0.35001186282E+02 -0.11542213727E+02  0.37395272717E+02  0.10566000000E+00 0.  1.
         23    2    1    0    0    0 -0.28491054832E+00 -0.23638906824E+02 -0.15807273252E+02  0.96561487776E+02  0.92278772987E+02 0.  0.
         13    1    3    3    0    0 -0.66165389829E+01 -0.58640093106E+02 -0.42650595252E+01  0.59166215059E+02  0.10566000000E+00 0. -1.
         22    1    1    0    0    0  0.28491054832E+00  0.23638906824E+02  0.15807273252E+02  0.28438512224E+02  0.00000000000E+00 0. -1.
</event>
<event>
 5    1  0.6903325E-004  0.9118800E+02  0.7818608E-02  0.1130116E+00
         25   -1    0    0    0    0  0.00000000000E+00  0.00000000000E+00  0.99999998245E-14  0.12500000000E+03  0.12500000000E+03 0.  0.
        -13    1    3    3    0    0 -0.85241177515E+01  0.58306354866E+01  0.40427697961E+02  0.41726092797E+02  0.10566000000E+00 0.  1.
         23    2    1    0    0    0 -0.59664832610E+01 -0.15983882017E+01 -0.20721181234E+02  0.10337776332E+03  0.10109125002E+03 0.  0.
         13    1    3    3    0    0  0.25576344905E+01 -0.74290236883E+01 -0.61148879196E+02  0.61651670522E+02  0.10566000000E+00 0. -1.
         22    1    1    0    0    0  0.59664832610E+01  0.15983882017E+01  0.20721181234E+02  0.21622236681E+02  0.00000000000E+00 0. -1.
</event>
<event>
 5    1  0.6903325E-004  0.9118800E+02  0.7818608E-02  0.1130116E+00
         25   -1    0    0    0    0  0.00000000000E+00  0.00000000000E+00  0.99999998245E-14  0.12500000000E+03  0.12500000000E+03 0.  0.
        -13    1    3    3    0    0 -0.84943784097E+01 -0.11135282982E+02  0.55576252038E+02  0.57313872198E+02  0.10566000000E+00 0.  1.
         23    2    1    0    0    0 -0.57147823773E+01  0.96720374673E+01  0.39995755324E+02  0.83456438642E+02  0.72381694235E+02 0.  0.
         13    1    3    3    0    0  0.27795960325E+01  0.20807320449E+02 -0.15580496714E+02  0.26142566444E+02  0.10566000000E+00 0. -1.
         22    1    1    0    0    0  0.57147823773E+01 -0.96720374673E+01 -0.39995755324E+02  0.41543561358E+02  0.00000000000E+00 0.  1.
</event>
<event>
 5    1  0.6903325E-004  0.9118800E+02  0.7818608E-02  0.1130116E+00
         25   -1    0    0    0    0  0.00000000000E+00  0.00000000000E+00  0.99999998245E-14  0.12500000000E+03  0.12500000000E+03 0.  0.
        -13    1    3    3    0    0 -0.30401600178E+00  0.96692481551E+01 -0.35940967366E+02  0.37220304739E+02  0.10566000000E+00 0.  1.
         23    2    1    0    0    0 -0.21297777556E+02  0.14122283598E+02  0.16974060604E+02  0.94321783686E+02  0.89193306483E+02 0.  0.
         13    1    3    3    0    0 -0.20993761554E+02  0.44530354433E+01  0.52915027970E+02  0.57101478947E+02  0.10566000000E+00 0. -1.
         22    1    1    0    0    0  0.21297777556E+02 -0.14122283598E+02 -0.16974060604E+02  0.30678216314E+02  0.00000000000E+00 0. -1.
</event>
<event>
 5    1  0.6903325E-004  0.9118800E+02  0.7818608E-02  0.1130116E+00
         25   -1    0    0    0    0  0.00000000000E+00  0.00000000000E+00  0.99999998245E-14  0.12500000000E+03  0.12500000000E+03 0.  0.
        -13    1    3    3    0    0 -0.20628467140E+02 -0.33413768413E+02  0.17307757410E+01  0.39306746556E+02  0.10566000000E+00 0. -1.
         23    2    1    0    0    0  0.84409525626E+01  0.11170252830E+02  0.24170222371E+02  0.97067512143E+02  0.92961701983E+02 0.  0.
         13    1    3    3    0    0  0.29069419703E+02  0.44584021243E+02  0.22439446630E+02  0.57760765587E+02  0.10566000000E+00 0.  1.
         22    1    1    0    0    0 -0.84409525626E+01 -0.11170252830E+02 -0.24170222371E+02  0.27932487857E+02  0.00000000000E+00 0.  1.
</event>
<event>
 5    1  0.6903325E-004  0.9118800E+02  0.7818608E-02  0.1130116E+00
         25   -1    0    0    0    0  0.00000000000E+00  0.00000000000E+00  0.99999998245E-14  0.12500000000E+03  0.12500000000E+03 0.  0.
        -13    1    3    3    0    0 -0.49661687499E+02 -0.28246735575E+02  0.13795915826E+01  0.57149590662E+02  0.10566000000E+00 0.  1.
         23    2    1    0    0    0 -0.16712386916E+02 -0.15973632809E+02 -0.16501824722E+02  0.96596284738E+02  0.92325896608E+02 0.  0.
         13    1    3    3    0    0  0.32949300583E+02  0.12273102766E+02 -0.17881416304E+02  0.39446694075E+02  0.10566000000E+00 0. -1.
         22    1    1    0    0    0  0.16712386916E+02  0.15973632809E+02  0.16501824722E+02  0.28403715262E+02  0.00000000000E+00 0.  1.
</event>
<event>
 5    1  0.6903325E-004  0.9118800E+02  0.7818608E-02  0.1130116E+00
         25   -1    0    0    0    0  0.00000000000E+00  0.00000000000E+00  0.99999998245E-14  0.12500000000E+03  0.12500000000E+03 0.  0.
        -13    1    3    3    0    0 -0.23627595999E+02 -0.20994880259E+02  0.76892745644E+01  0.32529746344E+02  0.10566000000E+00 0.  1.
         23    2    1    0    0    0  0.11236637280E+02  0.28752218549E+02 -0.20887575034E+01  0.94059492623E+02  0.88824957955E+02 0.  0.
         13    1    3    3    0    0  0.34864233280E+02  0.49747098808E+02 -0.97780320679E+01  0.61529746279E+02  0.10566000000E+00 0. -1.
         22    1    1    0    0    0 -0.11236637280E+02 -0.28752218549E+02  0.20887575034E+01  0.30940507377E+02  0.00000000000E+00 0. -1.
</event>
<event>
 5    1  0.6903325E-004  0.9118800E+02  0.7818608E-02  0.1130116E+00
         25   -1    0    0    0    0  0.00000000000E+00  0.00000000000E+00  0.99999998245E-14  0.12500000000E+03  0.12500000000E+03 0.  0.
        -13    1    3    3    0    0  0.44756750982E+02 -0.28203995451E+02 -0.10395128675E+02  0.53913838502E+02  0.10566000000E+00 0.  1.
         23    2    1    0    0    0  0.12063231287E+02 -0.23431508588E+02  0.14162749033E+02  0.95081099553E+02  0.90251176659E+02 0.  0.
         13    1    3    3    0    0 -0.32693519695E+02  0.47724868632E+01  0.24557877708E+02  0.41167261051E+02  0.10566000000E+00 0. -1.
         22    1    1    0    0    0 -0.12063231287E+02  0.23431508588E+02 -0.14162749033E+02  0.29918900447E+02  0.00000000000E+00 0.  1.
</event>
<event>
 5    1  0.6903325E-004  0.9118800E+02  0.7818608E-02  0.1130116E+00
         25   -1    0    0    0    0  0.00000000000E+00  0.00000000000E+00  0.99999998245E-14  0.12500000000E+03  0.12500000000E+03 0.  0.
        -13    1    3    3    0    0  0.75460801903E+01 -0.36675593709E+02  0.15149817396E+02  0.40392705175E+02  0.10566000000E+00 0.  1.
         23    2    1    0    0    0  0.20331811870E+02  0.17480805505E+02  0.10399672135E+02  0.96240404809E+02  0.91842807026E+02 0.  0.
         13    1    3    3    0    0  0.12785731680E+02  0.54156399214E+02 -0.47501452611E+01  0.55847699635E+02  0.10566000000E+00 0. -1.
         22    1    1    0    0    0 -0.20331811870E+02 -0.17480805505E+02 -0.10399672135E+02  0.28759595191E+02  0.00000000000E+00 0. -1.
</event>
<event>
 5    1  0.6903325E-004  0.9118800E+02  0.7818608E-02  0.1130116E+00
         25   -1    0    0    0    0  0.00000000000E+00  0.00000000000E+00  0.99999998245E-14  0.12500000000E+03  0.12500000000E+03 0.  0.
        -13    1    3    3    0    0  0.26317976321E+02  0.13615563926E+02 -0.39455049945E+02  0.49342999391E+02  0.10566000000E+00 0.  1.
         23    2    1    0    0    0 -0.10356110902E+02  0.24179654294E+02 -0.14200297439E+02  0.95107640405E+02  0.90287928879E+02 0.  0.
         13    1    3    3    0    0 -0.36674087224E+02  0.10564090367E+02  0.25254752506E+02  0.45764641014E+02  0.10566000000E+00 0. -1.
         22    1    1    0    0    0  0.10356110902E+02 -0.24179654294E+02  0.14200297439E+02  0.29892359595E+02  0.00000000000E+00 0. -1.
</event>
<event>
 5    1  0.6903325E-004  0.9118800E+02  0.7818608E-02  0.1130116E+00
         25   -1    0    0    0    0  0.00000000000E+00  0.00000000000E+00  0.99999998245E-14  0.12500000000E+03  0.12500000000E+03 0.  0.
        -13    1    3    3    0    0  0.14201044605E+02 -0.43454742070E+02  0.83497909937E+01  0.46472728024E+02  0.10566000000E+00 0. -1.
         23    2    1    0    0    0  0.10101164291E+02 -0.31688086957E+02 -0.25852946091E+02  0.82874672742E+02  0.71369938948E+02 0.  0.
         13    1    3    3    0    0 -0.40998803141E+01  0.11766655113E+02 -0.34202737085E+02  0.36401944718E+02  0.10566000000E+00 0.  1.
         22    1    1    0    0    0 -0.10101164291E+02  0.31688086957E+02  0.25852946091E+02  0.42125327258E+02  0.00000000000E+00 0. -1.
</event>
<event>
 5    1  0.6903325E-004  0.9118800E+02  0.7818608E-02  0.1130116E+00
         25   -1    0    0    0    0  0.00000000000E+00  0.00000000000E+00  0.99999998245E-14  0.12500000000E+03  0.12500000000E+03 0.  0.
        -13    1    3    3    0    0 -0.38490971532E+02 -0.39793034347E+01  0.37477815083E+02  0.53870098688E+02  0.10566000000E+00 0. -1.
         23    2    1    0    0    0 -0.26809467220E+02 -0.11028517537E+02 -0.22968856874E+01  0.95919913764E+02  0.91405571170E+02 0.  0.
         13    1    3    3    0    0  0.11681504312E+02 -0.70492141022E+01 -0.39774700770E+02  0.42049815075E+02  0.10566000000E+00 0.  1.
         22    1    1    0    0    0  0.26809467220E+02  0.11028517537E+02  0.22968856874E+01  0.29080086236E+02  0.00000000000E+00 0. -1.
</event>
<event>
 5    1  0.6903325E-004  0.9118800E+02  0.7818608E-02  0.1130116E+00
         25   -1    0    0    0    0  0.00000000000E+00  0.00000000000E+00  0.99999998245E-14  0.12500000000E+03  0.12500000000E+03 0.  0.
        -13    1    3    3    0    0 -0.10185844300E+02 -0.32500726939E+02  0.80404887965E+01  0.34995846893E+02  0.10566000000E+00 0.  1.
         23    2    1    0    0    0 -0.35681076258E+01  0.18959550960E+02 -0.22626321963E+02  0.95265400453E+02  0.90506077770E+02 0.  0.
         13    1    3    3    0    0  0.66177366741E+01  0.51460277899E+02 -0.30666810759E+02  0.60269553560E+02  0.10566000000E+00 0. -1.
         22    1    1    0    0    0  0.35681076258E+01 -0.18959550960E+02  0.22626321963E+02  0.29734599547E+02  0.00000000000E+00 0. -1.
</event>
<event>
 5    1  0.6903325E-004  0.9118800E+02  0.7818608E-02  0.1130116E+00
         25   -1    0    0    0    0  0.00000000000E+00  0.00000000000E+00  0.99999998245E-14  0.12500000000E+03  0.12500000000E+03 0.  0.
        -13    1    3    3    0    0 -0.26219423834E+02 -0.13069142943E+02 -0.49855815648E+02  0.57826241460E+02  0.10566000000E+00 0. -1.
         23    2    1    0    0    0 -0.57693382051E+01  0.94300975489E+01 -0.26879709153E+02  0.95935747606E+02  0.91427221884E+02 0.  0.
         13    1    3    3    0    0  0.20450085629E+02  0.22499240492E+02  0.22976106495E+02  0.38109506146E+02  0.10566000000E+00 0.  1.
         22    1    1    0    0    0  0.57693382051E+01 -0.94300975489E+01  0.26879709153E+02  0.29064252394E+02  0.00000000000E+00 0. -1.
</event>
<event>
 5    1  0.6903325E-004  0.9118800E+02  0.7818608E-02  0.1130116E+00
         25   -1    0    0    0    0  0.00000000000E+00  0.00000000000E+00  0.99999998245E-14  0.12500000000E+03  0.12500000000E+03 0.  0.
        -13    1    3    3    0    0 -0.48032341318E+02 -0.34481583832E+02 -0.12242410323E+02  0.60381894725E+02  0.10566000000E+00 0.  1.
         23    2    1    0    0    0 -0.26096382209E+02 -0.23251053792E+02  0.38835878265E+01  0.89833042196E+02  0.82663538207E+02 0.  0.
         13    1    3    3    0    0  0.21935959109E+02  0.11230530040E+02  0.16125998149E+02  0.29451147471E+02  0.10566000000E+00 0. -1.
         22    1    1    0    0    0  0.26096382209E+02  0.23251053792E+02 -0.38835878265E+01  0.35166957804E+02  0.00000000000E+00 0.  1.
</event>
<event>
 5    1  0.6903325E-004  0.9118800E+02  0.7818608E-02  0.1130116E+00
         25   -1    0    0    0    0  0.00000000000E+00  0.00000000000E+00  0.99999998245E-14  0.12500000000E+03  0.12500000000E+03 0.  0.
        -13    1    3    3    0    0  0.12432258576E+02  0.33717498268E+02  0.11166874569E+02  0.37631648840E+02  0.10566000000E+00 0.  1.
         23    2    1    0    0    0  0.14185062974E+02 -0.24337645740E+02  0.76012143777E+01  0.95822689093E+02  0.91272516527E+02 0.  0.
         13    1    3    3    0    0  0.17528043975E+01 -0.58055144008E+02 -0.35656601914E+01  0.58191040253E+02  0.10566000000E+00 0. -1.
         22    1    1    0    0    0 -0.14185062974E+02  0.24337645740E+02 -0.76012143777E+01  0.29177310907E+02  0.00000000000E+00 0. -1.
</event>
<event>
 5    1  0.6903325E-004  0.9118800E+02  0.7818608E-02  0.1130116E+00
         25   -1    0    0    0    0  0.00000000000E+00  0.00000000000E+00  0.99999998245E-14  0.12500000000E+03  0.12500000000E+03 0.  0.
        -13    1    3    3    0    0 -0.83507998931E+01 -0.18564351148E+02  0.39462099720E+02  0.44403147081E+02  0.10566000000E+00 0. -1.
         23    2    1    0    0    0  0.23234706353E+02 -0.18947553399E+02 -0.87209109107E-01  0.95018856517E+02  0.90164927379E+02 0.  0.
         13    1    3    3    0    0  0.31585506246E+02 -0.38320225102E+00 -0.39549308829E+02  0.50615709436E+02  0.10566000000E+00 0.  1.
         22    1    1    0    0    0 -0.23234706353E+02  0.18947553399E+02  0.87209109107E-01  0.29981143483E+02  0.00000000000E+00 0.  1.
</event>
<event>
 5    1  0.6903325E-004  0.9118800E+02  0.7818608E-02  0.1130116E+00
         25   -1    0    0    0    0  0.00000000000E+00  0.00000000000E+00  0.99999998245E-14  0.12500000000E+03  0.12500000000E+03 0.  0.
        -13    1    3    3    0    0  0.43907441151E+01  0.11010033547E+02  0.33533492680E+02  0.35566919573E+02  0.10566000000E+00 0. -1.
         23    2    1    0    0    0  0.44949423270E+01  0.77371878511E+01 -0.27188318985E+02  0.96377049914E+02  0.92028595983E+02 0.  0.
         13    1    3    3    0    0  0.10419821188E+00 -0.32728456958E+01 -0.60721811665E+02  0.60810130341E+02  0.10566000000E+00 0.  1.
         22    1    1    0    0    0 -0.44949423270E+01 -0.77371878511E+01  0.27188318985E+02  0.28622950086E+02  0.00000000000E+00 0.  1.
</event>
<event>
 5    1  0.6903325E-004  0.9118800E+02  0.7818608E-02  0.1130116E+00
         25   -1    0    0    0    0  0.00000000000E+00  0.00000000000E+00  0.99999998245E-14  0.12500000000E+03  0.12500000000E+03 0.  0.
        -13    1    3    3    0    0 -0.17689815016E+02  0.28767864716E+02  0.34875116433E+02  0.48546930962E+02  0.10566000000E+00 0.  1.
         23    2    1    0    0    0 -0.25887323573E+02 -0.82401792930E+01  0.37869675216E+01  0.97570176822E+02  0.93635165433E+02 0.  0.
         13    1    3    3    0    0 -0.81975085564E+01 -0.37008044009E+02 -0.31088148911E+02  0.49023245860E+02  0.10566000000E+00 0. -1.
         22    1    1    0    0    0  0.25887323573E+02  0.82401792930E+01 -0.37869675216E+01  0.27429823178E+02  0.00000000000E+00 0. -1.
</event>
<event>
 5    1  0.6903325E-004  0.9118800E+02  0.7818608E-02  0.1130116E+00
         25   -1    0    0    0    0  0.00000000000E+00  0.00000000000E+00  0.99999998245E-14  0.12500000000E+03  0.12500000000E+03 0.  0.
        -13    1    3    3    0    0  0.18317410214E+01 -0.56476303240E+02 -0.10921890641E+02  0.57551950115E+02  0.10566000000E+00 0.  1.
         23    2    1    0    0    0  0.49239319649E+01 -0.17064292039E+02 -0.20141874353E+02  0.98146131168E+02  0.94400915207E+02 0.  0.
         13    1    3    3    0    0  0.30921909435E+01  0.39412011200E+02 -0.92199837121E+01  0.40594181053E+02  0.10566000000E+00 0. -1.
         22    1    1    0    0    0 -0.49239319649E+01  0.17064292039E+02  0.20141874353E+02  0.26853868832E+02  0.00000000000E+00 0.  1.
</event>
<event>
 5    1  0.6903325E-004  0.9118800E+02  0.7818608E-02  0.1130116E+00
         25   -1    0    0    0    0  0.00000000000E+00  0.00000000000E+00  0.99999998245E-14  0.12500000000E+03  0.12500000000E+03 0.  0.
        -13    1    3    3    0    0  0.19746365993E+02 -0.23480417428E+02 -0.36867121030E+02  0.47962951844E+02  0.10566000000E+00 0. -1.
         23    2    1    0    0    0  0.29331014091E+02 -0.21766395366E+01  0.42795072190E+01  0.95278621679E+02  0.90524336064E+02 0.  0.
         13    1    3    3    0    0  0.95846480977E+01  0.21303777891E+02  0.41146628249E+02  0.47315669835E+02  0.10566000000E+00 0.  1.
         22    1    1    0    0    0 -0.29331014091E+02  0.21766395366E+01 -0.42795072190E+01  0.29721378321E+02  0.00000000000E+00 0. -1.
</event>
<event>
 5    1  0.6903325E-004  0.9118800E+02  0.7818608E-02  0.1130116E+00
         25   -1    0    0    0    0  0.00000000000E+00  0.00000000000E+00  0.99999998245E-14  0.12500000000E+03  0.12500000000E+03 0.  0.
        -13    1    3    3    0    0  0.36689943113E+02 -0.45094712114E+02  0.17286538353E+02  0.60650808391E+02  0.10566000000E+00 0.  1.
         23    2    1    0    0    0  0.10794971789E+02 -0.28920111571E+02  0.42871713578E+01  0.93834568710E+02  0.88507865060E+02 0.  0.
         13    1    3    3    0    0 -0.25894971324E+02  0.16174600542E+02 -0.12999366995E+02  0.33183760319E+02  0.10566000000E+00 0. -1.
         22    1    1    0    0    0 -0.10794971789E+02  0.28920111571E+02 -0.42871713578E+01  0.31165431290E+02  0.00000000000E+00 0.  1.
</event>
<event>
 5    1  0.6903325E-004  0.9118800E+02  0.7818608E-02  0.1130116E+00
         25   -1    0    0    0    0  0.00000000000E+00  0.00000000000E+00  0.99999998245E-14  0.12500000000E+03  0.12500000000E+03 0.  0.
        -13    1    3    3    0    0 -0.36504391112E+02 -0.93028019420E+01 -0.35509083813E+02  0.51768898884E+02  0.10566000000E+00 0.  1.
         23    2    1    0    0    0 -0.72216167273E+01 -0.27580629853E+02 -0.96461546412E+01  0.94901973643E+02  0.90002741129E+02 0.  0.
         13    1    3    3    0    0  0.29282774384E+02 -0.18277827911E+02  0.25862929172E+02  0.43133074759E+02  0.10566000000E+00 0. -1.
         22    1    1    0    0    0  0.72216167273E+01  0.27580629853E+02  0.96461546412E+01  0.30098026357E+02  0.00000000000E+00 0.  1.
</event>
<event>
 5    1  0.6903325E-004  0.9118800E+02  0.7818608E-02  0.1130116E+00
         25   -1    0    0    0    0  0.00000000000E+00  0.00000000000E+00  0.99999998245E-14  0.12500000000E+03  0.12500000000E+03 0.  0.
        -13    1    3    3    0    0  0.37952915723E+02  0.25981259335E+02 -0.33813079560E+02  0.57085770222E+02  0.10566000000E+00 0.  1.
         23    2    1    0    0    0  0.39709106501E+01  0.90556536065E+01 -0.27762865672E+02  0.95528832667E+02  0.90869181612E+02 0.  0.
         13    1    3    3    0    0 -0.33982005073E+02 -0.16925605728E+02  0.60502138886E+01  0.38443062445E+02  0.10566000000E+00 0. -1.
         22    1    1    0    0    0 -0.39709106501E+01 -0.90556536065E+01  0.27762865672E+02  0.29471167333E+02  0.00000000000E+00 0.  1.
</event>
<event>
 5    1  0.6903325E-004  0.9118800E+02  0.7818608E-02  0.1130116E+00
         25   -1    0    0    0    0  0.00000000000E+00  0.00000000000E+00  0.99999998245E-14  0.12500000000E+03  0.12500000000E+03 0.  0.
        -13    1    3    3    0    0 -0.32321105083E+02  0.14840686314E+02 -0.68355725408E+01  0.36216515846E+02  0.10566000000E+00 0.  1.
         23    2    1    0    0    0  0.19900206614E+02 -0.15521708762E+02 -0.12403318071E+02  0.96879118695E+02  0.92708034570E+02 0.  0.
         13    1    3    3    0    0  0.52221311697E+02 -0.30362395076E+02 -0.55677455302E+01  0.60662602849E+02  0.10566000000E+00 0. -1.
         22    1    1    0    0    0 -0.19900206614E+02  0.15521708762E+02  0.12403318071E+02  0.28120881305E+02  0.00000000000E+00 0. -1.
</event>
<event>
 5    1  0.6903325E-004  0.9118800E+02  0.7818608E-02  0.1130116E+00
         25   -1    0    0    0    0  0.00000000000E+00  0.00000000000E+00  0.99999998245E-14  0.12500000000E+03  0.12500000000E+03 0.  0.
        -13    1    3    3    0    0 -0.32502413590E+02  0.61223122831E+01  0.30104226451E+02  0.44723206628E+02  0.10566000000E+00 0.  1.
         23    2    1    0    0    0  0.14499763656E+02 -0.14478056716E+02  0.18624681053E+02  0.97310001505E+02  0.93287192991E+02 0.  0.
         13    1    3    3    0    0  0.47002177246E+02 -0.20600368999E+02 -0.11479545397E+02  0.52586794876E+02  0.10566000000E+00 0. -1.
         22    1    1    0    0    0 -0.14499763656E+02  0.14478056716E+02 -0.18624681053E+02  0.27689998495E+02  0.00000000000E+00 0. -1.
</event>
<event>
 5    1  0.6903325E-004  0.9118800E+02  0.7818608E-02  0.1130116E+00
         25   -1    0    0    0    0  0.00000000000E+00  0.00000000000E+00  0.99999998245E-14  0.12500000000E+03  0.12500000000E+03 0.  0.
        -13    1    3    3    0    0 -0.13891360251E+02  0.47053652788E+02 -0.23515628274E+02  0.54405992937E+02  0.10566000000E+00 0. -1.
         23    2    1    0    0    0 -0.25573527864E+02  0.13818582306E+02 -0.16154512100E+01  0.95886974960E+02  0.91360515213E+02 0.  0.
         13    1    3    3    0    0 -0.11682167613E+02 -0.33235070482E+02  0.21900177064E+02  0.41480982022E+02  0.10566000000E+00 0.  1.
         22    1    1    0    0    0  0.25573527864E+02 -0.13818582306E+02  0.16154512100E+01  0.29113025040E+02  0.00000000000E+00 0. -1.
</event>
<event>
 5    1  0.6903325E-004  0.9118800E+02  0.7818608E-02  0.1130116E+00
         25   -1    0    0    0    0  0.00000000000E+00  0.00000000000E+00  0.99999998245E-14  0.12500000000E+03  0.12500000000E+03 0.  0.
        -13    1    3    3    0    0 -0.23346425562E+02  0.36926752939E+02 -0.41613898661E+02  0.60335465482E+02  0.10566000000E+00 0.  1.
         23    2    1    0    0    0 -0.20688140218E+02  0.14158131884E+02 -0.13782026291E+02  0.96392377015E+02  0.92049412024E+02 0.  0.
         13    1    3    3    0    0  0.26582853438E+01 -0.22768621054E+02  0.27831872370E+02  0.36056911534E+02  0.10566000000E+00 0. -1.
         22    1    1    0    0    0  0.20688140218E+02 -0.14158131884E+02  0.13782026291E+02  0.28607622985E+02  0.00000000000E+00 0.  1.
</event>
<event>
 5    1  0.6903325E-004  0.9118800E+02  0.7818608E-02  0.1130116E+00
         25   -1    0    0    0    0  0.00000000000E+00  0.00000000000E+00  0.99999998245E-14  0.12500000000E+03  0.12500000000E+03 0.  0.
        -13    1    3    3    0    0  0.45312385134E+02 -0.20641704796E+02  0.32320694569E+02  0.59362704495E+02  0.10566000000E+00 0.  1.
         23    2    1    0    0    0  0.24991216811E+02 -0.82257765475E+00  0.26921634503E+02  0.88257491158E+02  0.80245702623E+02 0.  0.
         13    1    3    3    0    0 -0.20321168323E+02  0.19819127142E+02 -0.53990600664E+01  0.28894786663E+02  0.10566000000E+00 0. -1.
         22    1    1    0    0    0 -0.24991216811E+02  0.82257765475E+00 -0.26921634503E+02  0.36742508842E+02  0.00000000000E+00 0.  1.
</event>
<event>
 5    1  0.6903325E-004  0.9118800E+02  0.7818608E-02  0.1130116E+00
         25   -1    0    0    0    0  0.00000000000E+00  0.00000000000E+00  0.99999998245E-14  0.12500000000E+03  0.12500000000E+03 0.  0.
        -13    1    3    3    0    0  0.13026636383E+02 -0.17348236106E+02 -0.43021658644E+02  0.48182245983E+02  0.10566000000E+00 0.  1.
         23    2    1    0    0    0  0.28150121278E+02  0.57571487261E+01 -0.39951960961E+01  0.95990765587E+02  0.91502411972E+02 0.  0.
         13    1    3    3    0    0  0.15123484895E+02  0.23105384832E+02  0.39026462548E+02  0.47808519604E+02  0.10566000000E+00 0. -1.
         22    1    1    0    0    0 -0.28150121278E+02 -0.57571487261E+01  0.39951960961E+01  0.29009234413E+02  0.00000000000E+00 0.  1.
</event>
<event>
 5    1  0.6903325E-004  0.9118800E+02  0.7818608E-02  0.1130116E+00
         25   -1    0    0    0    0  0.00000000000E+00  0.00000000000E+00  0.99999998245E-14  0.12500000000E+03  0.12500000000E+03 0.  0.
        -13    1    3    3    0    0  0.50478468621E+01 -0.39162524487E+02 -0.44031499749E+02  0.59143623632E+02  0.10566000000E+00 0.  1.
         23    2    1    0    0    0 -0.67645969332E+01 -0.24754253868E+02 -0.10974141571E+02  0.97090061994E+02  0.92992018467E+02 0.  0.
         13    1    3    3    0    0 -0.11812443795E+02  0.14408270619E+02  0.33057358178E+02  0.37946438362E+02  0.10566000000E+00 0. -1.
         22    1    1    0    0    0  0.67645969332E+01  0.24754253868E+02  0.10974141571E+02  0.27909938006E+02  0.00000000000E+00 0.  1.
</event>
<event>
 5    1  0.6903325E-004  0.9118800E+02  0.7818608E-02  0.1130116E+00
         25   -1    0    0    0    0  0.00000000000E+00  0.00000000000E+00  0.99999998245E-14  0.12500000000E+03  0.12500000000E+03 0.  0.
        -13    1    3    3    0    0 -0.25278250155E+02 -0.47440891441E+02  0.27767943748E+02  0.60503702164E+02  0.10566000000E+00 0.  1.
         23    2    1    0    0    0 -0.16347019238E+02 -0.14518872440E+02  0.19730171121E+02  0.95550002591E+02  0.90898298377E+02 0.  0.
         13    1    3    3    0    0  0.89312309165E+01  0.32922019001E+02 -0.80377726266E+01  0.35046300427E+02  0.10566000000E+00 0. -1.
         22    1    1    0    0    0  0.16347019238E+02  0.14518872440E+02 -0.19730171121E+02  0.29449997409E+02  0.00000000000E+00 0.  1.
</event>
<event>
 5    1  0.6903325E-004  0.9118800E+02  0.7818608E-02  0.1130116E+00
         25   -1    0    0    0    0  0.00000000000E+00  0.00000000000E+00  0.99999998245E-14  0.12500000000E+03  0.12500000000E+03 0.  0.
        -13    1    3    3    0    0 -0.39015046200E+01  0.10771658167E+02 -0.31560044989E+02  0.33575258178E+02  0.10566000000E+00 0.  1.
         23    2    1    0    0    0  0.91971794425E+01 -0.17986051457E+02  0.21604472981E+02  0.95422315684E+02  0.90722538109E+02 0.  0.
         13    1    3    3    0    0  0.13098684063E+02 -0.28757709624E+02  0.53164517971E+02  0.61847057505E+02  0.10566000000E+00 0. -1.
         22    1    1    0    0    0 -0.91971794425E+01  0.17986051457E+02 -0.21604472981E+02  0.29577684316E+02  0.00000000000E+00 0. -1.
</event>
<event>
 5    1  0.6903325E-004  0.9118800E+02  0.7818608E-02  0.1130116E+00
         25   -1    0    0    0    0  0.00000000000E+00  0.00000000000E+00  0.99999998245E-14  0.12500000000E+03  0.12500000000E+03 0.  0.
        -13    1    3    3    0    0  0.42633787964E+02  0.28265255698E+02  0.34682850480E+02  0.61801908039E+02  0.10566000000E+00 0.  1.
         23    2    1    0    0    0  0.21886568191E+02  0.73468220099E+01  0.18494211428E+02  0.95419034547E+02  0.90718017156E+02 0.  0.
         13    1    3    3    0    0 -0.20747219773E+02 -0.20918433688E+02 -0.16188639052E+02  0.33617126508E+02  0.10566000000E+00 0. -1.
         22    1    1    0    0    0 -0.21886568191E+02 -0.73468220099E+01 -0.18494211428E+02  0.29580965453E+02  0.00000000000E+00 0.  1.
</event>
<event>
 5    1  0.6903325E-004  0.9118800E+02  0.7818608E-02  0.1130116E+00
         25   -1    0    0    0    0  0.00000000000E+00  0.00000000000E+00  0.99999998245E-14  0.12500000000E+03  0.12500000000E+03 0.  0.
        -13    1    3    3    0    0  0.17802775607E+02 -0.36886070160E+02 -0.53122617093E+01  0.41300753984E+02  0.10566000000E+00 0.  1.
         23    2    1    0    0    0 -0.27049664410E+02 -0.14145255968E+02 -0.12335186928E+02  0.92076916188E+02  0.85989703146E+02 0.  0.
         13    1    3    3    0    0 -0.44852440017E+02  0.22740814191E+02 -0.70229252191E+01  0.50776162204E+02  0.10566000000E+00 0. -1.
         22    1    1    0    0    0  0.27049664410E+02  0.14145255968E+02  0.12335186928E+02  0.32923083812E+02  0.00000000000E+00 0. -1.
</event>
<event>
 5    1  0.6903325E-004  0.9118800E+02  0.7818608E-02  0.1130116E+00
         25   -1    0    0    0    0  0.00000000000E+00  0.00000000000E+00  0.99999998245E-14  0.12500000000E+03  0.12500000000E+03 0.  0.
        -13    1    3    3    0    0 -0.19305395376E+02  0.16985040279E+02 -0.38146478818E+02  0.46003857383E+02  0.10566000000E+00 0.  1.
         23    2    1    0    0    0 -0.17185504732E+02  0.19008378492E+02  0.12327975301E+02  0.96563421429E+02  0.92281392259E+02 0.  0.
         13    1    3    3    0    0  0.21198906439E+01  0.20233382137E+01  0.50474454119E+02  0.50559564046E+02  0.10566000000E+00 0. -1.
         22    1    1    0    0    0  0.17185504732E+02 -0.19008378492E+02 -0.12327975301E+02  0.28436578571E+02  0.00000000000E+00 0. -1.
</event>
<event>
 5    1  0.6903325E-004  0.9118800E+02  0.7818608E-02  0.1130116E+00
         25   -1    0    0    0    0  0.00000000000E+00  0.00000000000E+00  0.99999998245E-14  0.12500000000E+03  0.12500000000E+03 0.  0.
        -13    1    3    3    0    0  0.16880913537E+01 -0.29495917722E+01  0.20817427297E+02  0.21093273509E+02  0.10566000000E+00 0.  1.
         23    2    1    0    0    0  0.46888641293E+02  0.64247206739E+01 -0.10040698005E+02  0.76619866325E+02  0.59413521872E+02 0.  0.
         13    1    3    3    0    0  0.45200549939E+02  0.93743124461E+01 -0.30858125301E+02  0.55526592816E+02  0.10566000000E+00 0. -1.
         22    1    1    0    0    0 -0.46888641293E+02 -0.64247206739E+01  0.10040698005E+02  0.48380133675E+02  0.00000000000E+00 0. -1.
</event>
<event>
 5    1  0.6903325E-004  0.9118800E+02  0.7818608E-02  0.1130116E+00
         25   -1    0    0    0    0  0.00000000000E+00  0.00000000000E+00  0.99999998245E-14  0.12500000000E+03  0.12500000000E+03 0.  0.
        -13    1    3    3    0    0  0.34732094414E+02  0.30625891285E+02  0.75610605717E+01  0.46919552432E+02  0.10566000000E+00 0.  1.
         23    2    1    0    0    0 -0.58375534354E+01 -0.11045297882E+02 -0.11396591632E+02  0.10808970916E+03  0.10675873402E+03 0.  0.
         13    1    3    3    0    0 -0.40569647849E+02 -0.41671189167E+02 -0.18957652204E+02  0.61170156730E+02  0.10566000000E+00 0. -1.
         22    1    1    0    0    0  0.58375534354E+01  0.11045297882E+02  0.11396591632E+02  0.16910290838E+02  0.00000000000E+00 0. -1.
</event>
<event>
 5    1  0.6903325E-004  0.9118800E+02  0.7818608E-02  0.1130116E+00
         25   -1    0    0    0    0  0.00000000000E+00  0.00000000000E+00  0.99999998245E-14  0.12500000000E+03  0.12500000000E+03 0.  0.
        -13    1    3    3    0    0 -0.12414330336E+02  0.23617638716E+02 -0.40034417431E+02  0.48111061091E+02  0.10566000000E+00 0.  1.
         23    2    1    0    0    0  0.24040993690E+02  0.11742010727E+02 -0.11634971762E+02  0.95824380702E+02  0.91274833199E+02 0.  0.
         13    1    3    3    0    0  0.36455324026E+02 -0.11875627989E+02  0.28399445668E+02  0.47713319611E+02  0.10566000000E+00 0. -1.
         22    1    1    0    0    0 -0.24040993690E+02 -0.11742010727E+02  0.11634971762E+02  0.29175619298E+02  0.00000000000E+00 0.  1.
</event>
<event>
 5    1  0.6903325E-004  0.9118800E+02  0.7818608E-02  0.1130116E+00
         25   -1    0    0    0    0  0.00000000000E+00  0.00000000000E+00  0.99999998245E-14  0.12500000000E+03  0.12500000000E+03 0.  0.
        -13    1    3    3    0    0  0.28517396091E+02 -0.17790945234E+02 -0.30021119697E+01  0.33745865709E+02  0.10566000000E+00 0.  1.
         23    2    1    0    0    0 -0.10106192087E+02  0.26733675648E+02  0.11079827792E+02  0.94347314701E+02  0.89229079763E+02 0.  0.
         13    1    3    3    0    0 -0.38623588178E+02  0.44524620882E+02  0.14081939762E+02  0.60601448992E+02  0.10566000000E+00 0. -1.
         22    1    1    0    0    0  0.10106192087E+02 -0.26733675648E+02 -0.11079827792E+02  0.30652685299E+02  0.00000000000E+00 0. -1.
</event>
<event>
 5    1  0.6903325E-004  0.9118800E+02  0.7818608E-02  0.1130116E+00
         25   -1    0    0    0    0  0.00000000000E+00  0.00000000000E+00  0.99999998245E-14  0.12500000000E+03  0.12500000000E+03 0.  0.
        -13    1    3    3    0    0  0.84737006498E+01  0.21677487052E+02 -0.51814833182E+02  0.56802334013E+02  0.10566000000E+00 0.  1.
         23    2    1    0    0    0  0.16716678101E+02 -0.40187774397E+01 -0.23047074399E+02  0.96246469135E+02  0.91851060330E+02 0.  0.
         13    1    3    3    0    0  0.82429774514E+01 -0.25696264492E+02  0.28767758783E+02  0.39444135122E+02  0.10566000000E+00 0. -1.
         22    1    1    0    0    0 -0.16716678101E+02  0.40187774397E+01  0.23047074399E+02  0.28753530865E+02  0.00000000000E+00 0.  1.
</event>
<event>
 5    1  0.6903325E-004  0.9118800E+02  0.7818608E-02  0.1130116E+00
         25   -1    0    0    0    0  0.00000000000E+00  0.00000000000E+00  0.99999998245E-14  0.12500000000E+03  0.12500000000E+03 0.  0.
        -13    1    3    3    0    0  0.30183395814E+02 -0.45046728386E+02  0.11001993376E+02  0.55329017192E+02  0.10566000000E+00 0.  1.
         23    2    1    0    0    0 -0.17131398804E+01 -0.23229027651E+02  0.19177269147E+02  0.94828983680E+02  0.89901312115E+02 0.  0.
         13    1    3    3    0    0 -0.31896535694E+02  0.21817700734E+02  0.81752757703E+01  0.39499966488E+02  0.10566000000E+00 0. -1.
         22    1    1    0    0    0  0.17131398804E+01  0.23229027651E+02 -0.19177269147E+02  0.30171016320E+02  0.00000000000E+00 0.  1.
</event>
<event>
 5    1  0.6903325E-004  0.9118800E+02  0.7818608E-02  0.1130116E+00
         25   -1    0    0    0    0  0.00000000000E+00  0.00000000000E+00  0.99999998245E-14  0.12500000000E+03  0.12500000000E+03 0.  0.
        -13    1    3    3    0    0 -0.46290294852E+01 -0.13075640905E+02  0.41745299720E+02  0.43989561396E+02  0.10566000000E+00 0.  1.
         23    2    1    0    0    0 -0.26318842809E+02 -0.10200301943E+02 -0.56701234352E+01  0.96209759530E+02  0.91801088678E+02 0.  0.
         13    1    3    3    0    0 -0.21689813324E+02  0.28753389623E+01 -0.47415423155E+02  0.52220198134E+02  0.10566000000E+00 0. -1.
         22    1    1    0    0    0  0.26318842809E+02  0.10200301943E+02  0.56701234352E+01  0.28790240470E+02  0.00000000000E+00 0. -1.
</event>
<event>
 5    1  0.6903325E-004  0.9118800E+02  0.7818608E-02  0.1130116E+00
         25   -1    0    0    0    0  0.00000000000E+00  0.00000000000E+00  0.99999998245E-14  0.12500000000E+03  0.12500000000E+03 0.  0.
        -13    1    3    3    0    0  0.24905661054E+02 -0.12704381453E+02  0.25762702062E+02  0.38018695956E+02  0.10566000000E+00 0.  1.
         23    2    1    0    0    0 -0.27953359810E+02 -0.26312604723E+01  0.19712539138E+01  0.96853957679E+02  0.92674103285E+02 0.  0.
         13    1    3    3    0    0 -0.52859020864E+02  0.10073120980E+02 -0.23791448148E+02  0.58835261723E+02  0.10566000000E+00 0. -1.
         22    1    1    0    0    0  0.27953359810E+02  0.26312604723E+01 -0.19712539138E+01  0.28146042321E+02  0.00000000000E+00 0. -1.
</event>
<event>
 5    1  0.6903325E-004  0.9118800E+02  0.7818608E-02  0.1130116E+00
         25   -1    0    0    0    0  0.00000000000E+00  0.00000000000E+00  0.99999998245E-14  0.12500000000E+03  0.12500000000E+03 0.  0.
        -13    1    3    3    0    0 -0.20162443432E+02 -0.49446497284E+02 -0.12720192785E+02  0.54893484926E+02  0.10566000000E+00 0.  1.
         23    2    1    0    0    0 -0.23135288069E+02 -0.85346119588E+01 -0.15275221778E+02  0.95992870606E+02  0.91505287560E+02 0.  0.
         13    1    3    3    0    0 -0.29728446374E+01  0.40911885325E+02 -0.25550289930E+01  0.41099385680E+02  0.10566000000E+00 0. -1.
         22    1    1    0    0    0  0.23135288069E+02  0.85346119588E+01  0.15275221778E+02  0.29007129394E+02  0.00000000000E+00 0.  1.
</event>
<event>
 5    1  0.6903325E-004  0.9118800E+02  0.7818608E-02  0.1130116E+00
         25   -1    0    0    0    0  0.00000000000E+00  0.00000000000E+00  0.99999998245E-14  0.12500000000E+03  0.12500000000E+03 0.  0.
        -13    1    3    3    0    0  0.25373260044E+02 -0.20716449258E+01  0.46311848926E+02  0.52847824486E+02  0.10566000000E+00 0.  1.
         23    2    1    0    0    0  0.29518038545E+02  0.37069116712E+01  0.49202657856E+01  0.94845981875E+02  0.89924943529E+02 0.  0.
         13    1    3    3    0    0  0.41447785007E+01  0.57785565970E+01 -0.41391583140E+02  0.41998157389E+02  0.10566000000E+00 0. -1.
         22    1    1    0    0    0 -0.29518038545E+02 -0.37069116712E+01 -0.49202657856E+01  0.30154018125E+02  0.00000000000E+00 0.  1.
</event>
<event>
 5    1  0.6903325E-004  0.9118800E+02  0.7818608E-02  0.1130116E+00
         25   -1    0    0    0    0  0.00000000000E+00  0.00000000000E+00  0.99999998245E-14  0.12500000000E+03  0.12500000000E+03 0.  0.
        -13    1    3    3    0    0 -0.24402508569E+02 -0.47524764091E+02  0.23053405082E+02  0.58185533221E+02  0.10566000000E+00 0.  1.
         23    2    1    0    0    0 -0.26053140153E+02 -0.16860918425E+02  0.57331701849E+01  0.93441705966E+02  0.87951273393E+02 0.  0.
         13    1    3    3    0    0 -0.16506315844E+01  0.30663845666E+02 -0.17320234897E+02  0.35256172745E+02  0.10566000000E+00 0. -1.
         22    1    1    0    0    0  0.26053140153E+02  0.16860918425E+02 -0.57331701849E+01  0.31558294034E+02  0.00000000000E+00 0.  1.
</event>
<event>
 5    1  0.6903325E-004  0.9118800E+02  0.7818608E-02  0.1130116E+00
         25   -1    0    0    0    0  0.00000000000E+00  0.00000000000E+00  0.99999998245E-14  0.12500000000E+03  0.12500000000E+03 0.  0.
        -13    1    3    3    0    0  0.28305453213E+02 -0.14607106292E+02 -0.14658083537E+02  0.35063325753E+02  0.10566000000E+00 0. -1.
         23    2    1    0    0    0 -0.84333320654E+01  0.28715698359E+02  0.38936145174E+01  0.94819333076E+02  0.89887892783E+02 0.  0.
         13    1    3    3    0    0 -0.36738785278E+02  0.43322804651E+02  0.18551698055E+02  0.59756007324E+02  0.10566000000E+00 0.  1.
         22    1    1    0    0    0  0.84333320654E+01 -0.28715698359E+02 -0.38936145174E+01  0.30180666924E+02  0.00000000000E+00 0.  1.
</event>
<event>
 5    1  0.6903325E-004  0.9118800E+02  0.7818608E-02  0.1130116E+00
         25   -1    0    0    0    0  0.00000000000E+00  0.00000000000E+00  0.99999998245E-14  0.12500000000E+03  0.12500000000E+03 0.  0.
        -13    1    3    3    0    0 -0.48831970890E+02  0.31660711804E+02  0.19332792657E+02  0.61324791796E+02  0.10566000000E+00 0. -1.
         23    2    1    0    0    0 -0.20800969656E+02  0.20001275165E+02  0.25089367873E+01  0.96034052568E+02  0.91561526538E+02 0.  0.
         13    1    3    3    0    0  0.28031001235E+02 -0.11659436638E+02 -0.16823855869E+02  0.34709260771E+02  0.10566000000E+00 0.  1.
         22    1    1    0    0    0  0.20800969656E+02 -0.20001275165E+02 -0.25089367873E+01  0.28965947432E+02  0.00000000000E+00 0. -1.
</event>
<event>
 5    1  0.6903325E-004  0.9118800E+02  0.7818608E-02  0.1130116E+00
         25   -1    0    0    0    0  0.00000000000E+00  0.00000000000E+00  0.99999998245E-14  0.12500000000E+03  0.12500000000E+03 0.  0.
        -13    1    3    3    0    0  0.27043616537E+02  0.37973972869E+02 -0.75516664001E+01  0.47227308206E+02  0.10566000000E+00 0. -1.
         23    2    1    0    0    0 -0.14690647430E+01  0.15508675798E+02  0.24708530012E+02  0.95790607135E+02  0.91228568901E+02 0.  0.
         13    1    3    3    0    0 -0.28512681280E+02 -0.22465297072E+02  0.32260196412E+02  0.48563298929E+02  0.10566000000E+00 0.  1.
         22    1    1    0    0    0  0.14690647430E+01 -0.15508675798E+02 -0.24708530012E+02  0.29209392865E+02  0.00000000000E+00 0.  1.
</event>
<event>
 5    1  0.6903325E-004  0.9118800E+02  0.7818608E-02  0.1130116E+00
         25   -1    0    0    0    0  0.00000000000E+00  0.00000000000E+00  0.99999998245E-14  0.12500000000E+03  0.12500000000E+03 0.  0.
        -13    1    3    3    0    0  0.33467033886E+02  0.40461344558E+02  0.14955389321E+02  0.54597047487E+02  0.10566000000E+00 0.  1.
         23    2    1    0    0    0 -0.39399925982E+01  0.26115864720E+02  0.14930363923E+02  0.94660624617E+02  0.89666917837E+02 0.  0.
         13    1    3    3    0    0 -0.37407026484E+02 -0.14345479838E+02 -0.25025398214E-01  0.40063577130E+02  0.10566000000E+00 0. -1.
         22    1    1    0    0    0  0.39399925982E+01 -0.26115864720E+02 -0.14930363923E+02  0.30339375383E+02  0.00000000000E+00 0.  1.
</event>
<event>
 5    1  0.6903325E-004  0.9118800E+02  0.7818608E-02  0.1130116E+00
         25   -1    0    0    0    0  0.00000000000E+00  0.00000000000E+00  0.99999998245E-14  0.12500000000E+03  0.12500000000E+03 0.  0.
        -13    1    3    3    0    0  0.32376491488E+02  0.18350719920E+02  0.68692975719E+01  0.37844214034E+02  0.10566000000E+00 0.  1.
         23    2    1    0    0    0 -0.64848364931E+01  0.35853277515E+01 -0.30420472033E+02  0.93690052729E+02  0.88303528708E+02 0.  0.
         13    1    3    3    0    0 -0.38861327981E+02 -0.14765392169E+02 -0.37289769605E+02  0.55845838695E+02  0.10566000000E+00 0. -1.
         22    1    1    0    0    0  0.64848364931E+01 -0.35853277515E+01  0.30420472033E+02  0.31309947271E+02  0.00000000000E+00 0. -1.
</event>
<event>
 5    1  0.6903325E-004  0.9118800E+02  0.7818608E-02  0.1130116E+00
         25   -1    0    0    0    0  0.00000000000E+00  0.00000000000E+00  0.99999998245E-14  0.12500000000E+03  0.12500000000E+03 0.  0.
        -13    1    3    3    0    0 -0.55507608900E+02  0.23027325569E+01  0.19564367712E+02  0.58899684813E+02  0.10566000000E+00 0.  1.
         23    2    1    0    0    0 -0.26661323987E+02  0.14400213497E+02  0.23419592864E+01  0.94607943162E+02  0.89593447252E+02 0.  0.
         13    1    3    3    0    0  0.28846284913E+02  0.12097480941E+02 -0.17222408425E+02  0.35708258350E+02  0.10566000000E+00 0. -1.
         22    1    1    0    0    0  0.26661323987E+02 -0.14400213497E+02 -0.23419592864E+01  0.30392056838E+02  0.00000000000E+00 0.  1.
</event>
<event>
 5    1  0.6903325E-004  0.9118800E+02  0.7818608E-02  0.1130116E+00
         25   -1    0    0    0    0  0.00000000000E+00  0.00000000000E+00  0.99999998245E-14  0.12500000000E+03  0.12500000000E+03 0.  0.
        -13    1    3    3    0    0  0.23326176955E+01  0.55034610487E+02 -0.29323297421E+02  0.62402855643E+02  0.10566000000E+00 0. -1.
         23    2    1    0    0    0  0.48887042807E-01  0.29531692155E+02 -0.18125348939E+02  0.90349581451E+02  0.83440969330E+02 0.  0.
         13    1    3    3    0    0 -0.22837306527E+01 -0.25502918332E+02  0.11197948482E+02  0.27946725808E+02  0.10566000000E+00 0.  1.
         22    1    1    0    0    0 -0.48887042807E-01 -0.29531692155E+02  0.18125348939E+02  0.34650418549E+02  0.00000000000E+00 0. -1.
</event>
<event>
 5    1  0.6903325E-004  0.9118800E+02  0.7818608E-02  0.1130116E+00
         25   -1    0    0    0    0  0.00000000000E+00  0.00000000000E+00  0.99999998245E-14  0.12500000000E+03  0.12500000000E+03 0.  0.
        -13    1    3    3    0    0  0.32107494396E+02  0.29387677995E+02  0.10851772433E+02  0.44858655166E+02  0.10566000000E+00 0.  1.
         23    2    1    0    0    0 -0.73438499415E+01  0.20414207829E+02 -0.19808141064E+02  0.95622551751E+02  0.90998010625E+02 0.  0.
         13    1    3    3    0    0 -0.39451344337E+02 -0.89734701660E+01 -0.30659913497E+02  0.50763896585E+02  0.10566000000E+00 0. -1.
         22    1    1    0    0    0  0.73438499415E+01 -0.20414207829E+02  0.19808141064E+02  0.29377448249E+02  0.00000000000E+00 0. -1.
</event>
<event>
 5    1  0.6903325E-004  0.9118800E+02  0.7818608E-02  0.1130116E+00
         25   -1    0    0    0    0  0.00000000000E+00  0.00000000000E+00  0.99999998245E-14  0.12500000000E+03  0.12500000000E+03 0.  0.
        -13    1    3    3    0    0 -0.42905618038E+02 -0.12649087448E+02 -0.40206936414E+02  0.60145659630E+02  0.10566000000E+00 0.  1.
         23    2    1    0    0    0 -0.26311802471E+02 -0.84702409846E+00 -0.94555314906E+01  0.97027951900E+02  0.92908492481E+02 0.  0.
         13    1    3    3    0    0  0.16593815566E+02  0.11802063349E+02  0.30751404923E+02  0.36882292271E+02  0.10566000000E+00 0. -1.
         22    1    1    0    0    0  0.26311802471E+02  0.84702409846E+00  0.94555314906E+01  0.27972048100E+02  0.00000000000E+00 0.  1.
</event>
<event>
 5    1  0.6903325E-004  0.9118800E+02  0.7818608E-02  0.1130116E+00
         25   -1    0    0    0    0  0.00000000000E+00  0.00000000000E+00  0.99999998245E-14  0.12500000000E+03  0.12500000000E+03 0.  0.
        -13    1    3    3    0    0 -0.34062823626E+02  0.30833062456E+02 -0.19511693721E+02  0.49916641010E+02  0.10566000000E+00 0. -1.
         23    2    1    0    0    0 -0.21071291483E+02 -0.13870615868E+02 -0.11971802214E+02  0.97076580482E+02  0.92973894834E+02 0.  0.
         13    1    3    3    0    0  0.12991532143E+02 -0.44703678324E+02  0.75398915075E+01  0.47159939473E+02  0.10566000000E+00 0.  1.
         22    1    1    0    0    0  0.21071291483E+02  0.13870615868E+02  0.11971802214E+02  0.27923419518E+02  0.00000000000E+00 0. -1.
</event>
<event>
 5    1  0.6903325E-004  0.9118800E+02  0.7818608E-02  0.1130116E+00
         25   -1    0    0    0    0  0.00000000000E+00  0.00000000000E+00  0.99999998245E-14  0.12500000000E+03  0.12500000000E+03 0.  0.
        -13    1    3    3    0    0  0.72004446893E+01 -0.28638226708E+02  0.20275959690E+02  0.35820666355E+02  0.10566000000E+00 0. -1.
         23    2    1    0    0    0  0.23743127036E+02  0.14383840820E+02 -0.14612489208E+02  0.93628742470E+02  0.88216696931E+02 0.  0.
         13    1    3    3    0    0  0.16542682346E+02  0.43022067528E+02 -0.34888448898E+02  0.57808076115E+02  0.10566000000E+00 0.  1.
         22    1    1    0    0    0 -0.23743127036E+02 -0.14383840820E+02  0.14612489208E+02  0.31371257530E+02  0.00000000000E+00 0.  1.
</event>
<event>
 5    1  0.6903325E-004  0.9118800E+02  0.7818608E-02  0.1130116E+00
         25   -1    0    0    0    0  0.00000000000E+00  0.00000000000E+00  0.99999998245E-14  0.12500000000E+03  0.12500000000E+03 0.  0.
        -13    1    3    3    0    0  0.34737481023E+02  0.51329508366E+01  0.42199053302E+00  0.35117360553E+02  0.10566000000E+00 0.  1.
         23    2    1    0    0    0 -0.26323187287E+02 -0.58856960437E+01 -0.55858677608E+01  0.97454518964E+02  0.93480638322E+02 0.  0.
         13    1    3    3    0    0 -0.61060668310E+02 -0.11018646880E+02 -0.60078582938E+01  0.62337158412E+02  0.10566000000E+00 0. -1.
         22    1    1    0    0    0  0.26323187287E+02  0.58856960437E+01  0.55858677608E+01  0.27545481036E+02  0.00000000000E+00 0. -1.
</event>
<event>
 5    1  0.6903325E-004  0.9118800E+02  0.7818608E-02  0.1130116E+00
         25   -1    0    0    0    0  0.00000000000E+00  0.00000000000E+00  0.99999998245E-14  0.12500000000E+03  0.12500000000E+03 0.  0.
        -13    1    3    3    0    0 -0.12024654235E+02 -0.18742357574E+02 -0.57499038346E+02  0.61660512905E+02  0.10566000000E+00 0. -1.
         23    2    1    0    0    0 -0.10930797405E+01 -0.13333230892E+02 -0.21419288122E+02  0.99746173102E+02  0.96496338145E+02 0.  0.
         13    1    3    3    0    0  0.10931574494E+02  0.54091266823E+01  0.36079750224E+02  0.38085660197E+02  0.10566000000E+00 0.  1.
         22    1    1    0    0    0  0.10930797405E+01  0.13333230892E+02  0.21419288122E+02  0.25253826898E+02  0.00000000000E+00 0. -1.
</event>
<event>
 5    1  0.6903325E-004  0.9118800E+02  0.7818608E-02  0.1130116E+00
         25   -1    0    0    0    0  0.00000000000E+00  0.00000000000E+00  0.99999998245E-14  0.12500000000E+03  0.12500000000E+03 0.  0.
        -13    1    3    3    0    0  0.11565110841E+00  0.26729976428E+02  0.32713961016E+02  0.42245939739E+02  0.10566000000E+00 0.  1.
         23    2    1    0    0    0 -0.48087183528E+01  0.17726588470E+02 -0.21097633977E+02  0.97027408586E+02  0.92907761498E+02 0.  0.
         13    1    3    3    0    0 -0.49243694613E+01 -0.90033879586E+01 -0.53811594993E+02  0.54781468847E+02  0.10566000000E+00 0. -1.
         22    1    1    0    0    0  0.48087183528E+01 -0.17726588470E+02  0.21097633977E+02  0.27972591414E+02  0.00000000000E+00 0.  1.
</event>
<event>
 5    1  0.6903325E-004  0.9118800E+02  0.7818608E-02  0.1130116E+00
         25   -1    0    0    0    0  0.00000000000E+00  0.00000000000E+00  0.99999998245E-14  0.12500000000E+03  0.12500000000E+03 0.  0.
        -13    1    3    3    0    0 -0.13862404834E+02  0.34471636867E+02  0.23701092825E+02  0.44070545506E+02  0.10566000000E+00 0.  1.
         23    2    1    0    0    0 -0.23820454807E+02 -0.14036582361E+02  0.56343775700E+01  0.96783233315E+02  0.92578660223E+02 0.  0.
         13    1    3    3    0    0 -0.99580499729E+01 -0.48508219228E+02 -0.18066715255E+02  0.52712687809E+02  0.10566000000E+00 0. -1.
         22    1    1    0    0    0  0.23820454807E+02  0.14036582361E+02 -0.56343775700E+01  0.28216766685E+02  0.00000000000E+00 0. -1.
</event>
<event>
 5    1  0.6903325E-004  0.9118800E+02  0.7818608E-02  0.1130116E+00
         25   -1    0    0    0    0  0.00000000000E+00  0.00000000000E+00  0.99999998245E-14  0.12500000000E+03  0.12500000000E+03 0.  0.
        -13    1    3    3    0    0  0.25426522260E+02  0.28922904432E+02 -0.53192136501E+00  0.38514108317E+02  0.10566000000E+00 0.  1.
         23    2    1    0    0    0  0.12764826523E+02 -0.22571751154E+02 -0.16943382489E+02  0.94024155274E+02  0.88775215114E+02 0.  0.
         13    1    3    3    0    0 -0.12661695738E+02 -0.51494655587E+02 -0.16411461124E+02  0.55510046957E+02  0.10566000000E+00 0. -1.
         22    1    1    0    0    0 -0.12764826523E+02  0.22571751154E+02  0.16943382489E+02  0.30975844726E+02  0.00000000000E+00 0. -1.
</event>
<event>
 5    1  0.6903325E-004  0.9118800E+02  0.7818608E-02  0.1130116E+00
         25   -1    0    0    0    0  0.00000000000E+00  0.00000000000E+00  0.99999998245E-14  0.12500000000E+03  0.12500000000E+03 0.  0.
        -13    1    3    3    0    0  0.28847220323E+02 -0.31031698190E+02  0.11410719934E+02  0.43878743218E+02  0.10566000000E+00 0.  1.
         23    2    1    0    0    0  0.17756301453E+02  0.36691153579E+01 -0.24158910879E+02  0.94794013447E+02  0.89852675874E+02 0.  0.
         13    1    3    3    0    0 -0.11090918871E+02  0.34700813548E+02 -0.35569630813E+02  0.50915270229E+02  0.10566000000E+00 0. -1.
         22    1    1    0    0    0 -0.17756301453E+02 -0.36691153579E+01  0.24158910879E+02  0.30205986553E+02  0.00000000000E+00 0. -1.
</event>
<event>
 5    1  0.6903325E-004  0.9118800E+02  0.7818608E-02  0.1130116E+00
         25   -1    0    0    0    0  0.00000000000E+00  0.00000000000E+00  0.99999998245E-14  0.12500000000E+03  0.12500000000E+03 0.  0.
        -13    1    3    3    0    0  0.25756548056E+02 -0.20066752384E+02  0.10979109607E+02  0.34447443022E+02  0.10566000000E+00 0.  1.
         23    2    1    0    0    0 -0.25342463256E+02  0.13094517733E+02 -0.66550826174E+00  0.96466690697E+02  0.92150272242E+02 0.  0.
         13    1    3    3    0    0 -0.51099011312E+02  0.33161270116E+02 -0.11644617868E+02  0.62019247675E+02  0.10566000000E+00 0. -1.
         22    1    1    0    0    0  0.25342463256E+02 -0.13094517733E+02  0.66550826174E+00  0.28533309303E+02  0.00000000000E+00 0. -1.
</event>
<event>
 5    1  0.6903325E-004  0.9118800E+02  0.7818608E-02  0.1130116E+00
         25   -1    0    0    0    0  0.00000000000E+00  0.00000000000E+00  0.99999998245E-14  0.12500000000E+03  0.12500000000E+03 0.  0.
        -13    1    3    3    0    0  0.25808390212E+02 -0.44217146274E+02  0.27873348254E+02  0.58293770995E+02  0.10566000000E+00 0.  1.
         23    2    1    0    0    0 -0.35383209533E+01 -0.24189015402E+02  0.16120278829E+02  0.95717042998E+02  0.91127716692E+02 0.  0.
         13    1    3    3    0    0 -0.29346711165E+02  0.20028130872E+02 -0.11753069425E+02  0.37423272003E+02  0.10566000000E+00 0. -1.
         22    1    1    0    0    0  0.35383209533E+01  0.24189015402E+02 -0.16120278829E+02  0.29282957002E+02  0.00000000000E+00 0.  1.
</event>
<event>
 5    1  0.6903325E-004  0.9118800E+02  0.7818608E-02  0.1130116E+00
         25   -1    0    0    0    0  0.00000000000E+00  0.00000000000E+00  0.99999998245E-14  0.12500000000E+03  0.12500000000E+03 0.  0.
        -13    1    3    3    0    0 -0.22768846087E+02  0.26821817568E+02 -0.16869698582E+02  0.39018305243E+02  0.10566000000E+00 0. -1.
         23    2    1    0    0    0  0.25297807413E+02  0.13465634120E+02  0.86636147961E+01  0.95060718388E+02  0.90222943850E+02 0.  0.
         13    1    3    3    0    0  0.48066653499E+02 -0.13356183448E+02  0.25533313378E+02  0.56042413144E+02  0.10566000000E+00 0.  1.
         22    1    1    0    0    0 -0.25297807413E+02 -0.13465634120E+02 -0.86636147961E+01  0.29939281612E+02  0.00000000000E+00 0. -1.
</event>
<event>
 5    1  0.6903325E-004  0.9118800E+02  0.7818608E-02  0.1130116E+00
         25   -1    0    0    0    0  0.00000000000E+00  0.00000000000E+00  0.99999998245E-14  0.12500000000E+03  0.12500000000E+03 0.  0.
        -13    1    3    3    0    0  0.46289806866E+02  0.13678298146E+02  0.11132537954E+02  0.49535710605E+02  0.10566000000E+00 0.  1.
         23    2    1    0    0    0  0.18321089914E+02  0.65956909055E+01 -0.23414981023E+02  0.94546316964E+02  0.89507425619E+02 0.  0.
         13    1    3    3    0    0 -0.27968716952E+02 -0.70826072402E+01 -0.34547518977E+02  0.45010606359E+02  0.10566000000E+00 0. -1.
         22    1    1    0    0    0 -0.18321089914E+02 -0.65956909055E+01  0.23414981023E+02  0.30453683036E+02  0.00000000000E+00 0.  1.
</event>
<event>
 5    1  0.6903325E-004  0.9118800E+02  0.7818608E-02  0.1130116E+00
         25   -1    0    0    0    0  0.00000000000E+00  0.00000000000E+00  0.99999998245E-14  0.12500000000E+03  0.12500000000E+03 0.  0.
        -13    1    3    3    0    0 -0.17758634722E+02  0.19509966655E+02  0.18790310785E+02  0.32389733705E+02  0.10566000000E+00 0. -1.
         23    2    1    0    0    0  0.25885983483E+02 -0.13833303882E+02 -0.94725782541E+01  0.94158888218E+02  0.88964723652E+02 0.  0.
         13    1    3    3    0    0  0.43644618205E+02 -0.33343270537E+02 -0.28262889039E+02  0.61769154513E+02  0.10566000000E+00 0.  1.
         22    1    1    0    0    0 -0.25885983483E+02  0.13833303882E+02  0.94725782541E+01  0.30841111782E+02  0.00000000000E+00 0.  1.
</event>
<event>
 5    1  0.6903325E-004  0.9118800E+02  0.7818608E-02  0.1130116E+00
         25   -1    0    0    0    0  0.00000000000E+00  0.00000000000E+00  0.99999998245E-14  0.12500000000E+03  0.12500000000E+03 0.  0.
        -13    1    3    3    0    0  0.44817747285E+02  0.31343317018E+02  0.19476901186E+01  0.54725119043E+02  0.10566000000E+00 0. -1.
         23    2    1    0    0    0  0.55729641527E+01  0.29575866304E+02 -0.46076106700E+01  0.94552998946E+02  0.89516756736E+02 0.  0.
         13    1    3    3    0    0 -0.39244783132E+02 -0.17674507142E+01 -0.65553007887E+01  0.39827879903E+02  0.10566000000E+00 0.  1.
         22    1    1    0    0    0 -0.55729641527E+01 -0.29575866304E+02  0.46076106700E+01  0.30447001054E+02  0.00000000000E+00 0. -1.
</event>
<event>
 5    1  0.6903325E-004  0.9118800E+02  0.7818608E-02  0.1130116E+00
         25   -1    0    0    0    0  0.00000000000E+00  0.00000000000E+00  0.99999998245E-14  0.12500000000E+03  0.12500000000E+03 0.  0.
        -13    1    3    3    0    0  0.35089437794E+02  0.24445162258E+02 -0.26785202174E+02  0.50460804809E+02  0.10566000000E+00 0.  1.
         23    2    1    0    0    0  0.12124115422E+02 -0.13864628001E+02 -0.23352279770E+02  0.95258596959E+02  0.90496680822E+02 0.  0.
         13    1    3    3    0    0 -0.22965322372E+02 -0.38309790258E+02  0.34329224034E+01  0.44797792150E+02  0.10566000000E+00 0. -1.
         22    1    1    0    0    0 -0.12124115422E+02  0.13864628001E+02  0.23352279770E+02  0.29741403041E+02  0.00000000000E+00 0.  1.
</event>
<event>
 5    1  0.6903325E-004  0.9118800E+02  0.7818608E-02  0.1130116E+00
         25   -1    0    0    0    0  0.00000000000E+00  0.00000000000E+00  0.99999998245E-14  0.12500000000E+03  0.12500000000E+03 0.  0.
        -13    1    3    3    0    0  0.87144650897E+01  0.72709807995E+01 -0.52746449863E+02  0.53953759839E+02  0.10566000000E+00 0. -1.
         23    2    1    0    0    0 -0.19119629845E+02  0.43529250723E+01 -0.21608239425E+02  0.95820825695E+02  0.91269964521E+02 0.  0.
         13    1    3    3    0    0 -0.27834094934E+02 -0.29180557272E+01  0.31138210438E+02  0.41867065856E+02  0.10566000000E+00 0.  1.
         22    1    1    0    0    0  0.19119629845E+02 -0.43529250723E+01  0.21608239425E+02  0.29179174305E+02  0.00000000000E+00 0.  1.
</event>
<event>
 5    1  0.6903325E-004  0.9118800E+02  0.7818608E-02  0.1130116E+00
         25   -1    0    0    0    0  0.00000000000E+00  0.00000000000E+00  0.99999998245E-14  0.12500000000E+03  0.12500000000E+03 0.  0.
        -13    1    3    3    0    0 -0.29318796689E+02  0.15957580533E+02 -0.23279046958E+02  0.40695963031E+02  0.10566000000E+00 0. -1.
         23    2    1    0    0    0  0.20058622471E+02 -0.11382719353E+02 -0.14343400644E+02  0.97840328107E+02  0.93995117037E+02 0.  0.
         13    1    3    3    0    0  0.49377419160E+02 -0.27340299886E+02  0.89356463138E+01  0.57144365075E+02  0.10566000000E+00 0.  1.
         22    1    1    0    0    0 -0.20058622471E+02  0.11382719353E+02  0.14343400644E+02  0.27159671893E+02  0.00000000000E+00 0.  1.
</event>
<event>
 5    1  0.6903325E-004  0.9118800E+02  0.7818608E-02  0.1130116E+00
         25   -1    0    0    0    0  0.00000000000E+00  0.00000000000E+00  0.99999998245E-14  0.12500000000E+03  0.12500000000E+03 0.  0.
        -13    1    3    3    0    0 -0.64995947501E+01  0.41540501681E+02  0.15621072530E+02  0.44854064285E+02  0.10566000000E+00 0.  1.
         23    2    1    0    0    0 -0.27026581171E+02 -0.33263827313E+01 -0.30303286990E+01  0.97601390475E+02  0.93676825410E+02 0.  0.
         13    1    3    3    0    0 -0.20526986421E+02 -0.44866884412E+02 -0.18651401229E+02  0.52747326190E+02  0.10566000000E+00 0. -1.
         22    1    1    0    0    0  0.27026581171E+02  0.33263827313E+01  0.30303286990E+01  0.27398609525E+02  0.00000000000E+00 0.  1.
</event>
<event>
 5    1  0.6903325E-004  0.9118800E+02  0.7818608E-02  0.1130116E+00
         25   -1    0    0    0    0  0.00000000000E+00  0.00000000000E+00  0.99999998245E-14  0.12500000000E+03  0.12500000000E+03 0.  0.
        -13    1    3    3    0    0  0.11235420104E+01  0.28094080044E+02 -0.34617488642E+02  0.44597324629E+02  0.10566000000E+00 0.  1.
         23    2    1    0    0    0 -0.10273041826E+02  0.36249236802E+02  0.53450516822E+01  0.86945931432E+02  0.78175973662E+02 0.  0.
         13    1    3    3    0    0 -0.11396583836E+02  0.81551567587E+01  0.39962540324E+02  0.42348606802E+02  0.10566000000E+00 0. -1.
         22    1    1    0    0    0  0.10273041826E+02 -0.36249236802E+02 -0.53450516822E+01  0.38054068568E+02  0.00000000000E+00 0.  1.
</event>
<event>
 5    1  0.6903325E-004  0.9118800E+02  0.7818608E-02  0.1130116E+00
         25   -1    0    0    0    0  0.00000000000E+00  0.00000000000E+00  0.99999998245E-14  0.12500000000E+03  0.12500000000E+03 0.  0.
        -13    1    3    3    0    0  0.37404322136E+02 -0.60300876703E+01 -0.19354114247E+02  0.42544543412E+02  0.10566000000E+00 0. -1.
         23    2    1    0    0    0  0.10102782034E+02  0.18004423246E+02  0.20085405771E+02  0.96196371995E+02  0.91782857870E+02 0.  0.
         13    1    3    3    0    0 -0.27301540103E+02  0.24034510916E+02  0.39439520019E+02  0.53651828583E+02  0.10566000000E+00 0.  1.
         22    1    1    0    0    0 -0.10102782034E+02 -0.18004423246E+02 -0.20085405771E+02  0.28803628005E+02  0.00000000000E+00 0. -1.
</event>
<event>
 5    1  0.6903325E-004  0.9118800E+02  0.7818608E-02  0.1130116E+00
         25   -1    0    0    0    0  0.00000000000E+00  0.00000000000E+00  0.99999998245E-14  0.12500000000E+03  0.12500000000E+03 0.  0.
        -13    1    3    3    0    0  0.58776799612E+02 -0.13230490151E+02  0.10474128748E+02  0.61151259834E+02  0.10566000000E+00 0. -1.
         23    2    1    0    0    0  0.23794668313E+02 -0.13141565610E+02  0.96886210890E+01  0.96142481648E+02  0.91709434695E+02 0.  0.
         13    1    3    3    0    0 -0.34982131298E+02  0.88924541203E-01 -0.78550765943E+00  0.34991221814E+02  0.10566000000E+00 0.  1.
         22    1    1    0    0    0 -0.23794668313E+02  0.13141565610E+02 -0.96886210890E+01  0.28857518352E+02  0.00000000000E+00 0. -1.
</event>
<event>
 5    1  0.6903325E-004  0.9118800E+02  0.7818608E-02  0.1130116E+00
         25   -1    0    0    0    0  0.00000000000E+00  0.00000000000E+00  0.99999998245E-14  0.12500000000E+03  0.12500000000E+03 0.  0.
        -13    1    3    3    0    0  0.58360041738E+02 -0.94433242162E+01  0.15585322481E+02  0.61139056951E+02  0.10566000000E+00 0.  1.
         23    2    1    0    0    0  0.27883198235E+02 -0.31798434585E+01 -0.19754087837E+01  0.96866632123E+02  0.92691197159E+02 0.  0.
         13    1    3    3    0    0 -0.30476843504E+02  0.62634807577E+01 -0.17560731264E+02  0.35727575173E+02  0.10566000000E+00 0. -1.
         22    1    1    0    0    0 -0.27883198235E+02  0.31798434585E+01  0.19754087837E+01  0.28133367877E+02  0.00000000000E+00 0.  1.
</event>
<event>
 5    1  0.6903325E-004  0.9118800E+02  0.7818608E-02  0.1130116E+00
         25   -1    0    0    0    0  0.00000000000E+00  0.00000000000E+00  0.99999998245E-14  0.12500000000E+03  0.12500000000E+03 0.  0.
        -13    1    3    3    0    0  0.10827734961E+02  0.39498771678E+02 -0.41647847709E+02  0.58411875430E+02  0.10566000000E+00 0. -1.
         23    2    1    0    0    0  0.17271966444E+02  0.22115643727E+02 -0.97738225069E+01  0.95285523247E+02  0.90533865552E+02 0.  0.
         13    1    3    3    0    0  0.64442314825E+01 -0.17383127950E+02  0.31874025202E+02  0.36873647817E+02  0.10566000000E+00 0.  1.
         22    1    1    0    0    0 -0.17271966444E+02 -0.22115643727E+02  0.97738225069E+01  0.29714476753E+02  0.00000000000E+00 0. -1.
</event>
<event>
 5    1  0.6903325E-004  0.9118800E+02  0.7818608E-02  0.1130116E+00
         25   -1    0    0    0    0  0.00000000000E+00  0.00000000000E+00  0.99999998245E-14  0.12500000000E+03  0.12500000000E+03 0.  0.
        -13    1    3    3    0    0 -0.37149876868E+02  0.63563723329E+01  0.15264120393E+02  0.40663513817E+02  0.10566000000E+00 0.  1.
         23    2    1    0    0    0 -0.47873776243E+01 -0.19211562705E+02 -0.21398530543E+02  0.95846951524E+02  0.91305738488E+02 0.  0.
         13    1    3    3    0    0  0.32362499244E+02 -0.25567935038E+02 -0.36662650936E+02  0.55183437706E+02  0.10566000000E+00 0. -1.
         22    1    1    0    0    0  0.47873776243E+01  0.19211562705E+02  0.21398530543E+02  0.29153048476E+02  0.00000000000E+00 0. -1.
</event>
<event>
 5    1  0.6903325E-004  0.9118800E+02  0.7818608E-02  0.1130116E+00
         25   -1    0    0    0    0  0.00000000000E+00  0.00000000000E+00  0.99999998245E-14  0.12500000000E+03  0.12500000000E+03 0.  0.
        -13    1    3    3    0    0 -0.60638896894E+01 -0.55243977194E+01 -0.59835208714E+02  0.60394975737E+02  0.10566000000E+00 0. -1.
         23    2    1    0    0    0  0.18916476472E+01 -0.13034579323E+02 -0.37232939806E+02  0.85506071409E+02  0.75838762201E+02 0.  0.
         13    1    3    3    0    0  0.79555373365E+01 -0.75101816037E+01  0.22602268908E+02  0.25111095672E+02  0.10566000000E+00 0.  1.
         22    1    1    0    0    0 -0.18916476472E+01  0.13034579323E+02  0.37232939806E+02  0.39493928591E+02  0.00000000000E+00 0. -1.
</event>
<event>
 5    1  0.6903325E-004  0.9118800E+02  0.7818608E-02  0.1130116E+00
         25   -1    0    0    0    0  0.00000000000E+00  0.00000000000E+00  0.99999998245E-14  0.12500000000E+03  0.12500000000E+03 0.  0.
        -13    1    3    3    0    0 -0.29245105012E+02  0.12727089691E+02 -0.14829371947E+02  0.35173518669E+02  0.10566000000E+00 0. -1.
         23    2    1    0    0    0  0.25307358664E+02 -0.24261256280E+01  0.10868935019E+02  0.97350728100E+02  0.93341748565E+02 0.  0.
         13    1    3    3    0    0  0.54552463677E+02 -0.15153215319E+02  0.25698306966E+02  0.62177209431E+02  0.10566000000E+00 0.  1.
         22    1    1    0    0    0 -0.25307358664E+02  0.24261256280E+01 -0.10868935019E+02  0.27649271900E+02  0.00000000000E+00 0.  1.
</event>
<event>
 5    1  0.6903325E-004  0.9118800E+02  0.7818608E-02  0.1130116E+00
         25   -1    0    0    0    0  0.00000000000E+00  0.00000000000E+00  0.99999998245E-14  0.12500000000E+03  0.12500000000E+03 0.  0.
        -13    1    3    3    0    0  0.13463658686E+02  0.47680526699E+02 -0.29146977101E+02  0.57482694523E+02  0.10566000000E+00 0.  1.
         23    2    1    0    0    0 -0.44965930855E+00  0.15493948295E+02 -0.28504264061E+02  0.92553772224E+02  0.86680119150E+02 0.  0.
         13    1    3    3    0    0 -0.13913317994E+02 -0.32186578404E+02  0.64271303941E+00  0.35071077700E+02  0.10566000000E+00 0. -1.
         22    1    1    0    0    0  0.44965930855E+00 -0.15493948295E+02  0.28504264061E+02  0.32446227776E+02  0.00000000000E+00 0.  1.
</event>
<event>
 5    1  0.6903325E-004  0.9118800E+02  0.7818608E-02  0.1130116E+00
         25   -1    0    0    0    0  0.00000000000E+00  0.00000000000E+00  0.99999998245E-14  0.12500000000E+03  0.12500000000E+03 0.  0.
        -13    1    3    3    0    0  0.31258239353E+02  0.35437266840E+02  0.24319824277E+02  0.53144542763E+02  0.10566000000E+00 0. -1.
         23    2    1    0    0    0  0.75752887641E+01  0.92287270447E+00  0.28766385994E+02  0.95238587784E+02  0.90469038605E+02 0.  0.
         13    1    3    3    0    0 -0.23682950589E+02 -0.34514394135E+02  0.44465617174E+01  0.42094045022E+02  0.10566000000E+00 0.  1.
         22    1    1    0    0    0 -0.75752887641E+01 -0.92287270447E+00 -0.28766385994E+02  0.29761412216E+02  0.00000000000E+00 0. -1.
</event>
<event>
 5    1  0.6903325E-004  0.9118800E+02  0.7818608E-02  0.1130116E+00
         25   -1    0    0    0    0  0.00000000000E+00  0.00000000000E+00  0.99999998245E-14  0.12500000000E+03  0.12500000000E+03 0.  0.
        -13    1    3    3    0    0 -0.34597046779E+01 -0.14905794300E+02 -0.50961177900E+02  0.53209069501E+02  0.10566000000E+00 0.  1.
         23    2    1    0    0    0 -0.20495261694E+02 -0.15711965568E+02 -0.10491955407E+02  0.97125231083E+02  0.93039280795E+02 0.  0.
         13    1    3    3    0    0 -0.17035557016E+02 -0.80617126766E+00  0.40469222493E+02  0.43916161583E+02  0.10566000000E+00 0. -1.
         22    1    1    0    0    0  0.20495261694E+02  0.15711965568E+02  0.10491955407E+02  0.27874768917E+02  0.00000000000E+00 0. -1.
</event>
<event>
 5    1  0.6903325E-004  0.9118800E+02  0.7818608E-02  0.1130116E+00
         25   -1    0    0    0    0  0.00000000000E+00  0.00000000000E+00  0.99999998245E-14  0.12500000000E+03  0.12500000000E+03 0.  0.
        -13    1    3    3    0    0  0.27434488334E+02  0.30165988454E+01  0.21229188511E+02  0.34820118145E+02  0.10566000000E+00 0. -1.
         23    2    1    0    0    0 -0.67729832914E+00  0.31892134178E+02 -0.15668762330E+02  0.89460204441E+02  0.82097814284E+02 0.  0.
         13    1    3    3    0    0 -0.28111786663E+02  0.28875535332E+02 -0.36897950841E+02  0.54640086296E+02  0.10566000000E+00 0.  1.
         22    1    1    0    0    0  0.67729832914E+00 -0.31892134178E+02  0.15668762330E+02  0.35539795559E+02  0.00000000000E+00 0.  1.
</event>
<event>
 5    1  0.6903325E-004  0.9118800E+02  0.7818608E-02  0.1130116E+00
         25   -1    0    0    0    0  0.00000000000E+00  0.00000000000E+00  0.99999998245E-14  0.12500000000E+03  0.12500000000E+03 0.  0.
        -13    1    3    3    0    0  0.43049857616E+00  0.31161222698E+02  0.15340978162E+02  0.34735628741E+02  0.10566000000E+00 0. -1.
         23    2    1    0    0    0 -0.11265109849E+01 -0.28221509685E+02 -0.21886601145E+01  0.96671341914E+02  0.92427460629E+02 0.  0.
         13    1    3    3    0    0 -0.15570095611E+01 -0.59382732383E+02 -0.17529638276E+02  0.61935713172E+02  0.10566000000E+00 0.  1.
         22    1    1    0    0    0  0.11265109849E+01  0.28221509685E+02  0.21886601145E+01  0.28328658086E+02  0.00000000000E+00 0.  1.
</event>
<event>
 5    1  0.6903325E-004  0.9118800E+02  0.7818608E-02  0.1130116E+00
         25   -1    0    0    0    0  0.00000000000E+00  0.00000000000E+00  0.99999998245E-14  0.12500000000E+03  0.12500000000E+03 0.  0.
        -13    1    3    3    0    0 -0.29455161437E+02  0.28790432110E+02 -0.23586664746E+02  0.47464064662E+02  0.10566000000E+00 0.  1.
         23    2    1    0    0    0  0.56000707944E+01  0.26769202781E+02  0.98311676780E+01  0.95937947968E+02  0.91430230186E+02 0.  0.
         13    1    3    3    0    0  0.35055232231E+02 -0.20212293296E+01  0.33417832424E+02  0.48473883306E+02  0.10566000000E+00 0. -1.
         22    1    1    0    0    0 -0.56000707944E+01 -0.26769202781E+02 -0.98311676780E+01  0.29062052032E+02  0.00000000000E+00 0. -1.
</event>
<event>
 5    1  0.6903325E-004  0.9118800E+02  0.7818608E-02  0.1130116E+00
         25   -1    0    0    0    0  0.00000000000E+00  0.00000000000E+00  0.99999998245E-14  0.12500000000E+03  0.12500000000E+03 0.  0.
        -13    1    3    3    0    0  0.22312218526E+02  0.20985785569E+02 -0.46425452021E+02  0.55619888987E+02  0.10566000000E+00 0.  1.
         23    2    1    0    0    0  0.90188495067E+01  0.26371362873E+02 -0.89804665448E+01  0.95717971287E+02  0.91128990018E+02 0.  0.
         13    1    3    3    0    0 -0.13293369019E+02  0.53855773038E+01  0.37444985476E+02  0.40098082300E+02  0.10566000000E+00 0. -1.
         22    1    1    0    0    0 -0.90188495067E+01 -0.26371362873E+02  0.89804665448E+01  0.29282028713E+02  0.00000000000E+00 0.  1.
</event>
<event>
 5    1  0.6903325E-004  0.9118800E+02  0.7818608E-02  0.1130116E+00
         25   -1    0    0    0    0  0.00000000000E+00  0.00000000000E+00  0.99999998245E-14  0.12500000000E+03  0.12500000000E+03 0.  0.
        -13    1    3    3    0    0  0.76430059713E+01  0.46422680877E+02  0.12011892283E+02  0.48556951720E+02  0.10566000000E+00 0. -1.
         23    2    1    0    0    0  0.99997621180E-01  0.14991908833E+02 -0.23845700204E+02  0.96832913743E+02  0.92645714610E+02 0.  0.
         13    1    3    3    0    0 -0.75430083502E+01 -0.31430772044E+02 -0.35857592487E+02  0.48275962023E+02  0.10566000000E+00 0.  1.
         22    1    1    0    0    0 -0.99997621180E-01 -0.14991908833E+02  0.23845700204E+02  0.28167086257E+02  0.00000000000E+00 0. -1.
</event>
<event>
 5    1  0.6903325E-004  0.9118800E+02  0.7818608E-02  0.1130116E+00
         25   -1    0    0    0    0  0.00000000000E+00  0.00000000000E+00  0.99999998245E-14  0.12500000000E+03  0.12500000000E+03 0.  0.
        -13    1    3    3    0    0  0.31382877218E+02 -0.12631503804E+02 -0.37223800083E+02  0.50299724924E+02  0.10566000000E+00 0.  1.
         23    2    1    0    0    0  0.17891814753E+02  0.20866152428E+02 -0.91850853335E+01  0.96019331532E+02  0.91541427140E+02 0.  0.
         13    1    3    3    0    0 -0.13491062465E+02  0.33497656232E+02  0.28038714750E+02  0.45719606607E+02  0.10566000000E+00 0. -1.
         22    1    1    0    0    0 -0.17891814753E+02 -0.20866152428E+02  0.91850853335E+01  0.28980668468E+02  0.00000000000E+00 0.  1.
</event>
<event>
 5    1  0.6903325E-004  0.9118800E+02  0.7818608E-02  0.1130116E+00
         25   -1    0    0    0    0  0.00000000000E+00  0.00000000000E+00  0.99999998245E-14  0.12500000000E+03  0.12500000000E+03 0.  0.
        -13    1    3    3    0    0  0.73579483286E+01  0.10763367898E+02  0.37592523762E+02  0.39789426974E+02  0.10566000000E+00 0.  1.
         23    2    1    0    0    0 -0.22949651643E+02 -0.19774679332E+02  0.38604621678E+01  0.94461047474E+02  0.89388264714E+02 0.  0.
         13    1    3    3    0    0 -0.30307599972E+02 -0.30538047231E+02 -0.33732061594E+02  0.54671620500E+02  0.10566000000E+00 0. -1.
         22    1    1    0    0    0  0.22949651643E+02  0.19774679332E+02 -0.38604621678E+01  0.30538952526E+02  0.00000000000E+00 0. -1.
</event>
<event>
 5    1  0.6903325E-004  0.9118800E+02  0.7818608E-02  0.1130116E+00
         25   -1    0    0    0    0  0.00000000000E+00  0.00000000000E+00  0.99999998245E-14  0.12500000000E+03  0.12500000000E+03 0.  0.
        -13    1    3    3    0    0  0.12641814554E+02 -0.19813442881E+02  0.35267141148E+02  0.42381250604E+02  0.10566000000E+00 0. -1.
         23    2    1    0    0    0  0.26698748742E+02  0.10903742608E+02 -0.58268567352E+01  0.95577779712E+02  0.90936488431E+02 0.  0.
         13    1    3    3    0    0  0.14056934187E+02  0.30717185488E+02 -0.41093997883E+02  0.53196529108E+02  0.10566000000E+00 0.  1.
         22    1    1    0    0    0 -0.26698748742E+02 -0.10903742608E+02  0.58268567352E+01  0.29422220288E+02  0.00000000000E+00 0. -1.
</event>
<event>
 5    1  0.6903325E-004  0.9118800E+02  0.7818608E-02  0.1130116E+00
         25   -1    0    0    0    0  0.00000000000E+00  0.00000000000E+00  0.99999998245E-14  0.12500000000E+03  0.12500000000E+03 0.  0.
        -13    1    3    3    0    0 -0.53308254098E+02 -0.19462413400E+02  0.15361089248E+02  0.58792258991E+02  0.10566000000E+00 0. -1.
         23    2    1    0    0    0 -0.26880697053E+02 -0.78850968917E+01 -0.79449844483E+01  0.95881802856E+02  0.91353438435E+02 0.  0.
         13    1    3    3    0    0  0.26427557045E+02  0.11577316509E+02 -0.23306073696E+02  0.37089543865E+02  0.10566000000E+00 0.  1.
         22    1    1    0    0    0  0.26880697053E+02  0.78850968917E+01  0.79449844483E+01  0.29118197144E+02  0.00000000000E+00 0. -1.
</event>
<event>
 5    1  0.6903325E-004  0.9118800E+02  0.7818608E-02  0.1130116E+00
         25   -1    0    0    0    0  0.00000000000E+00  0.00000000000E+00  0.99999998245E-14  0.12500000000E+03  0.12500000000E+03 0.  0.
        -13    1    3    3    0    0 -0.56124218452E+02 -0.25260579599E+02  0.84635279963E+01  0.62126220300E+02  0.10566000000E+00 0.  1.
         23    2    1    0    0    0 -0.23559804968E+02 -0.15845874870E+02  0.44308308408E+01  0.96263465371E+02  0.91874187577E+02 0.  0.
         13    1    3    3    0    0  0.32564413484E+02  0.94147047289E+01 -0.40326971555E+01  0.34137245072E+02  0.10566000000E+00 0. -1.
         22    1    1    0    0    0  0.23559804968E+02  0.15845874870E+02 -0.44308308408E+01  0.28736534629E+02  0.00000000000E+00 0.  1.
</event>
<event>
 5    1  0.6903325E-004  0.9118800E+02  0.7818608E-02  0.1130116E+00
         25   -1    0    0    0    0  0.00000000000E+00  0.00000000000E+00  0.99999998245E-14  0.12500000000E+03  0.12500000000E+03 0.  0.
        -13    1    3    3    0    0 -0.28507029977E+02  0.22018875104E+02  0.17066115508E+02  0.39859065236E+02  0.10566000000E+00 0. -1.
         23    2    1    0    0    0 -0.17135110991E+02 -0.13196404824E+02 -0.22332258355E+02  0.93911627701E+02  0.88616628943E+02 0.  0.
         13    1    3    3    0    0  0.11371918986E+02 -0.35215279928E+02 -0.39398373863E+02  0.54052562465E+02  0.10566000000E+00 0.  1.
         22    1    1    0    0    0  0.17135110991E+02  0.13196404824E+02  0.22332258355E+02  0.31088372299E+02  0.00000000000E+00 0.  1.
</event>
<event>
 5    1  0.6903325E-004  0.9118800E+02  0.7818608E-02  0.1130116E+00
         25   -1    0    0    0    0  0.00000000000E+00  0.00000000000E+00  0.99999998245E-14  0.12500000000E+03  0.12500000000E+03 0.  0.
        -13    1    3    3    0    0  0.34781688884E+02 -0.49332191764E+02  0.85187879601E+00  0.60366943665E+02  0.10566000000E+00 0. -1.
         23    2    1    0    0    0  0.24130470466E+02 -0.16924630222E+02 -0.53638856171E+01  0.95041796082E+02  0.90196724001E+02 0.  0.
         13    1    3    3    0    0 -0.10651218418E+02  0.32407561542E+02 -0.62157644131E+01  0.34674852417E+02  0.10566000000E+00 0.  1.
         22    1    1    0    0    0 -0.24130470466E+02  0.16924630222E+02  0.53638856171E+01  0.29958203918E+02  0.00000000000E+00 0. -1.
</event>
<event>
 5    1  0.6903325E-004  0.9118800E+02  0.7818608E-02  0.1130116E+00
         25   -1    0    0    0    0  0.00000000000E+00  0.00000000000E+00  0.99999998245E-14  0.12500000000E+03  0.12500000000E+03 0.  0.
        -13    1    3    3    0    0 -0.49891625390E+02 -0.23458863229E+02 -0.24936520589E+01  0.55188060418E+02  0.10566000000E+00 0. -1.
         23    2    1    0    0    0 -0.27976307138E+02  0.90675374934E+01  0.51412138352E+01  0.95144915391E+02  0.90339519856E+02 0.  0.
         13    1    3    3    0    0  0.21915318252E+02  0.32526400723E+02  0.76348658941E+01  0.39956854973E+02  0.10566000000E+00 0.  1.
         22    1    1    0    0    0  0.27976307138E+02 -0.90675374934E+01 -0.51412138352E+01  0.29855084609E+02  0.00000000000E+00 0. -1.
</event>
<event>
 5    1  0.6903325E-004  0.9118800E+02  0.7818608E-02  0.1130116E+00
         25   -1    0    0    0    0  0.00000000000E+00  0.00000000000E+00  0.99999998245E-14  0.12500000000E+03  0.12500000000E+03 0.  0.
        -13    1    3    3    0    0  0.48077725890E+02 -0.66151326480E+01 -0.17313791826E+02  0.51526752839E+02  0.10566000000E+00 0.  1.
         23    2    1    0    0    0  0.73916479799E+01 -0.25492601745E+02 -0.58653645605E+01  0.97817069603E+02  0.93964181477E+02 0.  0.
         13    1    3    3    0    0 -0.40686077910E+02 -0.18877469097E+02  0.11448427265E+02  0.46290316764E+02  0.10566000000E+00 0. -1.
         22    1    1    0    0    0 -0.73916479799E+01  0.25492601745E+02  0.58653645605E+01  0.27182930397E+02  0.00000000000E+00 0.  1.
</event>
<event>
 5    1  0.6903325E-004  0.9118800E+02  0.7818608E-02  0.1130116E+00
         25   -1    0    0    0    0  0.00000000000E+00  0.00000000000E+00  0.99999998245E-14  0.12500000000E+03  0.12500000000E+03 0.  0.
        -13    1    3    3    0    0 -0.12379901059E+02  0.20151254457E+02 -0.45406917890E+02  0.51197015174E+02  0.10566000000E+00 0.  1.
         23    2    1    0    0    0  0.38782074472E+01  0.28460748758E+02 -0.45898946295E+01  0.95911826362E+02  0.91394510724E+02 0.  0.
         13    1    3    3    0    0  0.16258108506E+02  0.83094943014E+01  0.40817023260E+02  0.44714811188E+02  0.10566000000E+00 0. -1.
         22    1    1    0    0    0 -0.38782074472E+01 -0.28460748758E+02  0.45898946295E+01  0.29088173638E+02  0.00000000000E+00 0.  1.
</event>
<event>
 5    1  0.6903325E-004  0.9118800E+02  0.7818608E-02  0.1130116E+00
         25   -1    0    0    0    0  0.00000000000E+00  0.00000000000E+00  0.99999998245E-14  0.12500000000E+03  0.12500000000E+03 0.  0.
        -13    1    3    3    0    0  0.48819729443E+01  0.36209574016E+02  0.49731411934E+02  0.61710545349E+02  0.10566000000E+00 0.  1.
         23    2    1    0    0    0 -0.26916667919E+01  0.19967681542E+02  0.33596806414E+02  0.85824768316E+02  0.76362242497E+02 0.  0.
         13    1    3    3    0    0 -0.75736397362E+01 -0.16241892474E+02 -0.16134605520E+02  0.24114222968E+02  0.10566000000E+00 0. -1.
         22    1    1    0    0    0  0.26916667919E+01 -0.19967681542E+02 -0.33596806414E+02  0.39175231684E+02  0.00000000000E+00 0.  1.
</event>
<event>
 5    1  0.6903325E-004  0.9118800E+02  0.7818608E-02  0.1130116E+00
         25   -1    0    0    0    0  0.00000000000E+00  0.00000000000E+00  0.99999998245E-14  0.12500000000E+03  0.12500000000E+03 0.  0.
        -13    1    3    3    0    0 -0.26895416065E+02  0.11012124457E+02 -0.32188465768E+02  0.43367485320E+02  0.10566000000E+00 0. -1.
         23    2    1    0    0    0  0.32492752282E+01  0.33342748331E+02 -0.21432808206E+01  0.91430813110E+02  0.85045301326E+02 0.  0.
         13    1    3    3    0    0  0.30144691294E+02  0.22330623873E+02  0.30045184948E+02  0.48063327791E+02  0.10566000000E+00 0.  1.
         22    1    1    0    0    0 -0.32492752282E+01 -0.33342748331E+02  0.21432808206E+01  0.33569186890E+02  0.00000000000E+00 0.  1.
</event>
<event>
 5    1  0.6903325E-004  0.9118800E+02  0.7818608E-02  0.1130116E+00
         25   -1    0    0    0    0  0.00000000000E+00  0.00000000000E+00  0.99999998245E-14  0.12500000000E+03  0.12500000000E+03 0.  0.
        -13    1    3    3    0    0 -0.22852951853E+02 -0.51989957255E+01  0.34048882978E+02  0.41335512106E+02  0.10566000000E+00 0. -1.
         23    2    1    0    0    0  0.11438435251E+02 -0.25614510400E+02 -0.42251502637E+01  0.96631129054E+02  0.92373060269E+02 0.  0.
         13    1    3    3    0    0  0.34291387104E+02 -0.20415514675E+02 -0.38274033242E+02  0.55295616947E+02  0.10566000000E+00 0.  1.
         22    1    1    0    0    0 -0.11438435251E+02  0.25614510400E+02  0.42251502637E+01  0.28368870946E+02  0.00000000000E+00 0.  1.
</event>
<event>
 5    1  0.6903325E-004  0.9118800E+02  0.7818608E-02  0.1130116E+00
         25   -1    0    0    0    0  0.00000000000E+00  0.00000000000E+00  0.99999998245E-14  0.12500000000E+03  0.12500000000E+03 0.  0.
        -13    1    3    3    0    0 -0.43540672609E+02 -0.19495168466E+02 -0.33341699420E+02  0.58202507240E+02  0.10566000000E+00 0. -1.
         23    2    1    0    0    0 -0.10353236564E+02 -0.23138180614E+01 -0.26845679594E+02  0.96134211006E+02  0.91698161114E+02 0.  0.
         13    1    3    3    0    0  0.33187436045E+02  0.17181350405E+02  0.64960198259E+01  0.37931703766E+02  0.10566000000E+00 0.  1.
         22    1    1    0    0    0  0.10353236564E+02  0.23138180614E+01  0.26845679594E+02  0.28865788994E+02  0.00000000000E+00 0. -1.
</event>
<event>
 5    1  0.6903325E-004  0.9118800E+02  0.7818608E-02  0.1130116E+00
         25   -1    0    0    0    0  0.00000000000E+00  0.00000000000E+00  0.99999998245E-14  0.12500000000E+03  0.12500000000E+03 0.  0.
        -13    1    3    3    0    0  0.14221777666E+02 -0.48568654411E+02 -0.18036672783E+02  0.53726212228E+02  0.10566000000E+00 0. -1.
         23    2    1    0    0    0  0.84044148462E+01 -0.23478165250E+02  0.15216042254E+02  0.95787222414E+02  0.91223931090E+02 0.  0.
         13    1    3    3    0    0 -0.58173628203E+01  0.25090489161E+02  0.33252715037E+02  0.42061010186E+02  0.10566000000E+00 0.  1.
         22    1    1    0    0    0 -0.84044148462E+01  0.23478165250E+02 -0.15216042254E+02  0.29212777586E+02  0.00000000000E+00 0. -1.
</event>
<event>
 5    1  0.6903325E-004  0.9118800E+02  0.7818608E-02  0.1130116E+00
         25   -1    0    0    0    0  0.00000000000E+00  0.00000000000E+00  0.99999998245E-14  0.12500000000E+03  0.12500000000E+03 0.  0.
        -13    1    3    3    0    0 -0.26650133260E+02  0.35380728107E+01  0.20042805847E+02  0.33533159592E+02  0.10566000000E+00 0.  1.
         23    2    1    0    0    0  0.27711926084E+02 -0.11442412181E+02 -0.38457436985E+01  0.94773035409E+02  0.89823487197E+02 0.  0.
         13    1    3    3    0    0  0.54362059344E+02 -0.14980484991E+02 -0.23888549545E+02  0.61239875817E+02  0.10566000000E+00 0. -1.
         22    1    1    0    0    0 -0.27711926084E+02  0.11442412181E+02  0.38457436985E+01  0.30226964591E+02  0.00000000000E+00 0. -1.
</event>
<event>
 5    1  0.6903325E-004  0.9118800E+02  0.7818608E-02  0.1130116E+00
         25   -1    0    0    0    0  0.00000000000E+00  0.00000000000E+00  0.99999998245E-14  0.12500000000E+03  0.12500000000E+03 0.  0.
        -13    1    3    3    0    0 -0.18222137095E+02  0.13493191195E+02  0.29562367818E+02  0.37256640267E+02  0.10566000000E+00 0. -1.
         23    2    1    0    0    0 -0.66062275648E+01 -0.29422904060E+02 -0.60771953002E+01  0.94238305823E+02  0.89076239568E+02 0.  0.
         13    1    3    3    0    0  0.11615909530E+02 -0.42916095255E+02 -0.35639563119E+02  0.56981665555E+02  0.10566000000E+00 0.  1.
         22    1    1    0    0    0  0.66062275648E+01  0.29422904060E+02  0.60771953002E+01  0.30761694177E+02  0.00000000000E+00 0.  1.
</event>
<event>
 5    1  0.6903325E-004  0.9118800E+02  0.7818608E-02  0.1130116E+00
         25   -1    0    0    0    0  0.00000000000E+00  0.00000000000E+00  0.99999998245E-14  0.12500000000E+03  0.12500000000E+03 0.  0.
        -13    1    3    3    0    0 -0.94636374348E+01  0.16472028704E+02 -0.26514750530E+02  0.32617960127E+02  0.10566000000E+00 0. -1.
         23    2    1    0    0    0  0.28997986285E+01 -0.24953234120E+02  0.17555816186E+02  0.94352334394E+02  0.89236111516E+02 0.  0.
         13    1    3    3    0    0  0.12363436063E+02 -0.41425262824E+02  0.44070566717E+02  0.61734374267E+02  0.10566000000E+00 0.  1.
         22    1    1    0    0    0 -0.28997986285E+01  0.24953234120E+02 -0.17555816186E+02  0.30647665606E+02  0.00000000000E+00 0.  1.
</event>
<event>
 5    1  0.6903325E-004  0.9118800E+02  0.7818608E-02  0.1130116E+00
         25   -1    0    0    0    0  0.00000000000E+00  0.00000000000E+00  0.99999998245E-14  0.12500000000E+03  0.12500000000E+03 0.  0.
        -13    1    3    3    0    0  0.52694114578E+02 -0.18898307703E+02  0.23293469534E+02  0.60633428339E+02  0.10566000000E+00 0.  1.
         23    2    1    0    0    0  0.19129882109E+02 -0.14858358606E+02  0.17931384382E+02  0.94862684993E+02  0.89948158671E+02 0.  0.
         13    1    3    3    0    0 -0.33564232468E+02  0.40399490967E+01 -0.53620851519E+01  0.34229256654E+02  0.10566000000E+00 0. -1.
         22    1    1    0    0    0 -0.19129882109E+02  0.14858358606E+02 -0.17931384382E+02  0.30137315007E+02  0.00000000000E+00 0.  1.
</event>
<event>
 5    1  0.6903325E-004  0.9118800E+02  0.7818608E-02  0.1130116E+00
         25   -1    0    0    0    0  0.00000000000E+00  0.00000000000E+00  0.99999998245E-14  0.12500000000E+03  0.12500000000E+03 0.  0.
        -13    1    3    3    0    0  0.54533724535E+02 -0.15342833411E+02 -0.15965675848E+01  0.56673537395E+02  0.10566000000E+00 0. -1.
         23    2    1    0    0    0  0.19679720074E+02 -0.24829065444E+02 -0.48778900773E+01  0.92944303398E+02  0.87241480097E+02 0.  0.
         13    1    3    3    0    0 -0.34854004461E+02 -0.94862320333E+01 -0.32813224925E+01  0.36270766004E+02  0.10566000000E+00 0.  1.
         22    1    1    0    0    0 -0.19679720074E+02  0.24829065444E+02  0.48778900773E+01  0.32055696602E+02  0.00000000000E+00 0. -1.
</event>
<event>
 5    1  0.6903325E-004  0.9118800E+02  0.7818608E-02  0.1130116E+00
         25   -1    0    0    0    0  0.00000000000E+00  0.00000000000E+00  0.99999998245E-14  0.12500000000E+03  0.12500000000E+03 0.  0.
        -13    1    3    3    0    0  0.30388257901E+02  0.16158646864E+02  0.93253323284E+01  0.35658394156E+02  0.10566000000E+00 0.  1.
         23    2    1    0    0    0 -0.25319463526E+02  0.63343653019E+01 -0.12208570154E+02  0.96185965187E+02  0.91768683638E+02 0.  0.
         13    1    3    3    0    0 -0.55707721426E+02 -0.98242815616E+01 -0.21533902483E+02  0.60527571031E+02  0.10566000000E+00 0. -1.
         22    1    1    0    0    0  0.25319463526E+02 -0.63343653019E+01  0.12208570154E+02  0.28814034813E+02  0.00000000000E+00 0. -1.
</event>
<event>
 5    1  0.6903325E-004  0.9118800E+02  0.7818608E-02  0.1130116E+00
         25   -1    0    0    0    0  0.00000000000E+00  0.00000000000E+00  0.99999998245E-14  0.12500000000E+03  0.12500000000E+03 0.  0.
        -13    1    3    3    0    0  0.24753284846E+02  0.71802849505E+01 -0.51415145858E+02  0.57513563533E+02  0.10566000000E+00 0.  1.
         23    2    1    0    0    0 -0.59158838542E+01  0.35260281830E+01 -0.27706971073E+02  0.96449924648E+02  0.92127526625E+02 0.  0.
         13    1    3    3    0    0 -0.30669168700E+02 -0.36542567676E+01  0.23708174784E+02  0.38936361116E+02  0.10566000000E+00 0. -1.
         22    1    1    0    0    0  0.59158838542E+01 -0.35260281830E+01  0.27706971073E+02  0.28550075352E+02  0.00000000000E+00 0.  1.
</event>
<event>
 5    1  0.6903325E-004  0.9118800E+02  0.7818608E-02  0.1130116E+00
         25   -1    0    0    0    0  0.00000000000E+00  0.00000000000E+00  0.99999998245E-14  0.12500000000E+03  0.12500000000E+03 0.  0.
        -13    1    3    3    0    0  0.52771804679E+02  0.20553844847E+02  0.12530054731E+02  0.58002908053E+02  0.10566000000E+00 0. -1.
         23    2    1    0    0    0  0.18323129841E+02  0.91450491538E+01  0.21421004109E+02  0.95365080931E+02  0.90643644193E+02 0.  0.
         13    1    3    3    0    0 -0.34448674838E+02 -0.11408795693E+02  0.88909493782E+01  0.37362172877E+02  0.10566000000E+00 0.  1.
         22    1    1    0    0    0 -0.18323129841E+02 -0.91450491538E+01 -0.21421004109E+02  0.29634919069E+02  0.00000000000E+00 0. -1.
</event>
<event>
 5    1  0.6903325E-004  0.9118800E+02  0.7818608E-02  0.1130116E+00
         25   -1    0    0    0    0  0.00000000000E+00  0.00000000000E+00  0.99999998245E-14  0.12500000000E+03  0.12500000000E+03 0.  0.
        -13    1    3    3    0    0  0.16456222154E+02  0.28574064194E+02  0.21074300628E+02  0.39133383488E+02  0.10566000000E+00 0. -1.
         23    2    1    0    0    0  0.15062398285E+02 -0.62248171765E+01 -0.23934729169E+02  0.96043214071E+02  0.91574032988E+02 0.  0.
         13    1    3    3    0    0 -0.13938238694E+01 -0.34798881371E+02 -0.45009029797E+02  0.56909830583E+02  0.10566000000E+00 0.  1.
         22    1    1    0    0    0 -0.15062398285E+02  0.62248171765E+01  0.23934729169E+02  0.28956785929E+02  0.00000000000E+00 0.  1.
</event>
<event>
 5    1  0.6903325E-004  0.9118800E+02  0.7818608E-02  0.1130116E+00
         25   -1    0    0    0    0  0.00000000000E+00  0.00000000000E+00  0.99999998245E-14  0.12500000000E+03  0.12500000000E+03 0.  0.
        -13    1    3    3    0    0 -0.29501065671E+02 -0.13942095812E+02 -0.21441347423E+02  0.39044045061E+02  0.10566000000E+00 0. -1.
         23    2    1    0    0    0 -0.54274509166E+01  0.29283101124E+02  0.44524491563E+01  0.94887186475E+02  0.89982201677E+02 0.  0.
         13    1    3    3    0    0  0.24073614755E+02  0.43225196937E+02  0.25893796580E+02  0.55843141414E+02  0.10566000000E+00 0.  1.
         22    1    1    0    0    0  0.54274509166E+01 -0.29283101124E+02 -0.44524491563E+01  0.30112813525E+02  0.00000000000E+00 0.  1.
</event>
<event>
 5    1  0.6903325E-004  0.9118800E+02  0.7818608E-02  0.1130116E+00
         25   -1    0    0    0    0  0.00000000000E+00  0.00000000000E+00  0.99999998245E-14  0.12500000000E+03  0.12500000000E+03 0.  0.
        -13    1    3    3    0    0  0.12461769962E+02  0.28860459873E+02  0.45670316656E+02  0.55443762878E+02  0.10566000000E+00 0. -1.
         23    2    1    0    0    0 -0.57803258095E+01  0.26767819268E+02  0.94890366845E+01  0.96017761784E+02  0.91539283622E+02 0.  0.
         13    1    3    3    0    0 -0.18242095771E+02 -0.20926406051E+01 -0.36181279971E+02  0.40573998906E+02  0.10566000000E+00 0.  1.
         22    1    1    0    0    0  0.57803258095E+01 -0.26767819268E+02 -0.94890366845E+01  0.28982238216E+02  0.00000000000E+00 0. -1.
</event>
<event>
 5    1  0.6903325E-004  0.9118800E+02  0.7818608E-02  0.1130116E+00
         25   -1    0    0    0    0  0.00000000000E+00  0.00000000000E+00  0.99999998245E-14  0.12500000000E+03  0.12500000000E+03 0.  0.
        -13    1    3    3    0    0  0.52092004660E+02 -0.29391186624E+02  0.49382440900E+01  0.60015133254E+02  0.10566000000E+00 0.  1.
         23    2    1    0    0    0  0.25108367535E+02 -0.91594306511E+01 -0.94078755608E+01  0.96665684891E+02  0.92419809688E+02 0.  0.
         13    1    3    3    0    0 -0.26983637126E+02  0.20231755973E+02 -0.14346119651E+02  0.36650551638E+02  0.10566000000E+00 0. -1.
         22    1    1    0    0    0 -0.25108367535E+02  0.91594306511E+01  0.94078755608E+01  0.28334315109E+02  0.00000000000E+00 0.  1.
</event>
<event>
 5    1  0.6903325E-004  0.9118800E+02  0.7818608E-02  0.1130116E+00
         25   -1    0    0    0    0  0.00000000000E+00  0.00000000000E+00  0.99999998245E-14  0.12500000000E+03  0.12500000000E+03 0.  0.
        -13    1    3    3    0    0 -0.49186712800E+02 -0.60687812070E+01 -0.16720073523E+02  0.52304252638E+02  0.10566000000E+00 0.  1.
         23    2    1    0    0    0 -0.17030252119E+02 -0.26123931136E+02 -0.15387132328E+02  0.90225683235E+02  0.83255154847E+02 0.  0.
         13    1    3    3    0    0  0.32156460681E+02 -0.20055149929E+02  0.13329411956E+01  0.37921430596E+02  0.10566000000E+00 0. -1.
         22    1    1    0    0    0  0.17030252119E+02  0.26123931136E+02  0.15387132328E+02  0.34774316765E+02  0.00000000000E+00 0.  1.
</event>
<event>
 5    1  0.6903325E-004  0.9118800E+02  0.7818608E-02  0.1130116E+00
         25   -1    0    0    0    0  0.00000000000E+00  0.00000000000E+00  0.99999998245E-14  0.12500000000E+03  0.12500000000E+03 0.  0.
        -13    1    3    3    0    0 -0.18516651508E+02 -0.35231461603E+02 -0.47508622586E+02  0.61977436651E+02  0.10566000000E+00 0. -1.
         23    2    1    0    0    0 -0.62121068720E+01 -0.12667041549E+02 -0.25688885689E+02  0.95691928392E+02  0.91093260443E+02 0.  0.
         13    1    3    3    0    0  0.12304544636E+02  0.22564420054E+02  0.21819736897E+02  0.33714491741E+02  0.10566000000E+00 0.  1.
         22    1    1    0    0    0  0.62121068720E+01  0.12667041549E+02  0.25688885689E+02  0.29308071608E+02  0.00000000000E+00 0. -1.
</event>
<event>
 5    1  0.6903325E-004  0.9118800E+02  0.7818608E-02  0.1130116E+00
         25   -1    0    0    0    0  0.00000000000E+00  0.00000000000E+00  0.99999998245E-14  0.12500000000E+03  0.12500000000E+03 0.  0.
        -13    1    3    3    0    0  0.11772154056E+02  0.54403587744E+02  0.12313210520E+01  0.55676397927E+02  0.10566000000E+00 0. -1.
         23    2    1    0    0    0  0.20328036757E+02  0.14132838762E+02  0.10872093616E+02  0.97959870018E+02  0.94153956393E+02 0.  0.
         13    1    3    3    0    0  0.85558827002E+01 -0.40270748982E+02  0.96407725642E+01  0.42283472090E+02  0.10566000000E+00 0.  1.
         22    1    1    0    0    0 -0.20328036757E+02 -0.14132838762E+02 -0.10872093616E+02  0.27040129982E+02  0.00000000000E+00 0. -1.
</event>
<event>
 5    1  0.6903325E-004  0.9118800E+02  0.7818608E-02  0.1130116E+00
         25   -1    0    0    0    0  0.00000000000E+00  0.00000000000E+00  0.99999998245E-14  0.12500000000E+03  0.12500000000E+03 0.  0.
        -13    1    3    3    0    0 -0.34689412468E+02  0.30369105184E+02  0.21392363100E+02  0.50825999745E+02  0.10566000000E+00 0. -1.
         23    2    1    0    0    0 -0.23581560389E+02 -0.98303792828E+01  0.19998243727E+02  0.92555337891E+02  0.86682376944E+02 0.  0.
         13    1    3    3    0    0  0.11107852079E+02 -0.40199484467E+02 -0.13941193733E+01  0.41729338146E+02  0.10566000000E+00 0.  1.
         22    1    1    0    0    0  0.23581560389E+02  0.98303792828E+01 -0.19998243727E+02  0.32444662109E+02  0.00000000000E+00 0.  1.
</event>
<event>
 5    1  0.6903325E-004  0.9118800E+02  0.7818608E-02  0.1130116E+00
         25   -1    0    0    0    0  0.00000000000E+00  0.00000000000E+00  0.99999998245E-14  0.12500000000E+03  0.12500000000E+03 0.  0.
        -13    1    3    3    0    0 -0.39534661678E+02  0.39576818412E+01  0.15110212966E+01  0.39761125096E+02  0.10566000000E+00 0.  1.
         23    2    1    0    0    0  0.84963363521E+01 -0.61502879582E+01  0.27690498658E+02  0.95389571274E+02  0.90677410741E+02 0.  0.
         13    1    3    3    0    0  0.48030998030E+02 -0.10107969799E+02  0.26179477362E+02  0.55628446178E+02  0.10566000000E+00 0. -1.
         22    1    1    0    0    0 -0.84963363521E+01  0.61502879582E+01 -0.27690498658E+02  0.29610428726E+02  0.00000000000E+00 0. -1.
</event>
<event>
 5    1  0.6903325E-004  0.9118800E+02  0.7818608E-02  0.1130116E+00
         25   -1    0    0    0    0  0.00000000000E+00  0.00000000000E+00  0.99999998245E-14  0.12500000000E+03  0.12500000000E+03 0.  0.
        -13    1    3    3    0    0  0.78319062561E+00  0.22781600246E+02 -0.55799272631E+02  0.60275904701E+02  0.10566000000E+00 0.  1.
         23    2    1    0    0    0 -0.11018419061E+02  0.14312324773E+02 -0.34508803815E+02  0.86049958411E+02  0.76729978514E+02 0.  0.
         13    1    3    3    0    0 -0.11801609687E+02 -0.84692754722E+01  0.21290468816E+02  0.25774053711E+02  0.10566000000E+00 0. -1.
         22    1    1    0    0    0  0.11018419061E+02 -0.14312324773E+02  0.34508803815E+02  0.38950041589E+02  0.00000000000E+00 0.  1.
</event>
<event>
 5    1  0.6903325E-004  0.9118800E+02  0.7818608E-02  0.1130116E+00
         25   -1    0    0    0    0  0.00000000000E+00  0.00000000000E+00  0.99999998245E-14  0.12500000000E+03  0.12500000000E+03 0.  0.
        -13    1    3    3    0    0  0.36022180445E+02 -0.11603667942E+02  0.41396515381E+02  0.56088548238E+02  0.10566000000E+00 0.  1.
         23    2    1    0    0    0  0.16684516118E+02  0.14789790571E+02  0.18567818682E+02  0.95984919889E+02  0.91494425909E+02 0.  0.
         13    1    3    3    0    0 -0.19337664327E+02  0.26393458513E+02 -0.22828696699E+02  0.39896371651E+02  0.10566000000E+00 0. -1.
         22    1    1    0    0    0 -0.16684516118E+02 -0.14789790571E+02 -0.18567818682E+02  0.29015080111E+02  0.00000000000E+00 0. -1.
</event>
<event>
 5    1  0.6903325E-004  0.9118800E+02  0.7818608E-02  0.1130116E+00
         25   -1    0    0    0    0  0.00000000000E+00  0.00000000000E+00  0.99999998245E-14  0.12500000000E+03  0.12500000000E+03 0.  0.
        -13    1    3    3    0    0 -0.49629506287E+01 -0.30525171684E+02 -0.38060175926E+02  0.49040851755E+02  0.10566000000E+00 0.  1.
         23    2    1    0    0    0 -0.19933184008E+02  0.96245069846E+01 -0.18534391957E+02  0.96129831234E+02  0.91692190553E+02 0.  0.
         13    1    3    3    0    0 -0.14970233379E+02  0.40149678669E+02  0.19525783970E+02  0.47088979478E+02  0.10566000000E+00 0. -1.
         22    1    1    0    0    0  0.19933184008E+02 -0.96245069846E+01  0.18534391957E+02  0.28870168766E+02  0.00000000000E+00 0.  1.
</event>
<event>
 5    1  0.6903325E-004  0.9118800E+02  0.7818608E-02  0.1130116E+00
         25   -1    0    0    0    0  0.00000000000E+00  0.00000000000E+00  0.99999998245E-14  0.12500000000E+03  0.12500000000E+03 0.  0.
        -13    1    3    3    0    0  0.44346154633E+01  0.26181280796E+02 -0.25738831818E+02  0.36981399458E+02  0.10566000000E+00 0. -1.
         23    2    1    0    0    0  0.15733866317E+02  0.22732815608E+02  0.24175060957E+02  0.88274409099E+02  0.80272051642E+02 0.  0.
         13    1    3    3    0    0  0.11299250853E+02 -0.34484651885E+01  0.49913892776E+02  0.51293009641E+02  0.10566000000E+00 0.  1.
         22    1    1    0    0    0 -0.15733866317E+02 -0.22732815608E+02 -0.24175060957E+02  0.36725590901E+02  0.00000000000E+00 0.  1.
</event>
<event>
 5    1  0.6903325E-004  0.9118800E+02  0.7818608E-02  0.1130116E+00
         25   -1    0    0    0    0  0.00000000000E+00  0.00000000000E+00  0.99999998245E-14  0.12500000000E+03  0.12500000000E+03 0.  0.
        -13    1    3    3    0    0 -0.40886925963E+02 -0.16911529484E+02 -0.38544213651E+02  0.58680559934E+02  0.10566000000E+00 0.  1.
         23    2    1    0    0    0 -0.33481778140E+01 -0.13899245972E+02 -0.19326606419E+02  0.10096009466E+03  0.98056227053E+02 0.  0.
         13    1    3    3    0    0  0.37538748149E+02  0.30122835118E+01  0.19217607232E+02  0.42279534722E+02  0.10566000000E+00 0. -1.
         22    1    1    0    0    0  0.33481778140E+01  0.13899245972E+02  0.19326606419E+02  0.24039905344E+02  0.00000000000E+00 0.  1.
</event>
<event>
 5    1  0.6903325E-004  0.9118800E+02  0.7818608E-02  0.1130116E+00
         25   -1    0    0    0    0  0.00000000000E+00  0.00000000000E+00  0.99999998245E-14  0.12500000000E+03  0.12500000000E+03 0.  0.
        -13    1    3    3    0    0 -0.44890446130E+02  0.12493946650E+02 -0.14147680421E+02  0.48697216368E+02  0.10566000000E+00 0. -1.
         23    2    1    0    0    0 -0.26651981015E+01 -0.44217994857E+01 -0.28219791910E+02  0.96311809973E+02  0.91939939597E+02 0.  0.
         13    1    3    3    0    0  0.42225248028E+02 -0.16915746135E+02 -0.14072111489E+02  0.47614593605E+02  0.10566000000E+00 0.  1.
         22    1    1    0    0    0  0.26651981015E+01  0.44217994857E+01  0.28219791910E+02  0.28688190027E+02  0.00000000000E+00 0.  1.
</event>
<event>
 5    1  0.6903325E-004  0.9118800E+02  0.7818608E-02  0.1130116E+00
         25   -1    0    0    0    0  0.00000000000E+00  0.00000000000E+00  0.99999998245E-14  0.12500000000E+03  0.12500000000E+03 0.  0.
        -13    1    3    3    0    0  0.54169231788E+02  0.28452382318E+02  0.26878832844E+01  0.61246057936E+02  0.10566000000E+00 0. -1.
         23    2    1    0    0    0  0.25744460204E+02  0.46263541626E+01  0.48434295507E+01  0.98398511435E+02  0.94734512501E+02 0.  0.
         13    1    3    3    0    0 -0.28424771584E+02 -0.23826028155E+02  0.21555462663E+01  0.37152453499E+02  0.10566000000E+00 0.  1.
         22    1    1    0    0    0 -0.25744460204E+02 -0.46263541626E+01 -0.48434295507E+01  0.26601488565E+02  0.00000000000E+00 0. -1.
</event>
<event>
 5    1  0.6903325E-004  0.9118800E+02  0.7818608E-02  0.1130116E+00
         25   -1    0    0    0    0  0.00000000000E+00  0.00000000000E+00  0.99999998245E-14  0.12500000000E+03  0.12500000000E+03 0.  0.
        -13    1    3    3    0    0  0.20455370071E+02 -0.29431702935E+02  0.47309220666E+01  0.36153009419E+02  0.10566000000E+00 0.  1.
         23    2    1    0    0    0 -0.12272879289E+02  0.19949647118E+02  0.16233705520E+02  0.96501838988E+02  0.92197937867E+02 0.  0.
         13    1    3    3    0    0 -0.32728249360E+02  0.49381350053E+02  0.11502783453E+02  0.60348829569E+02  0.10566000000E+00 0. -1.
         22    1    1    0    0    0  0.12272879289E+02 -0.19949647118E+02 -0.16233705520E+02  0.28498161012E+02  0.00000000000E+00 0. -1.
</event>
<event>
 5    1  0.6903325E-004  0.9118800E+02  0.7818608E-02  0.1130116E+00
         25   -1    0    0    0    0  0.00000000000E+00  0.00000000000E+00  0.99999998245E-14  0.12500000000E+03  0.12500000000E+03 0.  0.
        -13    1    3    3    0    0  0.18161025891E+02 -0.52906397746E+02  0.27043076032E+02  0.62130901403E+02  0.10566000000E+00 0.  1.
         23    2    1    0    0    0  0.39931121473E+01 -0.25289707054E+02  0.14207053302E+02  0.95719381991E+02  0.91130925035E+02 0.  0.
         13    1    3    3    0    0 -0.14167913744E+02  0.27616690692E+02 -0.12836022730E+02  0.33588480588E+02  0.10566000000E+00 0. -1.
         22    1    1    0    0    0 -0.39931121473E+01  0.25289707054E+02 -0.14207053302E+02  0.29280618009E+02  0.00000000000E+00 0.  1.
</event>
<event>
 5    1  0.6903325E-004  0.9118800E+02  0.7818608E-02  0.1130116E+00
         25   -1    0    0    0    0  0.00000000000E+00  0.00000000000E+00  0.99999998245E-14  0.12500000000E+03  0.12500000000E+03 0.  0.
        -13    1    3    3    0    0  0.57658202798E+01  0.61682267572E+02 -0.66224909266E+01  0.62304216281E+02  0.10566000000E+00 0.  1.
         23    2    1    0    0    0 -0.69397476777E+00  0.29739385341E+02 -0.36578287127E+01  0.95028474308E+02  0.90178260002E+02 0.  0.
         13    1    3    3    0    0 -0.64597950475E+01 -0.31942882231E+02  0.29646622139E+01  0.32724258026E+02  0.10566000000E+00 0. -1.
         22    1    1    0    0    0  0.69397476777E+00 -0.29739385341E+02  0.36578287127E+01  0.29971525692E+02  0.00000000000E+00 0.  1.
</event>
<event>
 5    1  0.6903325E-004  0.9118800E+02  0.7818608E-02  0.1130116E+00
         25   -1    0    0    0    0  0.00000000000E+00  0.00000000000E+00  0.99999998245E-14  0.12500000000E+03  0.12500000000E+03 0.  0.
        -13    1    3    3    0    0  0.19431193103E+01  0.30768185208E+02  0.17326511037E+02  0.35364899016E+02  0.10566000000E+00 0. -1.
         23    2    1    0    0    0 -0.64030798433E+01 -0.27869267734E+02  0.78493338055E+01  0.95346879478E+02  0.90618540429E+02 0.  0.
         13    1    3    3    0    0 -0.83461991537E+01 -0.58637452942E+02 -0.94771772311E+01  0.59981980462E+02  0.10566000000E+00 0.  1.
         22    1    1    0    0    0  0.64030798433E+01  0.27869267734E+02 -0.78493338055E+01  0.29653120522E+02  0.00000000000E+00 0.  1.
</event>
<event>
 5    1  0.6903325E-004  0.9118800E+02  0.7818608E-02  0.1130116E+00
         25   -1    0    0    0    0  0.00000000000E+00  0.00000000000E+00  0.99999998245E-14  0.12500000000E+03  0.12500000000E+03 0.  0.
        -13    1    3    3    0    0  0.28570231367E+02 -0.43504236701E+02  0.27546922161E+02  0.58887357012E+02  0.10566000000E+00 0.  1.
         23    2    1    0    0    0  0.38480741602E+01 -0.28612590757E+02  0.45857544923E+01  0.95767874370E+02  0.91197415492E+02 0.  0.
         13    1    3    3    0    0 -0.24722157207E+02  0.14891645943E+02 -0.22961167668E+02  0.36880517358E+02  0.10566000000E+00 0. -1.
         22    1    1    0    0    0 -0.38480741602E+01  0.28612590757E+02 -0.45857544923E+01  0.29232125630E+02  0.00000000000E+00 0.  1.
</event>
<event>
 5    1  0.6903325E-004  0.9118800E+02  0.7818608E-02  0.1130116E+00
         25   -1    0    0    0    0  0.00000000000E+00  0.00000000000E+00  0.99999998245E-14  0.12500000000E+03  0.12500000000E+03 0.  0.
        -13    1    3    3    0    0 -0.52474196294E+02  0.10688866635E+02 -0.18786939671E+02  0.56751682027E+02  0.10566000000E+00 0. -1.
         23    2    1    0    0    0 -0.24832123620E+02  0.13484127691E+02  0.82952777447E+01  0.95550590907E+02  0.90899107404E+02 0.  0.
         13    1    3    3    0    0  0.27642072674E+02  0.27952610555E+01  0.27082217416E+02  0.38798908880E+02  0.10566000000E+00 0.  1.
         22    1    1    0    0    0  0.24832123620E+02 -0.13484127691E+02 -0.82952777447E+01  0.29449409093E+02  0.00000000000E+00 0. -1.
</event>
<event>
 5    1  0.6903325E-004  0.9118800E+02  0.7818608E-02  0.1130116E+00
         25   -1    0    0    0    0  0.00000000000E+00  0.00000000000E+00  0.99999998245E-14  0.12500000000E+03  0.12500000000E+03 0.  0.
        -13    1    3    3    0    0  0.41969718671E+02 -0.32720988925E+02 -0.31798002583E+02  0.61993907232E+02  0.10566000000E+00 0.  1.
         23    2    1    0    0    0  0.23493525353E+02 -0.12117393760E+02 -0.12321747984E+02  0.95834910622E+02  0.91289252684E+02 0.  0.
         13    1    3    3    0    0 -0.18476193319E+02  0.20603595164E+02  0.19476254599E+02  0.33841003391E+02  0.10566000000E+00 0. -1.
         22    1    1    0    0    0 -0.23493525353E+02  0.12117393760E+02  0.12321747984E+02  0.29165089378E+02  0.00000000000E+00 0.  1.
</event>
<event>
 5    1  0.6903325E-004  0.9118800E+02  0.7818608E-02  0.1130116E+00
         25   -1    0    0    0    0  0.00000000000E+00  0.00000000000E+00  0.99999998245E-14  0.12500000000E+03  0.12500000000E+03 0.  0.
        -13    1    3    3    0    0  0.39945938361E+02  0.75030713544E+01 -0.14583486341E+02  0.43181747408E+02  0.10566000000E+00 0.  1.
         23    2    1    0    0    0  0.78684422798E+01  0.42924421803E+01  0.27432420063E+02  0.96140424218E+02  0.91706630374E+02 0.  0.
         13    1    3    3    0    0 -0.32077496081E+02 -0.32106291741E+01  0.42015906404E+02  0.52958676811E+02  0.10566000000E+00 0. -1.
         22    1    1    0    0    0 -0.78684422798E+01 -0.42924421803E+01 -0.27432420063E+02  0.28859575782E+02  0.00000000000E+00 0. -1.
</event>
<event>
 5    1  0.6903325E-004  0.9118800E+02  0.7818608E-02  0.1130116E+00
         25   -1    0    0    0    0  0.00000000000E+00  0.00000000000E+00  0.99999998245E-14  0.12500000000E+03  0.12500000000E+03 0.  0.
        -13    1    3    3    0    0  0.76904512709E+01  0.12450564527E+02  0.44491522288E+02  0.46836591650E+02  0.10566000000E+00 0. -1.
         23    2    1    0    0    0  0.23788739632E+02  0.11025380004E+02 -0.44750491815E+01  0.98401330810E+02  0.94738232528E+02 0.  0.
         13    1    3    3    0    0  0.16098288361E+02 -0.14251845234E+01 -0.48966571470E+02  0.51564739160E+02  0.10566000000E+00 0.  1.
         22    1    1    0    0    0 -0.23788739632E+02 -0.11025380004E+02  0.44750491815E+01  0.26598669190E+02  0.00000000000E+00 0.  1.
</event>
<event>
 5    1  0.6903325E-004  0.9118800E+02  0.7818608E-02  0.1130116E+00
         25   -1    0    0    0    0  0.00000000000E+00  0.00000000000E+00  0.99999998245E-14  0.12500000000E+03  0.12500000000E+03 0.  0.
        -13    1    3    3    0    0  0.23239178971E+02 -0.37403741112E+02 -0.42517083599E+02  0.61211215069E+02  0.10566000000E+00 0.  1.
         23    2    1    0    0    0  0.18582395379E+02 -0.13000500518E+02 -0.19144702818E+02  0.95321083616E+02  0.90582950405E+02 0.  0.
         13    1    3    3    0    0 -0.46567835921E+01  0.24403240594E+02  0.23372380781E+02  0.34109868548E+02  0.10566000000E+00 0. -1.
         22    1    1    0    0    0 -0.18582395379E+02  0.13000500518E+02  0.19144702818E+02  0.29678916384E+02  0.00000000000E+00 0.  1.
</event>
<event>
 5    1  0.6903325E-004  0.9118800E+02  0.7818608E-02  0.1130116E+00
         25   -1    0    0    0    0  0.00000000000E+00  0.00000000000E+00  0.99999998245E-14  0.12500000000E+03  0.12500000000E+03 0.  0.
        -13    1    3    3    0    0 -0.26430965083E+02  0.20164848549E+02 -0.17361601053E+02  0.37505378113E+02  0.10566000000E+00 0. -1.
         23    2    1    0    0    0 -0.12439193202E+02 -0.23706406974E+02  0.15488826012E+02  0.94070548173E+02  0.88840514650E+02 0.  0.
         13    1    3    3    0    0  0.13991771881E+02 -0.43871255523E+02  0.32850427065E+02  0.56565170060E+02  0.10566000000E+00 0.  1.
         22    1    1    0    0    0  0.12439193202E+02  0.23706406974E+02 -0.15488826012E+02  0.30929451827E+02  0.00000000000E+00 0.  1.
</event>
<event>
 5    1  0.6903325E-004  0.9118800E+02  0.7818608E-02  0.1130116E+00
         25   -1    0    0    0    0  0.00000000000E+00  0.00000000000E+00  0.99999998245E-14  0.12500000000E+03  0.12500000000E+03 0.  0.
        -13    1    3    3    0    0  0.31965927191E+02 -0.25995557442E+02  0.38955848428E+02  0.56702370309E+02  0.10566000000E+00 0.  1.
         23    2    1    0    0    0 -0.13839635898E+01 -0.22095394761E+02  0.19429010486E+02  0.95544809060E+02  0.90891156143E+02 0.  0.
         13    1    3    3    0    0 -0.33349890781E+02  0.39001626807E+01 -0.19526837943E+02  0.38842438751E+02  0.10566000000E+00 0. -1.
         22    1    1    0    0    0  0.13839635898E+01  0.22095394761E+02 -0.19429010486E+02  0.29455190940E+02  0.00000000000E+00 0.  1.
</event>
<event>
 5    1  0.6903325E-004  0.9118800E+02  0.7818608E-02  0.1130116E+00
         25   -1    0    0    0    0  0.00000000000E+00  0.00000000000E+00  0.99999998245E-14  0.12500000000E+03  0.12500000000E+03 0.  0.
        -13    1    3    3    0    0 -0.25281873184E+02 -0.53808289281E+01 -0.51670701109E+02  0.57775418205E+02  0.10566000000E+00 0.  1.
         23    2    1    0    0    0 -0.13652225694E+02 -0.18636580857E+02 -0.18265677096E+02  0.95549357016E+02  0.90897410601E+02 0.  0.
         13    1    3    3    0    0  0.11629647490E+02 -0.13255751928E+02  0.33405024013E+02  0.37773938811E+02  0.10566000000E+00 0. -1.
         22    1    1    0    0    0  0.13652225694E+02  0.18636580857E+02  0.18265677096E+02  0.29450642984E+02  0.00000000000E+00 0. -1.
</event>
<event>
 5    1  0.6903325E-004  0.9118800E+02  0.7818608E-02  0.1130116E+00
         25   -1    0    0    0    0  0.00000000000E+00  0.00000000000E+00  0.99999998245E-14  0.12500000000E+03  0.12500000000E+03 0.  0.
        -13    1    3    3    0    0  0.26511988225E+02 -0.33515902658E+02 -0.23375066286E+02  0.48709405032E+02  0.10566000000E+00 0.  1.
         23    2    1    0    0    0  0.25006566229E+02  0.10663644832E+02 -0.15792896861E+02  0.93560259751E+02  0.88119605865E+02 0.  0.
         13    1    3    3    0    0 -0.15054219963E+01  0.44179547490E+02  0.75821694248E+01  0.44850854719E+02  0.10566000000E+00 0. -1.
         22    1    1    0    0    0 -0.25006566229E+02 -0.10663644832E+02  0.15792896861E+02  0.31439740249E+02  0.00000000000E+00 0.  1.
</event>
<event>
 5    1  0.6903325E-004  0.9118800E+02  0.7818608E-02  0.1130116E+00
         25   -1    0    0    0    0  0.00000000000E+00  0.00000000000E+00  0.99999998245E-14  0.12500000000E+03  0.12500000000E+03 0.  0.
        -13    1    3    3    0    0 -0.18713318946E+02 -0.65730489204E+01 -0.32067408136E+02  0.37705743683E+02  0.10566000000E+00 0.  1.
         23    2    1    0    0    0 -0.87195274515E+01 -0.13893578537E+02  0.24445813129E+02  0.95560919459E+02  0.90913309613E+02 0.  0.
         13    1    3    3    0    0  0.99937914942E+01 -0.73205296169E+01  0.56513221265E+02  0.57855175776E+02  0.10566000000E+00 0. -1.
         22    1    1    0    0    0  0.87195274515E+01  0.13893578537E+02 -0.24445813129E+02  0.29439080541E+02  0.00000000000E+00 0. -1.
</event>
<event>
 5    1  0.6903325E-004  0.9118800E+02  0.7818608E-02  0.1130116E+00
         25   -1    0    0    0    0  0.00000000000E+00  0.00000000000E+00  0.99999998245E-14  0.12500000000E+03  0.12500000000E+03 0.  0.
        -13    1    3    3    0    0 -0.10354300732E+01 -0.40086888984E+02 -0.47881554466E+02  0.62455465782E+02  0.10566000000E+00 0.  1.
         23    2    1    0    0    0 -0.20325355036E+01 -0.19296398384E+02 -0.22087645828E+02  0.95600233175E+02  0.90967347404E+02 0.  0.
         13    1    3    3    0    0 -0.99710543046E+00  0.20790490601E+02  0.25793908638E+02  0.33144767393E+02  0.10566000000E+00 0. -1.
         22    1    1    0    0    0  0.20325355036E+01  0.19296398384E+02  0.22087645828E+02  0.29399766825E+02  0.00000000000E+00 0.  1.
</event>
<event>
 5    1  0.6903325E-004  0.9118800E+02  0.7818608E-02  0.1130116E+00
         25   -1    0    0    0    0  0.00000000000E+00  0.00000000000E+00  0.99999998245E-14  0.12500000000E+03  0.12500000000E+03 0.  0.
        -13    1    3    3    0    0 -0.28765203152E+02 -0.15506610365E+02 -0.24805734303E+02  0.41027155589E+02  0.10566000000E+00 0.  1.
         23    2    1    0    0    0 -0.21493442099E+02  0.22057512036E+01  0.23552600311E+02  0.93038173190E+02  0.87375873658E+02 0.  0.
         13    1    3    3    0    0  0.72717610533E+01  0.17712361569E+02  0.48358334614E+02  0.52011017600E+02  0.10566000000E+00 0. -1.
         22    1    1    0    0    0  0.21493442099E+02 -0.22057512036E+01 -0.23552600311E+02  0.31961826810E+02  0.00000000000E+00 0. -1.
</event>
<event>
 5    1  0.6903325E-004  0.9118800E+02  0.7818608E-02  0.1130116E+00
         25   -1    0    0    0    0  0.00000000000E+00  0.00000000000E+00  0.99999998245E-14  0.12500000000E+03  0.12500000000E+03 0.  0.
        -13    1    3    3    0    0  0.41996084787E+01  0.22169832653E+02  0.58272935222E+02  0.62489073722E+02  0.10566000000E+00 0.  1.
         23    2    1    0    0    0  0.14554030349E+01  0.11065072213E+02  0.27305614140E+02  0.95501685055E+02  0.90831829573E+02 0.  0.
         13    1    3    3    0    0 -0.27442054439E+01 -0.11104760440E+02 -0.30967321082E+02  0.33012611332E+02  0.10566000000E+00 0. -1.
         22    1    1    0    0    0 -0.14554030349E+01 -0.11065072213E+02 -0.27305614140E+02  0.29498314945E+02  0.00000000000E+00 0.  1.
</event>
<event>
 5    1  0.6903325E-004  0.9118800E+02  0.7818608E-02  0.1130116E+00
         25   -1    0    0    0    0  0.00000000000E+00  0.00000000000E+00  0.99999998245E-14  0.12500000000E+03  0.12500000000E+03 0.  0.
        -13    1    3    3    0    0  0.28630955411E+02 -0.35738465862E+02 -0.59108740598E+01  0.46172709972E+02  0.10566000000E+00 0. -1.
         23    2    1    0    0    0  0.22500588455E+02  0.10868272441E+02 -0.17382818146E+02  0.94560581586E+02  0.89527344407E+02 0.  0.
         13    1    3    3    0    0 -0.61303669565E+01  0.46606738303E+02 -0.11471944086E+02  0.48387871615E+02  0.10566000000E+00 0.  1.
         22    1    1    0    0    0 -0.22500588455E+02 -0.10868272441E+02  0.17382818146E+02  0.30439418414E+02  0.00000000000E+00 0.  1.
</event>
<event>
 5    1  0.6903325E-004  0.9118800E+02  0.7818608E-02  0.1130116E+00
         25   -1    0    0    0    0  0.00000000000E+00  0.00000000000E+00  0.99999998245E-14  0.12500000000E+03  0.12500000000E+03 0.  0.
        -13    1    3    3    0    0 -0.48580442891E+02  0.19839474367E+01  0.24960829609E+02  0.54653907982E+02  0.10566000000E+00 0.  1.
         23    2    1    0    0    0 -0.77361401982E+01 -0.45217163025E+01  0.27486018939E+02  0.96090226210E+02  0.91638182831E+02 0.  0.
         13    1    3    3    0    0  0.40844302693E+02 -0.65056637392E+01  0.25251893298E+01  0.41436318228E+02  0.10566000000E+00 0. -1.
         22    1    1    0    0    0  0.77361401982E+01  0.45217163025E+01 -0.27486018939E+02  0.28909773790E+02  0.00000000000E+00 0.  1.
</event>
<event>
 5    1  0.6903325E-004  0.9118800E+02  0.7818608E-02  0.1130116E+00
         25   -1    0    0    0    0  0.00000000000E+00  0.00000000000E+00  0.99999998245E-14  0.12500000000E+03  0.12500000000E+03 0.  0.
        -13    1    3    3    0    0  0.90549681803E+01  0.46472866670E+02 -0.63200637552E+01  0.47766872989E+02  0.10566000000E+00 0.  1.
         23    2    1    0    0    0  0.24148961802E+02  0.41475679681E+00 -0.14365010673E+02  0.96898435792E+02  0.92734076520E+02 0.  0.
         13    1    3    3    0    0  0.15093993622E+02 -0.46058109873E+02 -0.80449469180E+01  0.49131562803E+02  0.10566000000E+00 0. -1.
         22    1    1    0    0    0 -0.24148961802E+02 -0.41475679681E+00  0.14365010673E+02  0.28101564208E+02  0.00000000000E+00 0. -1.
</event>
<event>
 5    1  0.6903325E-004  0.9118800E+02  0.7818608E-02  0.1130116E+00
         25   -1    0    0    0    0  0.00000000000E+00  0.00000000000E+00  0.99999998245E-14  0.12500000000E+03  0.12500000000E+03 0.  0.
        -13    1    3    3    0    0  0.31626405220E+02 -0.12121371843E+02  0.11111666805E+02  0.35646002100E+02  0.10566000000E+00 0.  1.
         23    2    1    0    0    0 -0.26541079800E+02  0.10597435263E+01  0.13228745101E+02  0.95325909108E+02  0.90589609101E+02 0.  0.
         13    1    3    3    0    0 -0.58167485020E+02  0.13181115369E+02  0.21170782965E+01  0.59679907008E+02  0.10566000000E+00 0. -1.
         22    1    1    0    0    0  0.26541079800E+02 -0.10597435263E+01 -0.13228745101E+02  0.29674090892E+02  0.00000000000E+00 0. -1.
</event>
<event>
 5    1  0.6903325E-004  0.9118800E+02  0.7818608E-02  0.1130116E+00
         25   -1    0    0    0    0  0.00000000000E+00  0.00000000000E+00  0.99999998245E-14  0.12500000000E+03  0.12500000000E+03 0.  0.
        -13    1    3    3    0    0 -0.14192647709E+02  0.97869584262E+01 -0.37522174040E+02  0.41293347078E+02  0.10566000000E+00 0. -1.
         23    2    1    0    0    0 -0.41129924220E+02 -0.22286623835E+01 -0.79716288061E+01  0.83045447587E+02  0.71668416313E+02 0.  0.
         13    1    3    3    0    0 -0.26937276511E+02 -0.12015620810E+02  0.29550545234E+02  0.41752100509E+02  0.10566000000E+00 0.  1.
         22    1    1    0    0    0  0.41129924220E+02  0.22286623835E+01  0.79716288061E+01  0.41954552413E+02  0.00000000000E+00 0. -1.
</event>
<event>
 5    1  0.6903325E-004  0.9118800E+02  0.7818608E-02  0.1130116E+00
         25   -1    0    0    0    0  0.00000000000E+00  0.00000000000E+00  0.99999998245E-14  0.12500000000E+03  0.12500000000E+03 0.  0.
        -13    1    3    3    0    0 -0.17825138191E+02  0.33160620555E+02 -0.32851274842E+02  0.49965785592E+02  0.10566000000E+00 0. -1.
         23    2    1    0    0    0 -0.24675425767E+02  0.13792543909E+02  0.79392506225E+01  0.95637735021E+02  0.91018864831E+02 0.  0.
         13    1    3    3    0    0 -0.68502875768E+01 -0.19368076646E+02  0.40790525465E+02  0.45671949428E+02  0.10566000000E+00 0.  1.
         22    1    1    0    0    0  0.24675425767E+02 -0.13792543909E+02 -0.79392506225E+01  0.29362264979E+02  0.00000000000E+00 0.  1.
</event>
<event>
 5    1  0.6903325E-004  0.9118800E+02  0.7818608E-02  0.1130116E+00
         25   -1    0    0    0    0  0.00000000000E+00  0.00000000000E+00  0.99999998245E-14  0.12500000000E+03  0.12500000000E+03 0.  0.
        -13    1    3    3    0    0 -0.30927065051E+02  0.84706073067E+01  0.17758257202E+02  0.36655168854E+02  0.10566000000E+00 0.  1.
         23    2    1    0    0    0  0.23192779362E+02 -0.14508879193E+02  0.95607162838E+01  0.96020353939E+02  0.91542823229E+02 0.  0.
         13    1    3    3    0    0  0.54119844413E+02 -0.22979486500E+02 -0.81975409186E+01  0.59365185085E+02  0.10566000000E+00 0. -1.
         22    1    1    0    0    0 -0.23192779362E+02  0.14508879193E+02 -0.95607162838E+01  0.28979646061E+02  0.00000000000E+00 0. -1.
</event>
<event>
 5    1  0.6903325E-004  0.9118800E+02  0.7818608E-02  0.1130116E+00
         25   -1    0    0    0    0  0.00000000000E+00  0.00000000000E+00  0.99999998245E-14  0.12500000000E+03  0.12500000000E+03 0.  0.
        -13    1    3    3    0    0  0.25633733174E+02 -0.24068510596E+02 -0.89768597991E+01  0.36290172976E+02  0.10566000000E+00 0.  1.
         23    2    1    0    0    0 -0.29516648393E+02 -0.58805938044E+01 -0.12151882652E+01  0.94878735113E+02  0.89970460587E+02 0.  0.
         13    1    3    3    0    0 -0.55150381567E+02  0.18187916792E+02  0.77616715339E+01  0.58588562137E+02  0.10566000000E+00 0. -1.
         22    1    1    0    0    0  0.29516648393E+02  0.58805938044E+01  0.12151882652E+01  0.30121264887E+02  0.00000000000E+00 0. -1.
</event>
<event>
 5    1  0.6903325E-004  0.9118800E+02  0.7818608E-02  0.1130116E+00
         25   -1    0    0    0    0  0.00000000000E+00  0.00000000000E+00  0.99999998245E-14  0.12500000000E+03  0.12500000000E+03 0.  0.
        -13    1    3    3    0    0  0.82032465142E+01 -0.32223884093E+01 -0.49890090008E+02  0.50662701127E+02  0.10566000000E+00 0. -1.
         23    2    1    0    0    0  0.27624568343E+02 -0.42697751811E+01 -0.95254247741E+01  0.95468974394E+02  0.90786802997E+02 0.  0.
         13    1    3    3    0    0  0.19421321829E+02 -0.10473867717E+01  0.40364665234E+02  0.44806273267E+02  0.10566000000E+00 0.  1.
         22    1    1    0    0    0 -0.27624568343E+02  0.42697751811E+01  0.95254247741E+01  0.29531025606E+02  0.00000000000E+00 0. -1.
</event>
<event>
 5    1  0.6903325E-004  0.9118800E+02  0.7818608E-02  0.1130116E+00
         25   -1    0    0    0    0  0.00000000000E+00  0.00000000000E+00  0.99999998245E-14  0.12500000000E+03  0.12500000000E+03 0.  0.
        -13    1    3    3    0    0  0.91522385001E+00  0.13721092570E+02 -0.33489855940E+02  0.36203420156E+02  0.10566000000E+00 0.  1.
         23    2    1    0    0    0 -0.12781411315E+02  0.11645256497E+02  0.24045479612E+02  0.95383086524E+02  0.90668470986E+02 0.  0.
         13    1    3    3    0    0 -0.13696635165E+02 -0.20758360732E+01  0.57535335553E+02  0.59179666368E+02  0.10566000000E+00 0. -1.
         22    1    1    0    0    0  0.12781411315E+02 -0.11645256497E+02 -0.24045479612E+02  0.29616913476E+02  0.00000000000E+00 0. -1.
</event>
<event>
 5    1  0.6903325E-004  0.9118800E+02  0.7818608E-02  0.1130116E+00
         25   -1    0    0    0    0  0.00000000000E+00  0.00000000000E+00  0.99999998245E-14  0.12500000000E+03  0.12500000000E+03 0.  0.
        -13    1    3    3    0    0 -0.29178803442E+02 -0.74222200075E+01  0.36323227661E+02  0.47179232210E+02  0.10566000000E+00 0. -1.
         23    2    1    0    0    0 -0.62231102583E+01 -0.28792823192E+02 -0.48607260195E+00  0.95538329388E+02  0.90882244399E+02 0.  0.
         13    1    3    3    0    0  0.22955693183E+02 -0.21370603185E+02 -0.36809300263E+02  0.48359097178E+02  0.10566000000E+00 0.  1.
         22    1    1    0    0    0  0.62231102583E+01  0.28792823192E+02  0.48607260195E+00  0.29461670612E+02  0.00000000000E+00 0. -1.
</event>
<event>
 5    1  0.6903325E-004  0.9118800E+02  0.7818608E-02  0.1130116E+00
         25   -1    0    0    0    0  0.00000000000E+00  0.00000000000E+00  0.99999998245E-14  0.12500000000E+03  0.12500000000E+03 0.  0.
        -13    1    3    3    0    0  0.14962491421E+02  0.55863776806E+02 -0.21229545987E+02  0.61606351096E+02  0.10566000000E+00 0.  1.
         23    2    1    0    0    0  0.13793233832E+02  0.24379266963E+02 -0.73066339786E+01  0.96051962807E+02  0.91585974372E+02 0.  0.
         13    1    3    3    0    0 -0.11692575884E+01 -0.31484509842E+02  0.13922912008E+02  0.34445611711E+02  0.10566000000E+00 0. -1.
         22    1    1    0    0    0 -0.13793233832E+02 -0.24379266963E+02  0.73066339786E+01  0.28948037193E+02  0.00000000000E+00 0.  1.
</event>
<event>
 5    1  0.6903325E-004  0.9118800E+02  0.7818608E-02  0.1130116E+00
         25   -1    0    0    0    0  0.00000000000E+00  0.00000000000E+00  0.99999998245E-14  0.12500000000E+03  0.12500000000E+03 0.  0.
        -13    1    3    3    0    0 -0.12352013255E+02  0.33234278953E+02 -0.22320286567E+02  0.41896251449E+02  0.10566000000E+00 0. -1.
         23    2    1    0    0    0 -0.35878378003E+01 -0.18193023020E+02 -0.24693595882E+02  0.94119061797E+02  0.88908747879E+02 0.  0.
         13    1    3    3    0    0  0.87641754547E+01 -0.51427301973E+02 -0.23733093153E+01  0.52222810349E+02  0.10566000000E+00 0.  1.
         22    1    1    0    0    0  0.35878378003E+01  0.18193023020E+02  0.24693595882E+02  0.30880938203E+02  0.00000000000E+00 0.  1.
</event>
<event>
 5    1  0.6903325E-004  0.9118800E+02  0.7818608E-02  0.1130116E+00
         25   -1    0    0    0    0  0.00000000000E+00  0.00000000000E+00  0.99999998245E-14  0.12500000000E+03  0.12500000000E+03 0.  0.
        -13    1    3    3    0    0 -0.51785151940E+02 -0.55273376989E+01  0.17927265285E+01  0.52110252886E+02  0.10566000000E+00 0. -1.
         23    2    1    0    0    0 -0.16404856204E+02 -0.16519445317E+02  0.20827121055E+02  0.93762516873E+02  0.88406047408E+02 0.  0.
         13    1    3    3    0    0  0.35380295735E+02 -0.10992107618E+02  0.19034394527E+02  0.41652263987E+02  0.10566000000E+00 0.  1.
         22    1    1    0    0    0  0.16404856204E+02  0.16519445317E+02 -0.20827121055E+02  0.31237483127E+02  0.00000000000E+00 0. -1.
</event>
<event>
 5    1  0.6903325E-004  0.9118800E+02  0.7818608E-02  0.1130116E+00
         25   -1    0    0    0    0  0.00000000000E+00  0.00000000000E+00  0.99999998245E-14  0.12500000000E+03  0.12500000000E+03 0.  0.
        -13    1    3    3    0    0  0.28203062126E+02  0.47943785038E+02 -0.15420023480E+01  0.55645378715E+02  0.10566000000E+00 0.  1.
         23    2    1    0    0    0 -0.62340024672E+01  0.29709269531E+02  0.23281527225E-01  0.94643715233E+02  0.89643342242E+02 0.  0.
         13    1    3    3    0    0 -0.34437064593E+02 -0.18234515507E+02  0.15652838752E+01  0.38998336518E+02  0.10566000000E+00 0. -1.
         22    1    1    0    0    0  0.62340024672E+01 -0.29709269531E+02 -0.23281527225E-01  0.30356284767E+02  0.00000000000E+00 0.  1.
</event>
<event>
 5    1  0.6903325E-004  0.9118800E+02  0.7818608E-02  0.1130116E+00
         25   -1    0    0    0    0  0.00000000000E+00  0.00000000000E+00  0.99999998245E-14  0.12500000000E+03  0.12500000000E+03 0.  0.
        -13    1    3    3    0    0 -0.11282358639E+02  0.57611854555E+02  0.16101067763E+02  0.60874238795E+02  0.10566000000E+00 0. -1.
         23    2    1    0    0    0 -0.69980805192E+01  0.25662499143E+02 -0.28181486198E+01  0.98251561637E+02  0.94540416803E+02 0.  0.
         13    1    3    3    0    0  0.42842781198E+01 -0.31949355412E+02 -0.18919216383E+02  0.37377322842E+02  0.10566000000E+00 0.  1.
         22    1    1    0    0    0  0.69980805192E+01 -0.25662499143E+02  0.28181486198E+01  0.26748438363E+02  0.00000000000E+00 0. -1.
</event>
<event>
 5    1  0.6903325E-004  0.9118800E+02  0.7818608E-02  0.1130116E+00
         25   -1    0    0    0    0  0.00000000000E+00  0.00000000000E+00  0.99999998245E-14  0.12500000000E+03  0.12500000000E+03 0.  0.
        -13    1    3    3    0    0  0.20670739815E+02 -0.25020419698E+02 -0.47210662014E+02  0.57290127057E+02  0.10566000000E+00 0.  1.
         23    2    1    0    0    0 -0.48840766094E+01 -0.40823482627E+01 -0.29590594948E+02  0.94732474811E+02  0.89767024585E+02 0.  0.
         13    1    3    3    0    0 -0.25554816425E+02  0.20938071435E+02  0.17620067066E+02  0.37442347755E+02  0.10566000000E+00 0. -1.
         22    1    1    0    0    0  0.48840766094E+01  0.40823482627E+01  0.29590594948E+02  0.30267525189E+02  0.00000000000E+00 0.  1.
</event>
<event>
 5    1  0.6903325E-004  0.9118800E+02  0.7818608E-02  0.1130116E+00
         25   -1    0    0    0    0  0.00000000000E+00  0.00000000000E+00  0.99999998245E-14  0.12500000000E+03  0.12500000000E+03 0.  0.
        -13    1    3    3    0    0 -0.47289130548E+02  0.72469904287E+01 -0.32081646062E+02  0.57602290895E+02  0.10566000000E+00 0.  1.
         23    2    1    0    0    0 -0.28975245013E+02 -0.10435588268E+02 -0.68398427921E+01  0.93452420450E+02  0.87966499944E+02 0.  0.
         13    1    3    3    0    0  0.18313885535E+02 -0.17682578697E+02  0.25241803270E+02  0.35850129555E+02  0.10566000000E+00 0. -1.
         22    1    1    0    0    0  0.28975245013E+02  0.10435588268E+02  0.68398427921E+01  0.31547579550E+02  0.00000000000E+00 0.  1.
</event>
<event>
 5    1  0.6903325E-004  0.9118800E+02  0.7818608E-02  0.1130116E+00
         25   -1    0    0    0    0  0.00000000000E+00  0.00000000000E+00  0.99999998245E-14  0.12500000000E+03  0.12500000000E+03 0.  0.
        -13    1    3    3    0    0  0.33945681432E+02 -0.34772756921E+02 -0.56548726053E+01  0.48922823508E+02  0.10566000000E+00 0. -1.
         23    2    1    0    0    0 -0.37122820040E+00 -0.19882237753E+02  0.21925889056E+02  0.95399564203E+02  0.90691185078E+02 0.  0.
         13    1    3    3    0    0 -0.34316909633E+02  0.14890519168E+02  0.27580761662E+02  0.46476740696E+02  0.10566000000E+00 0.  1.
         22    1    1    0    0    0  0.37122820040E+00  0.19882237753E+02 -0.21925889056E+02  0.29600435797E+02  0.00000000000E+00 0. -1.
</event>
<event>
 5    1  0.6903325E-004  0.9118800E+02  0.7818608E-02  0.1130116E+00
         25   -1    0    0    0    0  0.00000000000E+00  0.00000000000E+00  0.99999998245E-14  0.12500000000E+03  0.12500000000E+03 0.  0.
        -13    1    3    3    0    0  0.34592322127E+02 -0.18166382317E+02 -0.70927222500E+01  0.39711006907E+02  0.10566000000E+00 0. -1.
         23    2    1    0    0    0 -0.89083576750E+01  0.93414139070E+01 -0.27140643540E+02  0.94946125341E+02  0.90064040189E+02 0.  0.
         13    1    3    3    0    0 -0.43500679802E+02  0.27507796224E+02 -0.20047921290E+02  0.55235118434E+02  0.10566000000E+00 0.  1.
         22    1    1    0    0    0  0.89083576750E+01 -0.93414139070E+01  0.27140643540E+02  0.30053874659E+02  0.00000000000E+00 0.  1.
</event>
<event>
 5    1  0.6903325E-004  0.9118800E+02  0.7818608E-02  0.1130116E+00
         25   -1    0    0    0    0  0.00000000000E+00  0.00000000000E+00  0.99999998245E-14  0.12500000000E+03  0.12500000000E+03 0.  0.
        -13    1    3    3    0    0  0.19274274677E+02 -0.17731541257E+02  0.21568331496E+02  0.33928001816E+02  0.10566000000E+00 0. -1.
         23    2    1    0    0    0  0.10337809673E+02  0.26053890743E+02 -0.16362681867E+02  0.92543677202E+02  0.86665560060E+02 0.  0.
         13    1    3    3    0    0 -0.89364650039E+01  0.43785432000E+02 -0.37931013364E+02  0.58615675386E+02  0.10566000000E+00 0.  1.
         22    1    1    0    0    0 -0.10337809673E+02 -0.26053890743E+02  0.16362681867E+02  0.32456322798E+02  0.00000000000E+00 0.  1.
</event>
<event>
 5    1  0.6903325E-004  0.9118800E+02  0.7818608E-02  0.1130116E+00
         25   -1    0    0    0    0  0.00000000000E+00  0.00000000000E+00  0.99999998245E-14  0.12500000000E+03  0.12500000000E+03 0.  0.
        -13    1    3    3    0    0 -0.85998730340E+01 -0.31558018519E+02  0.13828425075E+02  0.35512009984E+02  0.10566000000E+00 0. -1.
         23    2    1    0    0    0 -0.11508138881E+02  0.25686372286E+02 -0.61077287581E+01  0.96198414413E+02  0.91785639418E+02 0.  0.
         13    1    3    3    0    0 -0.29082658470E+01  0.57244390805E+02 -0.19936153833E+02  0.60686404429E+02  0.10566000000E+00 0.  1.
         22    1    1    0    0    0  0.11508138881E+02 -0.25686372286E+02  0.61077287581E+01  0.28801585587E+02  0.00000000000E+00 0.  1.
</event>
<event>
 5    1  0.6903325E-004  0.9118800E+02  0.7818608E-02  0.1130116E+00
         25   -1    0    0    0    0  0.00000000000E+00  0.00000000000E+00  0.99999998245E-14  0.12500000000E+03  0.12500000000E+03 0.  0.
        -13    1    3    3    0    0 -0.22626325528E+02  0.39854281027E+00  0.32157363328E+02  0.39321961084E+02  0.10566000000E+00 0.  1.
         23    2    1    0    0    0 -0.17789191256E+02  0.12635675145E+01 -0.23669029456E+02  0.95364297144E+02  0.90642563324E+02 0.  0.
         13    1    3    3    0    0  0.48371342723E+01  0.86502470426E+00 -0.55826392784E+02  0.56042336059E+02  0.10566000000E+00 0. -1.
         22    1    1    0    0    0  0.17789191256E+02 -0.12635675145E+01  0.23669029456E+02  0.29635702856E+02  0.00000000000E+00 0. -1.
</event>
<event>
 5    1  0.6903325E-004  0.9118800E+02  0.7818608E-02  0.1130116E+00
         25   -1    0    0    0    0  0.00000000000E+00  0.00000000000E+00  0.99999998245E-14  0.12500000000E+03  0.12500000000E+03 0.  0.
        -13    1    3    3    0    0  0.96238398181E+01 -0.33402878258E+02  0.14673768518E+02  0.37731965432E+02  0.10566000000E+00 0.  1.
         23    2    1    0    0    0 -0.26691124728E+02 -0.50250161252E+01 -0.16358938511E+02  0.93293820862E+02  0.87740841206E+02 0.  0.
         13    1    3    3    0    0 -0.36314964546E+02  0.28377862133E+02 -0.31032707029E+02  0.55561855430E+02  0.10566000000E+00 0. -1.
         22    1    1    0    0    0  0.26691124728E+02  0.50250161252E+01  0.16358938511E+02  0.31706179138E+02  0.00000000000E+00 0.  1.
</event>
<event>
 5    1  0.6903325E-004  0.9118800E+02  0.7818608E-02  0.1130116E+00
         25   -1    0    0    0    0  0.00000000000E+00  0.00000000000E+00  0.99999998245E-14  0.12500000000E+03  0.12500000000E+03 0.  0.
        -13    1    3    3    0    0  0.14404099882E+02  0.33234946274E+02  0.49215840629E+02  0.61108509065E+02  0.10566000000E+00 0. -1.
         23    2    1    0    0    0  0.32186133803E+01  0.78213660913E+01  0.27114021302E+02  0.96597475627E+02  0.92327508938E+02 0.  0.
         13    1    3    3    0    0 -0.11185486502E+02 -0.25413580183E+02 -0.22101819327E+02  0.35488966562E+02  0.10566000000E+00 0.  1.
         22    1    1    0    0    0 -0.32186133803E+01 -0.78213660913E+01 -0.27114021302E+02  0.28402524373E+02  0.00000000000E+00 0. -1.
</event>
<event>
 5    1  0.6903325E-004  0.9118800E+02  0.7818608E-02  0.1130116E+00
         25   -1    0    0    0    0  0.00000000000E+00  0.00000000000E+00  0.99999998245E-14  0.12500000000E+03  0.12500000000E+03 0.  0.
        -13    1    3    3    0    0  0.51010001172E+02 -0.29080393677E+02 -0.44353350232E-01  0.58717141000E+02  0.10566000000E+00 0. -1.
         23    2    1    0    0    0  0.27527385062E+02 -0.18953268308E+01  0.93812631820E+01  0.95856264978E+02  0.91318487966E+02 0.  0.
         13    1    3    3    0    0 -0.23482616110E+02  0.27185066846E+02  0.94256165322E+01  0.37139123978E+02  0.10566000000E+00 0.  1.
         22    1    1    0    0    0 -0.27527385062E+02  0.18953268308E+01 -0.93812631820E+01  0.29143735022E+02  0.00000000000E+00 0. -1.
</event>
<event>
 5    1  0.6903325E-004  0.9118800E+02  0.7818608E-02  0.1130116E+00
         25   -1    0    0    0    0  0.00000000000E+00  0.00000000000E+00  0.99999998245E-14  0.12500000000E+03  0.12500000000E+03 0.  0.
        -13    1    3    3    0    0  0.39512918899E+02 -0.18301258412E+02 -0.12367106052E+02  0.45267684893E+02  0.10566000000E+00 0. -1.
         23    2    1    0    0    0  0.34596053615E+01  0.16771741813E+02 -0.22648067949E+02  0.96606423711E+02  0.92339622740E+02 0.  0.
         13    1    3    3    0    0 -0.36053313538E+02  0.35073000225E+02 -0.10280961897E+02  0.51338738818E+02  0.10566000000E+00 0.  1.
         22    1    1    0    0    0 -0.34596053615E+01 -0.16771741813E+02  0.22648067949E+02  0.28393576289E+02  0.00000000000E+00 0.  1.
</event>
<event>
 5    1  0.6903325E-004  0.9118800E+02  0.7818608E-02  0.1130116E+00
         25   -1    0    0    0    0  0.00000000000E+00  0.00000000000E+00  0.99999998245E-14  0.12500000000E+03  0.12500000000E+03 0.  0.
        -13    1    3    3    0    0 -0.27620131341E+02  0.59344746012E+01  0.50167282608E+02  0.57574795288E+02  0.10566000000E+00 0.  1.
         23    2    1    0    0    0 -0.14294332341E+01  0.13909212695E+01  0.38236421750E+02  0.86711595886E+02  0.77800378993E+02 0.  0.
         13    1    3    3    0    0  0.26190698107E+02 -0.45435533317E+01 -0.11930860858E+02  0.29136800598E+02  0.10566000000E+00 0. -1.
         22    1    1    0    0    0  0.14294332341E+01 -0.13909212695E+01 -0.38236421750E+02  0.38288404114E+02  0.00000000000E+00 0.  1.
</event>
<event>
 5    1  0.6903325E-004  0.9118800E+02  0.7818608E-02  0.1130116E+00
         25   -1    0    0    0    0  0.00000000000E+00  0.00000000000E+00  0.99999998245E-14  0.12500000000E+03  0.12500000000E+03 0.  0.
        -13    1    3    3    0    0  0.19720016352E+02 -0.11955558779E+01  0.53182176911E+02  0.56733266289E+02  0.10566000000E+00 0.  1.
         23    2    1    0    0    0  0.40919223023E+00  0.16039613267E+02  0.27279423207E+02  0.93351879004E+02  0.87823514796E+02 0.  0.
         13    1    3    3    0    0 -0.19310824122E+02  0.17235169145E+02 -0.25902753703E+02  0.36618612715E+02  0.10566000000E+00 0. -1.
         22    1    1    0    0    0 -0.40919223023E+00 -0.16039613267E+02 -0.27279423207E+02  0.31648120996E+02  0.00000000000E+00 0.  1.
</event>
<event>
 5    1  0.6903325E-004  0.9118800E+02  0.7818608E-02  0.1130116E+00
         25   -1    0    0    0    0  0.00000000000E+00  0.00000000000E+00  0.99999998245E-14  0.12500000000E+03  0.12500000000E+03 0.  0.
        -13    1    3    3    0    0 -0.65377990785E+01  0.54268905014E+02  0.29632624427E+02  0.62176848285E+02  0.10566000000E+00 0. -1.
         23    2    1    0    0    0  0.12739488347E+01  0.26983320539E+02  0.14502927671E+02  0.94339643773E+02  0.89218333000E+02 0.  0.
         13    1    3    3    0    0  0.78117479131E+01 -0.27285584476E+02 -0.15129696756E+02  0.32162795488E+02  0.10566000000E+00 0.  1.
         22    1    1    0    0    0 -0.12739488347E+01 -0.26983320539E+02 -0.14502927671E+02  0.30660356227E+02  0.00000000000E+00 0. -1.
</event>
<event>
 5    1  0.6903325E-004  0.9118800E+02  0.7818608E-02  0.1130116E+00
         25   -1    0    0    0    0  0.00000000000E+00  0.00000000000E+00  0.99999998245E-14  0.12500000000E+03  0.12500000000E+03 0.  0.
        -13    1    3    3    0    0 -0.51903286707E+02 -0.24876928346E+02  0.13073172702E+01  0.57571980836E+02  0.10566000000E+00 0.  1.
         23    2    1    0    0    0 -0.26996667256E+02  0.18259059466E+01 -0.10539793919E+02  0.95961383792E+02  0.91462265159E+02 0.  0.
         13    1    3    3    0    0  0.24906619451E+02  0.26702834293E+02 -0.11847111189E+02  0.38389402956E+02  0.10566000000E+00 0. -1.
         22    1    1    0    0    0  0.26996667256E+02 -0.18259059466E+01  0.10539793919E+02  0.29038616208E+02  0.00000000000E+00 0.  1.
</event>
<event>
 5    1  0.6903325E-004  0.9118800E+02  0.7818608E-02  0.1130116E+00
         25   -1    0    0    0    0  0.00000000000E+00  0.00000000000E+00  0.99999998245E-14  0.12500000000E+03  0.12500000000E+03 0.  0.
        -13    1    3    3    0    0  0.20852298493E+02  0.30325317990E+02  0.80932297112E+01  0.37682287548E+02  0.10566000000E+00 0. -1.
         23    2    1    0    0    0  0.96151445224E+00 -0.25934955181E+02  0.94760496809E+01  0.97371356750E+02  0.93369369642E+02 0.  0.
         13    1    3    3    0    0 -0.19890784041E+02 -0.56260273171E+02  0.13828199697E+01  0.59689069202E+02  0.10566000000E+00 0.  1.
         22    1    1    0    0    0 -0.96151445224E+00  0.25934955181E+02 -0.94760496809E+01  0.27628643250E+02  0.00000000000E+00 0.  1.
</event>
<event>
 5    1  0.6903325E-004  0.9118800E+02  0.7818608E-02  0.1130116E+00
         25   -1    0    0    0    0  0.00000000000E+00  0.00000000000E+00  0.99999998245E-14  0.12500000000E+03  0.12500000000E+03 0.  0.
        -13    1    3    3    0    0  0.26198960528E+02  0.38008287835E+02 -0.33171691710E+02  0.56845296831E+02  0.10566000000E+00 0.  1.
         23    2    1    0    0    0  0.12016637859E+02  0.31399017808E+02 -0.24881757988E+01  0.91288148619E+02  0.84835353212E+02 0.  0.
         13    1    3    3    0    0 -0.14182322669E+02 -0.66092700274E+01  0.30683515911E+02  0.34442851787E+02  0.10566000000E+00 0. -1.
         22    1    1    0    0    0 -0.12016637859E+02 -0.31399017808E+02  0.24881757988E+01  0.33711851381E+02  0.00000000000E+00 0.  1.
</event>
<event>
 5    1  0.6903325E-004  0.9118800E+02  0.7818608E-02  0.1130116E+00
         25   -1    0    0    0    0  0.00000000000E+00  0.00000000000E+00  0.99999998245E-14  0.12500000000E+03  0.12500000000E+03 0.  0.
        -13    1    3    3    0    0 -0.43031311822E+02  0.13269681837E+02  0.13230678313E+02  0.46934425168E+02  0.10566000000E+00 0. -1.
         23    2    1    0    0    0 -0.64382816604E+01  0.30462487425E+02 -0.83500415176E+01  0.92764339557E+02  0.86983244877E+02 0.  0.
         13    1    3    3    0    0  0.36593030162E+02  0.17192805587E+02 -0.21580719831E+02  0.45829914389E+02  0.10566000000E+00 0.  1.
         22    1    1    0    0    0  0.64382816604E+01 -0.30462487425E+02  0.83500415176E+01  0.32235660443E+02  0.00000000000E+00 0. -1.
</event>
<event>
 5    1  0.6903325E-004  0.9118800E+02  0.7818608E-02  0.1130116E+00
         25   -1    0    0    0    0  0.00000000000E+00  0.00000000000E+00  0.99999998245E-14  0.12500000000E+03  0.12500000000E+03 0.  0.
        -13    1    3    3    0    0  0.26877389311E+02 -0.19847023224E+02  0.34568562372E+02  0.48075930105E+02  0.10566000000E+00 0.  1.
         23    2    1    0    0    0  0.16363990048E+02 -0.23055006843E+02 -0.10783502065E+02  0.94741159513E+02  0.89779117161E+02 0.  0.
         13    1    3    3    0    0 -0.10513399263E+02 -0.32079836192E+01 -0.45352064437E+02  0.46665229408E+02  0.10566000000E+00 0. -1.
         22    1    1    0    0    0 -0.16363990048E+02  0.23055006843E+02  0.10783502065E+02  0.30258840487E+02  0.00000000000E+00 0.  1.
</event>
<event>
 5    1  0.6903325E-004  0.9118800E+02  0.7818608E-02  0.1130116E+00
         25   -1    0    0    0    0  0.00000000000E+00  0.00000000000E+00  0.99999998245E-14  0.12500000000E+03  0.12500000000E+03 0.  0.
        -13    1    3    3    0    0 -0.21346073375E+02  0.12193705805E+02 -0.56332435045E+02  0.61462962115E+02  0.10566000000E+00 0.  1.
         23    2    1    0    0    0 -0.30872091015E+01  0.92427712747E+01 -0.28493914717E+02  0.94885836276E+02  0.89980326011E+02 0.  0.
         13    1    3    3    0    0  0.18258864274E+02 -0.29509345308E+01  0.27838520327E+02  0.33422874162E+02  0.10566000000E+00 0. -1.
         22    1    1    0    0    0  0.30872091015E+01 -0.92427712747E+01  0.28493914717E+02  0.30114163724E+02  0.00000000000E+00 0.  1.
</event>
<event>
 5    1  0.6903325E-004  0.9118800E+02  0.7818608E-02  0.1130116E+00
         25   -1    0    0    0    0  0.00000000000E+00  0.00000000000E+00  0.99999998245E-14  0.12500000000E+03  0.12500000000E+03 0.  0.
        -13    1    3    3    0    0  0.29734886833E+02  0.21067487448E+02 -0.45308414673E+01  0.36722502785E+02  0.10566000000E+00 0.  1.
         23    2    1    0    0    0 -0.12241393600E+02 -0.13429887850E+02  0.21399391606E+02  0.96926034016E+02  0.92771269820E+02 0.  0.
         13    1    3    3    0    0 -0.41976280433E+02 -0.34497375298E+02  0.25930233074E+02  0.60203531231E+02  0.10566000000E+00 0. -1.
         22    1    1    0    0    0  0.12241393600E+02  0.13429887850E+02 -0.21399391606E+02  0.28073965984E+02  0.00000000000E+00 0. -1.
</event>
<event>
 5    1  0.6903325E-004  0.9118800E+02  0.7818608E-02  0.1130116E+00
         25   -1    0    0    0    0  0.00000000000E+00  0.00000000000E+00  0.99999998245E-14  0.12500000000E+03  0.12500000000E+03 0.  0.
        -13    1    3    3    0    0  0.44091257568E+01 -0.46478339197E+02 -0.25384083323E+02  0.53141690363E+02  0.10566000000E+00 0. -1.
         23    2    1    0    0    0 -0.10868916989E+02 -0.23631344626E+02  0.92829300960E+01  0.97382132658E+02  0.93383794978E+02 0.  0.
         13    1    3    3    0    0 -0.15278042746E+02  0.22846994571E+02  0.34667013419E+02  0.44240442296E+02  0.10566000000E+00 0.  1.
         22    1    1    0    0    0  0.10868916989E+02  0.23631344626E+02 -0.92829300960E+01  0.27617867342E+02  0.00000000000E+00 0. -1.
</event>
<event>
 5    1  0.6903325E-004  0.9118800E+02  0.7818608E-02  0.1130116E+00
         25   -1    0    0    0    0  0.00000000000E+00  0.00000000000E+00  0.99999998245E-14  0.12500000000E+03  0.12500000000E+03 0.  0.
        -13    1    3    3    0    0 -0.16031917133E+02 -0.49519249083E+02 -0.15089706771E+02  0.54193069771E+02  0.10566000000E+00 0.  1.
         23    2    1    0    0    0 -0.75047939927E+00 -0.10770937418E+02 -0.25655452792E+02  0.97165155467E+02  0.93092904492E+02 0.  0.
         13    1    3    3    0    0  0.15281437734E+02  0.38748311665E+02 -0.10565746021E+02  0.42972085697E+02  0.10566000000E+00 0. -1.
         22    1    1    0    0    0  0.75047939927E+00  0.10770937418E+02  0.25655452792E+02  0.27834844533E+02  0.00000000000E+00 0.  1.
</event>
<event>
 5    1  0.6903325E-004  0.9118800E+02  0.7818608E-02  0.1130116E+00
         25   -1    0    0    0    0  0.00000000000E+00  0.00000000000E+00  0.99999998245E-14  0.12500000000E+03  0.12500000000E+03 0.  0.
        -13    1    3    3    0    0  0.12293550105E+02 -0.20746516118E+02  0.44250990297E+02  0.50395541584E+02  0.10566000000E+00 0.  1.
         23    2    1    0    0    0 -0.12542467516E+02 -0.27345352557E+02  0.98320551423E+01  0.93349548089E+02  0.87820197120E+02 0.  0.
         13    1    3    3    0    0 -0.24836017622E+02 -0.65988364388E+01 -0.34418935154E+02  0.42954006505E+02  0.10566000000E+00 0. -1.
         22    1    1    0    0    0  0.12542467516E+02  0.27345352557E+02 -0.98320551423E+01  0.31650451911E+02  0.00000000000E+00 0. -1.
</event>
<event>
 5    1  0.6903325E-004  0.9118800E+02  0.7818608E-02  0.1130116E+00
         25   -1    0    0    0    0  0.00000000000E+00  0.00000000000E+00  0.99999998245E-14  0.12500000000E+03  0.12500000000E+03 0.  0.
        -13    1    3    3    0    0 -0.15484839989E+02  0.87909160190E+01 -0.43916558083E+02  0.47389194041E+02  0.10566000000E+00 0.  1.
         23    2    1    0    0    0  0.23613146372E+02  0.76186640695E+01 -0.15377697076E+02  0.95809277310E+02  0.91254146906E+02 0.  0.
         13    1    3    3    0    0  0.39097986361E+02 -0.11722519495E+01  0.28538861008E+02  0.48420083269E+02  0.10566000000E+00 0. -1.
         22    1    1    0    0    0 -0.23613146372E+02 -0.76186640695E+01  0.15377697076E+02  0.29190722690E+02  0.00000000000E+00 0. -1.
</event>
<event>
 5    1  0.6903325E-004  0.9118800E+02  0.7818608E-02  0.1130116E+00
         25   -1    0    0    0    0  0.00000000000E+00  0.00000000000E+00  0.99999998245E-14  0.12500000000E+03  0.12500000000E+03 0.  0.
        -13    1    3    3    0    0 -0.30292985795E+02  0.32158836190E+02 -0.31146684949E+02  0.54055368659E+02  0.10566000000E+00 0. -1.
         23    2    1    0    0    0 -0.20853025269E+02  0.20990522339E+02  0.67292798632E+01  0.94656402679E+02  0.89661032058E+02 0.  0.
         13    1    3    3    0    0  0.94399605265E+01 -0.11168313851E+02  0.37875964812E+02  0.40601034020E+02  0.10566000000E+00 0.  1.
         22    1    1    0    0    0  0.20853025269E+02 -0.20990522339E+02 -0.67292798632E+01  0.30343597321E+02  0.00000000000E+00 0. -1.
</event>
<event>
 5    1  0.6903325E-004  0.9118800E+02  0.7818608E-02  0.1130116E+00
         25   -1    0    0    0    0  0.00000000000E+00  0.00000000000E+00  0.99999998245E-14  0.12500000000E+03  0.12500000000E+03 0.  0.
        -13    1    3    3    0    0  0.33890356046E+02  0.41544916359E+01  0.18979462011E+02  0.39064653793E+02  0.10566000000E+00 0. -1.
         23    2    1    0    0    0  0.85019883375E-01 -0.32797085196E+02  0.12957532628E+01  0.92177218243E+02  0.86135385068E+02 0.  0.
         13    1    3    3    0    0 -0.33805336163E+02 -0.36951576832E+02 -0.17683708748E+02  0.53112564451E+02  0.10566000000E+00 0.  1.
         22    1    1    0    0    0 -0.85019883375E-01  0.32797085196E+02 -0.12957532628E+01  0.32822781757E+02  0.00000000000E+00 0.  1.
</event>
<event>
 5    1  0.6903325E-004  0.9118800E+02  0.7818608E-02  0.1130116E+00
         25   -1    0    0    0    0  0.00000000000E+00  0.00000000000E+00  0.99999998245E-14  0.12500000000E+03  0.12500000000E+03 0.  0.
        -13    1    3    3    0    0  0.34689197896E+02  0.21270423062E+02 -0.62214646733E+01  0.41164172950E+02  0.10566000000E+00 0. -1.
         23    2    1    0    0    0  0.63333667190E+00 -0.18077359802E+02 -0.22906565307E+02  0.95812626242E+02  0.91258734160E+02 0.  0.
         13    1    3    3    0    0 -0.34055861225E+02 -0.39347782864E+02 -0.16685100633E+02  0.54648453292E+02  0.10566000000E+00 0.  1.
         22    1    1    0    0    0 -0.63333667190E+00  0.18077359802E+02  0.22906565307E+02  0.29187373758E+02  0.00000000000E+00 0.  1.
</event>
<event>
 5    1  0.6903325E-004  0.9118800E+02  0.7818608E-02  0.1130116E+00
         25   -1    0    0    0    0  0.00000000000E+00  0.00000000000E+00  0.99999998245E-14  0.12500000000E+03  0.12500000000E+03 0.  0.
        -13    1    3    3    0    0  0.11052940205E+02  0.52972625076E+02  0.13964086839E+02  0.55886253944E+02  0.10566000000E+00 0. -1.
         23    2    1    0    0    0  0.63710139512E+01  0.23998511968E+02 -0.14059138451E+02  0.96466199527E+02  0.92149605977E+02 0.  0.
         13    1    3    3    0    0 -0.46819262535E+01 -0.28974113107E+02 -0.28023225290E+02  0.40579945583E+02  0.10566000000E+00 0.  1.
         22    1    1    0    0    0 -0.63710139512E+01 -0.23998511968E+02  0.14059138451E+02  0.28533800473E+02  0.00000000000E+00 0. -1.
</event>
<event>
 5    1  0.6903325E-004  0.9118800E+02  0.7818608E-02  0.1130116E+00
         25   -1    0    0    0    0  0.00000000000E+00  0.00000000000E+00  0.99999998245E-14  0.12500000000E+03  0.12500000000E+03 0.  0.
        -13    1    3    3    0    0 -0.23847882094E+00 -0.41495980373E+02  0.20750847642E+02  0.46395927636E+02  0.10566000000E+00 0.  1.
         23    2    1    0    0    0  0.44621067517E+01 -0.20174515804E+02 -0.22258307816E+02  0.94629722566E+02  0.89623828536E+02 0.  0.
         13    1    3    3    0    0  0.47005855727E+01  0.21321464568E+02 -0.43009155458E+02  0.48233794930E+02  0.10566000000E+00 0. -1.
         22    1    1    0    0    0 -0.44621067517E+01  0.20174515804E+02  0.22258307816E+02  0.30370277434E+02  0.00000000000E+00 0.  1.
</event>
<event>
 5    1  0.6903325E-004  0.9118800E+02  0.7818608E-02  0.1130116E+00
         25   -1    0    0    0    0  0.00000000000E+00  0.00000000000E+00  0.99999998245E-14  0.12500000000E+03  0.12500000000E+03 0.  0.
        -13    1    3    3    0    0 -0.31943795732E+02 -0.47557829125E+02  0.17745349680E+02  0.59975509970E+02  0.10566000000E+00 0. -1.
         23    2    1    0    0    0 -0.22124926316E+02 -0.12930446740E+02  0.18951559379E+01  0.99303688330E+02  0.95921437034E+02 0.  0.
         13    1    3    3    0    0  0.98188694152E+01  0.34627382385E+02 -0.15850193742E+02  0.39328178360E+02  0.10566000000E+00 0.  1.
         22    1    1    0    0    0  0.22124926316E+02  0.12930446740E+02 -0.18951559379E+01  0.25696311670E+02  0.00000000000E+00 0. -1.
</event>
<event>
 5    1  0.6903325E-004  0.9118800E+02  0.7818608E-02  0.1130116E+00
         25   -1    0    0    0    0  0.00000000000E+00  0.00000000000E+00  0.99999998245E-14  0.12500000000E+03  0.12500000000E+03 0.  0.
        -13    1    3    3    0    0  0.32309667557E+02  0.23013181055E+02  0.28981110130E+02  0.49126744532E+02  0.10566000000E+00 0. -1.
         23    2    1    0    0    0 -0.11606083053E+02  0.11735275226E+02  0.25530768156E+02  0.94598717608E+02  0.89580574914E+02 0.  0.
         13    1    3    3    0    0 -0.43915750611E+02 -0.11277905830E+02 -0.34503419746E+01  0.45471973076E+02  0.10566000000E+00 0.  1.
         22    1    1    0    0    0  0.11606083053E+02 -0.11735275226E+02 -0.25530768156E+02  0.30401282392E+02  0.00000000000E+00 0. -1.
</event>
<event>
 5    1  0.6903325E-004  0.9118800E+02  0.7818608E-02  0.1130116E+00
         25   -1    0    0    0    0  0.00000000000E+00  0.00000000000E+00  0.99999998245E-14  0.12500000000E+03  0.12500000000E+03 0.  0.
        -13    1    3    3    0    0  0.19869763340E+02  0.30238018335E+02 -0.29240081738E+02  0.46520305159E+02  0.10566000000E+00 0. -1.
         23    2    1    0    0    0 -0.22666296120E+02  0.16367297130E+02 -0.89723446843E+01  0.95637568829E+02  0.91018636593E+02 0.  0.
         13    1    3    3    0    0 -0.42536059459E+02 -0.13870721206E+02  0.20267737054E+02  0.49117263670E+02  0.10566000000E+00 0.  1.
         22    1    1    0    0    0  0.22666296120E+02 -0.16367297130E+02  0.89723446843E+01  0.29362431171E+02  0.00000000000E+00 0.  1.
</event>
<event>
 5    1  0.6903325E-004  0.9118800E+02  0.7818608E-02  0.1130116E+00
         25   -1    0    0    0    0  0.00000000000E+00  0.00000000000E+00  0.99999998245E-14  0.12500000000E+03  0.12500000000E+03 0.  0.
        -13    1    3    3    0    0  0.10856009973E+02 -0.17766390432E+01  0.31222242597E+02  0.33103610010E+02  0.10566000000E+00 0.  1.
         23    2    1    0    0    0 -0.13804283666E+02 -0.61081898239E+01 -0.25646818761E+02  0.95240504994E+02  0.90471687552E+02 0.  0.
         13    1    3    3    0    0 -0.24660293639E+02 -0.43315507807E+01 -0.56869061358E+02  0.62136894985E+02  0.10566000000E+00 0. -1.
         22    1    1    0    0    0  0.13804283666E+02  0.61081898239E+01  0.25646818761E+02  0.29759495006E+02  0.00000000000E+00 0. -1.
</event>
<event>
 5    1  0.6903325E-004  0.9118800E+02  0.7818608E-02  0.1130116E+00
         25   -1    0    0    0    0  0.00000000000E+00  0.00000000000E+00  0.99999998245E-14  0.12500000000E+03  0.12500000000E+03 0.  0.
        -13    1    3    3    0    0 -0.14830257455E+02  0.24817162249E+02  0.22127767976E+02  0.36407105871E+02  0.10566000000E+00 0.  1.
         23    2    1    0    0    0  0.21133560353E+02  0.81272670679E+01 -0.20380966197E+02  0.94535863276E+02  0.89492825517E+02 0.  0.
         13    1    3    3    0    0  0.35963817807E+02 -0.16689895181E+02 -0.42508734173E+02  0.58128757405E+02  0.10566000000E+00 0. -1.
         22    1    1    0    0    0 -0.21133560353E+02 -0.81272670679E+01  0.20380966197E+02  0.30464136724E+02  0.00000000000E+00 0. -1.
</event>
<event>
 5    1  0.6903325E-004  0.9118800E+02  0.7818608E-02  0.1130116E+00
         25   -1    0    0    0    0  0.00000000000E+00  0.00000000000E+00  0.99999998245E-14  0.12500000000E+03  0.12500000000E+03 0.  0.
        -13    1    3    3    0    0  0.13055028037E+02 -0.32779368186E+02 -0.45172282419E+01  0.35571579256E+02  0.10566000000E+00 0. -1.
         23    2    1    0    0    0 -0.17543303533E+02  0.18306437086E+02 -0.14256803456E+02  0.95911349595E+02  0.91393858649E+02 0.  0.
         13    1    3    3    0    0 -0.30598331570E+02  0.51085805272E+02 -0.97395752136E+01  0.60339770339E+02  0.10566000000E+00 0.  1.
         22    1    1    0    0    0  0.17543303533E+02 -0.18306437086E+02  0.14256803456E+02  0.29088650405E+02  0.00000000000E+00 0.  1.
</event>
<event>
 5    1  0.6903325E-004  0.9118800E+02  0.7818608E-02  0.1130116E+00
         25   -1    0    0    0    0  0.00000000000E+00  0.00000000000E+00  0.99999998245E-14  0.12500000000E+03  0.12500000000E+03 0.  0.
        -13    1    3    3    0    0 -0.25269390593E+02 -0.38366945661E+02  0.36068170087E+02  0.58407950467E+02  0.10566000000E+00 0. -1.
         23    2    1    0    0    0  0.26238813604E+01 -0.16302402194E+02  0.23806400869E+02  0.96027637428E+02  0.91552768155E+02 0.  0.
         13    1    3    3    0    0  0.27893271953E+02  0.22064543467E+02 -0.12261769218E+02  0.37619686961E+02  0.10566000000E+00 0.  1.
         22    1    1    0    0    0 -0.26238813604E+01  0.16302402194E+02 -0.23806400869E+02  0.28972362572E+02  0.00000000000E+00 0. -1.
</event>
<event>
 5    1  0.6903325E-004  0.9118800E+02  0.7818608E-02  0.1130116E+00
         25   -1    0    0    0    0  0.00000000000E+00  0.00000000000E+00  0.99999998245E-14  0.12500000000E+03  0.12500000000E+03 0.  0.
        -13    1    3    3    0    0 -0.19155012704E+02 -0.34567036769E+02  0.98183193294E+01  0.40721064588E+02  0.10566000000E+00 0.  1.
         23    2    1    0    0    0 -0.65815185921E+01 -0.23824783824E+01 -0.30434798362E+02  0.93770694187E+02  0.88417608805E+02 0.  0.
         13    1    3    3    0    0  0.12573494112E+02  0.32184558386E+02 -0.40253117691E+02  0.53049629599E+02  0.10566000000E+00 0. -1.
         22    1    1    0    0    0  0.65815185921E+01  0.23824783824E+01  0.30434798362E+02  0.31229305813E+02  0.00000000000E+00 0. -1.
</event>
<event>
 5    1  0.6903325E-004  0.9118800E+02  0.7818608E-02  0.1130116E+00
         25   -1    0    0    0    0  0.00000000000E+00  0.00000000000E+00  0.99999998245E-14  0.12500000000E+03  0.12500000000E+03 0.  0.
        -13    1    3    3    0    0  0.20423820458E+02  0.46301343952E+02  0.86582836049E+01  0.51341249818E+02  0.10566000000E+00 0. -1.
         23    2    1    0    0    0  0.28589783434E+02  0.81136420716E+01 -0.86378696753E+01  0.94051337719E+02  0.88813481126E+02 0.  0.
         13    1    3    3    0    0  0.81659629760E+01 -0.38187701880E+02 -0.17296153280E+02  0.42710087901E+02  0.10566000000E+00 0.  1.
         22    1    1    0    0    0 -0.28589783434E+02 -0.81136420716E+01  0.86378696753E+01  0.30948662281E+02  0.00000000000E+00 0. -1.
</event>
<event>
 5    1  0.6903325E-004  0.9118800E+02  0.7818608E-02  0.1130116E+00
         25   -1    0    0    0    0  0.00000000000E+00  0.00000000000E+00  0.99999998245E-14  0.12500000000E+03  0.12500000000E+03 0.  0.
        -13    1    3    3    0    0  0.13761210409E+02 -0.44025342909E+02 -0.14789159947E+02  0.48438952778E+02  0.10566000000E+00 0.  1.
         23    2    1    0    0    0  0.65178376897E+01  0.11504409542E+00 -0.28924397324E+02  0.95350106174E+02  0.90622991253E+02 0.  0.
         13    1    3    3    0    0 -0.72433727197E+01  0.44140387005E+02 -0.14135237377E+02  0.46911153397E+02  0.10566000000E+00 0. -1.
         22    1    1    0    0    0 -0.65178376897E+01 -0.11504409542E+00  0.28924397324E+02  0.29649893826E+02  0.00000000000E+00 0.  1.
</event>
<event>
 5    1  0.6903325E-004  0.9118800E+02  0.7818608E-02  0.1130116E+00
         25   -1    0    0    0    0  0.00000000000E+00  0.00000000000E+00  0.99999998245E-14  0.12500000000E+03  0.12500000000E+03 0.  0.
        -13    1    3    3    0    0  0.21806805909E+02 -0.85851017796E+01  0.27031258781E+02  0.35776261290E+02  0.10566000000E+00 0.  1.
         23    2    1    0    0    0 -0.42868279747E+01 -0.63487406558E+01 -0.27597853325E+02  0.96358685258E+02  0.92003648376E+02 0.  0.
         13    1    3    3    0    0 -0.26093633884E+02  0.22363611238E+01 -0.54629112106E+02  0.60582423968E+02  0.10566000000E+00 0. -1.
         22    1    1    0    0    0  0.42868279747E+01  0.63487406558E+01  0.27597853325E+02  0.28641314742E+02  0.00000000000E+00 0. -1.
</event>
<event>
 5    1  0.6903325E-004  0.9118800E+02  0.7818608E-02  0.1130116E+00
         25   -1    0    0    0    0  0.00000000000E+00  0.00000000000E+00  0.99999998245E-14  0.12500000000E+03  0.12500000000E+03 0.  0.
        -13    1    3    3    0    0  0.37514527393E+02  0.74015582452E+01  0.40211045543E+02  0.55489297866E+02  0.10566000000E+00 0. -1.
         23    2    1    0    0    0  0.27700676352E+02 -0.68261327881E+01  0.32575309612E+01  0.96285281349E+02  0.91903864649E+02 0.  0.
         13    1    3    3    0    0 -0.98138510403E+01 -0.14227691033E+02 -0.36953514582E+02  0.40795983483E+02  0.10566000000E+00 0.  1.
         22    1    1    0    0    0 -0.27700676352E+02  0.68261327881E+01 -0.32575309612E+01  0.28714718651E+02  0.00000000000E+00 0. -1.
</event>
<event>
 5    1  0.6903325E-004  0.9118800E+02  0.7818608E-02  0.1130116E+00
         25   -1    0    0    0    0  0.00000000000E+00  0.00000000000E+00  0.99999998245E-14  0.12500000000E+03  0.12500000000E+03 0.  0.
        -13    1    3    3    0    0  0.11719700921E+02 -0.34191949173E+02  0.48789650842E+02  0.60719700026E+02  0.10566000000E+00 0.  1.
         23    2    1    0    0    0  0.17917445143E+02 -0.25254734456E+02  0.35493982513E+02  0.77897354135E+02  0.62043037754E+02 0.  0.
         13    1    3    3    0    0  0.61977442220E+01  0.89372147167E+01 -0.13295668329E+02  0.17177654109E+02  0.10566000000E+00 0. -1.
         22    1    1    0    0    0 -0.17917445143E+02  0.25254734456E+02 -0.35493982513E+02  0.47102645865E+02  0.00000000000E+00 0.  1.
</event>
<event>
 5    1  0.6903325E-004  0.9118800E+02  0.7818608E-02  0.1130116E+00
         25   -1    0    0    0    0  0.00000000000E+00  0.00000000000E+00  0.99999998245E-14  0.12500000000E+03  0.12500000000E+03 0.  0.
        -13    1    3    3    0    0  0.31935330687E+02 -0.50304041763E+02 -0.45065793836E+01  0.59755187101E+02  0.10566000000E+00 0.  1.
         23    2    1    0    0    0  0.82822577817E+01 -0.26336649361E+02  0.88898887043E+01  0.95995775916E+02  0.91509256248E+02 0.  0.
         13    1    3    3    0    0 -0.23653072905E+02  0.23967392402E+02  0.13396468088E+02  0.36240588815E+02  0.10566000000E+00 0. -1.
         22    1    1    0    0    0 -0.82822577817E+01  0.26336649361E+02 -0.88898887043E+01  0.29004224084E+02  0.00000000000E+00 0.  1.
</event>
<event>
 5    1  0.6903325E-004  0.9118800E+02  0.7818608E-02  0.1130116E+00
         25   -1    0    0    0    0  0.00000000000E+00  0.00000000000E+00  0.99999998245E-14  0.12500000000E+03  0.12500000000E+03 0.  0.
        -13    1    3    3    0    0 -0.25656048359E+02 -0.21099279423E+02 -0.37529061161E+02  0.50118399867E+02  0.10566000000E+00 0. -1.
         23    2    1    0    0    0 -0.96181284411E+01 -0.26443581751E+02  0.54820674947E+01  0.96332518867E+02  0.91968090753E+02 0.  0.
         13    1    3    3    0    0  0.16037919918E+02 -0.53443023273E+01  0.43011128656E+02  0.46214119000E+02  0.10566000000E+00 0.  1.
         22    1    1    0    0    0  0.96181284411E+01  0.26443581751E+02 -0.54820674947E+01  0.28667481133E+02  0.00000000000E+00 0. -1.
</event>
<event>
 5    1  0.6903325E-004  0.9118800E+02  0.7818608E-02  0.1130116E+00
         25   -1    0    0    0    0  0.00000000000E+00  0.00000000000E+00  0.99999998245E-14  0.12500000000E+03  0.12500000000E+03 0.  0.
        -13    1    3    3    0    0 -0.10189709644E+02  0.35067141931E+02 -0.17024382237E+02  0.40291132776E+02  0.10566000000E+00 0. -1.
         23    2    1    0    0    0  0.27815143517E+01  0.73309736461E+01  0.28659490032E+02  0.95287269301E+02  0.90536276294E+02 0.  0.
         13    1    3    3    0    0  0.12971223996E+02 -0.27736168284E+02  0.45683872269E+02  0.54996136524E+02  0.10566000000E+00 0.  1.
         22    1    1    0    0    0 -0.27815143517E+01 -0.73309736461E+01 -0.28659490032E+02  0.29712730699E+02  0.00000000000E+00 0.  1.
</event>
<event>
 5    1  0.6903325E-004  0.9118800E+02  0.7818608E-02  0.1130116E+00
         25   -1    0    0    0    0  0.00000000000E+00  0.00000000000E+00  0.99999998245E-14  0.12500000000E+03  0.12500000000E+03 0.  0.
        -13    1    3    3    0    0  0.21396649905E+02  0.46097647967E+02 -0.16082742273E+02  0.53305492572E+02  0.10566000000E+00 0.  1.
         23    2    1    0    0    0 -0.23368063939E+01  0.27048792109E+02  0.12549729017E+02  0.95090243781E+02  0.90263840740E+02 0.  0.
         13    1    3    3    0    0 -0.23733456299E+02 -0.19048855858E+02  0.28632471290E+02  0.41784751209E+02  0.10566000000E+00 0. -1.
         22    1    1    0    0    0  0.23368063939E+01 -0.27048792109E+02 -0.12549729017E+02  0.29909756219E+02  0.00000000000E+00 0.  1.
</event>
<event>
 5    1  0.6903325E-004  0.9118800E+02  0.7818608E-02  0.1130116E+00
         25   -1    0    0    0    0  0.00000000000E+00  0.00000000000E+00  0.99999998245E-14  0.12500000000E+03  0.12500000000E+03 0.  0.
        -13    1    3    3    0    0 -0.33171579598E+02 -0.20950187276E+02 -0.81106125937E+01  0.40063165634E+02  0.10566000000E+00 0.  1.
         23    2    1    0    0    0  0.10374960650E+02  0.15265154283E+02 -0.19839195309E+02  0.97902796928E+02  0.94078154915E+02 0.  0.
         13    1    3    3    0    0  0.43546540248E+02  0.36215341559E+02 -0.11728582716E+02  0.57839631295E+02  0.10566000000E+00 0. -1.
         22    1    1    0    0    0 -0.10374960650E+02 -0.15265154283E+02  0.19839195309E+02  0.27097203072E+02  0.00000000000E+00 0. -1.
</event>
<event>
 5    1  0.6903325E-004  0.9118800E+02  0.7818608E-02  0.1130116E+00
         25   -1    0    0    0    0  0.00000000000E+00  0.00000000000E+00  0.99999998245E-14  0.12500000000E+03  0.12500000000E+03 0.  0.
        -13    1    3    3    0    0  0.30829437879E+02  0.26350444862E+01 -0.49925257586E+02  0.58736191640E+02  0.10566000000E+00 0. -1.
         23    2    1    0    0    0  0.31950466125E+00 -0.46519758585E+00 -0.29301269640E+02  0.95693296082E+02  0.91095137194E+02 0.  0.
         13    1    3    3    0    0 -0.30509933218E+02 -0.31002420720E+01  0.20623987945E+02  0.36957104441E+02  0.10566000000E+00 0.  1.
         22    1    1    0    0    0 -0.31950466125E+00  0.46519758585E+00  0.29301269640E+02  0.29306703918E+02  0.00000000000E+00 0. -1.
</event>
<event>
 5    1  0.6903325E-004  0.9118800E+02  0.7818608E-02  0.1130116E+00
         25   -1    0    0    0    0  0.00000000000E+00  0.00000000000E+00  0.99999998245E-14  0.12500000000E+03  0.12500000000E+03 0.  0.
        -13    1    3    3    0    0  0.12428711983E+02 -0.35426675284E+02  0.22383208853E+02  0.43709740400E+02  0.10566000000E+00 0. -1.
         23    2    1    0    0    0  0.20189664010E+02  0.15466627861E+02  0.14300714610E+02  0.95822105138E+02  0.91271716783E+02 0.  0.
         13    1    3    3    0    0  0.77609520274E+01  0.50893303145E+02 -0.80824942437E+01  0.52112364738E+02  0.10566000000E+00 0.  1.
         22    1    1    0    0    0 -0.20189664010E+02 -0.15466627861E+02 -0.14300714610E+02  0.29177894862E+02  0.00000000000E+00 0.  1.
</event>
<event>
 5    1  0.6903325E-004  0.9118800E+02  0.7818608E-02  0.1130116E+00
         25   -1    0    0    0    0  0.00000000000E+00  0.00000000000E+00  0.99999998245E-14  0.12500000000E+03  0.12500000000E+03 0.  0.
        -13    1    3    3    0    0 -0.39862039731E+01  0.24930157460E+02  0.25974691950E+02  0.36222898269E+02  0.10566000000E+00 0.  1.
         23    2    1    0    0    0  0.20688900460E+02  0.67007035809E+01 -0.22575523795E+02  0.93653799188E+02  0.88252194290E+02 0.  0.
         13    1    3    3    0    0  0.24675104433E+02 -0.18229453879E+02 -0.48550215745E+02  0.57430900919E+02  0.10566000000E+00 0. -1.
         22    1    1    0    0    0 -0.20688900460E+02 -0.67007035809E+01  0.22575523795E+02  0.31346200812E+02  0.00000000000E+00 0. -1.
</event>
<event>
 5    1  0.6903325E-004  0.9118800E+02  0.7818608E-02  0.1130116E+00
         25   -1    0    0    0    0  0.00000000000E+00  0.00000000000E+00  0.99999998245E-14  0.12500000000E+03  0.12500000000E+03 0.  0.
        -13    1    3    3    0    0  0.34234428777E+01  0.24345336125E+02  0.21410710885E+02  0.32601304526E+02  0.10566000000E+00 0.  1.
         23    2    1    0    0    0  0.13639134154E+01 -0.16119299315E+02 -0.25633804858E+02  0.94688549660E+02  0.89705838244E+02 0.  0.
         13    1    3    3    0    0 -0.20595294623E+01 -0.40464635439E+02 -0.47044515743E+02  0.62087245134E+02  0.10566000000E+00 0. -1.
         22    1    1    0    0    0 -0.13639134154E+01  0.16119299315E+02  0.25633804858E+02  0.30311450340E+02  0.00000000000E+00 0. -1.
</event>
<event>
 5    1  0.6903325E-004  0.9118800E+02  0.7818608E-02  0.1130116E+00
         25   -1    0    0    0    0  0.00000000000E+00  0.00000000000E+00  0.99999998245E-14  0.12500000000E+03  0.12500000000E+03 0.  0.
        -13    1    3    3    0    0 -0.20763837994E+02 -0.66248864081E+01  0.43430453656E+02  0.48592608049E+02  0.10566000000E+00 0. -1.
         23    2    1    0    0    0  0.10990169451E+02 -0.23651151264E+02  0.12496891717E+02  0.96080576021E+02  0.91625018446E+02 0.  0.
         13    1    3    3    0    0  0.31754007446E+02 -0.17026264856E+02 -0.30933561939E+02  0.47487967972E+02  0.10566000000E+00 0.  1.
         22    1    1    0    0    0 -0.10990169451E+02  0.23651151264E+02 -0.12496891717E+02  0.28919423979E+02  0.00000000000E+00 0. -1.
</event>
<event>
 5    1  0.6903325E-004  0.9118800E+02  0.7818608E-02  0.1130116E+00
         25   -1    0    0    0    0  0.00000000000E+00  0.00000000000E+00  0.99999998245E-14  0.12500000000E+03  0.12500000000E+03 0.  0.
        -13    1    3    3    0    0  0.29941411927E+02 -0.47751954568E+02  0.26806305237E+02  0.62412550643E+02  0.10566000000E+00 0.  1.
         23    2    1    0    0    0  0.19110155787E+02 -0.34380194729E+02  0.19272094747E+02  0.81198065342E+02  0.68370434659E+02 0.  0.
         13    1    3    3    0    0 -0.10831256140E+02  0.13371759839E+02 -0.75342104894E+01  0.18785514699E+02  0.10566000000E+00 0. -1.
         22    1    1    0    0    0 -0.19110155787E+02  0.34380194729E+02 -0.19272094747E+02  0.43801934658E+02  0.00000000000E+00 0.  1.
</event>
<event>
 5    1  0.6903325E-004  0.9118800E+02  0.7818608E-02  0.1130116E+00
         25   -1    0    0    0    0  0.00000000000E+00  0.00000000000E+00  0.99999998245E-14  0.12500000000E+03  0.12500000000E+03 0.  0.
        -13    1    3    3    0    0 -0.35571224121E+02  0.27418048690E+02 -0.25967792534E+01  0.44986840364E+02  0.10566000000E+00 0.  1.
         23    2    1    0    0    0 -0.13639693550E+01 -0.12716179045E+02  0.19102929474E+02  0.10201123021E+03  0.99387159899E+02 0.  0.
         13    1    3    3    0    0  0.34207254766E+02 -0.40134227735E+02  0.21699708727E+02  0.57024389847E+02  0.10566000000E+00 0. -1.
         22    1    1    0    0    0  0.13639693550E+01  0.12716179045E+02 -0.19102929474E+02  0.22988769789E+02  0.00000000000E+00 0. -1.
</event>
<event>
 5    1  0.6903325E-004  0.9118800E+02  0.7818608E-02  0.1130116E+00
         25   -1    0    0    0    0  0.00000000000E+00  0.00000000000E+00  0.99999998245E-14  0.12500000000E+03  0.12500000000E+03 0.  0.
        -13    1    3    3    0    0  0.38394949034E+00 -0.11331296316E+02  0.46268566442E+02  0.47637559741E+02  0.10566000000E+00 0.  1.
         23    2    1    0    0    0  0.34522424020E+01 -0.30902763342E+02  0.48782332829E+01  0.93524677607E+02  0.88069117185E+02 0.  0.
         13    1    3    3    0    0  0.30682929116E+01 -0.19571467026E+02 -0.41390333160E+02  0.45887117866E+02  0.10566000000E+00 0. -1.
         22    1    1    0    0    0 -0.34522424020E+01  0.30902763342E+02 -0.48782332829E+01  0.31475322393E+02  0.00000000000E+00 0. -1.
</event>
<event>
 5    1  0.6903325E-004  0.9118800E+02  0.7818608E-02  0.1130116E+00
         25   -1    0    0    0    0  0.00000000000E+00  0.00000000000E+00  0.99999998245E-14  0.12500000000E+03  0.12500000000E+03 0.  0.
        -13    1    3    3    0    0  0.36657741379E+02  0.14769466238E+02  0.59608955234E+00  0.39525860177E+02  0.10566000000E+00 0.  1.
         23    2    1    0    0    0 -0.17807463598E+02  0.18817526310E+02  0.13702395291E+02  0.95691968798E+02  0.91093315888E+02 0.  0.
         13    1    3    3    0    0 -0.54465204977E+02  0.40480600719E+01  0.13106305738E+02  0.56166108621E+02  0.10566000000E+00 0. -1.
         22    1    1    0    0    0  0.17807463598E+02 -0.18817526310E+02 -0.13702395291E+02  0.29308031202E+02  0.00000000000E+00 0. -1.
</event>
<event>
 5    1  0.6903325E-004  0.9118800E+02  0.7818608E-02  0.1130116E+00
         25   -1    0    0    0    0  0.00000000000E+00  0.00000000000E+00  0.99999998245E-14  0.12500000000E+03  0.12500000000E+03 0.  0.
        -13    1    3    3    0    0 -0.27348021532E+02 -0.47516524331E+02  0.29229864957E+02  0.62129948782E+02  0.10566000000E+00 0.  1.
         23    2    1    0    0    0 -0.14939716514E+02 -0.21298165548E+02  0.18584758907E+02  0.93028133479E+02  0.87361509657E+02 0.  0.
         13    1    3    3    0    0  0.12408305019E+02  0.26218358783E+02 -0.10645106050E+02  0.30898184697E+02  0.10566000000E+00 0. -1.
         22    1    1    0    0    0  0.14939716514E+02  0.21298165548E+02 -0.18584758907E+02  0.31971866521E+02  0.00000000000E+00 0.  1.
</event>
<event>
 5    1  0.6903325E-004  0.9118800E+02  0.7818608E-02  0.1130116E+00
         25   -1    0    0    0    0  0.00000000000E+00  0.00000000000E+00  0.99999998245E-14  0.12500000000E+03  0.12500000000E+03 0.  0.
        -13    1    3    3    0    0 -0.39114711504E+02  0.10977341767E+01 -0.23542865304E+02  0.45666654652E+02  0.10566000000E+00 0. -1.
         23    2    1    0    0    0 -0.15810932822E+02 -0.15144435972E+02  0.18452864571E+02  0.96367016424E+02  0.92014966749E+02 0.  0.
         13    1    3    3    0    0  0.23303778682E+02 -0.16242170148E+02  0.41995729875E+02  0.50700361772E+02  0.10566000000E+00 0.  1.
         22    1    1    0    0    0  0.15810932822E+02  0.15144435972E+02 -0.18452864571E+02  0.28632983576E+02  0.00000000000E+00 0.  1.
</event>
<event>
 5    1  0.6903325E-004  0.9118800E+02  0.7818608E-02  0.1130116E+00
         25   -1    0    0    0    0  0.00000000000E+00  0.00000000000E+00  0.99999998245E-14  0.12500000000E+03  0.12500000000E+03 0.  0.
        -13    1    3    3    0    0 -0.21818262512E+02  0.22656246835E+02  0.19098478418E+02  0.36798167639E+02  0.10566000000E+00 0. -1.
         23    2    1    0    0    0  0.12889519052E+02 -0.24374269890E+02  0.42906287424E+01  0.97095623478E+02  0.92999493921E+02 0.  0.
         13    1    3    3    0    0  0.34707781564E+02 -0.47030516726E+02 -0.14807849675E+02  0.60297455839E+02  0.10566000000E+00 0.  1.
         22    1    1    0    0    0 -0.12889519052E+02  0.24374269890E+02 -0.42906287424E+01  0.27904376522E+02  0.00000000000E+00 0.  1.
</event>
<event>
 5    1  0.6903325E-004  0.9118800E+02  0.7818608E-02  0.1130116E+00
         25   -1    0    0    0    0  0.00000000000E+00  0.00000000000E+00  0.99999998245E-14  0.12500000000E+03  0.12500000000E+03 0.  0.
        -13    1    3    3    0    0 -0.35065325090E+02  0.24396214982E+02 -0.39797682736E+02  0.58383379863E+02  0.10566000000E+00 0. -1.
         23    2    1    0    0    0 -0.22325138944E+02  0.21841503607E+02 -0.79622218114E+01  0.92768647487E+02  0.86989435403E+02 0.  0.
         13    1    3    3    0    0  0.12740186146E+02 -0.25547113746E+01  0.31835460924E+02  0.34385267623E+02  0.10566000000E+00 0.  1.
         22    1    1    0    0    0  0.22325138944E+02 -0.21841503607E+02  0.79622218114E+01  0.32231352513E+02  0.00000000000E+00 0. -1.
</event>
<event>
 5    1  0.6903325E-004  0.9118800E+02  0.7818608E-02  0.1130116E+00
         25   -1    0    0    0    0  0.00000000000E+00  0.00000000000E+00  0.99999998245E-14  0.12500000000E+03  0.12500000000E+03 0.  0.
        -13    1    3    3    0    0 -0.19346179476E+01  0.51204521724E+02 -0.30214050110E+02  0.59485677097E+02  0.10566000000E+00 0. -1.
         23    2    1    0    0    0 -0.63875861598E+00  0.15174943231E+02 -0.24765414358E+02  0.95948103969E+02  0.91444114039E+02 0.  0.
         13    1    3    3    0    0  0.12958593316E+01 -0.36029578493E+02  0.54486357518E+01  0.36462426872E+02  0.10566000000E+00 0.  1.
         22    1    1    0    0    0  0.63875861598E+00 -0.15174943231E+02  0.24765414358E+02  0.29051896031E+02  0.00000000000E+00 0. -1.
</event>
<event>
 5    1  0.6903325E-004  0.9118800E+02  0.7818608E-02  0.1130116E+00
         25   -1    0    0    0    0  0.00000000000E+00  0.00000000000E+00  0.99999998245E-14  0.12500000000E+03  0.12500000000E+03 0.  0.
        -13    1    3    3    0    0  0.28721396712E+02  0.14072454193E+02 -0.40461867877E+02  0.51576414302E+02  0.10566000000E+00 0.  1.
         23    2    1    0    0    0  0.28966984058E+02  0.75442227780E+01  0.24348404673E+01  0.94967852044E+02  0.90094189663E+02 0.  0.
         13    1    3    3    0    0  0.24558734569E+00 -0.65282314148E+01  0.42896708344E+02  0.43391437743E+02  0.10566000000E+00 0. -1.
         22    1    1    0    0    0 -0.28966984058E+02 -0.75442227780E+01 -0.24348404673E+01  0.30032147956E+02  0.00000000000E+00 0.  1.
</event>
<event>
 5    1  0.6903325E-004  0.9118800E+02  0.7818608E-02  0.1130116E+00
         25   -1    0    0    0    0  0.00000000000E+00  0.00000000000E+00  0.99999998245E-14  0.12500000000E+03  0.12500000000E+03 0.  0.
        -13    1    3    3    0    0 -0.42870082063E+02  0.41928218941E+02  0.96605058482E+01  0.60738422905E+02  0.10566000000E+00 0.  1.
         23    2    1    0    0    0 -0.27513166180E+02  0.14046846126E+02  0.98694057388E+01  0.92570177783E+02  0.86703774115E+02 0.  0.
         13    1    3    3    0    0  0.15356915883E+02 -0.27881372815E+02  0.20889989064E+00  0.31831754879E+02  0.10566000000E+00 0. -1.
         22    1    1    0    0    0  0.27513166180E+02 -0.14046846126E+02 -0.98694057388E+01  0.32429822217E+02  0.00000000000E+00 0.  1.
</event>
<event>
 5    1  0.6903325E-004  0.9118800E+02  0.7818608E-02  0.1130116E+00
         25   -1    0    0    0    0  0.00000000000E+00  0.00000000000E+00  0.99999998245E-14  0.12500000000E+03  0.12500000000E+03 0.  0.
        -13    1    3    3    0    0 -0.17376906973E+02 -0.16833772945E+02 -0.38652968367E+02  0.45600394024E+02  0.10566000000E+00 0. -1.
         23    2    1    0    0    0 -0.23029084880E+02  0.16727785659E+02 -0.77008039841E+00  0.96526317638E+02  0.92231119528E+02 0.  0.
         13    1    3    3    0    0 -0.56521779071E+01  0.33561558604E+02  0.37882887969E+02  0.50925923614E+02  0.10566000000E+00 0.  1.
         22    1    1    0    0    0  0.23029084880E+02 -0.16727785659E+02  0.77008039841E+00  0.28473682362E+02  0.00000000000E+00 0.  1.
</event>
<event>
 5    1  0.6903325E-004  0.9118800E+02  0.7818608E-02  0.1130116E+00
         25   -1    0    0    0    0  0.00000000000E+00  0.00000000000E+00  0.99999998245E-14  0.12500000000E+03  0.12500000000E+03 0.  0.
        -13    1    3    3    0    0 -0.10859724618E+02 -0.54163395691E+00 -0.44294249913E+02  0.45609414878E+02  0.10566000000E+00 0.  1.
         23    2    1    0    0    0  0.26937232904E+02 -0.23885124891E+01 -0.11774598466E+02  0.95504904179E+02  0.90836259526E+02 0.  0.
         13    1    3    3    0    0  0.37796957522E+02 -0.18468785322E+01  0.32519651447E+02  0.49895489301E+02  0.10566000000E+00 0. -1.
         22    1    1    0    0    0 -0.26937232904E+02  0.23885124891E+01  0.11774598466E+02  0.29495095821E+02  0.00000000000E+00 0.  1.
</event>
<event>
 5    1  0.6903325E-004  0.9118800E+02  0.7818608E-02  0.1130116E+00
         25   -1    0    0    0    0  0.00000000000E+00  0.00000000000E+00  0.99999998245E-14  0.12500000000E+03  0.12500000000E+03 0.  0.
        -13    1    3    3    0    0  0.32778608598E+02 -0.46749207411E+02  0.70949684372E+01  0.57534992104E+02  0.10566000000E+00 0.  1.
         23    2    1    0    0    0  0.37269909166E+01 -0.23072194248E+02  0.16761360479E+02  0.96239613810E+02  0.91841730452E+02 0.  0.
         13    1    3    3    0    0 -0.29051617682E+02  0.23677013163E+02  0.96663920414E+01  0.38704621706E+02  0.10566000000E+00 0. -1.
         22    1    1    0    0    0 -0.37269909166E+01  0.23072194248E+02 -0.16761360479E+02  0.28760386190E+02  0.00000000000E+00 0.  1.
</event>
<event>
 5    1  0.6903325E-004  0.9118800E+02  0.7818608E-02  0.1130116E+00
         25   -1    0    0    0    0  0.00000000000E+00  0.00000000000E+00  0.99999998245E-14  0.12500000000E+03  0.12500000000E+03 0.  0.
        -13    1    3    3    0    0  0.27851427516E+02  0.10054591980E+01  0.25088976913E+02  0.37499078514E+02  0.10566000000E+00 0. -1.
         23    2    1    0    0    0 -0.14271101480E+01 -0.22172296419E+02 -0.19344684593E+02  0.95540465145E+02  0.90885181885E+02 0.  0.
         13    1    3    3    0    0 -0.29278537664E+02 -0.23177755617E+02 -0.44433661506E+02  0.58041386631E+02  0.10566000000E+00 0.  1.
         22    1    1    0    0    0  0.14271101480E+01  0.22172296419E+02  0.19344684593E+02  0.29459534855E+02  0.00000000000E+00 0.  1.
</event>
<event>
 5    1  0.6903325E-004  0.9118800E+02  0.7818608E-02  0.1130116E+00
         25   -1    0    0    0    0  0.00000000000E+00  0.00000000000E+00  0.99999998245E-14  0.12500000000E+03  0.12500000000E+03 0.  0.
        -13    1    3    3    0    0  0.31142244553E+02  0.35455100475E+02  0.12399392199E+01  0.47206484287E+02  0.10566000000E+00 0.  1.
         23    2    1    0    0    0 -0.65181777973E+01  0.17622616946E+02  0.23868327440E+02  0.94623358898E+02  0.89614952573E+02 0.  0.
         13    1    3    3    0    0 -0.37660422350E+02 -0.17832483529E+02  0.22628388220E+02  0.47416874611E+02  0.10566000000E+00 0. -1.
         22    1    1    0    0    0  0.65181777973E+01 -0.17622616946E+02 -0.23868327440E+02  0.30376641102E+02  0.00000000000E+00 0. -1.
</event>
<event>
 5    1  0.6903325E-004  0.9118800E+02  0.7818608E-02  0.1130116E+00
         25   -1    0    0    0    0  0.00000000000E+00  0.00000000000E+00  0.99999998245E-14  0.12500000000E+03  0.12500000000E+03 0.  0.
        -13    1    3    3    0    0  0.12915272905E+02 -0.41726979479E+02 -0.33577006956E+02  0.55094207053E+02  0.10566000000E+00 0.  1.
         23    2    1    0    0    0 -0.90538608023E+01 -0.27353510390E+02 -0.20598401883E+01  0.96113500252E+02  0.91669924528E+02 0.  0.
         13    1    3    3    0    0 -0.21969133708E+02  0.14373469089E+02  0.31517166767E+02  0.41019293199E+02  0.10566000000E+00 0. -1.
         22    1    1    0    0    0  0.90538608023E+01  0.27353510390E+02  0.20598401883E+01  0.28886499748E+02  0.00000000000E+00 0.  1.
</event>
<event>
 5    1  0.6903325E-004  0.9118800E+02  0.7818608E-02  0.1130116E+00
         25   -1    0    0    0    0  0.00000000000E+00  0.00000000000E+00  0.99999998245E-14  0.12500000000E+03  0.12500000000E+03 0.  0.
        -13    1    3    3    0    0  0.32348364622E+02  0.43265427735E+01  0.43348088877E+00  0.32639465924E+02  0.10566000000E+00 0.  1.
         23    2    1    0    0    0 -0.25898735103E+02 -0.15324090588E+02 -0.55397673651E+01  0.94401613527E+02  0.89305113973E+02 0.  0.
         13    1    3    3    0    0 -0.58247099725E+02 -0.19650633361E+02 -0.59732482538E+01  0.61762147603E+02  0.10566000000E+00 0. -1.
         22    1    1    0    0    0  0.25898735103E+02  0.15324090588E+02  0.55397673651E+01  0.30598386473E+02  0.00000000000E+00 0. -1.
</event>
<event>
 5    1  0.6903325E-004  0.9118800E+02  0.7818608E-02  0.1130116E+00
         25   -1    0    0    0    0  0.00000000000E+00  0.00000000000E+00  0.99999998245E-14  0.12500000000E+03  0.12500000000E+03 0.  0.
        -13    1    3    3    0    0  0.14641967081E+02 -0.41945328407E+02 -0.12142482345E+02  0.46057017019E+02  0.10566000000E+00 0.  1.
         23    2    1    0    0    0 -0.14317369043E+01  0.23004282201E+01 -0.28860533329E+02  0.96012550567E+02  0.91532167252E+02 0.  0.
         13    1    3    3    0    0 -0.16073703985E+02  0.44245756627E+02 -0.16718050985E+02  0.49955533548E+02  0.10566000000E+00 0. -1.
         22    1    1    0    0    0  0.14317369043E+01 -0.23004282201E+01  0.28860533329E+02  0.28987449433E+02  0.00000000000E+00 0. -1.
</event>
<event>
 5    1  0.6903325E-004  0.9118800E+02  0.7818608E-02  0.1130116E+00
         25   -1    0    0    0    0  0.00000000000E+00  0.00000000000E+00  0.99999998245E-14  0.12500000000E+03  0.12500000000E+03 0.  0.
        -13    1    3    3    0    0 -0.36837398668E+02  0.39963995422E+01  0.46315313699E+02  0.59313443645E+02  0.10566000000E+00 0.  1.
         23    2    1    0    0    0 -0.10501753214E+02 -0.55381666105E+01  0.32206274405E+02  0.90675049585E+02  0.83927125509E+02 0.  0.
         13    1    3    3    0    0  0.26335645455E+02 -0.95345661526E+01 -0.14109039294E+02  0.31361605939E+02  0.10566000000E+00 0. -1.
         22    1    1    0    0    0  0.10501753214E+02  0.55381666105E+01 -0.32206274405E+02  0.34324950415E+02  0.00000000000E+00 0.  1.
</event>
<event>
 5    1  0.6903325E-004  0.9118800E+02  0.7818608E-02  0.1130116E+00
         25   -1    0    0    0    0  0.00000000000E+00  0.00000000000E+00  0.99999998245E-14  0.12500000000E+03  0.12500000000E+03 0.  0.
        -13    1    3    3    0    0 -0.31466914396E+02  0.22915389503E+02  0.11924162259E+02  0.40712142996E+02  0.10566000000E+00 0. -1.
         23    2    1    0    0    0  0.22637041552E+02  0.12280675503E+02  0.13597997833E+02  0.95876878840E+02  0.91346700597E+02 0.  0.
         13    1    3    3    0    0  0.54103955948E+02 -0.10634714000E+02  0.16738355741E+01  0.55164735844E+02  0.10566000000E+00 0.  1.
         22    1    1    0    0    0 -0.22637041552E+02 -0.12280675503E+02 -0.13597997833E+02  0.29123121160E+02  0.00000000000E+00 0.  1.
</event>
<event>
 5    1  0.6903325E-004  0.9118800E+02  0.7818608E-02  0.1130116E+00
         25   -1    0    0    0    0  0.00000000000E+00  0.00000000000E+00  0.99999998245E-14  0.12500000000E+03  0.12500000000E+03 0.  0.
        -13    1    3    3    0    0  0.53753982401E+01  0.93243027280E+01  0.59668261004E+02  0.60631263081E+02  0.10566000000E+00 0.  1.
         23    2    1    0    0    0 -0.26099297815E+01 -0.51642014400E+01  0.28505678903E+02  0.95912985033E+02  0.91396095421E+02 0.  0.
         13    1    3    3    0    0 -0.79853280215E+01 -0.14488504168E+02 -0.31162582100E+02  0.35281721951E+02  0.10566000000E+00 0. -1.
         22    1    1    0    0    0  0.26099297815E+01  0.51642014400E+01 -0.28505678903E+02  0.29087014967E+02  0.00000000000E+00 0.  1.
</event>
<event>
 5    1  0.6903325E-004  0.9118800E+02  0.7818608E-02  0.1130116E+00
         25   -1    0    0    0    0  0.00000000000E+00  0.00000000000E+00  0.99999998245E-14  0.12500000000E+03  0.12500000000E+03 0.  0.
        -13    1    3    3    0    0 -0.46174879918E+02 -0.30237534873E+02  0.61135634898E+01  0.55532106688E+02  0.10566000000E+00 0.  1.
         23    2    1    0    0    0 -0.10652306692E+02 -0.18093513042E+02  0.20424232463E+02  0.95708429135E+02  0.91115900279E+02 0.  0.
         13    1    3    3    0    0  0.35522573226E+02  0.12144021831E+02  0.14310668973E+02  0.40176322446E+02  0.10566000000E+00 0. -1.
         22    1    1    0    0    0  0.10652306692E+02  0.18093513042E+02 -0.20424232463E+02  0.29291570865E+02  0.00000000000E+00 0.  1.
</event>
<event>
 5    1  0.6903325E-004  0.9118800E+02  0.7818608E-02  0.1130116E+00
         25   -1    0    0    0    0  0.00000000000E+00  0.00000000000E+00  0.99999998245E-14  0.12500000000E+03  0.12500000000E+03 0.  0.
        -13    1    3    3    0    0  0.16302053593E+02  0.16150055094E+01 -0.38533557875E+02  0.41871367791E+02  0.10566000000E+00 0.  1.
         23    2    1    0    0    0 -0.28060916815E+02 -0.55568551658E+01 -0.12753708984E+02  0.93679866145E+02  0.88289107688E+02 0.  0.
         13    1    3    3    0    0 -0.44362970408E+02 -0.71718606752E+01  0.25779848891E+02  0.51808498355E+02  0.10566000000E+00 0. -1.
         22    1    1    0    0    0  0.28060916815E+02  0.55568551658E+01  0.12753708984E+02  0.31320133855E+02  0.00000000000E+00 0. -1.
</event>
<event>
 5    1  0.6903325E-004  0.9118800E+02  0.7818608E-02  0.1130116E+00
         25   -1    0    0    0    0  0.00000000000E+00  0.00000000000E+00  0.99999998245E-14  0.12500000000E+03  0.12500000000E+03 0.  0.
        -13    1    3    3    0    0 -0.48641286478E+02 -0.26186856592E+01 -0.10305527045E+02  0.49790032301E+02  0.10566000000E+00 0. -1.
         23    2    1    0    0    0 -0.57246595388E+01  0.22449150600E+02 -0.10671198047E+02  0.99492931230E+02  0.96167732673E+02 0.  0.
         13    1    3    3    0    0  0.42916626940E+02  0.25067836259E+02 -0.36567100253E+00  0.49702898928E+02  0.10566000000E+00 0.  1.
         22    1    1    0    0    0  0.57246595388E+01 -0.22449150600E+02  0.10671198047E+02  0.25507068770E+02  0.00000000000E+00 0. -1.
</event>
<event>
 5    1  0.6903325E-004  0.9118800E+02  0.7818608E-02  0.1130116E+00
         25   -1    0    0    0    0  0.00000000000E+00  0.00000000000E+00  0.99999998245E-14  0.12500000000E+03  0.12500000000E+03 0.  0.
        -13    1    3    3    0    0 -0.14558140263E+01 -0.45212536466E+02 -0.19285019964E+01  0.45277181142E+02  0.10566000000E+00 0.  1.
         23    2    1    0    0    0  0.16738877615E+02  0.15649876249E+00 -0.21345086573E+02  0.97873864328E+02  0.94039704816E+02 0.  0.
         13    1    3    3    0    0  0.18194691642E+02  0.45369035228E+02 -0.19416584577E+02  0.52596683186E+02  0.10566000000E+00 0. -1.
         22    1    1    0    0    0 -0.16738877615E+02 -0.15649876249E+00  0.21345086573E+02  0.27126135672E+02  0.00000000000E+00 0. -1.
</event>
<event>
 5    1  0.6903325E-004  0.9118800E+02  0.7818608E-02  0.1130116E+00
         25   -1    0    0    0    0  0.00000000000E+00  0.00000000000E+00  0.99999998245E-14  0.12500000000E+03  0.12500000000E+03 0.  0.
        -13    1    3    3    0    0  0.98339093363E+01 -0.20530234694E+02  0.51643123253E+02  0.56437750245E+02  0.10566000000E+00 0. -1.
         23    2    1    0    0    0  0.20997101468E+02 -0.13730481569E+02  0.14034323240E+02  0.96253406759E+02  0.91860501249E+02 0.  0.
         13    1    3    3    0    0  0.11163192132E+02  0.67997531242E+01 -0.37608800013E+02  0.39815656513E+02  0.10566000000E+00 0.  1.
         22    1    1    0    0    0 -0.20997101468E+02  0.13730481569E+02 -0.14034323240E+02  0.28746593241E+02  0.00000000000E+00 0. -1.
</event>
<event>
 5    1  0.6903325E-004  0.9118800E+02  0.7818608E-02  0.1130116E+00
         25   -1    0    0    0    0  0.00000000000E+00  0.00000000000E+00  0.99999998245E-14  0.12500000000E+03  0.12500000000E+03 0.  0.
        -13    1    3    3    0    0  0.15737496416E+02 -0.41988561386E+02 -0.21116959900E+01  0.44890739632E+02  0.10566000000E+00 0.  1.
         23    2    1    0    0    0  0.14275095020E+02  0.39953754584E+01 -0.24737838386E+02  0.96160755716E+02  0.91734338876E+02 0.  0.
         13    1    3    3    0    0 -0.14624013961E+01  0.45983936844E+02 -0.22626142396E+02  0.51270016084E+02  0.10566000000E+00 0. -1.
         22    1    1    0    0    0 -0.14275095020E+02 -0.39953754584E+01  0.24737838386E+02  0.28839244284E+02  0.00000000000E+00 0. -1.
</event>
<event>
 5    1  0.6903325E-004  0.9118800E+02  0.7818608E-02  0.1130116E+00
         25   -1    0    0    0    0  0.00000000000E+00  0.00000000000E+00  0.99999998245E-14  0.12500000000E+03  0.12500000000E+03 0.  0.
        -13    1    3    3    0    0 -0.14519682551E+02 -0.41453725868E+02 -0.32681987862E+02  0.54748114711E+02  0.10566000000E+00 0. -1.
         23    2    1    0    0    0  0.15496368398E+02 -0.19048380497E+02 -0.15536846368E+02  0.95941923186E+02  0.91435664795E+02 0.  0.
         13    1    3    3    0    0  0.30016050950E+02  0.22405345371E+02  0.17145141494E+02  0.41193808475E+02  0.10566000000E+00 0.  1.
         22    1    1    0    0    0 -0.15496368398E+02  0.19048380497E+02  0.15536846368E+02  0.29058076814E+02  0.00000000000E+00 0. -1.
</event>
<event>
 5    1  0.6903325E-004  0.9118800E+02  0.7818608E-02  0.1130116E+00
         25   -1    0    0    0    0  0.00000000000E+00  0.00000000000E+00  0.99999998245E-14  0.12500000000E+03  0.12500000000E+03 0.  0.
        -13    1    3    3    0    0 -0.60041584187E+01 -0.40938170589E+02  0.99475290587E+00  0.41388216039E+02  0.10566000000E+00 0. -1.
         23    2    1    0    0    0 -0.24735499890E+02  0.10088552575E+02 -0.93057601980E+01  0.96711821891E+02  0.92482190030E+02 0.  0.
         13    1    3    3    0    0 -0.18731341471E+02  0.51026723164E+02 -0.10300513104E+02  0.55323605852E+02  0.10566000000E+00 0.  1.
         22    1    1    0    0    0  0.24735499890E+02 -0.10088552575E+02  0.93057601980E+01  0.28288178109E+02  0.00000000000E+00 0.  1.
</event>
<event>
 5    1  0.6903325E-004  0.9118800E+02  0.7818608E-02  0.1130116E+00
         25   -1    0    0    0    0  0.00000000000E+00  0.00000000000E+00  0.99999998245E-14  0.12500000000E+03  0.12500000000E+03 0.  0.
        -13    1    3    3    0    0  0.35461926232E+02 -0.11242618362E+02  0.24246371296E+00  0.37202347135E+02  0.10566000000E+00 0.  1.
         23    2    1    0    0    0 -0.18833511701E+02 -0.23393031112E+01  0.21621718350E+02  0.96230707231E+02  0.91829607468E+02 0.  0.
         13    1    3    3    0    0 -0.54295437932E+02  0.89033152510E+01  0.21379254637E+02  0.59028360096E+02  0.10566000000E+00 0. -1.
         22    1    1    0    0    0  0.18833511701E+02  0.23393031112E+01 -0.21621718350E+02  0.28769292769E+02  0.00000000000E+00 0. -1.
</event>
<event>
 5    1  0.6903325E-004  0.9118800E+02  0.7818608E-02  0.1130116E+00
         25   -1    0    0    0    0  0.00000000000E+00  0.00000000000E+00  0.99999998245E-14  0.12500000000E+03  0.12500000000E+03 0.  0.
        -13    1    3    3    0    0 -0.36625991561E+02 -0.57642143130E+01 -0.20322763054E+02  0.42281382270E+02  0.10566000000E+00 0.  1.
         23    2    1    0    0    0  0.40095750879E+01  0.23115872907E+02 -0.22919265215E+02  0.92201936176E+02  0.86171248360E+02 0.  0.
         13    1    3    3    0    0  0.40635566649E+02  0.28880087220E+02 -0.25965021605E+01  0.49920553905E+02  0.10566000000E+00 0. -1.
         22    1    1    0    0    0 -0.40095750879E+01 -0.23115872907E+02  0.22919265215E+02  0.32798063824E+02  0.00000000000E+00 0. -1.
</event>
<event>
 5    1  0.6903325E-004  0.9118800E+02  0.7818608E-02  0.1130116E+00
         25   -1    0    0    0    0  0.00000000000E+00  0.00000000000E+00  0.99999998245E-14  0.12500000000E+03  0.12500000000E+03 0.  0.
        -13    1    3    3    0    0 -0.99684621384E+00  0.21148788644E+02  0.51603072373E+01  0.21792312826E+02  0.10566000000E+00 0. -1.
         23    2    1    0    0    0  0.85897067165E+00 -0.71538456635E+01  0.49800337818E+02  0.74681126949E+02  0.55184071409E+02 0.  0.
         13    1    3    3    0    0  0.18558168855E+01 -0.28302634308E+02  0.44640030580E+02  0.52888814123E+02  0.10566000000E+00 0.  1.
         22    1    1    0    0    0 -0.85897067165E+00  0.71538456635E+01 -0.49800337818E+02  0.50318873051E+02  0.00000000000E+00 0.  1.
</event>
<event>
 5    1  0.6903325E-004  0.9118800E+02  0.7818608E-02  0.1130116E+00
         25   -1    0    0    0    0  0.00000000000E+00  0.00000000000E+00  0.99999998245E-14  0.12500000000E+03  0.12500000000E+03 0.  0.
        -13    1    3    3    0    0 -0.27925463671E+02  0.10786592733E+02 -0.18970109006E+02  0.35440912852E+02  0.10566000000E+00 0. -1.
         23    2    1    0    0    0  0.17375322894E+02 -0.17689746307E+02  0.12199973609E+02  0.97365450499E+02  0.93361462203E+02 0.  0.
         13    1    3    3    0    0  0.45300786565E+02 -0.28476339040E+02  0.31170082615E+02  0.61924537647E+02  0.10566000000E+00 0.  1.
         22    1    1    0    0    0 -0.17375322894E+02  0.17689746307E+02 -0.12199973609E+02  0.27634549501E+02  0.00000000000E+00 0.  1.
</event>
<event>
 5    1  0.6903325E-004  0.9118800E+02  0.7818608E-02  0.1130116E+00
         25   -1    0    0    0    0  0.00000000000E+00  0.00000000000E+00  0.99999998245E-14  0.12500000000E+03  0.12500000000E+03 0.  0.
        -13    1    3    3    0    0  0.56527489241E+01 -0.20566377547E+02 -0.39860196564E+02  0.45208139643E+02  0.10566000000E+00 0. -1.
         23    2    1    0    0    0 -0.80208574608E+01  0.22525569859E+02 -0.14074642664E+02  0.97254171161E+02  0.93212353206E+02 0.  0.
         13    1    3    3    0    0 -0.13673606385E+02  0.43091947406E+02  0.25785553900E+02  0.52046031518E+02  0.10566000000E+00 0.  1.
         22    1    1    0    0    0  0.80208574608E+01 -0.22525569859E+02  0.14074642664E+02  0.27745828839E+02  0.00000000000E+00 0.  1.
</event>
<event>
 5    1  0.6903325E-004  0.9118800E+02  0.7818608E-02  0.1130116E+00
         25   -1    0    0    0    0  0.00000000000E+00  0.00000000000E+00  0.99999998245E-14  0.12500000000E+03  0.12500000000E+03 0.  0.
        -13    1    3    3    0    0 -0.29549795783E+02  0.13526197574E+02  0.12532904176E+02  0.34831498715E+02  0.10566000000E+00 0. -1.
         23    2    1    0    0    0  0.24790806494E+02  0.17220953249E+01 -0.14034745478E+02  0.96460137008E+02  0.92141381866E+02 0.  0.
         13    1    3    3    0    0  0.54340602277E+02 -0.11804102249E+02 -0.26567649654E+02  0.61628638294E+02  0.10566000000E+00 0.  1.
         22    1    1    0    0    0 -0.24790806494E+02 -0.17220953249E+01  0.14034745478E+02  0.28539862992E+02  0.00000000000E+00 0.  1.
</event>
<event>
 5    1  0.6903325E-004  0.9118800E+02  0.7818608E-02  0.1130116E+00
         25   -1    0    0    0    0  0.00000000000E+00  0.00000000000E+00  0.99999998245E-14  0.12500000000E+03  0.12500000000E+03 0.  0.
        -13    1    3    3    0    0 -0.31992776965E+02  0.65945959274E-01  0.11546366852E+02  0.34012819323E+02  0.10566000000E+00 0.  1.
         23    2    1    0    0    0  0.28929104443E+02  0.39911839417E+01  0.38168770436E+01  0.95548494376E+02  0.90896224311E+02 0.  0.
         13    1    3    3    0    0  0.60921881408E+02  0.39252379825E+01 -0.77294898083E+01  0.61535675053E+02  0.10566000000E+00 0. -1.
         22    1    1    0    0    0 -0.28929104443E+02 -0.39911839417E+01 -0.38168770436E+01  0.29451505624E+02  0.00000000000E+00 0. -1.
</event>
<event>
 5    1  0.6903325E-004  0.9118800E+02  0.7818608E-02  0.1130116E+00
         25   -1    0    0    0    0  0.00000000000E+00  0.00000000000E+00  0.99999998245E-14  0.12500000000E+03  0.12500000000E+03 0.  0.
        -13    1    3    3    0    0  0.11239772808E+02  0.69616230165E+01 -0.50848028782E+02  0.52538841658E+02  0.10566000000E+00 0. -1.
         23    2    1    0    0    0  0.26405985199E+02  0.24945988541E+00 -0.97619154967E+01  0.96846256400E+02  0.92663715121E+02 0.  0.
         13    1    3    3    0    0  0.15166212390E+02 -0.67121631311E+01  0.41086113285E+02  0.44307414741E+02  0.10566000000E+00 0.  1.
         22    1    1    0    0    0 -0.26405985199E+02 -0.24945988541E+00  0.97619154967E+01  0.28153743600E+02  0.00000000000E+00 0. -1.
</event>
<event>
 5    1  0.6903325E-004  0.9118800E+02  0.7818608E-02  0.1130116E+00
         25   -1    0    0    0    0  0.00000000000E+00  0.00000000000E+00  0.99999998245E-14  0.12500000000E+03  0.12500000000E+03 0.  0.
        -13    1    3    3    0    0  0.12588973664E+02 -0.10692626769E+02 -0.57083097630E+02  0.59424790486E+02  0.10566000000E+00 0. -1.
         23    2    1    0    0    0  0.19503912461E+02  0.31099842928E-01 -0.33705152094E+02  0.86058494557E+02  0.76743883399E+02 0.  0.
         13    1    3    3    0    0  0.69149387976E+01  0.10723726612E+02  0.23377945536E+02  0.26633704071E+02  0.10566000000E+00 0.  1.
         22    1    1    0    0    0 -0.19503912461E+02 -0.31099842928E-01  0.33705152094E+02  0.38941505443E+02  0.00000000000E+00 0. -1.
</event>
<event>
 5    1  0.6903325E-004  0.9118800E+02  0.7818608E-02  0.1130116E+00
         25   -1    0    0    0    0  0.00000000000E+00  0.00000000000E+00  0.99999998245E-14  0.12500000000E+03  0.12500000000E+03 0.  0.
        -13    1    3    3    0    0 -0.57724827640E+02  0.17698062810E+02 -0.37106262530E+01  0.60490966801E+02  0.10566000000E+00 0. -1.
         23    2    1    0    0    0 -0.29769669315E+02  0.53826176347E+01  0.87883414688E+01  0.93496972693E+02  0.88029785716E+02 0.  0.
         13    1    3    3    0    0  0.27955158324E+02 -0.12315445176E+02  0.12498967722E+02  0.33006005892E+02  0.10566000000E+00 0.  1.
         22    1    1    0    0    0  0.29769669315E+02 -0.53826176347E+01 -0.87883414688E+01  0.31503027307E+02  0.00000000000E+00 0. -1.
</event>
<event>
 5    1  0.6903325E-004  0.9118800E+02  0.7818608E-02  0.1130116E+00
         25   -1    0    0    0    0  0.00000000000E+00  0.00000000000E+00  0.99999998245E-14  0.12500000000E+03  0.12500000000E+03 0.  0.
        -13    1    3    3    0    0  0.28076030971E+02  0.33553848621E+02  0.34111007349E+02  0.55476988552E+02  0.10566000000E+00 0.  1.
         23    2    1    0    0    0  0.28463991578E+02  0.42788539718E+01  0.70046094975E+01  0.95376158890E+02  0.90658919708E+02 0.  0.
         13    1    3    3    0    0  0.38796060730E+00 -0.29274994649E+02 -0.27106397852E+02  0.39899170338E+02  0.10566000000E+00 0. -1.
         22    1    1    0    0    0 -0.28463991578E+02 -0.42788539718E+01 -0.70046094975E+01  0.29623841110E+02  0.00000000000E+00 0.  1.
</event>
<event>
 5    1  0.6903325E-004  0.9118800E+02  0.7818608E-02  0.1130116E+00
         25   -1    0    0    0    0  0.00000000000E+00  0.00000000000E+00  0.99999998245E-14  0.12500000000E+03  0.12500000000E+03 0.  0.
        -13    1    3    3    0    0 -0.42388166923E+02 -0.18484230871E+02  0.28449257053E+02  0.54293598857E+02  0.10566000000E+00 0. -1.
         23    2    1    0    0    0 -0.16428692678E+02 -0.26749141051E+01  0.35760650464E+02  0.85555339649E+02  0.75919924343E+02 0.  0.
         13    1    3    3    0    0  0.25959474245E+02  0.15809316765E+02  0.73113934113E+01  0.31261740792E+02  0.10566000000E+00 0.  1.
         22    1    1    0    0    0  0.16428692678E+02  0.26749141051E+01 -0.35760650464E+02  0.39444660351E+02  0.00000000000E+00 0. -1.
</event>
<event>
 5    1  0.6903325E-004  0.9118800E+02  0.7818608E-02  0.1130116E+00
         25   -1    0    0    0    0  0.00000000000E+00  0.00000000000E+00  0.99999998245E-14  0.12500000000E+03  0.12500000000E+03 0.  0.
        -13    1    3    3    0    0 -0.29482791829E+02 -0.65522620428E+01  0.48508792834E+02  0.57142639930E+02  0.10566000000E+00 0.  1.
         23    2    1    0    0    0 -0.22491508972E+02 -0.14671258631E+02  0.11295975483E+02  0.95867323025E+02  0.91333623360E+02 0.  0.
         13    1    3    3    0    0  0.69912828578E+01 -0.81189965883E+01 -0.37212817350E+02  0.38724683095E+02  0.10566000000E+00 0. -1.
         22    1    1    0    0    0  0.22491508972E+02  0.14671258631E+02 -0.11295975483E+02  0.29132676975E+02  0.00000000000E+00 0.  1.
</event>
<event>
 5    1  0.6903325E-004  0.9118800E+02  0.7818608E-02  0.1130116E+00
         25   -1    0    0    0    0  0.00000000000E+00  0.00000000000E+00  0.99999998245E-14  0.12500000000E+03  0.12500000000E+03 0.  0.
        -13    1    3    3    0    0  0.68769472962E+01  0.22408672695E+02 -0.14591786176E+02  0.27611092045E+02  0.10566000000E+00 0. -1.
         23    2    1    0    0    0 -0.12152875914E+01 -0.28553759858E+02  0.20337727834E+02  0.89922695380E+02  0.82798996642E+02 0.  0.
         13    1    3    3    0    0 -0.80922348876E+01 -0.50962432553E+02  0.34929514010E+02  0.62311603335E+02  0.10566000000E+00 0.  1.
         22    1    1    0    0    0  0.12152875914E+01  0.28553759858E+02 -0.20337727834E+02  0.35077304620E+02  0.00000000000E+00 0.  1.
</event>
<event>
 5    1  0.6903325E-004  0.9118800E+02  0.7818608E-02  0.1130116E+00
         25   -1    0    0    0    0  0.00000000000E+00  0.00000000000E+00  0.99999998245E-14  0.12500000000E+03  0.12500000000E+03 0.  0.
        -13    1    3    3    0    0  0.53837342325E+01 -0.54911356099E+02 -0.24087937066E+02  0.60203666824E+02  0.10566000000E+00 0. -1.
         23    2    1    0    0    0  0.74210331845E+01 -0.28052653932E+02 -0.54658356226E+00  0.95977217919E+02  0.91483902845E+02 0.  0.
         13    1    3    3    0    0  0.20372989520E+01  0.26858702167E+02  0.23541353504E+02  0.35773551095E+02  0.10566000000E+00 0.  1.
         22    1    1    0    0    0 -0.74210331845E+01  0.28052653932E+02  0.54658356226E+00  0.29022782081E+02  0.00000000000E+00 0. -1.
</event>
<event>
 5    1  0.6903325E-004  0.9118800E+02  0.7818608E-02  0.1130116E+00
         25   -1    0    0    0    0  0.00000000000E+00  0.00000000000E+00  0.99999998245E-14  0.12500000000E+03  0.12500000000E+03 0.  0.
        -13    1    3    3    0    0  0.49846551813E+02 -0.16126166746E+02 -0.30624148191E+01  0.52479724944E+02  0.10566000000E+00 0. -1.
         23    2    1    0    0    0  0.11417611503E+02 -0.25857743123E+02  0.11180443684E+02  0.94602844659E+02  0.89586333582E+02 0.  0.
         13    1    3    3    0    0 -0.38428940310E+02 -0.97315763772E+01  0.14242858503E+02  0.42123119715E+02  0.10566000000E+00 0.  1.
         22    1    1    0    0    0 -0.11417611503E+02  0.25857743123E+02 -0.11180443684E+02  0.30397155341E+02  0.00000000000E+00 0. -1.
</event>
<event>
 5    1  0.6903325E-004  0.9118800E+02  0.7818608E-02  0.1130116E+00
         25   -1    0    0    0    0  0.00000000000E+00  0.00000000000E+00  0.99999998245E-14  0.12500000000E+03  0.12500000000E+03 0.  0.
        -13    1    3    3    0    0 -0.27295268211E+02 -0.27033452671E+02  0.25233439908E+02  0.45962777154E+02  0.10566000000E+00 0.  1.
         23    2    1    0    0    0  0.19707115237E+02 -0.18022951785E+02  0.12660980399E+02  0.95445007077E+02  0.90753797548E+02 0.  0.
         13    1    3    3    0    0  0.47002383448E+02  0.90105008863E+01 -0.12572459510E+02  0.49482229923E+02  0.10566000000E+00 0. -1.
         22    1    1    0    0    0 -0.19707115237E+02  0.18022951785E+02 -0.12660980399E+02  0.29554992923E+02  0.00000000000E+00 0. -1.
</event>
<event>
 5    1  0.6903325E-004  0.9118800E+02  0.7818608E-02  0.1130116E+00
         25   -1    0    0    0    0  0.00000000000E+00  0.00000000000E+00  0.99999998245E-14  0.12500000000E+03  0.12500000000E+03 0.  0.
        -13    1    3    3    0    0  0.14660944096E+02 -0.22453787932E+02 -0.22497393849E+02  0.35003710779E+02  0.10566000000E+00 0. -1.
         23    2    1    0    0    0  0.19913541859E+02  0.24486651192E+02  0.94818346639E+01  0.92044720839E+02  0.85942889234E+02 0.  0.
         13    1    3    3    0    0  0.52525977630E+01  0.46940439123E+02  0.31979228513E+02  0.57041010060E+02  0.10566000000E+00 0.  1.
         22    1    1    0    0    0 -0.19913541859E+02 -0.24486651192E+02 -0.94818346639E+01  0.32955279161E+02  0.00000000000E+00 0.  1.
</event>
<event>
 5    1  0.6903325E-004  0.9118800E+02  0.7818608E-02  0.1130116E+00
         25   -1    0    0    0    0  0.00000000000E+00  0.00000000000E+00  0.99999998245E-14  0.12500000000E+03  0.12500000000E+03 0.  0.
        -13    1    3    3    0    0 -0.22922156204E+02 -0.15144816363E+01 -0.23415941185E+02  0.32802993236E+02  0.10566000000E+00 0. -1.
         23    2    1    0    0    0  0.19184533647E+02 -0.61843779376E+01  0.22170866400E+02  0.95036018645E+02  0.90188716928E+02 0.  0.
         13    1    3    3    0    0  0.42106689851E+02 -0.46698963013E+01  0.45586807585E+02  0.62233025408E+02  0.10566000000E+00 0.  1.
         22    1    1    0    0    0 -0.19184533647E+02  0.61843779376E+01 -0.22170866400E+02  0.29963981355E+02  0.00000000000E+00 0.  1.
</event>
<event>
 5    1  0.6903325E-004  0.9118800E+02  0.7818608E-02  0.1130116E+00
         25   -1    0    0    0    0  0.00000000000E+00  0.00000000000E+00  0.99999998245E-14  0.12500000000E+03  0.12500000000E+03 0.  0.
        -13    1    3    3    0    0 -0.29807744750E+02  0.21384667056E+02  0.13462487094E+02  0.39077555642E+02  0.10566000000E+00 0.  1.
         23    2    1    0    0    0  0.10261931935E+02 -0.16729082666E+02  0.22533607385E+02  0.95118016872E+02  0.90302293537E+02 0.  0.
         13    1    3    3    0    0  0.40069676684E+02 -0.38113749723E+02  0.90711202910E+01  0.56040461230E+02  0.10566000000E+00 0. -1.
         22    1    1    0    0    0 -0.10261931935E+02  0.16729082666E+02 -0.22533607385E+02  0.29881983128E+02  0.00000000000E+00 0. -1.
</event>
<event>
 5    1  0.6903325E-004  0.9118800E+02  0.7818608E-02  0.1130116E+00
         25   -1    0    0    0    0  0.00000000000E+00  0.00000000000E+00  0.99999998245E-14  0.12500000000E+03  0.12500000000E+03 0.  0.
        -13    1    3    3    0    0 -0.13996052274E+02 -0.24944941542E+02  0.53760728445E+02  0.60896360111E+02  0.10566000000E+00 0.  1.
         23    2    1    0    0    0 -0.14375802789E+02 -0.15083534389E+02  0.19822348126E+02  0.96240615432E+02  0.91843093687E+02 0.  0.
         13    1    3    3    0    0 -0.37975051434E+00  0.98614071538E+01 -0.33938380319E+02  0.35344255321E+02  0.10566000000E+00 0. -1.
         22    1    1    0    0    0  0.14375802789E+02  0.15083534389E+02 -0.19822348126E+02  0.28759384568E+02  0.00000000000E+00 0.  1.
</event>
<event>
 5    1  0.6903325E-004  0.9118800E+02  0.7818608E-02  0.1130116E+00
         25   -1    0    0    0    0  0.00000000000E+00  0.00000000000E+00  0.99999998245E-14  0.12500000000E+03  0.12500000000E+03 0.  0.
        -13    1    3    3    0    0  0.96763490858E+01 -0.38146196642E+02  0.17139250525E+02  0.42924691291E+02  0.10566000000E+00 0.  1.
         23    2    1    0    0    0  0.32629378586E+02  0.26201962893E+01  0.15829208349E+01  0.92227337400E+02  0.86208087498E+02 0.  0.
         13    1    3    3    0    0  0.22953029500E+02  0.40766392931E+02 -0.15556329690E+02  0.49302646109E+02  0.10566000000E+00 0. -1.
         22    1    1    0    0    0 -0.32629378586E+02 -0.26201962893E+01 -0.15829208349E+01  0.32772662600E+02  0.00000000000E+00 0. -1.
</event>
<event>
 5    1  0.6903325E-004  0.9118800E+02  0.7818608E-02  0.1130116E+00
         25   -1    0    0    0    0  0.00000000000E+00  0.00000000000E+00  0.99999998245E-14  0.12500000000E+03  0.12500000000E+03 0.  0.
        -13    1    3    3    0    0  0.17812056835E+01 -0.24579922380E+01  0.36574891455E+02  0.36700793840E+02  0.10566000000E+00 0.  1.
         23    2    1    0    0    0  0.10391803520E+02  0.78599718952E+01 -0.23429204005E+02  0.98191487566E+02  0.94460954323E+02 0.  0.
         13    1    3    3    0    0  0.86105978366E+01  0.10317964133E+02 -0.60004095460E+02  0.61490693726E+02  0.10566000000E+00 0. -1.
         22    1    1    0    0    0 -0.10391803520E+02 -0.78599718952E+01  0.23429204005E+02  0.26808512434E+02  0.00000000000E+00 0. -1.
</event>
<event>
 5    1  0.6903325E-004  0.9118800E+02  0.7818608E-02  0.1130116E+00
         25   -1    0    0    0    0  0.00000000000E+00  0.00000000000E+00  0.99999998245E-14  0.12500000000E+03  0.12500000000E+03 0.  0.
        -13    1    3    3    0    0 -0.17159492570E+02  0.18272860164E+02 -0.33163229873E+02  0.41571102746E+02  0.10566000000E+00 0.  1.
         23    2    1    0    0    0  0.86546225877E+00  0.36727659122E+02  0.52974692519E+01  0.87882172074E+02  0.79658916755E+02 0.  0.
         13    1    3    3    0    0  0.18024954829E+02  0.18454798957E+02  0.38460699125E+02  0.46311069328E+02  0.10566000000E+00 0. -1.
         22    1    1    0    0    0 -0.86546225877E+00 -0.36727659122E+02 -0.52974692519E+01  0.37117827926E+02  0.00000000000E+00 0.  1.
</event>
<event>
 5    1  0.6903325E-004  0.9118800E+02  0.7818608E-02  0.1130116E+00
         25   -1    0    0    0    0  0.00000000000E+00  0.00000000000E+00  0.99999998245E-14  0.12500000000E+03  0.12500000000E+03 0.  0.
        -13    1    3    3    0    0 -0.17029935482E+02 -0.15133095223E+02 -0.33651938520E+02  0.40638570395E+02  0.10566000000E+00 0. -1.
         23    2    1    0    0    0  0.29183574985E+02 -0.25118491008E+01 -0.10143109476E+02  0.94002046767E+02  0.88744079755E+02 0.  0.
         13    1    3    3    0    0  0.46213510467E+02  0.12621246122E+02  0.23508829044E+02  0.53363476371E+02  0.10566000000E+00 0.  1.
         22    1    1    0    0    0 -0.29183574985E+02  0.25118491008E+01  0.10143109476E+02  0.30997953233E+02  0.00000000000E+00 0. -1.
</event>
<event>
 5    1  0.6903325E-004  0.9118800E+02  0.7818608E-02  0.1130116E+00
         25   -1    0    0    0    0  0.00000000000E+00  0.00000000000E+00  0.99999998245E-14  0.12500000000E+03  0.12500000000E+03 0.  0.
        -13    1    3    3    0    0  0.57680207123E+02  0.16970436589E+02 -0.10970801979E+02  0.61117687062E+02  0.10566000000E+00 0.  1.
         23    2    1    0    0    0  0.25188167206E+02  0.65071804477E+00 -0.11071677351E+02  0.97478204264E+02  0.93512304356E+02 0.  0.
         13    1    3    3    0    0 -0.32492039916E+02 -0.16319718544E+02 -0.10087537180E+00  0.36360517201E+02  0.10566000000E+00 0. -1.
         22    1    1    0    0    0 -0.25188167206E+02 -0.65071804477E+00  0.11071677351E+02  0.27521795736E+02  0.00000000000E+00 0.  1.
</event>
<event>
 5    1  0.6903325E-004  0.9118800E+02  0.7818608E-02  0.1130116E+00
         25   -1    0    0    0    0  0.00000000000E+00  0.00000000000E+00  0.99999998245E-14  0.12500000000E+03  0.12500000000E+03 0.  0.
        -13    1    3    3    0    0 -0.12646365173E+02  0.40476566194E+02  0.14536704169E+00  0.42406547355E+02  0.10566000000E+00 0. -1.
         23    2    1    0    0    0  0.43141659795E+01 -0.27606851133E+01  0.27981020204E+02  0.96554070554E+02  0.92268725137E+02 0.  0.
         13    1    3    3    0    0  0.16960531152E+02 -0.43237251307E+02  0.27835653163E+02  0.54147523199E+02  0.10566000000E+00 0.  1.
         22    1    1    0    0    0 -0.43141659795E+01  0.27606851133E+01 -0.27981020204E+02  0.28445929446E+02  0.00000000000E+00 0.  1.
</event>
<event>
 5    1  0.6903325E-004  0.9118800E+02  0.7818608E-02  0.1130116E+00
         25   -1    0    0    0    0  0.00000000000E+00  0.00000000000E+00  0.99999998245E-14  0.12500000000E+03  0.12500000000E+03 0.  0.
        -13    1    3    3    0    0  0.44779293477E+01  0.48560628836E+02 -0.16865486532E+02  0.51600797708E+02  0.10566000000E+00 0.  1.
         23    2    1    0    0    0 -0.20171497547E+02  0.11500365992E+02 -0.17187709726E+02  0.96111159649E+02  0.91666732855E+02 0.  0.
         13    1    3    3    0    0 -0.24649426894E+02 -0.37060262844E+02 -0.32222319398E+00  0.44510361941E+02  0.10566000000E+00 0. -1.
         22    1    1    0    0    0  0.20171497547E+02 -0.11500365992E+02  0.17187709726E+02  0.28888840351E+02  0.00000000000E+00 0.  1.
</event>
<event>
 5    1  0.6903325E-004  0.9118800E+02  0.7818608E-02  0.1130116E+00
         25   -1    0    0    0    0  0.00000000000E+00  0.00000000000E+00  0.99999998245E-14  0.12500000000E+03  0.12500000000E+03 0.  0.
        -13    1    3    3    0    0  0.36989353544E+02  0.30619089821E+01 -0.32524300213E+02  0.49350064140E+02  0.10566000000E+00 0. -1.
         23    2    1    0    0    0 -0.45840359333E+01  0.19539436420E+02 -0.21860267948E+02  0.95323843311E+02  0.90586758568E+02 0.  0.
         13    1    3    3    0    0 -0.41573389477E+02  0.16477527438E+02  0.10664032265E+02  0.45973779171E+02  0.10566000000E+00 0.  1.
         22    1    1    0    0    0  0.45840359333E+01 -0.19539436420E+02  0.21860267948E+02  0.29676156689E+02  0.00000000000E+00 0. -1.
</event>
<event>
 5    1  0.6903325E-004  0.9118800E+02  0.7818608E-02  0.1130116E+00
         25   -1    0    0    0    0  0.00000000000E+00  0.00000000000E+00  0.99999998245E-14  0.12500000000E+03  0.12500000000E+03 0.  0.
        -13    1    3    3    0    0 -0.22312027245E+02  0.12108398821E+02  0.50443853043E+02  0.56471526946E+02  0.10566000000E+00 0. -1.
         23    2    1    0    0    0 -0.25161658928E+02 -0.33464582231E+01  0.14343188138E+02  0.95844641854E+02  0.91302576434E+02 0.  0.
         13    1    3    3    0    0 -0.28496316829E+01 -0.15454857044E+02 -0.36100664905E+02  0.39373114908E+02  0.10566000000E+00 0.  1.
         22    1    1    0    0    0  0.25161658928E+02  0.33464582231E+01 -0.14343188138E+02  0.29155358146E+02  0.00000000000E+00 0. -1.
</event>
<event>
 5    1  0.6903325E-004  0.9118800E+02  0.7818608E-02  0.1130116E+00
         25   -1    0    0    0    0  0.00000000000E+00  0.00000000000E+00  0.99999998245E-14  0.12500000000E+03  0.12500000000E+03 0.  0.
        -13    1    3    3    0    0  0.75925971655E+01  0.32675076137E+02 -0.89151982137E+01  0.34710229839E+02  0.10566000000E+00 0.  1.
         23    2    1    0    0    0 -0.82081337582E-01 -0.17881415643E+02  0.23661845039E+02  0.95341364270E+02  0.90610932384E+02 0.  0.
         13    1    3    3    0    0 -0.76746785031E+01 -0.50556491780E+02  0.32577043253E+02  0.60631134430E+02  0.10566000000E+00 0. -1.
         22    1    1    0    0    0  0.82081337582E-01  0.17881415643E+02 -0.23661845039E+02  0.29658635730E+02  0.00000000000E+00 0. -1.
</event>
<event>
 5    1  0.6903325E-004  0.9118800E+02  0.7818608E-02  0.1130116E+00
         25   -1    0    0    0    0  0.00000000000E+00  0.00000000000E+00  0.99999998245E-14  0.12500000000E+03  0.12500000000E+03 0.  0.
        -13    1    3    3    0    0  0.25876163590E+02  0.24870229895E+02  0.14408967536E+02  0.38674716375E+02  0.10566000000E+00 0.  1.
         23    2    1    0    0    0  0.69446426149E+01 -0.23047021166E+02 -0.13636625557E+02  0.97335025714E+02  0.93320718109E+02 0.  0.
         13    1    3    3    0    0 -0.18931520975E+02 -0.47917251062E+02 -0.28045593093E+02  0.58660309339E+02  0.10566000000E+00 0. -1.
         22    1    1    0    0    0 -0.69446426149E+01  0.23047021166E+02  0.13636625557E+02  0.27664974286E+02  0.00000000000E+00 0. -1.
</event>
<event>
 5    1  0.6903325E-004  0.9118800E+02  0.7818608E-02  0.1130116E+00
         25   -1    0    0    0    0  0.00000000000E+00  0.00000000000E+00  0.99999998245E-14  0.12500000000E+03  0.12500000000E+03 0.  0.
        -13    1    3    3    0    0  0.11419262894E+02 -0.33954975106E+02 -0.27933172340E+02  0.45427009372E+02  0.10566000000E+00 0. -1.
         23    2    1    0    0    0 -0.23121273268E+02 -0.38938185626E+01 -0.24098194210E+02  0.91377417340E+02  0.84966783715E+02 0.  0.
         13    1    3    3    0    0 -0.34540536162E+02  0.30061156544E+02  0.38349781293E+01  0.45950407968E+02  0.10566000000E+00 0.  1.
         22    1    1    0    0    0  0.23121273268E+02  0.38938185626E+01  0.24098194210E+02  0.33622582660E+02  0.00000000000E+00 0. -1.
</event>
<event>
 5    1  0.6903325E-004  0.9118800E+02  0.7818608E-02  0.1130116E+00
         25   -1    0    0    0    0  0.00000000000E+00  0.00000000000E+00  0.99999998245E-14  0.12500000000E+03  0.12500000000E+03 0.  0.
        -13    1    3    3    0    0 -0.74787689677E+01 -0.14264095108E+01  0.39295214733E+02  0.40026137639E+02  0.10566000000E+00 0.  1.
         23    2    1    0    0    0 -0.20798964042E+02  0.95476626050E+01 -0.15423526611E+02  0.97402175093E+02  0.93410619168E+02 0.  0.
         13    1    3    3    0    0 -0.13320195075E+02  0.10974072116E+02 -0.54718741344E+02  0.57376037454E+02  0.10566000000E+00 0. -1.
         22    1    1    0    0    0  0.20798964042E+02 -0.95476626050E+01  0.15423526611E+02  0.27597824907E+02  0.00000000000E+00 0. -1.
</event>
<event>
 5    1  0.6903325E-004  0.9118800E+02  0.7818608E-02  0.1130116E+00
         25   -1    0    0    0    0  0.00000000000E+00  0.00000000000E+00  0.99999998245E-14  0.12500000000E+03  0.12500000000E+03 0.  0.
        -13    1    3    3    0    0 -0.46847941081E+02  0.22007731849E+02  0.96442395450E+01  0.52650663482E+02  0.10566000000E+00 0. -1.
         23    2    1    0    0    0 -0.23817203524E+02 -0.14626298123E+02 -0.29113360089E+00  0.97048747089E+02  0.92936466321E+02 0.  0.
         13    1    3    3    0    0  0.23030737556E+02 -0.36634029972E+02 -0.99353731458E+01  0.44398083607E+02  0.10566000000E+00 0.  1.
         22    1    1    0    0    0  0.23817203524E+02  0.14626298123E+02  0.29113360089E+00  0.27951252911E+02  0.00000000000E+00 0. -1.
</event>
<event>
 5    1  0.6903325E-004  0.9118800E+02  0.7818608E-02  0.1130116E+00
         25   -1    0    0    0    0  0.00000000000E+00  0.00000000000E+00  0.99999998245E-14  0.12500000000E+03  0.12500000000E+03 0.  0.
        -13    1    3    3    0    0  0.49471104445E+02  0.79506836294E+01 -0.25582739045E+02  0.56259143668E+02  0.10566000000E+00 0.  1.
         23    2    1    0    0    0  0.12102502517E+02 -0.54394175240E+01 -0.25836760075E+02  0.95955275843E+02  0.91453917143E+02 0.  0.
         13    1    3    3    0    0 -0.37368601928E+02 -0.13390101153E+02 -0.25402102955E+00  0.39696132175E+02  0.10566000000E+00 0. -1.
         22    1    1    0    0    0 -0.12102502517E+02  0.54394175240E+01  0.25836760075E+02  0.29044724157E+02  0.00000000000E+00 0.  1.
</event>
<event>
 5    1  0.6903325E-004  0.9118800E+02  0.7818608E-02  0.1130116E+00
         25   -1    0    0    0    0  0.00000000000E+00  0.00000000000E+00  0.99999998245E-14  0.12500000000E+03  0.12500000000E+03 0.  0.
        -13    1    3    3    0    0  0.87359658236E+01  0.42229763638E+02 -0.81589414688E+01  0.43889059294E+02  0.10566000000E+00 0.  1.
         23    2    1    0    0    0  0.20349675987E+01  0.76540821490E+01  0.28912098780E+02  0.95022749918E+02  0.90170324827E+02 0.  0.
         13    1    3    3    0    0 -0.67009982248E+01 -0.34575681489E+02  0.37071040248E+02  0.51133690623E+02  0.10566000000E+00 0. -1.
         22    1    1    0    0    0 -0.20349675987E+01 -0.76540821490E+01 -0.28912098780E+02  0.29977250082E+02  0.00000000000E+00 0.  1.
</event>
<event>
 5    1  0.6903325E-004  0.9118800E+02  0.7818608E-02  0.1130116E+00
         25   -1    0    0    0    0  0.00000000000E+00  0.00000000000E+00  0.99999998245E-14  0.12500000000E+03  0.12500000000E+03 0.  0.
        -13    1    3    3    0    0 -0.55160599116E+02 -0.26135616606E+02  0.40616816773E+01  0.61174100502E+02  0.10566000000E+00 0. -1.
         23    2    1    0    0    0 -0.22359072376E+02 -0.18676718520E+02  0.72922628477E+01  0.94967933311E+02  0.90094302415E+02 0.  0.
         13    1    3    3    0    0  0.32801526740E+02  0.74588980856E+01  0.32305811703E+01  0.33793832808E+02  0.10566000000E+00 0.  1.
         22    1    1    0    0    0  0.22359072376E+02  0.18676718520E+02 -0.72922628477E+01  0.30032066689E+02  0.00000000000E+00 0. -1.
</event>
<event>
 5    1  0.6903325E-004  0.9118800E+02  0.7818608E-02  0.1130116E+00
         25   -1    0    0    0    0  0.00000000000E+00  0.00000000000E+00  0.99999998245E-14  0.12500000000E+03  0.12500000000E+03 0.  0.
        -13    1    3    3    0    0  0.16646414915E+02  0.53972405648E+02 -0.53244941172E+01  0.56731693987E+02  0.10566000000E+00 0.  1.
         23    2    1    0    0    0  0.21521194602E+02  0.15612793406E+02 -0.11752136223E+02  0.95930534219E+02  0.91420093823E+02 0.  0.
         13    1    3    3    0    0  0.48747796867E+01 -0.38359612243E+02 -0.64276421062E+01  0.39198840232E+02  0.10566000000E+00 0. -1.
         22    1    1    0    0    0 -0.21521194602E+02 -0.15612793406E+02  0.11752136223E+02  0.29069465781E+02  0.00000000000E+00 0.  1.
</event>
<event>
 5    1  0.6903325E-004  0.9118800E+02  0.7818608E-02  0.1130116E+00
         25   -1    0    0    0    0  0.00000000000E+00  0.00000000000E+00  0.99999998245E-14  0.12500000000E+03  0.12500000000E+03 0.  0.
        -13    1    3    3    0    0  0.90566121930E+01  0.63572535013E+01 -0.58851239561E+02  0.59882522145E+02  0.10566000000E+00 0. -1.
         23    2    1    0    0    0  0.16738578456E+02  0.14388820668E+01 -0.25466651190E+02  0.94490973251E+02  0.89430102944E+02 0.  0.
         13    1    3    3    0    0  0.76819662635E+01 -0.49183714345E+01  0.33384588371E+02  0.34608451106E+02  0.10566000000E+00 0.  1.
         22    1    1    0    0    0 -0.16738578456E+02 -0.14388820668E+01  0.25466651190E+02  0.30509026749E+02  0.00000000000E+00 0. -1.
</event>
<event>
 5    1  0.6903325E-004  0.9118800E+02  0.7818608E-02  0.1130116E+00
         25   -1    0    0    0    0  0.00000000000E+00  0.00000000000E+00  0.99999998245E-14  0.12500000000E+03  0.12500000000E+03 0.  0.
        -13    1    3    3    0    0 -0.20561664723E+02 -0.27037203451E+02 -0.33965128426E+02  0.48035752723E+02  0.10566000000E+00 0.  1.
         23    2    1    0    0    0 -0.22541340935E+01 -0.29219489711E+02  0.86295185709E+01  0.94449577904E+02  0.89372224298E+02 0.  0.
         13    1    3    3    0    0  0.18307530630E+02 -0.21822862599E+01  0.42594646997E+02  0.46413825180E+02  0.10566000000E+00 0. -1.
         22    1    1    0    0    0  0.22541340935E+01  0.29219489711E+02 -0.86295185709E+01  0.30550422096E+02  0.00000000000E+00 0.  1.
</event>
<event>
 5    1  0.6903325E-004  0.9118800E+02  0.7818608E-02  0.1130116E+00
         25   -1    0    0    0    0  0.00000000000E+00  0.00000000000E+00  0.99999998245E-14  0.12500000000E+03  0.12500000000E+03 0.  0.
        -13    1    3    3    0    0 -0.21291262546E+02  0.57997394911E+02 -0.60244418557E+01  0.62075121755E+02  0.10566000000E+00 0. -1.
         23    2    1    0    0    0 -0.11417520447E+02  0.28599398465E+02  0.21017526721E+01  0.94134117054E+02  0.88929912086E+02 0.  0.
         13    1    3    3    0    0  0.98737420988E+01 -0.29397996446E+02  0.81261945277E+01  0.32058995299E+02  0.10566000000E+00 0.  1.
         22    1    1    0    0    0  0.11417520447E+02 -0.28599398465E+02 -0.21017526721E+01  0.30865882946E+02  0.00000000000E+00 0. -1.
</event>
<event>
 5    1  0.6903325E-004  0.9118800E+02  0.7818608E-02  0.1130116E+00
         25   -1    0    0    0    0  0.00000000000E+00  0.00000000000E+00  0.99999998245E-14  0.12500000000E+03  0.12500000000E+03 0.  0.
        -13    1    3    3    0    0  0.20707021528E+02 -0.24826067127E+02  0.93757645147E+01  0.33660518027E+02  0.10566000000E+00 0.  1.
         23    2    1    0    0    0 -0.28475350582E+02  0.72222158025E+01 -0.73847713699E+01  0.94709063401E+02  0.89734418426E+02 0.  0.
         13    1    3    3    0    0 -0.49182372110E+02  0.32048282930E+02 -0.16760535885E+02  0.61048545374E+02  0.10566000000E+00 0. -1.
         22    1    1    0    0    0  0.28475350582E+02 -0.72222158025E+01  0.73847713699E+01  0.30290936599E+02  0.00000000000E+00 0. -1.
</event>
<event>
 5    1  0.6903325E-004  0.9118800E+02  0.7818608E-02  0.1130116E+00
         25   -1    0    0    0    0  0.00000000000E+00  0.00000000000E+00  0.99999998245E-14  0.12500000000E+03  0.12500000000E+03 0.  0.
        -13    1    3    3    0    0 -0.20518473709E+02 -0.30012062532E+02  0.42646374843E+01  0.36605053718E+02  0.10566000000E+00 0. -1.
         23    2    1    0    0    0  0.21333442046E+02  0.80029430181E+01  0.19332875184E+02  0.95118184303E+02  0.90302525301E+02 0.  0.
         13    1    3    3    0    0  0.41851915755E+02  0.38015005551E+02  0.15068237700E+02  0.58513130584E+02  0.10566000000E+00 0.  1.
         22    1    1    0    0    0 -0.21333442046E+02 -0.80029430181E+01 -0.19332875184E+02  0.29881815697E+02  0.00000000000E+00 0.  1.
</event>
<event>
 5    1  0.6903325E-004  0.9118800E+02  0.7818608E-02  0.1130116E+00
         25   -1    0    0    0    0  0.00000000000E+00  0.00000000000E+00  0.99999998245E-14  0.12500000000E+03  0.12500000000E+03 0.  0.
        -13    1    3    3    0    0 -0.25108204578E+02 -0.73066071597E+01 -0.31538243033E+02  0.40969261441E+02  0.10566000000E+00 0.  1.
         23    2    1    0    0    0  0.15534130219E+02 -0.28010456603E+02 -0.97416083426E+01  0.91521741176E+02  0.85178842995E+02 0.  0.
         13    1    3    3    0    0  0.40642334797E+02 -0.20703849443E+02  0.21796634691E+02  0.50552479736E+02  0.10566000000E+00 0. -1.
         22    1    1    0    0    0 -0.15534130219E+02  0.28010456603E+02  0.97416083426E+01  0.33478258824E+02  0.00000000000E+00 0. -1.
</event>
<event>
 5    1  0.6903325E-004  0.9118800E+02  0.7818608E-02  0.1130116E+00
         25   -1    0    0    0    0  0.00000000000E+00  0.00000000000E+00  0.99999998245E-14  0.12500000000E+03  0.12500000000E+03 0.  0.
        -13    1    3    3    0    0 -0.95846492093E+01  0.46093084805E+02  0.12638887296E+02  0.48746185527E+02  0.10566000000E+00 0.  1.
         23    2    1    0    0    0 -0.48017294454E+01  0.19163083253E+01  0.28581495040E+02  0.95954678484E+02  0.91453100664E+02 0.  0.
         13    1    3    3    0    0  0.47829197639E+01 -0.44176776479E+02  0.15942607744E+02  0.47208492957E+02  0.10566000000E+00 0. -1.
         22    1    1    0    0    0  0.48017294454E+01 -0.19163083253E+01 -0.28581495040E+02  0.29045321516E+02  0.00000000000E+00 0. -1.
</event>
<event>
 5    1  0.6903325E-004  0.9118800E+02  0.7818608E-02  0.1130116E+00
         25   -1    0    0    0    0  0.00000000000E+00  0.00000000000E+00  0.99999998245E-14  0.12500000000E+03  0.12500000000E+03 0.  0.
        -13    1    3    3    0    0  0.30853933660E+02  0.11619485238E+02 -0.27612473851E+01  0.33084940844E+02  0.10566000000E+00 0. -1.
         23    2    1    0    0    0 -0.23273729656E+02 -0.14909605856E+02  0.11556521992E+02  0.95041427948E+02  0.90196213817E+02 0.  0.
         13    1    3    3    0    0 -0.54127663316E+02 -0.26529091094E+02  0.14317769377E+02  0.61956487104E+02  0.10566000000E+00 0.  1.
         22    1    1    0    0    0  0.23273729656E+02  0.14909605856E+02 -0.11556521992E+02  0.29958572052E+02  0.00000000000E+00 0.  1.
</event>
<event>
 5    1  0.6903325E-004  0.9118800E+02  0.7818608E-02  0.1130116E+00
         25   -1    0    0    0    0  0.00000000000E+00  0.00000000000E+00  0.99999998245E-14  0.12500000000E+03  0.12500000000E+03 0.  0.
        -13    1    3    3    0    0 -0.18701313322E+02 -0.26971723103E+02  0.49482635324E+02  0.59378071118E+02  0.10566000000E+00 0.  1.
         23    2    1    0    0    0 -0.12924708717E+01 -0.22143620022E+02  0.15260586635E+02  0.98076109250E+02  0.94308150828E+02 0.  0.
         13    1    3    3    0    0  0.17408842450E+02  0.48281030800E+01 -0.34222048689E+02  0.38698038132E+02  0.10566000000E+00 0. -1.
         22    1    1    0    0    0  0.12924708717E+01  0.22143620022E+02 -0.15260586635E+02  0.26923890750E+02  0.00000000000E+00 0.  1.
</event>
<event>
 5    1  0.6903325E-004  0.9118800E+02  0.7818608E-02  0.1130116E+00
         25   -1    0    0    0    0  0.00000000000E+00  0.00000000000E+00  0.99999998245E-14  0.12500000000E+03  0.12500000000E+03 0.  0.
        -13    1    3    3    0    0  0.22157703623E+02 -0.41101207445E+02 -0.13517189949E+02  0.48610684746E+02  0.10566000000E+00 0. -1.
         23    2    1    0    0    0  0.16184547039E+02 -0.13380699302E+01 -0.29052370431E+02  0.91716817735E+02  0.85464638499E+02 0.  0.
         13    1    3    3    0    0 -0.59731565844E+01  0.39763137515E+02 -0.15535180483E+02  0.43106132989E+02  0.10566000000E+00 0.  1.
         22    1    1    0    0    0 -0.16184547039E+02  0.13380699302E+01  0.29052370431E+02  0.33283182265E+02  0.00000000000E+00 0. -1.
</event>
<event>
 5    1  0.6903325E-004  0.9118800E+02  0.7818608E-02  0.1130116E+00
         25   -1    0    0    0    0  0.00000000000E+00  0.00000000000E+00  0.99999998245E-14  0.12500000000E+03  0.12500000000E+03 0.  0.
        -13    1    3    3    0    0 -0.12138628183E+02 -0.46311913405E+02  0.11277829901E+02  0.49186789169E+02  0.10566000000E+00 0. -1.
         23    2    1    0    0    0  0.40786519881E+01 -0.51932455266E+01  0.27838820751E+02  0.96388723517E+02  0.92044450562E+02 0.  0.
         13    1    3    3    0    0  0.16217280171E+02  0.41118667879E+02  0.16560990850E+02  0.47201934348E+02  0.10566000000E+00 0.  1.
         22    1    1    0    0    0 -0.40786519881E+01  0.51932455266E+01 -0.27838820751E+02  0.28611276483E+02  0.00000000000E+00 0.  1.
</event>
<event>
 5    1  0.6903325E-004  0.9118800E+02  0.7818608E-02  0.1130116E+00
         25   -1    0    0    0    0  0.00000000000E+00  0.00000000000E+00  0.99999998245E-14  0.12500000000E+03  0.12500000000E+03 0.  0.
        -13    1    3    3    0    0 -0.13755823668E+02 -0.33373805969E+02 -0.16789902105E+02  0.39811375088E+02  0.10566000000E+00 0. -1.
         23    2    1    0    0    0 -0.34293785205E+02  0.12194277779E+01  0.11292863512E+02  0.88874116286E+02  0.81200548468E+02 0.  0.
         13    1    3    3    0    0 -0.20537961537E+02  0.34593233747E+02  0.28082765617E+02  0.49062741198E+02  0.10566000000E+00 0.  1.
         22    1    1    0    0    0  0.34293785205E+02 -0.12194277779E+01 -0.11292863512E+02  0.36125883714E+02  0.00000000000E+00 0.  1.
</event>
<event>
 5    1  0.6903325E-004  0.9118800E+02  0.7818608E-02  0.1130116E+00
         25   -1    0    0    0    0  0.00000000000E+00  0.00000000000E+00  0.99999998245E-14  0.12500000000E+03  0.12500000000E+03 0.  0.
        -13    1    3    3    0    0 -0.54483129701E+02 -0.23975365138E+01 -0.26565285201E+02  0.60662056882E+02  0.10566000000E+00 0. -1.
         23    2    1    0    0    0 -0.25127277587E+02 -0.11801411539E+02 -0.11957514645E+02  0.94773595157E+02  0.89824266150E+02 0.  0.
         13    1    3    3    0    0  0.29355852114E+02 -0.94038750257E+01  0.14607770557E+02  0.34111538275E+02  0.10566000000E+00 0.  1.
         22    1    1    0    0    0  0.25127277587E+02  0.11801411539E+02  0.11957514645E+02  0.30226404843E+02  0.00000000000E+00 0. -1.
</event>
<event>
 5    1  0.6903325E-004  0.9118800E+02  0.7818608E-02  0.1130116E+00
         25   -1    0    0    0    0  0.00000000000E+00  0.00000000000E+00  0.99999998245E-14  0.12500000000E+03  0.12500000000E+03 0.  0.
        -13    1    3    3    0    0  0.37830232715E+02 -0.94177142607E+01 -0.13839447306E+02  0.41368603010E+02  0.10566000000E+00 0.  1.
         23    2    1    0    0    0  0.23304256888E+02  0.31334536438E+02 -0.39346480859E+01  0.85751776875E+02  0.76242666656E+02 0.  0.
         13    1    3    3    0    0 -0.14525975827E+02  0.40752250699E+02  0.99047992198E+01  0.44383173866E+02  0.10566000000E+00 0. -1.
         22    1    1    0    0    0 -0.23304256888E+02 -0.31334536438E+02  0.39346480859E+01  0.39248223125E+02  0.00000000000E+00 0. -1.
</event>
<event>
 5    1  0.6903325E-004  0.9118800E+02  0.7818608E-02  0.1130116E+00
         25   -1    0    0    0    0  0.00000000000E+00  0.00000000000E+00  0.99999998245E-14  0.12500000000E+03  0.12500000000E+03 0.  0.
        -13    1    3    3    0    0  0.36873288982E+02 -0.11110850595E+02  0.94637108766E+01  0.39656820711E+02  0.10566000000E+00 0.  1.
         23    2    1    0    0    0  0.14612842661E+02  0.79287220665E+01 -0.31125846795E+02  0.89712351411E+02  0.82480833244E+02 0.  0.
         13    1    3    3    0    0 -0.22260446321E+02  0.19039572662E+02 -0.40589557672E+02  0.50055530699E+02  0.10566000000E+00 0. -1.
         22    1    1    0    0    0 -0.14612842661E+02 -0.79287220665E+01  0.31125846795E+02  0.35287648589E+02  0.00000000000E+00 0. -1.
</event>
<event>
 5    1  0.6903325E-004  0.9118800E+02  0.7818608E-02  0.1130116E+00
         25   -1    0    0    0    0  0.00000000000E+00  0.00000000000E+00  0.99999998245E-14  0.12500000000E+03  0.12500000000E+03 0.  0.
        -13    1    3    3    0    0  0.25076115391E+01 -0.33295198840E+02  0.33199337222E+02  0.47085725411E+02  0.10566000000E+00 0. -1.
         23    2    1    0    0    0  0.23013402502E+02 -0.11192868100E+02 -0.80444153460E+01  0.98174459758E+02  0.94438418768E+02 0.  0.
         13    1    3    3    0    0  0.20505790963E+02  0.22102330740E+02 -0.41243752569E+02  0.51088734347E+02  0.10566000000E+00 0.  1.
         22    1    1    0    0    0 -0.23013402502E+02  0.11192868100E+02  0.80444153460E+01  0.26825540242E+02  0.00000000000E+00 0. -1.
</event>
<event>
 5    1  0.6903325E-004  0.9118800E+02  0.7818608E-02  0.1130116E+00
         25   -1    0    0    0    0  0.00000000000E+00  0.00000000000E+00  0.99999998245E-14  0.12500000000E+03  0.12500000000E+03 0.  0.
        -13    1    3    3    0    0  0.30747604526E+02  0.38315016899E+02 -0.20984189711E+02  0.53420998549E+02  0.10566000000E+00 0. -1.
         23    2    1    0    0    0  0.25942351530E+02  0.84415960984E+01  0.92481425627E+01  0.96193849815E+02  0.91779422824E+02 0.  0.
         13    1    3    3    0    0 -0.48052529964E+01 -0.29873420801E+02  0.30232332274E+02  0.42772851266E+02  0.10566000000E+00 0.  1.
         22    1    1    0    0    0 -0.25942351530E+02 -0.84415960984E+01 -0.92481425627E+01  0.28806150185E+02  0.00000000000E+00 0. -1.
</event>
<event>
 5    1  0.6903325E-004  0.9118800E+02  0.7818608E-02  0.1130116E+00
         25   -1    0    0    0    0  0.00000000000E+00  0.00000000000E+00  0.99999998245E-14  0.12500000000E+03  0.12500000000E+03 0.  0.
        -13    1    3    3    0    0 -0.40907307157E+02 -0.62309577596E+01 -0.86585804062E+00  0.41388325499E+02  0.10566000000E+00 0.  1.
         23    2    1    0    0    0  0.83712853489E+01 -0.23053891853E+02 -0.16122805734E+02  0.95648590959E+02  0.91033772522E+02 0.  0.
         13    1    3    3    0    0  0.49278592505E+02 -0.16822934094E+02 -0.15256947694E+02  0.54260265460E+02  0.10566000000E+00 0. -1.
         22    1    1    0    0    0 -0.83712853489E+01  0.23053891853E+02  0.16122805734E+02  0.29351409041E+02  0.00000000000E+00 0. -1.
</event>
<event>
 5    1  0.6903325E-004  0.9118800E+02  0.7818608E-02  0.1130116E+00
         25   -1    0    0    0    0  0.00000000000E+00  0.00000000000E+00  0.99999998245E-14  0.12500000000E+03  0.12500000000E+03 0.  0.
        -13    1    3    3    0    0  0.40408360158E+02  0.12901047976E+02 -0.27720834846E+02  0.50672758540E+02  0.10566000000E+00 0.  1.
         23    2    1    0    0    0 -0.35816770243E+01  0.15767070330E+02 -0.25492302158E+02  0.94812479624E+02  0.89878361724E+02 0.  0.
         13    1    3    3    0    0 -0.43990037182E+02  0.28660223540E+01  0.22285326875E+01  0.44139721084E+02  0.10566000000E+00 0. -1.
         22    1    1    0    0    0  0.35816770243E+01 -0.15767070330E+02  0.25492302158E+02  0.30187520376E+02  0.00000000000E+00 0.  1.
</event>
<event>
 5    1  0.6903325E-004  0.9118800E+02  0.7818608E-02  0.1130116E+00
         25   -1    0    0    0    0  0.00000000000E+00  0.00000000000E+00  0.99999998245E-14  0.12500000000E+03  0.12500000000E+03 0.  0.
        -13    1    3    3    0    0  0.49109349509E+02  0.35052130949E+02  0.13863536848E+02  0.61907906694E+02  0.10566000000E+00 0. -1.
         23    2    1    0    0    0  0.21370149371E+02  0.21734578209E+02  0.37950333194E+01  0.94283921931E+02  0.89140229317E+02 0.  0.
         13    1    3    3    0    0 -0.27739200138E+02 -0.13317552739E+02 -0.10068503529E+02  0.32376015237E+02  0.10566000000E+00 0.  1.
         22    1    1    0    0    0 -0.21370149371E+02 -0.21734578209E+02 -0.37950333194E+01  0.30716078069E+02  0.00000000000E+00 0. -1.
</event>
<event>
 5    1  0.6903325E-004  0.9118800E+02  0.7818608E-02  0.1130116E+00
         25   -1    0    0    0    0  0.00000000000E+00  0.00000000000E+00  0.99999998245E-14  0.12500000000E+03  0.12500000000E+03 0.  0.
        -13    1    3    3    0    0 -0.27971273001E+02  0.24859097715E+02  0.12503283002E+02  0.39455165725E+02  0.10566000000E+00 0.  1.
         23    2    1    0    0    0  0.81140751372E+01  0.63105111898E+00 -0.26145072999E+02  0.97617500426E+02  0.93698319656E+02 0.  0.
         13    1    3    3    0    0  0.36085348139E+02 -0.24228046596E+02 -0.38648356001E+02  0.58162334700E+02  0.10566000000E+00 0. -1.
         22    1    1    0    0    0 -0.81140751372E+01 -0.63105111898E+00  0.26145072999E+02  0.27382499574E+02  0.00000000000E+00 0. -1.
</event>
<event>
 5    1  0.6903325E-004  0.9118800E+02  0.7818608E-02  0.1130116E+00
         25   -1    0    0    0    0  0.00000000000E+00  0.00000000000E+00  0.99999998245E-14  0.12500000000E+03  0.12500000000E+03 0.  0.
        -13    1    3    3    0    0  0.17275261047E+02 -0.27105857616E+02  0.83790132886E+01  0.33217182136E+02  0.10566000000E+00 0.  1.
         23    2    1    0    0    0 -0.92650750049E+01  0.26931042436E+02 -0.76361709018E+01  0.95513837694E+02  0.90848552126E+02 0.  0.
         13    1    3    3    0    0 -0.26540336052E+02  0.54036900052E+02 -0.16015184190E+02  0.62296655557E+02  0.10566000000E+00 0. -1.
         22    1    1    0    0    0  0.92650750049E+01 -0.26931042436E+02  0.76361709018E+01  0.29486162306E+02  0.00000000000E+00 0. -1.
</event>
<event>
 5    1  0.6903325E-004  0.9118800E+02  0.7818608E-02  0.1130116E+00
         25   -1    0    0    0    0  0.00000000000E+00  0.00000000000E+00  0.99999998245E-14  0.12500000000E+03  0.12500000000E+03 0.  0.
        -13    1    3    3    0    0 -0.30621979578E+02 -0.19173435542E+02 -0.31863703588E+01  0.36269689603E+02  0.10566000000E+00 0. -1.
         23    2    1    0    0    0  0.25808266399E+02 -0.70812468964E+01  0.11579587850E+02  0.95840138428E+02  0.91296410701E+02 0.  0.
         13    1    3    3    0    0  0.56430245978E+02  0.12092188646E+02  0.14765958209E+02  0.59570448825E+02  0.10566000000E+00 0.  1.
         22    1    1    0    0    0 -0.25808266399E+02  0.70812468964E+01 -0.11579587850E+02  0.29159861572E+02  0.00000000000E+00 0.  1.
</event>
<event>
 5    1  0.6903325E-004  0.9118800E+02  0.7818608E-02  0.1130116E+00
         25   -1    0    0    0    0  0.00000000000E+00  0.00000000000E+00  0.99999998245E-14  0.12500000000E+03  0.12500000000E+03 0.  0.
        -13    1    3    3    0    0  0.25882324153E+02  0.22945201259E+02 -0.48727863379E+01  0.34930390423E+02  0.10566000000E+00 0. -1.
         23    2    1    0    0    0 -0.10619514543E+02 -0.25416922611E+02 -0.98976834800E+01  0.95729568120E+02  0.91144895798E+02 0.  0.
         13    1    3    3    0    0 -0.36501838696E+02 -0.48362123870E+02 -0.50248971421E+01  0.60799177698E+02  0.10566000000E+00 0.  1.
         22    1    1    0    0    0  0.10619514543E+02  0.25416922611E+02  0.98976834800E+01  0.29270431880E+02  0.00000000000E+00 0.  1.
</event>
<event>
 5    1  0.6903325E-004  0.9118800E+02  0.7818608E-02  0.1130116E+00
         25   -1    0    0    0    0  0.00000000000E+00  0.00000000000E+00  0.99999998245E-14  0.12500000000E+03  0.12500000000E+03 0.  0.
        -13    1    3    3    0    0 -0.55940897383E+02 -0.16299690126E+02 -0.96086917879E+01  0.59054229486E+02  0.10566000000E+00 0.  1.
         23    2    1    0    0    0 -0.20600189005E+02 -0.82229027733E+01 -0.18197370224E+02  0.96309789124E+02  0.91937192044E+02 0.  0.
         13    1    3    3    0    0  0.35340708378E+02  0.80767873526E+01 -0.85886784359E+01  0.37255559638E+02  0.10566000000E+00 0. -1.
         22    1    1    0    0    0  0.20600189005E+02  0.82229027733E+01  0.18197370224E+02  0.28690210876E+02  0.00000000000E+00 0.  1.
</event>
<event>
 5    1  0.6903325E-004  0.9118800E+02  0.7818608E-02  0.1130116E+00
         25   -1    0    0    0    0  0.00000000000E+00  0.00000000000E+00  0.99999998245E-14  0.12500000000E+03  0.12500000000E+03 0.  0.
        -13    1    3    3    0    0 -0.41676393892E+02 -0.33636934719E+02  0.26345160793E+02  0.59686211526E+02  0.10566000000E+00 0.  1.
         23    2    1    0    0    0 -0.10681003341E+02 -0.25240763428E+02  0.91983772039E+01  0.96089965168E+02  0.91637826753E+02 0.  0.
         13    1    3    3    0    0  0.30995390550E+02  0.83961712911E+01 -0.17146783589E+02  0.36403753642E+02  0.10566000000E+00 0. -1.
         22    1    1    0    0    0  0.10681003341E+02  0.25240763428E+02 -0.91983772039E+01  0.28910034832E+02  0.00000000000E+00 0.  1.
</event>
<event>
 5    1  0.6903325E-004  0.9118800E+02  0.7818608E-02  0.1130116E+00
         25   -1    0    0    0    0  0.00000000000E+00  0.00000000000E+00  0.99999998245E-14  0.12500000000E+03  0.12500000000E+03 0.  0.
        -13    1    3    3    0    0 -0.60877707018E+01  0.27885414930E+02  0.27185050204E+02  0.39416943521E+02  0.10566000000E+00 0. -1.
         23    2    1    0    0    0 -0.17969997538E+02 -0.22609248467E+02  0.57111497849E+01  0.95559956528E+02  0.90911985634E+02 0.  0.
         13    1    3    3    0    0 -0.11882226836E+02 -0.50494663397E+02 -0.21473900419E+02  0.56143013006E+02  0.10566000000E+00 0.  1.
         22    1    1    0    0    0  0.17969997538E+02  0.22609248467E+02 -0.57111497849E+01  0.29440043472E+02  0.00000000000E+00 0.  1.
</event>
<event>
 5    1  0.6903325E-004  0.9118800E+02  0.7818608E-02  0.1130116E+00
         25   -1    0    0    0    0  0.00000000000E+00  0.00000000000E+00  0.99999998245E-14  0.12500000000E+03  0.12500000000E+03 0.  0.
        -13    1    3    3    0    0 -0.32657247106E+02  0.27563370773E+02  0.10184399286E+02  0.43931405051E+02  0.10566000000E+00 0. -1.
         23    2    1    0    0    0 -0.12958119186E+01 -0.49621775306E+01  0.30929048158E+02  0.93648630742E+02  0.88244873424E+02 0.  0.
         13    1    3    3    0    0  0.31361435188E+02 -0.32525548304E+02  0.20744648872E+02  0.49717225691E+02  0.10566000000E+00 0.  1.
         22    1    1    0    0    0  0.12958119186E+01  0.49621775306E+01 -0.30929048158E+02  0.31351369258E+02  0.00000000000E+00 0. -1.
</event>
<event>
 5    1  0.6903325E-004  0.9118800E+02  0.7818608E-02  0.1130116E+00
         25   -1    0    0    0    0  0.00000000000E+00  0.00000000000E+00  0.99999998245E-14  0.12500000000E+03  0.12500000000E+03 0.  0.
        -13    1    3    3    0    0  0.29466106819E+02  0.52632038497E+02 -0.24416022798E+01  0.60368497688E+02  0.10566000000E+00 0.  1.
         23    2    1    0    0    0  0.23980119676E+02  0.19456813918E+02 -0.27634487274E+01  0.93995961612E+02  0.88735508129E+02 0.  0.
         13    1    3    3    0    0 -0.54859871425E+01 -0.33175224579E+02 -0.32184644757E+00  0.33627463924E+02  0.10566000000E+00 0. -1.
         22    1    1    0    0    0 -0.23980119676E+02 -0.19456813918E+02  0.27634487274E+01  0.31004038388E+02  0.00000000000E+00 0.  1.
</event>
<event>
 5    1  0.6903325E-004  0.9118800E+02  0.7818608E-02  0.1130116E+00
         25   -1    0    0    0    0  0.00000000000E+00  0.00000000000E+00  0.99999998245E-14  0.12500000000E+03  0.12500000000E+03 0.  0.
        -13    1    3    3    0    0 -0.43323782453E+02 -0.25751151875E+02  0.26088006312E+02  0.56750922339E+02  0.10566000000E+00 0.  1.
         23    2    1    0    0    0 -0.59919458006E+01 -0.21890432443E+02  0.19953791723E+02  0.94780002462E+02  0.89833182152E+02 0.  0.
         13    1    3    3    0    0  0.37331836652E+02  0.38607194317E+01 -0.61342145890E+01  0.38029080123E+02  0.10566000000E+00 0. -1.
         22    1    1    0    0    0  0.59919458006E+01  0.21890432443E+02 -0.19953791723E+02  0.30219997538E+02  0.00000000000E+00 0.  1.
</event>
<event>
 5    1  0.6903325E-004  0.9118800E+02  0.7818608E-02  0.1130116E+00
         25   -1    0    0    0    0  0.00000000000E+00  0.00000000000E+00  0.99999998245E-14  0.12500000000E+03  0.12500000000E+03 0.  0.
        -13    1    3    3    0    0 -0.31375546125E+02  0.39941499459E+02  0.20971890621E+02  0.54950701851E+02  0.10566000000E+00 0.  1.
         23    2    1    0    0    0  0.29285753128E+01  0.15880864777E+02  0.22995611867E+02  0.96900594587E+02  0.92736986401E+02 0.  0.
         13    1    3    3    0    0  0.34304121437E+02 -0.24060634682E+02  0.20237212457E+01  0.41949892736E+02  0.10566000000E+00 0. -1.
         22    1    1    0    0    0 -0.29285753128E+01 -0.15880864777E+02 -0.22995611867E+02  0.28099405413E+02  0.00000000000E+00 0.  1.
</event>
<event>
 5    1  0.6903325E-004  0.9118800E+02  0.7818608E-02  0.1130116E+00
         25   -1    0    0    0    0  0.00000000000E+00  0.00000000000E+00  0.99999998245E-14  0.12500000000E+03  0.12500000000E+03 0.  0.
        -13    1    3    3    0    0  0.61705050331E+01 -0.52024892664E+01 -0.35316184243E+02  0.36226855515E+02  0.10566000000E+00 0. -1.
         23    2    1    0    0    0  0.69685055225E+01  0.22944513320E+02  0.16976861595E+02  0.95619316033E+02  0.90993565753E+02 0.  0.
         13    1    3    3    0    0  0.79800048940E+00  0.28147002587E+02  0.52293045838E+02  0.59392460519E+02  0.10566000000E+00 0.  1.
         22    1    1    0    0    0 -0.69685055225E+01 -0.22944513320E+02 -0.16976861595E+02  0.29380683967E+02  0.00000000000E+00 0.  1.
</event>
<event>
 5    1  0.6903325E-004  0.9118800E+02  0.7818608E-02  0.1130116E+00
         25   -1    0    0    0    0  0.00000000000E+00  0.00000000000E+00  0.99999998245E-14  0.12500000000E+03  0.12500000000E+03 0.  0.
        -13    1    3    3    0    0 -0.28050036079E+02 -0.50407082237E+02  0.17765650398E+02  0.60359820757E+02  0.10566000000E+00 0.  1.
         23    2    1    0    0    0 -0.23791703937E+01 -0.26997890610E+02  0.10978177143E+02  0.95758472637E+02  0.91184528069E+02 0.  0.
         13    1    3    3    0    0  0.25670865685E+02  0.23409191627E+02 -0.67874732552E+01  0.35398651880E+02  0.10566000000E+00 0. -1.
         22    1    1    0    0    0  0.23791703937E+01  0.26997890610E+02 -0.10978177143E+02  0.29241527363E+02  0.00000000000E+00 0.  1.
</event>
<event>
 5    1  0.6903325E-004  0.9118800E+02  0.7818608E-02  0.1130116E+00
         25   -1    0    0    0    0  0.00000000000E+00  0.00000000000E+00  0.99999998245E-14  0.12500000000E+03  0.12500000000E+03 0.  0.
        -13    1    3    3    0    0 -0.31825017152E+02 -0.43311365897E+02 -0.66730265873E+01  0.54159455135E+02  0.10566000000E+00 0.  1.
         23    2    1    0    0    0 -0.23830679173E+02 -0.35621502029E+01 -0.16397185944E+02  0.95854539105E+02  0.91316125500E+02 0.  0.
         13    1    3    3    0    0  0.79943379797E+01  0.39749215694E+02 -0.97241593565E+01  0.41695083970E+02  0.10566000000E+00 0. -1.
         22    1    1    0    0    0  0.23830679173E+02  0.35621502029E+01  0.16397185944E+02  0.29145460895E+02  0.00000000000E+00 0. -1.
</event>
<event>
 5    1  0.6903325E-004  0.9118800E+02  0.7818608E-02  0.1130116E+00
         25   -1    0    0    0    0  0.00000000000E+00  0.00000000000E+00  0.99999998245E-14  0.12500000000E+03  0.12500000000E+03 0.  0.
        -13    1    3    3    0    0 -0.34816666246E+02 -0.10716755072E+02  0.17168576494E+02  0.40271829741E+02  0.10566000000E+00 0. -1.
         23    2    1    0    0    0  0.17670745864E+02  0.88184300716E+01  0.20702927696E+02  0.96388268429E+02  0.92043832532E+02 0.  0.
         13    1    3    3    0    0  0.52487412110E+02  0.19535185144E+02  0.35343512022E+01  0.56116438688E+02  0.10566000000E+00 0.  1.
         22    1    1    0    0    0 -0.17670745864E+02 -0.88184300716E+01 -0.20702927696E+02  0.28611731571E+02  0.00000000000E+00 0. -1.
</event>
<event>
 5    1  0.6903325E-004  0.9118800E+02  0.7818608E-02  0.1130116E+00
         25   -1    0    0    0    0  0.00000000000E+00  0.00000000000E+00  0.99999998245E-14  0.12500000000E+03  0.12500000000E+03 0.  0.
        -13    1    3    3    0    0 -0.83002867822E+01  0.14025332259E+02 -0.52933907002E+02  0.55386048606E+02  0.10566000000E+00 0.  1.
         23    2    1    0    0    0  0.17338716758E+02  0.56762741176E+01 -0.21768925611E+02  0.96596878535E+02  0.92326700547E+02 0.  0.
         13    1    3    3    0    0  0.25639003540E+02 -0.83490581412E+01  0.31164981391E+02  0.41210829930E+02  0.10566000000E+00 0. -1.
         22    1    1    0    0    0 -0.17338716758E+02 -0.56762741176E+01  0.21768925611E+02  0.28403121465E+02  0.00000000000E+00 0.  1.
</event>
<event>
 5    1  0.6903325E-004  0.9118800E+02  0.7818608E-02  0.1130116E+00
         25   -1    0    0    0    0  0.00000000000E+00  0.00000000000E+00  0.99999998245E-14  0.12500000000E+03  0.12500000000E+03 0.  0.
        -13    1    3    3    0    0  0.29370315996E+02 -0.17132466763E+02  0.22549832783E+02  0.40800036785E+02  0.10566000000E+00 0.  1.
         23    2    1    0    0    0  0.95071109131E+01  0.27462944608E+02 -0.27910612971E+01  0.95804306694E+02  0.91247337899E+02 0.  0.
         13    1    3    3    0    0 -0.19863205083E+02  0.44595411370E+02 -0.25340894080E+02  0.55004269909E+02  0.10566000000E+00 0. -1.
         22    1    1    0    0    0 -0.95071109131E+01 -0.27462944608E+02  0.27910612971E+01  0.29195693306E+02  0.00000000000E+00 0. -1.
</event>
<event>
 5    1  0.6903325E-004  0.9118800E+02  0.7818608E-02  0.1130116E+00
         25   -1    0    0    0    0  0.00000000000E+00  0.00000000000E+00  0.99999998245E-14  0.12500000000E+03  0.12500000000E+03 0.  0.
        -13    1    3    3    0    0  0.38511419105E+02  0.19489174597E+01 -0.21294373833E+02  0.44049849054E+02  0.10566000000E+00 0. -1.
         23    2    1    0    0    0 -0.50707721867E+00 -0.28561216172E+02 -0.80949664097E+01  0.95309451374E+02  0.90566897062E+02 0.  0.
         13    1    3    3    0    0 -0.39018496324E+02 -0.30510133632E+02  0.13199407423E+02  0.51259602320E+02  0.10566000000E+00 0.  1.
         22    1    1    0    0    0  0.50707721867E+00  0.28561216172E+02  0.80949664097E+01  0.29690548626E+02  0.00000000000E+00 0. -1.
</event>
<event>
 5    1  0.6903325E-004  0.9118800E+02  0.7818608E-02  0.1130116E+00
         25   -1    0    0    0    0  0.00000000000E+00  0.00000000000E+00  0.99999998245E-14  0.12500000000E+03  0.12500000000E+03 0.  0.
        -13    1    3    3    0    0 -0.62174618773E+02 -0.23760021869E+01  0.58541589559E+01  0.62494887368E+02  0.10566000000E+00 0.  1.
         23    2    1    0    0    0 -0.29552344948E+02 -0.16516320371E+01  0.25740997417E+01  0.95289817069E+02  0.90539793833E+02 0.  0.
         13    1    3    3    0    0  0.32622273825E+02  0.72437014976E+00 -0.32800592142E+01  0.32794929702E+02  0.10566000000E+00 0. -1.
         22    1    1    0    0    0  0.29552344948E+02  0.16516320371E+01 -0.25740997417E+01  0.29710182931E+02  0.00000000000E+00 0.  1.
</event>
<event>
 5    1  0.6903325E-004  0.9118800E+02  0.7818608E-02  0.1130116E+00
         25   -1    0    0    0    0  0.00000000000E+00  0.00000000000E+00  0.99999998245E-14  0.12500000000E+03  0.12500000000E+03 0.  0.
        -13    1    3    3    0    0  0.21291434506E+02  0.35318742086E+02 -0.44344450196E+02  0.60557246908E+02  0.10566000000E+00 0.  1.
         23    2    1    0    0    0  0.11057598535E+01  0.11310290227E+02 -0.25330556574E+02  0.97237030666E+02  0.93189364557E+02 0.  0.
         13    1    3    3    0    0 -0.20185674652E+02 -0.24008451859E+02  0.19013893622E+02  0.36679783758E+02  0.10566000000E+00 0. -1.
         22    1    1    0    0    0 -0.11057598535E+01 -0.11310290227E+02  0.25330556574E+02  0.27762969334E+02  0.00000000000E+00 0.  1.
</event>
<event>
 5    1  0.6903325E-004  0.9118800E+02  0.7818608E-02  0.1130116E+00
         25   -1    0    0    0    0  0.00000000000E+00  0.00000000000E+00  0.99999998245E-14  0.12500000000E+03  0.12500000000E+03 0.  0.
        -13    1    3    3    0    0  0.26029475934E+02 -0.32840830351E+02 -0.40264619003E+02  0.58114580469E+02  0.10566000000E+00 0. -1.
         23    2    1    0    0    0 -0.43182905165E+01 -0.11122449991E+02 -0.22689480820E+02  0.99364691017E+02  0.96000899757E+02 0.  0.
         13    1    3    3    0    0 -0.30347766451E+02  0.21718380360E+02  0.17575138183E+02  0.41250110548E+02  0.10566000000E+00 0.  1.
         22    1    1    0    0    0  0.43182905165E+01  0.11122449991E+02  0.22689480820E+02  0.25635308983E+02  0.00000000000E+00 0. -1.
</event>
<event>
 5    1  0.6903325E-004  0.9118800E+02  0.7818608E-02  0.1130116E+00
         25   -1    0    0    0    0  0.00000000000E+00  0.00000000000E+00  0.99999998245E-14  0.12500000000E+03  0.12500000000E+03 0.  0.
        -13    1    3    3    0    0  0.10628085782E+01 -0.10975080735E+02  0.54447538417E+02  0.55552925782E+02  0.10566000000E+00 0. -1.
         23    2    1    0    0    0 -0.27426365486E+01  0.15237488585E+02  0.28123231820E+02  0.92896740327E+02  0.87173304869E+02 0.  0.
         13    1    3    3    0    0 -0.38054451268E+01  0.26212569320E+02 -0.26324306597E+02  0.37343814546E+02  0.10566000000E+00 0.  1.
         22    1    1    0    0    0  0.27426365486E+01 -0.15237488585E+02 -0.28123231820E+02  0.32103259673E+02  0.00000000000E+00 0. -1.
</event>
<event>
 5    1  0.6903325E-004  0.9118800E+02  0.7818608E-02  0.1130116E+00
         25   -1    0    0    0    0  0.00000000000E+00  0.00000000000E+00  0.99999998245E-14  0.12500000000E+03  0.12500000000E+03 0.  0.
        -13    1    3    3    0    0  0.17922889598E+02 -0.31472233915E+02  0.40974637674E+02  0.54686959832E+02  0.10566000000E+00 0. -1.
         23    2    1    0    0    0  0.14581482324E+02 -0.28356204497E+02  0.29578394347E+01  0.92977464586E+02  0.87288980671E+02 0.  0.
         13    1    3    3    0    0 -0.33414072740E+01  0.31160294183E+01 -0.38016798239E+02  0.38290504754E+02  0.10566000000E+00 0.  1.
         22    1    1    0    0    0 -0.14581482324E+02  0.28356204497E+02 -0.29578394347E+01  0.32022535414E+02  0.00000000000E+00 0. -1.
</event>
<event>
 5    1  0.6903325E-004  0.9118800E+02  0.7818608E-02  0.1130116E+00
         25   -1    0    0    0    0  0.00000000000E+00  0.00000000000E+00  0.99999998245E-14  0.12500000000E+03  0.12500000000E+03 0.  0.
        -13    1    3    3    0    0 -0.24734612570E+02  0.31781910855E+02  0.21621027087E+02  0.45709636762E+02  0.10566000000E+00 0. -1.
         23    2    1    0    0    0  0.21003833735E+02  0.20112178399E+02  0.84876002538E+01  0.94706434519E+02  0.89730756319E+02 0.  0.
         13    1    3    3    0    0  0.45738446305E+02 -0.11669732456E+02 -0.13133426833E+02  0.48996797757E+02  0.10566000000E+00 0.  1.
         22    1    1    0    0    0 -0.21003833735E+02 -0.20112178399E+02 -0.84876002538E+01  0.30293565481E+02  0.00000000000E+00 0. -1.
</event>
<event>
 5    1  0.6903325E-004  0.9118800E+02  0.7818608E-02  0.1130116E+00
         25   -1    0    0    0    0  0.00000000000E+00  0.00000000000E+00  0.99999998245E-14  0.12500000000E+03  0.12500000000E+03 0.  0.
        -13    1    3    3    0    0 -0.25702275332E+02  0.23140727936E+02  0.41196204012E+02  0.53788833745E+02  0.10566000000E+00 0.  1.
         23    2    1    0    0    0 -0.28012466460E+02 -0.26072600290E+01  0.82202996501E+01  0.95690114153E+02  0.91090770873E+02 0.  0.
         13    1    3    3    0    0 -0.23101911276E+01 -0.25747987965E+02 -0.32975904362E+02  0.41901280408E+02  0.10566000000E+00 0. -1.
         22    1    1    0    0    0  0.28012466460E+02  0.26072600290E+01 -0.82202996501E+01  0.29309885847E+02  0.00000000000E+00 0. -1.
</event>
<event>
 5    1  0.6903325E-004  0.9118800E+02  0.7818608E-02  0.1130116E+00
         25   -1    0    0    0    0  0.00000000000E+00  0.00000000000E+00  0.99999998245E-14  0.12500000000E+03  0.12500000000E+03 0.  0.
        -13    1    3    3    0    0  0.35767730604E+02  0.11724345566E+02 -0.66981553339E+01  0.38231757486E+02  0.10566000000E+00 0. -1.
         23    2    1    0    0    0 -0.20538955148E+02  0.20866517151E+02 -0.49707744984E+01  0.95302040210E+02  0.90556667632E+02 0.  0.
         13    1    3    3    0    0 -0.56306685752E+02  0.91421715851E+01  0.17273808355E+01  0.57070282725E+02  0.10566000000E+00 0.  1.
         22    1    1    0    0    0  0.20538955148E+02 -0.20866517151E+02  0.49707744984E+01  0.29697959790E+02  0.00000000000E+00 0.  1.
</event>
<event>
 5    1  0.6903325E-004  0.9118800E+02  0.7818608E-02  0.1130116E+00
         25   -1    0    0    0    0  0.00000000000E+00  0.00000000000E+00  0.99999998245E-14  0.12500000000E+03  0.12500000000E+03 0.  0.
        -13    1    3    3    0    0  0.39388856376E+02  0.15574772817E+01 -0.14389038695E+02  0.41963833723E+02  0.10566000000E+00 0.  1.
         23    2    1    0    0    0  0.80016061559E+01  0.47057145699E+01  0.28398635129E+02  0.95122718867E+02  0.90308801990E+02 0.  0.
         13    1    3    3    0    0 -0.31387250220E+02  0.31482372882E+01  0.42787673825E+02  0.53158885144E+02  0.10566000000E+00 0. -1.
         22    1    1    0    0    0 -0.80016061559E+01 -0.47057145699E+01 -0.28398635129E+02  0.29877281133E+02  0.00000000000E+00 0. -1.
</event>
<event>
 5    1  0.6903325E-004  0.9118800E+02  0.7818608E-02  0.1130116E+00
         25   -1    0    0    0    0  0.00000000000E+00  0.00000000000E+00  0.99999998245E-14  0.12500000000E+03  0.12500000000E+03 0.  0.
        -13    1    3    3    0    0  0.19574431387E+01  0.45303230854E+02 -0.72368523466E+01  0.45919467608E+02  0.10566000000E+00 0. -1.
         23    2    1    0    0    0 -0.26962881133E+02  0.10086568704E+02 -0.15610290561E+02  0.92252221471E+02  0.86244161354E+02 0.  0.
         13    1    3    3    0    0 -0.28920324272E+02 -0.35216662150E+02 -0.83734382139E+01  0.46332753863E+02  0.10566000000E+00 0.  1.
         22    1    1    0    0    0  0.26962881133E+02 -0.10086568704E+02  0.15610290561E+02  0.32747778529E+02  0.00000000000E+00 0.  1.
</event>
<event>
 5    1  0.6903325E-004  0.9118800E+02  0.7818608E-02  0.1130116E+00
         25   -1    0    0    0    0  0.00000000000E+00  0.00000000000E+00  0.99999998245E-14  0.12500000000E+03  0.12500000000E+03 0.  0.
        -13    1    3    3    0    0 -0.40567396297E+02 -0.31388855623E+02  0.20850756232E+02  0.55369116836E+02  0.10566000000E+00 0.  1.
         23    2    1    0    0    0 -0.15621630778E+02 -0.21686122529E+02 -0.10225818448E+02  0.96383735019E+02  0.92037675735E+02 0.  0.
         13    1    3    3    0    0  0.24945765519E+02  0.97027330939E+01 -0.31076574681E+02  0.41014618183E+02  0.10566000000E+00 0. -1.
         22    1    1    0    0    0  0.15621630778E+02  0.21686122529E+02  0.10225818448E+02  0.28616264981E+02  0.00000000000E+00 0.  1.
</event>
<event>
 5    1  0.6903325E-004  0.9118800E+02  0.7818608E-02  0.1130116E+00
         25   -1    0    0    0    0  0.00000000000E+00  0.00000000000E+00  0.99999998245E-14  0.12500000000E+03  0.12500000000E+03 0.  0.
        -13    1    3    3    0    0 -0.37180617250E+02  0.35843566243E+02  0.29547317916E+02  0.59499703362E+02  0.10566000000E+00 0.  1.
         23    2    1    0    0    0 -0.23279511742E+02  0.44591071062E+01  0.16003339868E+02  0.96400591089E+02  0.92060565782E+02 0.  0.
         13    1    3    3    0    0  0.13901105507E+02 -0.31384459137E+02 -0.13543978048E+02  0.36900887727E+02  0.10566000000E+00 0. -1.
         22    1    1    0    0    0  0.23279511742E+02 -0.44591071062E+01 -0.16003339868E+02  0.28599408911E+02  0.00000000000E+00 0.  1.
</event>
<event>
 5    1  0.6903325E-004  0.9118800E+02  0.7818608E-02  0.1130116E+00
         25   -1    0    0    0    0  0.00000000000E+00  0.00000000000E+00  0.99999998245E-14  0.12500000000E+03  0.12500000000E+03 0.  0.
        -13    1    3    3    0    0 -0.24976461321E+02 -0.24319069710E+02 -0.39902445267E+02  0.52985442095E+02  0.10566000000E+00 0.  1.
         23    2    1    0    0    0 -0.45099459392E+01 -0.28010325908E+02 -0.15828756647E+01  0.96584802214E+02  0.92310349113E+02 0.  0.
         13    1    3    3    0    0  0.20466515382E+02 -0.36912561980E+01  0.38319569602E+02  0.43599360119E+02  0.10566000000E+00 0. -1.
         22    1    1    0    0    0  0.45099459392E+01  0.28010325908E+02  0.15828756647E+01  0.28415197786E+02  0.00000000000E+00 0.  1.
</event>
<event>
 5    1  0.6903325E-004  0.9118800E+02  0.7818608E-02  0.1130116E+00
         25   -1    0    0    0    0  0.00000000000E+00  0.00000000000E+00  0.99999998245E-14  0.12500000000E+03  0.12500000000E+03 0.  0.
        -13    1    3    3    0    0  0.39137468095E+02 -0.40132600265E+02  0.12354883034E+02  0.57402276190E+02  0.10566000000E+00 0.  1.
         23    2    1    0    0    0  0.15627402236E+02 -0.10608573224E+02  0.21647504119E+02  0.96270712486E+02  0.91884047154E+02 0.  0.
         13    1    3    3    0    0 -0.23510065859E+02  0.29524027041E+02  0.92926210850E+01  0.38868436296E+02  0.10566000000E+00 0. -1.
         22    1    1    0    0    0 -0.15627402236E+02  0.10608573224E+02 -0.21647504119E+02  0.28729287514E+02  0.00000000000E+00 0.  1.
</event>
<event>
 5    1  0.6903325E-004  0.9118800E+02  0.7818608E-02  0.1130116E+00
         25   -1    0    0    0    0  0.00000000000E+00  0.00000000000E+00  0.99999998245E-14  0.12500000000E+03  0.12500000000E+03 0.  0.
        -13    1    3    3    0    0  0.31546053315E+02 -0.10385884468E+02 -0.10469332576E+02  0.34822954564E+02  0.10566000000E+00 0.  1.
         23    2    1    0    0    0 -0.27762765907E+02 -0.11953003153E+02 -0.28635906742E+01  0.94638089541E+02  0.89635497351E+02 0.  0.
         13    1    3    3    0    0 -0.59308819222E+02 -0.15671186848E+01  0.76057419018E+01  0.59815134977E+02  0.10566000000E+00 0. -1.
         22    1    1    0    0    0  0.27762765907E+02  0.11953003153E+02  0.28635906742E+01  0.30361910459E+02  0.00000000000E+00 0. -1.
</event>
<event>
 5    1  0.6903325E-004  0.9118800E+02  0.7818608E-02  0.1130116E+00
         25   -1    0    0    0    0  0.00000000000E+00  0.00000000000E+00  0.99999998245E-14  0.12500000000E+03  0.12500000000E+03 0.  0.
        -13    1    3    3    0    0 -0.17185522009E+02  0.21798660215E+02 -0.51781567553E+02  0.58752579996E+02  0.10566000000E+00 0. -1.
         23    2    1    0    0    0 -0.66145188558E+01  0.23372681956E+02 -0.16455006812E+02  0.95660583328E+02  0.91050237956E+02 0.  0.
         13    1    3    3    0    0  0.10571003153E+02  0.15740217408E+01  0.35326560741E+02  0.36908003332E+02  0.10566000000E+00 0.  1.
         22    1    1    0    0    0  0.66145188558E+01 -0.23372681956E+02  0.16455006812E+02  0.29339416672E+02  0.00000000000E+00 0. -1.
</event>
<event>
 5    1  0.6903325E-004  0.9118800E+02  0.7818608E-02  0.1130116E+00
         25   -1    0    0    0    0  0.00000000000E+00  0.00000000000E+00  0.99999998245E-14  0.12500000000E+03  0.12500000000E+03 0.  0.
        -13    1    3    3    0    0 -0.10816449017E+02 -0.15559835893E+02 -0.29750740062E+02  0.35273527760E+02  0.10566000000E+00 0.  1.
         23    2    1    0    0    0  0.47640266428E+01 -0.14017492620E+01  0.27907032489E+02  0.96654571564E+02  0.92404777426E+02 0.  0.
         13    1    3    3    0    0  0.15580475660E+02  0.14158086631E+02  0.57657772552E+02  0.61381043804E+02  0.10566000000E+00 0. -1.
         22    1    1    0    0    0 -0.47640266428E+01  0.14017492620E+01 -0.27907032489E+02  0.28345428436E+02  0.00000000000E+00 0. -1.
</event>
<event>
 5    1  0.6903325E-004  0.9118800E+02  0.7818608E-02  0.1130116E+00
         25   -1    0    0    0    0  0.00000000000E+00  0.00000000000E+00  0.99999998245E-14  0.12500000000E+03  0.12500000000E+03 0.  0.
        -13    1    3    3    0    0  0.12606120767E+02 -0.48147957534E+02 -0.54613804523E+01  0.50069730735E+02  0.10566000000E+00 0.  1.
         23    2    1    0    0    0 -0.14435990859E+02 -0.14421768015E+02  0.16685042920E+02  0.98641398329E+02  0.95054455878E+02 0.  0.
         13    1    3    3    0    0 -0.27042111626E+02  0.33726189518E+02  0.22146423373E+02  0.48571667594E+02  0.10566000000E+00 0. -1.
         22    1    1    0    0    0  0.14435990859E+02  0.14421768015E+02 -0.16685042920E+02  0.26358601671E+02  0.00000000000E+00 0. -1.
</event>
<event>
 5    1  0.6903325E-004  0.9118800E+02  0.7818608E-02  0.1130116E+00
         25   -1    0    0    0    0  0.00000000000E+00  0.00000000000E+00  0.99999998245E-14  0.12500000000E+03  0.12500000000E+03 0.  0.
        -13    1    3    3    0    0 -0.34392748288E+01  0.41675198245E+02  0.14550143248E+01  0.41842311012E+02  0.10566000000E+00 0.  1.
         23    2    1    0    0    0 -0.19442674246E+02 -0.59911646103E+01  0.20974509999E+02  0.95779430106E+02  0.91213253020E+02 0.  0.
         13    1    3    3    0    0 -0.16003399417E+02 -0.47666362855E+02  0.19519495674E+02  0.53937119094E+02  0.10566000000E+00 0. -1.
         22    1    1    0    0    0  0.19442674246E+02  0.59911646103E+01 -0.20974509999E+02  0.29220569894E+02  0.00000000000E+00 0.  1.
</event>
<event>
 5    1  0.6903325E-004  0.9118800E+02  0.7818608E-02  0.1130116E+00
         25   -1    0    0    0    0  0.00000000000E+00  0.00000000000E+00  0.99999998245E-14  0.12500000000E+03  0.12500000000E+03 0.  0.
        -13    1    3    3    0    0 -0.19670497041E+02  0.18532845098E+02 -0.22636653218E+02  0.35253709510E+02  0.10566000000E+00 0.  1.
         23    2    1    0    0    0  0.24119830694E+02 -0.15194554607E+02  0.32868984970E+01  0.96304278644E+02  0.91929699560E+02 0.  0.
         13    1    3    3    0    0  0.43790327735E+02 -0.33727399705E+02  0.25923551715E+02  0.61050569134E+02  0.10566000000E+00 0. -1.
         22    1    1    0    0    0 -0.24119830694E+02  0.15194554607E+02 -0.32868984970E+01  0.28695721356E+02  0.00000000000E+00 0. -1.
</event>
<event>
 5    1  0.6903325E-004  0.9118800E+02  0.7818608E-02  0.1130116E+00
         25   -1    0    0    0    0  0.00000000000E+00  0.00000000000E+00  0.99999998245E-14  0.12500000000E+03  0.12500000000E+03 0.  0.
        -13    1    3    3    0    0  0.40018656431E+02  0.30165076292E+02  0.25941948386E+02  0.56430670210E+02  0.10566000000E+00 0. -1.
         23    2    1    0    0    0  0.18003585869E+01  0.23044268544E+02  0.16959731332E+02  0.96330990763E+02  0.91966013782E+02 0.  0.
         13    1    3    3    0    0 -0.38218297844E+02 -0.71208077484E+01 -0.89822170542E+01  0.39900320554E+02  0.10566000000E+00 0.  1.
         22    1    1    0    0    0 -0.18003585869E+01 -0.23044268544E+02 -0.16959731332E+02  0.28669009237E+02  0.00000000000E+00 0. -1.
</event>
<event>
 5    1  0.6903325E-004  0.9118800E+02  0.7818608E-02  0.1130116E+00
         25   -1    0    0    0    0  0.00000000000E+00  0.00000000000E+00  0.99999998245E-14  0.12500000000E+03  0.12500000000E+03 0.  0.
        -13    1    3    3    0    0  0.53033679582E+02 -0.62086352737E+01 -0.92735873216E+01  0.54195284922E+02  0.10566000000E+00 0.  1.
         23    2    1    0    0    0  0.12973574990E+02  0.12090339050E+02 -0.18693355883E+02  0.99233131728E+02  0.95829447103E+02 0.  0.
         13    1    3    3    0    0 -0.40060104592E+02  0.18298974323E+02 -0.94197685614E+01  0.45037846806E+02  0.10566000000E+00 0. -1.
         22    1    1    0    0    0 -0.12973574990E+02 -0.12090339050E+02  0.18693355883E+02  0.25766868272E+02  0.00000000000E+00 0.  1.
</event>
<event>
 5    1  0.6903325E-004  0.9118800E+02  0.7818608E-02  0.1130116E+00
         25   -1    0    0    0    0  0.00000000000E+00  0.00000000000E+00  0.99999998245E-14  0.12500000000E+03  0.12500000000E+03 0.  0.
        -13    1    3    3    0    0 -0.19502207315E+01  0.91355246428E+01  0.33883766204E+02  0.35148000620E+02  0.10566000000E+00 0. -1.
         23    2    1    0    0    0  0.13410813588E+02 -0.88213396023E+01 -0.23118945243E+02  0.96854812443E+02  0.92675256194E+02 0.  0.
         13    1    3    3    0    0  0.15361034320E+02 -0.17956864245E+02 -0.57002711447E+02  0.61706811822E+02  0.10566000000E+00 0.  1.
         22    1    1    0    0    0 -0.13410813588E+02  0.88213396023E+01  0.23118945243E+02  0.28145187557E+02  0.00000000000E+00 0.  1.
</event>
<event>
 5    1  0.6903325E-004  0.9118800E+02  0.7818608E-02  0.1130116E+00
         25   -1    0    0    0    0  0.00000000000E+00  0.00000000000E+00  0.99999998245E-14  0.12500000000E+03  0.12500000000E+03 0.  0.
        -13    1    3    3    0    0  0.14506107501E+02 -0.28418354434E+02 -0.28546545905E+02  0.42812924109E+02  0.10566000000E+00 0. -1.
         23    2    1    0    0    0  0.65029801327E+01 -0.46188433129E+00  0.22507221492E+02  0.10156760561E+03  0.98827634806E+02 0.  0.
         13    1    3    3    0    0 -0.80031273681E+01  0.27956470103E+02  0.51053767398E+02  0.58754681497E+02  0.10566000000E+00 0.  1.
         22    1    1    0    0    0 -0.65029801327E+01  0.46188433129E+00 -0.22507221492E+02  0.23432394394E+02  0.00000000000E+00 0.  1.
</event>
<event>
 5    1  0.6903325E-004  0.9118800E+02  0.7818608E-02  0.1130116E+00
         25   -1    0    0    0    0  0.00000000000E+00  0.00000000000E+00  0.99999998245E-14  0.12500000000E+03  0.12500000000E+03 0.  0.
        -13    1    3    3    0    0  0.54671838598E+02  0.22314744899E+02  0.71377659350E+01  0.59480388719E+02  0.10566000000E+00 0.  1.
         23    2    1    0    0    0  0.19441457434E+02  0.13373156120E+02  0.15487428049E+02  0.96774621360E+02  0.92567031605E+02 0.  0.
         13    1    3    3    0    0 -0.35230381164E+02 -0.89415887794E+01  0.83496621139E+01  0.37294232641E+02  0.10566000000E+00 0. -1.
         22    1    1    0    0    0 -0.19441457434E+02 -0.13373156120E+02 -0.15487428049E+02  0.28225378640E+02  0.00000000000E+00 0.  1.
</event>
<event>
 5    1  0.6903325E-004  0.9118800E+02  0.7818608E-02  0.1130116E+00
         25   -1    0    0    0    0  0.00000000000E+00  0.00000000000E+00  0.99999998245E-14  0.12500000000E+03  0.12500000000E+03 0.  0.
        -13    1    3    3    0    0 -0.25876527485E+00 -0.44667474938E+02  0.47753892258E+01  0.44922887075E+02  0.10566000000E+00 0. -1.
         23    2    1    0    0    0 -0.20015637230E+02 -0.29241759848E+02 -0.23323537812E+02  0.82577203430E+02  0.70847024338E+02 0.  0.
         13    1    3    3    0    0 -0.19756871955E+02  0.15425715090E+02 -0.28098927038E+02  0.37654316355E+02  0.10566000000E+00 0.  1.
         22    1    1    0    0    0  0.20015637230E+02  0.29241759848E+02  0.23323537812E+02  0.42422796570E+02  0.00000000000E+00 0. -1.
</event>
<event>
 5    1  0.6903325E-004  0.9118800E+02  0.7818608E-02  0.1130116E+00
         25   -1    0    0    0    0  0.00000000000E+00  0.00000000000E+00  0.99999998245E-14  0.12500000000E+03  0.12500000000E+03 0.  0.
        -13    1    3    3    0    0 -0.57764338755E+01  0.22568134014E+02  0.42273727717E+02  0.48267660812E+02  0.10566000000E+00 0.  1.
         23    2    1    0    0    0 -0.29864958220E+02 -0.14142181101E+01  0.17192231519E+02  0.90511037028E+02  0.83682490743E+02 0.  0.
         13    1    3    3    0    0 -0.24088524344E+02 -0.23982352124E+02 -0.25081496198E+02  0.42243376215E+02  0.10566000000E+00 0. -1.
         22    1    1    0    0    0  0.29864958220E+02  0.14142181101E+01 -0.17192231519E+02  0.34488962972E+02  0.00000000000E+00 0.  1.
</event>
<event>
 5    1  0.6903325E-004  0.9118800E+02  0.7818608E-02  0.1130116E+00
         25   -1    0    0    0    0  0.00000000000E+00  0.00000000000E+00  0.99999998245E-14  0.12500000000E+03  0.12500000000E+03 0.  0.
        -13    1    3    3    0    0 -0.58206208980E+01 -0.26493000585E+02  0.51614985430E+02  0.58308460729E+02  0.10566000000E+00 0. -1.
         23    2    1    0    0    0 -0.17975351084E+02 -0.16413451072E+02  0.20601274829E+02  0.93110704817E+02  0.87479575926E+02 0.  0.
         13    1    3    3    0    0 -0.12154730186E+02  0.10079549513E+02 -0.31013710601E+02  0.34802244088E+02  0.10566000000E+00 0.  1.
         22    1    1    0    0    0  0.17975351084E+02  0.16413451072E+02 -0.20601274829E+02  0.31889295183E+02  0.00000000000E+00 0. -1.
</event>
<event>
 5    1  0.6903325E-004  0.9118800E+02  0.7818608E-02  0.1130116E+00
         25   -1    0    0    0    0  0.00000000000E+00  0.00000000000E+00  0.99999998245E-14  0.12500000000E+03  0.12500000000E+03 0.  0.
        -13    1    3    3    0    0  0.45429296914E+02 -0.24737874959E+02 -0.31195666537E+02  0.60406657334E+02  0.10566000000E+00 0. -1.
         23    2    1    0    0    0  0.13958246054E+02 -0.13630288636E+02 -0.23129098869E+02  0.94741569510E+02  0.89779688000E+02 0.  0.
         13    1    3    3    0    0 -0.31471050860E+02  0.11107586323E+02  0.80665676675E+01  0.34334912175E+02  0.10566000000E+00 0.  1.
         22    1    1    0    0    0 -0.13958246054E+02  0.13630288636E+02  0.23129098869E+02  0.30258430490E+02  0.00000000000E+00 0. -1.
</event>
<event>
 5    1  0.6903325E-004  0.9118800E+02  0.7818608E-02  0.1130116E+00
         25   -1    0    0    0    0  0.00000000000E+00  0.00000000000E+00  0.99999998245E-14  0.12500000000E+03  0.12500000000E+03 0.  0.
        -13    1    3    3    0    0 -0.35312080949E+02 -0.28691904707E+02  0.77536378468E+01  0.46155157031E+02  0.10566000000E+00 0. -1.
         23    2    1    0    0    0  0.13721525984E+02 -0.25947352706E+02  0.29628064719E+01  0.95498752400E+02  0.90827793653E+02 0.  0.
         13    1    3    3    0    0  0.49033606933E+02  0.27445520010E+01 -0.47908313749E+01  0.49343595368E+02  0.10566000000E+00 0.  1.
         22    1    1    0    0    0 -0.13721525984E+02  0.25947352706E+02 -0.29628064719E+01  0.29501247600E+02  0.00000000000E+00 0.  1.
</event>
<event>
 5    1  0.6903325E-004  0.9118800E+02  0.7818608E-02  0.1130116E+00
         25   -1    0    0    0    0  0.00000000000E+00  0.00000000000E+00  0.99999998245E-14  0.12500000000E+03  0.12500000000E+03 0.  0.
        -13    1    3    3    0    0 -0.47321989771E+01 -0.34771444073E+02  0.50179897636E+02  0.61233000260E+02  0.10566000000E+00 0.  1.
         23    2    1    0    0    0 -0.35842986483E+00 -0.84302930690E+01  0.27394952666E+02  0.96335008377E+02  0.91971474351E+02 0.  0.
         13    1    3    3    0    0  0.43737691123E+01  0.26341151004E+02 -0.22784944970E+02  0.35102008117E+02  0.10566000000E+00 0. -1.
         22    1    1    0    0    0  0.35842986483E+00  0.84302930690E+01 -0.27394952666E+02  0.28664991623E+02  0.00000000000E+00 0.  1.
</event>
<event>
 5    1  0.6903325E-004  0.9118800E+02  0.7818608E-02  0.1130116E+00
         25   -1    0    0    0    0  0.00000000000E+00  0.00000000000E+00  0.99999998245E-14  0.12500000000E+03  0.12500000000E+03 0.  0.
        -13    1    3    3    0    0  0.11501763037E+02  0.34036052710E+01 -0.48077569198E+02  0.49551376428E+02  0.10566000000E+00 0. -1.
         23    2    1    0    0    0  0.74783531765E+01  0.26818029698E+02 -0.81883655830E+01  0.95979631050E+02  0.91487199992E+02 0.  0.
         13    1    3    3    0    0 -0.40234098607E+01  0.23414424427E+02  0.39889203615E+02  0.46428254622E+02  0.10566000000E+00 0.  1.
         22    1    1    0    0    0 -0.74783531765E+01 -0.26818029698E+02  0.81883655830E+01  0.29020368950E+02  0.00000000000E+00 0.  1.
</event>
<event>
 5    1  0.6903325E-004  0.9118800E+02  0.7818608E-02  0.1130116E+00
         25   -1    0    0    0    0  0.00000000000E+00  0.00000000000E+00  0.99999998245E-14  0.12500000000E+03  0.12500000000E+03 0.  0.
        -13    1    3    3    0    0  0.47015301153E+02  0.32360857719E+02  0.17463583221E+02  0.59687951529E+02  0.10566000000E+00 0.  1.
         23    2    1    0    0    0  0.15876108862E+02  0.25930232178E+02  0.35720444847E+01  0.94386485416E+02  0.89283936707E+02 0.  0.
         13    1    3    3    0    0 -0.31139192291E+02 -0.64306255405E+01 -0.13891538737E+02  0.34698533887E+02  0.10566000000E+00 0. -1.
         22    1    1    0    0    0 -0.15876108862E+02 -0.25930232178E+02 -0.35720444847E+01  0.30613514584E+02  0.00000000000E+00 0.  1.
</event>
<event>
 5    1  0.6903325E-004  0.9118800E+02  0.7818608E-02  0.1130116E+00
         25   -1    0    0    0    0  0.00000000000E+00  0.00000000000E+00  0.99999998245E-14  0.12500000000E+03  0.12500000000E+03 0.  0.
        -13    1    3    3    0    0 -0.21725571532E+02  0.57173618967E+01 -0.14535644380E+01  0.22512500951E+02  0.10566000000E+00 0. -1.
         23    2    1    0    0    0  0.12236041912E+02 -0.11679370723E+02  0.41630042197E+02  0.80064614885E+02  0.66265780922E+02 0.  0.
         13    1    3    3    0    0  0.33961613444E+02 -0.17396732620E+02  0.43083606635E+02  0.57552113934E+02  0.10566000000E+00 0.  1.
         22    1    1    0    0    0 -0.12236041912E+02  0.11679370723E+02 -0.41630042197E+02  0.44935385115E+02  0.00000000000E+00 0.  1.
</event>
<event>
 5    1  0.6903325E-004  0.9118800E+02  0.7818608E-02  0.1130116E+00
         25   -1    0    0    0    0  0.00000000000E+00  0.00000000000E+00  0.99999998245E-14  0.12500000000E+03  0.12500000000E+03 0.  0.
        -13    1    3    3    0    0 -0.37198416108E+02 -0.35543054318E+02 -0.19754773369E+02  0.55111642201E+02  0.10566000000E+00 0. -1.
         23    2    1    0    0    0 -0.28800911270E+02  0.81792483893E+00 -0.29570374144E+01  0.96036133523E+02  0.91564367418E+02 0.  0.
         13    1    3    3    0    0  0.83975048375E+01  0.36360979157E+02  0.16797735954E+02  0.40924491322E+02  0.10566000000E+00 0.  1.
         22    1    1    0    0    0  0.28800911270E+02 -0.81792483893E+00  0.29570374144E+01  0.28963866477E+02  0.00000000000E+00 0. -1.
</event>
<event>
 5    1  0.6903325E-004  0.9118800E+02  0.7818608E-02  0.1130116E+00
         25   -1    0    0    0    0  0.00000000000E+00  0.00000000000E+00  0.99999998245E-14  0.12500000000E+03  0.12500000000E+03 0.  0.
        -13    1    3    3    0    0  0.40325428847E+02  0.35702217677E+01 -0.69717154899E+01  0.41079224385E+02  0.10566000000E+00 0. -1.
         23    2    1    0    0    0 -0.99335350179E+01  0.26513966270E+02 -0.75603145035E+00  0.96676209489E+02  0.92434043363E+02 0.  0.
         13    1    3    3    0    0 -0.50258963865E+02  0.22943744503E+02  0.62156840395E+01  0.55596985104E+02  0.10566000000E+00 0.  1.
         22    1    1    0    0    0  0.99335350179E+01 -0.26513966270E+02  0.75603145035E+00  0.28323790511E+02  0.00000000000E+00 0.  1.
</event>
<event>
 5    1  0.6903325E-004  0.9118800E+02  0.7818608E-02  0.1130116E+00
         25   -1    0    0    0    0  0.00000000000E+00  0.00000000000E+00  0.99999998245E-14  0.12500000000E+03  0.12500000000E+03 0.  0.
        -13    1    3    3    0    0 -0.18413283445E+02  0.21304051104E+02 -0.34383605592E+02  0.44442717043E+02  0.10566000000E+00 0. -1.
         23    2    1    0    0    0 -0.73594932207E+01 -0.13325328074E+02  0.13563238774E+02  0.10461157302E+03  0.10260552253E+03 0.  0.
         13    1    3    3    0    0  0.11053790224E+02 -0.34629379178E+02  0.47946844366E+02  0.60168855975E+02  0.10566000000E+00 0.  1.
         22    1    1    0    0    0  0.73594932207E+01  0.13325328074E+02 -0.13563238774E+02  0.20388426982E+02  0.00000000000E+00 0.  1.
</event>
<event>
 5    1  0.6903325E-004  0.9118800E+02  0.7818608E-02  0.1130116E+00
         25   -1    0    0    0    0  0.00000000000E+00  0.00000000000E+00  0.99999998245E-14  0.12500000000E+03  0.12500000000E+03 0.  0.
        -13    1    3    3    0    0 -0.62855650908E+01  0.40562593883E+01 -0.37706142039E+02  0.38441200296E+02  0.10566000000E+00 0. -1.
         23    2    1    0    0    0 -0.10773457573E+02 -0.27385538048E+02  0.83710394132E+01  0.94404095321E+02  0.89308587662E+02 0.  0.
         13    1    3    3    0    0 -0.44878924825E+01 -0.31441797437E+02  0.46077181452E+02  0.55962895025E+02  0.10566000000E+00 0.  1.
         22    1    1    0    0    0  0.10773457573E+02  0.27385538048E+02 -0.83710394132E+01  0.30595904679E+02  0.00000000000E+00 0.  1.
</event>
<event>
 5    1  0.6903325E-004  0.9118800E+02  0.7818608E-02  0.1130116E+00
         25   -1    0    0    0    0  0.00000000000E+00  0.00000000000E+00  0.99999998245E-14  0.12500000000E+03  0.12500000000E+03 0.  0.
        -13    1    3    3    0    0 -0.25468338988E+02  0.44229921997E+02  0.14992358582E+02  0.53194964711E+02  0.10566000000E+00 0.  1.
         23    2    1    0    0    0 -0.34242426053E+01  0.24750088706E+02 -0.15525751892E+02  0.95583315956E+02  0.90944098153E+02 0.  0.
         13    1    3    3    0    0  0.22044096382E+02 -0.19479833292E+02 -0.30518110473E+02  0.42388351245E+02  0.10566000000E+00 0. -1.
         22    1    1    0    0    0  0.34242426053E+01 -0.24750088706E+02  0.15525751892E+02  0.29416684044E+02  0.00000000000E+00 0.  1.
</event>
<event>
 5    1  0.6903325E-004  0.9118800E+02  0.7818608E-02  0.1130116E+00
         25   -1    0    0    0    0  0.00000000000E+00  0.00000000000E+00  0.99999998245E-14  0.12500000000E+03  0.12500000000E+03 0.  0.
        -13    1    3    3    0    0  0.16028535530E+02  0.15684653300E+02 -0.32551510547E+02  0.39528904656E+02  0.10566000000E+00 0. -1.
         23    2    1    0    0    0  0.16760196948E+02 -0.15785682152E+02  0.15694235677E+02  0.97136026913E+02  0.93053784062E+02 0.  0.
         13    1    3    3    0    0  0.73166141744E+00 -0.31470335452E+02  0.48245746224E+02  0.57607122256E+02  0.10566000000E+00 0.  1.
         22    1    1    0    0    0 -0.16760196948E+02  0.15785682152E+02 -0.15694235677E+02  0.27863973087E+02  0.00000000000E+00 0.  1.
</event>
<event>
 5    1  0.6903325E-004  0.9118800E+02  0.7818608E-02  0.1130116E+00
         25   -1    0    0    0    0  0.00000000000E+00  0.00000000000E+00  0.99999998245E-14  0.12500000000E+03  0.12500000000E+03 0.  0.
        -13    1    3    3    0    0  0.25859258638E+02 -0.28269462039E+02 -0.17363852892E+02  0.42063978563E+02  0.10566000000E+00 0. -1.
         23    2    1    0    0    0 -0.20799109204E+02 -0.46699566878E+00 -0.19590785418E+02  0.96423437891E+02  0.92091581987E+02 0.  0.
         13    1    3    3    0    0 -0.46658367842E+02  0.27802466370E+02 -0.22269325265E+01  0.54359459328E+02  0.10566000000E+00 0.  1.
         22    1    1    0    0    0  0.20799109204E+02  0.46699566878E+00  0.19590785418E+02  0.28576562109E+02  0.00000000000E+00 0.  1.
</event>
<event>
 5    1  0.6903325E-004  0.9118800E+02  0.7818608E-02  0.1130116E+00
         25   -1    0    0    0    0  0.00000000000E+00  0.00000000000E+00  0.99999998245E-14  0.12500000000E+03  0.12500000000E+03 0.  0.
        -13    1    3    3    0    0 -0.48532348877E+02  0.38461359831E+02  0.48103139759E+01  0.62111314365E+02  0.10566000000E+00 0. -1.
         23    2    1    0    0    0 -0.26465644629E+02  0.15217068609E+02  0.36109948331E+00  0.94469361037E+02  0.89399889593E+02 0.  0.
         13    1    3    3    0    0  0.22066704248E+02 -0.23244291222E+02 -0.44492144926E+01  0.32358046672E+02  0.10566000000E+00 0.  1.
         22    1    1    0    0    0  0.26465644629E+02 -0.15217068609E+02 -0.36109948331E+00  0.30530638963E+02  0.00000000000E+00 0. -1.
</event>
<event>
 5    1  0.6903325E-004  0.9118800E+02  0.7818608E-02  0.1130116E+00
         25   -1    0    0    0    0  0.00000000000E+00  0.00000000000E+00  0.99999998245E-14  0.12500000000E+03  0.12500000000E+03 0.  0.
        -13    1    3    3    0    0  0.42763351454E+01  0.39742437208E+02 -0.29589354876E+01  0.40081352532E+02  0.10566000000E+00 0.  1.
         23    2    1    0    0    0 -0.26255942466E+02 -0.73443192332E+01  0.64488729892E+01  0.96983906365E+02  0.92849214273E+02 0.  0.
         13    1    3    3    0    0 -0.30532277611E+02 -0.47086756442E+02  0.94078084768E+01  0.56902553833E+02  0.10566000000E+00 0. -1.
         22    1    1    0    0    0  0.26255942466E+02  0.73443192332E+01 -0.64488729892E+01  0.28016093635E+02  0.00000000000E+00 0. -1.
</event>
<event>
 5    1  0.6903325E-004  0.9118800E+02  0.7818608E-02  0.1130116E+00
         25   -1    0    0    0    0  0.00000000000E+00  0.00000000000E+00  0.99999998245E-14  0.12500000000E+03  0.12500000000E+03 0.  0.
        -13    1    3    3    0    0  0.38161545340E+02  0.96256466086E+01  0.11239884028E+02  0.40930462645E+02  0.10566000000E+00 0. -1.
         23    2    1    0    0    0  0.87720950271E-01  0.39926773948E+01 -0.28481419112E+02  0.96239951280E+02  0.91842189760E+02 0.  0.
         13    1    3    3    0    0 -0.38073824390E+02 -0.56329692138E+01 -0.39721303140E+02  0.55309488635E+02  0.10566000000E+00 0.  1.
         22    1    1    0    0    0 -0.87720950271E-01 -0.39926773948E+01  0.28481419112E+02  0.28760048720E+02  0.00000000000E+00 0.  1.
</event>
<event>
 5    1  0.6903325E-004  0.9118800E+02  0.7818608E-02  0.1130116E+00
         25   -1    0    0    0    0  0.00000000000E+00  0.00000000000E+00  0.99999998245E-14  0.12500000000E+03  0.12500000000E+03 0.  0.
        -13    1    3    3    0    0 -0.11707415272E+02 -0.35560374685E+02 -0.44973785660E+02  0.58517146040E+02  0.10566000000E+00 0. -1.
         23    2    1    0    0    0 -0.60660659658E+01 -0.26585519897E+02 -0.85955673258E+01  0.96408553690E+02  0.92071376781E+02 0.  0.
         13    1    3    3    0    0  0.56413493060E+01  0.89748547881E+01  0.36378218334E+02  0.37891407649E+02  0.10566000000E+00 0.  1.
         22    1    1    0    0    0  0.60660659658E+01  0.26585519897E+02  0.85955673258E+01  0.28591446310E+02  0.00000000000E+00 0. -1.
</event>
<event>
 5    1  0.6903325E-004  0.9118800E+02  0.7818608E-02  0.1130116E+00
         25   -1    0    0    0    0  0.00000000000E+00  0.00000000000E+00  0.99999998245E-14  0.12500000000E+03  0.12500000000E+03 0.  0.
        -13    1    3    3    0    0 -0.38346624923E+01 -0.13240592928E+02  0.35005539973E+02  0.37622027196E+02  0.10566000000E+00 0.  1.
         23    2    1    0    0    0 -0.18731312543E+01  0.25989655064E+02 -0.97579943861E+01  0.97175743577E+02  0.93107120534E+02 0.  0.
         13    1    3    3    0    0  0.19615312380E+01  0.39230247992E+02 -0.44763534359E+02  0.59553716380E+02  0.10566000000E+00 0. -1.
         22    1    1    0    0    0  0.18731312543E+01 -0.25989655064E+02  0.97579943861E+01  0.27824256423E+02  0.00000000000E+00 0. -1.
</event>
<event>
 5    1  0.6903325E-004  0.9118800E+02  0.7818608E-02  0.1130116E+00
         25   -1    0    0    0    0  0.00000000000E+00  0.00000000000E+00  0.99999998245E-14  0.12500000000E+03  0.12500000000E+03 0.  0.
        -13    1    3    3    0    0 -0.42667743751E+01 -0.22015074112E+02 -0.35303167299E+02  0.41823362336E+02  0.10566000000E+00 0. -1.
         23    2    1    0    0    0 -0.17138561707E+02  0.22754697365E+02 -0.10187175756E+02  0.94746320894E+02  0.89786303095E+02 0.  0.
         13    1    3    3    0    0 -0.12871787332E+02  0.44769771477E+02  0.25115991543E+02  0.52922958558E+02  0.10566000000E+00 0.  1.
         22    1    1    0    0    0  0.17138561707E+02 -0.22754697365E+02  0.10187175756E+02  0.30253679106E+02  0.00000000000E+00 0.  1.
</event>
<event>
 5    1  0.6903325E-004  0.9118800E+02  0.7818608E-02  0.1130116E+00
         25   -1    0    0    0    0  0.00000000000E+00  0.00000000000E+00  0.99999998245E-14  0.12500000000E+03  0.12500000000E+03 0.  0.
        -13    1    3    3    0    0 -0.39694944151E+01 -0.39632559133E+02 -0.39463166601E+02  0.56070039340E+02  0.10566000000E+00 0. -1.
         23    2    1    0    0    0 -0.13405202996E+02 -0.33509616612E+01 -0.25352806359E+02  0.96126254110E+02  0.91687313886E+02 0.  0.
         13    1    3    3    0    0 -0.94357085805E+01  0.36281597472E+02  0.14110360242E+02  0.40056214770E+02  0.10566000000E+00 0.  1.
         22    1    1    0    0    0  0.13405202996E+02  0.33509616612E+01  0.25352806359E+02  0.28873745890E+02  0.00000000000E+00 0. -1.
</event>
<event>
 5    1  0.6903325E-004  0.9118800E+02  0.7818608E-02  0.1130116E+00
         25   -1    0    0    0    0  0.00000000000E+00  0.00000000000E+00  0.99999998245E-14  0.12500000000E+03  0.12500000000E+03 0.  0.
        -13    1    3    3    0    0 -0.28019462100E+01 -0.45798116769E+01  0.35070288220E+02  0.35479034055E+02  0.10566000000E+00 0. -1.
         23    2    1    0    0    0  0.18621671182E+02 -0.18189560173E+02 -0.17347185715E+02  0.93718190763E+02  0.88343351141E+02 0.  0.
         13    1    3    3    0    0  0.21423617392E+02 -0.13609748496E+02 -0.52417473936E+02  0.58239156708E+02  0.10566000000E+00 0.  1.
         22    1    1    0    0    0 -0.18621671182E+02  0.18189560173E+02  0.17347185715E+02  0.31281809237E+02  0.00000000000E+00 0.  1.
</event>
<event>
 5    1  0.6903325E-004  0.9118800E+02  0.7818608E-02  0.1130116E+00
         25   -1    0    0    0    0  0.00000000000E+00  0.00000000000E+00  0.99999998245E-14  0.12500000000E+03  0.12500000000E+03 0.  0.
        -13    1    3    3    0    0 -0.46591026314E+01 -0.52709600808E+02  0.10651807416E+02  0.53976674777E+02  0.10566000000E+00 0. -1.
         23    2    1    0    0    0 -0.17921165194E+02 -0.11732620938E+02  0.17183866047E+02  0.97538976561E+02  0.93593504797E+02 0.  0.
         13    1    3    3    0    0 -0.13262062563E+02  0.40976979871E+02  0.65320586317E+01  0.43562301784E+02  0.10566000000E+00 0.  1.
         22    1    1    0    0    0  0.17921165194E+02  0.11732620938E+02 -0.17183866047E+02  0.27461023439E+02  0.00000000000E+00 0. -1.
</event>
<event>
 5    1  0.6903325E-004  0.9118800E+02  0.7818608E-02  0.1130116E+00
         25   -1    0    0    0    0  0.00000000000E+00  0.00000000000E+00  0.99999998245E-14  0.12500000000E+03  0.12500000000E+03 0.  0.
        -13    1    3    3    0    0 -0.10404443403E+01 -0.65795231660E+01 -0.48481017066E+02  0.48936620534E+02  0.10566000000E+00 0.  1.
         23    2    1    0    0    0 -0.11635740822E+02  0.23362161845E+02 -0.15891949148E+02  0.94442920325E+02  0.89362912225E+02 0.  0.
         13    1    3    3    0    0 -0.10595296482E+02  0.29941685011E+02  0.32589067918E+02  0.45506299791E+02  0.10566000000E+00 0. -1.
         22    1    1    0    0    0  0.11635740822E+02 -0.23362161845E+02  0.15891949148E+02  0.30557079675E+02  0.00000000000E+00 0.  1.
</event>
<event>
 5    1  0.6903325E-004  0.9118800E+02  0.7818608E-02  0.1130116E+00
         25   -1    0    0    0    0  0.00000000000E+00  0.00000000000E+00  0.99999998245E-14  0.12500000000E+03  0.12500000000E+03 0.  0.
        -13    1    3    3    0    0  0.18804833394E+02  0.30444676548E+02  0.13978506685E+01  0.35811523838E+02  0.10566000000E+00 0. -1.
         23    2    1    0    0    0 -0.24924840859E+02 -0.11124846963E+02  0.81275899211E+01  0.96520750892E+02  0.92223574660E+02 0.  0.
         13    1    3    3    0    0 -0.43729674253E+02 -0.41569523510E+02  0.67297392526E+01  0.60709227055E+02  0.10566000000E+00 0.  1.
         22    1    1    0    0    0  0.24924840859E+02  0.11124846963E+02 -0.81275899211E+01  0.28479249108E+02  0.00000000000E+00 0.  1.
</event>
<event>
 5    1  0.6903325E-004  0.9118800E+02  0.7818608E-02  0.1130116E+00
         25   -1    0    0    0    0  0.00000000000E+00  0.00000000000E+00  0.99999998245E-14  0.12500000000E+03  0.12500000000E+03 0.  0.
        -13    1    3    3    0    0  0.13924861688E+02 -0.11958163855E+02 -0.33192763679E+02  0.37929805964E+02  0.10566000000E+00 0.  1.
         23    2    1    0    0    0  0.28471186238E+01  0.27897827261E+02  0.75155048221E+01  0.95967644548E+02  0.91470821233E+02 0.  0.
         13    1    3    3    0    0 -0.11077743064E+02  0.39855991116E+02  0.40708268501E+02  0.58037838585E+02  0.10566000000E+00 0. -1.
         22    1    1    0    0    0 -0.28471186238E+01 -0.27897827261E+02 -0.75155048221E+01  0.29032355452E+02  0.00000000000E+00 0. -1.
</event>
<event>
 5    1  0.6903325E-004  0.9118800E+02  0.7818608E-02  0.1130116E+00
         25   -1    0    0    0    0  0.00000000000E+00  0.00000000000E+00  0.99999998245E-14  0.12500000000E+03  0.12500000000E+03 0.  0.
        -13    1    3    3    0    0 -0.19422870508E+01 -0.39800606085E+02  0.26441346980E+02  0.47822763595E+02  0.10566000000E+00 0.  1.
         23    2    1    0    0    0  0.15303399180E+02 -0.20731643941E+02 -0.13946382472E+02  0.95699886161E+02  0.91104179598E+02 0.  0.
         13    1    3    3    0    0  0.17245686230E+02  0.19068962144E+02 -0.40387729452E+02  0.47877122566E+02  0.10566000000E+00 0. -1.
         22    1    1    0    0    0 -0.15303399180E+02  0.20731643941E+02  0.13946382472E+02  0.29300113839E+02  0.00000000000E+00 0. -1.
</event>
<event>
 5    1  0.6903325E-004  0.9118800E+02  0.7818608E-02  0.1130116E+00
         25   -1    0    0    0    0  0.00000000000E+00  0.00000000000E+00  0.99999998245E-14  0.12500000000E+03  0.12500000000E+03 0.  0.
        -13    1    3    3    0    0  0.13541561314E+02 -0.52530851405E+02  0.29777641147E+02  0.61883627143E+02  0.10566000000E+00 0. -1.
         23    2    1    0    0    0  0.11762854676E+02 -0.21044643958E+02  0.13315643376E+02  0.97458247187E+02  0.93485623477E+02 0.  0.
         13    1    3    3    0    0 -0.17787066385E+01  0.31486207446E+02 -0.16461997771E+02  0.35574620044E+02  0.10566000000E+00 0.  1.
         22    1    1    0    0    0 -0.11762854676E+02  0.21044643958E+02 -0.13315643376E+02  0.27541752813E+02  0.00000000000E+00 0. -1.
</event>
<event>
 5    1  0.6903325E-004  0.9118800E+02  0.7818608E-02  0.1130116E+00
         25   -1    0    0    0    0  0.00000000000E+00  0.00000000000E+00  0.99999998245E-14  0.12500000000E+03  0.12500000000E+03 0.  0.
        -13    1    3    3    0    0  0.47137460285E+02 -0.15728674974E+02  0.24062190359E+02  0.55211697560E+02  0.10566000000E+00 0.  1.
         23    2    1    0    0    0  0.19819171109E+02 -0.17357642621E+02 -0.80960648870E+01  0.97438549250E+02  0.93459281575E+02 0.  0.
         13    1    3    3    0    0 -0.27318289176E+02 -0.16289676469E+01 -0.32158255246E+02  0.42226851690E+02  0.10566000000E+00 0. -1.
         22    1    1    0    0    0 -0.19819171109E+02  0.17357642621E+02  0.80960648870E+01  0.27561450750E+02  0.00000000000E+00 0. -1.
</event>
<event>
 5    1  0.6903325E-004  0.9118800E+02  0.7818608E-02  0.1130116E+00
         25   -1    0    0    0    0  0.00000000000E+00  0.00000000000E+00  0.99999998245E-14  0.12500000000E+03  0.12500000000E+03 0.  0.
        -13    1    3    3    0    0 -0.26588393046E+02  0.29843402333E+02  0.36082288639E+02  0.53847135718E+02  0.10566000000E+00 0.  1.
         23    2    1    0    0    0  0.92823898966E+01  0.69145084206E+01  0.24399935948E+02  0.97993888411E+02  0.94199108821E+02 0.  0.
         13    1    3    3    0    0  0.35870782942E+02 -0.22928893912E+02 -0.11682352691E+02  0.44146752693E+02  0.10566000000E+00 0. -1.
         22    1    1    0    0    0 -0.92823898966E+01 -0.69145084206E+01 -0.24399935948E+02  0.27006111589E+02  0.00000000000E+00 0. -1.
</event>
<event>
 5    1  0.6903325E-004  0.9118800E+02  0.7818608E-02  0.1130116E+00
         25   -1    0    0    0    0  0.00000000000E+00  0.00000000000E+00  0.99999998245E-14  0.12500000000E+03  0.12500000000E+03 0.  0.
        -13    1    3    3    0    0 -0.13722261211E+02  0.41689883927E+02  0.34714019618E+02  0.55959102894E+02  0.10566000000E+00 0.  1.
         23    2    1    0    0    0  0.10287403976E+02  0.27227056365E+02  0.76871076332E+01  0.94896264308E+02  0.89994811389E+02 0.  0.
         13    1    3    3    0    0  0.24009665187E+02 -0.14462827562E+02 -0.27026911985E+02  0.38937161414E+02  0.10566000000E+00 0. -1.
         22    1    1    0    0    0 -0.10287403976E+02 -0.27227056365E+02 -0.76871076332E+01  0.30103735692E+02  0.00000000000E+00 0.  1.
</event>
<event>
 5    1  0.6903325E-004  0.9118800E+02  0.7818608E-02  0.1130116E+00
         25   -1    0    0    0    0  0.00000000000E+00  0.00000000000E+00  0.99999998245E-14  0.12500000000E+03  0.12500000000E+03 0.  0.
        -13    1    3    3    0    0 -0.29630639208E+02 -0.73277094927E+01  0.28528091089E+02  0.41779579360E+02  0.10566000000E+00 0. -1.
         23    2    1    0    0    0 -0.74893122484E+01 -0.92539123540E+01 -0.23665890637E+02  0.98508509452E+02  0.94879541330E+02 0.  0.
         13    1    3    3    0    0  0.22141326959E+02 -0.19262028613E+01 -0.52193981726E+02  0.56728930092E+02  0.10566000000E+00 0.  1.
         22    1    1    0    0    0  0.74893122484E+01  0.92539123540E+01  0.23665890637E+02  0.26491490548E+02  0.00000000000E+00 0.  1.
</event>
<event>
 5    1  0.6903325E-004  0.9118800E+02  0.7818608E-02  0.1130116E+00
         25   -1    0    0    0    0  0.00000000000E+00  0.00000000000E+00  0.99999998245E-14  0.12500000000E+03  0.12500000000E+03 0.  0.
        -13    1    3    3    0    0  0.41186935587E+02  0.37424796826E+02 -0.12712765873E+02  0.57084189236E+02  0.10566000000E+00 0. -1.
         23    2    1    0    0    0  0.18809360049E+02  0.62776414316E+01 -0.20781179016E+02  0.96276173502E+02  0.91891476077E+02 0.  0.
         13    1    3    3    0    0 -0.22377575538E+02 -0.31147155394E+02 -0.80684131420E+01  0.39191984267E+02  0.10566000000E+00 0.  1.
         22    1    1    0    0    0 -0.18809360049E+02 -0.62776414316E+01  0.20781179016E+02  0.28723826498E+02  0.00000000000E+00 0. -1.
</event>
<event>
 5    1  0.6903325E-004  0.9118800E+02  0.7818608E-02  0.1130116E+00
         25   -1    0    0    0    0  0.00000000000E+00  0.00000000000E+00  0.99999998245E-14  0.12500000000E+03  0.12500000000E+03 0.  0.
        -13    1    3    3    0    0 -0.18866425255E+02 -0.22703269151E+02 -0.26715844168E+02  0.39813665062E+02  0.10566000000E+00 0.  1.
         23    2    1    0    0    0  0.63189215248E+01  0.25623946645E+02 -0.85272623439E+01  0.97265011016E+02  0.93226888578E+02 0.  0.
         13    1    3    3    0    0  0.25185346780E+02  0.48327215796E+02  0.18188581824E+02  0.57451345953E+02  0.10566000000E+00 0. -1.
         22    1    1    0    0    0 -0.63189215248E+01 -0.25623946645E+02  0.85272623439E+01  0.27734988984E+02  0.00000000000E+00 0. -1.
</event>
<event>
 5    1  0.6903325E-004  0.9118800E+02  0.7818608E-02  0.1130116E+00
         25   -1    0    0    0    0  0.00000000000E+00  0.00000000000E+00  0.99999998245E-14  0.12500000000E+03  0.12500000000E+03 0.  0.
        -13    1    3    3    0    0  0.36768850119E+02  0.18708048395E+02 -0.21294957324E+02  0.46426563358E+02  0.10566000000E+00 0.  1.
         23    2    1    0    0    0  0.14659128571E+02 -0.23664412967E+02 -0.75840784159E+01  0.96148436144E+02  0.91717550316E+02 0.  0.
         13    1    3    3    0    0 -0.22109721548E+02 -0.42372461362E+02  0.13710878908E+02  0.49721872785E+02  0.10566000000E+00 0. -1.
         22    1    1    0    0    0 -0.14659128571E+02  0.23664412967E+02  0.75840784159E+01  0.28851563856E+02  0.00000000000E+00 0. -1.
</event>
<event>
 5    1  0.6903325E-004  0.9118800E+02  0.7818608E-02  0.1130116E+00
         25   -1    0    0    0    0  0.00000000000E+00  0.00000000000E+00  0.99999998245E-14  0.12500000000E+03  0.12500000000E+03 0.  0.
        -13    1    3    3    0    0 -0.26571498377E+01 -0.35759721228E+02  0.38706581836E+02  0.52763896265E+02  0.10566000000E+00 0. -1.
         23    2    1    0    0    0  0.20768254453E+02 -0.19584992948E+02  0.65477894996E+01  0.95712359447E+02  0.91121292033E+02 0.  0.
         13    1    3    3    0    0  0.23425404291E+02  0.16174728280E+02 -0.32158792337E+02  0.42948463182E+02  0.10566000000E+00 0.  1.
         22    1    1    0    0    0 -0.20768254453E+02  0.19584992948E+02 -0.65477894996E+01  0.29287640553E+02  0.00000000000E+00 0.  1.
</event>
<event>
 5    1  0.6903325E-004  0.9118800E+02  0.7818608E-02  0.1130116E+00
         25   -1    0    0    0    0  0.00000000000E+00  0.00000000000E+00  0.99999998245E-14  0.12500000000E+03  0.12500000000E+03 0.  0.
        -13    1    3    3    0    0 -0.27994088509E+02  0.22388550779E+01 -0.19654185190E+02  0.34277975772E+02  0.10566000000E+00 0. -1.
         23    2    1    0    0    0  0.23865676105E+02  0.12352865772E+02  0.11670078729E+02  0.95702311929E+02  0.91107507826E+02 0.  0.
         13    1    3    3    0    0  0.51859764614E+02  0.10114010694E+02  0.31324263919E+02  0.61424336157E+02  0.10566000000E+00 0.  1.
         22    1    1    0    0    0 -0.23865676105E+02 -0.12352865772E+02 -0.11670078729E+02  0.29297688071E+02  0.00000000000E+00 0.  1.
</event>
<event>
 5    1  0.6903325E-004  0.9118800E+02  0.7818608E-02  0.1130116E+00
         25   -1    0    0    0    0  0.00000000000E+00  0.00000000000E+00  0.99999998245E-14  0.12500000000E+03  0.12500000000E+03 0.  0.
        -13    1    3    3    0    0  0.84340994935E+01 -0.50201616230E+02 -0.35458125155E+02  0.62037296120E+02  0.10566000000E+00 0. -1.
         23    2    1    0    0    0 -0.11733611200E+00 -0.22122504195E+02 -0.19827702882E+02  0.95292143107E+02  0.90543005123E+02 0.  0.
         13    1    3    3    0    0 -0.85514356055E+01  0.28079112035E+02  0.15630422273E+02  0.33254846986E+02  0.10566000000E+00 0.  1.
         22    1    1    0    0    0  0.11733611200E+00  0.22122504195E+02  0.19827702882E+02  0.29707856893E+02  0.00000000000E+00 0. -1.
</event>
<event>
 5    1  0.6903325E-004  0.9118800E+02  0.7818608E-02  0.1130116E+00
         25   -1    0    0    0    0  0.00000000000E+00  0.00000000000E+00  0.99999998245E-14  0.12500000000E+03  0.12500000000E+03 0.  0.
        -13    1    3    3    0    0  0.20182116993E+01  0.28504522878E+02 -0.19742739856E+02  0.34732807891E+02  0.10566000000E+00 0. -1.
         23    2    1    0    0    0  0.24059570169E+02 -0.15194292450E+02  0.13099648960E+02  0.93673808998E+02  0.88280531544E+02 0.  0.
         13    1    3    3    0    0  0.22041358470E+02 -0.43698815328E+02  0.32842388817E+02  0.58941001107E+02  0.10566000000E+00 0.  1.
         22    1    1    0    0    0 -0.24059570169E+02  0.15194292450E+02 -0.13099648960E+02  0.31326191002E+02  0.00000000000E+00 0.  1.
</event>
<event>
 5    1  0.6903325E-004  0.9118800E+02  0.7818608E-02  0.1130116E+00
         25   -1    0    0    0    0  0.00000000000E+00  0.00000000000E+00  0.99999998245E-14  0.12500000000E+03  0.12500000000E+03 0.  0.
        -13    1    3    3    0    0  0.33139584185E+02  0.15638933529E+02  0.97019267346E+01  0.37907081506E+02  0.10566000000E+00 0. -1.
         23    2    1    0    0    0 -0.11569347211E+02 -0.20023076033E+02  0.17999154072E+02  0.95695684345E+02  0.91098414291E+02 0.  0.
         13    1    3    3    0    0 -0.44708931396E+02 -0.35662009562E+02  0.82972273369E+01  0.57788602839E+02  0.10566000000E+00 0.  1.
         22    1    1    0    0    0  0.11569347211E+02  0.20023076033E+02 -0.17999154072E+02  0.29304315655E+02  0.00000000000E+00 0.  1.
</event>
<event>
 5    1  0.6903325E-004  0.9118800E+02  0.7818608E-02  0.1130116E+00
         25   -1    0    0    0    0  0.00000000000E+00  0.00000000000E+00  0.99999998245E-14  0.12500000000E+03  0.12500000000E+03 0.  0.
        -13    1    3    3    0    0  0.22764884400E+02 -0.10787824192E+02 -0.24488892931E+02  0.35133092001E+02  0.10566000000E+00 0. -1.
         23    2    1    0    0    0 -0.36989302531E+01  0.43140756186E+01  0.28327370983E+02  0.96108248924E+02  0.91662763601E+02 0.  0.
         13    1    3    3    0    0 -0.26463814653E+02  0.15101899811E+02  0.52816263914E+02  0.60975156923E+02  0.10566000000E+00 0.  1.
         22    1    1    0    0    0  0.36989302531E+01 -0.43140756186E+01 -0.28327370983E+02  0.28891751076E+02  0.00000000000E+00 0.  1.
</event>
<event>
 5    1  0.6903325E-004  0.9118800E+02  0.7818608E-02  0.1130116E+00
         25   -1    0    0    0    0  0.00000000000E+00  0.00000000000E+00  0.99999998245E-14  0.12500000000E+03  0.12500000000E+03 0.  0.
        -13    1    3    3    0    0 -0.30973528139E+02 -0.23793673619E+02 -0.31732578348E+02  0.50323613169E+02  0.10566000000E+00 0.  1.
         23    2    1    0    0    0  0.68087385554E+01  0.30244004081E+01 -0.27108344335E+02  0.96886511225E+02  0.92718001522E+02 0.  0.
         13    1    3    3    0    0  0.37782266695E+02  0.26818074027E+02  0.46242340132E+01  0.46562898056E+02  0.10566000000E+00 0. -1.
         22    1    1    0    0    0 -0.68087385554E+01 -0.30244004081E+01  0.27108344335E+02  0.28113488775E+02  0.00000000000E+00 0.  1.
</event>
<event>
 5    1  0.6903325E-004  0.9118800E+02  0.7818608E-02  0.1130116E+00
         25   -1    0    0    0    0  0.00000000000E+00  0.00000000000E+00  0.99999998245E-14  0.12500000000E+03  0.12500000000E+03 0.  0.
        -13    1    3    3    0    0  0.31076706869E+02 -0.28666565090E+02 -0.17932316694E+02  0.45925078224E+02  0.10566000000E+00 0. -1.
         23    2    1    0    0    0  0.21883105451E+02 -0.18402591720E+02  0.22484160561E+02  0.88626064795E+02  0.80817796300E+02 0.  0.
         13    1    3    3    0    0 -0.91936014181E+01  0.10263973371E+02  0.40416477255E+02  0.42700986571E+02  0.10566000000E+00 0.  1.
         22    1    1    0    0    0 -0.21883105451E+02  0.18402591720E+02 -0.22484160561E+02  0.36373935205E+02  0.00000000000E+00 0. -1.
</event>
<event>
 5    1  0.6903325E-004  0.9118800E+02  0.7818608E-02  0.1130116E+00
         25   -1    0    0    0    0  0.00000000000E+00  0.00000000000E+00  0.99999998245E-14  0.12500000000E+03  0.12500000000E+03 0.  0.
        -13    1    3    3    0    0  0.32592599151E+02 -0.14354690158E+02 -0.17408595342E+02  0.39640951108E+02  0.10566000000E+00 0. -1.
         23    2    1    0    0    0 -0.19917524809E+02 -0.16848024979E+02  0.75605668265E+01  0.97838889733E+02  0.93993204187E+02 0.  0.
         13    1    3    3    0    0 -0.52510123959E+02 -0.24933348213E+01  0.24969162169E+02  0.58197938625E+02  0.10566000000E+00 0.  1.
         22    1    1    0    0    0  0.19917524809E+02  0.16848024979E+02 -0.75605668265E+01  0.27161110267E+02  0.00000000000E+00 0.  1.
</event>
<event>
 5    1  0.6903325E-004  0.9118800E+02  0.7818608E-02  0.1130116E+00
         25   -1    0    0    0    0  0.00000000000E+00  0.00000000000E+00  0.99999998245E-14  0.12500000000E+03  0.12500000000E+03 0.  0.
        -13    1    3    3    0    0  0.23820760662E+02  0.28400075800E+02  0.46955928229E+02  0.59823601562E+02  0.10566000000E+00 0. -1.
         23    2    1    0    0    0  0.11284487821E+02  0.22753164281E+02  0.12977226313E+02  0.96478875321E+02  0.92166798959E+02 0.  0.
         13    1    3    3    0    0 -0.12536272841E+02 -0.56469115190E+01 -0.33978701916E+02  0.36655273759E+02  0.10566000000E+00 0.  1.
         22    1    1    0    0    0 -0.11284487821E+02 -0.22753164281E+02 -0.12977226313E+02  0.28521124679E+02  0.00000000000E+00 0. -1.
</event>
<event>
 4    1  0.6903325E-004  0.9118800E+02  0.7818608E-02  0.1130116E+00
         25   -1    0    0    0    0  0.00000000000E+00  0.00000000000E+00  0.99999998245E-14  0.12500000000E+03  0.12500000000E+03 0.  0.
        -13    1    1    0    0    0 -0.88368279441E+01 -0.14360977995E+02 -0.77357602389E+01  0.18552098738E+02  0.10566000000E+00 0.  1.
         13    1    1    0    0    0 -0.24487976629E+02  0.10984481312E+02  0.47437701454E+02  0.54503821080E+02  0.10566000000E+00 0. -1.
         22    1    1    0    0    0  0.33324804573E+02  0.33764966824E+01 -0.39701941215E+02  0.51944080182E+02  0.00000000000E+00 0. -1.
</event>
<event>
 5    1  0.6903325E-004  0.9118800E+02  0.7818608E-02  0.1130116E+00
         25   -1    0    0    0    0  0.00000000000E+00  0.00000000000E+00  0.99999998245E-14  0.12500000000E+03  0.12500000000E+03 0.  0.
        -13    1    3    3    0    0  0.28316121682E+02  0.13641800352E+01 -0.40847216337E+02  0.49720920956E+02  0.10566000000E+00 0.  1.
         23    2    1    0    0    0 -0.91671977520E+01  0.18750760017E+02 -0.20367384023E+02  0.95837372412E+02  0.91292623487E+02 0.  0.
         13    1    3    3    0    0 -0.37483319434E+02  0.17386579982E+02  0.20479832313E+02  0.46116451456E+02  0.10566000000E+00 0. -1.
         22    1    1    0    0    0  0.91671977520E+01 -0.18750760017E+02  0.20367384023E+02  0.29162627588E+02  0.00000000000E+00 0. -1.
</event>
<event>
 5    1  0.6903325E-004  0.9118800E+02  0.7818608E-02  0.1130116E+00
         25   -1    0    0    0    0  0.00000000000E+00  0.00000000000E+00  0.99999998245E-14  0.12500000000E+03  0.12500000000E+03 0.  0.
        -13    1    3    3    0    0  0.15761870577E+02  0.30869634812E+02  0.28368045445E+02  0.44789821209E+02  0.10566000000E+00 0.  1.
         23    2    1    0    0    0 -0.24449662680E+02  0.21614968756E+01  0.15928324730E+02  0.95739624017E+02  0.91158685842E+02 0.  0.
         13    1    3    3    0    0 -0.40211533257E+02 -0.28708137937E+02 -0.12439720715E+02  0.50949802808E+02  0.10566000000E+00 0. -1.
         22    1    1    0    0    0  0.24449662680E+02 -0.21614968756E+01 -0.15928324730E+02  0.29260375983E+02  0.00000000000E+00 0. -1.
</event>
<event>
 5    1  0.6903325E-004  0.9118800E+02  0.7818608E-02  0.1130116E+00
         25   -1    0    0    0    0  0.00000000000E+00  0.00000000000E+00  0.99999998245E-14  0.12500000000E+03  0.12500000000E+03 0.  0.
        -13    1    3    3    0    0 -0.18040874204E+02  0.26544004663E+02 -0.29777640197E+02  0.43781004390E+02  0.10566000000E+00 0. -1.
         23    2    1    0    0    0  0.71606640749E+01 -0.19206767267E+02 -0.18866144422E+02  0.97141313308E+02  0.93060885054E+02 0.  0.
         13    1    3    3    0    0  0.25201538279E+02 -0.45750771930E+02  0.10911495776E+02  0.53360308919E+02  0.10566000000E+00 0.  1.
         22    1    1    0    0    0 -0.71606640749E+01  0.19206767267E+02  0.18866144422E+02  0.27858686692E+02  0.00000000000E+00 0.  1.
</event>
<event>
 5    1  0.6903325E-004  0.9118800E+02  0.7818608E-02  0.1130116E+00
         25   -1    0    0    0    0  0.00000000000E+00  0.00000000000E+00  0.99999998245E-14  0.12500000000E+03  0.12500000000E+03 0.  0.
        -13    1    3    3    0    0 -0.27866552734E+02  0.14308260873E+02 -0.15788827364E+02  0.35079471548E+02  0.10566000000E+00 0.  1.
         23    2    1    0    0    0  0.22587267280E+02  0.38614493152E+01  0.17277587417E+02  0.96301385731E+02  0.91925765881E+02 0.  0.
         13    1    3    3    0    0  0.50453820014E+02 -0.10446811558E+02  0.33066414781E+02  0.61221914183E+02  0.10566000000E+00 0. -1.
         22    1    1    0    0    0 -0.22587267280E+02 -0.38614493152E+01 -0.17277587417E+02  0.28698614269E+02  0.00000000000E+00 0. -1.
</event>
<event>
 5    1  0.6903325E-004  0.9118800E+02  0.7818608E-02  0.1130116E+00
         25   -1    0    0    0    0  0.00000000000E+00  0.00000000000E+00  0.99999998245E-14  0.12500000000E+03  0.12500000000E+03 0.  0.
        -13    1    3    3    0    0  0.20757819980E+02  0.49491134749E+02 -0.74540098676E+01  0.54183327105E+02  0.10566000000E+00 0.  1.
         23    2    1    0    0    0  0.15204996502E+02  0.14709409597E+02  0.17660001699E+02  0.97442164285E+02  0.93464116489E+02 0.  0.
         13    1    3    3    0    0 -0.55528234777E+01 -0.34781725152E+02  0.25114011567E+02  0.43258837180E+02  0.10566000000E+00 0. -1.
         22    1    1    0    0    0 -0.15204996502E+02 -0.14709409597E+02 -0.17660001699E+02  0.27557835715E+02  0.00000000000E+00 0.  1.
</event>
<event>
 5    1  0.6903325E-004  0.9118800E+02  0.7818608E-02  0.1130116E+00
         25   -1    0    0    0    0  0.00000000000E+00  0.00000000000E+00  0.99999998245E-14  0.12500000000E+03  0.12500000000E+03 0.  0.
        -13    1    3    3    0    0 -0.12085863731E+01 -0.64366385360E+01 -0.44039676003E+02  0.44524097106E+02  0.10566000000E+00 0.  1.
         23    2    1    0    0    0 -0.28099778139E+02  0.56222425971E+01 -0.14626898978E+01  0.96305983115E+02  0.91932017158E+02 0.  0.
         13    1    3    3    0    0 -0.26891191766E+02  0.12058881133E+02  0.42576986105E+02  0.51781886008E+02  0.10566000000E+00 0. -1.
         22    1    1    0    0    0  0.28099778139E+02 -0.56222425971E+01  0.14626898978E+01  0.28694016885E+02  0.00000000000E+00 0.  1.
</event>
<event>
 5    1  0.6903325E-004  0.9118800E+02  0.7818608E-02  0.1130116E+00
         25   -1    0    0    0    0  0.00000000000E+00  0.00000000000E+00  0.99999998245E-14  0.12500000000E+03  0.12500000000E+03 0.  0.
        -13    1    3    3    0    0  0.32521787404E+02 -0.17135459366E+01 -0.17220629321E+02  0.36839708656E+02  0.10566000000E+00 0.  1.
         23    2    1    0    0    0  0.32699947017E+01  0.30494796558E+02  0.14882064996E+02  0.90910392478E+02  0.84276913324E+02 0.  0.
         13    1    3    3    0    0 -0.29251792702E+02  0.32208342495E+02  0.32102694316E+02  0.54070683822E+02  0.10566000000E+00 0. -1.
         22    1    1    0    0    0 -0.32699947017E+01 -0.30494796558E+02 -0.14882064996E+02  0.34089607522E+02  0.00000000000E+00 0. -1.
</event>
<event>
 5    1  0.6903325E-004  0.9118800E+02  0.7818608E-02  0.1130116E+00
         25   -1    0    0    0    0  0.00000000000E+00  0.00000000000E+00  0.99999998245E-14  0.12500000000E+03  0.12500000000E+03 0.  0.
        -13    1    3    3    0    0 -0.15644716798E+02  0.40810854610E+02 -0.36958630699E+02  0.57238401138E+02  0.10566000000E+00 0.  1.
         23    2    1    0    0    0 -0.12972333145E+02  0.26689365050E+02 -0.17431756009E+01  0.95273878572E+02  0.90517786335E+02 0.  0.
         13    1    3    3    0    0  0.26723836525E+01 -0.14121489560E+02  0.35215455098E+02  0.38035477434E+02  0.10566000000E+00 0. -1.
         22    1    1    0    0    0  0.12972333145E+02 -0.26689365050E+02  0.17431756009E+01  0.29726121428E+02  0.00000000000E+00 0.  1.
</event>
<event>
 5    1  0.6903325E-004  0.9118800E+02  0.7818608E-02  0.1130116E+00
         25   -1    0    0    0    0  0.00000000000E+00  0.00000000000E+00  0.99999998245E-14  0.12500000000E+03  0.12500000000E+03 0.  0.
        -13    1    3    3    0    0 -0.35864845645E+02  0.72305889961E+00  0.17475493216E+02  0.39902556240E+02  0.10566000000E+00 0.  1.
         23    2    1    0    0    0 -0.24832677732E+01 -0.82297331968E+01 -0.27250344267E+02  0.96425949010E+02  0.92094990376E+02 0.  0.
         13    1    3    3    0    0  0.33381577872E+02 -0.89527920965E+01 -0.44725837484E+02  0.56523392769E+02  0.10566000000E+00 0. -1.
         22    1    1    0    0    0  0.24832677732E+01  0.82297331968E+01  0.27250344267E+02  0.28574050990E+02  0.00000000000E+00 0. -1.
</event>
<event>
 5    1  0.6903325E-004  0.9118800E+02  0.7818608E-02  0.1130116E+00
         25   -1    0    0    0    0  0.00000000000E+00  0.00000000000E+00  0.99999998245E-14  0.12500000000E+03  0.12500000000E+03 0.  0.
        -13    1    3    3    0    0  0.32451479430E+02  0.93687846304E+01  0.32390138195E+02  0.46797487742E+02  0.10566000000E+00 0. -1.
         23    2    1    0    0    0  0.21835090232E+02 -0.19662011479E+02 -0.48759174580E+01  0.95215097249E+02  0.90436576186E+02 0.  0.
         13    1    3    3    0    0 -0.10616389199E+02 -0.29030796110E+02 -0.37266055653E+02  0.48417609507E+02  0.10566000000E+00 0.  1.
         22    1    1    0    0    0 -0.21835090232E+02  0.19662011479E+02  0.48759174580E+01  0.29784902751E+02  0.00000000000E+00 0. -1.
</event>
<event>
 5    1  0.6903325E-004  0.9118800E+02  0.7818608E-02  0.1130116E+00
         25   -1    0    0    0    0  0.00000000000E+00  0.00000000000E+00  0.99999998245E-14  0.12500000000E+03  0.12500000000E+03 0.  0.
        -13    1    3    3    0    0 -0.51110148460E+01 -0.45092543160E+02 -0.27831957425E+02  0.53236161954E+02  0.10566000000E+00 0. -1.
         23    2    1    0    0    0  0.50958006282E+00 -0.25070401239E+02  0.11257457809E+02  0.97513366040E+02  0.93559294087E+02 0.  0.
         13    1    3    3    0    0  0.56205949088E+01  0.20022141921E+02  0.39089415235E+02  0.44277204086E+02  0.10566000000E+00 0.  1.
         22    1    1    0    0    0 -0.50958006282E+00  0.25070401239E+02 -0.11257457809E+02  0.27486633960E+02  0.00000000000E+00 0. -1.
</event>
<event>
 5    1  0.6903325E-004  0.9118800E+02  0.7818608E-02  0.1130116E+00
         25   -1    0    0    0    0  0.00000000000E+00  0.00000000000E+00  0.99999998245E-14  0.12500000000E+03  0.12500000000E+03 0.  0.
        -13    1    3    3    0    0 -0.42508536295E+02 -0.31675666213E+02  0.28578426387E+02  0.60225087022E+02  0.10566000000E+00 0.  1.
         23    2    1    0    0    0 -0.27076915137E+02 -0.63502379497E+01  0.89716726416E+01  0.95777136257E+02  0.91210109441E+02 0.  0.
         13    1    3    3    0    0  0.15431621158E+02  0.25325428264E+02 -0.19606753746E+02  0.35552049235E+02  0.10566000000E+00 0. -1.
         22    1    1    0    0    0  0.27076915137E+02  0.63502379497E+01 -0.89716726416E+01  0.29222863743E+02  0.00000000000E+00 0.  1.
</event>
<event>
 5    1  0.6903325E-004  0.9118800E+02  0.7818608E-02  0.1130116E+00
         25   -1    0    0    0    0  0.00000000000E+00  0.00000000000E+00  0.99999998245E-14  0.12500000000E+03  0.12500000000E+03 0.  0.
        -13    1    3    3    0    0  0.81417846950E+00 -0.49992984443E+02  0.32057588059E+02  0.59394120048E+02  0.10566000000E+00 0. -1.
         23    2    1    0    0    0 -0.13502400629E+02 -0.22546874792E+02  0.14350671930E+02  0.95056416873E+02  0.90216984090E+02 0.  0.
         13    1    3    3    0    0 -0.14316579098E+02  0.27446109651E+02 -0.17706916129E+02  0.35662296826E+02  0.10566000000E+00 0.  1.
         22    1    1    0    0    0  0.13502400629E+02  0.22546874792E+02 -0.14350671930E+02  0.29943583127E+02  0.00000000000E+00 0. -1.
</event>
<event>
 5    1  0.6903325E-004  0.9118800E+02  0.7818608E-02  0.1130116E+00
         25   -1    0    0    0    0  0.00000000000E+00  0.00000000000E+00  0.99999998245E-14  0.12500000000E+03  0.12500000000E+03 0.  0.
        -13    1    3    3    0    0  0.22433819865E+02 -0.34045756268E+02  0.21618365016E+02  0.46149265039E+02  0.10566000000E+00 0.  1.
         23    2    1    0    0    0  0.26747598518E+02  0.13942193392E+00 -0.13232629371E+02  0.95157816014E+02  0.90357368286E+02 0.  0.
         13    1    3    3    0    0  0.43137786528E+01  0.34185178202E+02 -0.34850994387E+02  0.49008550976E+02  0.10566000000E+00 0. -1.
         22    1    1    0    0    0 -0.26747598518E+02 -0.13942193392E+00  0.13232629371E+02  0.29842183986E+02  0.00000000000E+00 0. -1.
</event>
<event>
 5    1  0.6903325E-004  0.9118800E+02  0.7818608E-02  0.1130116E+00
         25   -1    0    0    0    0  0.00000000000E+00  0.00000000000E+00  0.99999998245E-14  0.12500000000E+03  0.12500000000E+03 0.  0.
        -13    1    3    3    0    0 -0.32429353137E+02  0.10041939355E+02 -0.34949801710E+02  0.48723744669E+02  0.10566000000E+00 0.  1.
         23    2    1    0    0    0 -0.26175726923E+02 -0.64862991852E+01  0.93813116534E+01  0.96447421037E+02  0.92124129626E+02 0.  0.
         13    1    3    3    0    0  0.62536262143E+01 -0.16528238540E+02  0.44331113364E+02  0.47723676369E+02  0.10566000000E+00 0. -1.
         22    1    1    0    0    0  0.26175726923E+02  0.64862991852E+01 -0.93813116534E+01  0.28552578963E+02  0.00000000000E+00 0.  1.
</event>
<event>
 5    1  0.6903325E-004  0.9118800E+02  0.7818608E-02  0.1130116E+00
         25   -1    0    0    0    0  0.00000000000E+00  0.00000000000E+00  0.99999998245E-14  0.12500000000E+03  0.12500000000E+03 0.  0.
        -13    1    3    3    0    0  0.24111315444E+02  0.22026000492E+02  0.18540848489E+02  0.37553621088E+02  0.10566000000E+00 0.  1.
         23    2    1    0    0    0 -0.72616508911E+01 -0.22866454218E+02  0.22022980753E+02  0.92432869586E+02  0.86505591707E+02 0.  0.
         13    1    3    3    0    0 -0.31372966335E+02 -0.44892454710E+02  0.34821322637E+01  0.54879248498E+02  0.10566000000E+00 0. -1.
         22    1    1    0    0    0  0.72616508911E+01  0.22866454218E+02 -0.22022980753E+02  0.32567130414E+02  0.00000000000E+00 0. -1.
</event>
<event>
 5    1  0.6903325E-004  0.9118800E+02  0.7818608E-02  0.1130116E+00
         25   -1    0    0    0    0  0.00000000000E+00  0.00000000000E+00  0.99999998245E-14  0.12500000000E+03  0.12500000000E+03 0.  0.
        -13    1    3    3    0    0 -0.72416025111E+01 -0.49989454065E+02 -0.56792582481E+00  0.50514552640E+02  0.10566000000E+00 0.  1.
         23    2    1    0    0    0  0.16528134160E+02 -0.16036111584E+02  0.17843833560E+02  0.95866883283E+02  0.91333021524E+02 0.  0.
         13    1    3    3    0    0  0.23769736671E+02  0.33953342481E+02  0.18411759385E+02  0.45352330643E+02  0.10566000000E+00 0. -1.
         22    1    1    0    0    0 -0.16528134160E+02  0.16036111584E+02 -0.17843833560E+02  0.29133116717E+02  0.00000000000E+00 0. -1.
</event>
<event>
 5    1  0.6903325E-004  0.9118800E+02  0.7818608E-02  0.1130116E+00
         25   -1    0    0    0    0  0.00000000000E+00  0.00000000000E+00  0.99999998245E-14  0.12500000000E+03  0.12500000000E+03 0.  0.
        -13    1    3    3    0    0 -0.86615767291E+01  0.26864053172E+01  0.35200644880E+02  0.36350189119E+02  0.10566000000E+00 0.  1.
         23    2    1    0    0    0  0.36264698408E-01 -0.17741677335E+02 -0.21430640471E+02  0.97178411605E+02  0.93110702400E+02 0.  0.
         13    1    3    3    0    0  0.86978414275E+01 -0.20428082652E+02 -0.56631285351E+02  0.60828222487E+02  0.10566000000E+00 0. -1.
         22    1    1    0    0    0 -0.36264698408E-01  0.17741677335E+02  0.21430640471E+02  0.27821588395E+02  0.00000000000E+00 0. -1.
</event>
<event>
 5    1  0.6903325E-004  0.9118800E+02  0.7818608E-02  0.1130116E+00
         25   -1    0    0    0    0  0.00000000000E+00  0.00000000000E+00  0.99999998245E-14  0.12500000000E+03  0.12500000000E+03 0.  0.
        -13    1    3    3    0    0  0.24519714104E+02 -0.32619259861E+02  0.18697547747E+01  0.40850209798E+02  0.10566000000E+00 0.  1.
         23    2    1    0    0    0 -0.25948698362E+02 -0.13495727129E+02 -0.52374686031E+01  0.95286355410E+02  0.90535014511E+02 0.  0.
         13    1    3    3    0    0 -0.50468412466E+02  0.19123532732E+02 -0.71072233777E+01  0.54436145613E+02  0.10566000000E+00 0. -1.
         22    1    1    0    0    0  0.25948698362E+02  0.13495727129E+02  0.52374686031E+01  0.29713644590E+02  0.00000000000E+00 0. -1.
</event>
<event>
 5    1  0.6903325E-004  0.9118800E+02  0.7818608E-02  0.1130116E+00
         25   -1    0    0    0    0  0.00000000000E+00  0.00000000000E+00  0.99999998245E-14  0.12500000000E+03  0.12500000000E+03 0.  0.
        -13    1    3    3    0    0 -0.15803639360E+02 -0.37599111401E+02 -0.45005361655E+02  0.60736660568E+02  0.10566000000E+00 0.  1.
         23    2    1    0    0    0 -0.13119858040E+02 -0.90813166281E+01 -0.23673471587E+02  0.96451195407E+02  0.92129250793E+02 0.  0.
         13    1    3    3    0    0  0.26837813195E+01  0.28517794773E+02  0.21331890068E+02  0.35714534839E+02  0.10566000000E+00 0. -1.
         22    1    1    0    0    0  0.13119858040E+02  0.90813166281E+01  0.23673471587E+02  0.28548804593E+02  0.00000000000E+00 0.  1.
</event>
<event>
 5    1  0.6903325E-004  0.9118800E+02  0.7818608E-02  0.1130116E+00
         25   -1    0    0    0    0  0.00000000000E+00  0.00000000000E+00  0.99999998245E-14  0.12500000000E+03  0.12500000000E+03 0.  0.
        -13    1    3    3    0    0 -0.16395884178E+02  0.26928279209E+02 -0.48849878441E+02  0.58140167069E+02  0.10566000000E+00 0.  1.
         23    2    1    0    0    0  0.24844962470E+01 -0.95743704260E+00 -0.26062906326E+02  0.98801441005E+02  0.95264685226E+02 0.  0.
         13    1    3    3    0    0  0.18880380425E+02 -0.27885716251E+02  0.22786972115E+02  0.40661273935E+02  0.10566000000E+00 0. -1.
         22    1    1    0    0    0 -0.24844962470E+01  0.95743704260E+00  0.26062906326E+02  0.26198558995E+02  0.00000000000E+00 0.  1.
</event>
<event>
 5    1  0.6903325E-004  0.9118800E+02  0.7818608E-02  0.1130116E+00
         25   -1    0    0    0    0  0.00000000000E+00  0.00000000000E+00  0.99999998245E-14  0.12500000000E+03  0.12500000000E+03 0.  0.
        -13    1    3    3    0    0  0.15211644183E+02  0.27088053403E+02  0.16817828001E+02  0.35327146200E+02  0.10566000000E+00 0. -1.
         23    2    1    0    0    0 -0.19355285999E+02 -0.55336525535E+01 -0.20883338342E+02  0.95993755380E+02  0.91506496190E+02 0.  0.
         13    1    3    3    0    0 -0.34566930182E+02 -0.32621705957E+02 -0.37701166343E+02  0.60666609180E+02  0.10566000000E+00 0.  1.
         22    1    1    0    0    0  0.19355285999E+02  0.55336525535E+01  0.20883338342E+02  0.29006244620E+02  0.00000000000E+00 0.  1.
</event>
<event>
 5    1  0.6903325E-004  0.9118800E+02  0.7818608E-02  0.1130116E+00
         25   -1    0    0    0    0  0.00000000000E+00  0.00000000000E+00  0.99999998245E-14  0.12500000000E+03  0.12500000000E+03 0.  0.
        -13    1    3    3    0    0  0.18096681075E+01  0.16720978871E+02  0.32850098561E+02  0.36905367801E+02  0.10566000000E+00 0.  1.
         23    2    1    0    0    0 -0.47055433907E+01  0.92316951067E+00 -0.26192956706E+02  0.98371718765E+02  0.94699153593E+02 0.  0.
         13    1    3    3    0    0 -0.65152114982E+01 -0.15797809360E+02 -0.59043055267E+02  0.61466350963E+02  0.10566000000E+00 0. -1.
         22    1    1    0    0    0  0.47055433907E+01 -0.92316951067E+00  0.26192956706E+02  0.26628281235E+02  0.00000000000E+00 0. -1.
</event>
<event>
 5    1  0.6903325E-004  0.9118800E+02  0.7818608E-02  0.1130116E+00
         25   -1    0    0    0    0  0.00000000000E+00  0.00000000000E+00  0.99999998245E-14  0.12500000000E+03  0.12500000000E+03 0.  0.
        -13    1    3    3    0    0 -0.44800152485E+02  0.34267841277E+01 -0.42902187071E+02  0.62124112321E+02  0.10566000000E+00 0. -1.
         23    2    1    0    0    0 -0.19527147161E+02 -0.26945946970E+01 -0.21766601169E+02  0.95634114295E+02  0.91013892202E+02 0.  0.
         13    1    3    3    0    0  0.25273005324E+02 -0.61213788247E+01  0.21135585902E+02  0.33510001974E+02  0.10566000000E+00 0.  1.
         22    1    1    0    0    0  0.19527147161E+02  0.26945946970E+01  0.21766601169E+02  0.29365885705E+02  0.00000000000E+00 0. -1.
</event>
<event>
 5    1  0.6903325E-004  0.9118800E+02  0.7818608E-02  0.1130116E+00
         25   -1    0    0    0    0  0.00000000000E+00  0.00000000000E+00  0.99999998245E-14  0.12500000000E+03  0.12500000000E+03 0.  0.
        -13    1    3    3    0    0 -0.48877826230E+02  0.17905683798E+02  0.26783430376E+02  0.58540744067E+02  0.10566000000E+00 0.  1.
         23    2    1    0    0    0 -0.28477796724E+02 -0.60807164060E+01  0.15662710415E+02  0.91935207307E+02  0.85783458935E+02 0.  0.
         13    1    3    3    0    0  0.20400029506E+02 -0.23986400204E+02 -0.11120719961E+02  0.33394463240E+02  0.10566000000E+00 0. -1.
         22    1    1    0    0    0  0.28477796724E+02  0.60807164060E+01 -0.15662710415E+02  0.33064792693E+02  0.00000000000E+00 0.  1.
</event>
<event>
 5    1  0.6903325E-004  0.9118800E+02  0.7818608E-02  0.1130116E+00
         25   -1    0    0    0    0  0.00000000000E+00  0.00000000000E+00  0.99999998245E-14  0.12500000000E+03  0.12500000000E+03 0.  0.
        -13    1    3    3    0    0  0.39429350069E+02  0.15525067270E+02 -0.19321175463E+02  0.46572742521E+02  0.10566000000E+00 0.  1.
         23    2    1    0    0    0  0.34903114364E+00 -0.14370999426E+02 -0.25059137592E+02  0.96110420147E+02  0.91665724437E+02 0.  0.
         13    1    3    3    0    0 -0.39080318925E+02 -0.29896066695E+02 -0.57379621290E+01  0.49537677626E+02  0.10566000000E+00 0. -1.
         22    1    1    0    0    0 -0.34903114364E+00  0.14370999426E+02  0.25059137592E+02  0.28889579853E+02  0.00000000000E+00 0. -1.
</event>
<event>
 5    1  0.6903325E-004  0.9118800E+02  0.7818608E-02  0.1130116E+00
         25   -1    0    0    0    0  0.00000000000E+00  0.00000000000E+00  0.99999998245E-14  0.12500000000E+03  0.12500000000E+03 0.  0.
        -13    1    3    3    0    0 -0.50691989568E+01  0.32483217324E+02 -0.29388968286E+02  0.44097378683E+02  0.10566000000E+00 0.  1.
         23    2    1    0    0    0  0.18845615748E+02  0.10686048558E+02  0.14723950915E+02  0.98805657152E+02  0.95270217214E+02 0.  0.
         13    1    3    3    0    0  0.23914814705E+02 -0.21797168766E+02  0.44112919201E+02  0.54708278469E+02  0.10566000000E+00 0. -1.
         22    1    1    0    0    0 -0.18845615748E+02 -0.10686048558E+02 -0.14723950915E+02  0.26194342848E+02  0.00000000000E+00 0. -1.
</event>
<event>
 5    1  0.6903325E-004  0.9118800E+02  0.7818608E-02  0.1130116E+00
         25   -1    0    0    0    0  0.00000000000E+00  0.00000000000E+00  0.99999998245E-14  0.12500000000E+03  0.12500000000E+03 0.  0.
        -13    1    3    3    0    0  0.51003938633E+02  0.30544235282E+02 -0.11141251868E+01  0.59460949404E+02  0.10566000000E+00 0.  1.
         23    2    1    0    0    0  0.20490831046E+02  0.18765053255E+02 -0.13081661930E+02  0.94289557811E+02  0.89148132076E+02 0.  0.
         13    1    3    3    0    0 -0.30513107587E+02 -0.11779182027E+02 -0.11967536743E+02  0.34828608407E+02  0.10566000000E+00 0. -1.
         22    1    1    0    0    0 -0.20490831046E+02 -0.18765053255E+02  0.13081661930E+02  0.30710442189E+02  0.00000000000E+00 0.  1.
</event>
<event>
 5    1  0.6903325E-004  0.9118800E+02  0.7818608E-02  0.1130116E+00
         25   -1    0    0    0    0  0.00000000000E+00  0.00000000000E+00  0.99999998245E-14  0.12500000000E+03  0.12500000000E+03 0.  0.
        -13    1    3    3    0    0 -0.24579936133E+02 -0.76274766423E+01 -0.25952057175E+02  0.36549584073E+02  0.10566000000E+00 0.  1.
         23    2    1    0    0    0  0.19216356587E+01  0.25577853954E+02  0.14772294395E+02  0.95400338208E+02  0.90692251885E+02 0.  0.
         13    1    3    3    0    0  0.26501571791E+02  0.33205330596E+02  0.40724351571E+02  0.58850754135E+02  0.10566000000E+00 0. -1.
         22    1    1    0    0    0 -0.19216356587E+01 -0.25577853954E+02 -0.14772294395E+02  0.29599661792E+02  0.00000000000E+00 0. -1.
</event>
<event>
 5    1  0.6903325E-004  0.9118800E+02  0.7818608E-02  0.1130116E+00
         25   -1    0    0    0    0  0.00000000000E+00  0.00000000000E+00  0.99999998245E-14  0.12500000000E+03  0.12500000000E+03 0.  0.
        -13    1    3    3    0    0  0.15197980482E+02 -0.38071698324E+02  0.12911843625E+02  0.42978595764E+02  0.10566000000E+00 0.  1.
         23    2    1    0    0    0 -0.27183476457E+02 -0.10987397295E+02 -0.24735140483E+01  0.95575816691E+02  0.90933790050E+02 0.  0.
         13    1    3    3    0    0 -0.42381456940E+02  0.27084301029E+02 -0.15385357673E+02  0.52597220928E+02  0.10566000000E+00 0. -1.
         22    1    1    0    0    0  0.27183476457E+02  0.10987397295E+02  0.24735140483E+01  0.29424183309E+02  0.00000000000E+00 0. -1.
</event>
<event>
 5    1  0.6903325E-004  0.9118800E+02  0.7818608E-02  0.1130116E+00
         25   -1    0    0    0    0  0.00000000000E+00  0.00000000000E+00  0.99999998245E-14  0.12500000000E+03  0.12500000000E+03 0.  0.
        -13    1    3    3    0    0 -0.24407679965E+02 -0.21365312035E+02  0.43197355891E+01  0.32724343832E+02  0.10566000000E+00 0. -1.
         23    2    1    0    0    0  0.68128242462E+01  0.23738853566E+02 -0.20471307364E+02  0.92921624605E+02  0.87208979762E+02 0.  0.
         13    1    3    3    0    0  0.31220504211E+02  0.45104165600E+02 -0.24791042953E+02  0.60197280773E+02  0.10566000000E+00 0.  1.
         22    1    1    0    0    0 -0.68128242462E+01 -0.23738853566E+02  0.20471307364E+02  0.32078375395E+02  0.00000000000E+00 0.  1.
</event>
<event>
 5    1  0.6903325E-004  0.9118800E+02  0.7818608E-02  0.1130116E+00
         25   -1    0    0    0    0  0.00000000000E+00  0.00000000000E+00  0.99999998245E-14  0.12500000000E+03  0.12500000000E+03 0.  0.
        -13    1    3    3    0    0 -0.31863731044E+02  0.59367321994E+01 -0.37923874231E+02  0.49887609143E+02  0.10566000000E+00 0. -1.
         23    2    1    0    0    0  0.17686536417E+01  0.25635880831E+02 -0.12492542057E+02  0.96427458483E+02  0.92097039154E+02 0.  0.
         13    1    3    3    0    0  0.33632384686E+02  0.19699148631E+02  0.25431332174E+02  0.46539849340E+02  0.10566000000E+00 0.  1.
         22    1    1    0    0    0 -0.17686536417E+01 -0.25635880831E+02  0.12492542057E+02  0.28572541517E+02  0.00000000000E+00 0. -1.
</event>
<event>
 5    1  0.6903325E-004  0.9118800E+02  0.7818608E-02  0.1130116E+00
         25   -1    0    0    0    0  0.00000000000E+00  0.00000000000E+00  0.99999998245E-14  0.12500000000E+03  0.12500000000E+03 0.  0.
        -13    1    3    3    0    0  0.19960866777E+02  0.30924562595E+02  0.18374677370E+02  0.41138846686E+02  0.10566000000E+00 0. -1.
         23    2    1    0    0    0  0.21017685349E+02 -0.80601634907E+01 -0.19288968301E+02  0.95355883702E+02  0.90630960083E+02 0.  0.
         13    1    3    3    0    0  0.10568185727E+01 -0.38984726086E+02 -0.37663645671E+02  0.54217037016E+02  0.10566000000E+00 0.  1.
         22    1    1    0    0    0 -0.21017685349E+02  0.80601634907E+01  0.19288968301E+02  0.29644116298E+02  0.00000000000E+00 0.  1.
</event>
<event>
 5    1  0.6903325E-004  0.9118800E+02  0.7818608E-02  0.1130116E+00
         25   -1    0    0    0    0  0.00000000000E+00  0.00000000000E+00  0.99999998245E-14  0.12500000000E+03  0.12500000000E+03 0.  0.
        -13    1    3    3    0    0  0.54342060656E+02 -0.20209642479E+02 -0.72926129207E+01  0.58435285340E+02  0.10566000000E+00 0. -1.
         23    2    1    0    0    0  0.28582102223E+02  0.61132944042E+01 -0.13661706817E+01  0.95739525665E+02  0.91158550977E+02 0.  0.
         13    1    3    3    0    0 -0.25759958433E+02  0.26322936883E+02  0.59264422389E+01  0.37304240325E+02  0.10566000000E+00 0.  1.
         22    1    1    0    0    0 -0.28582102223E+02 -0.61132944042E+01  0.13661706817E+01  0.29260474335E+02  0.00000000000E+00 0. -1.
</event>
<event>
 5    1  0.6903325E-004  0.9118800E+02  0.7818608E-02  0.1130116E+00
         25   -1    0    0    0    0  0.00000000000E+00  0.00000000000E+00  0.99999998245E-14  0.12500000000E+03  0.12500000000E+03 0.  0.
        -13    1    3    3    0    0  0.30169397410E+02 -0.33324806945E+02 -0.32380430112E+02  0.55400710431E+02  0.10566000000E+00 0. -1.
         23    2    1    0    0    0  0.21388696831E+02  0.47211235497E+01 -0.16607230412E+02  0.97512448969E+02  0.93558068825E+02 0.  0.
         13    1    3    3    0    0 -0.87807005790E+01  0.38045930495E+02  0.15773199700E+02  0.42111738538E+02  0.10566000000E+00 0.  1.
         22    1    1    0    0    0 -0.21388696831E+02 -0.47211235497E+01  0.16607230412E+02  0.27487551031E+02  0.00000000000E+00 0. -1.
</event>
<event>
 5    1  0.6903325E-004  0.9118800E+02  0.7818608E-02  0.1130116E+00
         25   -1    0    0    0    0  0.00000000000E+00  0.00000000000E+00  0.99999998245E-14  0.12500000000E+03  0.12500000000E+03 0.  0.
        -13    1    3    3    0    0 -0.14086108764E+02  0.37052604057E+02  0.34521901250E+02  0.52565071649E+02  0.10566000000E+00 0. -1.
         23    2    1    0    0    0  0.17770134622E+02  0.15106157700E+02  0.21207249469E+02  0.93476657618E+02  0.88000934111E+02 0.  0.
         13    1    3    3    0    0  0.31856243386E+02 -0.21946446358E+02 -0.13314651781E+02  0.40911585969E+02  0.10566000000E+00 0.  1.
         22    1    1    0    0    0 -0.17770134622E+02 -0.15106157700E+02 -0.21207249469E+02  0.31523342382E+02  0.00000000000E+00 0. -1.
</event>
<event>
 5    1  0.6903325E-004  0.9118800E+02  0.7818608E-02  0.1130116E+00
         25   -1    0    0    0    0  0.00000000000E+00  0.00000000000E+00  0.99999998245E-14  0.12500000000E+03  0.12500000000E+03 0.  0.
        -13    1    3    3    0    0 -0.39707816499E+01  0.11605215136E+02 -0.33959299748E+02  0.36106693682E+02  0.10566000000E+00 0.  1.
         23    2    1    0    0    0 -0.15206465081E+02 -0.76752640235E+01  0.22478768849E+02  0.96796430951E+02  0.92596477999E+02 0.  0.
         13    1    3    3    0    0 -0.11235683431E+02 -0.19280479159E+02  0.56438068597E+02  0.60689737269E+02  0.10566000000E+00 0. -1.
         22    1    1    0    0    0  0.15206465081E+02  0.76752640235E+01 -0.22478768849E+02  0.28203569049E+02  0.00000000000E+00 0. -1.
</event>
<event>
 5    1  0.6903325E-004  0.9118800E+02  0.7818608E-02  0.1130116E+00
         25   -1    0    0    0    0  0.00000000000E+00  0.00000000000E+00  0.99999998245E-14  0.12500000000E+03  0.12500000000E+03 0.  0.
        -13    1    3    3    0    0  0.46815007602E+02  0.23839654773E+02 -0.18323784268E+02  0.55639431255E+02  0.10566000000E+00 0. -1.
         23    2    1    0    0    0  0.83909120810E+01  0.15356854003E+02 -0.23895964936E+02  0.95381466771E+02  0.90666237888E+02 0.  0.
         13    1    3    3    0    0 -0.38424095521E+02 -0.84828007703E+01 -0.55721806684E+01  0.39742035516E+02  0.10566000000E+00 0.  1.
         22    1    1    0    0    0 -0.83909120810E+01 -0.15356854003E+02  0.23895964936E+02  0.29618533229E+02  0.00000000000E+00 0. -1.
</event>
<event>
 5    1  0.6903325E-004  0.9118800E+02  0.7818608E-02  0.1130116E+00
         25   -1    0    0    0    0  0.00000000000E+00  0.00000000000E+00  0.99999998245E-14  0.12500000000E+03  0.12500000000E+03 0.  0.
        -13    1    3    3    0    0 -0.16005031498E+02 -0.18648244316E+02 -0.38585291682E+02  0.45746627717E+02  0.10566000000E+00 0.  1.
         23    2    1    0    0    0 -0.28535120961E+02 -0.45812300036E+01  0.71656886527E+01  0.95224374222E+02  0.90449397762E+02 0.  0.
         13    1    3    3    0    0 -0.12530089463E+02  0.14067014312E+02  0.45750980334E+02  0.49477746505E+02  0.10566000000E+00 0. -1.
         22    1    1    0    0    0  0.28535120961E+02  0.45812300036E+01 -0.71656886527E+01  0.29775625778E+02  0.00000000000E+00 0.  1.
</event>
<event>
 5    1  0.6903325E-004  0.9118800E+02  0.7818608E-02  0.1130116E+00
         25   -1    0    0    0    0  0.00000000000E+00  0.00000000000E+00  0.99999998245E-14  0.12500000000E+03  0.12500000000E+03 0.  0.
        -13    1    3    3    0    0  0.42996506827E+02  0.46112788437E+01  0.31069884036E+01  0.43354677174E+02  0.10566000000E+00 0.  1.
         23    2    1    0    0    0 -0.40813253599E+00 -0.27353003423E+02  0.44956623901E+01  0.97277006858E+02  0.93242971394E+02 0.  0.
         13    1    3    3    0    0 -0.43404639363E+02 -0.31964282267E+02  0.13886739864E+01  0.53922329684E+02  0.10566000000E+00 0. -1.
         22    1    1    0    0    0  0.40813253599E+00  0.27353003423E+02 -0.44956623901E+01  0.27722993142E+02  0.00000000000E+00 0. -1.
</event>
<event>
 5    1  0.6903325E-004  0.9118800E+02  0.7818608E-02  0.1130116E+00
         25   -1    0    0    0    0  0.00000000000E+00  0.00000000000E+00  0.99999998245E-14  0.12500000000E+03  0.12500000000E+03 0.  0.
        -13    1    3    3    0    0  0.80102610086E+01  0.35046296049E+02 -0.47015221884E+02  0.59184874765E+02  0.10566000000E+00 0.  1.
         23    2    1    0    0    0 -0.59683611002E+01  0.53742794666E+01 -0.25134787239E+02  0.98613227868E+02  0.95017403495E+02 0.  0.
         13    1    3    3    0    0 -0.13978622109E+02 -0.29672016582E+02  0.21880434645E+02  0.39428353103E+02  0.10566000000E+00 0. -1.
         22    1    1    0    0    0  0.59683611002E+01 -0.53742794666E+01  0.25134787239E+02  0.26386772132E+02  0.00000000000E+00 0.  1.
</event>
<event>
 5    1  0.6903325E-004  0.9118800E+02  0.7818608E-02  0.1130116E+00
         25   -1    0    0    0    0  0.00000000000E+00  0.00000000000E+00  0.99999998245E-14  0.12500000000E+03  0.12500000000E+03 0.  0.
        -13    1    3    3    0    0  0.15216064318E+02  0.36936700006E+02  0.20190036054E+02  0.44760441694E+02  0.10566000000E+00 0.  1.
         23    2    1    0    0    0  0.34614788516E+02  0.83821688407E+01 -0.70000167772E+01  0.88703380690E+02  0.80937291605E+02 0.  0.
         13    1    3    3    0    0  0.19398724198E+02 -0.28554531166E+02 -0.27190052832E+02  0.43942938996E+02  0.10566000000E+00 0. -1.
         22    1    1    0    0    0 -0.34614788516E+02 -0.83821688407E+01  0.70000167772E+01  0.36296619310E+02  0.00000000000E+00 0.  1.
</event>
<event>
 5    1  0.6903325E-004  0.9118800E+02  0.7818608E-02  0.1130116E+00
         25   -1    0    0    0    0  0.00000000000E+00  0.00000000000E+00  0.99999998245E-14  0.12500000000E+03  0.12500000000E+03 0.  0.
        -13    1    3    3    0    0  0.16538102614E+01  0.23805486313E+02  0.33452378598E+02  0.41091471924E+02  0.10566000000E+00 0.  1.
         23    2    1    0    0    0 -0.18412461700E+02  0.14049330062E+02 -0.17008413845E+02  0.96265202931E+02  0.91876551594E+02 0.  0.
         13    1    3    3    0    0 -0.20066271961E+02 -0.97561562502E+01 -0.50460792443E+02  0.55173731007E+02  0.10566000000E+00 0. -1.
         22    1    1    0    0    0  0.18412461700E+02 -0.14049330062E+02  0.17008413845E+02  0.28734797069E+02  0.00000000000E+00 0. -1.
</event>
<event>
 5    1  0.6903325E-004  0.9118800E+02  0.7818608E-02  0.1130116E+00
         25   -1    0    0    0    0  0.00000000000E+00  0.00000000000E+00  0.99999998245E-14  0.12500000000E+03  0.12500000000E+03 0.  0.
        -13    1    3    3    0    0 -0.46058309353E+02 -0.22021100430E+02  0.26448644141E+02  0.57496423067E+02  0.10566000000E+00 0. -1.
         23    2    1    0    0    0 -0.28762777074E+02  0.34917275029E+01  0.37306584949E+01  0.95786863935E+02  0.91223439881E+02 0.  0.
         13    1    3    3    0    0  0.17295532279E+02  0.25512827933E+02 -0.22717985647E+02  0.38290440867E+02  0.10566000000E+00 0.  1.
         22    1    1    0    0    0  0.28762777074E+02 -0.34917275029E+01 -0.37306584949E+01  0.29213136065E+02  0.00000000000E+00 0. -1.
</event>
<event>
 5    1  0.6903325E-004  0.9118800E+02  0.7818608E-02  0.1130116E+00
         25   -1    0    0    0    0  0.00000000000E+00  0.00000000000E+00  0.99999998245E-14  0.12500000000E+03  0.12500000000E+03 0.  0.
        -13    1    3    3    0    0 -0.27962915544E+01  0.24645198382E+02 -0.23904538647E+02  0.34447687611E+02  0.10566000000E+00 0.  1.
         23    2    1    0    0    0  0.14150629745E+02 -0.18318157398E+02  0.17110072657E+02  0.96215459028E+02  0.91808849013E+02 0.  0.
         13    1    3    3    0    0  0.16946921299E+02 -0.42963355780E+02  0.41014611304E+02  0.61767771417E+02  0.10566000000E+00 0. -1.
         22    1    1    0    0    0 -0.14150629745E+02  0.18318157398E+02 -0.17110072657E+02  0.28784540972E+02  0.00000000000E+00 0. -1.
</event>
<event>
 5    1  0.6903325E-004  0.9118800E+02  0.7818608E-02  0.1130116E+00
         25   -1    0    0    0    0  0.00000000000E+00  0.00000000000E+00  0.99999998245E-14  0.12500000000E+03  0.12500000000E+03 0.  0.
        -13    1    3    3    0    0  0.52217685363E+02 -0.25610397842E+02  0.21219283237E+02  0.61910001514E+02  0.10566000000E+00 0.  1.
         23    2    1    0    0    0  0.22261266361E+02 -0.16594839550E+02  0.13468934823E+02  0.94139590330E+02  0.88937604997E+02 0.  0.
         13    1    3    3    0    0 -0.29956419002E+02  0.90155582919E+01 -0.77503484135E+01  0.32229588817E+02  0.10566000000E+00 0. -1.
         22    1    1    0    0    0 -0.22261266361E+02  0.16594839550E+02 -0.13468934823E+02  0.30860409670E+02  0.00000000000E+00 0.  1.
</event>
<event>
 5    1  0.6903325E-004  0.9118800E+02  0.7818608E-02  0.1130116E+00
         25   -1    0    0    0    0  0.00000000000E+00  0.00000000000E+00  0.99999998245E-14  0.12500000000E+03  0.12500000000E+03 0.  0.
        -13    1    3    3    0    0  0.55908528272E+02 -0.15544043747E+02 -0.19764099202E+01  0.58062881343E+02  0.10566000000E+00 0.  1.
         23    2    1    0    0    0  0.28852106923E+02  0.91275313638E+01  0.10741059840E+00  0.94738350347E+02  0.89775205857E+02 0.  0.
         13    1    3    3    0    0 -0.27056421350E+02  0.24671575111E+02  0.20838205186E+01  0.36675469004E+02  0.10566000000E+00 0. -1.
         22    1    1    0    0    0 -0.28852106923E+02 -0.91275313638E+01 -0.10741059840E+00  0.30261649653E+02  0.00000000000E+00 0.  1.
</event>
<event>
 5    1  0.6903325E-004  0.9118800E+02  0.7818608E-02  0.1130116E+00
         25   -1    0    0    0    0  0.00000000000E+00  0.00000000000E+00  0.99999998245E-14  0.12500000000E+03  0.12500000000E+03 0.  0.
        -13    1    3    3    0    0 -0.50973144169E+02  0.12310897767E+02  0.61920667433E+01  0.52803148438E+02  0.10566000000E+00 0. -1.
         23    2    1    0    0    0 -0.22570836580E+02  0.14307045109E+02 -0.20102394963E+02  0.91559897026E+02  0.85234818334E+02 0.  0.
         13    1    3    3    0    0  0.28402307590E+02  0.19961473421E+01 -0.26294461707E+02  0.38756748588E+02  0.10566000000E+00 0.  1.
         22    1    1    0    0    0  0.22570836580E+02 -0.14307045109E+02  0.20102394963E+02  0.33440102974E+02  0.00000000000E+00 0. -1.
</event>
<event>
 5    1  0.6903325E-004  0.9118800E+02  0.7818608E-02  0.1130116E+00
         25   -1    0    0    0    0  0.00000000000E+00  0.00000000000E+00  0.99999998245E-14  0.12500000000E+03  0.12500000000E+03 0.  0.
        -13    1    3    3    0    0 -0.19546004288E+02  0.41785174152E+02  0.23211504830E+02  0.51641380530E+02  0.10566000000E+00 0. -1.
         23    2    1    0    0    0 -0.22406068046E+02 -0.40727078325E+01  0.13238810863E+02  0.98658304013E+02  0.95076684857E+02 0.  0.
         13    1    3    3    0    0 -0.28600637578E+01 -0.45857881984E+02 -0.99726939669E+01  0.47016923483E+02  0.10566000000E+00 0.  1.
         22    1    1    0    0    0  0.22406068046E+02  0.40727078325E+01 -0.13238810863E+02  0.26341695987E+02  0.00000000000E+00 0. -1.
</event>
<event>
 5    1  0.6903325E-004  0.9118800E+02  0.7818608E-02  0.1130116E+00
         25   -1    0    0    0    0  0.00000000000E+00  0.00000000000E+00  0.99999998245E-14  0.12500000000E+03  0.12500000000E+03 0.  0.
        -13    1    3    3    0    0 -0.48317889959E+02  0.11137263629E+00  0.39269291415E+02  0.62263306258E+02  0.10566000000E+00 0. -1.
         23    2    1    0    0    0 -0.25057694877E+02  0.57967803715E+00  0.15465531138E+02  0.95548230061E+02  0.90895860826E+02 0.  0.
         13    1    3    3    0    0  0.23260195082E+02  0.46830540086E+00 -0.23803760277E+02  0.33284923803E+02  0.10566000000E+00 0.  1.
         22    1    1    0    0    0  0.25057694877E+02 -0.57967803715E+00 -0.15465531138E+02  0.29451769939E+02  0.00000000000E+00 0. -1.
</event>
<event>
 5    1  0.6903325E-004  0.9118800E+02  0.7818608E-02  0.1130116E+00
         25   -1    0    0    0    0  0.00000000000E+00  0.00000000000E+00  0.99999998245E-14  0.12500000000E+03  0.12500000000E+03 0.  0.
        -13    1    3    3    0    0 -0.13149049116E+02 -0.28223110373E+02 -0.31897913005E+02  0.44574987043E+02  0.10566000000E+00 0.  1.
         23    2    1    0    0    0  0.24005796970E+02  0.37801637462E+01 -0.14996553284E+02  0.96443660310E+02  0.92119026686E+02 0.  0.
         13    1    3    3    0    0  0.37154846086E+02  0.32003274119E+02  0.16901359721E+02  0.51868673267E+02  0.10566000000E+00 0. -1.
         22    1    1    0    0    0 -0.24005796970E+02 -0.37801637462E+01  0.14996553284E+02  0.28556339690E+02  0.00000000000E+00 0.  1.
</event>
<event>
 5    1  0.6903325E-004  0.9118800E+02  0.7818608E-02  0.1130116E+00
         25   -1    0    0    0    0  0.00000000000E+00  0.00000000000E+00  0.99999998245E-14  0.12500000000E+03  0.12500000000E+03 0.  0.
        -13    1    3    3    0    0  0.37976946022E+01  0.30315313532E+02 -0.16126456766E+02  0.34547279064E+02  0.10566000000E+00 0.  1.
         23    2    1    0    0    0 -0.12864331342E+02 -0.50507657384E+01  0.28166439103E+02  0.93625654634E+02  0.88212321466E+02 0.  0.
         13    1    3    3    0    0 -0.16662025944E+02 -0.35366079270E+02  0.44292895869E+02  0.59078375570E+02  0.10566000000E+00 0. -1.
         22    1    1    0    0    0  0.12864331342E+02  0.50507657384E+01 -0.28166439103E+02  0.31374345366E+02  0.00000000000E+00 0. -1.
</event>
<event>
 5    1  0.6903325E-004  0.9118800E+02  0.7818608E-02  0.1130116E+00
         25   -1    0    0    0    0  0.00000000000E+00  0.00000000000E+00  0.99999998245E-14  0.12500000000E+03  0.12500000000E+03 0.  0.
        -13    1    3    3    0    0 -0.18709720679E+02  0.11256282305E+02 -0.24657808557E+02  0.32935941251E+02  0.10566000000E+00 0. -1.
         23    2    1    0    0    0  0.24628469670E+02 -0.13907289556E+02  0.11223177602E+02  0.94570837400E+02  0.89541662649E+02 0.  0.
         13    1    3    3    0    0  0.43338190349E+02 -0.25163571861E+02  0.35880986159E+02  0.61634896149E+02  0.10566000000E+00 0.  1.
         22    1    1    0    0    0 -0.24628469670E+02  0.13907289556E+02 -0.11223177602E+02  0.30429162600E+02  0.00000000000E+00 0.  1.
</event>
<event>
 5    1  0.6903325E-004  0.9118800E+02  0.7818608E-02  0.1130116E+00
         25   -1    0    0    0    0  0.00000000000E+00  0.00000000000E+00  0.99999998245E-14  0.12500000000E+03  0.12500000000E+03 0.  0.
        -13    1    3    3    0    0 -0.12303509372E+02  0.19865212259E+02  0.29420653036E+02  0.37571119095E+02  0.10566000000E+00 0. -1.
         23    2    1    0    0    0  0.24003570828E+02 -0.87000760214E+01 -0.92775242203E+01  0.97835037439E+02  0.93988080945E+02 0.  0.
         13    1    3    3    0    0  0.36307080200E+02 -0.28565288280E+02 -0.38698177256E+02  0.60263918344E+02  0.10566000000E+00 0.  1.
         22    1    1    0    0    0 -0.24003570828E+02  0.87000760214E+01  0.92775242203E+01  0.27164962561E+02  0.00000000000E+00 0.  1.
</event>
<event>
 5    1  0.6903325E-004  0.9118800E+02  0.7818608E-02  0.1130116E+00
         25   -1    0    0    0    0  0.00000000000E+00  0.00000000000E+00  0.99999998245E-14  0.12500000000E+03  0.12500000000E+03 0.  0.
        -13    1    3    3    0    0  0.38550315502E+02  0.62844138090E+01 -0.45578913251E+02  0.60025571046E+02  0.10566000000E+00 0. -1.
         23    2    1    0    0    0  0.11997727303E+02  0.12929096115E+02 -0.25595371622E+02  0.93915759052E+02  0.88622456314E+02 0.  0.
         13    1    3    3    0    0 -0.26552588199E+02  0.66446823063E+01  0.19983541629E+02  0.33890188006E+02  0.10566000000E+00 0.  1.
         22    1    1    0    0    0 -0.11997727303E+02 -0.12929096115E+02  0.25595371622E+02  0.31084240948E+02  0.00000000000E+00 0. -1.
</event>
<event>
 5    1  0.6903325E-004  0.9118800E+02  0.7818608E-02  0.1130116E+00
         25   -1    0    0    0    0  0.00000000000E+00  0.00000000000E+00  0.99999998245E-14  0.12500000000E+03  0.12500000000E+03 0.  0.
        -13    1    3    3    0    0 -0.28383228100E+02  0.18254638178E+02 -0.17052543892E+02  0.37810578805E+02  0.10566000000E+00 0.  1.
         23    2    1    0    0    0  0.22573150930E+02 -0.12388962435E+02 -0.85030379426E+01  0.97882935495E+02  0.94051761673E+02 0.  0.
         13    1    3    3    0    0  0.50956379029E+02 -0.30643600613E+02  0.85495059490E+01  0.60072356690E+02  0.10566000000E+00 0. -1.
         22    1    1    0    0    0 -0.22573150930E+02  0.12388962435E+02  0.85030379426E+01  0.27117064505E+02  0.00000000000E+00 0. -1.
</event>
<event>
 5    1  0.6903325E-004  0.9118800E+02  0.7818608E-02  0.1130116E+00
         25   -1    0    0    0    0  0.00000000000E+00  0.00000000000E+00  0.99999998245E-14  0.12500000000E+03  0.12500000000E+03 0.  0.
        -13    1    3    3    0    0  0.45772228692E+01  0.32843685507E+02 -0.15079133451E+02  0.36428698530E+02  0.10566000000E+00 0. -1.
         23    2    1    0    0    0 -0.21034368985E+02 -0.19692383816E+02 -0.41370256657E+01  0.95890729306E+02  0.91365651788E+02 0.  0.
         13    1    3    3    0    0 -0.25611591854E+02 -0.52536069323E+02  0.10942107785E+02  0.59462030777E+02  0.10566000000E+00 0.  1.
         22    1    1    0    0    0  0.21034368985E+02  0.19692383816E+02  0.41370256657E+01  0.29109270694E+02  0.00000000000E+00 0.  1.
</event>
<event>
 5    1  0.6903325E-004  0.9118800E+02  0.7818608E-02  0.1130116E+00
         25   -1    0    0    0    0  0.00000000000E+00  0.00000000000E+00  0.99999998245E-14  0.12500000000E+03  0.12500000000E+03 0.  0.
        -13    1    3    3    0    0 -0.27722800606E+02 -0.12248956691E+02  0.16196791726E+02  0.34364776148E+02  0.10566000000E+00 0.  1.
         23    2    1    0    0    0  0.21863698275E+02 -0.39635706808E+01 -0.19023942300E+02  0.95748648314E+02  0.91171059435E+02 0.  0.
         13    1    3    3    0    0  0.49586498882E+02  0.82853860107E+01 -0.35220734026E+02  0.61383872166E+02  0.10566000000E+00 0. -1.
         22    1    1    0    0    0 -0.21863698275E+02  0.39635706808E+01  0.19023942300E+02  0.29251351686E+02  0.00000000000E+00 0. -1.
</event>
<event>
 5    1  0.6903325E-004  0.9118800E+02  0.7818608E-02  0.1130116E+00
         25   -1    0    0    0    0  0.00000000000E+00  0.00000000000E+00  0.99999998245E-14  0.12500000000E+03  0.12500000000E+03 0.  0.
        -13    1    3    3    0    0  0.11356643847E+02 -0.44726620694E+02 -0.30232506754E+02  0.55167559189E+02  0.10566000000E+00 0.  1.
         23    2    1    0    0    0 -0.64344916862E+01 -0.34401887327E+02 -0.22069466143E+01  0.89932021041E+02  0.82813074211E+02 0.  0.
         13    1    3    3    0    0 -0.17791135534E+02  0.10324733367E+02  0.28025560140E+02  0.34764461852E+02  0.10566000000E+00 0. -1.
         22    1    1    0    0    0  0.64344916862E+01  0.34401887327E+02  0.22069466143E+01  0.35067978959E+02  0.00000000000E+00 0.  1.
</event>
<event>
 5    1  0.6903325E-004  0.9118800E+02  0.7818608E-02  0.1130116E+00
         25   -1    0    0    0    0  0.00000000000E+00  0.00000000000E+00  0.99999998245E-14  0.12500000000E+03  0.12500000000E+03 0.  0.
        -13    1    3    3    0    0  0.32007387291E+02  0.28604327894E+02 -0.41725872459E+02  0.59864346752E+02  0.10566000000E+00 0. -1.
         23    2    1    0    0    0  0.47427935516E+01  0.21125994570E+02 -0.20068164799E+02  0.95478262658E+02  0.90799590663E+02 0.  0.
         13    1    3    3    0    0 -0.27264593740E+02 -0.74783333240E+01  0.21657707660E+02  0.35613915907E+02  0.10566000000E+00 0.  1.
         22    1    1    0    0    0 -0.47427935516E+01 -0.21125994570E+02  0.20068164799E+02  0.29521737342E+02  0.00000000000E+00 0. -1.
</event>
<event>
 5    1  0.6903325E-004  0.9118800E+02  0.7818608E-02  0.1130116E+00
         25   -1    0    0    0    0  0.00000000000E+00  0.00000000000E+00  0.99999998245E-14  0.12500000000E+03  0.12500000000E+03 0.  0.
        -13    1    3    3    0    0  0.67614975143E+01 -0.34468811875E+02  0.42432760972E+02  0.55085090619E+02  0.10566000000E+00 0.  1.
         23    2    1    0    0    0 -0.40291248793E+01 -0.29924304926E+02  0.48889452155E+01  0.94412426413E+02  0.89320247443E+02 0.  0.
         13    1    3    3    0    0 -0.10790622394E+02  0.45445069488E+01 -0.37543815757E+02  0.39327335794E+02  0.10566000000E+00 0. -1.
         22    1    1    0    0    0  0.40291248793E+01  0.29924304926E+02 -0.48889452155E+01  0.30587573587E+02  0.00000000000E+00 0.  1.
</event>
<event>
 5    1  0.6903325E-004  0.9118800E+02  0.7818608E-02  0.1130116E+00
         25   -1    0    0    0    0  0.00000000000E+00  0.00000000000E+00  0.99999998245E-14  0.12500000000E+03  0.12500000000E+03 0.  0.
        -13    1    3    3    0    0  0.16789498388E+02 -0.53254686286E+02 -0.28994324156E+00  0.55839449305E+02  0.10566000000E+00 0.  1.
         23    2    1    0    0    0 -0.88330021217E+01 -0.28601043703E+02 -0.11210002991E+02  0.93035867062E+02  0.87372574447E+02 0.  0.
         13    1    3    3    0    0 -0.25622500510E+02  0.24653642583E+02 -0.10920059749E+02  0.37196417757E+02  0.10566000000E+00 0. -1.
         22    1    1    0    0    0  0.88330021217E+01  0.28601043703E+02  0.11210002991E+02  0.31964132938E+02  0.00000000000E+00 0.  1.
</event>
<event>
 5    1  0.6903325E-004  0.9118800E+02  0.7818608E-02  0.1130116E+00
         25   -1    0    0    0    0  0.00000000000E+00  0.00000000000E+00  0.99999998245E-14  0.12500000000E+03  0.12500000000E+03 0.  0.
        -13    1    3    3    0    0  0.42140667681E+02  0.12297155149E+02  0.43859491651E+02  0.62054186557E+02  0.10566000000E+00 0. -1.
         23    2    1    0    0    0  0.22353413291E+02  0.36251577514E+01  0.16173856279E+02  0.97171768267E+02  0.93101783370E+02 0.  0.
         13    1    3    3    0    0 -0.19787254391E+02 -0.86719973972E+01 -0.27685635372E+02  0.35117581710E+02  0.10566000000E+00 0.  1.
         22    1    1    0    0    0 -0.22353413291E+02 -0.36251577514E+01 -0.16173856279E+02  0.27828231733E+02  0.00000000000E+00 0. -1.
</event>
<event>
 5    1  0.6903325E-004  0.9118800E+02  0.7818608E-02  0.1130116E+00
         25   -1    0    0    0    0  0.00000000000E+00  0.00000000000E+00  0.99999998245E-14  0.12500000000E+03  0.12500000000E+03 0.  0.
        -13    1    3    3    0    0 -0.17542886543E+02 -0.21051477773E+02  0.18396431012E+02  0.33005415051E+02  0.10566000000E+00 0.  1.
         23    2    1    0    0    0 -0.39715385759E+01  0.23018128055E+02 -0.20950246292E+02  0.93622935805E+02  0.88208468705E+02 0.  0.
         13    1    3    3    0    0  0.13571347967E+02  0.44069605828E+02 -0.39346677304E+02  0.60617520754E+02  0.10566000000E+00 0. -1.
         22    1    1    0    0    0  0.39715385759E+01 -0.23018128055E+02  0.20950246292E+02  0.31377064195E+02  0.00000000000E+00 0. -1.
</event>
<event>
 5    1  0.6903325E-004  0.9118800E+02  0.7818608E-02  0.1130116E+00
         25   -1    0    0    0    0  0.00000000000E+00  0.00000000000E+00  0.99999998245E-14  0.12500000000E+03  0.12500000000E+03 0.  0.
        -13    1    3    3    0    0 -0.16131011282E+02  0.34110559357E+02  0.17488893111E+00  0.37733029759E+02  0.10566000000E+00 0.  1.
         23    2    1    0    0    0  0.31516883343E+02  0.74203590996E+01 -0.32761064621E+01  0.92456052201E+02  0.86539083946E+02 0.  0.
         13    1    3    3    0    0  0.47647894625E+02 -0.26690200257E+02 -0.34509953932E+01  0.54723022442E+02  0.10566000000E+00 0. -1.
         22    1    1    0    0    0 -0.31516883343E+02 -0.74203590996E+01  0.32761064621E+01  0.32543947799E+02  0.00000000000E+00 0. -1.
</event>
<event>
 5    1  0.6903325E-004  0.9118800E+02  0.7818608E-02  0.1130116E+00
         25   -1    0    0    0    0  0.00000000000E+00  0.00000000000E+00  0.99999998245E-14  0.12500000000E+03  0.12500000000E+03 0.  0.
        -13    1    3    3    0    0 -0.70679873234E+01 -0.17919455141E+02 -0.29223054372E+02  0.35000876964E+02  0.10566000000E+00 0.  1.
         23    2    1    0    0    0  0.68666991835E+01  0.39438226569E+01  0.26972611955E+02  0.96889021887E+02  0.92721386269E+02 0.  0.
         13    1    3    3    0    0  0.13934686507E+02  0.21863277798E+02  0.56195666327E+02  0.61888144923E+02  0.10566000000E+00 0. -1.
         22    1    1    0    0    0 -0.68666991835E+01 -0.39438226569E+01 -0.26972611955E+02  0.28110978113E+02  0.00000000000E+00 0. -1.
</event>
<event>
 5    1  0.6903325E-004  0.9118800E+02  0.7818608E-02  0.1130116E+00
         25   -1    0    0    0    0  0.00000000000E+00  0.00000000000E+00  0.99999998245E-14  0.12500000000E+03  0.12500000000E+03 0.  0.
        -13    1    3    3    0    0  0.56978330399E+02 -0.22693234541E+02  0.15137148918E+01  0.61349943160E+02  0.10566000000E+00 0.  1.
         23    2    1    0    0    0  0.22613845613E+02 -0.17287127809E+02  0.41387796810E+01  0.96236128589E+02  0.91836986815E+02 0.  0.
         13    1    3    3    0    0 -0.34364484786E+02  0.54061067324E+01  0.26250647892E+01  0.34886185429E+02  0.10566000000E+00 0. -1.
         22    1    1    0    0    0 -0.22613845613E+02  0.17287127809E+02 -0.41387796810E+01  0.28763871411E+02  0.00000000000E+00 0.  1.
</event>
<event>
 5    1  0.6903325E-004  0.9118800E+02  0.7818608E-02  0.1130116E+00
         25   -1    0    0    0    0  0.00000000000E+00  0.00000000000E+00  0.99999998245E-14  0.12500000000E+03  0.12500000000E+03 0.  0.
        -13    1    3    3    0    0  0.23539483321E+02  0.17177571951E+02  0.32355396595E+02  0.43543760816E+02  0.10566000000E+00 0.  1.
         23    2    1    0    0    0 -0.79081224951E+01 -0.22539652970E+02  0.13234718559E+02  0.97691903532E+02  0.93797525996E+02 0.  0.
         13    1    3    3    0    0 -0.31447605816E+02 -0.39717224921E+02 -0.19120678036E+02  0.54148142716E+02  0.10566000000E+00 0. -1.
         22    1    1    0    0    0  0.79081224951E+01  0.22539652970E+02 -0.13234718559E+02  0.27308096468E+02  0.00000000000E+00 0. -1.
</event>
<event>
 5    1  0.6903325E-004  0.9118800E+02  0.7818608E-02  0.1130116E+00
         25   -1    0    0    0    0  0.00000000000E+00  0.00000000000E+00  0.99999998245E-14  0.12500000000E+03  0.12500000000E+03 0.  0.
        -13    1    3    3    0    0 -0.23190013159E+02 -0.53837257717E+02 -0.12725205600E+02  0.59984740146E+02  0.10566000000E+00 0. -1.
         23    2    1    0    0    0 -0.12894616560E+02 -0.19763057361E+02 -0.17113569517E+02  0.95849977116E+02  0.91309880512E+02 0.  0.
         13    1    3    3    0    0  0.10295396599E+02  0.34074200356E+02 -0.43883639170E+01  0.35865236970E+02  0.10566000000E+00 0.  1.
         22    1    1    0    0    0  0.12894616560E+02  0.19763057361E+02  0.17113569517E+02  0.29150022884E+02  0.00000000000E+00 0. -1.
</event>
<event>
 5    1  0.6903325E-004  0.9118800E+02  0.7818608E-02  0.1130116E+00
         25   -1    0    0    0    0  0.00000000000E+00  0.00000000000E+00  0.99999998245E-14  0.12500000000E+03  0.12500000000E+03 0.  0.
        -13    1    3    3    0    0 -0.14912775697E+02 -0.53251024160E+02  0.22399816739E+02  0.59664272450E+02  0.10566000000E+00 0.  1.
         23    2    1    0    0    0 -0.18275724194E+02 -0.23536612044E+02  0.36063946456E+01  0.94983666386E+02  0.90116128393E+02 0.  0.
         13    1    3    3    0    0 -0.33629484967E+01  0.29714412116E+02 -0.18793422093E+02  0.35319393936E+02  0.10566000000E+00 0. -1.
         22    1    1    0    0    0  0.18275724194E+02  0.23536612044E+02 -0.36063946456E+01  0.30016333614E+02  0.00000000000E+00 0.  1.
</event>
<event>
 5    1  0.6903325E-004  0.9118800E+02  0.7818608E-02  0.1130116E+00
         25   -1    0    0    0    0  0.00000000000E+00  0.00000000000E+00  0.99999998245E-14  0.12500000000E+03  0.12500000000E+03 0.  0.
        -13    1    3    3    0    0 -0.12148627140E+02  0.47957423975E+02  0.30242153893E+02  0.57983641588E+02  0.10566000000E+00 0. -1.
         23    2    1    0    0    0 -0.11976790233E+02  0.88577843097E+01  0.22768090613E+02  0.97791732924E+02  0.93930470194E+02 0.  0.
         13    1    3    3    0    0  0.17183690691E+00 -0.39099639665E+02 -0.74740632801E+01  0.39808091336E+02  0.10566000000E+00 0.  1.
         22    1    1    0    0    0  0.11976790233E+02 -0.88577843097E+01 -0.22768090613E+02  0.27208267076E+02  0.00000000000E+00 0. -1.
</event>
<event>
 5    1  0.6903325E-004  0.9118800E+02  0.7818608E-02  0.1130116E+00
         25   -1    0    0    0    0  0.00000000000E+00  0.00000000000E+00  0.99999998245E-14  0.12500000000E+03  0.12500000000E+03 0.  0.
        -13    1    3    3    0    0 -0.33492935597E+02 -0.38105313830E+02  0.23371397619E+02  0.55857184567E+02  0.10566000000E+00 0.  1.
         23    2    1    0    0    0 -0.14684215854E+02 -0.17554887905E+01  0.24022574371E+02  0.96790214188E+02  0.92588085341E+02 0.  0.
         13    1    3    3    0    0  0.18808719743E+02  0.36349825040E+02  0.65117675182E+00  0.40933029622E+02  0.10566000000E+00 0. -1.
         22    1    1    0    0    0  0.14684215854E+02  0.17554887905E+01 -0.24022574371E+02  0.28209785812E+02  0.00000000000E+00 0.  1.
</event>
<event>
 5    1  0.6903325E-004  0.9118800E+02  0.7818608E-02  0.1130116E+00
         25   -1    0    0    0    0  0.00000000000E+00  0.00000000000E+00  0.99999998245E-14  0.12500000000E+03  0.12500000000E+03 0.  0.
        -13    1    3    3    0    0  0.13499298382E+02 -0.30682352806E+02  0.23294199761E+02  0.40819955133E+02  0.10566000000E+00 0. -1.
         23    2    1    0    0    0 -0.25253928005E+02 -0.18066892874E+02 -0.88348071987E+01  0.92716454408E+02  0.86914403880E+02 0.  0.
         13    1    3    3    0    0 -0.38753226387E+02  0.12615459932E+02 -0.32129006960E+02  0.51896499274E+02  0.10566000000E+00 0.  1.
         22    1    1    0    0    0  0.25253928005E+02  0.18066892874E+02  0.88348071987E+01  0.32283545592E+02  0.00000000000E+00 0.  1.
</event>
<event>
 5    1  0.6903325E-004  0.9118800E+02  0.7818608E-02  0.1130116E+00
         25   -1    0    0    0    0  0.00000000000E+00  0.00000000000E+00  0.99999998245E-14  0.12500000000E+03  0.12500000000E+03 0.  0.
        -13    1    3    3    0    0 -0.21687484881E+02 -0.36281804068E+01  0.34312644545E+02  0.40753888566E+02  0.10566000000E+00 0.  1.
         23    2    1    0    0    0 -0.10701834407E+02  0.19545328987E+02 -0.16231246304E+02  0.97431857127E+02  0.93450330559E+02 0.  0.
         13    1    3    3    0    0  0.10985650474E+02  0.23173509394E+02 -0.50543890849E+02  0.56677968561E+02  0.10566000000E+00 0. -1.
         22    1    1    0    0    0  0.10701834407E+02 -0.19545328987E+02  0.16231246304E+02  0.27568142873E+02  0.00000000000E+00 0. -1.
</event>
<event>
 5    1  0.6903325E-004  0.9118800E+02  0.7818608E-02  0.1130116E+00
         25   -1    0    0    0    0  0.00000000000E+00  0.00000000000E+00  0.99999998245E-14  0.12500000000E+03  0.12500000000E+03 0.  0.
        -13    1    3    3    0    0 -0.21762925479E+02 -0.31557819337E+02  0.41081798554E+02  0.56189378206E+02  0.10566000000E+00 0. -1.
         23    2    1    0    0    0  0.50778390384E+01 -0.57371287533E+01  0.28479229748E+02  0.95508210928E+02  0.90840809837E+02 0.  0.
         13    1    3    3    0    0  0.26840764517E+02  0.25820690583E+02 -0.12602568805E+02  0.39318832722E+02  0.10566000000E+00 0.  1.
         22    1    1    0    0    0 -0.50778390384E+01  0.57371287533E+01 -0.28479229748E+02  0.29491789072E+02  0.00000000000E+00 0. -1.
</event>
<event>
 5    1  0.6903325E-004  0.9118800E+02  0.7818608E-02  0.1130116E+00
         25   -1    0    0    0    0  0.00000000000E+00  0.00000000000E+00  0.99999998245E-14  0.12500000000E+03  0.12500000000E+03 0.  0.
        -13    1    3    3    0    0  0.46982167007E+02  0.11419281486E+02  0.15615236989E+02  0.50809160558E+02  0.10566000000E+00 0. -1.
         23    2    1    0    0    0  0.18985445103E+02 -0.21611559998E+02  0.21540215980E+01  0.96153051109E+02  0.91723839743E+02 0.  0.
         13    1    3    3    0    0 -0.27996721904E+02 -0.33030841483E+02 -0.13461215391E+02  0.45343890551E+02  0.10566000000E+00 0.  1.
         22    1    1    0    0    0 -0.18985445103E+02  0.21611559998E+02 -0.21540215980E+01  0.28846948891E+02  0.00000000000E+00 0.  1.
</event>
<event>
 5    1  0.6903325E-004  0.9118800E+02  0.7818608E-02  0.1130116E+00
         25   -1    0    0    0    0  0.00000000000E+00  0.00000000000E+00  0.99999998245E-14  0.12500000000E+03  0.12500000000E+03 0.  0.
        -13    1    3    3    0    0 -0.16671368321E+02  0.24991041729E+02  0.31704358554E+01  0.30208434517E+02  0.10566000000E+00 0.  1.
         23    2    1    0    0    0  0.17174398325E+02 -0.27197327172E+02 -0.28832224155E+01  0.92704992110E+02  0.86897917279E+02 0.  0.
         13    1    3    3    0    0  0.33845766646E+02 -0.52188368902E+02 -0.60536582709E+01  0.62496557593E+02  0.10566000000E+00 0. -1.
         22    1    1    0    0    0 -0.17174398325E+02  0.27197327172E+02  0.28832224155E+01  0.32295007890E+02  0.00000000000E+00 0. -1.
</event>
<event>
 5    1  0.6903325E-004  0.9118800E+02  0.7818608E-02  0.1130116E+00
         25   -1    0    0    0    0  0.00000000000E+00  0.00000000000E+00  0.99999998245E-14  0.12500000000E+03  0.12500000000E+03 0.  0.
        -13    1    3    3    0    0  0.18587216703E+02 -0.58602445776E+02 -0.78451719490E+01  0.61978134553E+02  0.10566000000E+00 0.  1.
         23    2    1    0    0    0  0.13968783052E+02 -0.25282857647E+02 -0.31145103019E+01  0.95947461984E+02  0.91443236469E+02 0.  0.
         13    1    3    3    0    0 -0.46184336516E+01  0.33319588129E+02  0.47306616471E+01  0.33969327431E+02  0.10566000000E+00 0. -1.
         22    1    1    0    0    0 -0.13968783052E+02  0.25282857647E+02  0.31145103019E+01  0.29052538016E+02  0.00000000000E+00 0.  1.
</event>
<event>
 5    1  0.6903325E-004  0.9118800E+02  0.7818608E-02  0.1130116E+00
         25   -1    0    0    0    0  0.00000000000E+00  0.00000000000E+00  0.99999998245E-14  0.12500000000E+03  0.12500000000E+03 0.  0.
        -13    1    3    3    0    0  0.23857933176E+02 -0.34205310441E+02 -0.20817711348E+02  0.46611077091E+02  0.10566000000E+00 0.  1.
         23    2    1    0    0    0  0.89938158254E+01 -0.13289663547E+02  0.22741924708E+02  0.97166584476E+02  0.93094823266E+02 0.  0.
         13    1    3    3    0    0 -0.14864117351E+02  0.20915646893E+02  0.43559636056E+02  0.50555507385E+02  0.10566000000E+00 0. -1.
         22    1    1    0    0    0 -0.89938158254E+01  0.13289663547E+02 -0.22741924708E+02  0.27833415524E+02  0.00000000000E+00 0.  1.
</event>
<event>
 5    1  0.6903325E-004  0.9118800E+02  0.7818608E-02  0.1130116E+00
         25   -1    0    0    0    0  0.00000000000E+00  0.00000000000E+00  0.99999998245E-14  0.12500000000E+03  0.12500000000E+03 0.  0.
        -13    1    3    3    0    0 -0.14475685658E+01  0.29213148500E+02  0.20142941750E+02  0.35514120662E+02  0.10566000000E+00 0. -1.
         23    2    1    0    0    0  0.13210745932E+02 -0.29313995927E+01 -0.27219832888E+02  0.94602036020E+02  0.89585205280E+02 0.  0.
         13    1    3    3    0    0  0.14658314498E+02 -0.32144548092E+02 -0.47362774638E+02  0.59087915358E+02  0.10566000000E+00 0.  1.
         22    1    1    0    0    0 -0.13210745932E+02  0.29313995927E+01  0.27219832888E+02  0.30397963980E+02  0.00000000000E+00 0.  1.
</event>
<event>
 5    1  0.6903325E-004  0.9118800E+02  0.7818608E-02  0.1130116E+00
         25   -1    0    0    0    0  0.00000000000E+00  0.00000000000E+00  0.99999998245E-14  0.12500000000E+03  0.12500000000E+03 0.  0.
        -13    1    3    3    0    0 -0.30622958005E+02  0.55022451905E+01 -0.37475235449E+02  0.48707747793E+02  0.10566000000E+00 0.  1.
         23    2    1    0    0    0 -0.28749826063E+02 -0.16080771040E+02  0.73832317392E-01  0.92058397927E+02  0.85962779630E+02 0.  0.
         13    1    3    3    0    0  0.18731319415E+01 -0.21583016231E+02  0.37549067766E+02  0.43350650134E+02  0.10566000000E+00 0. -1.
         22    1    1    0    0    0  0.28749826063E+02  0.16080771040E+02 -0.73832317392E-01  0.32941602073E+02  0.00000000000E+00 0.  1.
</event>
<event>
 5    1  0.6903325E-004  0.9118800E+02  0.7818608E-02  0.1130116E+00
         25   -1    0    0    0    0  0.00000000000E+00  0.00000000000E+00  0.99999998245E-14  0.12500000000E+03  0.12500000000E+03 0.  0.
        -13    1    3    3    0    0 -0.50403456217E+02 -0.10970264888E+02  0.38135531118E+01  0.51724360428E+02  0.10566000000E+00 0.  1.
         23    2    1    0    0    0 -0.15012860353E+02 -0.44590092224E+01 -0.23401490507E+02  0.96841546612E+02  0.92657361569E+02 0.  0.
         13    1    3    3    0    0  0.35390595863E+02  0.65112556659E+01 -0.27215043619E+02  0.45117186184E+02  0.10566000000E+00 0. -1.
         22    1    1    0    0    0  0.15012860353E+02  0.44590092224E+01  0.23401490507E+02  0.28158453388E+02  0.00000000000E+00 0.  1.
</event>
<event>
 5    1  0.6903325E-004  0.9118800E+02  0.7818608E-02  0.1130116E+00
         25   -1    0    0    0    0  0.00000000000E+00  0.00000000000E+00  0.99999998245E-14  0.12500000000E+03  0.12500000000E+03 0.  0.
        -13    1    3    3    0    0 -0.28236084154E+02 -0.30129824113E+02 -0.81539016808E+01  0.42090141673E+02  0.10566000000E+00 0.  1.
         23    2    1    0    0    0 -0.14418817318E+02  0.22385819422E+02 -0.10335309399E+02  0.96436985025E+02  0.92109968279E+02 0.  0.
         13    1    3    3    0    0  0.13817266835E+02  0.52515643535E+02 -0.21814077184E+01  0.54346843352E+02  0.10566000000E+00 0. -1.
         22    1    1    0    0    0  0.14418817318E+02 -0.22385819422E+02  0.10335309399E+02  0.28563014975E+02  0.00000000000E+00 0. -1.
</event>
<event>
 5    1  0.6903325E-004  0.9118800E+02  0.7818608E-02  0.1130116E+00
         25   -1    0    0    0    0  0.00000000000E+00  0.00000000000E+00  0.99999998245E-14  0.12500000000E+03  0.12500000000E+03 0.  0.
        -13    1    3    3    0    0 -0.38506597297E+02 -0.17272026300E+02 -0.33738401235E+02  0.54031211441E+02  0.10566000000E+00 0. -1.
         23    2    1    0    0    0 -0.43671152239E+01 -0.26053365108E+02 -0.90172448807E+01  0.97086558183E+02  0.92987308520E+02 0.  0.
         13    1    3    3    0    0  0.34139482073E+02 -0.87813388085E+01  0.24721156354E+02  0.43055346741E+02  0.10566000000E+00 0.  1.
         22    1    1    0    0    0  0.43671152239E+01  0.26053365108E+02  0.90172448807E+01  0.27913441817E+02  0.00000000000E+00 0.  1.
</event>
<event>
 5    1  0.6903325E-004  0.9118800E+02  0.7818608E-02  0.1130116E+00
         25   -1    0    0    0    0  0.00000000000E+00  0.00000000000E+00  0.99999998245E-14  0.12500000000E+03  0.12500000000E+03 0.  0.
        -13    1    3    3    0    0 -0.14392043155E+02 -0.20523556321E+02  0.51677528232E+02  0.57436272150E+02  0.10566000000E+00 0.  1.
         23    2    1    0    0    0  0.10336300677E+02 -0.64602280044E+01  0.28048383981E+02  0.94417562204E+02  0.89327434482E+02 0.  0.
         13    1    3    3    0    0  0.24728343832E+02  0.14063328317E+02 -0.23629144251E+02  0.36981290055E+02  0.10566000000E+00 0. -1.
         22    1    1    0    0    0 -0.10336300677E+02  0.64602280044E+01 -0.28048383981E+02  0.30582437796E+02  0.00000000000E+00 0.  1.
</event>
<event>
 5    1  0.6903325E-004  0.9118800E+02  0.7818608E-02  0.1130116E+00
         25   -1    0    0    0    0  0.00000000000E+00  0.00000000000E+00  0.99999998245E-14  0.12500000000E+03  0.12500000000E+03 0.  0.
        -13    1    3    3    0    0  0.58024625985E+02 -0.19135825305E+02 -0.28793146063E+01  0.61166483040E+02  0.10566000000E+00 0.  1.
         23    2    1    0    0    0  0.28808937060E+02 -0.20005890590E+01  0.43398705285E+01  0.95797402730E+02  0.91237879647E+02 0.  0.
         13    1    3    3    0    0 -0.29215688925E+02  0.17135236246E+02  0.72191851349E+01  0.34630919691E+02  0.10566000000E+00 0. -1.
         22    1    1    0    0    0 -0.28808937060E+02  0.20005890590E+01 -0.43398705285E+01  0.29202597270E+02  0.00000000000E+00 0.  1.
</event>
<event>
 5    1  0.6903325E-004  0.9118800E+02  0.7818608E-02  0.1130116E+00
         25   -1    0    0    0    0  0.00000000000E+00  0.00000000000E+00  0.99999998245E-14  0.12500000000E+03  0.12500000000E+03 0.  0.
        -13    1    3    3    0    0 -0.19449983502E+02 -0.31460173130E+02  0.14216609305E+02  0.39625339062E+02  0.10566000000E+00 0.  1.
         23    2    1    0    0    0 -0.19298497254E+02  0.22796740347E+02  0.65535900052E+01  0.94421038136E+02  0.89332298381E+02 0.  0.
         13    1    3    3    0    0  0.15148624857E+00  0.54256913478E+02 -0.76630192994E+01  0.54795699074E+02  0.10566000000E+00 0. -1.
         22    1    1    0    0    0  0.19298497254E+02 -0.22796740347E+02 -0.65535900052E+01  0.30578961864E+02  0.00000000000E+00 0. -1.
</event>
<event>
 5    1  0.6903325E-004  0.9118800E+02  0.7818608E-02  0.1130116E+00
         25   -1    0    0    0    0  0.00000000000E+00  0.00000000000E+00  0.99999998245E-14  0.12500000000E+03  0.12500000000E+03 0.  0.
        -13    1    3    3    0    0  0.33058924759E+02  0.17707227410E+00  0.54975519367E+01  0.33513551023E+02  0.10566000000E+00 0.  1.
         23    2    1    0    0    0 -0.16590393294E+02 -0.29002262670E+02  0.57125781995E+01  0.91103009878E+02  0.84562121955E+02 0.  0.
         13    1    3    3    0    0 -0.49649318053E+02 -0.29179334945E+02  0.21502626279E+00  0.57589458855E+02  0.10566000000E+00 0. -1.
         22    1    1    0    0    0  0.16590393294E+02  0.29002262670E+02 -0.57125781995E+01  0.33896990122E+02  0.00000000000E+00 0. -1.
</event>
<event>
 5    1  0.6903325E-004  0.9118800E+02  0.7818608E-02  0.1130116E+00
         25   -1    0    0    0    0  0.00000000000E+00  0.00000000000E+00  0.99999998245E-14  0.12500000000E+03  0.12500000000E+03 0.  0.
        -13    1    3    3    0    0  0.54448081445E-01  0.46969388781E+02  0.12673053316E+01  0.46986632927E+02  0.10566000000E+00 0. -1.
         23    2    1    0    0    0  0.21073969426E+02  0.75543026381E+01 -0.18618315192E+02  0.95882628273E+02  0.91354567856E+02 0.  0.
         13    1    3    3    0    0  0.21019521344E+02 -0.39415086142E+02 -0.19885620524E+02  0.48895995345E+02  0.10566000000E+00 0.  1.
         22    1    1    0    0    0 -0.21073969426E+02 -0.75543026381E+01  0.18618315192E+02  0.29117371727E+02  0.00000000000E+00 0. -1.
</event>
<event>
 5    1  0.6903325E-004  0.9118800E+02  0.7818608E-02  0.1130116E+00
         25   -1    0    0    0    0  0.00000000000E+00  0.00000000000E+00  0.99999998245E-14  0.12500000000E+03  0.12500000000E+03 0.  0.
        -13    1    3    3    0    0  0.16370793360E+02  0.18482045518E+02 -0.40560948919E+02  0.47484635652E+02  0.10566000000E+00 0.  1.
         23    2    1    0    0    0  0.26440503586E+02  0.19823240923E+02  0.26251200273E+01  0.91849549540E+02  0.85658551149E+02 0.  0.
         13    1    3    3    0    0  0.10069710225E+02  0.13411954054E+01  0.43186068947E+02  0.44364913887E+02  0.10566000000E+00 0. -1.
         22    1    1    0    0    0 -0.26440503586E+02 -0.19823240923E+02 -0.26251200273E+01  0.33150450460E+02  0.00000000000E+00 0.  1.
</event>
<event>
 5    1  0.6903325E-004  0.9118800E+02  0.7818608E-02  0.1130116E+00
         25   -1    0    0    0    0  0.00000000000E+00  0.00000000000E+00  0.99999998245E-14  0.12500000000E+03  0.12500000000E+03 0.  0.
        -13    1    3    3    0    0 -0.34631078104E+02 -0.17820255300E+02  0.38995193126E+02  0.55113603771E+02  0.10566000000E+00 0.  1.
         23    2    1    0    0    0 -0.25266727723E+02  0.11002070832E+02  0.16224399686E+02  0.93020565396E+02  0.87350680301E+02 0.  0.
         13    1    3    3    0    0  0.93643503815E+01  0.28822326132E+02 -0.22770793441E+02  0.37906961625E+02  0.10566000000E+00 0. -1.
         22    1    1    0    0    0  0.25266727723E+02 -0.11002070832E+02 -0.16224399686E+02  0.31979434604E+02  0.00000000000E+00 0.  1.
</event>
<event>
 5    1  0.6903325E-004  0.9118800E+02  0.7818608E-02  0.1130116E+00
         25   -1    0    0    0    0  0.00000000000E+00  0.00000000000E+00  0.99999998245E-14  0.12500000000E+03  0.12500000000E+03 0.  0.
        -13    1    3    3    0    0  0.51322951453E+01  0.23198701540E+02 -0.30553936071E+02  0.38704965832E+02  0.10566000000E+00 0. -1.
         23    2    1    0    0    0  0.16498108636E+02  0.43844490040E+01  0.22862615528E+02  0.96467384094E+02  0.92151212817E+02 0.  0.
         13    1    3    3    0    0  0.11365813491E+02 -0.18814252536E+02  0.53416551599E+02  0.57762418263E+02  0.10566000000E+00 0.  1.
         22    1    1    0    0    0 -0.16498108636E+02 -0.43844490040E+01 -0.22862615528E+02  0.28532615906E+02  0.00000000000E+00 0.  1.
</event>
<event>
 5    1  0.6903325E-004  0.9118800E+02  0.7818608E-02  0.1130116E+00
         25   -1    0    0    0    0  0.00000000000E+00  0.00000000000E+00  0.99999998245E-14  0.12500000000E+03  0.12500000000E+03 0.  0.
        -13    1    3    3    0    0 -0.26719290340E+01  0.15684283310E+02 -0.31850661493E+02  0.35603535629E+02  0.10566000000E+00 0.  1.
         23    2    1    0    0    0  0.17657954063E+02 -0.20375096645E+02  0.11628630670E+02  0.95637218180E+02  0.91018155029E+02 0.  0.
         13    1    3    3    0    0  0.20329883097E+02 -0.36059379955E+02  0.43479292163E+02  0.60033682550E+02  0.10566000000E+00 0. -1.
         22    1    1    0    0    0 -0.17657954063E+02  0.20375096645E+02 -0.11628630670E+02  0.29362781820E+02  0.00000000000E+00 0. -1.
</event>
<event>
 5    1  0.6903325E-004  0.9118800E+02  0.7818608E-02  0.1130116E+00
         25   -1    0    0    0    0  0.00000000000E+00  0.00000000000E+00  0.99999998245E-14  0.12500000000E+03  0.12500000000E+03 0.  0.
        -13    1    3    3    0    0 -0.10465788832E+02 -0.37661431337E+02  0.46591931986E+00  0.39091487450E+02  0.10566000000E+00 0. -1.
         23    2    1    0    0    0  0.14051312028E+01  0.91916799341E+01 -0.28213732321E+02  0.95293501297E+02  0.90544880166E+02 0.  0.
         13    1    3    3    0    0  0.11870920034E+02  0.46853111271E+02 -0.28679651641E+02  0.56202013847E+02  0.10566000000E+00 0.  1.
         22    1    1    0    0    0 -0.14051312028E+01 -0.91916799341E+01  0.28213732321E+02  0.29706498703E+02  0.00000000000E+00 0.  1.
</event>
<event>
 5    1  0.6903325E-004  0.9118800E+02  0.7818608E-02  0.1130116E+00
         25   -1    0    0    0    0  0.00000000000E+00  0.00000000000E+00  0.99999998245E-14  0.12500000000E+03  0.12500000000E+03 0.  0.
        -13    1    3    3    0    0 -0.68413586141E+01  0.36321932373E+02  0.14973452274E+02  0.39878595713E+02  0.10566000000E+00 0. -1.
         23    2    1    0    0    0 -0.16516184366E+02 -0.19155805120E+02  0.13759324319E+02  0.96206802513E+02  0.91797062198E+02 0.  0.
         13    1    3    3    0    0 -0.96748257520E+01 -0.55477737492E+02 -0.12141279549E+01  0.56328206800E+02  0.10566000000E+00 0.  1.
         22    1    1    0    0    0  0.16516184366E+02  0.19155805120E+02 -0.13759324319E+02  0.28793197487E+02  0.00000000000E+00 0.  1.
</event>
<event>
 5    1  0.6903325E-004  0.9118800E+02  0.7818608E-02  0.1130116E+00
         25   -1    0    0    0    0  0.00000000000E+00  0.00000000000E+00  0.99999998245E-14  0.12500000000E+03  0.12500000000E+03 0.  0.
        -13    1    3    3    0    0 -0.19717930462E+02 -0.19128563327E+02  0.18615372333E+02  0.33184965990E+02  0.10566000000E+00 0.  1.
         23    2    1    0    0    0  0.15003138027E+02  0.22908486283E+02 -0.11301069369E+02  0.95375566447E+02  0.90658102846E+02 0.  0.
         13    1    3    3    0    0  0.34721068489E+02  0.42037049610E+02 -0.29916441703E+02  0.62190600456E+02  0.10566000000E+00 0. -1.
         22    1    1    0    0    0 -0.15003138027E+02 -0.22908486283E+02  0.11301069369E+02  0.29624433553E+02  0.00000000000E+00 0. -1.
</event>
<event>
 5    1  0.6903325E-004  0.9118800E+02  0.7818608E-02  0.1130116E+00
         25   -1    0    0    0    0  0.00000000000E+00  0.00000000000E+00  0.99999998245E-14  0.12500000000E+03  0.12500000000E+03 0.  0.
        -13    1    3    3    0    0  0.45254860395E+02 -0.25611738473E+02 -0.11713323441E+02  0.53302688929E+02  0.10566000000E+00 0. -1.
         23    2    1    0    0    0  0.24685437942E+02  0.73806731405E+01 -0.19163469162E+02  0.92889507436E+02  0.87162932827E+02 0.  0.
         13    1    3    3    0    0 -0.20569422453E+02  0.32992411614E+02 -0.74501457211E+01  0.39586818506E+02  0.10566000000E+00 0.  1.
         22    1    1    0    0    0 -0.24685437942E+02 -0.73806731405E+01  0.19163469162E+02  0.32110492564E+02  0.00000000000E+00 0. -1.
</event>
<event>
 5    1  0.6903325E-004  0.9118800E+02  0.7818608E-02  0.1130116E+00
         25   -1    0    0    0    0  0.00000000000E+00  0.00000000000E+00  0.99999998245E-14  0.12500000000E+03  0.12500000000E+03 0.  0.
        -13    1    3    3    0    0 -0.19824592077E+02 -0.34767213632E+02 -0.42879786466E+01  0.40251354258E+02  0.10566000000E+00 0. -1.
         23    2    1    0    0    0 -0.18288654836E+02  0.21167011806E+02 -0.66144913120E+01  0.96255108631E+02  0.91862817057E+02 0.  0.
         13    1    3    3    0    0  0.15359372409E+01  0.55934225438E+02 -0.23265126655E+01  0.56003754372E+02  0.10566000000E+00 0.  1.
         22    1    1    0    0    0  0.18288654836E+02 -0.21167011806E+02  0.66144913120E+01  0.28744891369E+02  0.00000000000E+00 0.  1.
</event>
<event>
 5    1  0.6903325E-004  0.9118800E+02  0.7818608E-02  0.1130116E+00
         25   -1    0    0    0    0  0.00000000000E+00  0.00000000000E+00  0.99999998245E-14  0.12500000000E+03  0.12500000000E+03 0.  0.
        -13    1    3    3    0    0 -0.47807786869E+02  0.59533667497E+00  0.27853146747E+02  0.55333062981E+02  0.10566000000E+00 0.  1.
         23    2    1    0    0    0 -0.75242741321E+01 -0.31856128711E+00  0.28387395652E+02  0.95630621143E+02  0.91009094522E+02 0.  0.
         13    1    3    3    0    0  0.40283512737E+02 -0.91389796208E+00  0.53424890586E+00  0.40297558163E+02  0.10566000000E+00 0. -1.
         22    1    1    0    0    0  0.75242741321E+01  0.31856128711E+00 -0.28387395652E+02  0.29369378857E+02  0.00000000000E+00 0. -1.
</event>
<event>
 5    1  0.6903325E-004  0.9118800E+02  0.7818608E-02  0.1130116E+00
         25   -1    0    0    0    0  0.00000000000E+00  0.00000000000E+00  0.99999998245E-14  0.12500000000E+03  0.12500000000E+03 0.  0.
        -13    1    3    3    0    0  0.33079226417E+02 -0.38164491577E+02  0.29761191689E+02  0.58621696772E+02  0.10566000000E+00 0.  1.
         23    2    1    0    0    0  0.25012826034E+02 -0.96944767820E+01  0.39558652621E+01  0.97884078178E+02  0.94053280349E+02 0.  0.
         13    1    3    3    0    0 -0.80664003825E+01  0.28470014795E+02 -0.25805326427E+02  0.39262381405E+02  0.10566000000E+00 0. -1.
         22    1    1    0    0    0 -0.25012826034E+02  0.96944767820E+01 -0.39558652621E+01  0.27115921822E+02  0.00000000000E+00 0.  1.
</event>
<event>
 5    1  0.6903325E-004  0.9118800E+02  0.7818608E-02  0.1130116E+00
         25   -1    0    0    0    0  0.00000000000E+00  0.00000000000E+00  0.99999998245E-14  0.12500000000E+03  0.12500000000E+03 0.  0.
        -13    1    3    3    0    0  0.35885306854E+02 -0.46013111594E+02 -0.92942774908E+01  0.59087701298E+02  0.10566000000E+00 0.  1.
         23    2    1    0    0    0  0.60535782769E+01 -0.29990343015E+02  0.70803983091E+00  0.94396604689E+02  0.89298102848E+02 0.  0.
         13    1    3    3    0    0 -0.29831728577E+02  0.16022768579E+02  0.10002317322E+02  0.35308903391E+02  0.10566000000E+00 0. -1.
         22    1    1    0    0    0 -0.60535782769E+01  0.29990343015E+02 -0.70803983091E+00  0.30603395311E+02  0.00000000000E+00 0.  1.
</event>
<event>
 5    1  0.6903325E-004  0.9118800E+02  0.7818608E-02  0.1130116E+00
         25   -1    0    0    0    0  0.00000000000E+00  0.00000000000E+00  0.99999998245E-14  0.12500000000E+03  0.12500000000E+03 0.  0.
        -13    1    3    3    0    0  0.16684176621E+01  0.22807833213E+01  0.36539447583E+02  0.36648710533E+02  0.10566000000E+00 0. -1.
         23    2    1    0    0    0 -0.69713912076E+00  0.32088770733E+02 -0.94829518051E+01  0.91532081256E+02  0.85194015717E+02 0.  0.
         13    1    3    3    0    0 -0.23655567828E+01  0.29807987412E+02 -0.46022399388E+02  0.54883370723E+02  0.10566000000E+00 0.  1.
         22    1    1    0    0    0  0.69713912076E+00 -0.32088770733E+02  0.94829518051E+01  0.33467918744E+02  0.00000000000E+00 0.  1.
</event>
<event>
 5    1  0.6903325E-004  0.9118800E+02  0.7818608E-02  0.1130116E+00
         25   -1    0    0    0    0  0.00000000000E+00  0.00000000000E+00  0.99999998245E-14  0.12500000000E+03  0.12500000000E+03 0.  0.
        -13    1    3    3    0    0  0.29432522891E+02 -0.25668102104E+02  0.11508770722E+02  0.40713484706E+02  0.10566000000E+00 0. -1.
         23    2    1    0    0    0  0.29506203340E+01  0.14390394229E+02  0.29540991094E+02  0.92008186451E+02  0.85889735200E+02 0.  0.
         13    1    3    3    0    0 -0.26481902557E+02  0.40058496333E+02  0.18032220373E+02  0.51294701745E+02  0.10566000000E+00 0.  1.
         22    1    1    0    0    0 -0.29506203340E+01 -0.14390394229E+02 -0.29540991094E+02  0.32991813549E+02  0.00000000000E+00 0.  1.
</event>
<event>
 5    1  0.6903325E-004  0.9118800E+02  0.7818608E-02  0.1130116E+00
         25   -1    0    0    0    0  0.00000000000E+00  0.00000000000E+00  0.99999998245E-14  0.12500000000E+03  0.12500000000E+03 0.  0.
        -13    1    3    3    0    0  0.42574675727E+02 -0.29215366558E+02  0.29128679492E+02  0.59284330049E+02  0.10566000000E+00 0. -1.
         23    2    1    0    0    0  0.32019406784E+02 -0.75464158742E+01  0.84674297701E+01  0.91031070517E+02  0.84455714012E+02 0.  0.
         13    1    3    3    0    0 -0.10555268944E+02  0.21668950684E+02 -0.20661249722E+02  0.31746740468E+02  0.10566000000E+00 0.  1.
         22    1    1    0    0    0 -0.32019406784E+02  0.75464158742E+01 -0.84674297701E+01  0.33968929483E+02  0.00000000000E+00 0. -1.
</event>
<event>
 5    1  0.6903325E-004  0.9118800E+02  0.7818608E-02  0.1130116E+00
         25   -1    0    0    0    0  0.00000000000E+00  0.00000000000E+00  0.99999998245E-14  0.12500000000E+03  0.12500000000E+03 0.  0.
        -13    1    3    3    0    0  0.20143576684E+02 -0.33725166576E+02  0.40569993597E+02  0.56471993826E+02  0.10566000000E+00 0.  1.
         23    2    1    0    0    0 -0.99939093815E+01 -0.17334587102E+02  0.21112526581E+02  0.95912117413E+02  0.91394908793E+02 0.  0.
         13    1    3    3    0    0 -0.30137486066E+02  0.16390579474E+02 -0.19457467016E+02  0.39440123587E+02  0.10566000000E+00 0. -1.
         22    1    1    0    0    0  0.99939093815E+01  0.17334587102E+02 -0.21112526581E+02  0.29087882587E+02  0.00000000000E+00 0.  1.
</event>
<event>
 5    1  0.6903325E-004  0.9118800E+02  0.7818608E-02  0.1130116E+00
         25   -1    0    0    0    0  0.00000000000E+00  0.00000000000E+00  0.99999998245E-14  0.12500000000E+03  0.12500000000E+03 0.  0.
        -13    1    3    3    0    0  0.14730095182E+02  0.53853233273E+02  0.15792466828E+02  0.58022061413E+02  0.10566000000E+00 0.  1.
         23    2    1    0    0    0  0.49777173779E+01  0.18919845829E+02  0.22794677017E+02  0.94961099607E+02  0.90084820596E+02 0.  0.
         13    1    3    3    0    0 -0.97523778043E+01 -0.34933387444E+02  0.70022101888E+01  0.36939038194E+02  0.10566000000E+00 0. -1.
         22    1    1    0    0    0 -0.49777173779E+01 -0.18919845829E+02 -0.22794677017E+02  0.30038900393E+02  0.00000000000E+00 0.  1.
</event>
<event>
 5    1  0.6903325E-004  0.9118800E+02  0.7818608E-02  0.1130116E+00
         25   -1    0    0    0    0  0.00000000000E+00  0.00000000000E+00  0.99999998245E-14  0.12500000000E+03  0.12500000000E+03 0.  0.
        -13    1    3    3    0    0 -0.48084163369E+01 -0.55560453111E+02  0.27686407494E+02  0.62262614316E+02  0.10566000000E+00 0. -1.
         23    2    1    0    0    0  0.14190702995E+01 -0.26287324851E+02  0.11723295327E+02  0.96182073953E+02  0.91763383156E+02 0.  0.
         13    1    3    3    0    0  0.62274866364E+01  0.29273128260E+02 -0.15963112167E+02  0.33919459637E+02  0.10566000000E+00 0.  1.
         22    1    1    0    0    0 -0.14190702995E+01  0.26287324851E+02 -0.11723295327E+02  0.28817926047E+02  0.00000000000E+00 0. -1.
</event>
<event>
 5    1  0.6903325E-004  0.9118800E+02  0.7818608E-02  0.1130116E+00
         25   -1    0    0    0    0  0.00000000000E+00  0.00000000000E+00  0.99999998245E-14  0.12500000000E+03  0.12500000000E+03 0.  0.
        -13    1    3    3    0    0 -0.56772027643E+02  0.69007839235E+01 -0.14431893378E+02  0.58982833537E+02  0.10566000000E+00 0.  1.
         23    2    1    0    0    0 -0.26985244442E+02  0.13030244454E+02  0.43397632724E+01  0.94720894443E+02  0.89750897548E+02 0.  0.
         13    1    3    3    0    0  0.29786783202E+02  0.61294605302E+01  0.18771656650E+02  0.35738060906E+02  0.10566000000E+00 0. -1.
         22    1    1    0    0    0  0.26985244442E+02 -0.13030244454E+02 -0.43397632724E+01  0.30279105557E+02  0.00000000000E+00 0.  1.
</event>
<event>
 5    1  0.6903325E-004  0.9118800E+02  0.7818608E-02  0.1130116E+00
         25   -1    0    0    0    0  0.00000000000E+00  0.00000000000E+00  0.99999998245E-14  0.12500000000E+03  0.12500000000E+03 0.  0.
        -13    1    3    3    0    0 -0.69502335663E+01  0.50801571009E+02 -0.22796406004E+02  0.56114103881E+02  0.10566000000E+00 0.  1.
         23    2    1    0    0    0 -0.22911094584E+02  0.21361417038E+02 -0.83799878363E+01  0.92573890319E+02  0.86709126277E+02 0.  0.
         13    1    3    3    0    0 -0.15960861018E+02 -0.29440153971E+02  0.14416418168E+02  0.36459786438E+02  0.10566000000E+00 0. -1.
         22    1    1    0    0    0  0.22911094584E+02 -0.21361417038E+02  0.83799878363E+01  0.32426109681E+02  0.00000000000E+00 0.  1.
</event>
<event>
 5    1  0.6903325E-004  0.9118800E+02  0.7818608E-02  0.1130116E+00
         25   -1    0    0    0    0  0.00000000000E+00  0.00000000000E+00  0.99999998245E-14  0.12500000000E+03  0.12500000000E+03 0.  0.
        -13    1    3    3    0    0 -0.38517367095E+02  0.79360269117E+00  0.43914320481E+02  0.58418285498E+02  0.10566000000E+00 0. -1.
         23    2    1    0    0    0 -0.54832400854E+01  0.88313465526E+01  0.26324993719E+02  0.96696927762E+02  0.92462056761E+02 0.  0.
         13    1    3    3    0    0  0.33034127009E+02  0.80377438615E+01 -0.17589326762E+02  0.38278642265E+02  0.10566000000E+00 0.  1.
         22    1    1    0    0    0  0.54832400854E+01 -0.88313465526E+01 -0.26324993719E+02  0.28303072238E+02  0.00000000000E+00 0. -1.
</event>
<event>
 5    1  0.6903325E-004  0.9118800E+02  0.7818608E-02  0.1130116E+00
         25   -1    0    0    0    0  0.00000000000E+00  0.00000000000E+00  0.99999998245E-14  0.12500000000E+03  0.12500000000E+03 0.  0.
        -13    1    3    3    0    0  0.28467719777E+02  0.28672329089E+01  0.98740421876E+01  0.30267804133E+02  0.10566000000E+00 0. -1.
         23    2    1    0    0    0 -0.29855968113E+02  0.16416751986E+02  0.70183678467E+01  0.90212846265E+02  0.83235879081E+02 0.  0.
         13    1    3    3    0    0 -0.58323687890E+02  0.13549519077E+02 -0.28556743409E+01  0.59945042133E+02  0.10566000000E+00 0.  1.
         22    1    1    0    0    0  0.29855968113E+02 -0.16416751986E+02 -0.70183678467E+01  0.34787153735E+02  0.00000000000E+00 0.  1.
</event>
<event>
 5    1  0.6903325E-004  0.9118800E+02  0.7818608E-02  0.1130116E+00
         25   -1    0    0    0    0  0.00000000000E+00  0.00000000000E+00  0.99999998245E-14  0.12500000000E+03  0.12500000000E+03 0.  0.
        -13    1    3    3    0    0 -0.30802389818E+02  0.36147851111E+02  0.24144935484E+02  0.53277044138E+02  0.10566000000E+00 0.  1.
         23    2    1    0    0    0 -0.15782393919E+02 -0.30555888071E+01  0.25010986125E+02  0.95268366884E+02  0.90510174683E+02 0.  0.
         13    1    3    3    0    0  0.15019995899E+02 -0.39203439919E+02  0.86605064090E+00  0.41991322747E+02  0.10566000000E+00 0. -1.
         22    1    1    0    0    0  0.15782393919E+02  0.30555888071E+01 -0.25010986125E+02  0.29731633116E+02  0.00000000000E+00 0.  1.
</event>
<event>
 5    1  0.6903325E-004  0.9118800E+02  0.7818608E-02  0.1130116E+00
         25   -1    0    0    0    0  0.00000000000E+00  0.00000000000E+00  0.99999998245E-14  0.12500000000E+03  0.12500000000E+03 0.  0.
        -13    1    3    3    0    0 -0.86214426375E+01  0.30237972428E+02 -0.16732998278E+02  0.35618375105E+02  0.10566000000E+00 0.  1.
         23    2    1    0    0    0  0.19177054315E+02 -0.21656581308E+02 -0.58776092933E+01  0.95481984871E+02  0.90804714734E+02 0.  0.
         13    1    3    3    0    0  0.27798496952E+02 -0.51894553736E+02  0.10855388985E+02  0.59863609766E+02  0.10566000000E+00 0. -1.
         22    1    1    0    0    0 -0.19177054315E+02  0.21656581308E+02  0.58776092933E+01  0.29518015129E+02  0.00000000000E+00 0. -1.
</event>
<event>
 5    1  0.6903325E-004  0.9118800E+02  0.7818608E-02  0.1130116E+00
         25   -1    0    0    0    0  0.00000000000E+00  0.00000000000E+00  0.99999998245E-14  0.12500000000E+03  0.12500000000E+03 0.  0.
        -13    1    3    3    0    0 -0.18388070355E+02 -0.35418761848E+02 -0.17078941095E+02  0.43408653690E+02  0.10566000000E+00 0. -1.
         23    2    1    0    0    0  0.17943376982E+02 -0.54256696958E+00 -0.24826557950E+02  0.94363140890E+02  0.89251247737E+02 0.  0.
         13    1    3    3    0    0  0.36331447337E+02  0.34876194879E+02 -0.77476168552E+01  0.50954487200E+02  0.10566000000E+00 0.  1.
         22    1    1    0    0    0 -0.17943376982E+02  0.54256696958E+00  0.24826557950E+02  0.30636859110E+02  0.00000000000E+00 0.  1.
</event>
<event>
 5    1  0.6903325E-004  0.9118800E+02  0.7818608E-02  0.1130116E+00
         25   -1    0    0    0    0  0.00000000000E+00  0.00000000000E+00  0.99999998245E-14  0.12500000000E+03  0.12500000000E+03 0.  0.
        -13    1    3    3    0    0  0.28896220670E+02  0.22595001836E+02 -0.41975630129E+02  0.55744868515E+02  0.10566000000E+00 0.  1.
         23    2    1    0    0    0  0.74402856419E+01 -0.12046877271E+02 -0.84602707269E+01  0.10850571968E+03  0.10724471978E+03 0.  0.
         13    1    3    3    0    0 -0.21455935028E+02 -0.34641879107E+02  0.33515359402E+02  0.52760851167E+02  0.10566000000E+00 0. -1.
         22    1    1    0    0    0 -0.74402856419E+01  0.12046877271E+02  0.84602707269E+01  0.16494280318E+02  0.00000000000E+00 0. -1.
</event>
<event>
 5    1  0.6903325E-004  0.9118800E+02  0.7818608E-02  0.1130116E+00
         25   -1    0    0    0    0  0.00000000000E+00  0.00000000000E+00  0.99999998245E-14  0.12500000000E+03  0.12500000000E+03 0.  0.
        -13    1    3    3    0    0 -0.37469169587E+02  0.38826209089E+02  0.29053105972E+02  0.61282194089E+02  0.10566000000E+00 0.  1.
         23    2    1    0    0    0 -0.13642905888E+02  0.20751140658E+02  0.49859067415E+01  0.99670215443E+02  0.96397893446E+02 0.  0.
         13    1    3    3    0    0  0.23826263699E+02 -0.18075068432E+02 -0.24067199230E+02  0.38388021354E+02  0.10566000000E+00 0. -1.
         22    1    1    0    0    0  0.13642905888E+02 -0.20751140658E+02 -0.49859067415E+01  0.25329784557E+02  0.00000000000E+00 0.  1.
</event>
<event>
 5    1  0.6903325E-004  0.9118800E+02  0.7818608E-02  0.1130116E+00
         25   -1    0    0    0    0  0.00000000000E+00  0.00000000000E+00  0.99999998245E-14  0.12500000000E+03  0.12500000000E+03 0.  0.
        -13    1    3    3    0    0 -0.30743221734E+02 -0.12687239607E+01  0.20223769068E+02  0.36820746088E+02  0.10566000000E+00 0.  1.
         23    2    1    0    0    0  0.25733355223E+02 -0.10350886210E+02  0.73038940274E+00  0.97253290555E+02  0.93211172285E+02 0.  0.
         13    1    3    3    0    0  0.56476576957E+02 -0.90821622495E+01 -0.19493379665E+02  0.60432544467E+02  0.10566000000E+00 0. -1.
         22    1    1    0    0    0 -0.25733355223E+02  0.10350886210E+02 -0.73038940274E+00  0.27746709445E+02  0.00000000000E+00 0. -1.
</event>
<event>
 5    1  0.6903325E-004  0.9118800E+02  0.7818608E-02  0.1130116E+00
         25   -1    0    0    0    0  0.00000000000E+00  0.00000000000E+00  0.99999998245E-14  0.12500000000E+03  0.12500000000E+03 0.  0.
        -13    1    3    3    0    0 -0.93539480948E+01  0.30207748592E+02  0.29850046101E+02  0.43486099345E+02  0.10566000000E+00 0. -1.
         23    2    1    0    0    0  0.55494895164E+01  0.22316230564E+02 -0.19003240422E+02  0.95168236274E+02  0.90371782480E+02 0.  0.
         13    1    3    3    0    0  0.14903437611E+02 -0.78915180284E+01 -0.48853286523E+02  0.51682136929E+02  0.10566000000E+00 0.  1.
         22    1    1    0    0    0 -0.55494895164E+01 -0.22316230564E+02  0.19003240422E+02  0.29831763726E+02  0.00000000000E+00 0.  1.
</event>
<event>
 5    1  0.6903325E-004  0.9118800E+02  0.7818608E-02  0.1130116E+00
         25   -1    0    0    0    0  0.00000000000E+00  0.00000000000E+00  0.99999998245E-14  0.12500000000E+03  0.12500000000E+03 0.  0.
        -13    1    3    3    0    0  0.20867737651E+02  0.56929284817E+02  0.49047681148E+01  0.60831520273E+02  0.10566000000E+00 0.  1.
         23    2    1    0    0    0  0.15975589182E+02  0.21844909642E+02  0.89722227585E+01  0.96488242632E+02  0.92179502374E+02 0.  0.
         13    1    3    3    0    0 -0.48921484687E+01 -0.35084375175E+02  0.40674546437E+01  0.35656722359E+02  0.10566000000E+00 0. -1.
         22    1    1    0    0    0 -0.15975589182E+02 -0.21844909642E+02 -0.89722227585E+01  0.28511757368E+02  0.00000000000E+00 0.  1.
</event>
<event>
 5    1  0.6903325E-004  0.9118800E+02  0.7818608E-02  0.1130116E+00
         25   -1    0    0    0    0  0.00000000000E+00  0.00000000000E+00  0.99999998245E-14  0.12500000000E+03  0.12500000000E+03 0.  0.
        -13    1    3    3    0    0 -0.33325967124E+02  0.15616134725E+02  0.48834166293E+02  0.61149576532E+02  0.10566000000E+00 0. -1.
         23    2    1    0    0    0 -0.11914422282E+02  0.14792556093E+02  0.28907512080E+02  0.90410732464E+02  0.83532527293E+02 0.  0.
         13    1    3    3    0    0  0.21411544842E+02 -0.82357863198E+00 -0.19926654213E+02  0.29261155932E+02  0.10566000000E+00 0.  1.
         22    1    1    0    0    0  0.11914422282E+02 -0.14792556093E+02 -0.28907512080E+02  0.34589267536E+02  0.00000000000E+00 0. -1.
</event>
<event>
 5    1  0.6903325E-004  0.9118800E+02  0.7818608E-02  0.1130116E+00
         25   -1    0    0    0    0  0.00000000000E+00  0.00000000000E+00  0.99999998245E-14  0.12500000000E+03  0.12500000000E+03 0.  0.
        -13    1    3    3    0    0 -0.23584103253E+01  0.49649188618E+02 -0.32371952009E+02  0.59317438166E+02  0.10566000000E+00 0.  1.
         23    2    1    0    0    0  0.12968877882E+02  0.23451365695E+02 -0.15298416583E+02  0.94142263588E+02  0.88941362128E+02 0.  0.
         13    1    3    3    0    0  0.15327288208E+02 -0.26197822923E+02  0.17073535426E+02  0.34824825422E+02  0.10566000000E+00 0. -1.
         22    1    1    0    0    0 -0.12968877882E+02 -0.23451365695E+02  0.15298416583E+02  0.30857736412E+02  0.00000000000E+00 0. -1.
</event>
<event>
 5    1  0.6903325E-004  0.9118800E+02  0.7818608E-02  0.1130116E+00
         25   -1    0    0    0    0  0.00000000000E+00  0.00000000000E+00  0.99999998245E-14  0.12500000000E+03  0.12500000000E+03 0.  0.
        -13    1    3    3    0    0  0.17732110609E+02  0.39180702007E+02 -0.39416032739E+02  0.58336866194E+02  0.10566000000E+00 0.  1.
         23    2    1    0    0    0 -0.33196696880E+01  0.26354141919E+02 -0.10242287154E+02  0.96531325123E+02  0.92237905877E+02 0.  0.
         13    1    3    3    0    0 -0.21051780297E+02 -0.12826560088E+02  0.29173745585E+02  0.38194458929E+02  0.10566000000E+00 0. -1.
         22    1    1    0    0    0  0.33196696880E+01 -0.26354141919E+02  0.10242287154E+02  0.28468674877E+02  0.00000000000E+00 0.  1.
</event>
<event>
 5    1  0.6903325E-004  0.9118800E+02  0.7818608E-02  0.1130116E+00
         25   -1    0    0    0    0  0.00000000000E+00  0.00000000000E+00  0.99999998245E-14  0.12500000000E+03  0.12500000000E+03 0.  0.
        -13    1    3    3    0    0 -0.48689775760E+01 -0.54073906484E+02 -0.15525684340E+01  0.54314969740E+02  0.10566000000E+00 0. -1.
         23    2    1    0    0    0  0.19978081565E+02 -0.19037237707E+02 -0.26091675684E+01  0.97280910586E+02  0.93248204521E+02 0.  0.
         13    1    3    3    0    0  0.24847059141E+02  0.35036668777E+02 -0.10565991344E+01  0.42965940845E+02  0.10566000000E+00 0.  1.
         22    1    1    0    0    0 -0.19978081565E+02  0.19037237707E+02  0.26091675684E+01  0.27719089414E+02  0.00000000000E+00 0. -1.
</event>
<event>
 5    1  0.6903325E-004  0.9118800E+02  0.7818608E-02  0.1130116E+00
         25   -1    0    0    0    0  0.00000000000E+00  0.00000000000E+00  0.99999998245E-14  0.12500000000E+03  0.12500000000E+03 0.  0.
        -13    1    3    3    0    0  0.43747511935E+02  0.32007437855E+02 -0.15743947732E+02  0.56446469622E+02  0.10566000000E+00 0. -1.
         23    2    1    0    0    0  0.27203480664E+02  0.28985447939E+01  0.67992042829E+01  0.96810283772E+02  0.92615176634E+02 0.  0.
         13    1    3    3    0    0 -0.16544031271E+02 -0.29108893061E+02  0.22543152015E+02  0.40363814150E+02  0.10566000000E+00 0.  1.
         22    1    1    0    0    0 -0.27203480664E+02 -0.28985447939E+01 -0.67992042829E+01  0.28189716228E+02  0.00000000000E+00 0. -1.
</event>
<event>
 5    1  0.6903325E-004  0.9118800E+02  0.7818608E-02  0.1130116E+00
         25   -1    0    0    0    0  0.00000000000E+00  0.00000000000E+00  0.99999998245E-14  0.12500000000E+03  0.12500000000E+03 0.  0.
        -13    1    3    3    0    0  0.30992392042E+01 -0.93496717164E+00 -0.60892897847E+02  0.60978976865E+02  0.10566000000E+00 0.  1.
         23    2    1    0    0    0 -0.39618974588E+01  0.76682372557E+01 -0.27357329604E+02  0.96313383309E+02  0.91942078654E+02 0.  0.
         13    1    3    3    0    0 -0.70611366630E+01  0.86032044274E+01  0.33535568242E+02  0.35334406444E+02  0.10566000000E+00 0. -1.
         22    1    1    0    0    0  0.39618974588E+01 -0.76682372557E+01  0.27357329604E+02  0.28686616691E+02  0.00000000000E+00 0.  1.
</event>
<event>
 5    1  0.6903325E-004  0.9118800E+02  0.7818608E-02  0.1130116E+00
         25   -1    0    0    0    0  0.00000000000E+00  0.00000000000E+00  0.99999998245E-14  0.12500000000E+03  0.12500000000E+03 0.  0.
        -13    1    3    3    0    0  0.32810539571E+02 -0.50679379264E+01 -0.14407114287E+01  0.33231044450E+02  0.10566000000E+00 0.  1.
         23    2    1    0    0    0 -0.28841712979E+02 -0.76556005944E+01 -0.33841532144E+01  0.94968264769E+02  0.90094762290E+02 0.  0.
         13    1    3    3    0    0 -0.61652252551E+02 -0.25876626680E+01 -0.19434417857E+01  0.61737220318E+02  0.10566000000E+00 0. -1.
         22    1    1    0    0    0  0.28841712979E+02  0.76556005944E+01  0.33841532144E+01  0.30031735231E+02  0.00000000000E+00 0. -1.
</event>
<event>
 5    1  0.6903325E-004  0.9118800E+02  0.7818608E-02  0.1130116E+00
         25   -1    0    0    0    0  0.00000000000E+00  0.00000000000E+00  0.99999998245E-14  0.12500000000E+03  0.12500000000E+03 0.  0.
        -13    1    3    3    0    0 -0.39925967928E+02 -0.81811010072E+00 -0.16590570502E+02  0.43243617018E+02  0.10566000000E+00 0.  1.
         23    2    1    0    0    0  0.65649355559E+01 -0.25204007234E+02 -0.13068898273E+02  0.95860053851E+02  0.91323674164E+02 0.  0.
         13    1    3    3    0    0  0.46490903484E+02 -0.24385897133E+02  0.35216722296E+01  0.52616436834E+02  0.10566000000E+00 0. -1.
         22    1    1    0    0    0 -0.65649355559E+01  0.25204007234E+02  0.13068898273E+02  0.29139946149E+02  0.00000000000E+00 0. -1.
</event>
<event>
 5    1  0.6903325E-004  0.9118800E+02  0.7818608E-02  0.1130116E+00
         25   -1    0    0    0    0  0.00000000000E+00  0.00000000000E+00  0.99999998245E-14  0.12500000000E+03  0.12500000000E+03 0.  0.
        -13    1    3    3    0    0  0.37748111821E+02 -0.24501492032E+02  0.86654940896E+01  0.45829521160E+02  0.10566000000E+00 0. -1.
         23    2    1    0    0    0  0.88562729821E+01  0.14308512512E+02  0.23191612555E+02  0.96346588434E+02  0.91987211657E+02 0.  0.
         13    1    3    3    0    0 -0.28891838839E+02  0.38810004544E+02  0.14526118466E+02  0.50517067274E+02  0.10566000000E+00 0.  1.
         22    1    1    0    0    0 -0.88562729821E+01 -0.14308512512E+02 -0.23191612555E+02  0.28653411566E+02  0.00000000000E+00 0.  1.
</event>
<event>
 5    1  0.6903325E-004  0.9118800E+02  0.7818608E-02  0.1130116E+00
         25   -1    0    0    0    0  0.00000000000E+00  0.00000000000E+00  0.99999998245E-14  0.12500000000E+03  0.12500000000E+03 0.  0.
        -13    1    3    3    0    0 -0.12825859902E+02 -0.16660827715E+02  0.35980641640E+02  0.41673775918E+02  0.10566000000E+00 0.  1.
         23    2    1    0    0    0  0.27420446473E+02 -0.69831640904E+01 -0.27919500574E+00  0.96702943344E+02  0.92470188905E+02 0.  0.
         13    1    3    3    0    0  0.40246306375E+02  0.96776636249E+01 -0.36259836646E+02  0.55029167427E+02  0.10566000000E+00 0. -1.
         22    1    1    0    0    0 -0.27420446473E+02  0.69831640904E+01  0.27919500574E+00  0.28297056656E+02  0.00000000000E+00 0. -1.
</event>
<event>
 5    1  0.6903325E-004  0.9118800E+02  0.7818608E-02  0.1130116E+00
         25   -1    0    0    0    0  0.00000000000E+00  0.00000000000E+00  0.99999998245E-14  0.12500000000E+03  0.12500000000E+03 0.  0.
        -13    1    3    3    0    0  0.13910160018E+02 -0.41397450941E+02  0.18739199381E+02  0.47522734071E+02  0.10566000000E+00 0.  1.
         23    2    1    0    0    0  0.17492117697E+02 -0.10120099285E+02 -0.19406638019E+02  0.96982002387E+02  0.92846650972E+02 0.  0.
         13    1    3    3    0    0  0.35819576783E+01  0.31277351655E+02 -0.38145837400E+02  0.49459268316E+02  0.10566000000E+00 0. -1.
         22    1    1    0    0    0 -0.17492117697E+02  0.10120099285E+02  0.19406638019E+02  0.28017997613E+02  0.00000000000E+00 0. -1.
</event>
<event>
 5    1  0.6903325E-004  0.9118800E+02  0.7818608E-02  0.1130116E+00
         25   -1    0    0    0    0  0.00000000000E+00  0.00000000000E+00  0.99999998245E-14  0.12500000000E+03  0.12500000000E+03 0.  0.
        -13    1    3    3    0    0 -0.14450835084E+01 -0.31726703069E+02  0.47335004410E+02  0.57002506616E+02  0.10566000000E+00 0.  1.
         23    2    1    0    0    0  0.13283253973E+02 -0.24102981274E+02  0.14256717986E+02  0.94005604537E+02  0.88749090892E+02 0.  0.
         13    1    3    3    0    0  0.14728337481E+02  0.76237217949E+01 -0.33078286424E+02  0.37003097921E+02  0.10566000000E+00 0. -1.
         22    1    1    0    0    0 -0.13283253973E+02  0.24102981274E+02 -0.14256717986E+02  0.30994395463E+02  0.00000000000E+00 0.  1.
</event>
<event>
 5    1  0.6903325E-004  0.9118800E+02  0.7818608E-02  0.1130116E+00
         25   -1    0    0    0    0  0.00000000000E+00  0.00000000000E+00  0.99999998245E-14  0.12500000000E+03  0.12500000000E+03 0.  0.
        -13    1    3    3    0    0 -0.14825985280E+02 -0.21076312298E+02 -0.55220589606E+02  0.60937225570E+02  0.10566000000E+00 0.  1.
         23    2    1    0    0    0 -0.12799107068E+02 -0.17967876366E+02 -0.23907743811E+02  0.92469369250E+02  0.86558317409E+02 0.  0.
         13    1    3    3    0    0  0.20268782123E+01  0.31084359316E+01  0.31312845796E+02  0.31532143681E+02  0.10566000000E+00 0. -1.
         22    1    1    0    0    0  0.12799107068E+02  0.17967876366E+02  0.23907743811E+02  0.32530630750E+02  0.00000000000E+00 0.  1.
</event>
<event>
 5    1  0.6903325E-004  0.9118800E+02  0.7818608E-02  0.1130116E+00
         25   -1    0    0    0    0  0.00000000000E+00  0.00000000000E+00  0.99999998245E-14  0.12500000000E+03  0.12500000000E+03 0.  0.
        -13    1    3    3    0    0 -0.52504041554E+00  0.34922640926E+02  0.12772217394E+02  0.37188805007E+02  0.10566000000E+00 0.  1.
         23    2    1    0    0    0  0.68665558552E+01 -0.23585898861E+02  0.15022766670E+02  0.96205421816E+02  0.91795182085E+02 0.  0.
         13    1    3    3    0    0  0.73915962708E+01 -0.58508539787E+02  0.22505492764E+01  0.59016616808E+02  0.10566000000E+00 0. -1.
         22    1    1    0    0    0 -0.68665558552E+01  0.23585898861E+02 -0.15022766670E+02  0.28794578184E+02  0.00000000000E+00 0. -1.
</event>
<event>
 5    1  0.6903325E-004  0.9118800E+02  0.7818608E-02  0.1130116E+00
         25   -1    0    0    0    0  0.00000000000E+00  0.00000000000E+00  0.99999998245E-14  0.12500000000E+03  0.12500000000E+03 0.  0.
        -13    1    3    3    0    0  0.26290876662E+02 -0.80690240938E+01 -0.45222938275E+02  0.52928675175E+02  0.10566000000E+00 0.  1.
         23    2    1    0    0    0 -0.31832826676E+00  0.17387417283E+02 -0.23772451770E+02  0.95545746049E+02  0.90892444748E+02 0.  0.
         13    1    3    3    0    0 -0.26609204929E+02  0.25456441377E+02  0.21450486505E+02  0.42617070874E+02  0.10566000000E+00 0. -1.
         22    1    1    0    0    0  0.31832826676E+00 -0.17387417283E+02  0.23772451770E+02  0.29454253951E+02  0.00000000000E+00 0.  1.
</event>
<event>
 5    1  0.6903325E-004  0.9118800E+02  0.7818608E-02  0.1130116E+00
         25   -1    0    0    0    0  0.00000000000E+00  0.00000000000E+00  0.99999998245E-14  0.12500000000E+03  0.12500000000E+03 0.  0.
        -13    1    3    3    0    0  0.39978344550E+02  0.34327097930E+02  0.26536450247E+02  0.58998407105E+02  0.10566000000E+00 0.  1.
         23    2    1    0    0    0  0.27240390279E+02  0.42394337531E+01  0.95417072234E+01  0.95827138676E+02  0.91278610139E+02 0.  0.
         13    1    3    3    0    0 -0.12737954271E+02 -0.30087664177E+02 -0.16994743024E+02  0.36828731570E+02  0.10566000000E+00 0. -1.
         22    1    1    0    0    0 -0.27240390279E+02 -0.42394337531E+01 -0.95417072234E+01  0.29172861324E+02  0.00000000000E+00 0.  1.
</event>
<event>
 5    1  0.6903325E-004  0.9118800E+02  0.7818608E-02  0.1130116E+00
         25   -1    0    0    0    0  0.00000000000E+00  0.00000000000E+00  0.99999998245E-14  0.12500000000E+03  0.12500000000E+03 0.  0.
        -13    1    3    3    0    0 -0.12488897105E+02 -0.27809945508E+02 -0.27770568096E+02  0.41238104181E+02  0.10566000000E+00 0.  1.
         23    2    1    0    0    0 -0.68845202895E+01 -0.11042790237E+02  0.24958885766E+02  0.96852427911E+02  0.92672039892E+02 0.  0.
         13    1    3    3    0    0  0.56043768153E+01  0.16767155270E+02  0.52729453862E+02  0.55614323730E+02  0.10566000000E+00 0. -1.
         22    1    1    0    0    0  0.68845202895E+01  0.11042790237E+02 -0.24958885766E+02  0.28147572089E+02  0.00000000000E+00 0. -1.
</event>
<event>
 5    1  0.6903325E-004  0.9118800E+02  0.7818608E-02  0.1130116E+00
         25   -1    0    0    0    0  0.00000000000E+00  0.00000000000E+00  0.99999998245E-14  0.12500000000E+03  0.12500000000E+03 0.  0.
        -13    1    3    3    0    0  0.19775356350E+02 -0.84541761615E+01  0.40330704206E+02  0.45706834053E+02  0.10566000000E+00 0.  1.
         23    2    1    0    0    0 -0.25096855408E+01  0.26544908859E+02  0.13544968079E+02  0.95093531333E+02  0.90268393324E+02 0.  0.
         13    1    3    3    0    0 -0.22285041891E+02  0.34999085021E+02 -0.26785736127E+02  0.49386697280E+02  0.10566000000E+00 0. -1.
         22    1    1    0    0    0  0.25096855408E+01 -0.26544908859E+02 -0.13544968079E+02  0.29906468667E+02  0.00000000000E+00 0.  1.
</event>
<event>
 5    1  0.6903325E-004  0.9118800E+02  0.7818608E-02  0.1130116E+00
         25   -1    0    0    0    0  0.00000000000E+00  0.00000000000E+00  0.99999998245E-14  0.12500000000E+03  0.12500000000E+03 0.  0.
        -13    1    3    3    0    0  0.31890763914E+02  0.38264683309E+01  0.12107907628E+02  0.34326014538E+02  0.10566000000E+00 0.  1.
         23    2    1    0    0    0  0.97487090569E+01 -0.26554642015E+02 -0.25072602003E+02  0.87200241905E+02  0.78581553027E+02 0.  0.
         13    1    3    3    0    0 -0.22142054857E+02 -0.30381110346E+02 -0.37180509631E+02  0.52874227367E+02  0.10566000000E+00 0. -1.
         22    1    1    0    0    0 -0.97487090569E+01  0.26554642015E+02  0.25072602003E+02  0.37799758095E+02  0.00000000000E+00 0. -1.
</event>
<event>
 5    1  0.6903325E-004  0.9118800E+02  0.7818608E-02  0.1130116E+00
         25   -1    0    0    0    0  0.00000000000E+00  0.00000000000E+00  0.99999998245E-14  0.12500000000E+03  0.12500000000E+03 0.  0.
        -13    1    3    3    0    0 -0.12433147480E+02  0.83524036355E+01 -0.56945018865E+02  0.58882018820E+02  0.10566000000E+00 0.  1.
         23    2    1    0    0    0 -0.17605992698E+02 -0.46912513321E+01 -0.22688893647E+02  0.95900778140E+02  0.91379398854E+02 0.  0.
         13    1    3    3    0    0 -0.51728452176E+01 -0.13043654968E+02  0.34256125218E+02  0.37018759320E+02  0.10566000000E+00 0. -1.
         22    1    1    0    0    0  0.17605992698E+02  0.46912513321E+01  0.22688893647E+02  0.29099221860E+02  0.00000000000E+00 0.  1.
</event>
<event>
 5    1  0.6903325E-004  0.9118800E+02  0.7818608E-02  0.1130116E+00
         25   -1    0    0    0    0  0.00000000000E+00  0.00000000000E+00  0.99999998245E-14  0.12500000000E+03  0.12500000000E+03 0.  0.
        -13    1    3    3    0    0  0.16674978505E+02  0.50187399108E+01  0.31824670641E+02  0.36277589279E+02  0.10566000000E+00 0.  1.
         23    2    1    0    0    0  0.62924961267E+01 -0.13797366908E+02 -0.24288972246E+02  0.96365806911E+02  0.92013323643E+02 0.  0.
         13    1    3    3    0    0 -0.10382482379E+02 -0.18816106818E+02 -0.56113642887E+02  0.60088217632E+02  0.10566000000E+00 0. -1.
         22    1    1    0    0    0 -0.62924961267E+01  0.13797366908E+02  0.24288972246E+02  0.28634193089E+02  0.00000000000E+00 0. -1.
</event>
<event>
 5    1  0.6903325E-004  0.9118800E+02  0.7818608E-02  0.1130116E+00
         25   -1    0    0    0    0  0.00000000000E+00  0.00000000000E+00  0.99999998245E-14  0.12500000000E+03  0.12500000000E+03 0.  0.
        -13    1    3    3    0    0 -0.42005399367E+02 -0.33954986418E+02 -0.51144288473E+01  0.54254614781E+02  0.10566000000E+00 0.  1.
         23    2    1    0    0    0 -0.42792325654E+01 -0.25447113576E+02  0.11994937098E+02  0.96543964846E+02  0.92255033529E+02 0.  0.
         13    1    3    3    0    0  0.37726166801E+02  0.85078728414E+01  0.17109365945E+02  0.42289350065E+02  0.10566000000E+00 0. -1.
         22    1    1    0    0    0  0.42792325654E+01  0.25447113576E+02 -0.11994937098E+02  0.28456035154E+02  0.00000000000E+00 0.  1.
</event>
<event>
 5    1  0.6903325E-004  0.9118800E+02  0.7818608E-02  0.1130116E+00
         25   -1    0    0    0    0  0.00000000000E+00  0.00000000000E+00  0.99999998245E-14  0.12500000000E+03  0.12500000000E+03 0.  0.
        -13    1    3    3    0    0 -0.45611131162E+02  0.25334490377E+02 -0.30348548582E+02  0.60359400706E+02  0.10566000000E+00 0. -1.
         23    2    1    0    0    0 -0.22890649321E+02  0.20093167040E+01 -0.20028612337E+02  0.94517800406E+02  0.89467592465E+02 0.  0.
         13    1    3    3    0    0  0.22720481841E+02 -0.23325173673E+02  0.10319936246E+02  0.34158399700E+02  0.10566000000E+00 0.  1.
         22    1    1    0    0    0  0.22890649321E+02 -0.20093167040E+01  0.20028612337E+02  0.30482199594E+02  0.00000000000E+00 0. -1.
</event>
<event>
 5    1  0.6903325E-004  0.9118800E+02  0.7818608E-02  0.1130116E+00
         25   -1    0    0    0    0  0.00000000000E+00  0.00000000000E+00  0.99999998245E-14  0.12500000000E+03  0.12500000000E+03 0.  0.
        -13    1    3    3    0    0 -0.10380096027E+01  0.19924764582E+01  0.53411147854E+02  0.53458482073E+02  0.10566000000E+00 0.  1.
         23    2    1    0    0    0 -0.13388411758E+02  0.19075029199E+02  0.40773738136E+02  0.78036141237E+02  0.62322029084E+02 0.  0.
         13    1    3    3    0    0 -0.12350402155E+02  0.17082552741E+02 -0.12637409719E+02  0.24577659164E+02  0.10566000000E+00 0. -1.
         22    1    1    0    0    0  0.13388411758E+02 -0.19075029199E+02 -0.40773738136E+02  0.46963858763E+02  0.00000000000E+00 0.  1.
</event>
<event>
 5    1  0.6903325E-004  0.9118800E+02  0.7818608E-02  0.1130116E+00
         25   -1    0    0    0    0  0.00000000000E+00  0.00000000000E+00  0.99999998245E-14  0.12500000000E+03  0.12500000000E+03 0.  0.
        -13    1    3    3    0    0 -0.44347909479E+02  0.36712546129E+02  0.21803726710E+02  0.61562665479E+02  0.10566000000E+00 0.  1.
         23    2    1    0    0    0 -0.18215146458E+02  0.15545653491E+02  0.17222119228E+02  0.95503215537E+02  0.90833935753E+02 0.  0.
         13    1    3    3    0    0  0.26132763021E+02 -0.21166892638E+02 -0.45816074827E+01  0.33940550058E+02  0.10566000000E+00 0. -1.
         22    1    1    0    0    0  0.18215146458E+02 -0.15545653491E+02 -0.17222119228E+02  0.29496784463E+02  0.00000000000E+00 0.  1.
</event>
<event>
 5    1  0.6903325E-004  0.9118800E+02  0.7818608E-02  0.1130116E+00
         25   -1    0    0    0    0  0.00000000000E+00  0.00000000000E+00  0.99999998245E-14  0.12500000000E+03  0.12500000000E+03 0.  0.
        -13    1    3    3    0    0  0.14304068103E+02  0.50719296697E+02 -0.27061179256E+02  0.59239952806E+02  0.10566000000E+00 0. -1.
         23    2    1    0    0    0  0.62836846449E+01  0.29178440755E+02  0.52579018853E+00  0.95147989131E+02  0.90343772794E+02 0.  0.
         13    1    3    3    0    0 -0.80203834585E+01 -0.21540855941E+02  0.27586969445E+02  0.35908036325E+02  0.10566000000E+00 0.  1.
         22    1    1    0    0    0 -0.62836846449E+01 -0.29178440755E+02 -0.52579018853E+00  0.29852010869E+02  0.00000000000E+00 0. -1.
</event>
<event>
 5    1  0.6903325E-004  0.9118800E+02  0.7818608E-02  0.1130116E+00
         25   -1    0    0    0    0  0.00000000000E+00  0.00000000000E+00  0.99999998245E-14  0.12500000000E+03  0.12500000000E+03 0.  0.
        -13    1    3    3    0    0 -0.49568169042E+02  0.17432228033E+02  0.20528365747E+02  0.56411974975E+02  0.10566000000E+00 0.  1.
         23    2    1    0    0    0 -0.22667188202E+02  0.15129411909E+02 -0.88823499471E+01  0.96336492429E+02  0.91973491329E+02 0.  0.
         13    1    3    3    0    0  0.26900980840E+02 -0.23028161237E+01 -0.29410715694E+02  0.39924517454E+02  0.10566000000E+00 0. -1.
         22    1    1    0    0    0  0.22667188202E+02 -0.15129411909E+02  0.88823499471E+01  0.28663507571E+02  0.00000000000E+00 0.  1.
</event>
<event>
 5    1  0.6903325E-004  0.9118800E+02  0.7818608E-02  0.1130116E+00
         25   -1    0    0    0    0  0.00000000000E+00  0.00000000000E+00  0.99999998245E-14  0.12500000000E+03  0.12500000000E+03 0.  0.
        -13    1    3    3    0    0  0.24269706841E+02  0.25211867426E+02  0.20627762587E+02  0.40622317544E+02  0.10566000000E+00 0.  1.
         23    2    1    0    0    0 -0.90171250059E+01 -0.15556720746E+02  0.25848594062E+02  0.93512384677E+02  0.88051667612E+02 0.  0.
         13    1    3    3    0    0 -0.33286831847E+02 -0.40768588172E+02  0.52208314757E+01  0.52890067133E+02  0.10566000000E+00 0. -1.
         22    1    1    0    0    0  0.90171250059E+01  0.15556720746E+02 -0.25848594062E+02  0.31487615323E+02  0.00000000000E+00 0. -1.
</event>
<event>
 5    1  0.6903325E-004  0.9118800E+02  0.7818608E-02  0.1130116E+00
         25   -1    0    0    0    0  0.00000000000E+00  0.00000000000E+00  0.99999998245E-14  0.12500000000E+03  0.12500000000E+03 0.  0.
        -13    1    3    3    0    0  0.41840778049E+01  0.42004418908E+01 -0.46864964946E+02  0.47238610507E+02  0.10566000000E+00 0. -1.
         23    2    1    0    0    0 -0.10488417186E+02  0.19273982652E+02  0.43720177010E+01  0.10262573261E+03  0.10015704245E+03 0.  0.
         13    1    3    3    0    0 -0.14672494991E+02  0.15073540761E+02  0.51236982647E+02  0.55387122106E+02  0.10566000000E+00 0.  1.
         22    1    1    0    0    0  0.10488417186E+02 -0.19273982652E+02 -0.43720177010E+01  0.22374267387E+02  0.00000000000E+00 0.  1.
</event>
<event>
 5    1  0.6903325E-004  0.9118800E+02  0.7818608E-02  0.1130116E+00
         25   -1    0    0    0    0  0.00000000000E+00  0.00000000000E+00  0.99999998245E-14  0.12500000000E+03  0.12500000000E+03 0.  0.
        -13    1    3    3    0    0  0.29158013210E+00  0.44131573939E+02 -0.31466202198E+02  0.54201604055E+02  0.10566000000E+00 0.  1.
         23    2    1    0    0    0 -0.80447585521E+01  0.61021202338E+01 -0.30202148456E+02  0.93154689782E+02  0.87542403700E+02 0.  0.
         13    1    3    3    0    0 -0.83363386842E+01 -0.38029453705E+02  0.12640537422E+01  0.38953085727E+02  0.10566000000E+00 0. -1.
         22    1    1    0    0    0  0.80447585521E+01 -0.61021202338E+01  0.30202148456E+02  0.31845310218E+02  0.00000000000E+00 0.  1.
</event>
<event>
 5    1  0.6903325E-004  0.9118800E+02  0.7818608E-02  0.1130116E+00
         25   -1    0    0    0    0  0.00000000000E+00  0.00000000000E+00  0.99999998245E-14  0.12500000000E+03  0.12500000000E+03 0.  0.
        -13    1    3    3    0    0  0.14811886657E+02  0.25845206584E+02  0.14377065414E+02  0.33076847850E+02  0.10566000000E+00 0. -1.
         23    2    1    0    0    0 -0.42725075397E+01 -0.20148590804E+02 -0.22089652315E+02  0.94797801877E+02  0.89857946055E+02 0.  0.
         13    1    3    3    0    0 -0.19084394197E+02 -0.45993797389E+02 -0.36466717729E+02  0.61720954027E+02  0.10566000000E+00 0.  1.
         22    1    1    0    0    0  0.42725075397E+01  0.20148590804E+02  0.22089652315E+02  0.30202198123E+02  0.00000000000E+00 0.  1.
</event>
<event>
 5    1  0.6903325E-004  0.9118800E+02  0.7818608E-02  0.1130116E+00
         25   -1    0    0    0    0  0.00000000000E+00  0.00000000000E+00  0.99999998245E-14  0.12500000000E+03  0.12500000000E+03 0.  0.
        -13    1    3    3    0    0 -0.15462362210E+02  0.46009813235E+00 -0.34725370693E+02  0.38015245221E+02  0.10566000000E+00 0. -1.
         23    2    1    0    0    0 -0.24976649862E+02 -0.95136511672E+01  0.18172752658E+02  0.92679858663E+02  0.86861756060E+02 0.  0.
         13    1    3    3    0    0 -0.95142876523E+01 -0.99737492996E+01  0.52898123352E+02  0.54664613442E+02  0.10566000000E+00 0.  1.
         22    1    1    0    0    0  0.24976649862E+02  0.95136511672E+01 -0.18172752658E+02  0.32320141337E+02  0.00000000000E+00 0.  1.
</event>
<event>
 5    1  0.6903325E-004  0.9118800E+02  0.7818608E-02  0.1130116E+00
         25   -1    0    0    0    0  0.00000000000E+00  0.00000000000E+00  0.99999998245E-14  0.12500000000E+03  0.12500000000E+03 0.  0.
        -13    1    3    3    0    0  0.21904511487E+02 -0.23107654169E+00  0.27744524397E+02  0.35350117651E+02  0.10566000000E+00 0. -1.
         23    2    1    0    0    0  0.70884330355E+01 -0.39118602937E+00 -0.29590994665E+02  0.94569326746E+02  0.89539553755E+02 0.  0.
         13    1    3    3    0    0 -0.14816078452E+02 -0.16010948768E+00 -0.57335519062E+02  0.59219209096E+02  0.10566000000E+00 0.  1.
         22    1    1    0    0    0 -0.70884330355E+01  0.39118602937E+00  0.29590994665E+02  0.30430673254E+02  0.00000000000E+00 0.  1.
</event>
<event>
 5    1  0.6903325E-004  0.9118800E+02  0.7818608E-02  0.1130116E+00
         25   -1    0    0    0    0  0.00000000000E+00  0.00000000000E+00  0.99999998245E-14  0.12500000000E+03  0.12500000000E+03 0.  0.
        -13    1    3    3    0    0  0.47922507313E+01  0.77274583257E+01 -0.32795612121E+02  0.34032963693E+02  0.10566000000E+00 0. -1.
         23    2    1    0    0    0  0.11616022661E+02  0.32127672991E+02  0.14656533367E+02  0.87825636191E+02  0.79570151739E+02 0.  0.
         13    1    3    3    0    0  0.68237719292E+01  0.24400214666E+02  0.47452145488E+02  0.53792672498E+02  0.10566000000E+00 0.  1.
         22    1    1    0    0    0 -0.11616022661E+02 -0.32127672991E+02 -0.14656533367E+02  0.37174363809E+02  0.00000000000E+00 0.  1.
</event>
<event>
 5    1  0.6903325E-004  0.9118800E+02  0.7818608E-02  0.1130116E+00
         25   -1    0    0    0    0  0.00000000000E+00  0.00000000000E+00  0.99999998245E-14  0.12500000000E+03  0.12500000000E+03 0.  0.
        -13    1    3    3    0    0  0.14936824985E+02 -0.41638904259E+02 -0.14177044207E+02  0.46453275827E+02  0.10566000000E+00 0. -1.
         23    2    1    0    0    0 -0.16994648004E+02 -0.52553613576E+01 -0.23271114702E+02  0.95708675973E+02  0.91116238910E+02 0.  0.
         13    1    3    3    0    0 -0.31931472989E+02  0.36383542902E+02 -0.90940704953E+01  0.49255400146E+02  0.10566000000E+00 0.  1.
         22    1    1    0    0    0  0.16994648004E+02  0.52553613576E+01  0.23271114702E+02  0.29291324027E+02  0.00000000000E+00 0. -1.
</event>
<event>
 5    1  0.6903325E-004  0.9118800E+02  0.7818608E-02  0.1130116E+00
         25   -1    0    0    0    0  0.00000000000E+00  0.00000000000E+00  0.99999998245E-14  0.12500000000E+03  0.12500000000E+03 0.  0.
        -13    1    3    3    0    0  0.30213029101E+02  0.84611430743E+01  0.18247811824E+02  0.36296168806E+02  0.10566000000E+00 0.  1.
         23    2    1    0    0    0 -0.18900278845E+02  0.13445978808E+02 -0.16387210183E+02  0.96600078449E+02  0.92331032769E+02 0.  0.
         13    1    3    3    0    0 -0.49113307946E+02  0.49848357336E+01 -0.34635022008E+02  0.60303909643E+02  0.10566000000E+00 0. -1.
         22    1    1    0    0    0  0.18900278845E+02 -0.13445978808E+02  0.16387210183E+02  0.28399921551E+02  0.00000000000E+00 0. -1.
</event>
<event>
 5    1  0.6903325E-004  0.9118800E+02  0.7818608E-02  0.1130116E+00
         25   -1    0    0    0    0  0.00000000000E+00  0.00000000000E+00  0.99999998245E-14  0.12500000000E+03  0.12500000000E+03 0.  0.
        -13    1    3    3    0    0  0.30324781747E+02 -0.38783310080E+02  0.21939020713E+02  0.53898695000E+02  0.10566000000E+00 0. -1.
         23    2    1    0    0    0  0.16115233446E+02  0.80352374760E+00  0.24080923756E+02  0.96013153184E+02  0.91532990205E+02 0.  0.
         13    1    3    3    0    0 -0.14209548301E+02  0.39586833828E+02  0.21419030427E+01  0.42114458184E+02  0.10566000000E+00 0.  1.
         22    1    1    0    0    0 -0.16115233446E+02 -0.80352374760E+00 -0.24080923756E+02  0.28986846816E+02  0.00000000000E+00 0. -1.
</event>
<event>
 5    1  0.6903325E-004  0.9118800E+02  0.7818608E-02  0.1130116E+00
         25   -1    0    0    0    0  0.00000000000E+00  0.00000000000E+00  0.99999998245E-14  0.12500000000E+03  0.12500000000E+03 0.  0.
        -13    1    3    3    0    0 -0.40059495614E+02 -0.12569024157E+02 -0.45320495366E+02  0.61779462780E+02  0.10566000000E+00 0. -1.
         23    2    1    0    0    0 -0.17941929291E+02 -0.12620540218E+02 -0.21517937751E+02  0.94271958944E+02  0.89123452222E+02 0.  0.
         13    1    3    3    0    0  0.22117566323E+02 -0.51516061307E-01  0.23802557615E+02  0.32492496164E+02  0.10566000000E+00 0.  1.
         22    1    1    0    0    0  0.17941929291E+02  0.12620540218E+02  0.21517937751E+02  0.30728041056E+02  0.00000000000E+00 0. -1.
</event>
<event>
 5    1  0.6903325E-004  0.9118800E+02  0.7818608E-02  0.1130116E+00
         25   -1    0    0    0    0  0.00000000000E+00  0.00000000000E+00  0.99999998245E-14  0.12500000000E+03  0.12500000000E+03 0.  0.
        -13    1    3    3    0    0 -0.49142029180E+02 -0.26457416775E+02 -0.19179231070E+02  0.59015150621E+02  0.10566000000E+00 0. -1.
         23    2    1    0    0    0 -0.26923978389E+02 -0.13639100634E+02  0.51657825895E+01  0.94379565840E+02  0.89274248583E+02 0.  0.
         13    1    3    3    0    0  0.22218050791E+02  0.12818316141E+02  0.24345013659E+02  0.35364415219E+02  0.10566000000E+00 0.  1.
         22    1    1    0    0    0  0.26923978389E+02  0.13639100634E+02 -0.51657825895E+01  0.30620434160E+02  0.00000000000E+00 0. -1.
</event>
<event>
 5    1  0.6903325E-004  0.9118800E+02  0.7818608E-02  0.1130116E+00
         25   -1    0    0    0    0  0.00000000000E+00  0.00000000000E+00  0.99999998245E-14  0.12500000000E+03  0.12500000000E+03 0.  0.
        -13    1    3    3    0    0 -0.73552006068E+01 -0.23452856815E+02 -0.22018159314E+02  0.32999181389E+02  0.10566000000E+00 0.  1.
         23    2    1    0    0    0  0.20389662959E+02  0.11162837111E+02  0.20173491829E+02  0.94221483783E+02  0.89052630202E+02 0.  0.
         13    1    3    3    0    0  0.27744863566E+02  0.34615693926E+02  0.42191651142E+02  0.61222302394E+02  0.10566000000E+00 0. -1.
         22    1    1    0    0    0 -0.20389662959E+02 -0.11162837111E+02 -0.20173491829E+02  0.30778516217E+02  0.00000000000E+00 0. -1.
</event>
<event>
 5    1  0.6903325E-004  0.9118800E+02  0.7818608E-02  0.1130116E+00
         25   -1    0    0    0    0  0.00000000000E+00  0.00000000000E+00  0.99999998245E-14  0.12500000000E+03  0.12500000000E+03 0.  0.
        -13    1    3    3    0    0  0.58247522532E+02 -0.87683219729E+01 -0.75662609518E+01  0.59387850779E+02  0.10566000000E+00 0. -1.
         23    2    1    0    0    0  0.21429755536E+02 -0.12409385973E+02 -0.13401654186E+02  0.96842734197E+02  0.92658963675E+02 0.  0.
         13    1    3    3    0    0 -0.36817766996E+02 -0.36410639999E+01 -0.58353932339E+01  0.37454883418E+02  0.10566000000E+00 0.  1.
         22    1    1    0    0    0 -0.21429755536E+02  0.12409385973E+02  0.13401654186E+02  0.28157265803E+02  0.00000000000E+00 0. -1.
</event>
<event>
 5    1  0.6903325E-004  0.9118800E+02  0.7818608E-02  0.1130116E+00
         25   -1    0    0    0    0  0.00000000000E+00  0.00000000000E+00  0.99999998245E-14  0.12500000000E+03  0.12500000000E+03 0.  0.
        -13    1    3    3    0    0  0.34659958255E+02  0.41349266359E+01 -0.15663231016E+02  0.38259094271E+02  0.10566000000E+00 0.  1.
         23    2    1    0    0    0 -0.65198947921E+01  0.31755764141E+02  0.54044923669E+01  0.92134423449E+02  0.86073258695E+02 0.  0.
         13    1    3    3    0    0 -0.41179853048E+02  0.27620837505E+02  0.21067723383E+02  0.53875329178E+02  0.10566000000E+00 0. -1.
         22    1    1    0    0    0  0.65198947921E+01 -0.31755764141E+02 -0.54044923669E+01  0.32865576551E+02  0.00000000000E+00 0. -1.
</event>
<event>
 5    1  0.6903325E-004  0.9118800E+02  0.7818608E-02  0.1130116E+00
         25   -1    0    0    0    0  0.00000000000E+00  0.00000000000E+00  0.99999998245E-14  0.12500000000E+03  0.12500000000E+03 0.  0.
        -13    1    3    3    0    0  0.77760559719E+01  0.15004619701E+02  0.32730136855E+02  0.36835834203E+02  0.10566000000E+00 0.  1.
         23    2    1    0    0    0 -0.26681879457E+02 -0.15501040143E+02 -0.13667166763E+01  0.94111930275E+02  0.88898720850E+02 0.  0.
         13    1    3    3    0    0 -0.34457935429E+02 -0.30505659844E+02 -0.34096853531E+02  0.57276096072E+02  0.10566000000E+00 0. -1.
         22    1    1    0    0    0  0.26681879457E+02  0.15501040143E+02  0.13667166763E+01  0.30888069725E+02  0.00000000000E+00 0. -1.
</event>
<event>
 5    1  0.6903325E-004  0.9118800E+02  0.7818608E-02  0.1130116E+00
         25   -1    0    0    0    0  0.00000000000E+00  0.00000000000E+00  0.99999998245E-14  0.12500000000E+03  0.12500000000E+03 0.  0.
        -13    1    3    3    0    0  0.32604908025E+02  0.26844228483E+02 -0.34342849983E+02  0.54434686912E+02  0.10566000000E+00 0.  1.
         23    2    1    0    0    0  0.16920046083E+02 -0.90852037137E+01 -0.22563287419E+02  0.95370102512E+02  0.90650568824E+02 0.  0.
         13    1    3    3    0    0 -0.15684861942E+02 -0.35929432197E+02  0.11779562564E+02  0.40935415600E+02  0.10566000000E+00 0. -1.
         22    1    1    0    0    0 -0.16920046083E+02  0.90852037137E+01  0.22563287419E+02  0.29629897488E+02  0.00000000000E+00 0.  1.
</event>
<event>
 5    1  0.6903325E-004  0.9118800E+02  0.7818608E-02  0.1130116E+00
         25   -1    0    0    0    0  0.00000000000E+00  0.00000000000E+00  0.99999998245E-14  0.12500000000E+03  0.12500000000E+03 0.  0.
        -13    1    3    3    0    0 -0.14924439887E+02 -0.13154969619E+02  0.27144826754E+02  0.33654790374E+02  0.10566000000E+00 0. -1.
         23    2    1    0    0    0  0.11193102812E+01  0.23767341795E+02 -0.18751758851E+02  0.94705316448E+02  0.89729198770E+02 0.  0.
         13    1    3    3    0    0  0.16043750168E+02  0.36922311414E+02 -0.45896585605E+02  0.61050526073E+02  0.10566000000E+00 0.  1.
         22    1    1    0    0    0 -0.11193102812E+01 -0.23767341795E+02  0.18751758851E+02  0.30294683552E+02  0.00000000000E+00 0.  1.
</event>
<event>
 5    1  0.6903325E-004  0.9118800E+02  0.7818608E-02  0.1130116E+00
         25   -1    0    0    0    0  0.00000000000E+00  0.00000000000E+00  0.99999998245E-14  0.12500000000E+03  0.12500000000E+03 0.  0.
        -13    1    3    3    0    0 -0.16374328972E+02 -0.16172656843E+02 -0.37837954486E+02  0.44287644353E+02  0.10566000000E+00 0. -1.
         23    2    1    0    0    0  0.16542485779E+02  0.65819428019E+01  0.82958199442E+01  0.10535829856E+03  0.10351122954E+03 0.  0.
         13    1    3    3    0    0  0.32916814751E+02  0.22754599645E+02  0.46133774430E+02  0.61070654210E+02  0.10566000000E+00 0.  1.
         22    1    1    0    0    0 -0.16542485779E+02 -0.65819428019E+01 -0.82958199442E+01  0.19641701437E+02  0.00000000000E+00 0.  1.
</event>
<event>
 5    1  0.6903325E-004  0.9118800E+02  0.7818608E-02  0.1130116E+00
         25   -1    0    0    0    0  0.00000000000E+00  0.00000000000E+00  0.99999998245E-14  0.12500000000E+03  0.12500000000E+03 0.  0.
        -13    1    3    3    0    0  0.30212864777E+02 -0.30843095465E+01 -0.91252436198E+01  0.31711376485E+02  0.10566000000E+00 0. -1.
         23    2    1    0    0    0 -0.16907466385E+02  0.78151018705E+01  0.27084495425E+02  0.92128916519E+02  0.86065260876E+02 0.  0.
         13    1    3    3    0    0 -0.47120331162E+02  0.10899411417E+02  0.36209739045E+02  0.60417540034E+02  0.10566000000E+00 0.  1.
         22    1    1    0    0    0  0.16907466385E+02 -0.78151018705E+01 -0.27084495425E+02  0.32871083481E+02  0.00000000000E+00 0.  1.
</event>
<event>
 5    1  0.6903325E-004  0.9118800E+02  0.7818608E-02  0.1130116E+00
         25   -1    0    0    0    0  0.00000000000E+00  0.00000000000E+00  0.99999998245E-14  0.12500000000E+03  0.12500000000E+03 0.  0.
        -13    1    3    3    0    0  0.94885959388E+01 -0.14325098934E+01  0.58402467537E+02  0.59185681680E+02  0.10566000000E+00 0.  1.
         23    2    1    0    0    0  0.87500420189E+01  0.12802864802E+02  0.23983227626E+02  0.96440031691E+02  0.92114102735E+02 0.  0.
         13    1    3    3    0    0 -0.73855391990E+00  0.14235374695E+02 -0.34419239911E+02  0.37254350010E+02  0.10566000000E+00 0. -1.
         22    1    1    0    0    0 -0.87500420189E+01 -0.12802864802E+02 -0.23983227626E+02  0.28559968309E+02  0.00000000000E+00 0.  1.
</event>
<event>
 5    1  0.6903325E-004  0.9118800E+02  0.7818608E-02  0.1130116E+00
         25   -1    0    0    0    0  0.00000000000E+00  0.00000000000E+00  0.99999998245E-14  0.12500000000E+03  0.12500000000E+03 0.  0.
        -13    1    3    3    0    0 -0.34023190064E+02 -0.24786865702E+02 -0.13369776477E+02  0.44167049489E+02  0.10566000000E+00 0.  1.
         23    2    1    0    0    0 -0.10080906768E+02  0.19980297903E+02 -0.19517405149E+02  0.95305453542E+02  0.90561379106E+02 0.  0.
         13    1    3    3    0    0  0.23942283296E+02  0.44767163606E+02 -0.61476286728E+01  0.51138404053E+02  0.10566000000E+00 0. -1.
         22    1    1    0    0    0  0.10080906768E+02 -0.19980297903E+02  0.19517405149E+02  0.29694546458E+02  0.00000000000E+00 0.  1.
</event>
<event>
 5    1  0.6903325E-004  0.9118800E+02  0.7818608E-02  0.1130116E+00
         25   -1    0    0    0    0  0.00000000000E+00  0.00000000000E+00  0.99999998245E-14  0.12500000000E+03  0.12500000000E+03 0.  0.
        -13    1    3    3    0    0  0.21632275045E+02  0.22119987975E+02 -0.15262798728E+02  0.34499469282E+02  0.10566000000E+00 0.  1.
         23    2    1    0    0    0  0.91514825377E+00 -0.31013104785E+02  0.14875437477E+01  0.93937756824E+02  0.88653478250E+02 0.  0.
         13    1    3    3    0    0 -0.20717126791E+02 -0.53133092761E+02  0.16750342476E+02  0.59438287542E+02  0.10566000000E+00 0. -1.
         22    1    1    0    0    0 -0.91514825377E+00  0.31013104785E+02 -0.14875437477E+01  0.31062243176E+02  0.00000000000E+00 0. -1.
</event>
<event>
 5    1  0.6903325E-004  0.9118800E+02  0.7818608E-02  0.1130116E+00
         25   -1    0    0    0    0  0.00000000000E+00  0.00000000000E+00  0.99999998245E-14  0.12500000000E+03  0.12500000000E+03 0.  0.
        -13    1    3    3    0    0  0.34249272618E+02  0.69897501683E+01  0.13775878514E+02  0.37572001213E+02  0.10566000000E+00 0. -1.
         23    2    1    0    0    0 -0.15401230222E+02 -0.21659122161E+02  0.14139242892E+02  0.94896285035E+02  0.89994840179E+02 0.  0.
         13    1    3    3    0    0 -0.49650502840E+02 -0.28648872329E+02  0.36336437758E+00  0.57324283822E+02  0.10566000000E+00 0.  1.
         22    1    1    0    0    0  0.15401230222E+02  0.21659122161E+02 -0.14139242892E+02  0.30103714965E+02  0.00000000000E+00 0.  1.
</event>
<event>
 5    1  0.6903325E-004  0.9118800E+02  0.7818608E-02  0.1130116E+00
         25   -1    0    0    0    0  0.00000000000E+00  0.00000000000E+00  0.99999998245E-14  0.12500000000E+03  0.12500000000E+03 0.  0.
        -13    1    3    3    0    0  0.10276955208E+02  0.14663110844E+02  0.30785453339E+02  0.35614293891E+02  0.10566000000E+00 0.  1.
         23    2    1    0    0    0  0.11648298924E+02 -0.78115019135E+01 -0.25312081644E+02  0.96062068022E+02  0.91599765314E+02 0.  0.
         13    1    3    3    0    0  0.13713437158E+01 -0.22474612758E+02 -0.56097534984E+02  0.60447774132E+02  0.10566000000E+00 0. -1.
         22    1    1    0    0    0 -0.11648298924E+02  0.78115019135E+01  0.25312081644E+02  0.28937931978E+02  0.00000000000E+00 0. -1.
</event>
<event>
 5    1  0.6903325E-004  0.9118800E+02  0.7818608E-02  0.1130116E+00
         25   -1    0    0    0    0  0.00000000000E+00  0.00000000000E+00  0.99999998245E-14  0.12500000000E+03  0.12500000000E+03 0.  0.
        -13    1    3    3    0    0 -0.22355621125E+02 -0.30023144256E+02  0.43471705520E+02  0.57366918444E+02  0.10566000000E+00 0. -1.
         23    2    1    0    0    0 -0.64665412394E+01 -0.20388385080E+01  0.33151955424E+02  0.91161779502E+02  0.84648950823E+02 0.  0.
         13    1    3    3    0    0  0.15889079885E+02  0.27984305748E+02 -0.10319750096E+02  0.33794861058E+02  0.10566000000E+00 0.  1.
         22    1    1    0    0    0  0.64665412394E+01  0.20388385080E+01 -0.33151955424E+02  0.33838220498E+02  0.00000000000E+00 0. -1.
</event>
<event>
 5    1  0.6903325E-004  0.9118800E+02  0.7818608E-02  0.1130116E+00
         25   -1    0    0    0    0  0.00000000000E+00  0.00000000000E+00  0.99999998245E-14  0.12500000000E+03  0.12500000000E+03 0.  0.
        -13    1    3    3    0    0 -0.39898378873E+02 -0.17359618109E+02 -0.29598011709E+02  0.52624048103E+02  0.10566000000E+00 0. -1.
         23    2    1    0    0    0 -0.46633547897E+01 -0.27320647311E+02 -0.47374390965E+01  0.96882248017E+02  0.92712253798E+02 0.  0.
         13    1    3    3    0    0  0.35235024084E+02 -0.99610292019E+01  0.24860572613E+02  0.44258199914E+02  0.10566000000E+00 0.  1.
         22    1    1    0    0    0  0.46633547897E+01  0.27320647311E+02  0.47374390965E+01  0.28117751983E+02  0.00000000000E+00 0.  1.
</event>
<event>
 5    1  0.6903325E-004  0.9118800E+02  0.7818608E-02  0.1130116E+00
         25   -1    0    0    0    0  0.00000000000E+00  0.00000000000E+00  0.99999998245E-14  0.12500000000E+03  0.12500000000E+03 0.  0.
        -13    1    3    3    0    0  0.29935285711E+02 -0.24417426189E+02  0.39839071934E+02  0.55493196420E+02  0.10566000000E+00 0.  1.
         23    2    1    0    0    0  0.24770056468E+02 -0.13727546701E+02  0.40326593846E+00  0.96677502595E+02  0.92435792033E+02 0.  0.
         13    1    3    3    0    0 -0.51652292430E+01  0.10689879488E+02 -0.39435805996E+02  0.41184306176E+02  0.10566000000E+00 0. -1.
         22    1    1    0    0    0 -0.24770056468E+02  0.13727546701E+02 -0.40326593846E+00  0.28322497405E+02  0.00000000000E+00 0. -1.
</event>
<event>
 5    1  0.6903325E-004  0.9118800E+02  0.7818608E-02  0.1130116E+00
         25   -1    0    0    0    0  0.00000000000E+00  0.00000000000E+00  0.99999998245E-14  0.12500000000E+03  0.12500000000E+03 0.  0.
        -13    1    3    3    0    0  0.37439627937E+02 -0.71451626978E+00  0.14265977230E+02  0.40072004491E+02  0.10566000000E+00 0. -1.
         23    2    1    0    0    0 -0.15032235400E+02 -0.18825447335E+02  0.16784544057E+02  0.95638690634E+02  0.91020177205E+02 0.  0.
         13    1    3    3    0    0 -0.52471863336E+02 -0.18110931065E+02  0.25185668274E+01  0.55566686143E+02  0.10566000000E+00 0.  1.
         22    1    1    0    0    0  0.15032235400E+02  0.18825447335E+02 -0.16784544057E+02  0.29361309366E+02  0.00000000000E+00 0.  1.
</event>
<event>
 5    1  0.6903325E-004  0.9118800E+02  0.7818608E-02  0.1130116E+00
         25   -1    0    0    0    0  0.00000000000E+00  0.00000000000E+00  0.99999998245E-14  0.12500000000E+03  0.12500000000E+03 0.  0.
        -13    1    3    3    0    0  0.78802884323E+01  0.46576994463E+02 -0.24138835229E+02  0.53049127130E+02  0.10566000000E+00 0.  1.
         23    2    1    0    0    0 -0.16418881406E+02  0.12302360262E+02 -0.21703606704E+02  0.95134061565E+02  0.90324500504E+02 0.  0.
         13    1    3    3    0    0 -0.24299169838E+02 -0.34274634201E+02  0.24352285257E+01  0.42084934435E+02  0.10566000000E+00 0. -1.
         22    1    1    0    0    0  0.16418881406E+02 -0.12302360262E+02  0.21703606704E+02  0.29865938435E+02  0.00000000000E+00 0.  1.
</event>
<event>
 5    1  0.6903325E-004  0.9118800E+02  0.7818608E-02  0.1130116E+00
         25   -1    0    0    0    0  0.00000000000E+00  0.00000000000E+00  0.99999998245E-14  0.12500000000E+03  0.12500000000E+03 0.  0.
        -13    1    3    3    0    0 -0.28670525320E+02 -0.17895713035E+02  0.30960002760E+02  0.45834359406E+02  0.10566000000E+00 0. -1.
         23    2    1    0    0    0 -0.12464460322E+02 -0.41633687499E+02  0.23778927997E+02  0.75460479185E+02  0.56922050177E+02 0.  0.
         13    1    3    3    0    0  0.16206064998E+02 -0.23737974464E+02 -0.71810747636E+01  0.29626119780E+02  0.10566000000E+00 0.  1.
         22    1    1    0    0    0  0.12464460322E+02  0.41633687499E+02 -0.23778927997E+02  0.49539520815E+02  0.00000000000E+00 0. -1.
</event>
<event>
 5    1  0.6903325E-004  0.9118800E+02  0.7818608E-02  0.1130116E+00
         25   -1    0    0    0    0  0.00000000000E+00  0.00000000000E+00  0.99999998245E-14  0.12500000000E+03  0.12500000000E+03 0.  0.
        -13    1    3    3    0    0  0.18548197441E+02 -0.57055917583E+02 -0.26631948413E+00  0.59995795267E+02  0.10566000000E+00 0.  1.
         23    2    1    0    0    0  0.16822092336E+02 -0.22228388237E+02  0.83216201792E+01  0.95908190215E+02  0.91389537441E+02 0.  0.
         13    1    3    3    0    0 -0.17261051046E+01  0.34827529347E+02  0.85879396633E+01  0.35912394948E+02  0.10566000000E+00 0. -1.
         22    1    1    0    0    0 -0.16822092336E+02  0.22228388237E+02 -0.83216201792E+01  0.29091809785E+02  0.00000000000E+00 0.  1.
</event>
<event>
 5    1  0.6903325E-004  0.9118800E+02  0.7818608E-02  0.1130116E+00
         25   -1    0    0    0    0  0.00000000000E+00  0.00000000000E+00  0.99999998245E-14  0.12500000000E+03  0.12500000000E+03 0.  0.
        -13    1    3    3    0    0  0.30318156733E+02 -0.94745947104E+01 -0.26399779218E+02  0.41302761160E+02  0.10566000000E+00 0. -1.
         23    2    1    0    0    0 -0.12310349200E+02  0.22200674898E+02 -0.14632593784E+02  0.95699360686E+02  0.91103458614E+02 0.  0.
         13    1    3    3    0    0 -0.42628505934E+02  0.31675269608E+02  0.11767185434E+02  0.54396599526E+02  0.10566000000E+00 0.  1.
         22    1    1    0    0    0  0.12310349200E+02 -0.22200674898E+02  0.14632593784E+02  0.29300639314E+02  0.00000000000E+00 0.  1.
</event>
<event>
 5    1  0.6903325E-004  0.9118800E+02  0.7818608E-02  0.1130116E+00
         25   -1    0    0    0    0  0.00000000000E+00  0.00000000000E+00  0.99999998245E-14  0.12500000000E+03  0.12500000000E+03 0.  0.
        -13    1    3    3    0    0  0.33986081073E+02 -0.42790051350E+01  0.50480337341E+01  0.34624520217E+02  0.10566000000E+00 0. -1.
         23    2    1    0    0    0 -0.20277668628E+02 -0.21287786436E+02 -0.10833492577E+02  0.93667616469E+02  0.88271762853E+02 0.  0.
         13    1    3    3    0    0 -0.54263749701E+02 -0.17008781301E+02 -0.15881526311E+02  0.59043096252E+02  0.10566000000E+00 0.  1.
         22    1    1    0    0    0  0.20277668628E+02  0.21287786436E+02  0.10833492577E+02  0.31332383531E+02  0.00000000000E+00 0.  1.
</event>
<event>
 5    1  0.6903325E-004  0.9118800E+02  0.7818608E-02  0.1130116E+00
         25   -1    0    0    0    0  0.00000000000E+00  0.00000000000E+00  0.99999998245E-14  0.12500000000E+03  0.12500000000E+03 0.  0.
        -13    1    3    3    0    0  0.18065871811E+02  0.16546618278E+02 -0.22522399496E+02  0.33278160163E+02  0.10566000000E+00 0.  1.
         23    2    1    0    0    0 -0.17683824157E+02 -0.11826214057E+02  0.20104707724E+02  0.95729259517E+02  0.91144472566E+02 0.  0.
         13    1    3    3    0    0 -0.35749695968E+02 -0.28372832335E+02  0.42627107220E+02  0.62451099354E+02  0.10566000000E+00 0. -1.
         22    1    1    0    0    0  0.17683824157E+02  0.11826214057E+02 -0.20104707724E+02  0.29270740483E+02  0.00000000000E+00 0. -1.
</event>
<event>
 5    1  0.6903325E-004  0.9118800E+02  0.7818608E-02  0.1130116E+00
         25   -1    0    0    0    0  0.00000000000E+00  0.00000000000E+00  0.99999998245E-14  0.12500000000E+03  0.12500000000E+03 0.  0.
        -13    1    3    3    0    0  0.20526900810E+02 -0.30184836427E+02  0.98295435767E+01  0.37803559329E+02  0.10566000000E+00 0.  1.
         23    2    1    0    0    0 -0.17786267607E+02  0.11263096431E+02  0.20914124304E+02  0.95324938887E+02  0.90588270333E+02 0.  0.
         13    1    3    3    0    0 -0.38313168417E+02  0.41447932858E+02  0.11084580727E+02  0.57521379559E+02  0.10566000000E+00 0. -1.
         22    1    1    0    0    0  0.17786267607E+02 -0.11263096431E+02 -0.20914124304E+02  0.29675061113E+02  0.00000000000E+00 0. -1.
</event>
<event>
 5    1  0.6903325E-004  0.9118800E+02  0.7818608E-02  0.1130116E+00
         25   -1    0    0    0    0  0.00000000000E+00  0.00000000000E+00  0.99999998245E-14  0.12500000000E+03  0.12500000000E+03 0.  0.
        -13    1    3    3    0    0  0.28790107162E+02 -0.21778500307E+02  0.24156038301E+02  0.43436145046E+02  0.10566000000E+00 0. -1.
         23    2    1    0    0    0  0.15289043846E+02 -0.77112595885E+00 -0.23334583481E+02  0.97092074904E+02  0.92994724184E+02 0.  0.
         13    1    3    3    0    0 -0.13501063317E+02  0.21007374348E+02 -0.47490621781E+02  0.53655929858E+02  0.10566000000E+00 0.  1.
         22    1    1    0    0    0 -0.15289043846E+02  0.77112595885E+00  0.23334583481E+02  0.27907925096E+02  0.00000000000E+00 0.  1.
</event>
<event>
 5    1  0.6903325E-004  0.9118800E+02  0.7818608E-02  0.1130116E+00
         25   -1    0    0    0    0  0.00000000000E+00  0.00000000000E+00  0.99999998245E-14  0.12500000000E+03  0.12500000000E+03 0.  0.
        -13    1    3    3    0    0  0.33201001030E+02  0.73653936817E+01  0.21121114870E+02  0.40033337993E+02  0.10566000000E+00 0.  1.
         23    2    1    0    0    0 -0.74515532948E+01  0.32439310067E+02  0.14636517272E+01  0.91683686271E+02  0.85416166899E+02 0.  0.
         13    1    3    3    0    0 -0.40652554325E+02  0.25073916385E+02 -0.19657463143E+02  0.51650348278E+02  0.10566000000E+00 0. -1.
         22    1    1    0    0    0  0.74515532948E+01 -0.32439310067E+02 -0.14636517272E+01  0.33316313729E+02  0.00000000000E+00 0. -1.
</event>
<event>
 5    1  0.6903325E-004  0.9118800E+02  0.7818608E-02  0.1130116E+00
         25   -1    0    0    0    0  0.00000000000E+00  0.00000000000E+00  0.99999998245E-14  0.12500000000E+03  0.12500000000E+03 0.  0.
        -13    1    3    3    0    0 -0.29587963914E+02 -0.28665934340E+02 -0.97005848948E+01  0.42323703896E+02  0.10566000000E+00 0. -1.
         23    2    1    0    0    0 -0.76707886461E+01  0.18333730689E+02 -0.21722669522E+02  0.95557835498E+02  0.90909069264E+02 0.  0.
         13    1    3    3    0    0  0.21917175268E+02  0.46999665029E+02 -0.12022084627E+02  0.53234131602E+02  0.10566000000E+00 0.  1.
         22    1    1    0    0    0  0.76707886461E+01 -0.18333730689E+02  0.21722669522E+02  0.29442164502E+02  0.00000000000E+00 0.  1.
</event>
<event>
 5    1  0.6903325E-004  0.9118800E+02  0.7818608E-02  0.1130116E+00
         25   -1    0    0    0    0  0.00000000000E+00  0.00000000000E+00  0.99999998245E-14  0.12500000000E+03  0.12500000000E+03 0.  0.
        -13    1    3    3    0    0  0.45914055497E+02  0.35493590246E+02 -0.52950563724E+01  0.58274730602E+02  0.10566000000E+00 0. -1.
         23    2    1    0    0    0  0.19279428454E+02  0.15673525645E+02  0.13803834304E+02  0.96576389934E+02  0.92298957110E+02 0.  0.
         13    1    3    3    0    0 -0.26634627043E+02 -0.19820064601E+02  0.19098890676E+02  0.38301659332E+02  0.10566000000E+00 0.  1.
         22    1    1    0    0    0 -0.19279428454E+02 -0.15673525645E+02 -0.13803834304E+02  0.28423610066E+02  0.00000000000E+00 0. -1.
</event>
<event>
 5    1  0.6903325E-004  0.9118800E+02  0.7818608E-02  0.1130116E+00
         25   -1    0    0    0    0  0.00000000000E+00  0.00000000000E+00  0.99999998245E-14  0.12500000000E+03  0.12500000000E+03 0.  0.
        -13    1    3    3    0    0 -0.22357183785E+02 -0.16754169897E+02  0.49337169998E+02  0.56698442510E+02  0.10566000000E+00 0. -1.
         23    2    1    0    0    0 -0.10765585526E+02  0.10385180603E+02  0.28462113184E+02  0.92846591241E+02  0.87101365146E+02 0.  0.
         13    1    3    3    0    0  0.11591598259E+02  0.27139350499E+02 -0.20875056813E+02  0.36148148731E+02  0.10566000000E+00 0.  1.
         22    1    1    0    0    0  0.10765585526E+02 -0.10385180603E+02 -0.28462113184E+02  0.32153408759E+02  0.00000000000E+00 0. -1.
</event>
<event>
 5    1  0.6903325E-004  0.9118800E+02  0.7818608E-02  0.1130116E+00
         25   -1    0    0    0    0  0.00000000000E+00  0.00000000000E+00  0.99999998245E-14  0.12500000000E+03  0.12500000000E+03 0.  0.
        -13    1    3    3    0    0  0.27501794226E+02 -0.12169681688E+02 -0.15767919088E+02  0.33957153510E+02  0.10566000000E+00 0. -1.
         23    2    1    0    0    0 -0.25961649983E+02  0.12624667060E+02  0.34068086802E+01  0.95931187957E+02  0.91420987684E+02 0.  0.
         13    1    3    3    0    0 -0.53463444210E+02  0.24794348748E+02  0.19174727769E+02  0.61974034447E+02  0.10566000000E+00 0.  1.
         22    1    1    0    0    0  0.25961649983E+02 -0.12624667060E+02 -0.34068086802E+01  0.29068812043E+02  0.00000000000E+00 0.  1.
</event>
<event>
 5    1  0.6903325E-004  0.9118800E+02  0.7818608E-02  0.1130116E+00
         25   -1    0    0    0    0  0.00000000000E+00  0.00000000000E+00  0.99999998245E-14  0.12500000000E+03  0.12500000000E+03 0.  0.
        -13    1    3    3    0    0  0.30745118965E+02  0.18772029076E+02  0.16015997722E+02  0.39423023259E+02  0.10566000000E+00 0.  1.
         23    2    1    0    0    0 -0.10719287412E+02  0.23970770123E+02 -0.17881168545E+02  0.93231507252E+02  0.87652021158E+02 0.  0.
         13    1    3    3    0    0 -0.41464406377E+02  0.51987410468E+01 -0.33897166267E+02  0.53808483993E+02  0.10566000000E+00 0. -1.
         22    1    1    0    0    0  0.10719287412E+02 -0.23970770123E+02  0.17881168545E+02  0.31768492748E+02  0.00000000000E+00 0. -1.
</event>
<event>
 5    1  0.6903325E-004  0.9118800E+02  0.7818608E-02  0.1130116E+00
         25   -1    0    0    0    0  0.00000000000E+00  0.00000000000E+00  0.99999998245E-14  0.12500000000E+03  0.12500000000E+03 0.  0.
        -13    1    3    3    0    0 -0.32165645878E+01 -0.57505964336E+02  0.56336041538E+01  0.57870812001E+02  0.10566000000E+00 0. -1.
         23    2    1    0    0    0  0.13950766650E+02 -0.21326676211E+02 -0.43614670169E+01  0.99145147402E+02  0.95714611478E+02 0.  0.
         13    1    3    3    0    0  0.17167331238E+02  0.36179288124E+02 -0.99950711706E+01  0.41274335400E+02  0.10566000000E+00 0.  1.
         22    1    1    0    0    0 -0.13950766650E+02  0.21326676211E+02  0.43614670169E+01  0.25854852598E+02  0.00000000000E+00 0. -1.
</event>
<event>
 5    1  0.6903325E-004  0.9118800E+02  0.7818608E-02  0.1130116E+00
         25   -1    0    0    0    0  0.00000000000E+00  0.00000000000E+00  0.99999998245E-14  0.12500000000E+03  0.12500000000E+03 0.  0.
        -13    1    3    3    0    0 -0.37005330773E+02  0.89932174707E+01  0.47524575998E+02  0.60900484021E+02  0.10566000000E+00 0.  1.
         23    2    1    0    0    0 -0.20745162932E+02  0.12117171385E+02  0.17193621742E+02  0.95456671548E+02  0.90769862217E+02 0.  0.
         13    1    3    3    0    0  0.16260167841E+02  0.31239539140E+01 -0.30330954256E+02  0.34556187527E+02  0.10566000000E+00 0. -1.
         22    1    1    0    0    0  0.20745162932E+02 -0.12117171385E+02 -0.17193621742E+02  0.29543328452E+02  0.00000000000E+00 0.  1.
</event>
<event>
 5    1  0.6903325E-004  0.9118800E+02  0.7818608E-02  0.1130116E+00
         25   -1    0    0    0    0  0.00000000000E+00  0.00000000000E+00  0.99999998245E-14  0.12500000000E+03  0.12500000000E+03 0.  0.
        -13    1    3    3    0    0  0.21078779196E+02  0.45040105174E+02 -0.11252798436E+02  0.50985906319E+02  0.10566000000E+00 0. -1.
         23    2    1    0    0    0 -0.11639088582E+02  0.15465426358E+02 -0.21299628643E+02  0.96219416688E+02  0.91814237306E+02 0.  0.
         13    1    3    3    0    0 -0.32717867778E+02 -0.29574678817E+02 -0.10046830207E+02  0.45233510369E+02  0.10566000000E+00 0.  1.
         22    1    1    0    0    0  0.11639088582E+02 -0.15465426358E+02  0.21299628643E+02  0.28780583312E+02  0.00000000000E+00 0.  1.
</event>
<event>
 5    1  0.6903325E-004  0.9118800E+02  0.7818608E-02  0.1130116E+00
         25   -1    0    0    0    0  0.00000000000E+00  0.00000000000E+00  0.99999998245E-14  0.12500000000E+03  0.12500000000E+03 0.  0.
        -13    1    3    3    0    0  0.21430699397E+02 -0.30467132401E+02 -0.23065214355E+02  0.43812513174E+02  0.10566000000E+00 0. -1.
         23    2    1    0    0    0 -0.23974478816E+02 -0.15914669697E+02 -0.13840434108E+01  0.96190836141E+02  0.91775318225E+02 0.  0.
         13    1    3    3    0    0 -0.45405178213E+02  0.14552462704E+02  0.21681170944E+02  0.52378322967E+02  0.10566000000E+00 0.  1.
         22    1    1    0    0    0  0.23974478816E+02  0.15914669697E+02  0.13840434108E+01  0.28809163859E+02  0.00000000000E+00 0.  1.
</event>
<event>
 5    1  0.6903325E-004  0.9118800E+02  0.7818608E-02  0.1130116E+00
         25   -1    0    0    0    0  0.00000000000E+00  0.00000000000E+00  0.99999998245E-14  0.12500000000E+03  0.12500000000E+03 0.  0.
        -13    1    3    3    0    0  0.11143472330E+02  0.14656050668E+02 -0.35144362760E+02  0.39675107997E+02  0.10566000000E+00 0.  1.
         23    2    1    0    0    0  0.28686189719E+02 -0.23332107930E+01  0.12815617388E+02  0.93494740086E+02  0.88026615416E+02 0.  0.
         13    1    3    3    0    0  0.17542717390E+02 -0.16989261461E+02  0.47959980148E+02  0.53819632089E+02  0.10566000000E+00 0. -1.
         22    1    1    0    0    0 -0.28686189719E+02  0.23332107930E+01 -0.12815617388E+02  0.31505259914E+02  0.00000000000E+00 0.  1.
</event>
<event>
 5    1  0.6903325E-004  0.9118800E+02  0.7818608E-02  0.1130116E+00
         25   -1    0    0    0    0  0.00000000000E+00  0.00000000000E+00  0.99999998245E-14  0.12500000000E+03  0.12500000000E+03 0.  0.
        -13    1    3    3    0    0  0.54435443547E+02 -0.78821649338E+01  0.80384975094E+01  0.55587540370E+02  0.10566000000E+00 0.  1.
         23    2    1    0    0    0  0.17752650096E+02 -0.18836449070E+02 -0.91416691273E+01  0.97549344026E+02  0.93607350173E+02 0.  0.
         13    1    3    3    0    0 -0.36682793451E+02 -0.10954284136E+02 -0.17180166637E+02  0.41961803655E+02  0.10566000000E+00 0. -1.
         22    1    1    0    0    0 -0.17752650096E+02  0.18836449070E+02  0.91416691273E+01  0.27450655974E+02  0.00000000000E+00 0. -1.
</event>
<event>
 5    1  0.6903325E-004  0.9118800E+02  0.7818608E-02  0.1130116E+00
         25   -1    0    0    0    0  0.00000000000E+00  0.00000000000E+00  0.99999998245E-14  0.12500000000E+03  0.12500000000E+03 0.  0.
        -13    1    3    3    0    0  0.57022102147E+02 -0.22041268217E+02 -0.32732389017E+01  0.61221425129E+02  0.10566000000E+00 0. -1.
         23    2    1    0    0    0  0.24866107396E+02 -0.17209417037E+02  0.38668957762E+01  0.94513278059E+02  0.89461273827E+02 0.  0.
         13    1    3    3    0    0 -0.32155994751E+02  0.48318511805E+01  0.71401346779E+01  0.33291852930E+02  0.10566000000E+00 0.  1.
         22    1    1    0    0    0 -0.24866107396E+02  0.17209417037E+02 -0.38668957762E+01  0.30486721941E+02  0.00000000000E+00 0. -1.
</event>
<event>
 5    1  0.6903325E-004  0.9118800E+02  0.7818608E-02  0.1130116E+00
         25   -1    0    0    0    0  0.00000000000E+00  0.00000000000E+00  0.99999998245E-14  0.12500000000E+03  0.12500000000E+03 0.  0.
        -13    1    3    3    0    0 -0.23485115921E+02  0.10801209795E+02  0.19918176684E+02  0.32633751383E+02  0.10566000000E+00 0.  1.
         23    2    1    0    0    0  0.17364699217E+02  0.15751243878E+01 -0.25305022105E+02  0.94269592592E+02  0.89120133236E+02 0.  0.
         13    1    3    3    0    0  0.40849815138E+02 -0.92260854076E+01 -0.45223198789E+02  0.61635841209E+02  0.10566000000E+00 0. -1.
         22    1    1    0    0    0 -0.17364699217E+02 -0.15751243878E+01  0.25305022105E+02  0.30730407408E+02  0.00000000000E+00 0. -1.
</event>
<event>
 5    1  0.6903325E-004  0.9118800E+02  0.7818608E-02  0.1130116E+00
         25   -1    0    0    0    0  0.00000000000E+00  0.00000000000E+00  0.99999998245E-14  0.12500000000E+03  0.12500000000E+03 0.  0.
        -13    1    3    3    0    0  0.25458645042E+02  0.27078633250E+02  0.14319383961E+02  0.39830276262E+02  0.10566000000E+00 0.  1.
         23    2    1    0    0    0  0.13678697017E+02 -0.72656434233E+01 -0.26403382918E+02  0.94388973295E+02  0.89287419740E+02 0.  0.
         13    1    3    3    0    0 -0.11779948025E+02 -0.34344276673E+02 -0.40722766878E+02  0.54558697033E+02  0.10566000000E+00 0. -1.
         22    1    1    0    0    0 -0.13678697017E+02  0.72656434233E+01  0.26403382918E+02  0.30611026705E+02  0.00000000000E+00 0. -1.
</event>
<event>
 5    1  0.6903325E-004  0.9118800E+02  0.7818608E-02  0.1130116E+00
         25   -1    0    0    0    0  0.00000000000E+00  0.00000000000E+00  0.99999998245E-14  0.12500000000E+03  0.12500000000E+03 0.  0.
        -13    1    3    3    0    0  0.11661711066E+02  0.35422744013E+02 -0.46115934656E+02  0.59308151983E+02  0.10566000000E+00 0. -1.
         23    2    1    0    0    0  0.18660057151E+02  0.11800704589E+02 -0.20025148501E+02  0.95192938183E+02  0.90405943089E+02 0.  0.
         13    1    3    3    0    0  0.69983460846E+01 -0.23622039423E+02  0.26090786155E+02  0.35884786200E+02  0.10566000000E+00 0.  1.
         22    1    1    0    0    0 -0.18660057151E+02 -0.11800704589E+02  0.20025148501E+02  0.29807061817E+02  0.00000000000E+00 0. -1.
</event>
<event>
 5    1  0.6903325E-004  0.9118800E+02  0.7818608E-02  0.1130116E+00
         25   -1    0    0    0    0  0.00000000000E+00  0.00000000000E+00  0.99999998245E-14  0.12500000000E+03  0.12500000000E+03 0.  0.
        -13    1    3    3    0    0  0.22976556329E+00 -0.25432668707E+02 -0.30270694664E+02  0.39537318437E+02  0.10566000000E+00 0. -1.
         23    2    1    0    0    0 -0.21357669655E+02  0.20111977052E+02 -0.83623567400E+01  0.94494743333E+02  0.89435372383E+02 0.  0.
         13    1    3    3    0    0 -0.21587435219E+02  0.45544645759E+02  0.21908337923E+02  0.54957424896E+02  0.10566000000E+00 0.  1.
         22    1    1    0    0    0  0.21357669655E+02 -0.20111977052E+02  0.83623567400E+01  0.30505256667E+02  0.00000000000E+00 0.  1.
</event>
<event>
 5    1  0.6903325E-004  0.9118800E+02  0.7818608E-02  0.1130116E+00
         25   -1    0    0    0    0  0.00000000000E+00  0.00000000000E+00  0.99999998245E-14  0.12500000000E+03  0.12500000000E+03 0.  0.
        -13    1    3    3    0    0  0.12674997834E+02 -0.18607488221E+02 -0.40999993987E+02  0.46775045258E+02  0.10566000000E+00 0.  1.
         23    2    1    0    0    0 -0.25265363062E+02 -0.27759557760E+01 -0.13692038923E+02  0.96129315370E+02  0.91691487296E+02 0.  0.
         13    1    3    3    0    0 -0.37940360896E+02  0.15831532445E+02  0.27307955064E+02  0.49354270112E+02  0.10566000000E+00 0. -1.
         22    1    1    0    0    0  0.25265363062E+02  0.27759557760E+01  0.13692038923E+02  0.28870684630E+02  0.00000000000E+00 0.  1.
</event>
<event>
 5    1  0.6903325E-004  0.9118800E+02  0.7818608E-02  0.1130116E+00
         25   -1    0    0    0    0  0.00000000000E+00  0.00000000000E+00  0.99999998245E-14  0.12500000000E+03  0.12500000000E+03 0.  0.
        -13    1    3    3    0    0 -0.19480498585E+00 -0.38700983913E+02  0.52175375729E+01  0.39051734496E+02  0.10566000000E+00 0. -1.
         23    2    1    0    0    0 -0.17152400664E+02  0.67720596361E+01 -0.23255982093E+02  0.95319933569E+02  0.90581363383E+02 0.  0.
         13    1    3    3    0    0 -0.16957595678E+02  0.45473043549E+02 -0.28473519666E+02  0.56268199073E+02  0.10566000000E+00 0.  1.
         22    1    1    0    0    0  0.17152400664E+02 -0.67720596361E+01  0.23255982093E+02  0.29680066431E+02  0.00000000000E+00 0.  1.
</event>
<event>
 5    1  0.6903325E-004  0.9118800E+02  0.7818608E-02  0.1130116E+00
         25   -1    0    0    0    0  0.00000000000E+00  0.00000000000E+00  0.99999998245E-14  0.12500000000E+03  0.12500000000E+03 0.  0.
        -13    1    3    3    0    0  0.35762415692E+02 -0.11151534109E+02 -0.15522126060E+02  0.40549409991E+02  0.10566000000E+00 0.  1.
         23    2    1    0    0    0 -0.20983014150E+02 -0.59184757774E+01 -0.16682985718E+02  0.97547545632E+02  0.93604948630E+02 0.  0.
         13    1    3    3    0    0 -0.56745429842E+02  0.52330583313E+01 -0.11608596583E+01  0.56998135642E+02  0.10566000000E+00 0. -1.
         22    1    1    0    0    0  0.20983014150E+02  0.59184757774E+01  0.16682985718E+02  0.27452454368E+02  0.00000000000E+00 0. -1.
</event>
<event>
 5    1  0.6903325E-004  0.9118800E+02  0.7818608E-02  0.1130116E+00
         25   -1    0    0    0    0  0.00000000000E+00  0.00000000000E+00  0.99999998245E-14  0.12500000000E+03  0.12500000000E+03 0.  0.
        -13    1    3    3    0    0 -0.48963231761E+01  0.30701822662E+02 -0.23689664710E+02  0.39086919468E+02  0.10566000000E+00 0. -1.
         23    2    1    0    0    0  0.25421899046E+01 -0.24815020545E+02 -0.15331838502E+02  0.95720088012E+02  0.91131893446E+02 0.  0.
         13    1    3    3    0    0  0.74385130807E+01 -0.55516843206E+02  0.83578262079E+01  0.56633168545E+02  0.10566000000E+00 0.  1.
         22    1    1    0    0    0 -0.25421899046E+01  0.24815020545E+02  0.15331838502E+02  0.29279911988E+02  0.00000000000E+00 0.  1.
</event>
<event>
 5    1  0.6903325E-004  0.9118800E+02  0.7818608E-02  0.1130116E+00
         25   -1    0    0    0    0  0.00000000000E+00  0.00000000000E+00  0.99999998245E-14  0.12500000000E+03  0.12500000000E+03 0.  0.
        -13    1    3    3    0    0  0.12351493749E+02 -0.28221485418E+02  0.53269185873E+02  0.61535591040E+02  0.10566000000E+00 0.  1.
         23    2    1    0    0    0  0.10498459538E+02 -0.64720379852E+01  0.23626294255E+02  0.98348420148E+02  0.94668395133E+02 0.  0.
         13    1    3    3    0    0 -0.18530342112E+01  0.21749447433E+02 -0.29642891618E+02  0.36812829108E+02  0.10566000000E+00 0. -1.
         22    1    1    0    0    0 -0.10498459538E+02  0.64720379852E+01 -0.23626294255E+02  0.26651579852E+02  0.00000000000E+00 0.  1.
</event>
<event>
 5    1  0.6903325E-004  0.9118800E+02  0.7818608E-02  0.1130116E+00
         25   -1    0    0    0    0  0.00000000000E+00  0.00000000000E+00  0.99999998245E-14  0.12500000000E+03  0.12500000000E+03 0.  0.
        -13    1    3    3    0    0  0.47218450736E+02  0.29357594668E+02  0.23009791971E+02  0.60174015532E+02  0.10566000000E+00 0.  1.
         23    2    1    0    0    0  0.27221238724E+02  0.13788301780E+02 -0.11991961601E+00  0.94485618402E+02  0.89422617947E+02 0.  0.
         13    1    3    3    0    0 -0.19997212013E+02 -0.15569292889E+02 -0.23129711587E+02  0.34311602870E+02  0.10566000000E+00 0. -1.
         22    1    1    0    0    0 -0.27221238724E+02 -0.13788301780E+02  0.11991961601E+00  0.30514381598E+02  0.00000000000E+00 0.  1.
</event>
<event>
 5    1  0.6903325E-004  0.9118800E+02  0.7818608E-02  0.1130116E+00
         25   -1    0    0    0    0  0.00000000000E+00  0.00000000000E+00  0.99999998245E-14  0.12500000000E+03  0.12500000000E+03 0.  0.
        -13    1    3    3    0    0 -0.76205517294E+01  0.29542528755E+02  0.23481343400E+02  0.38499590462E+02  0.10566000000E+00 0. -1.
         23    2    1    0    0    0 -0.14082511371E+02 -0.23981931326E+02  0.29446778719E+00  0.97187469228E+02  0.93122861356E+02 0.  0.
         13    1    3    3    0    0 -0.64619596418E+01 -0.53524460081E+02 -0.23186875613E+02  0.58687878766E+02  0.10566000000E+00 0.  1.
         22    1    1    0    0    0  0.14082511371E+02  0.23981931326E+02 -0.29446778719E+00  0.27812530772E+02  0.00000000000E+00 0.  1.
</event>
<event>
 5    1  0.6903325E-004  0.9118800E+02  0.7818608E-02  0.1130116E+00
         25   -1    0    0    0    0  0.00000000000E+00  0.00000000000E+00  0.99999998245E-14  0.12500000000E+03  0.12500000000E+03 0.  0.
        -13    1    3    3    0    0 -0.26971653711E+02 -0.19964149719E+02  0.43575714582E+01  0.33838394923E+02  0.10566000000E+00 0.  1.
         23    2    1    0    0    0  0.27115057253E+02  0.86730607862E+01 -0.59926930946E+01  0.95907721235E+02  0.91388895981E+02 0.  0.
         13    1    3    3    0    0  0.54086710964E+02  0.28637210506E+02 -0.10350264553E+02  0.62069326312E+02  0.10566000000E+00 0. -1.
         22    1    1    0    0    0 -0.27115057253E+02 -0.86730607862E+01  0.59926930946E+01  0.29092278765E+02  0.00000000000E+00 0. -1.
</event>
<event>
 5    1  0.6903325E-004  0.9118800E+02  0.7818608E-02  0.1130116E+00
         25   -1    0    0    0    0  0.00000000000E+00  0.00000000000E+00  0.99999998245E-14  0.12500000000E+03  0.12500000000E+03 0.  0.
        -13    1    3    3    0    0  0.56322041060E+02  0.51864050617E+00  0.20591218462E+02  0.59970415531E+02  0.10566000000E+00 0. -1.
         23    2    1    0    0    0  0.25366340922E+02 -0.93161447889E+01  0.88294660136E+00  0.97962592576E+02  0.94157570827E+02 0.  0.
         13    1    3    3    0    0 -0.30955700138E+02 -0.98347852951E+01 -0.19708271861E+02  0.37992177045E+02  0.10566000000E+00 0.  1.
         22    1    1    0    0    0 -0.25366340922E+02  0.93161447889E+01 -0.88294660136E+00  0.27037407424E+02  0.00000000000E+00 0. -1.
</event>
<event>
 5    1  0.6903325E-004  0.9118800E+02  0.7818608E-02  0.1130116E+00
         25   -1    0    0    0    0  0.00000000000E+00  0.00000000000E+00  0.99999998245E-14  0.12500000000E+03  0.12500000000E+03 0.  0.
        -13    1    3    3    0    0  0.89497554462E+01 -0.27189192018E+02  0.22095400796E+02  0.36160312298E+02  0.10566000000E+00 0.  1.
         23    2    1    0    0    0 -0.20180230224E+01  0.76412489932E-01 -0.29442234267E+02  0.95488588403E+02  0.90813804572E+02 0.  0.
         13    1    3    3    0    0 -0.10967778469E+02  0.27265604507E+02 -0.51537635063E+02  0.59328276105E+02  0.10566000000E+00 0. -1.
         22    1    1    0    0    0  0.20180230224E+01 -0.76412489932E-01  0.29442234267E+02  0.29511411597E+02  0.00000000000E+00 0. -1.
</event>
<event>
 5    1  0.6903325E-004  0.9118800E+02  0.7818608E-02  0.1130116E+00
         25   -1    0    0    0    0  0.00000000000E+00  0.00000000000E+00  0.99999998245E-14  0.12500000000E+03  0.12500000000E+03 0.  0.
        -13    1    3    3    0    0  0.40739616210E+02 -0.25102472035E+01  0.43236972198E+02  0.59459772947E+02  0.10566000000E+00 0.  1.
         23    2    1    0    0    0  0.27818934562E+02  0.38102709396E+00  0.96665846561E+01  0.95546966867E+02  0.90894123665E+02 0.  0.
         13    1    3    3    0    0 -0.12920681648E+02  0.28912742975E+01 -0.33570387542E+02  0.36087193921E+02  0.10566000000E+00 0. -1.
         22    1    1    0    0    0 -0.27818934562E+02 -0.38102709396E+00 -0.96665846561E+01  0.29453033133E+02  0.00000000000E+00 0.  1.
</event>
<event>
 5    1  0.6903325E-004  0.9118800E+02  0.7818608E-02  0.1130116E+00
         25   -1    0    0    0    0  0.00000000000E+00  0.00000000000E+00  0.99999998245E-14  0.12500000000E+03  0.12500000000E+03 0.  0.
        -13    1    3    3    0    0  0.19473192159E+02  0.46776419711E+02 -0.83334338610E+01  0.51348767636E+02  0.10566000000E+00 0.  1.
         23    2    1    0    0    0  0.19675419569E+02  0.40521952902E+01 -0.21027106735E+02  0.95919394100E+02  0.91404860510E+02 0.  0.
         13    1    3    3    0    0  0.20222740965E+00 -0.42724224420E+02 -0.12693672874E+02  0.44570626463E+02  0.10566000000E+00 0. -1.
         22    1    1    0    0    0 -0.19675419569E+02 -0.40521952902E+01  0.21027106735E+02  0.29080605900E+02  0.00000000000E+00 0.  1.
</event>
<event>
 5    1  0.6903325E-004  0.9118800E+02  0.7818608E-02  0.1130116E+00
         25   -1    0    0    0    0  0.00000000000E+00  0.00000000000E+00  0.99999998245E-14  0.12500000000E+03  0.12500000000E+03 0.  0.
        -13    1    3    3    0    0  0.43999926630E+02 -0.86813811535E+01 -0.23477675248E+02  0.50621856162E+02  0.10566000000E+00 0. -1.
         23    2    1    0    0    0  0.19114260983E+02  0.45482374488E+01  0.16367876961E+02  0.99427576707E+02  0.96082746510E+02 0.  0.
         13    1    3    3    0    0 -0.24885665647E+02  0.13229618602E+02  0.39845552209E+02  0.48805720545E+02  0.10566000000E+00 0.  1.
         22    1    1    0    0    0 -0.19114260983E+02 -0.45482374488E+01 -0.16367876961E+02  0.25572423293E+02  0.00000000000E+00 0. -1.
</event>
<event>
 5    1  0.6903325E-004  0.9118800E+02  0.7818608E-02  0.1130116E+00
         25   -1    0    0    0    0  0.00000000000E+00  0.00000000000E+00  0.99999998245E-14  0.12500000000E+03  0.12500000000E+03 0.  0.
        -13    1    3    3    0    0 -0.60280420149E+01 -0.13605666274E+01 -0.41220847510E+02  0.41681625035E+02  0.10566000000E+00 0. -1.
         23    2    1    0    0    0 -0.16715117275E+02 -0.22790052634E+02  0.73171704587E+01  0.95805434956E+02  0.91248883495E+02 0.  0.
         13    1    3    3    0    0 -0.10687075260E+02 -0.21429486007E+02  0.48538017968E+02  0.54123809922E+02  0.10566000000E+00 0.  1.
         22    1    1    0    0    0  0.16715117275E+02  0.22790052634E+02 -0.73171704587E+01  0.29194565044E+02  0.00000000000E+00 0.  1.
</event>
<event>
 5    1  0.6903325E-004  0.9118800E+02  0.7818608E-02  0.1130116E+00
         25   -1    0    0    0    0  0.00000000000E+00  0.00000000000E+00  0.99999998245E-14  0.12500000000E+03  0.12500000000E+03 0.  0.
        -13    1    3    3    0    0  0.31297047286E+02  0.13401160560E+02 -0.88968404078E+01  0.35188935852E+02  0.10566000000E+00 0.  1.
         23    2    1    0    0    0 -0.16357180880E+02 -0.27979702796E+01  0.24366218620E+02  0.95519521478E+02  0.90856372201E+02 0.  0.
         13    1    3    3    0    0 -0.47654228166E+02 -0.16199130839E+02  0.33263059028E+02  0.60330585626E+02  0.10566000000E+00 0. -1.
         22    1    1    0    0    0  0.16357180880E+02  0.27979702796E+01 -0.24366218620E+02  0.29480478522E+02  0.00000000000E+00 0. -1.
</event>
<event>
 5    1  0.6903325E-004  0.9118800E+02  0.7818608E-02  0.1130116E+00
         25   -1    0    0    0    0  0.00000000000E+00  0.00000000000E+00  0.99999998245E-14  0.12500000000E+03  0.12500000000E+03 0.  0.
        -13    1    3    3    0    0 -0.15201805202E+02  0.32853077640E+02  0.81885119405E+01  0.37114451144E+02  0.10566000000E+00 0.  1.
         23    2    1    0    0    0 -0.14738268822E+02 -0.25301807064E+02  0.11449040865E+01  0.95696266212E+02  0.91099212691E+02 0.  0.
         13    1    3    3    0    0  0.46353638062E+00 -0.58154884705E+02 -0.70436078540E+01  0.58581815068E+02  0.10566000000E+00 0. -1.
         22    1    1    0    0    0  0.14738268822E+02  0.25301807064E+02 -0.11449040865E+01  0.29303733788E+02  0.00000000000E+00 0. -1.
</event>
<event>
 5    1  0.6903325E-004  0.9118800E+02  0.7818608E-02  0.1130116E+00
         25   -1    0    0    0    0  0.00000000000E+00  0.00000000000E+00  0.99999998245E-14  0.12500000000E+03  0.12500000000E+03 0.  0.
        -13    1    3    3    0    0  0.84146437737E-01 -0.19595639329E+02 -0.27917359404E+02  0.34108448828E+02  0.10566000000E+00 0.  1.
         23    2    1    0    0    0 -0.37963478932E+00  0.24671349781E+02  0.15293135748E+02  0.95970710936E+02  0.91475011527E+02 0.  0.
         13    1    3    3    0    0 -0.46378122706E+00  0.44266989110E+02  0.43210495151E+02  0.61862262108E+02  0.10566000000E+00 0. -1.
         22    1    1    0    0    0  0.37963478932E+00 -0.24671349781E+02 -0.15293135748E+02  0.29029289064E+02  0.00000000000E+00 0. -1.
</event>
<event>
 5    1  0.6903325E-004  0.9118800E+02  0.7818608E-02  0.1130116E+00
         25   -1    0    0    0    0  0.00000000000E+00  0.00000000000E+00  0.99999998245E-14  0.12500000000E+03  0.12500000000E+03 0.  0.
        -13    1    3    3    0    0 -0.18994869543E+02  0.21010357231E+02 -0.22440274222E+02  0.36136093468E+02  0.10566000000E+00 0. -1.
         23    2    1    0    0    0 -0.15957148059E+02 -0.42368813929E+01  0.27926393245E+02  0.92558280289E+02  0.86686619915E+02 0.  0.
         13    1    3    3    0    0  0.30377214836E+01 -0.25247238624E+02  0.50366667467E+02  0.56422186821E+02  0.10566000000E+00 0.  1.
         22    1    1    0    0    0  0.15957148059E+02  0.42368813929E+01 -0.27926393245E+02  0.32441719711E+02  0.00000000000E+00 0.  1.
</event>
<event>
 5    1  0.6903325E-004  0.9118800E+02  0.7818608E-02  0.1130116E+00
         25   -1    0    0    0    0  0.00000000000E+00  0.00000000000E+00  0.99999998245E-14  0.12500000000E+03  0.12500000000E+03 0.  0.
        -13    1    3    3    0    0  0.31657343381E+02  0.19552066210E+02  0.11230856192E+02  0.38866617783E+02  0.10566000000E+00 0.  1.
         23    2    1    0    0    0  0.39111025282E+01 -0.27687850714E+02 -0.61995027300E+01  0.96358288559E+02  0.92003109403E+02 0.  0.
         13    1    3    3    0    0 -0.27746240853E+02 -0.47239916924E+02 -0.17430358922E+02  0.57491670777E+02  0.10566000000E+00 0. -1.
         22    1    1    0    0    0 -0.39111025282E+01  0.27687850714E+02  0.61995027300E+01  0.28641711441E+02  0.00000000000E+00 0. -1.
</event>
<event>
 5    1  0.6903325E-004  0.9118800E+02  0.7818608E-02  0.1130116E+00
         25   -1    0    0    0    0  0.00000000000E+00  0.00000000000E+00  0.99999998245E-14  0.12500000000E+03  0.12500000000E+03 0.  0.
        -13    1    3    3    0    0  0.85669651456E+01  0.29369131046E+02 -0.20052714082E+02  0.36579519629E+02  0.10566000000E+00 0. -1.
         23    2    1    0    0    0 -0.24382910947E+02  0.26429052997E+01  0.18791959560E+02  0.94102604660E+02  0.88885607187E+02 0.  0.
         13    1    3    3    0    0 -0.32949876093E+02 -0.26726225746E+02  0.38844673641E+02  0.57523085031E+02  0.10566000000E+00 0.  1.
         22    1    1    0    0    0  0.24382910947E+02 -0.26429052997E+01 -0.18791959560E+02  0.30897395340E+02  0.00000000000E+00 0.  1.
</event>
<event>
 5    1  0.6903325E-004  0.9118800E+02  0.7818608E-02  0.1130116E+00
         25   -1    0    0    0    0  0.00000000000E+00  0.00000000000E+00  0.99999998245E-14  0.12500000000E+03  0.12500000000E+03 0.  0.
        -13    1    3    3    0    0  0.66357793783E+01 -0.77037990506E+01 -0.58958805379E+02  0.59829206777E+02  0.10566000000E+00 0.  1.
         23    2    1    0    0    0  0.14123213677E+02  0.30202044590E+01 -0.26587742146E+02  0.94742854861E+02  0.89781477573E+02 0.  0.
         13    1    3    3    0    0  0.74874342989E+01  0.10724003510E+02  0.32371063233E+02  0.34913648084E+02  0.10566000000E+00 0. -1.
         22    1    1    0    0    0 -0.14123213677E+02 -0.30202044590E+01  0.26587742146E+02  0.30257145139E+02  0.00000000000E+00 0.  1.
</event>
<event>
 5    1  0.6903325E-004  0.9118800E+02  0.7818608E-02  0.1130116E+00
         25   -1    0    0    0    0  0.00000000000E+00  0.00000000000E+00  0.99999998245E-14  0.12500000000E+03  0.12500000000E+03 0.  0.
        -13    1    3    3    0    0 -0.31392316001E+02 -0.45175176448E+00 -0.20153767765E+02  0.37307735159E+02  0.10566000000E+00 0.  1.
         23    2    1    0    0    0  0.11656992927E+02  0.27306890436E+02  0.58266721553E+01  0.94742738759E+02  0.89781315928E+02 0.  0.
         13    1    3    3    0    0  0.43049308928E+02  0.27758642201E+02  0.25980439921E+02  0.57435003600E+02  0.10566000000E+00 0. -1.
         22    1    1    0    0    0 -0.11656992927E+02 -0.27306890436E+02 -0.58266721553E+01  0.30257261241E+02  0.00000000000E+00 0. -1.
</event>
<event>
 5    1  0.6903325E-004  0.9118800E+02  0.7818608E-02  0.1130116E+00
         25   -1    0    0    0    0  0.00000000000E+00  0.00000000000E+00  0.99999998245E-14  0.12500000000E+03  0.12500000000E+03 0.  0.
        -13    1    3    3    0    0 -0.12565643553E+02 -0.60386140458E+02  0.18303280077E+01  0.61706909029E+02  0.10566000000E+00 0. -1.
         23    2    1    0    0    0 -0.12891786620E+02 -0.30833033677E+02 -0.20597803434E+01  0.91516917361E+02  0.85171763750E+02 0.  0.
         13    1    3    3    0    0 -0.32614306710E+00  0.29553106781E+02 -0.38901083512E+01  0.29810008332E+02  0.10566000000E+00 0.  1.
         22    1    1    0    0    0  0.12891786620E+02  0.30833033677E+02  0.20597803434E+01  0.33483082639E+02  0.00000000000E+00 0. -1.
</event>
<event>
 5    1  0.6903325E-004  0.9118800E+02  0.7818608E-02  0.1130116E+00
         25   -1    0    0    0    0  0.00000000000E+00  0.00000000000E+00  0.99999998245E-14  0.12500000000E+03  0.12500000000E+03 0.  0.
        -13    1    3    3    0    0  0.58694218388E+01  0.39663951618E+02  0.21165257212E+02  0.45339369731E+02  0.10566000000E+00 0.  1.
         23    2    1    0    0    0 -0.13433824053E+02  0.85162295152E+01 -0.19339212147E+02  0.99960053508E+02  0.96772999215E+02 0.  0.
         13    1    3    3    0    0 -0.19303245892E+02 -0.31147722103E+02 -0.40504469359E+02  0.54620683777E+02  0.10566000000E+00 0. -1.
         22    1    1    0    0    0  0.13433824053E+02 -0.85162295152E+01  0.19339212147E+02  0.25039946492E+02  0.00000000000E+00 0. -1.
</event>
<event>
 5    1  0.6903325E-004  0.9118800E+02  0.7818608E-02  0.1130116E+00
         25   -1    0    0    0    0  0.00000000000E+00  0.00000000000E+00  0.99999998245E-14  0.12500000000E+03  0.12500000000E+03 0.  0.
        -13    1    3    3    0    0 -0.13714377162E+02  0.42749361306E+02  0.27084973064E+02  0.52432804264E+02  0.10566000000E+00 0.  1.
         23    2    1    0    0    0  0.19073444634E+02  0.18178900743E+02  0.10367284160E+02  0.96684822033E+02  0.92445689507E+02 0.  0.
         13    1    3    3    0    0  0.32787821796E+02 -0.24570460563E+02 -0.16717688904E+02  0.44252017770E+02  0.10566000000E+00 0. -1.
         22    1    1    0    0    0 -0.19073444634E+02 -0.18178900743E+02 -0.10367284160E+02  0.28315177967E+02  0.00000000000E+00 0.  1.
</event>
<event>
 5    1  0.6903325E-004  0.9118800E+02  0.7818608E-02  0.1130116E+00
         25   -1    0    0    0    0  0.00000000000E+00  0.00000000000E+00  0.99999998245E-14  0.12500000000E+03  0.12500000000E+03 0.  0.
        -13    1    3    3    0    0  0.19594801916E+02 -0.11748807894E+02 -0.25541641380E+02  0.34269189624E+02  0.10566000000E+00 0. -1.
         23    2    1    0    0    0 -0.18344551919E+02 -0.80604047859E+01  0.22024611243E+02  0.95224570350E+02  0.90449668809E+02 0.  0.
         13    1    3    3    0    0 -0.37939353836E+02  0.36884031076E+01  0.47566252622E+02  0.60955380727E+02  0.10566000000E+00 0.  1.
         22    1    1    0    0    0  0.18344551919E+02  0.80604047859E+01 -0.22024611243E+02  0.29775429650E+02  0.00000000000E+00 0.  1.
</event>
<event>
 5    1  0.6903325E-004  0.9118800E+02  0.7818608E-02  0.1130116E+00
         25   -1    0    0    0    0  0.00000000000E+00  0.00000000000E+00  0.99999998245E-14  0.12500000000E+03  0.12500000000E+03 0.  0.
        -13    1    3    3    0    0 -0.10206030904E+02  0.16344897489E+02  0.31102160445E+02  0.36587898124E+02  0.10566000000E+00 0. -1.
         23    2    1    0    0    0 -0.11782783741E+02 -0.18504825621E+02 -0.17863149882E+02  0.96709459396E+02  0.92478996799E+02 0.  0.
         13    1    3    3    0    0 -0.15767528372E+01 -0.34849723110E+02 -0.48965310327E+02  0.60121561272E+02  0.10566000000E+00 0.  1.
         22    1    1    0    0    0  0.11782783741E+02  0.18504825621E+02  0.17863149882E+02  0.28290540604E+02  0.00000000000E+00 0.  1.
</event>
<event>
 5    1  0.6903325E-004  0.9118800E+02  0.7818608E-02  0.1130116E+00
         25   -1    0    0    0    0  0.00000000000E+00  0.00000000000E+00  0.99999998245E-14  0.12500000000E+03  0.12500000000E+03 0.  0.
        -13    1    3    3    0    0  0.18080037216E+02 -0.51961325832E+02 -0.17591815919E+02  0.57761148529E+02  0.10566000000E+00 0.  1.
         23    2    1    0    0    0 -0.29094970165E+01 -0.23017969108E+02 -0.21039065164E+02  0.93680128708E+02  0.88289479424E+02 0.  0.
         13    1    3    3    0    0 -0.20989534232E+02  0.28943356724E+02 -0.34472492451E+01  0.35918980179E+02  0.10566000000E+00 0. -1.
         22    1    1    0    0    0  0.29094970165E+01  0.23017969108E+02  0.21039065164E+02  0.31319871292E+02  0.00000000000E+00 0.  1.
</event>
<event>
 5    1  0.6903325E-004  0.9118800E+02  0.7818608E-02  0.1130116E+00
         25   -1    0    0    0    0  0.00000000000E+00  0.00000000000E+00  0.99999998245E-14  0.12500000000E+03  0.12500000000E+03 0.  0.
        -13    1    3    3    0    0  0.18407028200E+02  0.30034853566E+02  0.26491820929E+02  0.44076511387E+02  0.10566000000E+00 0.  1.
         23    2    1    0    0    0 -0.22781036711E+02  0.19524602495E+02 -0.14769900845E+01  0.94960571978E+02  0.90084088464E+02 0.  0.
         13    1    3    3    0    0 -0.41188064911E+02 -0.10510251071E+02 -0.27968811013E+02  0.50884060591E+02  0.10566000000E+00 0. -1.
         22    1    1    0    0    0  0.22781036711E+02 -0.19524602495E+02  0.14769900845E+01  0.30039428022E+02  0.00000000000E+00 0. -1.
</event>
<event>
 5    1  0.6903325E-004  0.9118800E+02  0.7818608E-02  0.1130116E+00
         25   -1    0    0    0    0  0.00000000000E+00  0.00000000000E+00  0.99999998245E-14  0.12500000000E+03  0.12500000000E+03 0.  0.
        -13    1    3    3    0    0 -0.23727651918E+02  0.14387560054E+02 -0.24496484573E+02  0.37014757467E+02  0.10566000000E+00 0. -1.
         23    2    1    0    0    0  0.28465758455E+02 -0.48564019188E+01 -0.81541821149E+01  0.94993755151E+02  0.90130121423E+02 0.  0.
         13    1    3    3    0    0  0.52193410373E+02 -0.19243961973E+02  0.16342302458E+02  0.57978997684E+02  0.10566000000E+00 0.  1.
         22    1    1    0    0    0 -0.28465758455E+02  0.48564019188E+01  0.81541821149E+01  0.30006244849E+02  0.00000000000E+00 0.  1.
</event>
<event>
 5    1  0.6903325E-004  0.9118800E+02  0.7818608E-02  0.1130116E+00
         25   -1    0    0    0    0  0.00000000000E+00  0.00000000000E+00  0.99999998245E-14  0.12500000000E+03  0.12500000000E+03 0.  0.
        -13    1    3    3    0    0  0.49630986766E+02  0.41620562786E+01 -0.34866704660E+02  0.60796840524E+02  0.10566000000E+00 0.  1.
         23    2    1    0    0    0  0.16974534314E+02  0.32869092975E+01 -0.24388662614E+02  0.95104424207E+02  0.90283476073E+02 0.  0.
         13    1    3    3    0    0 -0.32656452452E+02 -0.87514698105E+00  0.10478042046E+02  0.34307583683E+02  0.10566000000E+00 0. -1.
         22    1    1    0    0    0 -0.16974534314E+02 -0.32869092975E+01  0.24388662614E+02  0.29895575793E+02  0.00000000000E+00 0.  1.
</event>
<event>
 5    1  0.6903325E-004  0.9118800E+02  0.7818608E-02  0.1130116E+00
         25   -1    0    0    0    0  0.00000000000E+00  0.00000000000E+00  0.99999998245E-14  0.12500000000E+03  0.12500000000E+03 0.  0.
        -13    1    3    3    0    0  0.27361239085E+02  0.41524794112E+02 -0.93369726699E+01  0.50597788024E+02  0.10566000000E+00 0.  1.
         23    2    1    0    0    0 -0.11934328231E+02  0.23568908025E+02  0.83673696257E+01  0.97288369043E+02  0.93258202110E+02 0.  0.
         13    1    3    3    0    0 -0.39295567315E+02 -0.17955886086E+02  0.17704342296E+02  0.46690581019E+02  0.10566000000E+00 0. -1.
         22    1    1    0    0    0  0.11934328231E+02 -0.23568908025E+02 -0.83673696257E+01  0.27711630957E+02  0.00000000000E+00 0.  1.
</event>
<event>
 5    1  0.6903325E-004  0.9118800E+02  0.7818608E-02  0.1130116E+00
         25   -1    0    0    0    0  0.00000000000E+00  0.00000000000E+00  0.99999998245E-14  0.12500000000E+03  0.12500000000E+03 0.  0.
        -13    1    3    3    0    0 -0.16385322014E+02  0.64663128707E+01 -0.58268798798E+02  0.60873278678E+02  0.10566000000E+00 0. -1.
         23    2    1    0    0    0 -0.15530827858E+02 -0.26859949946E+01 -0.24523625437E+02  0.95848166651E+02  0.91307402015E+02 0.  0.
         13    1    3    3    0    0  0.85449415583E+00 -0.91523078653E+01  0.33745173361E+02  0.34974887973E+02  0.10566000000E+00 0.  1.
         22    1    1    0    0    0  0.15530827858E+02  0.26859949946E+01  0.24523625437E+02  0.29151833349E+02  0.00000000000E+00 0. -1.
</event>
<event>
 5    1  0.6903325E-004  0.9118800E+02  0.7818608E-02  0.1130116E+00
         25   -1    0    0    0    0  0.00000000000E+00  0.00000000000E+00  0.99999998245E-14  0.12500000000E+03  0.12500000000E+03 0.  0.
        -13    1    3    3    0    0  0.46375330914E+02  0.54897934907E+01 -0.30246774755E+02  0.55638904528E+02  0.10566000000E+00 0. -1.
         23    2    1    0    0    0  0.78753865625E+01  0.15565863284E+02 -0.23068913670E+02  0.96077818354E+02  0.91621256204E+02 0.  0.
         13    1    3    3    0    0 -0.38499944352E+02  0.10076069794E+02  0.71778610858E+01  0.40438913825E+02  0.10566000000E+00 0.  1.
         22    1    1    0    0    0 -0.78753865625E+01 -0.15565863284E+02  0.23068913670E+02  0.28922181646E+02  0.00000000000E+00 0. -1.
</event>
<event>
 5    1  0.6903325E-004  0.9118800E+02  0.7818608E-02  0.1130116E+00
         25   -1    0    0    0    0  0.00000000000E+00  0.00000000000E+00  0.99999998245E-14  0.12500000000E+03  0.12500000000E+03 0.  0.
        -13    1    3    3    0    0 -0.25640306931E+02  0.21246728378E+01  0.52956551156E+02  0.58875691491E+02  0.10566000000E+00 0.  1.
         23    2    1    0    0    0  0.36991531238E-01 -0.69893262870E+01  0.29041154288E+02  0.95129601732E+02  0.90318328334E+02 0.  0.
         13    1    3    3    0    0  0.25677298463E+02 -0.91139991248E+01 -0.23915396868E+02  0.36253910241E+02  0.10566000000E+00 0. -1.
         22    1    1    0    0    0 -0.36991531238E-01  0.69893262870E+01 -0.29041154288E+02  0.29870398268E+02  0.00000000000E+00 0.  1.
</event>
<event>
 5    1  0.6903325E-004  0.9118800E+02  0.7818608E-02  0.1130116E+00
         25   -1    0    0    0    0  0.00000000000E+00  0.00000000000E+00  0.99999998245E-14  0.12500000000E+03  0.12500000000E+03 0.  0.
        -13    1    3    3    0    0  0.18472767975E+02 -0.11655581015E+02  0.32177427034E+02  0.38890791970E+02  0.10566000000E+00 0.  1.
         23    2    1    0    0    0 -0.25673454365E+02  0.10626842011E+02  0.13134681533E+01  0.97183076577E+02  0.93116964857E+02 0.  0.
         13    1    3    3    0    0 -0.44146222340E+02  0.22282423027E+02 -0.30863958881E+02  0.58292284607E+02  0.10566000000E+00 0. -1.
         22    1    1    0    0    0  0.25673454365E+02 -0.10626842011E+02 -0.13134681533E+01  0.27816923423E+02  0.00000000000E+00 0. -1.
</event>
<event>
 5    1  0.6903325E-004  0.9118800E+02  0.7818608E-02  0.1130116E+00
         25   -1    0    0    0    0  0.00000000000E+00  0.00000000000E+00  0.99999998245E-14  0.12500000000E+03  0.12500000000E+03 0.  0.
        -13    1    3    3    0    0 -0.45702897092E+02 -0.31605849483E+02  0.20878962436E+01  0.55606249638E+02  0.10566000000E+00 0.  1.
         23    2    1    0    0    0 -0.90222860008E+01 -0.20593414052E+02  0.17111632680E+02  0.96745826503E+02  0.92528139643E+02 0.  0.
         13    1    3    3    0    0  0.36680611091E+02  0.11012435430E+02  0.15023736436E+02  0.41139576865E+02  0.10566000000E+00 0. -1.
         22    1    1    0    0    0  0.90222860008E+01  0.20593414052E+02 -0.17111632680E+02  0.28254173497E+02  0.00000000000E+00 0.  1.
</event>
<event>
 5    1  0.6903325E-004  0.9118800E+02  0.7818608E-02  0.1130116E+00
         25   -1    0    0    0    0  0.00000000000E+00  0.00000000000E+00  0.99999998245E-14  0.12500000000E+03  0.12500000000E+03 0.  0.
        -13    1    3    3    0    0  0.46956916345E+02  0.21013376307E+01  0.15636086817E+02  0.49536511660E+02  0.10566000000E+00 0.  1.
         23    2    1    0    0    0  0.24144429906E+01  0.59517803444E+01  0.28280859126E+02  0.95998961793E+02  0.91513607994E+02 0.  0.
         13    1    3    3    0    0 -0.44542473354E+02  0.38504427138E+01  0.12644772309E+02  0.46462450133E+02  0.10566000000E+00 0. -1.
         22    1    1    0    0    0 -0.24144429906E+01 -0.59517803444E+01 -0.28280859126E+02  0.29001038207E+02  0.00000000000E+00 0.  1.
</event>
<event>
 5    1  0.6903325E-004  0.9118800E+02  0.7818608E-02  0.1130116E+00
         25   -1    0    0    0    0  0.00000000000E+00  0.00000000000E+00  0.99999998245E-14  0.12500000000E+03  0.12500000000E+03 0.  0.
        -13    1    3    3    0    0 -0.32003670394E+01  0.33164797177E-02 -0.36221042445E+02  0.36362307958E+02  0.10566000000E+00 0.  1.
         23    2    1    0    0    0 -0.15389414624E+02 -0.98370899050E+01  0.21857026904E+02  0.96516109020E+02  0.92217282844E+02 0.  0.
         13    1    3    3    0    0 -0.12189047584E+02 -0.98404063847E+01  0.58078069349E+02  0.60153801062E+02  0.10566000000E+00 0. -1.
         22    1    1    0    0    0  0.15389414624E+02  0.98370899050E+01 -0.21857026904E+02  0.28483890980E+02  0.00000000000E+00 0. -1.
</event>
<event>
 5    1  0.6903325E-004  0.9118800E+02  0.7818608E-02  0.1130116E+00
         25   -1    0    0    0    0  0.00000000000E+00  0.00000000000E+00  0.99999998245E-14  0.12500000000E+03  0.12500000000E+03 0.  0.
        -13    1    3    3    0    0  0.19033058959E+02  0.28502979081E+02 -0.11305974621E+02  0.36090350179E+02  0.10566000000E+00 0.  1.
         23    2    1    0    0    0 -0.26748735468E+02 -0.16206818319E+01  0.11993142110E+02  0.95640897214E+02  0.91023207500E+02 0.  0.
         13    1    3    3    0    0 -0.45781794427E+02 -0.30123660913E+02  0.23299116732E+02  0.59550547036E+02  0.10566000000E+00 0. -1.
         22    1    1    0    0    0  0.26748735468E+02  0.16206818319E+01 -0.11993142110E+02  0.29359102786E+02  0.00000000000E+00 0. -1.
</event>
<event>
 5    1  0.6903325E-004  0.9118800E+02  0.7818608E-02  0.1130116E+00
         25   -1    0    0    0    0  0.00000000000E+00  0.00000000000E+00  0.99999998245E-14  0.12500000000E+03  0.12500000000E+03 0.  0.
        -13    1    3    3    0    0 -0.36950239484E+02  0.20567545458E+02 -0.37239482990E+02  0.56348330778E+02  0.10566000000E+00 0. -1.
         23    2    1    0    0    0 -0.13638284793E+02 -0.72360560996E+01 -0.26744178361E+02  0.94119352401E+02  0.88909156448E+02 0.  0.
         13    1    3    3    0    0  0.23311954691E+02 -0.27803601558E+02  0.10495304630E+02  0.37771021623E+02  0.10566000000E+00 0.  1.
         22    1    1    0    0    0  0.13638284793E+02  0.72360560996E+01  0.26744178361E+02  0.30880647599E+02  0.00000000000E+00 0. -1.
</event>
<event>
 5    1  0.6903325E-004  0.9118800E+02  0.7818608E-02  0.1130116E+00
         25   -1    0    0    0    0  0.00000000000E+00  0.00000000000E+00  0.99999998245E-14  0.12500000000E+03  0.12500000000E+03 0.  0.
        -13    1    3    3    0    0 -0.16366404952E+02  0.44836688366E+02  0.13395372347E+01  0.47749276002E+02  0.10566000000E+00 0. -1.
         23    2    1    0    0    0 -0.29544763006E+02 -0.30708421518E+00 -0.44056330668E+01  0.95126986685E+02  0.90314709053E+02 0.  0.
         13    1    3    3    0    0 -0.13178358054E+02 -0.45143772581E+02 -0.57451703015E+01  0.47377710684E+02  0.10566000000E+00 0.  1.
         22    1    1    0    0    0  0.29544763006E+02  0.30708421518E+00  0.44056330668E+01  0.29873013315E+02  0.00000000000E+00 0. -1.
</event>
<event>
 5    1  0.6903325E-004  0.9118800E+02  0.7818608E-02  0.1130116E+00
         25   -1    0    0    0    0  0.00000000000E+00  0.00000000000E+00  0.99999998245E-14  0.12500000000E+03  0.12500000000E+03 0.  0.
        -13    1    3    3    0    0  0.32150988241E+02 -0.71548957015E+01 -0.29354027943E+02  0.44119708724E+02  0.10566000000E+00 0.  1.
         23    2    1    0    0    0  0.13097088106E+02 -0.10662005690E+02  0.20987913527E+02  0.98061095115E+02  0.94288248360E+02 0.  0.
         13    1    3    3    0    0 -0.19053900135E+02 -0.35071099885E+01  0.50341941470E+02  0.53941386391E+02  0.10566000000E+00 0. -1.
         22    1    1    0    0    0 -0.13097088106E+02  0.10662005690E+02 -0.20987913527E+02  0.26938904885E+02  0.00000000000E+00 0. -1.
</event>
<event>
 5    1  0.6903325E-004  0.9118800E+02  0.7818608E-02  0.1130116E+00
         25   -1    0    0    0    0  0.00000000000E+00  0.00000000000E+00  0.99999998245E-14  0.12500000000E+03  0.12500000000E+03 0.  0.
        -13    1    3    3    0    0  0.24602126991E+02 -0.84703729649E+01  0.21745504119E+02  0.33910027780E+02  0.10566000000E+00 0. -1.
         23    2    1    0    0    0 -0.25005514649E+02 -0.14269392352E+02 -0.11596210272E+02  0.93961903833E+02  0.88687518616E+02 0.  0.
         13    1    3    3    0    0 -0.49607641640E+02 -0.57990193868E+01 -0.33341714391E+02  0.60051876053E+02  0.10566000000E+00 0.  1.
         22    1    1    0    0    0  0.25005514649E+02  0.14269392352E+02  0.11596210272E+02  0.31038096167E+02  0.00000000000E+00 0.  1.
</event>
<event>
 5    1  0.6903325E-004  0.9118800E+02  0.7818608E-02  0.1130116E+00
         25   -1    0    0    0    0  0.00000000000E+00  0.00000000000E+00  0.99999998245E-14  0.12500000000E+03  0.12500000000E+03 0.  0.
        -13    1    3    3    0    0  0.28703627190E+02 -0.16130078750E+02  0.16751629922E+02  0.36941926363E+02  0.10566000000E+00 0.  1.
         23    2    1    0    0    0 -0.22678101517E+01  0.30145217028E+02  0.12458734919E+01  0.94743938239E+02  0.89782985914E+02 0.  0.
         13    1    3    3    0    0 -0.30971437342E+02  0.46275295778E+02 -0.15505756431E+02  0.57802011875E+02  0.10566000000E+00 0. -1.
         22    1    1    0    0    0  0.22678101517E+01 -0.30145217028E+02 -0.12458734919E+01  0.30256061761E+02  0.00000000000E+00 0. -1.
</event>
<event>
 5    1  0.6903325E-004  0.9118800E+02  0.7818608E-02  0.1130116E+00
         25   -1    0    0    0    0  0.00000000000E+00  0.00000000000E+00  0.99999998245E-14  0.12500000000E+03  0.12500000000E+03 0.  0.
        -13    1    3    3    0    0 -0.70325535304E+01  0.11793979184E+02 -0.32694053076E+02  0.35460781502E+02  0.10566000000E+00 0. -1.
         23    2    1    0    0    0 -0.16056464828E+02 -0.11339751959E+02  0.21981655880E+02  0.95511133754E+02  0.90844831655E+02 0.  0.
         13    1    3    3    0    0 -0.90239112977E+01 -0.23133731143E+02  0.54675708956E+02  0.60050352252E+02  0.10566000000E+00 0.  1.
         22    1    1    0    0    0  0.16056464828E+02  0.11339751959E+02 -0.21981655880E+02  0.29488866246E+02  0.00000000000E+00 0.  1.
</event>
<event>
 5    1  0.6903325E-004  0.9118800E+02  0.7818608E-02  0.1130116E+00
         25   -1    0    0    0    0  0.00000000000E+00  0.00000000000E+00  0.99999998245E-14  0.12500000000E+03  0.12500000000E+03 0.  0.
        -13    1    3    3    0    0  0.85288546170E+01 -0.13059055184E+02 -0.55298347150E+02  0.57456058384E+02  0.10566000000E+00 0.  1.
         23    2    1    0    0    0 -0.11955044946E+02 -0.13825796609E+02 -0.26782606008E+02  0.92574952026E+02  0.86710656822E+02 0.  0.
         13    1    3    3    0    0 -0.20483899563E+02 -0.76674142436E+00  0.28515741143E+02  0.35118893642E+02  0.10566000000E+00 0. -1.
         22    1    1    0    0    0  0.11955044946E+02  0.13825796609E+02  0.26782606008E+02  0.32425047974E+02  0.00000000000E+00 0.  1.
</event>
<event>
 5    1  0.6903325E-004  0.9118800E+02  0.7818608E-02  0.1130116E+00
         25   -1    0    0    0    0  0.00000000000E+00  0.00000000000E+00  0.99999998245E-14  0.12500000000E+03  0.12500000000E+03 0.  0.
        -13    1    3    3    0    0  0.79103928014E+00 -0.24183143246E+02 -0.30964708392E+02  0.39297258050E+02  0.10566000000E+00 0. -1.
         23    2    1    0    0    0  0.12825392983E+02  0.24793904421E+02 -0.31086504223E+01  0.96912776765E+02  0.92753405281E+02 0.  0.
         13    1    3    3    0    0  0.12034353703E+02  0.48977047667E+02  0.27856057969E+02  0.57615518715E+02  0.10566000000E+00 0.  1.
         22    1    1    0    0    0 -0.12825392983E+02 -0.24793904421E+02  0.31086504223E+01  0.28087223235E+02  0.00000000000E+00 0.  1.
</event>
<event>
 5    1  0.6903325E-004  0.9118800E+02  0.7818608E-02  0.1130116E+00
         25   -1    0    0    0    0  0.00000000000E+00  0.00000000000E+00  0.99999998245E-14  0.12500000000E+03  0.12500000000E+03 0.  0.
        -13    1    3    3    0    0 -0.46469420481E+02  0.14043110122E+02  0.22893120342E+02  0.53672358852E+02  0.10566000000E+00 0.  1.
         23    2    1    0    0    0 -0.29150640638E+02 -0.15552866532E+02  0.83416665249E+01  0.90923103026E+02  0.84295763574E+02 0.  0.
         13    1    3    3    0    0  0.17318779843E+02 -0.29595976654E+02 -0.14551453817E+02  0.37250744175E+02  0.10566000000E+00 0. -1.
         22    1    1    0    0    0  0.29150640638E+02  0.15552866532E+02 -0.83416665249E+01  0.34076896974E+02  0.00000000000E+00 0.  1.
</event>
<event>
 5    1  0.6903325E-004  0.9118800E+02  0.7818608E-02  0.1130116E+00
         25   -1    0    0    0    0  0.00000000000E+00  0.00000000000E+00  0.99999998245E-14  0.12500000000E+03  0.12500000000E+03 0.  0.
        -13    1    3    3    0    0  0.25617371457E+02 -0.28313133062E+02 -0.10518355587E+02  0.39604673871E+02  0.10566000000E+00 0. -1.
         23    2    1    0    0    0 -0.63363516544E+01  0.10981197509E+02  0.21869164293E+02  0.99721621929E+02  0.96464529658E+02 0.  0.
         13    1    3    3    0    0 -0.31953723112E+02  0.39294330571E+02  0.32387519881E+02  0.60116948058E+02  0.10566000000E+00 0.  1.
         22    1    1    0    0    0  0.63363516544E+01 -0.10981197509E+02 -0.21869164293E+02  0.25278378071E+02  0.00000000000E+00 0.  1.
</event>
<event>
 5    1  0.6903325E-004  0.9118800E+02  0.7818608E-02  0.1130116E+00
         25   -1    0    0    0    0  0.00000000000E+00  0.00000000000E+00  0.99999998245E-14  0.12500000000E+03  0.12500000000E+03 0.  0.
        -13    1    3    3    0    0 -0.39131170114E+02 -0.16507553189E+02  0.41235067318E+01  0.42670390889E+02  0.10566000000E+00 0. -1.
         23    2    1    0    0    0 -0.89386520760E+01  0.21104592131E+02 -0.18119043800E+02  0.95783513931E+02  0.91218849384E+02 0.  0.
         13    1    3    3    0    0  0.30192518038E+02  0.37612145321E+02 -0.22242550532E+02  0.53113123042E+02  0.10566000000E+00 0.  1.
         22    1    1    0    0    0  0.89386520760E+01 -0.21104592131E+02  0.18119043800E+02  0.29216486069E+02  0.00000000000E+00 0.  1.
</event>
<event>
 5    1  0.6903325E-004  0.9118800E+02  0.7818608E-02  0.1130116E+00
         25   -1    0    0    0    0  0.00000000000E+00  0.00000000000E+00  0.99999998245E-14  0.12500000000E+03  0.12500000000E+03 0.  0.
        -13    1    3    3    0    0  0.30530672405E+02  0.13957161476E+02 -0.42587858857E+01  0.33838923376E+02  0.10566000000E+00 0.  1.
         23    2    1    0    0    0 -0.25385405257E+02 -0.11709506741E+02  0.65007841718E+01  0.96298231012E+02  0.91921476016E+02 0.  0.
         13    1    3    3    0    0 -0.55916077662E+02 -0.25666668218E+02  0.10759570057E+02  0.62459307636E+02  0.10566000000E+00 0. -1.
         22    1    1    0    0    0  0.25385405257E+02  0.11709506741E+02 -0.65007841718E+01  0.28701768988E+02  0.00000000000E+00 0. -1.
</event>
<event>
 5    1  0.6903325E-004  0.9118800E+02  0.7818608E-02  0.1130116E+00
         25   -1    0    0    0    0  0.00000000000E+00  0.00000000000E+00  0.99999998245E-14  0.12500000000E+03  0.12500000000E+03 0.  0.
        -13    1    3    3    0    0 -0.55425826512E+02  0.91919601959E+01 -0.21718047564E+02  0.60234534370E+02  0.10566000000E+00 0. -1.
         23    2    1    0    0    0 -0.21960138750E+02 -0.44952683599E+01 -0.17350480514E+02  0.96654024878E+02  0.92404037896E+02 0.  0.
         13    1    3    3    0    0  0.33465687762E+02 -0.13687228556E+02  0.43675670500E+01  0.36419490508E+02  0.10566000000E+00 0.  1.
         22    1    1    0    0    0  0.21960138750E+02  0.44952683599E+01  0.17350480514E+02  0.28345975122E+02  0.00000000000E+00 0. -1.
</event>
<event>
 5    1  0.6903325E-004  0.9118800E+02  0.7818608E-02  0.1130116E+00
         25   -1    0    0    0    0  0.00000000000E+00  0.00000000000E+00  0.99999998245E-14  0.12500000000E+03  0.12500000000E+03 0.  0.
        -13    1    3    3    0    0  0.32722454070E+02 -0.46096788116E+02 -0.30921735935E+01  0.56614888293E+02  0.10566000000E+00 0.  1.
         23    2    1    0    0    0  0.13103414636E+02 -0.14090245042E+02 -0.19517963502E+02  0.97592238695E+02  0.93664612709E+02 0.  0.
         13    1    3    3    0    0 -0.19619039434E+02  0.32006543073E+02 -0.16425789908E+02  0.40977350402E+02  0.10566000000E+00 0. -1.
         22    1    1    0    0    0 -0.13103414636E+02  0.14090245042E+02  0.19517963502E+02  0.27407761305E+02  0.00000000000E+00 0.  1.
</event>
<event>
 5    1  0.6903325E-004  0.9118800E+02  0.7818608E-02  0.1130116E+00
         25   -1    0    0    0    0  0.00000000000E+00  0.00000000000E+00  0.99999998245E-14  0.12500000000E+03  0.12500000000E+03 0.  0.
        -13    1    3    3    0    0  0.19884474128E+01  0.29728500613E+02  0.21212703228E+02  0.36574958839E+02  0.10566000000E+00 0.  1.
         23    2    1    0    0    0  0.35420683483E+01 -0.21673502963E+01 -0.28793918125E+02  0.95908190560E+02  0.91389537913E+02 0.  0.
         13    1    3    3    0    0  0.15536209355E+01 -0.31895850909E+02 -0.50006621353E+02  0.59333231721E+02  0.10566000000E+00 0. -1.
         22    1    1    0    0    0 -0.35420683483E+01  0.21673502963E+01  0.28793918125E+02  0.29091809440E+02  0.00000000000E+00 0. -1.
</event>
<event>
 5    1  0.6903325E-004  0.9118800E+02  0.7818608E-02  0.1130116E+00
         25   -1    0    0    0    0  0.00000000000E+00  0.00000000000E+00  0.99999998245E-14  0.12500000000E+03  0.12500000000E+03 0.  0.
        -13    1    3    3    0    0  0.12223995735E+02  0.32218267763E+01  0.37900714088E+02  0.39953492112E+02  0.10566000000E+00 0.  1.
         23    2    1    0    0    0 -0.26575916373E+02  0.96796018223E+00 -0.51069043816E+01  0.97920547451E+02  0.94101736768E+02 0.  0.
         13    1    3    3    0    0 -0.38799912108E+02 -0.22538665940E+01 -0.43007618469E+02  0.57967055339E+02  0.10566000000E+00 0. -1.
         22    1    1    0    0    0  0.26575916373E+02 -0.96796018223E+00  0.51069043816E+01  0.27079452549E+02  0.00000000000E+00 0. -1.
</event>
<event>
 5    1  0.6903325E-004  0.9118800E+02  0.7818608E-02  0.1130116E+00
         25   -1    0    0    0    0  0.00000000000E+00  0.00000000000E+00  0.99999998245E-14  0.12500000000E+03  0.12500000000E+03 0.  0.
        -13    1    3    3    0    0 -0.38002937247E+02  0.26948547153E+02  0.11699956186E+02  0.48034857883E+02  0.10566000000E+00 0. -1.
         23    2    1    0    0    0 -0.20566002153E+00 -0.88631912999E+01  0.22150015139E+02  0.10114163403E+03  0.98287377153E+02 0.  0.
         13    1    3    3    0    0  0.37797277225E+02 -0.35811738453E+02  0.10450058953E+02  0.53106776148E+02  0.10566000000E+00 0.  1.
         22    1    1    0    0    0  0.20566002153E+00  0.88631912999E+01 -0.22150015139E+02  0.23858365970E+02  0.00000000000E+00 0.  1.
</event>
<event>
 5    1  0.6903325E-004  0.9118800E+02  0.7818608E-02  0.1130116E+00
         25   -1    0    0    0    0  0.00000000000E+00  0.00000000000E+00  0.99999998245E-14  0.12500000000E+03  0.12500000000E+03 0.  0.
        -13    1    3    3    0    0 -0.31231883597E+02  0.28336402490E+02 -0.19995546072E+02  0.46671354018E+02  0.10566000000E+00 0.  1.
         23    2    1    0    0    0 -0.11798657655E+02  0.19622671209E+02  0.21676379103E+02  0.93470284510E+02  0.87991881032E+02 0.  0.
         13    1    3    3    0    0  0.19433225942E+02 -0.87137312817E+01  0.41671925175E+02  0.46798930492E+02  0.10566000000E+00 0. -1.
         22    1    1    0    0    0  0.11798657655E+02 -0.19622671209E+02 -0.21676379103E+02  0.31529715490E+02  0.00000000000E+00 0.  1.
</event>
<event>
 5    1  0.6903325E-004  0.9118800E+02  0.7818608E-02  0.1130116E+00
         25   -1    0    0    0    0  0.00000000000E+00  0.00000000000E+00  0.99999998245E-14  0.12500000000E+03  0.12500000000E+03 0.  0.
        -13    1    3    3    0    0 -0.60630645378E+01 -0.75018638243E+01  0.31747614860E+02  0.33180731242E+02  0.10566000000E+00 0. -1.
         23    2    1    0    0    0  0.18697686956E+02  0.12195765309E+02 -0.20780019712E+02  0.94501649090E+02  0.89445023744E+02 0.  0.
         13    1    3    3    0    0  0.24760751493E+02  0.19697629134E+02 -0.52527634572E+02  0.61320917848E+02  0.10566000000E+00 0.  1.
         22    1    1    0    0    0 -0.18697686956E+02 -0.12195765309E+02  0.20780019712E+02  0.30498350910E+02  0.00000000000E+00 0.  1.
</event>
<event>
 5    1  0.6903325E-004  0.9118800E+02  0.7818608E-02  0.1130116E+00
         25   -1    0    0    0    0  0.00000000000E+00  0.00000000000E+00  0.99999998245E-14  0.12500000000E+03  0.12500000000E+03 0.  0.
        -13    1    3    3    0    0 -0.49181352013E+02 -0.18032541426E+02 -0.88871020483E+00  0.52390637580E+02  0.10566000000E+00 0. -1.
         23    2    1    0    0    0 -0.15289818018E+02 -0.11799551567E+02  0.23480693274E+02  0.94596860214E+02  0.89577983085E+02 0.  0.
         13    1    3    3    0    0  0.33891533995E+02  0.62329898590E+01  0.24369403479E+02  0.42206222634E+02  0.10566000000E+00 0.  1.
         22    1    1    0    0    0  0.15289818018E+02  0.11799551567E+02 -0.23480693274E+02  0.30403139786E+02  0.00000000000E+00 0. -1.
</event>
<event>
 5    1  0.6903325E-004  0.9118800E+02  0.7818608E-02  0.1130116E+00
         25   -1    0    0    0    0  0.00000000000E+00  0.00000000000E+00  0.99999998245E-14  0.12500000000E+03  0.12500000000E+03 0.  0.
        -13    1    3    3    0    0  0.21676345277E+02 -0.87942772874E+01 -0.28859699465E+02  0.37149652419E+02  0.10566000000E+00 0.  1.
         23    2    1    0    0    0 -0.25963130128E+02  0.12933841663E+01  0.75251508902E+01  0.97937389915E+02  0.94124106789E+02 0.  0.
         13    1    3    3    0    0 -0.47639475406E+02  0.10087661454E+02  0.36384850355E+02  0.60787737497E+02  0.10566000000E+00 0. -1.
         22    1    1    0    0    0  0.25963130128E+02 -0.12933841663E+01 -0.75251508902E+01  0.27062610085E+02  0.00000000000E+00 0. -1.
</event>
<event>
 5    1  0.6903325E-004  0.9118800E+02  0.7818608E-02  0.1130116E+00
         25   -1    0    0    0    0  0.00000000000E+00  0.00000000000E+00  0.99999998245E-14  0.12500000000E+03  0.12500000000E+03 0.  0.
        -13    1    3    3    0    0 -0.36343324036E+02  0.21350726738E+02  0.33743479050E+02  0.53993742940E+02  0.10566000000E+00 0. -1.
         23    2    1    0    0    0 -0.24213963131E+01  0.27732028993E+02  0.12871033880E+02  0.94330925914E+02  0.89206117943E+02 0.  0.
         13    1    3    3    0    0  0.33921927722E+02  0.63813022548E+01 -0.20872445170E+02  0.40337182974E+02  0.10566000000E+00 0.  1.
         22    1    1    0    0    0  0.24213963131E+01 -0.27732028993E+02 -0.12871033880E+02  0.30669074086E+02  0.00000000000E+00 0. -1.
</event>
<event>
 5    1  0.6903325E-004  0.9118800E+02  0.7818608E-02  0.1130116E+00
         25   -1    0    0    0    0  0.00000000000E+00  0.00000000000E+00  0.99999998245E-14  0.12500000000E+03  0.12500000000E+03 0.  0.
        -13    1    3    3    0    0  0.13117583671E+02  0.10453846566E+02 -0.29975820482E+02  0.34349889184E+02  0.10566000000E+00 0.  1.
         23    2    1    0    0    0 -0.11434415598E+02  0.13288695066E+02  0.24907527342E+02  0.94541500448E+02  0.89500698947E+02 0.  0.
         13    1    3    3    0    0 -0.24551999268E+02  0.28348485009E+01  0.54883347824E+02  0.60191611264E+02  0.10566000000E+00 0. -1.
         22    1    1    0    0    0  0.11434415598E+02 -0.13288695066E+02 -0.24907527342E+02  0.30458499552E+02  0.00000000000E+00 0. -1.
</event>
<event>
 5    1  0.6903325E-004  0.9118800E+02  0.7818608E-02  0.1130116E+00
         25   -1    0    0    0    0  0.00000000000E+00  0.00000000000E+00  0.99999998245E-14  0.12500000000E+03  0.12500000000E+03 0.  0.
        -13    1    3    3    0    0  0.27689583930E+02  0.44903564402E+02 -0.17804468301E+02  0.55678123260E+02  0.10566000000E+00 0.  1.
         23    2    1    0    0    0  0.17735304054E+01  0.13472448064E+02 -0.24520647374E+02  0.96965834869E+02  0.92824881995E+02 0.  0.
         13    1    3    3    0    0 -0.25916053525E+02 -0.31431116338E+02 -0.67161790730E+01  0.41287711609E+02  0.10566000000E+00 0. -1.
         22    1    1    0    0    0 -0.17735304054E+01 -0.13472448064E+02  0.24520647374E+02  0.28034165131E+02  0.00000000000E+00 0.  1.
</event>
<event>
 5    1  0.6903325E-004  0.9118800E+02  0.7818608E-02  0.1130116E+00
         25   -1    0    0    0    0  0.00000000000E+00  0.00000000000E+00  0.99999998245E-14  0.12500000000E+03  0.12500000000E+03 0.  0.
        -13    1    3    3    0    0  0.10389564459E+02  0.47734814809E+02  0.20393968041E+02  0.52938461359E+02  0.10566000000E+00 0. -1.
         23    2    1    0    0    0 -0.16597848100E+02  0.12399627223E+02  0.18147879740E+02  0.97457580791E+02  0.93484732432E+02 0.  0.
         13    1    3    3    0    0 -0.26987412559E+02 -0.35335187586E+02 -0.22460883019E+01  0.44519119433E+02  0.10566000000E+00 0.  1.
         22    1    1    0    0    0  0.16597848100E+02 -0.12399627223E+02 -0.18147879740E+02  0.27542419209E+02  0.00000000000E+00 0. -1.
</event>
<event>
 5    1  0.6903325E-004  0.9118800E+02  0.7818608E-02  0.1130116E+00
         25   -1    0    0    0    0  0.00000000000E+00  0.00000000000E+00  0.99999998245E-14  0.12500000000E+03  0.12500000000E+03 0.  0.
        -13    1    3    3    0    0 -0.40405213254E+01  0.35271019489E+02 -0.29954577343E+01  0.35628002462E+02  0.10566000000E+00 0.  1.
         23    2    1    0    0    0 -0.14200095980E+02 -0.22207831518E+02 -0.14192906980E+02  0.95062245991E+02  0.90225060254E+02 0.  0.
         13    1    3    3    0    0 -0.10159574654E+02 -0.57478851007E+02 -0.11197449245E+02  0.59434243529E+02  0.10566000000E+00 0. -1.
         22    1    1    0    0    0  0.14200095980E+02  0.22207831518E+02  0.14192906980E+02  0.29937754009E+02  0.00000000000E+00 0. -1.
</event>
<event>
 5    1  0.6903325E-004  0.9118800E+02  0.7818608E-02  0.1130116E+00
         25   -1    0    0    0    0  0.00000000000E+00  0.00000000000E+00  0.99999998245E-14  0.12500000000E+03  0.12500000000E+03 0.  0.
        -13    1    3    3    0    0  0.21225404798E+02 -0.16597978667E+02 -0.79013069073E+01  0.28079396709E+02  0.10566000000E+00 0.  1.
         23    2    1    0    0    0 -0.10421039159E+02  0.30277233306E+02  0.15667994308E+02  0.89351788832E+02  0.81932577209E+02 0.  0.
         13    1    3    3    0    0 -0.31646443957E+02  0.46875211973E+02  0.23569301215E+02  0.61272392123E+02  0.10566000000E+00 0. -1.
         22    1    1    0    0    0  0.10421039159E+02 -0.30277233306E+02 -0.15667994308E+02  0.35648211168E+02  0.00000000000E+00 0. -1.
</event>
<event>
 5    1  0.6903325E-004  0.9118800E+02  0.7818608E-02  0.1130116E+00
         25   -1    0    0    0    0  0.00000000000E+00  0.00000000000E+00  0.99999998245E-14  0.12500000000E+03  0.12500000000E+03 0.  0.
        -13    1    3    3    0    0 -0.33456438754E+02 -0.40214445619E+02  0.29550320641E+02  0.60081341068E+02  0.10566000000E+00 0.  1.
         23    2    1    0    0    0 -0.19885747175E+02 -0.88957278317E+01  0.19755492714E+02  0.95591558920E+02  0.90955427161E+02 0.  0.
         13    1    3    3    0    0  0.13570691579E+02  0.31318717787E+02 -0.97948279267E+01  0.35510217852E+02  0.10566000000E+00 0. -1.
         22    1    1    0    0    0  0.19885747175E+02  0.88957278317E+01 -0.19755492714E+02  0.29408441080E+02  0.00000000000E+00 0.  1.
</event>
<event>
 5    1  0.6903325E-004  0.9118800E+02  0.7818608E-02  0.1130116E+00
         25   -1    0    0    0    0  0.00000000000E+00  0.00000000000E+00  0.99999998245E-14  0.12500000000E+03  0.12500000000E+03 0.  0.
        -13    1    3    3    0    0  0.28131619475E+02  0.19051480340E+02  0.42293547416E+02  0.54250366215E+02  0.10566000000E+00 0. -1.
         23    2    1    0    0    0  0.27379721112E+02 -0.60938685369E+01  0.99231666820E+01  0.95246788427E+02  0.90480368626E+02 0.  0.
         13    1    3    3    0    0 -0.75189836249E+00 -0.25145348876E+02 -0.32370380734E+02  0.40996422212E+02  0.10566000000E+00 0.  1.
         22    1    1    0    0    0 -0.27379721112E+02  0.60938685369E+01 -0.99231666820E+01  0.29753211573E+02  0.00000000000E+00 0. -1.
</event>
<event>
 5    1  0.6903325E-004  0.9118800E+02  0.7818608E-02  0.1130116E+00
         25   -1    0    0    0    0  0.00000000000E+00  0.00000000000E+00  0.99999998245E-14  0.12500000000E+03  0.12500000000E+03 0.  0.
        -13    1    3    3    0    0 -0.34860137247E+01 -0.23434346566E+02 -0.23894313784E+02  0.33649224150E+02  0.10566000000E+00 0.  1.
         23    2    1    0    0    0 -0.14535198734E+01  0.19392190821E+02  0.21445247269E+02  0.96050588689E+02  0.91584098905E+02 0.  0.
         13    1    3    3    0    0  0.20324938513E+01  0.42826537387E+02  0.45339561053E+02  0.62401364539E+02  0.10566000000E+00 0. -1.
         22    1    1    0    0    0  0.14535198734E+01 -0.19392190821E+02 -0.21445247269E+02  0.28949411311E+02  0.00000000000E+00 0. -1.
</event>
<event>
 5    1  0.6903325E-004  0.9118800E+02  0.7818608E-02  0.1130116E+00
         25   -1    0    0    0    0  0.00000000000E+00  0.00000000000E+00  0.99999998245E-14  0.12500000000E+03  0.12500000000E+03 0.  0.
        -13    1    3    3    0    0 -0.94902631559E+01  0.80940171914E+01 -0.48979629014E+02  0.50542985976E+02  0.10566000000E+00 0.  1.
         23    2    1    0    0    0  0.17309591726E+02 -0.13265441278E+02 -0.18940353330E+02  0.96115213653E+02  0.91672260872E+02 0.  0.
         13    1    3    3    0    0  0.26799854882E+02 -0.21359458470E+02  0.30039275683E+02  0.45572227677E+02  0.10566000000E+00 0. -1.
         22    1    1    0    0    0 -0.17309591726E+02  0.13265441278E+02  0.18940353330E+02  0.28884786347E+02  0.00000000000E+00 0.  1.
</event>
<event>
 5    1  0.6903325E-004  0.9118800E+02  0.7818608E-02  0.1130116E+00
         25   -1    0    0    0    0  0.00000000000E+00  0.00000000000E+00  0.99999998245E-14  0.12500000000E+03  0.12500000000E+03 0.  0.
        -13    1    3    3    0    0  0.48876581958E+02  0.40975219309E+01 -0.14106425023E+01  0.49068432074E+02  0.10566000000E+00 0.  1.
         23    2    1    0    0    0  0.12944161224E+02  0.33533798267E+01  0.26992414364E+02  0.94877136603E+02  0.89968239678E+02 0.  0.
         13    1    3    3    0    0 -0.35932420734E+02 -0.74414210416E+00  0.28403056866E+02  0.45808704529E+02  0.10566000000E+00 0. -1.
         22    1    1    0    0    0 -0.12944161224E+02 -0.33533798267E+01 -0.26992414364E+02  0.30122863397E+02  0.00000000000E+00 0. -1.
</event>
<event>
 5    1  0.6903325E-004  0.9118800E+02  0.7818608E-02  0.1130116E+00
         25   -1    0    0    0    0  0.00000000000E+00  0.00000000000E+00  0.99999998245E-14  0.12500000000E+03  0.12500000000E+03 0.  0.
        -13    1    3    3    0    0 -0.21634153009E+02  0.30661379782E+02  0.63396969323E+01  0.38057321342E+02  0.10566000000E+00 0.  1.
         23    2    1    0    0    0  0.22848918620E+01 -0.20140423699E+02  0.20713308533E+02  0.96018996774E+02  0.91540970027E+02 0.  0.
         13    1    3    3    0    0  0.23919044871E+02 -0.50801803480E+02  0.14373611601E+02  0.57961675432E+02  0.10566000000E+00 0. -1.
         22    1    1    0    0    0 -0.22848918620E+01  0.20140423699E+02 -0.20713308533E+02  0.28981003226E+02  0.00000000000E+00 0. -1.
</event>
<event>
 5    1  0.6903325E-004  0.9118800E+02  0.7818608E-02  0.1130116E+00
         25   -1    0    0    0    0  0.00000000000E+00  0.00000000000E+00  0.99999998245E-14  0.12500000000E+03  0.12500000000E+03 0.  0.
        -13    1    3    3    0    0 -0.57245994140E+02  0.48441071663E+01 -0.42579849046E+01  0.57608253044E+02  0.10566000000E+00 0.  1.
         23    2    1    0    0    0 -0.21983814910E+02  0.18168074679E+02  0.40097511958E+01  0.96199910414E+02  0.91787676751E+02 0.  0.
         13    1    3    3    0    0  0.35262179230E+02  0.13323967512E+02  0.82677361004E+01  0.38591657370E+02  0.10566000000E+00 0. -1.
         22    1    1    0    0    0  0.21983814910E+02 -0.18168074679E+02 -0.40097511958E+01  0.28800089586E+02  0.00000000000E+00 0. -1.
</event>
<event>
 5    1  0.6903325E-004  0.9118800E+02  0.7818608E-02  0.1130116E+00
         25   -1    0    0    0    0  0.00000000000E+00  0.00000000000E+00  0.99999998245E-14  0.12500000000E+03  0.12500000000E+03 0.  0.
        -13    1    3    3    0    0  0.39359009424E+02  0.28241200146E+02  0.15683804970E+02  0.50918463360E+02  0.10566000000E+00 0.  1.
         23    2    1    0    0    0  0.77101073325E+01  0.20781140483E+02 -0.17033378803E+02  0.97045795516E+02  0.92932496357E+02 0.  0.
         13    1    3    3    0    0 -0.31648902091E+02 -0.74600596632E+01 -0.32717183774E+02  0.46127332157E+02  0.10566000000E+00 0. -1.
         22    1    1    0    0    0 -0.77101073325E+01 -0.20781140483E+02  0.17033378803E+02  0.27954204484E+02  0.00000000000E+00 0.  1.
</event>
<event>
 5    1  0.6903325E-004  0.9118800E+02  0.7818608E-02  0.1130116E+00
         25   -1    0    0    0    0  0.00000000000E+00  0.00000000000E+00  0.99999998245E-14  0.12500000000E+03  0.12500000000E+03 0.  0.
        -13    1    3    3    0    0  0.33674051129E+02 -0.22097338731E+02 -0.34457690206E+02  0.53005449501E+02  0.10566000000E+00 0.  1.
         23    2    1    0    0    0  0.61971352899E+00 -0.29002016642E+02 -0.11730082359E+02  0.93709492713E+02  0.88331043117E+02 0.  0.
         13    1    3    3    0    0 -0.33054337601E+02 -0.69046779109E+01  0.22727607847E+02  0.40704043211E+02  0.10566000000E+00 0. -1.
         22    1    1    0    0    0 -0.61971352899E+00  0.29002016642E+02  0.11730082359E+02  0.31290507287E+02  0.00000000000E+00 0.  1.
</event>
<event>
 5    1  0.6903325E-004  0.9118800E+02  0.7818608E-02  0.1130116E+00
         25   -1    0    0    0    0  0.00000000000E+00  0.00000000000E+00  0.99999998245E-14  0.12500000000E+03  0.12500000000E+03 0.  0.
        -13    1    3    3    0    0 -0.29353400764E+02  0.88713080328E+01 -0.12699932563E+02  0.33190686853E+02  0.10566000000E+00 0. -1.
         23    2    1    0    0    0  0.23118075933E+02 -0.11313391688E+02  0.14298175823E+02  0.95557240310E+02  0.90908250876E+02 0.  0.
         13    1    3    3    0    0  0.52471476697E+02 -0.20184699721E+02  0.26998108385E+02  0.62366553456E+02  0.10566000000E+00 0.  1.
         22    1    1    0    0    0 -0.23118075933E+02  0.11313391688E+02 -0.14298175823E+02  0.29442759690E+02  0.00000000000E+00 0.  1.
</event>
<event>
 5    1  0.6903325E-004  0.9118800E+02  0.7818608E-02  0.1130116E+00
         25   -1    0    0    0    0  0.00000000000E+00  0.00000000000E+00  0.99999998245E-14  0.12500000000E+03  0.12500000000E+03 0.  0.
        -13    1    3    3    0    0 -0.78319589212E+01  0.51333460732E+02 -0.26313297183E+02  0.58213954890E+02  0.10566000000E+00 0.  1.
         23    2    1    0    0    0  0.12030910880E+02  0.29540137436E+02 -0.13823546202E+02  0.90237189901E+02  0.83272429263E+02 0.  0.
         13    1    3    3    0    0  0.19862869801E+02 -0.21793323296E+02  0.12489750980E+02  0.32023235011E+02  0.10566000000E+00 0. -1.
         22    1    1    0    0    0 -0.12030910880E+02 -0.29540137436E+02  0.13823546202E+02  0.34762810099E+02  0.00000000000E+00 0.  1.
</event>
<event>
 5    1  0.6903325E-004  0.9118800E+02  0.7818608E-02  0.1130116E+00
         25   -1    0    0    0    0  0.00000000000E+00  0.00000000000E+00  0.99999998245E-14  0.12500000000E+03  0.12500000000E+03 0.  0.
        -13    1    3    3    0    0 -0.40330366789E+02  0.39052809037E+02 -0.13630785672E+02  0.57770839193E+02  0.10566000000E+00 0.  1.
         23    2    1    0    0    0 -0.43984198572E+01  0.26897128956E+02 -0.10355809933E+02  0.95844478350E+02  0.91302352585E+02 0.  0.
         13    1    3    3    0    0  0.35931946932E+02 -0.12155680081E+02  0.32749757396E+01  0.38073639157E+02  0.10566000000E+00 0. -1.
         22    1    1    0    0    0  0.43984198572E+01 -0.26897128956E+02  0.10355809933E+02  0.29155521650E+02  0.00000000000E+00 0.  1.
</event>
<event>
 5    1  0.6903325E-004  0.9118800E+02  0.7818608E-02  0.1130116E+00
         25   -1    0    0    0    0  0.00000000000E+00  0.00000000000E+00  0.99999998245E-14  0.12500000000E+03  0.12500000000E+03 0.  0.
        -13    1    3    3    0    0  0.15088138327E+01  0.47084679775E+02  0.34443973219E+02  0.58357879021E+02  0.10566000000E+00 0. -1.
         23    2    1    0    0    0  0.13133734803E+02  0.23437339738E+02  0.53589635251E+01  0.97604336585E+02  0.93680756542E+02 0.  0.
         13    1    3    3    0    0  0.11624920970E+02 -0.23647340037E+02 -0.29085009693E+02  0.39246457564E+02  0.10566000000E+00 0.  1.
         22    1    1    0    0    0 -0.13133734803E+02 -0.23437339738E+02 -0.53589635251E+01  0.27395663415E+02  0.00000000000E+00 0. -1.
</event>
<event>
 5    1  0.6903325E-004  0.9118800E+02  0.7818608E-02  0.1130116E+00
         25   -1    0    0    0    0  0.00000000000E+00  0.00000000000E+00  0.99999998245E-14  0.12500000000E+03  0.12500000000E+03 0.  0.
        -13    1    3    3    0    0  0.84660989797E+01 -0.30586471200E+02  0.19265919689E+02  0.37126727272E+02  0.10566000000E+00 0.  1.
         23    2    1    0    0    0  0.13927589864E+02  0.21739866051E+02 -0.99798382094E+01  0.97319741583E+02  0.93300243278E+02 0.  0.
         13    1    3    3    0    0  0.54614908844E+01  0.52326337251E+02 -0.29245757899E+02  0.60193014311E+02  0.10566000000E+00 0. -1.
         22    1    1    0    0    0 -0.13927589864E+02 -0.21739866051E+02  0.99798382094E+01  0.27680258417E+02  0.00000000000E+00 0. -1.
</event>
<event>
 5    1  0.6903325E-004  0.9118800E+02  0.7818608E-02  0.1130116E+00
         25   -1    0    0    0    0  0.00000000000E+00  0.00000000000E+00  0.99999998245E-14  0.12500000000E+03  0.12500000000E+03 0.  0.
        -13    1    3    3    0    0 -0.26342212999E+02 -0.53485040099E+02 -0.74998148934E+01  0.60090099747E+02  0.10566000000E+00 0.  1.
         23    2    1    0    0    0 -0.16790657087E+02 -0.21344728504E+02 -0.14307972483E+02  0.94304044617E+02  0.89168442591E+02 0.  0.
         13    1    3    3    0    0  0.95515559126E+01  0.32140311595E+02 -0.68081575900E+01  0.34213944870E+02  0.10566000000E+00 0. -1.
         22    1    1    0    0    0  0.16790657087E+02  0.21344728504E+02  0.14307972483E+02  0.30695955383E+02  0.00000000000E+00 0.  1.
</event>
<event>
 5    1  0.6903325E-004  0.9118800E+02  0.7818608E-02  0.1130116E+00
         25   -1    0    0    0    0  0.00000000000E+00  0.00000000000E+00  0.99999998245E-14  0.12500000000E+03  0.12500000000E+03 0.  0.
        -13    1    3    3    0    0 -0.19594891084E+02 -0.25128818892E+02 -0.99042131358E+01  0.33369475534E+02  0.10566000000E+00 0. -1.
         23    2    1    0    0    0  0.18332971099E+02  0.22943807301E+02 -0.76832053341E+01  0.94642994763E+02  0.89642337601E+02 0.  0.
         13    1    3    3    0    0  0.37927862184E+02  0.48072626193E+02  0.22210078018E+01  0.61273519228E+02  0.10566000000E+00 0.  1.
         22    1    1    0    0    0 -0.18332971099E+02 -0.22943807301E+02  0.76832053341E+01  0.30357005237E+02  0.00000000000E+00 0.  1.
</event>
<event>
 5    1  0.6903325E-004  0.9118800E+02  0.7818608E-02  0.1130116E+00
         25   -1    0    0    0    0  0.00000000000E+00  0.00000000000E+00  0.99999998245E-14  0.12500000000E+03  0.12500000000E+03 0.  0.
        -13    1    3    3    0    0  0.45532813939E+02  0.40315489327E+01 -0.41331454548E+02  0.61626218699E+02  0.10566000000E+00 0.  1.
         23    2    1    0    0    0  0.25670361324E+02 -0.31810785599E+01 -0.16124507828E+02  0.94519080329E+02  0.89469380696E+02 0.  0.
         13    1    3    3    0    0 -0.19862452615E+02 -0.72126274926E+01  0.25206946720E+02  0.32892861630E+02  0.10566000000E+00 0. -1.
         22    1    1    0    0    0 -0.25670361324E+02  0.31810785599E+01  0.16124507828E+02  0.30480919671E+02  0.00000000000E+00 0.  1.
</event>
<event>
 5    1  0.6903325E-004  0.9118800E+02  0.7818608E-02  0.1130116E+00
         25   -1    0    0    0    0  0.00000000000E+00  0.00000000000E+00  0.99999998245E-14  0.12500000000E+03  0.12500000000E+03 0.  0.
        -13    1    3    3    0    0 -0.25332536899E+02 -0.24228484968E+02  0.94816356093E+01  0.36313489057E+02  0.10566000000E+00 0.  1.
         23    2    1    0    0    0  0.75224033699E+01  0.10984321318E+02 -0.25768373722E+02  0.95995673572E+02  0.91509116447E+02 0.  0.
         13    1    3    3    0    0  0.32854940269E+02  0.35212806287E+02 -0.35250009331E+02  0.59682184515E+02  0.10566000000E+00 0. -1.
         22    1    1    0    0    0 -0.75224033699E+01 -0.10984321318E+02  0.25768373722E+02  0.29004326428E+02  0.00000000000E+00 0. -1.
</event>
<event>
 5    1  0.6903325E-004  0.9118800E+02  0.7818608E-02  0.1130116E+00
         25   -1    0    0    0    0  0.00000000000E+00  0.00000000000E+00  0.99999998245E-14  0.12500000000E+03  0.12500000000E+03 0.  0.
        -13    1    3    3    0    0  0.30720801688E+02 -0.22491651915E+02 -0.15631665380E+02  0.41158257844E+02  0.10566000000E+00 0.  1.
         23    2    1    0    0    0 -0.26945233215E+01 -0.16951835268E+02  0.25387366129E+02  0.94354551172E+02  0.89239216677E+02 0.  0.
         13    1    3    3    0    0 -0.33415325009E+02  0.55398166463E+01  0.41019031509E+02  0.53196293328E+02  0.10566000000E+00 0. -1.
         22    1    1    0    0    0  0.26945233215E+01  0.16951835268E+02 -0.25387366129E+02  0.30645448828E+02  0.00000000000E+00 0.  1.
</event>
<event>
 5    1  0.6903325E-004  0.9118800E+02  0.7818608E-02  0.1130116E+00
         25   -1    0    0    0    0  0.00000000000E+00  0.00000000000E+00  0.99999998245E-14  0.12500000000E+03  0.12500000000E+03 0.  0.
        -13    1    3    3    0    0 -0.12161810514E+02 -0.57973964109E+02 -0.13219518135E+02  0.60693137777E+02  0.10566000000E+00 0. -1.
         23    2    1    0    0    0 -0.15682446596E+02 -0.23348183922E+02 -0.62142627633E+01  0.96195592605E+02  0.91781796404E+02 0.  0.
         13    1    3    3    0    0 -0.35206360819E+01  0.34625780187E+02  0.70052553713E+01  0.35502454828E+02  0.10566000000E+00 0.  1.
         22    1    1    0    0    0  0.15682446596E+02  0.23348183922E+02  0.62142627633E+01  0.28804407395E+02  0.00000000000E+00 0. -1.
</event>
<event>
 5    1  0.6903325E-004  0.9118800E+02  0.7818608E-02  0.1130116E+00
         25   -1    0    0    0    0  0.00000000000E+00  0.00000000000E+00  0.99999998245E-14  0.12500000000E+03  0.12500000000E+03 0.  0.
        -13    1    3    3    0    0 -0.10510931214E+02 -0.31088137614E+02  0.18038511707E+02  0.37447977835E+02  0.10566000000E+00 0. -1.
         23    2    1    0    0    0  0.10361596368E+01 -0.15121506773E+01 -0.29952640580E+02  0.94991319520E+02  0.90126743422E+02 0.  0.
         13    1    3    3    0    0  0.11547090851E+02  0.29575986937E+02 -0.47991152287E+02  0.57543341685E+02  0.10566000000E+00 0.  1.
         22    1    1    0    0    0 -0.10361596368E+01  0.15121506773E+01  0.29952640580E+02  0.30008680480E+02  0.00000000000E+00 0.  1.
</event>
<event>
 5    1  0.6903325E-004  0.9118800E+02  0.7818608E-02  0.1130116E+00
         25   -1    0    0    0    0  0.00000000000E+00  0.00000000000E+00  0.99999998245E-14  0.12500000000E+03  0.12500000000E+03 0.  0.
        -13    1    3    3    0    0 -0.27364577453E+02  0.19429657841E+02  0.41643374903E+02  0.53483768943E+02  0.10566000000E+00 0.  1.
         23    2    1    0    0    0 -0.27492912255E+01  0.28858757067E+02  0.10781353357E+02  0.94070660500E+02  0.88840672696E+02 0.  0.
         13    1    3    3    0    0  0.24615286227E+02  0.94290992264E+01 -0.30862021547E+02  0.40586891557E+02  0.10566000000E+00 0. -1.
         22    1    1    0    0    0  0.27492912255E+01 -0.28858757067E+02 -0.10781353357E+02  0.30929339500E+02  0.00000000000E+00 0. -1.
</event>
<event>
 5    1  0.6903325E-004  0.9118800E+02  0.7818608E-02  0.1130116E+00
         25   -1    0    0    0    0  0.00000000000E+00  0.00000000000E+00  0.99999998245E-14  0.12500000000E+03  0.12500000000E+03 0.  0.
        -13    1    3    3    0    0  0.41865416187E+02  0.40406631309E+02 -0.17456544134E+02  0.60746613267E+02  0.10566000000E+00 0. -1.
         23    2    1    0    0    0  0.18579257102E+02  0.22043717187E+02  0.18149412704E+01  0.96113874028E+02  0.91670434203E+02 0.  0.
         13    1    3    3    0    0 -0.23286159085E+02 -0.18362914122E+02  0.19271485405E+02  0.35367260761E+02  0.10566000000E+00 0.  1.
         22    1    1    0    0    0 -0.18579257102E+02 -0.22043717187E+02 -0.18149412704E+01  0.28886125972E+02  0.00000000000E+00 0. -1.
</event>
<event>
 5    1  0.6903325E-004  0.9118800E+02  0.7818608E-02  0.1130116E+00
         25   -1    0    0    0    0  0.00000000000E+00  0.00000000000E+00  0.99999998245E-14  0.12500000000E+03  0.12500000000E+03 0.  0.
        -13    1    3    3    0    0  0.34559579002E+02 -0.62272018407E+01  0.84576794541E+01  0.36120438111E+02  0.10566000000E+00 0.  1.
         23    2    1    0    0    0 -0.17600077116E+02 -0.16339051603E+02 -0.17530918413E+02  0.95266846414E+02  0.90508074797E+02 0.  0.
         13    1    3    3    0    0 -0.52159656118E+02 -0.10111849762E+02 -0.25988597867E+02  0.59146408303E+02  0.10566000000E+00 0. -1.
         22    1    1    0    0    0  0.17600077116E+02  0.16339051603E+02  0.17530918413E+02  0.29733153586E+02  0.00000000000E+00 0. -1.
</event>
<event>
 5    1  0.6903325E-004  0.9118800E+02  0.7818608E-02  0.1130116E+00
         25   -1    0    0    0    0  0.00000000000E+00  0.00000000000E+00  0.99999998245E-14  0.12500000000E+03  0.12500000000E+03 0.  0.
        -13    1    3    3    0    0 -0.27374660040E+02  0.31944384936E+02  0.24397951865E+02  0.48632159735E+02  0.10566000000E+00 0. -1.
         23    2    1    0    0    0 -0.11506279169E+02  0.18503816960E+02 -0.18571813506E+02  0.96369632218E+02  0.92018520172E+02 0.  0.
         13    1    3    3    0    0  0.15868380872E+02 -0.13440567975E+02 -0.42969765371E+02  0.47737472483E+02  0.10566000000E+00 0.  1.
         22    1    1    0    0    0  0.11506279169E+02 -0.18503816960E+02  0.18571813506E+02  0.28630367782E+02  0.00000000000E+00 0.  1.
</event>
<event>
 5    1  0.6903325E-004  0.9118800E+02  0.7818608E-02  0.1130116E+00
         25   -1    0    0    0    0  0.00000000000E+00  0.00000000000E+00  0.99999998245E-14  0.12500000000E+03  0.12500000000E+03 0.  0.
        -13    1    3    3    0    0  0.44520366433E+01 -0.11015559772E+02  0.32420368197E+02  0.34529040320E+02  0.10566000000E+00 0. -1.
         23    2    1    0    0    0  0.67254852068E+01  0.20295616528E+02 -0.20059577792E+02  0.95682243218E+02  0.91079969283E+02 0.  0.
         13    1    3    3    0    0  0.22734485634E+01  0.31311176300E+02 -0.52479945989E+02  0.61153202898E+02  0.10566000000E+00 0.  1.
         22    1    1    0    0    0 -0.67254852068E+01 -0.20295616528E+02  0.20059577792E+02  0.29317756782E+02  0.00000000000E+00 0.  1.
</event>
<event>
 5    1  0.6903325E-004  0.9118800E+02  0.7818608E-02  0.1130116E+00
         25   -1    0    0    0    0  0.00000000000E+00  0.00000000000E+00  0.99999998245E-14  0.12500000000E+03  0.12500000000E+03 0.  0.
        -13    1    3    3    0    0 -0.31832670753E+02  0.24078143041E+02  0.10906194995E+02  0.41376710271E+02  0.10566000000E+00 0.  1.
         23    2    1    0    0    0 -0.14133874375E+02 -0.19389204748E+02 -0.16644374384E+02  0.95798238679E+02  0.91239024927E+02 0.  0.
         13    1    3    3    0    0  0.17698796378E+02 -0.43467347789E+02 -0.27550569379E+02  0.54421528407E+02  0.10566000000E+00 0. -1.
         22    1    1    0    0    0  0.14133874375E+02  0.19389204748E+02  0.16644374384E+02  0.29201761321E+02  0.00000000000E+00 0. -1.
</event>
<event>
 5    1  0.6903325E-004  0.9118800E+02  0.7818608E-02  0.1130116E+00
         25   -1    0    0    0    0  0.00000000000E+00  0.00000000000E+00  0.99999998245E-14  0.12500000000E+03  0.12500000000E+03 0.  0.
        -13    1    3    3    0    0  0.36385969684E+02  0.43684367153E+02 -0.11207233998E+02  0.57947182687E+02  0.10566000000E+00 0.  1.
         23    2    1    0    0    0  0.16518923107E+02  0.16426629073E+02  0.11907489633E+02  0.98837101218E+02  0.95311464707E+02 0.  0.
         13    1    3    3    0    0 -0.19867046577E+02 -0.27257738081E+02  0.23114723631E+02  0.40889918532E+02  0.10566000000E+00 0. -1.
         22    1    1    0    0    0 -0.16518923107E+02 -0.16426629073E+02 -0.11907489633E+02  0.26162898782E+02  0.00000000000E+00 0.  1.
</event>
<event>
 5    1  0.6903325E-004  0.9118800E+02  0.7818608E-02  0.1130116E+00
         25   -1    0    0    0    0  0.00000000000E+00  0.00000000000E+00  0.99999998245E-14  0.12500000000E+03  0.12500000000E+03 0.  0.
        -13    1    3    3    0    0  0.24454001909E+02 -0.30806237569E+02 -0.19685072108E+02  0.43983357199E+02  0.10566000000E+00 0.  1.
         23    2    1    0    0    0 -0.21783508550E+02 -0.21844835069E+02 -0.12875079170E+02  0.91571184173E+02  0.85251369744E+02 0.  0.
         13    1    3    3    0    0 -0.46237510460E+02  0.89614025003E+01  0.68099929376E+01  0.47587826974E+02  0.10566000000E+00 0. -1.
         22    1    1    0    0    0  0.21783508550E+02  0.21844835069E+02  0.12875079170E+02  0.33428815827E+02  0.00000000000E+00 0.  1.
</event>
<event>
 5    1  0.6903325E-004  0.9118800E+02  0.7818608E-02  0.1130116E+00
         25   -1    0    0    0    0  0.00000000000E+00  0.00000000000E+00  0.99999998245E-14  0.12500000000E+03  0.12500000000E+03 0.  0.
        -13    1    3    3    0    0 -0.24554383848E+02  0.87626349988E+01  0.49126753140E+02  0.55616099974E+02  0.10566000000E+00 0. -1.
         23    2    1    0    0    0 -0.18775400679E+02 -0.14076625090E+02  0.14777359058E+02  0.97268476686E+02  0.93231535285E+02 0.  0.
         13    1    3    3    0    0  0.57789831692E+01 -0.22839260089E+02 -0.34349394082E+02  0.41652376712E+02  0.10566000000E+00 0.  1.
         22    1    1    0    0    0  0.18775400679E+02  0.14076625090E+02 -0.14777359058E+02  0.27731523314E+02  0.00000000000E+00 0. -1.
</event>
<event>
 5    1  0.6903325E-004  0.9118800E+02  0.7818608E-02  0.1130116E+00
         25   -1    0    0    0    0  0.00000000000E+00  0.00000000000E+00  0.99999998245E-14  0.12500000000E+03  0.12500000000E+03 0.  0.
        -13    1    3    3    0    0 -0.16438385476E+02  0.16176692634E+01 -0.28059439806E+02  0.32560416108E+02  0.10566000000E+00 0.  1.
         23    2    1    0    0    0  0.22478276556E+02 -0.33458584057E+01  0.20088520315E+02  0.94668228970E+02  0.89677518043E+02 0.  0.
         13    1    3    3    0    0  0.38916662031E+02 -0.49635276691E+01  0.48147960121E+02  0.62107812861E+02  0.10566000000E+00 0. -1.
         22    1    1    0    0    0 -0.22478276556E+02  0.33458584057E+01 -0.20088520315E+02  0.30331771030E+02  0.00000000000E+00 0. -1.
</event>
<event>
 5    1  0.6903325E-004  0.9118800E+02  0.7818608E-02  0.1130116E+00
         25   -1    0    0    0    0  0.00000000000E+00  0.00000000000E+00  0.99999998245E-14  0.12500000000E+03  0.12500000000E+03 0.  0.
        -13    1    3    3    0    0 -0.21587438184E+02  0.17392807394E+02  0.50580852116E+02  0.57679814504E+02  0.10566000000E+00 0.  1.
         23    2    1    0    0    0 -0.51231691932E+01  0.23417893302E+02  0.16838249564E+02  0.95705440135E+02  0.91111799641E+02 0.  0.
         13    1    3    3    0    0  0.16464268991E+02  0.60250859077E+01 -0.33742602552E+02  0.38025625631E+02  0.10566000000E+00 0. -1.
         22    1    1    0    0    0  0.51231691932E+01 -0.23417893302E+02 -0.16838249564E+02  0.29294559865E+02  0.00000000000E+00 0.  1.
</event>
<event>
 5    1  0.6903325E-004  0.9118800E+02  0.7818608E-02  0.1130116E+00
         25   -1    0    0    0    0  0.00000000000E+00  0.00000000000E+00  0.99999998245E-14  0.12500000000E+03  0.12500000000E+03 0.  0.
        -13    1    3    3    0    0  0.70799727129E+01  0.30259647788E+02  0.50830397120E+02  0.59577787247E+02  0.10566000000E+00 0.  1.
         23    2    1    0    0    0 -0.57500187801E+01  0.21927390461E+02  0.17134228101E+02  0.96584248364E+02  0.92309599128E+02 0.  0.
         13    1    3    3    0    0 -0.12829991493E+02 -0.83322573274E+01 -0.33696169018E+02  0.37006461117E+02  0.10566000000E+00 0. -1.
         22    1    1    0    0    0  0.57500187801E+01 -0.21927390461E+02 -0.17134228101E+02  0.28415751636E+02  0.00000000000E+00 0.  1.
</event>
<event>
 5    1  0.6903325E-004  0.9118800E+02  0.7818608E-02  0.1130116E+00
         25   -1    0    0    0    0  0.00000000000E+00  0.00000000000E+00  0.99999998245E-14  0.12500000000E+03  0.12500000000E+03 0.  0.
        -13    1    3    3    0    0  0.59554650462E+02  0.14621695504E+02 -0.45912597272E+01  0.61495050215E+02  0.10566000000E+00 0.  1.
         23    2    1    0    0    0  0.26237527272E+02  0.14415874016E+02 -0.38038912247E+01  0.94822278922E+02  0.89891989246E+02 0.  0.
         13    1    3    3    0    0 -0.33317123190E+02 -0.20582148808E+00  0.78736850254E+00  0.33327228707E+02  0.10566000000E+00 0. -1.
         22    1    1    0    0    0 -0.26237527272E+02 -0.14415874016E+02  0.38038912247E+01  0.30177721078E+02  0.00000000000E+00 0.  1.
</event>
<event>
 5    1  0.6903325E-004  0.9118800E+02  0.7818608E-02  0.1130116E+00
         25   -1    0    0    0    0  0.00000000000E+00  0.00000000000E+00  0.99999998245E-14  0.12500000000E+03  0.12500000000E+03 0.  0.
        -13    1    3    3    0    0  0.12423006516E+02 -0.23546069824E+02  0.56534917949E+02  0.62489651996E+02  0.10566000000E+00 0.  1.
         23    2    1    0    0    0  0.68016292355E+01 -0.12202111851E+02  0.27932518877E+02  0.93768936862E+02  0.88415124360E+02 0.  0.
         13    1    3    3    0    0 -0.56213772802E+01  0.11343957973E+02 -0.28602399072E+02  0.31279284866E+02  0.10566000000E+00 0. -1.
         22    1    1    0    0    0 -0.68016292355E+01  0.12202111851E+02 -0.27932518877E+02  0.31231063138E+02  0.00000000000E+00 0.  1.
</event>
<event>
 5    1  0.6903325E-004  0.9118800E+02  0.7818608E-02  0.1130116E+00
         25   -1    0    0    0    0  0.00000000000E+00  0.00000000000E+00  0.99999998245E-14  0.12500000000E+03  0.12500000000E+03 0.  0.
        -13    1    3    3    0    0  0.22957525964E+02  0.24760991913E+02 -0.87557396547E+00  0.33777692531E+02  0.10566000000E+00 0.  1.
         23    2    1    0    0    0 -0.15597571789E+02 -0.24110137622E+02  0.28853587163E+01  0.96139849674E+02  0.91705847243E+02 0.  0.
         13    1    3    3    0    0 -0.38555097754E+02 -0.48871129536E+02  0.37609326818E+01  0.62362157143E+02  0.10566000000E+00 0. -1.
         22    1    1    0    0    0  0.15597571789E+02  0.24110137622E+02 -0.28853587163E+01  0.28860150326E+02  0.00000000000E+00 0. -1.
</event>
<event>
 5    1  0.6903325E-004  0.9118800E+02  0.7818608E-02  0.1130116E+00
         25   -1    0    0    0    0  0.00000000000E+00  0.00000000000E+00  0.99999998245E-14  0.12500000000E+03  0.12500000000E+03 0.  0.
        -13    1    3    3    0    0 -0.30823544076E+02  0.35456690967E+02  0.34860836446E+02  0.58502622895E+02  0.10566000000E+00 0. -1.
         23    2    1    0    0    0 -0.19807883246E+01  0.16906079282E+02  0.26002271497E+02  0.93921757417E+02  0.88630916469E+02 0.  0.
         13    1    3    3    0    0  0.28842755752E+02 -0.18550611686E+02 -0.88585649490E+01  0.35419134522E+02  0.10566000000E+00 0.  1.
         22    1    1    0    0    0  0.19807883246E+01 -0.16906079282E+02 -0.26002271497E+02  0.31078242583E+02  0.00000000000E+00 0. -1.
</event>
<event>
 5    1  0.6903325E-004  0.9118800E+02  0.7818608E-02  0.1130116E+00
         25   -1    0    0    0    0  0.00000000000E+00  0.00000000000E+00  0.99999998245E-14  0.12500000000E+03  0.12500000000E+03 0.  0.
        -13    1    3    3    0    0 -0.37126414627E+02 -0.18105253927E+02 -0.22680201800E+02  0.47122962561E+02  0.10566000000E+00 0. -1.
         23    2    1    0    0    0 -0.24237059754E+02  0.65681215530E+01  0.16329203739E+02  0.95046399532E+02  0.90203103511E+02 0.  0.
         13    1    3    3    0    0  0.12889354873E+02  0.24673375480E+02  0.39009405538E+02  0.47923436971E+02  0.10566000000E+00 0.  1.
         22    1    1    0    0    0  0.24237059754E+02 -0.65681215530E+01 -0.16329203739E+02  0.29953600468E+02  0.00000000000E+00 0.  1.
</event>
<event>
 5    1  0.6903325E-004  0.9118800E+02  0.7818608E-02  0.1130116E+00
         25   -1    0    0    0    0  0.00000000000E+00  0.00000000000E+00  0.99999998245E-14  0.12500000000E+03  0.12500000000E+03 0.  0.
        -13    1    3    3    0    0 -0.82997993019E+01 -0.41226880030E+02 -0.36048958321E+02  0.55390259663E+02  0.10566000000E+00 0.  1.
         23    2    1    0    0    0 -0.38241832279E+01 -0.77726556010E+01 -0.34770265762E+02  0.89166915656E+02  0.81650039278E+02 0.  0.
         13    1    3    3    0    0  0.44756160740E+01  0.33454224429E+02  0.12786925592E+01  0.33776655993E+02  0.10566000000E+00 0. -1.
         22    1    1    0    0    0  0.38241832279E+01  0.77726556010E+01  0.34770265762E+02  0.35833084344E+02  0.00000000000E+00 0.  1.
</event>
<event>
 5    1  0.6903325E-004  0.9118800E+02  0.7818608E-02  0.1130116E+00
         25   -1    0    0    0    0  0.00000000000E+00  0.00000000000E+00  0.99999998245E-14  0.12500000000E+03  0.12500000000E+03 0.  0.
        -13    1    3    3    0    0  0.13418737555E+02  0.16437848525E+02 -0.26486102826E+02  0.33938034543E+02  0.10566000000E+00 0. -1.
         23    2    1    0    0    0 -0.10292041054E+02  0.46936133052E+00  0.27833633007E+02  0.95320755814E+02  0.90582498052E+02 0.  0.
         13    1    3    3    0    0 -0.23710778609E+02 -0.15968487195E+02  0.54319735833E+02  0.61382721270E+02  0.10566000000E+00 0.  1.
         22    1    1    0    0    0  0.10292041054E+02 -0.46936133052E+00 -0.27833633007E+02  0.29679244186E+02  0.00000000000E+00 0.  1.
</event>
<event>
 5    1  0.6903325E-004  0.9118800E+02  0.7818608E-02  0.1130116E+00
         25   -1    0    0    0    0  0.00000000000E+00  0.00000000000E+00  0.99999998245E-14  0.12500000000E+03  0.12500000000E+03 0.  0.
        -13    1    3    3    0    0 -0.62619255477E+01  0.25941976913E+02  0.37178801473E+02  0.45765405283E+02  0.10566000000E+00 0. -1.
         23    2    1    0    0    0 -0.73982710089E+01  0.31104907105E+02 -0.86338099802E+01  0.91882144775E+02  0.85706103597E+02 0.  0.
         13    1    3    3    0    0 -0.11363454612E+01  0.51629301920E+01 -0.45812611453E+02  0.46116739492E+02  0.10566000000E+00 0.  1.
         22    1    1    0    0    0  0.73982710089E+01 -0.31104907105E+02  0.86338099802E+01  0.33117855225E+02  0.00000000000E+00 0.  1.
</event>
<event>
 5    1  0.6903325E-004  0.9118800E+02  0.7818608E-02  0.1130116E+00
         25   -1    0    0    0    0  0.00000000000E+00  0.00000000000E+00  0.99999998245E-14  0.12500000000E+03  0.12500000000E+03 0.  0.
        -13    1    3    3    0    0 -0.35258484278E+02  0.50527226267E+01 -0.40798340941E+02  0.54159085177E+02  0.10566000000E+00 0. -1.
         23    2    1    0    0    0 -0.32522618160E+02 -0.46641951129E+01 -0.44966605219E+01  0.91838344977E+02  0.85642198969E+02 0.  0.
         13    1    3    3    0    0  0.27358661184E+01 -0.97169177396E+01  0.36301680419E+02  0.37679259800E+02  0.10566000000E+00 0.  1.
         22    1    1    0    0    0  0.32522618160E+02  0.46641951129E+01  0.44966605219E+01  0.33161655023E+02  0.00000000000E+00 0. -1.
</event>
<event>
 5    1  0.6903325E-004  0.9118800E+02  0.7818608E-02  0.1130116E+00
         25   -1    0    0    0    0  0.00000000000E+00  0.00000000000E+00  0.99999998245E-14  0.12500000000E+03  0.12500000000E+03 0.  0.
        -13    1    3    3    0    0  0.47228276015E+02 -0.21351473030E+02  0.93058493135E+01  0.52659333944E+02  0.10566000000E+00 0.  1.
         23    2    1    0    0    0  0.27230308195E+02  0.10527929962E+02 -0.89196847930E+01  0.94473163111E+02  0.89405205540E+02 0.  0.
         13    1    3    3    0    0 -0.19997967820E+02  0.31879402993E+02 -0.18225534107E+02  0.41813829167E+02  0.10566000000E+00 0. -1.
         22    1    1    0    0    0 -0.27230308195E+02 -0.10527929962E+02  0.89196847930E+01  0.30526836889E+02  0.00000000000E+00 0.  1.
</event>
<event>
 5    1  0.6903325E-004  0.9118800E+02  0.7818608E-02  0.1130116E+00
         25   -1    0    0    0    0  0.00000000000E+00  0.00000000000E+00  0.99999998245E-14  0.12500000000E+03  0.12500000000E+03 0.  0.
        -13    1    3    3    0    0  0.17852858791E+02 -0.27105595820E+02  0.13048447419E+02  0.34981581380E+02  0.10566000000E+00 0. -1.
         23    2    1    0    0    0 -0.21670153742E+02  0.17756733257E+02 -0.28255946278E+01  0.96841855101E+02  0.92657777737E+02 0.  0.
         13    1    3    3    0    0 -0.39523012534E+02  0.44862329076E+02 -0.15874042047E+02  0.61860273721E+02  0.10566000000E+00 0.  1.
         22    1    1    0    0    0  0.21670153742E+02 -0.17756733257E+02  0.28255946278E+01  0.28158144899E+02  0.00000000000E+00 0.  1.
</event>
<event>
 5    1  0.6903325E-004  0.9118800E+02  0.7818608E-02  0.1130116E+00
         25   -1    0    0    0    0  0.00000000000E+00  0.00000000000E+00  0.99999998245E-14  0.12500000000E+03  0.12500000000E+03 0.  0.
        -13    1    3    3    0    0 -0.29363985780E+02 -0.45401480626E+02  0.27170243679E+02  0.60512572326E+02  0.10566000000E+00 0.  1.
         23    2    1    0    0    0 -0.60676383107E+01 -0.19719069430E+02  0.20678382436E+02  0.95789497882E+02  0.91227049006E+02 0.  0.
         13    1    3    3    0    0  0.23296347469E+02  0.25682411196E+02 -0.64918612433E+01  0.35276925556E+02  0.10566000000E+00 0. -1.
         22    1    1    0    0    0  0.60676383107E+01  0.19719069430E+02 -0.20678382436E+02  0.29210502118E+02  0.00000000000E+00 0.  1.
</event>
<event>
 5    1  0.6903325E-004  0.9118800E+02  0.7818608E-02  0.1130116E+00
         25   -1    0    0    0    0  0.00000000000E+00  0.00000000000E+00  0.99999998245E-14  0.12500000000E+03  0.12500000000E+03 0.  0.
        -13    1    3    3    0    0 -0.52777769720E+02 -0.21793864682E+02  0.28906388250E+00  0.57101315540E+02  0.10566000000E+00 0.  1.
         23    2    1    0    0    0 -0.14806290169E+02 -0.18082511987E+02  0.14133087578E+02  0.97687958099E+02  0.93792267937E+02 0.  0.
         13    1    3    3    0    0  0.37971479551E+02  0.37113526955E+01  0.13844023695E+02  0.40586642559E+02  0.10566000000E+00 0. -1.
         22    1    1    0    0    0  0.14806290169E+02  0.18082511987E+02 -0.14133087578E+02  0.27312041901E+02  0.00000000000E+00 0.  1.
</event>
<event>
 5    1  0.6903325E-004  0.9118800E+02  0.7818608E-02  0.1130116E+00
         25   -1    0    0    0    0  0.00000000000E+00  0.00000000000E+00  0.99999998245E-14  0.12500000000E+03  0.12500000000E+03 0.  0.
        -13    1    3    3    0    0 -0.96650163100E+01  0.30796053325E+02 -0.27902515201E+02  0.42665805504E+02  0.10566000000E+00 0. -1.
         23    2    1    0    0    0  0.18250518857E+02  0.86007105203E+01  0.16015416231E+02  0.99240589738E+02  0.95839174843E+02 0.  0.
         13    1    3    3    0    0  0.27915535167E+02 -0.22195342805E+02  0.43917931432E+02  0.56574784234E+02  0.10566000000E+00 0.  1.
         22    1    1    0    0    0 -0.18250518857E+02 -0.86007105203E+01 -0.16015416231E+02  0.25759410262E+02  0.00000000000E+00 0. -1.
</event>
<event>
 5    1  0.6903325E-004  0.9118800E+02  0.7818608E-02  0.1130116E+00
         25   -1    0    0    0    0  0.00000000000E+00  0.00000000000E+00  0.99999998245E-14  0.12500000000E+03  0.12500000000E+03 0.  0.
        -13    1    3    3    0    0  0.16092809639E+02  0.23497866216E+02 -0.14154860320E+02  0.31804079510E+02  0.10566000000E+00 0. -1.
         23    2    1    0    0    0 -0.16980777007E+02 -0.26853588465E+02 -0.69600092122E+01  0.92474567959E+02  0.86565824607E+02 0.  0.
         13    1    3    3    0    0 -0.33073586646E+02 -0.50351454681E+02  0.71948511073E+01  0.60670488449E+02  0.10566000000E+00 0.  1.
         22    1    1    0    0    0  0.16980777007E+02  0.26853588465E+02  0.69600092122E+01  0.32525432041E+02  0.00000000000E+00 0.  1.
</event>
<event>
 5    1  0.6903325E-004  0.9118800E+02  0.7818608E-02  0.1130116E+00
         25   -1    0    0    0    0  0.00000000000E+00  0.00000000000E+00  0.99999998245E-14  0.12500000000E+03  0.12500000000E+03 0.  0.
        -13    1    3    3    0    0 -0.11146609690E+02 -0.44993031007E+02  0.76032595920E+01  0.46972763036E+02  0.10566000000E+00 0.  1.
         23    2    1    0    0    0  0.22541566057E+01 -0.39633437574E+01  0.29345510525E+02  0.95302385555E+02  0.90557144328E+02 0.  0.
         13    1    3    3    0    0  0.13400766296E+02  0.41029687250E+02  0.21742250933E+02  0.48329622519E+02  0.10566000000E+00 0. -1.
         22    1    1    0    0    0 -0.22541566057E+01  0.39633437574E+01 -0.29345510525E+02  0.29697614445E+02  0.00000000000E+00 0.  1.
</event>
<event>
 5    1  0.6903325E-004  0.9118800E+02  0.7818608E-02  0.1130116E+00
         25   -1    0    0    0    0  0.00000000000E+00  0.00000000000E+00  0.99999998245E-14  0.12500000000E+03  0.12500000000E+03 0.  0.
        -13    1    3    3    0    0  0.38407860819E+02  0.57596234990E+01  0.14641215123E+01  0.38865046654E+02  0.10566000000E+00 0.  1.
         23    2    1    0    0    0 -0.12305968402E+02 -0.23681657109E+02  0.58811163716E+01  0.97671530019E+02  0.93770371145E+02 0.  0.
         13    1    3    3    0    0 -0.50713829221E+02 -0.29441280608E+02  0.44169948593E+01  0.58806483365E+02  0.10566000000E+00 0. -1.
         22    1    1    0    0    0  0.12305968402E+02  0.23681657109E+02 -0.58811163716E+01  0.27328469981E+02  0.00000000000E+00 0. -1.
</event>
<event>
 5    1  0.6903325E-004  0.9118800E+02  0.7818608E-02  0.1130116E+00
         25   -1    0    0    0    0  0.00000000000E+00  0.00000000000E+00  0.99999998245E-14  0.12500000000E+03  0.12500000000E+03 0.  0.
        -13    1    3    3    0    0 -0.29504468002E+02  0.86362552227E+01 -0.83839707765E+01  0.31865352130E+02  0.10566000000E+00 0. -1.
         23    2    1    0    0    0 -0.34189442494E+01  0.43453387927E+02 -0.20218364764E+02  0.76951395693E+02  0.60106978991E+02 0.  0.
         13    1    3    3    0    0  0.26085523752E+02  0.34817132704E+02 -0.11834393987E+02  0.45086043564E+02  0.10566000000E+00 0.  1.
         22    1    1    0    0    0  0.34189442494E+01 -0.43453387927E+02  0.20218364764E+02  0.48048604307E+02  0.00000000000E+00 0.  1.
</event>
<event>
 5    1  0.6903325E-004  0.9118800E+02  0.7818608E-02  0.1130116E+00
         25   -1    0    0    0    0  0.00000000000E+00  0.00000000000E+00  0.99999998245E-14  0.12500000000E+03  0.12500000000E+03 0.  0.
        -13    1    3    3    0    0  0.47551761947E+02 -0.34651509423E+02  0.73861910082E+01  0.59299782050E+02  0.10566000000E+00 0.  1.
         23    2    1    0    0    0  0.22307300086E+02 -0.10219521662E+02  0.16297628740E+02  0.95543812828E+02  0.90889786044E+02 0.  0.
         13    1    3    3    0    0 -0.25244461860E+02  0.24431987761E+02  0.89114377319E+01  0.36244030778E+02  0.10566000000E+00 0. -1.
         22    1    1    0    0    0 -0.22307300086E+02  0.10219521662E+02 -0.16297628740E+02  0.29456187172E+02  0.00000000000E+00 0.  1.
</event>
<event>
 5    1  0.6903325E-004  0.9118800E+02  0.7818608E-02  0.1130116E+00
         25   -1    0    0    0    0  0.00000000000E+00  0.00000000000E+00  0.99999998245E-14  0.12500000000E+03  0.12500000000E+03 0.  0.
        -13    1    3    3    0    0  0.43180577722E+02  0.82302303871E+01  0.14527525310E+02  0.46296426863E+02  0.10566000000E+00 0.  1.
         23    2    1    0    0    0 -0.38888669618E+01  0.21665774686E+02  0.19623914946E+02  0.95510559232E+02  0.90844041125E+02 0.  0.
         13    1    3    3    0    0 -0.47069444684E+02  0.13435544299E+02  0.50963896358E+01  0.49214132369E+02  0.10566000000E+00 0. -1.
         22    1    1    0    0    0  0.38888669618E+01 -0.21665774686E+02 -0.19623914946E+02  0.29489440768E+02  0.00000000000E+00 0. -1.
</event>
<event>
 5    1  0.6903325E-004  0.9118800E+02  0.7818608E-02  0.1130116E+00
         25   -1    0    0    0    0  0.00000000000E+00  0.00000000000E+00  0.99999998245E-14  0.12500000000E+03  0.12500000000E+03 0.  0.
        -13    1    3    3    0    0  0.27085363549E+02 -0.43148057160E+02  0.25301735087E+02  0.56881989396E+02  0.10566000000E+00 0.  1.
         23    2    1    0    0    0  0.22987716304E+02 -0.15317226580E+02 -0.35159141471E+01  0.97153740228E+02  0.93077575479E+02 0.  0.
         13    1    3    3    0    0 -0.40976472454E+01  0.27830830579E+02 -0.28817649234E+02  0.40271750832E+02  0.10566000000E+00 0. -1.
         22    1    1    0    0    0 -0.22987716304E+02  0.15317226580E+02  0.35159141471E+01  0.27846259772E+02  0.00000000000E+00 0.  1.
</event>
<event>
 5    1  0.6903325E-004  0.9118800E+02  0.7818608E-02  0.1130116E+00
         25   -1    0    0    0    0  0.00000000000E+00  0.00000000000E+00  0.99999998245E-14  0.12500000000E+03  0.12500000000E+03 0.  0.
        -13    1    3    3    0    0  0.22022973534E+02 -0.38012827244E+01 -0.45991161651E+02  0.51133738643E+02  0.10566000000E+00 0. -1.
         23    2    1    0    0    0  0.28370870818E+01  0.23905326568E+02 -0.18043869117E+02  0.94915204602E+02  0.90021115026E+02 0.  0.
         13    1    3    3    0    0 -0.19185886452E+02  0.27706609293E+02  0.27947292534E+02  0.43781465958E+02  0.10566000000E+00 0.  1.
         22    1    1    0    0    0 -0.28370870818E+01 -0.23905326568E+02  0.18043869117E+02  0.30084795398E+02  0.00000000000E+00 0. -1.
</event>
<event>
 5    1  0.6903325E-004  0.9118800E+02  0.7818608E-02  0.1130116E+00
         25   -1    0    0    0    0  0.00000000000E+00  0.00000000000E+00  0.99999998245E-14  0.12500000000E+03  0.12500000000E+03 0.  0.
        -13    1    3    3    0    0 -0.10508052213E+02 -0.38105019597E+02 -0.19429437118E+02  0.44044589571E+02  0.10566000000E+00 0.  1.
         23    2    1    0    0    0 -0.25971430965E+02  0.92688706423E+01 -0.13705349898E+02  0.94206107664E+02  0.89031044675E+02 0.  0.
         13    1    3    3    0    0 -0.15463378753E+02  0.47373890239E+02  0.57240872194E+01  0.50161518092E+02  0.10566000000E+00 0. -1.
         22    1    1    0    0    0  0.25971430965E+02 -0.92688706423E+01  0.13705349898E+02  0.30793892336E+02  0.00000000000E+00 0.  1.
</event>
<event>
 5    1  0.6903325E-004  0.9118800E+02  0.7818608E-02  0.1130116E+00
         25   -1    0    0    0    0  0.00000000000E+00  0.00000000000E+00  0.99999998245E-14  0.12500000000E+03  0.12500000000E+03 0.  0.
        -13    1    3    3    0    0  0.25344675053E+00 -0.13562187809E+02 -0.48341354241E+02  0.50208513892E+02  0.10566000000E+00 0.  1.
         23    2    1    0    0    0  0.26404954086E+02 -0.27330828005E+01 -0.13135522373E+02  0.95381875652E+02  0.90666801604E+02 0.  0.
         13    1    3    3    0    0  0.26151507335E+02  0.10829105008E+02  0.35205831867E+02  0.45173361760E+02  0.10566000000E+00 0. -1.
         22    1    1    0    0    0 -0.26404954086E+02  0.27330828005E+01  0.13135522373E+02  0.29618124348E+02  0.00000000000E+00 0. -1.
</event>
<event>
 5    1  0.6903325E-004  0.9118800E+02  0.7818608E-02  0.1130116E+00
         25   -1    0    0    0    0  0.00000000000E+00  0.00000000000E+00  0.99999998245E-14  0.12500000000E+03  0.12500000000E+03 0.  0.
        -13    1    3    3    0    0  0.11161106984E+02 -0.17603500014E+02 -0.36880966812E+02  0.42363550358E+02  0.10566000000E+00 0. -1.
         23    2    1    0    0    0  0.99029239113E+01 -0.25648653961E+02  0.14176429957E+02  0.94066320647E+02  0.88834566255E+02 0.  0.
         13    1    3    3    0    0 -0.12581830726E+01 -0.80451539473E+01  0.51057396769E+02  0.51702770289E+02  0.10566000000E+00 0.  1.
         22    1    1    0    0    0 -0.99029239113E+01  0.25648653961E+02 -0.14176429957E+02  0.30933679353E+02  0.00000000000E+00 0.  1.
</event>
<event>
 5    1  0.6903325E-004  0.9118800E+02  0.7818608E-02  0.1130116E+00
         25   -1    0    0    0    0  0.00000000000E+00  0.00000000000E+00  0.99999998245E-14  0.12500000000E+03  0.12500000000E+03 0.  0.
        -13    1    3    3    0    0 -0.15412483873E+02 -0.30219794495E+02 -0.22059741693E+02  0.40465096145E+02  0.10566000000E+00 0.  1.
         23    2    1    0    0    0  0.28768863153E+02 -0.10356298730E+02  0.16130354923E+01  0.94381340754E+02  0.89276733747E+02 0.  0.
         13    1    3    3    0    0  0.44181347026E+02  0.19863495765E+02  0.23672777186E+02  0.53916244609E+02  0.10566000000E+00 0. -1.
         22    1    1    0    0    0 -0.28768863153E+02  0.10356298730E+02 -0.16130354923E+01  0.30618659246E+02  0.00000000000E+00 0. -1.
</event>
<event>
 5    1  0.6903325E-004  0.9118800E+02  0.7818608E-02  0.1130116E+00
         25   -1    0    0    0    0  0.00000000000E+00  0.00000000000E+00  0.99999998245E-14  0.12500000000E+03  0.12500000000E+03 0.  0.
        -13    1    3    3    0    0  0.38795039368E+01 -0.12216135865E+02  0.55369486056E+02  0.56833754728E+02  0.10566000000E+00 0.  1.
         23    2    1    0    0    0  0.18420561522E+02  0.28192857973E+01  0.22628093805E+02  0.95686247452E+02  0.91085464609E+02 0.  0.
         13    1    3    3    0    0  0.14541057586E+02  0.15035421663E+02 -0.32741392251E+02  0.38852492724E+02  0.10566000000E+00 0. -1.
         22    1    1    0    0    0 -0.18420561522E+02 -0.28192857973E+01 -0.22628093805E+02  0.29313752548E+02  0.00000000000E+00 0.  1.
</event>
<event>
 5    1  0.6903325E-004  0.9118800E+02  0.7818608E-02  0.1130116E+00
         25   -1    0    0    0    0  0.00000000000E+00  0.00000000000E+00  0.99999998245E-14  0.12500000000E+03  0.12500000000E+03 0.  0.
        -13    1    3    3    0    0  0.25651762316E+02  0.26947832755E+02  0.74813063503E+01  0.37949699720E+02  0.10566000000E+00 0. -1.
         23    2    1    0    0    0 -0.34467843134E+01 -0.89578348930E+01 -0.27474802282E+02  0.95896943657E+02  0.91374153425E+02 0.  0.
         13    1    3    3    0    0 -0.29098546629E+02 -0.35905667648E+02 -0.34956108633E+02  0.57947243937E+02  0.10566000000E+00 0.  1.
         22    1    1    0    0    0  0.34467843134E+01  0.89578348930E+01  0.27474802282E+02  0.29103056343E+02  0.00000000000E+00 0.  1.
</event>
<event>
 5    1  0.6903325E-004  0.9118800E+02  0.7818608E-02  0.1130116E+00
         25   -1    0    0    0    0  0.00000000000E+00  0.00000000000E+00  0.99999998245E-14  0.12500000000E+03  0.12500000000E+03 0.  0.
        -13    1    3    3    0    0 -0.42507647838E+02 -0.35987720236E+02  0.73376821916E+01  0.56177120578E+02  0.10566000000E+00 0.  1.
         23    2    1    0    0    0 -0.12766901712E+02 -0.31061773332E+02  0.16359315624E+02  0.87644213975E+02  0.79284635925E+02 0.  0.
         13    1    3    3    0    0  0.29740746126E+02  0.49259469039E+01  0.90216334322E+01  0.31467093397E+02  0.10566000000E+00 0. -1.
         22    1    1    0    0    0  0.12766901712E+02  0.31061773332E+02 -0.16359315624E+02  0.37355786025E+02  0.00000000000E+00 0. -1.
</event>
<event>
 5    1  0.6903325E-004  0.9118800E+02  0.7818608E-02  0.1130116E+00
         25   -1    0    0    0    0  0.00000000000E+00  0.00000000000E+00  0.99999998245E-14  0.12500000000E+03  0.12500000000E+03 0.  0.
        -13    1    3    3    0    0  0.28455632711E+02  0.16758255131E+02 -0.47436580235E+02  0.57799675228E+02  0.10566000000E+00 0. -1.
         23    2    1    0    0    0  0.14537311782E+02 -0.93716737554E+01 -0.23207589820E+02  0.96056020866E+02  0.91591512798E+02 0.  0.
         13    1    3    3    0    0 -0.13918320929E+02 -0.26129928886E+02  0.24228990415E+02  0.38256345639E+02  0.10566000000E+00 0.  1.
         22    1    1    0    0    0 -0.14537311782E+02  0.93716737554E+01  0.23207589820E+02  0.28943979134E+02  0.00000000000E+00 0. -1.
</event>
<event>
 5    1  0.6903325E-004  0.9118800E+02  0.7818608E-02  0.1130116E+00
         25   -1    0    0    0    0  0.00000000000E+00  0.00000000000E+00  0.99999998245E-14  0.12500000000E+03  0.12500000000E+03 0.  0.
        -13    1    3    3    0    0 -0.11366285334E+02 -0.15568378964E+02 -0.28136100145E+02  0.34105984244E+02  0.10566000000E+00 0. -1.
         23    2    1    0    0    0 -0.39394829461E+01  0.21356422999E+02  0.20170777528E+02  0.95360894155E+02  0.90637870335E+02 0.  0.
         13    1    3    3    0    0  0.74268023883E+01  0.36924801963E+02  0.48306877673E+02  0.61254909911E+02  0.10566000000E+00 0.  1.
         22    1    1    0    0    0  0.39394829461E+01 -0.21356422999E+02 -0.20170777528E+02  0.29639105845E+02  0.00000000000E+00 0.  1.
</event>
<event>
 5    1  0.6903325E-004  0.9118800E+02  0.7818608E-02  0.1130116E+00
         25   -1    0    0    0    0  0.00000000000E+00  0.00000000000E+00  0.99999998245E-14  0.12500000000E+03  0.12500000000E+03 0.  0.
        -13    1    3    3    0    0  0.51553000026E+02  0.26234128141E+01 -0.55175995413E+01  0.51913863035E+02  0.10566000000E+00 0. -1.
         23    2    1    0    0    0  0.15612482934E+02 -0.21699222482E+02 -0.11828939384E+02  0.95767660261E+02  0.91197122023E+02 0.  0.
         13    1    3    3    0    0 -0.35940517091E+02 -0.24322635296E+02 -0.63113398424E+01  0.43853797226E+02  0.10566000000E+00 0.  1.
         22    1    1    0    0    0 -0.15612482934E+02  0.21699222482E+02  0.11828939384E+02  0.29232339739E+02  0.00000000000E+00 0. -1.
</event>
<event>
 5    1  0.6903325E-004  0.9118800E+02  0.7818608E-02  0.1130116E+00
         25   -1    0    0    0    0  0.00000000000E+00  0.00000000000E+00  0.99999998245E-14  0.12500000000E+03  0.12500000000E+03 0.  0.
        -13    1    3    3    0    0 -0.25551285642E+02 -0.21158875712E+02 -0.10801958256E+02  0.34889248853E+02  0.10566000000E+00 0.  1.
         23    2    1    0    0    0  0.65724841372E+01  0.28950330943E+02 -0.41985463956E+00  0.95310010317E+02  0.90567668510E+02 0.  0.
         13    1    3    3    0    0  0.32123769780E+02  0.50109206654E+02  0.10382103616E+02  0.60420761464E+02  0.10566000000E+00 0. -1.
         22    1    1    0    0    0 -0.65724841372E+01 -0.28950330943E+02  0.41985463956E+00  0.29689989683E+02  0.00000000000E+00 0. -1.
</event>
<event>
 5    1  0.6903325E-004  0.9118800E+02  0.7818608E-02  0.1130116E+00
         25   -1    0    0    0    0  0.00000000000E+00  0.00000000000E+00  0.99999998245E-14  0.12500000000E+03  0.12500000000E+03 0.  0.
        -13    1    3    3    0    0  0.32675525262E+02 -0.13807744691E+02 -0.26027092802E+02  0.43997323650E+02  0.10566000000E+00 0.  1.
         23    2    1    0    0    0  0.66153234448E+01 -0.21509721165E+02  0.18302246963E+02  0.95993055094E+02  0.91505539578E+02 0.  0.
         13    1    3    3    0    0 -0.26060201817E+02 -0.77019764745E+01  0.44329339765E+02  0.51995731444E+02  0.10566000000E+00 0. -1.
         22    1    1    0    0    0 -0.66153234448E+01  0.21509721165E+02 -0.18302246963E+02  0.29006944906E+02  0.00000000000E+00 0. -1.
</event>
<event>
 5    1  0.6903325E-004  0.9118800E+02  0.7818608E-02  0.1130116E+00
         25   -1    0    0    0    0  0.00000000000E+00  0.00000000000E+00  0.99999998245E-14  0.12500000000E+03  0.12500000000E+03 0.  0.
        -13    1    3    3    0    0  0.12359636782E+02  0.11976696773E+02 -0.33313588906E+02  0.37496776619E+02  0.10566000000E+00 0. -1.
         23    2    1    0    0    0 -0.12482367877E+02  0.33707108660E+02  0.57087398360E+01  0.88605379620E+02  0.80785796432E+02 0.  0.
         13    1    3    3    0    0 -0.24842004659E+02  0.21730411887E+02  0.39022328742E+02  0.51108603001E+02  0.10566000000E+00 0.  1.
         22    1    1    0    0    0  0.12482367877E+02 -0.33707108660E+02 -0.57087398360E+01  0.36394620380E+02  0.00000000000E+00 0.  1.
</event>
<event>
 5    1  0.6903325E-004  0.9118800E+02  0.7818608E-02  0.1130116E+00
         25   -1    0    0    0    0  0.00000000000E+00  0.00000000000E+00  0.99999998245E-14  0.12500000000E+03  0.12500000000E+03 0.  0.
        -13    1    3    3    0    0 -0.26234652079E+01 -0.29502456943E+02  0.17969042430E+02  0.34643544640E+02  0.10566000000E+00 0. -1.
         23    2    1    0    0    0 -0.62826985232E+01  0.22757343305E+02 -0.15452021437E+02  0.96784154425E+02  0.92579903901E+02 0.  0.
         13    1    3    3    0    0 -0.36592333152E+01  0.52259800247E+02 -0.33421063867E+02  0.62140609785E+02  0.10566000000E+00 0.  1.
         22    1    1    0    0    0  0.62826985232E+01 -0.22757343305E+02  0.15452021437E+02  0.28215845575E+02  0.00000000000E+00 0.  1.
</event>
<event>
 5    1  0.6903325E-004  0.9118800E+02  0.7818608E-02  0.1130116E+00
         25   -1    0    0    0    0  0.00000000000E+00  0.00000000000E+00  0.99999998245E-14  0.12500000000E+03  0.12500000000E+03 0.  0.
        -13    1    3    3    0    0  0.30701018762E+02 -0.17876499001E+02 -0.15883508313E+02  0.38915533787E+02  0.10566000000E+00 0. -1.
         23    2    1    0    0    0 -0.54785100226E+00  0.28578678443E+02 -0.65439378454E+01  0.95676560147E+02  0.91072169387E+02 0.  0.
         13    1    3    3    0    0 -0.31248869764E+02  0.46455177445E+02  0.93395704678E+01  0.56761026360E+02  0.10566000000E+00 0.  1.
         22    1    1    0    0    0  0.54785100226E+00 -0.28578678443E+02  0.65439378454E+01  0.29323439853E+02  0.00000000000E+00 0.  1.
</event>
<event>
 5    1  0.6903325E-004  0.9118800E+02  0.7818608E-02  0.1130116E+00
         25   -1    0    0    0    0  0.00000000000E+00  0.00000000000E+00  0.99999998245E-14  0.12500000000E+03  0.12500000000E+03 0.  0.
        -13    1    3    3    0    0 -0.71544852527E+01  0.11977593443E+02 -0.31739853287E+02  0.34671008850E+02  0.10566000000E+00 0.  1.
         23    2    1    0    0    0  0.11668402336E+01  0.78624249370E+01  0.28392534827E+02  0.95515847037E+02  0.90851316773E+02 0.  0.
         13    1    3    3    0    0  0.83213254863E+01 -0.41151685056E+01  0.60132388115E+02  0.60844838188E+02  0.10566000000E+00 0. -1.
         22    1    1    0    0    0 -0.11668402336E+01 -0.78624249370E+01 -0.28392534827E+02  0.29484152963E+02  0.00000000000E+00 0. -1.
</event>
<event>
 5    1  0.6903325E-004  0.9118800E+02  0.7818608E-02  0.1130116E+00
         25   -1    0    0    0    0  0.00000000000E+00  0.00000000000E+00  0.99999998245E-14  0.12500000000E+03  0.12500000000E+03 0.  0.
        -13    1    3    3    0    0  0.19569629987E+02 -0.10526998337E+02  0.51298830191E+02  0.55905002056E+02  0.10566000000E+00 0.  1.
         23    2    1    0    0    0  0.62268820965E+01 -0.24139938724E+02  0.18081584051E+02  0.94203013393E+02  0.89026700199E+02 0.  0.
         13    1    3    3    0    0 -0.13342747890E+02 -0.13612940387E+02 -0.33217246140E+02  0.38298011338E+02  0.10566000000E+00 0. -1.
         22    1    1    0    0    0 -0.62268820965E+01  0.24139938724E+02 -0.18081584051E+02  0.30796986607E+02  0.00000000000E+00 0.  1.
</event>
<event>
 5    1  0.6903325E-004  0.9118800E+02  0.7818608E-02  0.1130116E+00
         25   -1    0    0    0    0  0.00000000000E+00  0.00000000000E+00  0.99999998245E-14  0.12500000000E+03  0.12500000000E+03 0.  0.
        -13    1    3    3    0    0 -0.24523580739E+02 -0.11678008776E+02 -0.45670115836E+02  0.53137110815E+02  0.10566000000E+00 0.  1.
         23    2    1    0    0    0 -0.21956605449E+02 -0.11161528919E+01  0.28239009389E+01  0.10283442451E+03  0.10041716053E+03 0.  0.
         13    1    3    3    0    0  0.25669752895E+01  0.10561855884E+02  0.48494016775E+02  0.49697313699E+02  0.10566000000E+00 0. -1.
         22    1    1    0    0    0  0.21956605449E+02  0.11161528919E+01 -0.28239009389E+01  0.22165575486E+02  0.00000000000E+00 0.  1.
</event>
<event>
 5    1  0.6903325E-004  0.9118800E+02  0.7818608E-02  0.1130116E+00
         25   -1    0    0    0    0  0.00000000000E+00  0.00000000000E+00  0.99999998245E-14  0.12500000000E+03  0.12500000000E+03 0.  0.
        -13    1    3    3    0    0 -0.27755579063E+02 -0.17799037389E+02 -0.16642494346E+02  0.36934559469E+02  0.10566000000E+00 0.  1.
         23    2    1    0    0    0  0.57919291684E+01  0.23986993589E+02  0.11850822275E+02  0.97625480944E+02  0.93708965612E+02 0.  0.
         13    1    3    3    0    0  0.33547508232E+02  0.41786030978E+02  0.28493316620E+02  0.60690921475E+02  0.10566000000E+00 0. -1.
         22    1    1    0    0    0 -0.57919291684E+01 -0.23986993589E+02 -0.11850822275E+02  0.27374519056E+02  0.00000000000E+00 0. -1.
</event>
<event>
 5    1  0.6903325E-004  0.9118800E+02  0.7818608E-02  0.1130116E+00
         25   -1    0    0    0    0  0.00000000000E+00  0.00000000000E+00  0.99999998245E-14  0.12500000000E+03  0.12500000000E+03 0.  0.
        -13    1    3    3    0    0  0.18249042127E+02  0.44456567073E+00  0.36578454593E+02  0.40880553832E+02  0.10566000000E+00 0. -1.
         23    2    1    0    0    0  0.22390267800E+02  0.37167164894E+01 -0.18196688823E+02  0.95909493684E+02  0.91391320271E+02 0.  0.
         13    1    3    3    0    0  0.41412256737E+01  0.32721508187E+01 -0.54775143415E+02  0.55028939852E+02  0.10566000000E+00 0.  1.
         22    1    1    0    0    0 -0.22390267800E+02 -0.37167164894E+01  0.18196688823E+02  0.29090506316E+02  0.00000000000E+00 0.  1.
</event>
<event>
 5    1  0.6903325E-004  0.9118800E+02  0.7818608E-02  0.1130116E+00
         25   -1    0    0    0    0  0.00000000000E+00  0.00000000000E+00  0.99999998245E-14  0.12500000000E+03  0.12500000000E+03 0.  0.
        -13    1    3    3    0    0 -0.44424421664E+01 -0.41603098597E+02 -0.87841025550E+01  0.42751897350E+02  0.10566000000E+00 0. -1.
         23    2    1    0    0    0 -0.30120353113E+02  0.25956342312E+01  0.79206479699E+00  0.94757639719E+02  0.89802059719E+02 0.  0.
         13    1    3    3    0    0 -0.25677910947E+02  0.44198732828E+02  0.95761673520E+01  0.52005742369E+02  0.10566000000E+00 0.  1.
         22    1    1    0    0    0  0.30120353113E+02 -0.25956342312E+01 -0.79206479699E+00  0.30242360281E+02  0.00000000000E+00 0.  1.
</event>
<event>
 5    1  0.6903325E-004  0.9118800E+02  0.7818608E-02  0.1130116E+00
         25   -1    0    0    0    0  0.00000000000E+00  0.00000000000E+00  0.99999998245E-14  0.12500000000E+03  0.12500000000E+03 0.  0.
        -13    1    3    3    0    0 -0.25684032848E+02  0.38384038814E+02  0.35245657071E+02  0.58097086720E+02  0.10566000000E+00 0.  1.
         23    2    1    0    0    0  0.34963178016E+01  0.24080769007E+02  0.16259737502E+02  0.95734205328E+02  0.91151255241E+02 0.  0.
         13    1    3    3    0    0  0.29180350650E+02 -0.14303269807E+02 -0.18985919569E+02  0.37637118608E+02  0.10566000000E+00 0. -1.
         22    1    1    0    0    0 -0.34963178016E+01 -0.24080769007E+02 -0.16259737502E+02  0.29265794672E+02  0.00000000000E+00 0.  1.
</event>
<event>
 5    1  0.6903325E-004  0.9118800E+02  0.7818608E-02  0.1130116E+00
         25   -1    0    0    0    0  0.00000000000E+00  0.00000000000E+00  0.99999998245E-14  0.12500000000E+03  0.12500000000E+03 0.  0.
        -13    1    3    3    0    0 -0.83794818717E+01  0.38910224568E+02 -0.14666201782E+02  0.42418509299E+02  0.10566000000E+00 0.  1.
         23    2    1    0    0    0 -0.11377335878E+02  0.39958543333E+01  0.26143649302E+02  0.96209358772E+02  0.91800542988E+02 0.  0.
         13    1    3    3    0    0 -0.29978540059E+01 -0.34914370235E+02  0.40809851084E+02  0.53790849473E+02  0.10566000000E+00 0. -1.
         22    1    1    0    0    0  0.11377335878E+02 -0.39958543333E+01 -0.26143649302E+02  0.28790641228E+02  0.00000000000E+00 0. -1.
</event>
<event>
 5    1  0.6903325E-004  0.9118800E+02  0.7818608E-02  0.1130116E+00
         25   -1    0    0    0    0  0.00000000000E+00  0.00000000000E+00  0.99999998245E-14  0.12500000000E+03  0.12500000000E+03 0.  0.
        -13    1    3    3    0    0  0.50602426250E+02 -0.31486189443E+01 -0.14831702653E+02  0.52825277200E+02  0.10566000000E+00 0.  1.
         23    2    1    0    0    0  0.14758222511E+02 -0.24585127652E+02 -0.86745157901E+01  0.95042015128E+02  0.90197027568E+02 0.  0.
         13    1    3    3    0    0 -0.35844203738E+02 -0.21436508708E+02  0.61571868633E+01  0.42216737928E+02  0.10566000000E+00 0. -1.
         22    1    1    0    0    0 -0.14758222511E+02  0.24585127652E+02  0.86745157901E+01  0.29957984872E+02  0.00000000000E+00 0.  1.
</event>
<event>
 5    1  0.6903325E-004  0.9118800E+02  0.7818608E-02  0.1130116E+00
         25   -1    0    0    0    0  0.00000000000E+00  0.00000000000E+00  0.99999998245E-14  0.12500000000E+03  0.12500000000E+03 0.  0.
        -13    1    3    3    0    0  0.27057778626E+01  0.58432677791E+00  0.37913235666E+02  0.38014303549E+02  0.10566000000E+00 0. -1.
         23    2    1    0    0    0  0.28154419973E+02 -0.59559162404E+01 -0.11524245892E+02  0.94000765402E+02  0.88742274878E+02 0.  0.
         13    1    3    3    0    0  0.25448642110E+02 -0.65402430183E+01 -0.49437481558E+02  0.55986461853E+02  0.10566000000E+00 0.  1.
         22    1    1    0    0    0 -0.28154419973E+02  0.59559162404E+01  0.11524245892E+02  0.30999234598E+02  0.00000000000E+00 0.  1.
</event>
<event>
 5    1  0.6903325E-004  0.9118800E+02  0.7818608E-02  0.1130116E+00
         25   -1    0    0    0    0  0.00000000000E+00  0.00000000000E+00  0.99999998245E-14  0.12500000000E+03  0.12500000000E+03 0.  0.
        -13    1    3    3    0    0  0.46460823717E+00 -0.37731224663E+02 -0.43675710043E+02  0.57718627731E+02  0.10566000000E+00 0.  1.
         23    2    1    0    0    0  0.17223883872E+02 -0.14464980301E+02 -0.19924447265E+02  0.94952014551E+02  0.90072213460E+02 0.  0.
         13    1    3    3    0    0  0.16759275634E+02  0.23266244362E+02  0.23751262777E+02  0.37233386819E+02  0.10566000000E+00 0. -1.
         22    1    1    0    0    0 -0.17223883872E+02  0.14464980301E+02  0.19924447265E+02  0.30047985449E+02  0.00000000000E+00 0.  1.
</event>
<event>
 5    1  0.6903325E-004  0.9118800E+02  0.7818608E-02  0.1130116E+00
         25   -1    0    0    0    0  0.00000000000E+00  0.00000000000E+00  0.99999998245E-14  0.12500000000E+03  0.12500000000E+03 0.  0.
        -13    1    3    3    0    0 -0.47365946018E+02  0.36581826442E+01 -0.25465885011E+02  0.53902111331E+02  0.10566000000E+00 0. -1.
         23    2    1    0    0    0 -0.11743947863E+02 -0.18522256942E+02 -0.18222568402E+02  0.96485857670E+02  0.92176268191E+02 0.  0.
         13    1    3    3    0    0  0.35621998155E+02 -0.22180439586E+02  0.72433166097E+01  0.42583746340E+02  0.10566000000E+00 0.  1.
         22    1    1    0    0    0  0.11743947863E+02  0.18522256942E+02  0.18222568402E+02  0.28514142330E+02  0.00000000000E+00 0.  1.
</event>
<event>
 5    1  0.6903325E-004  0.9118800E+02  0.7818608E-02  0.1130116E+00
         25   -1    0    0    0    0  0.00000000000E+00  0.00000000000E+00  0.99999998245E-14  0.12500000000E+03  0.12500000000E+03 0.  0.
        -13    1    3    3    0    0 -0.11587954736E+02  0.18708959500E+02 -0.33729363376E+02  0.40273899467E+02  0.10566000000E+00 0. -1.
         23    2    1    0    0    0  0.25535434688E+02 -0.95133643227E+01 -0.13161382882E+00  0.97749681697E+02  0.93874492937E+02 0.  0.
         13    1    3    3    0    0  0.37123389423E+02 -0.28222323823E+02  0.33597749547E+02  0.57475782230E+02  0.10566000000E+00 0.  1.
         22    1    1    0    0    0 -0.25535434688E+02  0.95133643227E+01  0.13161382882E+00  0.27250318303E+02  0.00000000000E+00 0.  1.
</event>
<event>
 5    1  0.6903325E-004  0.9118800E+02  0.7818608E-02  0.1130116E+00
         25   -1    0    0    0    0  0.00000000000E+00  0.00000000000E+00  0.99999998245E-14  0.12500000000E+03  0.12500000000E+03 0.  0.
        -13    1    3    3    0    0 -0.20578731333E+02 -0.27042867896E+02 -0.31050477328E+02  0.46031990981E+02  0.10566000000E+00 0. -1.
         23    2    1    0    0    0  0.28268421405E+00  0.16499566372E+02 -0.25492045972E+02  0.94632912411E+02  0.89628277361E+02 0.  0.
         13    1    3    3    0    0  0.20861415547E+02  0.43542434268E+02  0.55584313565E+01  0.48600921430E+02  0.10566000000E+00 0.  1.
         22    1    1    0    0    0 -0.28268421405E+00 -0.16499566372E+02  0.25492045972E+02  0.30367087589E+02  0.00000000000E+00 0. -1.
</event>
<event>
 5    1  0.6903325E-004  0.9118800E+02  0.7818608E-02  0.1130116E+00
         25   -1    0    0    0    0  0.00000000000E+00  0.00000000000E+00  0.99999998245E-14  0.12500000000E+03  0.12500000000E+03 0.  0.
        -13    1    3    3    0    0  0.34998320807E+02  0.37371876820E+02 -0.10796688540E+02  0.52327041612E+02  0.10566000000E+00 0. -1.
         23    2    1    0    0    0 -0.43082672517E+01  0.19358423247E+02 -0.20325341006E+02  0.96602302834E+02  0.92334044147E+02 0.  0.
         13    1    3    3    0    0 -0.39306588059E+02 -0.18013453573E+02 -0.95286524662E+01  0.44275261222E+02  0.10566000000E+00 0.  1.
         22    1    1    0    0    0  0.43082672517E+01 -0.19358423247E+02  0.20325341006E+02  0.28397697166E+02  0.00000000000E+00 0.  1.
</event>
<event>
 5    1  0.6903325E-004  0.9118800E+02  0.7818608E-02  0.1130116E+00
         25   -1    0    0    0    0  0.00000000000E+00  0.00000000000E+00  0.99999998245E-14  0.12500000000E+03  0.12500000000E+03 0.  0.
        -13    1    3    3    0    0  0.36765761495E+01 -0.18120145697E+02  0.50318269220E+02  0.53607800492E+02  0.10566000000E+00 0. -1.
         23    2    1    0    0    0 -0.12584007044E+02  0.10692359401E+02  0.23922039711E+02  0.95932014745E+02  0.91422118146E+02 0.  0.
         13    1    3    3    0    0 -0.16260583193E+02  0.28812505098E+02 -0.26396229509E+02  0.42324214253E+02  0.10566000000E+00 0.  1.
         22    1    1    0    0    0  0.12584007044E+02 -0.10692359401E+02 -0.23922039711E+02  0.29067985255E+02  0.00000000000E+00 0. -1.
</event>
<event>
 5    1  0.6903325E-004  0.9118800E+02  0.7818608E-02  0.1130116E+00
         25   -1    0    0    0    0  0.00000000000E+00  0.00000000000E+00  0.99999998245E-14  0.12500000000E+03  0.12500000000E+03 0.  0.
        -13    1    3    3    0    0 -0.28874782316E+01  0.38322435743E+02 -0.34545658186E+01  0.38586160742E+02  0.10566000000E+00 0.  1.
         23    2    1    0    0    0 -0.22576033499E+02 -0.16419381704E+02 -0.42278888194E+01  0.96766182901E+02  0.92555635838E+02 0.  0.
         13    1    3    3    0    0 -0.19688555267E+02 -0.54741817447E+02 -0.77332300082E+00  0.58180022159E+02  0.10566000000E+00 0. -1.
         22    1    1    0    0    0  0.22576033499E+02  0.16419381704E+02  0.42278888194E+01  0.28233817099E+02  0.00000000000E+00 0. -1.
</event>
<event>
 5    1  0.6903325E-004  0.9118800E+02  0.7818608E-02  0.1130116E+00
         25   -1    0    0    0    0  0.00000000000E+00  0.00000000000E+00  0.99999998245E-14  0.12500000000E+03  0.12500000000E+03 0.  0.
        -13    1    3    3    0    0  0.33399213584E+01  0.29862670877E+02  0.28949121770E+02  0.41725256163E+02  0.10566000000E+00 0.  1.
         23    2    1    0    0    0  0.13338454587E+02  0.15697566394E+02 -0.21592143795E+02  0.95157938491E+02  0.90357537719E+02 0.  0.
         13    1    3    3    0    0  0.99985332285E+01 -0.14165104484E+02 -0.50541265565E+02  0.53432682327E+02  0.10566000000E+00 0. -1.
         22    1    1    0    0    0 -0.13338454587E+02 -0.15697566394E+02  0.21592143795E+02  0.29842061509E+02  0.00000000000E+00 0.  1.
</event>
<event>
 5    1  0.6903325E-004  0.9118800E+02  0.7818608E-02  0.1130116E+00
         25   -1    0    0    0    0  0.00000000000E+00  0.00000000000E+00  0.99999998245E-14  0.12500000000E+03  0.12500000000E+03 0.  0.
        -13    1    3    3    0    0 -0.20346836087E+02  0.13410734441E+02 -0.38720917664E+02  0.45751089230E+02  0.10566000000E+00 0.  1.
         23    2    1    0    0    0 -0.22973301625E+02 -0.16966615279E+02  0.17087702569E+01  0.96389538323E+02  0.92045557095E+02 0.  0.
         13    1    3    3    0    0 -0.26264655374E+01 -0.30377349719E+02  0.40429687920E+02  0.50638449093E+02  0.10566000000E+00 0. -1.
         22    1    1    0    0    0  0.22973301625E+02  0.16966615279E+02 -0.17087702569E+01  0.28610461677E+02  0.00000000000E+00 0. -1.
</event>
<event>
 5    1  0.6903325E-004  0.9118800E+02  0.7818608E-02  0.1130116E+00
         25   -1    0    0    0    0  0.00000000000E+00  0.00000000000E+00  0.99999998245E-14  0.12500000000E+03  0.12500000000E+03 0.  0.
        -13    1    3    3    0    0 -0.43091042475E+02 -0.25988578850E+02 -0.25323092952E+02  0.56333953997E+02  0.10566000000E+00 0. -1.
         23    2    1    0    0    0 -0.24111451417E+02  0.72423164022E+01 -0.64122652183E+01  0.99020577729E+02  0.95551789267E+02 0.  0.
         13    1    3    3    0    0  0.18979591058E+02  0.33230895252E+02  0.18910827734E+02  0.42686623732E+02  0.10566000000E+00 0.  1.
         22    1    1    0    0    0  0.24111451417E+02 -0.72423164022E+01  0.64122652183E+01  0.25979422271E+02  0.00000000000E+00 0. -1.
</event>
<event>
 5    1  0.6903325E-004  0.9118800E+02  0.7818608E-02  0.1130116E+00
         25   -1    0    0    0    0  0.00000000000E+00  0.00000000000E+00  0.99999998245E-14  0.12500000000E+03  0.12500000000E+03 0.  0.
        -13    1    3    3    0    0  0.31517188755E+02 -0.21011314031E+02 -0.65965801663E+01  0.38449116222E+02  0.10566000000E+00 0.  1.
         23    2    1    0    0    0  0.55898128643E+01  0.28318375936E+02 -0.10428461865E+02  0.94309134251E+02  0.89175577166E+02 0.  0.
         13    1    3    3    0    0 -0.25927375891E+02  0.49329689967E+02 -0.38318816990E+01  0.55860018029E+02  0.10566000000E+00 0. -1.
         22    1    1    0    0    0 -0.55898128643E+01 -0.28318375936E+02  0.10428461865E+02  0.30690865749E+02  0.00000000000E+00 0.  1.
</event>
<event>
 5    1  0.6903325E-004  0.9118800E+02  0.7818608E-02  0.1130116E+00
         25   -1    0    0    0    0  0.00000000000E+00  0.00000000000E+00  0.99999998245E-14  0.12500000000E+03  0.12500000000E+03 0.  0.
        -13    1    3    3    0    0 -0.44140647165E+02 -0.22969449505E+02  0.22876624525E+02  0.54766262027E+02  0.10566000000E+00 0.  1.
         23    2    1    0    0    0 -0.28311086506E+02 -0.35411690957E+02  0.10296075603E+02  0.78507907679E+02  0.63261180195E+02 0.  0.
         13    1    3    3    0    0  0.15829560660E+02 -0.12442241452E+02 -0.12580548922E+02  0.23741645652E+02  0.10566000000E+00 0. -1.
         22    1    1    0    0    0  0.28311086506E+02  0.35411690957E+02 -0.10296075603E+02  0.46492092321E+02  0.00000000000E+00 0.  1.
</event>
<event>
 5    1  0.6903325E-004  0.9118800E+02  0.7818608E-02  0.1130116E+00
         25   -1    0    0    0    0  0.00000000000E+00  0.00000000000E+00  0.99999998245E-14  0.12500000000E+03  0.12500000000E+03 0.  0.
        -13    1    3    3    0    0 -0.92741358394E+01  0.32402031153E+02  0.35623984130E+01  0.33891046973E+02  0.10566000000E+00 0.  1.
         23    2    1    0    0    0 -0.14240272257E+02 -0.27245704881E+02 -0.30354575916E+01  0.94107803717E+02  0.88892918330E+02 0.  0.
         13    1    3    3    0    0 -0.49661364174E+01 -0.59647736034E+02 -0.65978560046E+01  0.60216756744E+02  0.10566000000E+00 0. -1.
         22    1    1    0    0    0  0.14240272257E+02  0.27245704881E+02  0.30354575916E+01  0.30892196283E+02  0.00000000000E+00 0. -1.
</event>
<event>
 5    1  0.6903325E-004  0.9118800E+02  0.7818608E-02  0.1130116E+00
         25   -1    0    0    0    0  0.00000000000E+00  0.00000000000E+00  0.99999998245E-14  0.12500000000E+03  0.12500000000E+03 0.  0.
        -13    1    3    3    0    0  0.33742527047E+02  0.21105284288E+02 -0.20500371841E+02  0.44769046964E+02  0.10566000000E+00 0.  1.
         23    2    1    0    0    0  0.22823483487E+01  0.12374976615E+01  0.22909794544E+02  0.10194356488E+03  0.99302020219E+02 0.  0.
         13    1    3    3    0    0 -0.31460178698E+02 -0.19867786626E+02  0.43410166386E+02  0.57174517915E+02  0.10566000000E+00 0. -1.
         22    1    1    0    0    0 -0.22823483487E+01 -0.12374976615E+01 -0.22909794544E+02  0.23056435121E+02  0.00000000000E+00 0. -1.
</event>
<event>
 5    1  0.6903325E-004  0.9118800E+02  0.7818608E-02  0.1130116E+00
         25   -1    0    0    0    0  0.00000000000E+00  0.00000000000E+00  0.99999998245E-14  0.12500000000E+03  0.12500000000E+03 0.  0.
        -13    1    3    3    0    0 -0.24476068282E+02  0.46640685655E+02 -0.66374357655E+01  0.53089529989E+02  0.10566000000E+00 0.  1.
         23    2    1    0    0    0 -0.28591027634E+02  0.41293705876E+01 -0.22343558861E+01  0.96026030495E+02  0.91550574131E+02 0.  0.
         13    1    3    3    0    0 -0.41149593527E+01 -0.42511315067E+02  0.44030798793E+01  0.42936500506E+02  0.10566000000E+00 0. -1.
         22    1    1    0    0    0  0.28591027634E+02 -0.41293705876E+01  0.22343558861E+01  0.28973969505E+02  0.00000000000E+00 0.  1.
</event>
<event>
 5    1  0.6903325E-004  0.9118800E+02  0.7818608E-02  0.1130116E+00
         25   -1    0    0    0    0  0.00000000000E+00  0.00000000000E+00  0.99999998245E-14  0.12500000000E+03  0.12500000000E+03 0.  0.
        -13    1    3    3    0    0 -0.39046497330E+02 -0.16928093462E+02  0.37036154665E+02  0.56416994057E+02  0.10566000000E+00 0.  1.
         23    2    1    0    0    0 -0.38184738662E+01  0.35079213071E+01  0.25826521843E+02  0.98658103996E+02  0.95076421888E+02 0.  0.
         13    1    3    3    0    0  0.35228023464E+02  0.20436014770E+02 -0.11209632822E+02  0.42241109939E+02  0.10566000000E+00 0. -1.
         22    1    1    0    0    0  0.38184738662E+01 -0.35079213071E+01 -0.25826521843E+02  0.26341896004E+02  0.00000000000E+00 0.  1.
</event>
<event>
 5    1  0.6903325E-004  0.9118800E+02  0.7818608E-02  0.1130116E+00
         25   -1    0    0    0    0  0.00000000000E+00  0.00000000000E+00  0.99999998245E-14  0.12500000000E+03  0.12500000000E+03 0.  0.
        -13    1    3    3    0    0  0.23909626108E+02  0.10436038700E+02 -0.44963941584E+02  0.51984116143E+02  0.10566000000E+00 0.  1.
         23    2    1    0    0    0  0.25958686397E+02 -0.15920462953E+02 -0.18613501273E+02  0.89309987815E+02  0.81868778871E+02 0.  0.
         13    1    3    3    0    0  0.20490602890E+01 -0.26356501653E+02  0.26350440311E+02  0.37325871672E+02  0.10566000000E+00 0. -1.
         22    1    1    0    0    0 -0.25958686397E+02  0.15920462953E+02  0.18613501273E+02  0.35690012185E+02  0.00000000000E+00 0.  1.
</event>
<event>
 5    1  0.6903325E-004  0.9118800E+02  0.7818608E-02  0.1130116E+00
         25   -1    0    0    0    0  0.00000000000E+00  0.00000000000E+00  0.99999998245E-14  0.12500000000E+03  0.12500000000E+03 0.  0.
        -13    1    3    3    0    0 -0.29547048605E+02  0.44104648500E+02  0.32499878215E+02  0.62245492597E+02  0.10566000000E+00 0. -1.
         23    2    1    0    0    0 -0.11703956894E+02  0.17870049357E+02  0.17713725413E+02  0.97249372278E+02  0.93205917567E+02 0.  0.
         13    1    3    3    0    0  0.17843091711E+02 -0.26234599143E+02 -0.14786152803E+02  0.35003879681E+02  0.10566000000E+00 0.  1.
         22    1    1    0    0    0  0.11703956894E+02 -0.17870049357E+02 -0.17713725413E+02  0.27750627722E+02  0.00000000000E+00 0. -1.
</event>
<event>
 5    1  0.6903325E-004  0.9118800E+02  0.7818608E-02  0.1130116E+00
         25   -1    0    0    0    0  0.00000000000E+00  0.00000000000E+00  0.99999998245E-14  0.12500000000E+03  0.12500000000E+03 0.  0.
        -13    1    3    3    0    0  0.38593025521E+02  0.34262020861E+02  0.11624504296E+02  0.52900358756E+02  0.10566000000E+00 0. -1.
         23    2    1    0    0    0  0.26913324125E+02  0.17589292929E+02 -0.17469537528E+02  0.88409086065E+02  0.80481497974E+02 0.  0.
         13    1    3    3    0    0 -0.11679701397E+02 -0.16672727932E+02 -0.29094041824E+02  0.35508727309E+02  0.10566000000E+00 0.  1.
         22    1    1    0    0    0 -0.26913324125E+02 -0.17589292929E+02  0.17469537528E+02  0.36590913935E+02  0.00000000000E+00 0. -1.
</event>
<event>
 5    1  0.6903325E-004  0.9118800E+02  0.7818608E-02  0.1130116E+00
         25   -1    0    0    0    0  0.00000000000E+00  0.00000000000E+00  0.99999998245E-14  0.12500000000E+03  0.12500000000E+03 0.  0.
        -13    1    3    3    0    0  0.34101274751E+02 -0.26434922405E+02 -0.32539998962E+02  0.54042249756E+02  0.10566000000E+00 0.  1.
         23    2    1    0    0    0  0.24666997836E+02  0.90783568735E+01 -0.12548694695E+02  0.95873601590E+02  0.91342215857E+02 0.  0.
         13    1    3    3    0    0 -0.94342769147E+01  0.35513279278E+02  0.19991304267E+02  0.41831351835E+02  0.10566000000E+00 0. -1.
         22    1    1    0    0    0 -0.24666997836E+02 -0.90783568735E+01  0.12548694695E+02  0.29126398410E+02  0.00000000000E+00 0.  1.
</event>
<event>
 5    1  0.6903325E-004  0.9118800E+02  0.7818608E-02  0.1130116E+00
         25   -1    0    0    0    0  0.00000000000E+00  0.00000000000E+00  0.99999998245E-14  0.12500000000E+03  0.12500000000E+03 0.  0.
        -13    1    3    3    0    0 -0.13164181095E+02 -0.40490518992E+02 -0.18103293134E+01  0.42615328796E+02  0.10566000000E+00 0.  1.
         23    2    1    0    0    0 -0.24666888365E+02  0.93150220796E+01 -0.13973255906E+02  0.95159140452E+02  0.90359200489E+02 0.  0.
         13    1    3    3    0    0 -0.11502707269E+02  0.49805541072E+02 -0.12162926592E+02  0.52543811656E+02  0.10566000000E+00 0. -1.
         22    1    1    0    0    0  0.24666888365E+02 -0.93150220796E+01  0.13973255906E+02  0.29840859548E+02  0.00000000000E+00 0. -1.
</event>
<event>
 5    1  0.6903325E-004  0.9118800E+02  0.7818608E-02  0.1130116E+00
         25   -1    0    0    0    0  0.00000000000E+00  0.00000000000E+00  0.99999998245E-14  0.12500000000E+03  0.12500000000E+03 0.  0.
        -13    1    3    3    0    0  0.48270334221E+02 -0.23298746666E+01  0.17726529378E+02  0.51475183240E+02  0.10566000000E+00 0.  1.
         23    2    1    0    0    0  0.85952064627E+01  0.11015565878E+02  0.27225061089E+02  0.94398950720E+02  0.89301386775E+02 0.  0.
         13    1    3    3    0    0 -0.39675127758E+02  0.13345440544E+02  0.94985317111E+01  0.42923767480E+02  0.10566000000E+00 0. -1.
         22    1    1    0    0    0 -0.85952064627E+01 -0.11015565878E+02 -0.27225061089E+02  0.30601049280E+02  0.00000000000E+00 0.  1.
</event>
<event>
 5    1  0.6903325E-004  0.9118800E+02  0.7818608E-02  0.1130116E+00
         25   -1    0    0    0    0  0.00000000000E+00  0.00000000000E+00  0.99999998245E-14  0.12500000000E+03  0.12500000000E+03 0.  0.
        -13    1    3    3    0    0  0.42302005806E+01 -0.19701282811E+02  0.53940139483E+02  0.57581116287E+02  0.10566000000E+00 0.  1.
         23    2    1    0    0    0  0.17665300466E+02 -0.14389682027E+02  0.19203661837E+02  0.95202241404E+02  0.90418805295E+02 0.  0.
         13    1    3    3    0    0  0.13435099885E+02  0.53116007841E+01 -0.34736477646E+02  0.37621125117E+02  0.10566000000E+00 0. -1.
         22    1    1    0    0    0 -0.17665300466E+02  0.14389682027E+02 -0.19203661837E+02  0.29797758596E+02  0.00000000000E+00 0.  1.
</event>
<event>
 5    1  0.6903325E-004  0.9118800E+02  0.7818608E-02  0.1130116E+00
         25   -1    0    0    0    0  0.00000000000E+00  0.00000000000E+00  0.99999998245E-14  0.12500000000E+03  0.12500000000E+03 0.  0.
        -13    1    3    3    0    0 -0.15885115823E+02 -0.47864063962E+02 -0.13053793227E+02  0.52093360473E+02  0.10566000000E+00 0. -1.
         23    2    1    0    0    0  0.18571280573E+02 -0.19272207384E+02 -0.74596096172E+01  0.97215899957E+02  0.93161016467E+02 0.  0.
         13    1    3    3    0    0  0.34456396396E+02  0.28591856579E+02  0.55941836094E+01  0.45122539484E+02  0.10566000000E+00 0.  1.
         22    1    1    0    0    0 -0.18571280573E+02  0.19272207384E+02  0.74596096172E+01  0.27784100043E+02  0.00000000000E+00 0. -1.
</event>
<event>
 5    1  0.6903325E-004  0.9118800E+02  0.7818608E-02  0.1130116E+00
         25   -1    0    0    0    0  0.00000000000E+00  0.00000000000E+00  0.99999998245E-14  0.12500000000E+03  0.12500000000E+03 0.  0.
        -13    1    3    3    0    0 -0.28089107106E+02 -0.27582104847E+02 -0.18963618902E+02  0.43696686965E+02  0.10566000000E+00 0.  1.
         23    2    1    0    0    0  0.22014497279E+02 -0.14426123126E+02 -0.55025712726E+00  0.98674083078E+02  0.95097427775E+02 0.  0.
         13    1    3    3    0    0  0.50103604385E+02  0.13155981721E+02  0.18413361775E+02  0.54977396113E+02  0.10566000000E+00 0. -1.
         22    1    1    0    0    0 -0.22014497279E+02  0.14426123126E+02  0.55025712726E+00  0.26325916922E+02  0.00000000000E+00 0. -1.
</event>
<event>
 5    1  0.6903325E-004  0.9118800E+02  0.7818608E-02  0.1130116E+00
         25   -1    0    0    0    0  0.00000000000E+00  0.00000000000E+00  0.99999998245E-14  0.12500000000E+03  0.12500000000E+03 0.  0.
        -13    1    3    3    0    0 -0.23714686937E+02 -0.20641556543E+02 -0.23856583075E+02  0.39466542199E+02  0.10566000000E+00 0.  1.
         23    2    1    0    0    0 -0.12419218490E+02  0.41435005328E+01  0.25780426457E+02  0.96085713343E+02  0.91632026802E+02 0.  0.
         13    1    3    3    0    0  0.11295468448E+02  0.24785057076E+02  0.49637009533E+02  0.56619171144E+02  0.10566000000E+00 0. -1.
         22    1    1    0    0    0  0.12419218490E+02 -0.41435005328E+01 -0.25780426457E+02  0.28914286657E+02  0.00000000000E+00 0. -1.
</event>
<event>
 5    1  0.6903325E-004  0.9118800E+02  0.7818608E-02  0.1130116E+00
         25   -1    0    0    0    0  0.00000000000E+00  0.00000000000E+00  0.99999998245E-14  0.12500000000E+03  0.12500000000E+03 0.  0.
        -13    1    3    3    0    0  0.24049257928E+02  0.82028824539E+00  0.18989622102E+01  0.24138287040E+02  0.10566000000E+00 0.  1.
         23    2    1    0    0    0 -0.16924945239E+02  0.37142395267E+02 -0.15111849848E+02  0.81475532130E+02  0.68875852318E+02 0.  0.
         13    1    3    3    0    0 -0.40974203167E+02  0.36322107022E+02 -0.17010812058E+02  0.57337245091E+02  0.10566000000E+00 0. -1.
         22    1    1    0    0    0  0.16924945239E+02 -0.37142395267E+02  0.15111849848E+02  0.43524467870E+02  0.00000000000E+00 0. -1.
</event>
<event>
 5    1  0.6903325E-004  0.9118800E+02  0.7818608E-02  0.1130116E+00
         25   -1    0    0    0    0  0.00000000000E+00  0.00000000000E+00  0.99999998245E-14  0.12500000000E+03  0.12500000000E+03 0.  0.
        -13    1    3    3    0    0  0.24005376519E+02  0.46226237067E+02 -0.92229686020E+01  0.52897990596E+02  0.10566000000E+00 0. -1.
         23    2    1    0    0    0  0.12414174555E+02  0.10722713494E+01 -0.20636937475E+02  0.10089305735E+03  0.97970732042E+02 0.  0.
         13    1    3    3    0    0 -0.11591201964E+02 -0.45153965718E+02 -0.11413968873E+02  0.47995066751E+02  0.10566000000E+00 0.  1.
         22    1    1    0    0    0 -0.12414174555E+02 -0.10722713494E+01  0.20636937475E+02  0.24106942653E+02  0.00000000000E+00 0. -1.
</event>
<event>
 5    1  0.6903325E-004  0.9118800E+02  0.7818608E-02  0.1130116E+00
         25   -1    0    0    0    0  0.00000000000E+00  0.00000000000E+00  0.99999998245E-14  0.12500000000E+03  0.12500000000E+03 0.  0.
        -13    1    3    3    0    0  0.36962214519E+02  0.32215033233E+02  0.12197895667E+02  0.50525374724E+02  0.10566000000E+00 0.  1.
         23    2    1    0    0    0  0.14033375981E+02  0.90722956062E+01  0.32177556595E+02  0.88742072075E+02  0.80997024752E+02 0.  0.
         13    1    3    3    0    0 -0.22928838538E+02 -0.23142737626E+02  0.19979660929E+02  0.38216697351E+02  0.10566000000E+00 0. -1.
         22    1    1    0    0    0 -0.14033375981E+02 -0.90722956062E+01 -0.32177556595E+02  0.36257927925E+02  0.00000000000E+00 0.  1.
</event>
<event>
 5    1  0.6903325E-004  0.9118800E+02  0.7818608E-02  0.1130116E+00
         25   -1    0    0    0    0  0.00000000000E+00  0.00000000000E+00  0.99999998245E-14  0.12500000000E+03  0.12500000000E+03 0.  0.
        -13    1    3    3    0    0 -0.44342779255E+01  0.61579444786E+02  0.65759340810E+01  0.62088202695E+02  0.10566000000E+00 0. -1.
         23    2    1    0    0    0 -0.61974670834E+01  0.29485945444E+02  0.62316145110E+01  0.94232117454E+02  0.89067555055E+02 0.  0.
         13    1    3    3    0    0 -0.17631891579E+01 -0.32093499342E+02 -0.34431956992E+00  0.32143914759E+02  0.10566000000E+00 0.  1.
         22    1    1    0    0    0  0.61974670834E+01 -0.29485945444E+02 -0.62316145110E+01  0.30767882546E+02  0.00000000000E+00 0. -1.
</event>
<event>
 5    1  0.6903325E-004  0.9118800E+02  0.7818608E-02  0.1130116E+00
         25   -1    0    0    0    0  0.00000000000E+00  0.00000000000E+00  0.99999998245E-14  0.12500000000E+03  0.12500000000E+03 0.  0.
        -13    1    3    3    0    0  0.14572827819E+01 -0.21522677616E+02  0.26431978408E+02  0.34117590352E+02  0.10566000000E+00 0.  1.
         23    2    1    0    0    0  0.17658389007E+02  0.17984597335E+02 -0.16663641904E+02  0.94785079760E+02  0.89840246772E+02 0.  0.
         13    1    3    3    0    0  0.16201106225E+02  0.39507274951E+02 -0.43095620312E+02  0.60667489408E+02  0.10566000000E+00 0. -1.
         22    1    1    0    0    0 -0.17658389007E+02 -0.17984597335E+02  0.16663641904E+02  0.30214920240E+02  0.00000000000E+00 0. -1.
</event>
<event>
 5    1  0.6903325E-004  0.9118800E+02  0.7818608E-02  0.1130116E+00
         25   -1    0    0    0    0  0.00000000000E+00  0.00000000000E+00  0.99999998245E-14  0.12500000000E+03  0.12500000000E+03 0.  0.
        -13    1    3    3    0    0  0.20163942968E+02 -0.18644629995E+02  0.40348577542E+02  0.48808049514E+02  0.10566000000E+00 0. -1.
         23    2    1    0    0    0  0.28996498234E+02 -0.86045921895E+01 -0.34079039989E+01  0.94562363327E+02  0.89529832077E+02 0.  0.
         13    1    3    3    0    0  0.88325552654E+01  0.10040037805E+02 -0.43756481541E+02  0.45754313813E+02  0.10566000000E+00 0.  1.
         22    1    1    0    0    0 -0.28996498234E+02  0.86045921895E+01  0.34079039989E+01  0.30437636673E+02  0.00000000000E+00 0. -1.
</event>
<event>
 5    1  0.6903325E-004  0.9118800E+02  0.7818608E-02  0.1130116E+00
         25   -1    0    0    0    0  0.00000000000E+00  0.00000000000E+00  0.99999998245E-14  0.12500000000E+03  0.12500000000E+03 0.  0.
        -13    1    3    3    0    0 -0.34622105821E+02 -0.33314746061E+02  0.24108110608E+02  0.53756624501E+02  0.10566000000E+00 0. -1.
         23    2    1    0    0    0 -0.22804430427E+02  0.57354994662E+01  0.18787926589E+02  0.94901425503E+02  0.90001979843E+02 0.  0.
         13    1    3    3    0    0  0.11817675394E+02  0.39050245527E+02 -0.53201840190E+01  0.41144801002E+02  0.10566000000E+00 0.  1.
         22    1    1    0    0    0  0.22804430427E+02 -0.57354994662E+01 -0.18787926589E+02  0.30098574497E+02  0.00000000000E+00 0. -1.
</event>
<event>
 5    1  0.6903325E-004  0.9118800E+02  0.7818608E-02  0.1130116E+00
         25   -1    0    0    0    0  0.00000000000E+00  0.00000000000E+00  0.99999998245E-14  0.12500000000E+03  0.12500000000E+03 0.  0.
        -13    1    3    3    0    0  0.28855466495E+01  0.10660771178E+02  0.61117470067E+02  0.62107445069E+02  0.10566000000E+00 0.  1.
         23    2    1    0    0    0  0.12811344092E+01  0.97294030801E+01  0.27060783726E+02  0.96214784949E+02  0.91807931233E+02 0.  0.
         13    1    3    3    0    0 -0.16044122403E+01 -0.93136809777E+00 -0.34056686341E+02  0.34107339881E+02  0.10566000000E+00 0. -1.
         22    1    1    0    0    0 -0.12811344092E+01 -0.97294030801E+01 -0.27060783726E+02  0.28785215051E+02  0.00000000000E+00 0.  1.
</event>
<event>
 5    1  0.6903325E-004  0.9118800E+02  0.7818608E-02  0.1130116E+00
         25   -1    0    0    0    0  0.00000000000E+00  0.00000000000E+00  0.99999998245E-14  0.12500000000E+03  0.12500000000E+03 0.  0.
        -13    1    3    3    0    0 -0.16528703719E+02  0.13609836560E+02 -0.28112937929E+02  0.35337998540E+02  0.10566000000E+00 0. -1.
         23    2    1    0    0    0  0.16232901411E+02  0.17880840913E+02  0.19959530585E+02  0.93669273530E+02  0.88274109355E+02 0.  0.
         13    1    3    3    0    0  0.32761605130E+02  0.42710043531E+01  0.48072468514E+02  0.58331274990E+02  0.10566000000E+00 0.  1.
         22    1    1    0    0    0 -0.16232901411E+02 -0.17880840913E+02 -0.19959530585E+02  0.31330726470E+02  0.00000000000E+00 0.  1.
</event>
<event>
 5    1  0.6903325E-004  0.9118800E+02  0.7818608E-02  0.1130116E+00
         25   -1    0    0    0    0  0.00000000000E+00  0.00000000000E+00  0.99999998245E-14  0.12500000000E+03  0.12500000000E+03 0.  0.
        -13    1    3    3    0    0 -0.20809188453E+02  0.20895926480E+02  0.30584565829E+02  0.42486337787E+02  0.10566000000E+00 0.  1.
         23    2    1    0    0    0 -0.15545454955E+02 -0.24422013418E+02  0.27733550216E+01  0.95917575630E+02  0.91402373643E+02 0.  0.
         13    1    3    3    0    0  0.52637334982E+01 -0.45317939898E+02 -0.27811210807E+02  0.53431237844E+02  0.10566000000E+00 0. -1.
         22    1    1    0    0    0  0.15545454955E+02  0.24422013418E+02 -0.27733550216E+01  0.29082424370E+02  0.00000000000E+00 0. -1.
</event>
<event>
 5    1  0.6903325E-004  0.9118800E+02  0.7818608E-02  0.1130116E+00
         25   -1    0    0    0    0  0.00000000000E+00  0.00000000000E+00  0.99999998245E-14  0.12500000000E+03  0.12500000000E+03 0.  0.
        -13    1    3    3    0    0  0.22687547499E+02  0.58513135792E+01  0.26095463248E+02  0.35070600912E+02  0.10566000000E+00 0.  1.
         23    2    1    0    0    0 -0.28857528498E+02 -0.14919766774E+00 -0.52101875713E+01  0.95675517643E+02  0.91070738499E+02 0.  0.
         13    1    3    3    0    0 -0.51545075997E+02 -0.60005112470E+01 -0.31305650819E+02  0.60604916732E+02  0.10566000000E+00 0. -1.
         22    1    1    0    0    0  0.28857528498E+02  0.14919766774E+00  0.52101875713E+01  0.29324482357E+02  0.00000000000E+00 0. -1.
</event>
<event>
 5    1  0.6903325E-004  0.9118800E+02  0.7818608E-02  0.1130116E+00
         25   -1    0    0    0    0  0.00000000000E+00  0.00000000000E+00  0.99999998245E-14  0.12500000000E+03  0.12500000000E+03 0.  0.
        -13    1    3    3    0    0 -0.18392356152E+02  0.16056860617E+02 -0.29064509386E+02  0.37958640750E+02  0.10566000000E+00 0. -1.
         23    2    1    0    0    0  0.27186230538E+02  0.20905942098E+02 -0.32820010483E+01  0.90548279046E+02  0.83738102208E+02 0.  0.
         13    1    3    3    0    0  0.45578586690E+02  0.48490814806E+01  0.25782508338E+02  0.52589638296E+02  0.10566000000E+00 0.  1.
         22    1    1    0    0    0 -0.27186230538E+02 -0.20905942098E+02  0.32820010483E+01  0.34451720954E+02  0.00000000000E+00 0.  1.
</event>
<event>
 5    1  0.6903325E-004  0.9118800E+02  0.7818608E-02  0.1130116E+00
         25   -1    0    0    0    0  0.00000000000E+00  0.00000000000E+00  0.99999998245E-14  0.12500000000E+03  0.12500000000E+03 0.  0.
        -13    1    3    3    0    0  0.60270075370E+01 -0.18956677121E+02  0.35294498598E+02  0.40514111402E+02  0.10566000000E+00 0. -1.
         23    2    1    0    0    0  0.14859149275E+02 -0.77741215821E+01 -0.20737769284E+02  0.98330047649E+02  0.94644133004E+02 0.  0.
         13    1    3    3    0    0  0.88321417384E+01  0.11182555539E+02 -0.56032267882E+02  0.57815936247E+02  0.10566000000E+00 0.  1.
         22    1    1    0    0    0 -0.14859149275E+02  0.77741215821E+01  0.20737769284E+02  0.26669952351E+02  0.00000000000E+00 0.  1.
</event>
<event>
 5    1  0.6903325E-004  0.9118800E+02  0.7818608E-02  0.1130116E+00
         25   -1    0    0    0    0  0.00000000000E+00  0.00000000000E+00  0.99999998245E-14  0.12500000000E+03  0.12500000000E+03 0.  0.
        -13    1    3    3    0    0 -0.13846313675E+02  0.21116009645E+02 -0.21827560101E+02  0.33377534506E+02  0.10566000000E+00 0.  1.
         23    2    1    0    0    0  0.51695740303E+01 -0.26041551210E+02  0.13424160160E+02  0.95249454441E+02  0.90484051690E+02 0.  0.
         13    1    3    3    0    0  0.19015887706E+02 -0.47157560855E+02  0.35251720261E+02  0.61871919934E+02  0.10566000000E+00 0. -1.
         22    1    1    0    0    0 -0.51695740303E+01  0.26041551210E+02 -0.13424160160E+02  0.29750545559E+02  0.00000000000E+00 0. -1.
</event>
<event>
 5    1  0.6903325E-004  0.9118800E+02  0.7818608E-02  0.1130116E+00
         25   -1    0    0    0    0  0.00000000000E+00  0.00000000000E+00  0.99999998245E-14  0.12500000000E+03  0.12500000000E+03 0.  0.
        -13    1    3    3    0    0 -0.35470125907E+02  0.18991560817E+02 -0.20774414364E+02  0.45281305970E+02  0.10566000000E+00 0.  1.
         23    2    1    0    0    0 -0.14235598995E+02 -0.24149892640E+02 -0.13402922213E+02  0.93927376727E+02  0.88638841270E+02 0.  0.
         13    1    3    3    0    0  0.21234526912E+02 -0.43141453456E+02  0.73714921514E+01  0.48646070757E+02  0.10566000000E+00 0. -1.
         22    1    1    0    0    0  0.14235598995E+02  0.24149892640E+02  0.13402922213E+02  0.31072623273E+02  0.00000000000E+00 0. -1.
</event>
<event>
 5    1  0.6903325E-004  0.9118800E+02  0.7818608E-02  0.1130116E+00
         25   -1    0    0    0    0  0.00000000000E+00  0.00000000000E+00  0.99999998245E-14  0.12500000000E+03  0.12500000000E+03 0.  0.
        -13    1    3    3    0    0  0.37654769903E+02 -0.92278847650E+01 -0.11177877768E+02  0.40348378767E+02  0.10566000000E+00 0.  1.
         23    2    1    0    0    0 -0.58902995664E+01  0.16272751885E+02 -0.26733268846E+02  0.93154030929E+02  0.87541462931E+02 0.  0.
         13    1    3    3    0    0 -0.43545069469E+02  0.25500636650E+02 -0.15555391078E+02  0.52805652162E+02  0.10566000000E+00 0. -1.
         22    1    1    0    0    0  0.58902995664E+01 -0.16272751885E+02  0.26733268846E+02  0.31845969071E+02  0.00000000000E+00 0. -1.
</event>
<event>
 5    1  0.6903325E-004  0.9118800E+02  0.7818608E-02  0.1130116E+00
         25   -1    0    0    0    0  0.00000000000E+00  0.00000000000E+00  0.99999998245E-14  0.12500000000E+03  0.12500000000E+03 0.  0.
        -13    1    3    3    0    0  0.41335049357E+02 -0.23039101539E+02 -0.78407035380E+01  0.47967429586E+02  0.10566000000E+00 0.  1.
         23    2    1    0    0    0  0.54351846950E+01  0.74375513506E+01 -0.25209474818E+02  0.98160178403E+02  0.94419513877E+02 0.  0.
         13    1    3    3    0    0 -0.35899864662E+02  0.30476652890E+02 -0.17368771280E+02  0.50192748818E+02  0.10566000000E+00 0. -1.
         22    1    1    0    0    0 -0.54351846950E+01 -0.74375513506E+01  0.25209474818E+02  0.26839821597E+02  0.00000000000E+00 0.  1.
</event>
<event>
 5    1  0.6903325E-004  0.9118800E+02  0.7818608E-02  0.1130116E+00
         25   -1    0    0    0    0  0.00000000000E+00  0.00000000000E+00  0.99999998245E-14  0.12500000000E+03  0.12500000000E+03 0.  0.
        -13    1    3    3    0    0 -0.16088882946E+02  0.14738603955E+02 -0.51061943968E+02  0.55528478160E+02  0.10566000000E+00 0.  1.
         23    2    1    0    0    0  0.80935344997E+01 -0.59494744630E+01 -0.29152307752E+02  0.94165626415E+02  0.88974190661E+02 0.  0.
         13    1    3    3    0    0  0.24182417446E+02 -0.20688078418E+02  0.21909636215E+02  0.38637148255E+02  0.10566000000E+00 0. -1.
         22    1    1    0    0    0 -0.80935344997E+01  0.59494744630E+01  0.29152307752E+02  0.30834373585E+02  0.00000000000E+00 0.  1.
</event>
<event>
 5    1  0.6903325E-004  0.9118800E+02  0.7818608E-02  0.1130116E+00
         25   -1    0    0    0    0  0.00000000000E+00  0.00000000000E+00  0.99999998245E-14  0.12500000000E+03  0.12500000000E+03 0.  0.
        -13    1    3    3    0    0 -0.40612650389E+02 -0.39167259450E+02  0.26304489414E+02  0.62252702044E+02  0.10566000000E+00 0. -1.
         23    2    1    0    0    0 -0.21430890927E+02 -0.15728666459E+02  0.14123813323E+02  0.94897572568E+02  0.89996628504E+02 0.  0.
         13    1    3    3    0    0  0.19181759462E+02  0.23438592991E+02 -0.12180676092E+02  0.32644870524E+02  0.10566000000E+00 0.  1.
         22    1    1    0    0    0  0.21430890927E+02  0.15728666459E+02 -0.14123813323E+02  0.30102427432E+02  0.00000000000E+00 0. -1.
</event>
<event>
 5    1  0.6903325E-004  0.9118800E+02  0.7818608E-02  0.1130116E+00
         25   -1    0    0    0    0  0.00000000000E+00  0.00000000000E+00  0.99999998245E-14  0.12500000000E+03  0.12500000000E+03 0.  0.
        -13    1    3    3    0    0  0.71644460639E+01 -0.36051188348E+02  0.33165550229E+02  0.49507396970E+02  0.10566000000E+00 0.  1.
         23    2    1    0    0    0 -0.37865527258E+01  0.83883094677E+01  0.27951328084E+02  0.95572488061E+02  0.90929214311E+02 0.  0.
         13    1    3    3    0    0 -0.10950998790E+02  0.44439497816E+02 -0.52142221448E+01  0.46065091091E+02  0.10566000000E+00 0. -1.
         22    1    1    0    0    0  0.37865527258E+01 -0.83883094677E+01 -0.27951328084E+02  0.29427511939E+02  0.00000000000E+00 0. -1.
</event>
<event>
 5    1  0.6903325E-004  0.9118800E+02  0.7818608E-02  0.1130116E+00
         25   -1    0    0    0    0  0.00000000000E+00  0.00000000000E+00  0.99999998245E-14  0.12500000000E+03  0.12500000000E+03 0.  0.
        -13    1    3    3    0    0 -0.10482548969E+02 -0.17339896608E+02  0.46080412421E+02  0.50338567920E+02  0.10566000000E+00 0. -1.
         23    2    1    0    0    0 -0.29782404558E+01 -0.29889236328E+02  0.42344155303E+01  0.94665751379E+02  0.89674064505E+02 0.  0.
         13    1    3    3    0    0  0.75043085136E+01 -0.12549339720E+02 -0.41845996891E+02  0.44327183460E+02  0.10566000000E+00 0.  1.
         22    1    1    0    0    0  0.29782404558E+01  0.29889236328E+02 -0.42344155303E+01  0.30334248621E+02  0.00000000000E+00 0. -1.
</event>
<event>
 5    1  0.6903325E-004  0.9118800E+02  0.7818608E-02  0.1130116E+00
         25   -1    0    0    0    0  0.00000000000E+00  0.00000000000E+00  0.99999998245E-14  0.12500000000E+03  0.12500000000E+03 0.  0.
        -13    1    3    3    0    0 -0.29398096734E+02  0.41613748806E+02 -0.34825235646E+02  0.61715155215E+02  0.10566000000E+00 0. -1.
         23    2    1    0    0    0 -0.17712357286E+02  0.13806271256E+02 -0.17738935489E+02  0.96381639479E+02  0.92034829656E+02 0.  0.
         13    1    3    3    0    0  0.11685739449E+02 -0.27807477550E+02  0.17086300157E+02  0.34666484265E+02  0.10566000000E+00 0.  1.
         22    1    1    0    0    0  0.17712357286E+02 -0.13806271256E+02  0.17738935489E+02  0.28618360521E+02  0.00000000000E+00 0. -1.
</event>
<event>
 5    1  0.6903325E-004  0.9118800E+02  0.7818608E-02  0.1130116E+00
         25   -1    0    0    0    0  0.00000000000E+00  0.00000000000E+00  0.99999998245E-14  0.12500000000E+03  0.12500000000E+03 0.  0.
        -13    1    3    3    0    0 -0.18534572632E+02  0.25340872370E+02 -0.46374284227E+02  0.56002460631E+02  0.10566000000E+00 0.  1.
         23    2    1    0    0    0 -0.14732867876E+02  0.24794684971E+02 -0.73216454135E+01  0.95243651262E+02  0.90476034481E+02 0.  0.
         13    1    3    3    0    0  0.38017047557E+01 -0.54618739885E+00  0.39052638814E+02  0.39241190630E+02  0.10566000000E+00 0. -1.
         22    1    1    0    0    0  0.14732867876E+02 -0.24794684971E+02  0.73216454135E+01  0.29756348738E+02  0.00000000000E+00 0.  1.
</event>
<event>
 5    1  0.6903325E-004  0.9118800E+02  0.7818608E-02  0.1130116E+00
         25   -1    0    0    0    0  0.00000000000E+00  0.00000000000E+00  0.99999998245E-14  0.12500000000E+03  0.12500000000E+03 0.  0.
        -13    1    3    3    0    0  0.11381477278E+02  0.34188141913E+02  0.34883180972E+02  0.50151914732E+02  0.10566000000E+00 0.  1.
         23    2    1    0    0    0  0.24183065168E+02  0.15353122326E+02 -0.48482956233E+01  0.95947547840E+02  0.91443353831E+02 0.  0.
         13    1    3    3    0    0  0.12801587889E+02 -0.18835019587E+02 -0.39731476595E+02  0.45795633108E+02  0.10566000000E+00 0. -1.
         22    1    1    0    0    0 -0.24183065168E+02 -0.15353122326E+02  0.48482956233E+01  0.29052452160E+02  0.00000000000E+00 0.  1.
</event>
<event>
 5    1  0.6903325E-004  0.9118800E+02  0.7818608E-02  0.1130116E+00
         25   -1    0    0    0    0  0.00000000000E+00  0.00000000000E+00  0.99999998245E-14  0.12500000000E+03  0.12500000000E+03 0.  0.
        -13    1    3    3    0    0  0.14672239462E+02 -0.41044935175E+02  0.42298223684E+02  0.60738062244E+02  0.10566000000E+00 0.  1.
         23    2    1    0    0    0  0.12075503706E+02 -0.24159937038E+02  0.12164858626E+02  0.95377303755E+02  0.90660498227E+02 0.  0.
         13    1    3    3    0    0 -0.25967357566E+01  0.16884998137E+02 -0.30133365058E+02  0.34639241511E+02  0.10566000000E+00 0. -1.
         22    1    1    0    0    0 -0.12075503706E+02  0.24159937038E+02 -0.12164858626E+02  0.29622696245E+02  0.00000000000E+00 0.  1.
</event>
<event>
 5    1  0.6903325E-004  0.9118800E+02  0.7818608E-02  0.1130116E+00
         25   -1    0    0    0    0  0.00000000000E+00  0.00000000000E+00  0.99999998245E-14  0.12500000000E+03  0.12500000000E+03 0.  0.
        -13    1    3    3    0    0  0.36333839744E+02  0.26520931762E+02 -0.14960074770E+02  0.47405935633E+02  0.10566000000E+00 0.  1.
         23    2    1    0    0    0  0.25956341967E+02 -0.93662114604E+01  0.13414521099E+02  0.94317643804E+02  0.89187504456E+02 0.  0.
         13    1    3    3    0    0 -0.10377497778E+02 -0.35887143222E+02  0.28374595870E+02  0.46911708171E+02  0.10566000000E+00 0. -1.
         22    1    1    0    0    0 -0.25956341967E+02  0.93662114604E+01 -0.13414521099E+02  0.30682356196E+02  0.00000000000E+00 0.  1.
</event>
<event>
 5    1  0.6903325E-004  0.9118800E+02  0.7818608E-02  0.1130116E+00
         25   -1    0    0    0    0  0.00000000000E+00  0.00000000000E+00  0.99999998245E-14  0.12500000000E+03  0.12500000000E+03 0.  0.
        -13    1    3    3    0    0  0.33837845545E+02  0.44364749842E+02  0.67810237995E+01  0.56206977035E+02  0.10566000000E+00 0.  1.
         23    2    1    0    0    0  0.41132902140E+01  0.25945936509E+02 -0.12244792933E+02  0.96016457572E+02  0.91537502659E+02 0.  0.
         13    1    3    3    0    0 -0.29724555331E+02 -0.18418813333E+02 -0.19025816733E+02  0.39809480537E+02  0.10566000000E+00 0. -1.
         22    1    1    0    0    0 -0.41132902140E+01 -0.25945936509E+02  0.12244792933E+02  0.28983542428E+02  0.00000000000E+00 0. -1.
</event>
<event>
 5    1  0.6903325E-004  0.9118800E+02  0.7818608E-02  0.1130116E+00
         25   -1    0    0    0    0  0.00000000000E+00  0.00000000000E+00  0.99999998245E-14  0.12500000000E+03  0.12500000000E+03 0.  0.
        -13    1    3    3    0    0 -0.51033122863E+02 -0.30243927693E+02  0.11198760515E+02  0.60369679414E+02  0.10566000000E+00 0. -1.
         23    2    1    0    0    0 -0.17592304028E+02 -0.17810490550E+02  0.14279025918E+02  0.96179984112E+02  0.91760536332E+02 0.  0.
         13    1    3    3    0    0  0.33440818835E+02  0.12433437144E+02  0.30802654035E+01  0.35810304698E+02  0.10566000000E+00 0.  1.
         22    1    1    0    0    0  0.17592304028E+02  0.17810490550E+02 -0.14279025918E+02  0.28820015888E+02  0.00000000000E+00 0. -1.
</event>
<event>
 5    1  0.6903325E-004  0.9118800E+02  0.7818608E-02  0.1130116E+00
         25   -1    0    0    0    0  0.00000000000E+00  0.00000000000E+00  0.99999998245E-14  0.12500000000E+03  0.12500000000E+03 0.  0.
        -13    1    3    3    0    0 -0.14109732279E+02  0.32736759029E+02  0.34866113276E+02  0.49864185101E+02  0.10566000000E+00 0. -1.
         23    2    1    0    0    0 -0.23284608926E+02 -0.32470231632E+00 -0.36303091775E+01  0.10143185223E+03  0.98655780664E+02 0.  0.
         13    1    3    3    0    0 -0.91748766467E+01 -0.33061461346E+02 -0.38496422454E+02  0.51567667133E+02  0.10566000000E+00 0.  1.
         22    1    1    0    0    0  0.23284608926E+02  0.32470231632E+00  0.36303091775E+01  0.23568147766E+02  0.00000000000E+00 0.  1.
</event>
<event>
 5    1  0.6903325E-004  0.9118800E+02  0.7818608E-02  0.1130116E+00
         25   -1    0    0    0    0  0.00000000000E+00  0.00000000000E+00  0.99999998245E-14  0.12500000000E+03  0.12500000000E+03 0.  0.
        -13    1    3    3    0    0  0.41888896950E+02  0.41809656061E+02 -0.11716489815E+02  0.60332531235E+02  0.10566000000E+00 0.  1.
         23    2    1    0    0    0  0.19319850032E+02  0.15540162949E+02 -0.16387886336E+02  0.95279365951E+02  0.90525363781E+02 0.  0.
         13    1    3    3    0    0 -0.22569046918E+02 -0.26269493112E+02 -0.46713965212E+01  0.34946834716E+02  0.10566000000E+00 0. -1.
         22    1    1    0    0    0 -0.19319850032E+02 -0.15540162949E+02  0.16387886336E+02  0.29720634049E+02  0.00000000000E+00 0.  1.
</event>
<event>
 5    1  0.6903325E-004  0.9118800E+02  0.7818608E-02  0.1130116E+00
         25   -1    0    0    0    0  0.00000000000E+00  0.00000000000E+00  0.99999998245E-14  0.12500000000E+03  0.12500000000E+03 0.  0.
        -13    1    3    3    0    0 -0.59575208182E+01  0.45809998329E+01  0.35597123968E+02  0.36381918760E+02  0.10566000000E+00 0.  1.
         23    2    1    0    0    0 -0.41461719021E+01  0.12318490077E+02 -0.24640531629E+02  0.97141576890E+02  0.93061239098E+02 0.  0.
         13    1    3    3    0    0  0.18113489160E+01  0.77374902445E+01 -0.60237655597E+02  0.60759658130E+02  0.10566000000E+00 0. -1.
         22    1    1    0    0    0  0.41461719021E+01 -0.12318490077E+02  0.24640531629E+02  0.27858423110E+02  0.00000000000E+00 0. -1.
</event>
<event>
 5    1  0.6903325E-004  0.9118800E+02  0.7818608E-02  0.1130116E+00
         25   -1    0    0    0    0  0.00000000000E+00  0.00000000000E+00  0.99999998245E-14  0.12500000000E+03  0.12500000000E+03 0.  0.
        -13    1    3    3    0    0 -0.45983373836E+01 -0.20964518664E+02 -0.44207450536E+02  0.49142299463E+02  0.10566000000E+00 0.  1.
         23    2    1    0    0    0 -0.24609215479E+02 -0.23744554138E+02 -0.91571416175E+01  0.89598438166E+02  0.82308016264E+02 0.  0.
         13    1    3    3    0    0 -0.20010878095E+02 -0.27800354738E+01  0.35050308919E+02  0.40456138703E+02  0.10566000000E+00 0. -1.
         22    1    1    0    0    0  0.24609215479E+02  0.23744554138E+02  0.91571416175E+01  0.35401561834E+02  0.00000000000E+00 0.  1.
</event>
<event>
 5    1  0.6903325E-004  0.9118800E+02  0.7818608E-02  0.1130116E+00
         25   -1    0    0    0    0  0.00000000000E+00  0.00000000000E+00  0.99999998245E-14  0.12500000000E+03  0.12500000000E+03 0.  0.
        -13    1    3    3    0    0  0.10192891675E+02 -0.45815342249E+02  0.37085956504E+02  0.59819060173E+02  0.10566000000E+00 0.  1.
         23    2    1    0    0    0 -0.82167387700E+01 -0.22044165675E+02  0.15659582601E+02  0.96739027554E+02  0.92518954213E+02 0.  0.
         13    1    3    3    0    0 -0.18409630445E+02  0.23771176574E+02 -0.21426373902E+02  0.36919967382E+02  0.10566000000E+00 0. -1.
         22    1    1    0    0    0  0.82167387700E+01  0.22044165675E+02 -0.15659582601E+02  0.28260972446E+02  0.00000000000E+00 0.  1.
</event>
<event>
 5    1  0.6903325E-004  0.9118800E+02  0.7818608E-02  0.1130116E+00
         25   -1    0    0    0    0  0.00000000000E+00  0.00000000000E+00  0.99999998245E-14  0.12500000000E+03  0.12500000000E+03 0.  0.
        -13    1    3    3    0    0 -0.43783134115E-01  0.36162118559E+02  0.99459479926E+01  0.37505116733E+02  0.10566000000E+00 0. -1.
         23    2    1    0    0    0  0.27943642254E+02 -0.11852537541E+02 -0.27794654892E+01  0.94519592900E+02  0.89470096820E+02 0.  0.
         13    1    3    3    0    0  0.27987425388E+02 -0.48014656100E+02 -0.12725413482E+02  0.57014476167E+02  0.10566000000E+00 0.  1.
         22    1    1    0    0    0 -0.27943642254E+02  0.11852537541E+02  0.27794654892E+01  0.30480407100E+02  0.00000000000E+00 0.  1.
</event>
<event>
 5    1  0.6903325E-004  0.9118800E+02  0.7818608E-02  0.1130116E+00
         25   -1    0    0    0    0  0.00000000000E+00  0.00000000000E+00  0.99999998245E-14  0.12500000000E+03  0.12500000000E+03 0.  0.
        -13    1    3    3    0    0 -0.12549123889E+02 -0.14947126596E+02  0.34296975647E+02  0.39461257031E+02  0.10566000000E+00 0. -1.
         23    2    1    0    0    0  0.19687979453E+02 -0.17379819901E+02 -0.12159818587E+02  0.96059788135E+02  0.91596654054E+02 0.  0.
         13    1    3    3    0    0  0.32237103342E+02 -0.24326933049E+01 -0.46456794235E+02  0.56598531104E+02  0.10566000000E+00 0.  1.
         22    1    1    0    0    0 -0.19687979453E+02  0.17379819901E+02  0.12159818587E+02  0.28940211865E+02  0.00000000000E+00 0.  1.
</event>
<event>
 5    1  0.6903325E-004  0.9118800E+02  0.7818608E-02  0.1130116E+00
         25   -1    0    0    0    0  0.00000000000E+00  0.00000000000E+00  0.99999998245E-14  0.12500000000E+03  0.12500000000E+03 0.  0.
        -13    1    3    3    0    0 -0.50310784471E+02 -0.12551966883E+02 -0.40561356970E+01  0.52011444005E+02  0.10566000000E+00 0. -1.
         23    2    1    0    0    0 -0.23734372320E+02  0.19861580458E+02 -0.10867453406E+01  0.94032536056E+02  0.88787014895E+02 0.  0.
         13    1    3    3    0    0  0.26576412151E+02  0.32413547340E+02  0.29693903564E+01  0.42021092051E+02  0.10566000000E+00 0.  1.
         22    1    1    0    0    0  0.23734372320E+02 -0.19861580458E+02  0.10867453406E+01  0.30967463944E+02  0.00000000000E+00 0.  1.
</event>
<event>
 5    1  0.6903325E-004  0.9118800E+02  0.7818608E-02  0.1130116E+00
         25   -1    0    0    0    0  0.00000000000E+00  0.00000000000E+00  0.99999998245E-14  0.12500000000E+03  0.12500000000E+03 0.  0.
        -13    1    3    3    0    0  0.35043948869E+02 -0.24628263789E+02  0.95630781514E+01  0.43887280132E+02  0.10566000000E+00 0.  1.
         23    2    1    0    0    0  0.11185962301E+02  0.23591919866E+02  0.79343769768E+01  0.97711563373E+02  0.93823722177E+02 0.  0.
         13    1    3    3    0    0 -0.23857986568E+02  0.48220183655E+02 -0.16287011746E+01  0.53824283241E+02  0.10566000000E+00 0. -1.
         22    1    1    0    0    0 -0.11185962301E+02 -0.23591919866E+02 -0.79343769768E+01  0.27288436627E+02  0.00000000000E+00 0. -1.
</event>
<event>
 5    1  0.6903325E-004  0.9118800E+02  0.7818608E-02  0.1130116E+00
         25   -1    0    0    0    0  0.00000000000E+00  0.00000000000E+00  0.99999998245E-14  0.12500000000E+03  0.12500000000E+03 0.  0.
        -13    1    3    3    0    0 -0.12766697733E+02  0.39575516141E+02 -0.27247325045E+01  0.41673077401E+02  0.10566000000E+00 0.  1.
         23    2    1    0    0    0 -0.21650788360E+01 -0.21595009870E+01  0.29428132787E+02  0.95413415029E+02  0.90710273714E+02 0.  0.
         13    1    3    3    0    0  0.10601618897E+02 -0.41735017128E+02  0.32152865292E+02  0.53740337628E+02  0.10566000000E+00 0. -1.
         22    1    1    0    0    0  0.21650788360E+01  0.21595009870E+01 -0.29428132787E+02  0.29586584971E+02  0.00000000000E+00 0. -1.
</event>
<event>
 5    1  0.6903325E-004  0.9118800E+02  0.7818608E-02  0.1130116E+00
         25   -1    0    0    0    0  0.00000000000E+00  0.00000000000E+00  0.99999998245E-14  0.12500000000E+03  0.12500000000E+03 0.  0.
        -13    1    3    3    0    0  0.44790752674E+02  0.18165020874E+02  0.53220514125E+01  0.48626277914E+02  0.10566000000E+00 0. -1.
         23    2    1    0    0    0  0.16923021041E+02 -0.18431684871E+02  0.15266382000E+02  0.95688260582E+02  0.91088227261E+02 0.  0.
         13    1    3    3    0    0 -0.27867731634E+02 -0.36596705745E+02  0.99443305871E+01  0.47061982668E+02  0.10566000000E+00 0.  1.
         22    1    1    0    0    0 -0.16923021041E+02  0.18431684871E+02 -0.15266382000E+02  0.29311739418E+02  0.00000000000E+00 0.  1.
</event>
<event>
 5    1  0.6903325E-004  0.9118800E+02  0.7818608E-02  0.1130116E+00
         25   -1    0    0    0    0  0.00000000000E+00  0.00000000000E+00  0.99999998245E-14  0.12500000000E+03  0.12500000000E+03 0.  0.
        -13    1    3    3    0    0 -0.87061413941E+01  0.51423506334E+02 -0.32438310591E+02  0.61420103058E+02  0.10566000000E+00 0. -1.
         23    2    1    0    0    0 -0.48935284852E+01  0.18238614672E+02 -0.21072904036E+02  0.96704046743E+02  0.92471680453E+02 0.  0.
         13    1    3    3    0    0  0.38126129089E+01 -0.33184891661E+02  0.11365406555E+02  0.35283943685E+02  0.10566000000E+00 0.  1.
         22    1    1    0    0    0  0.48935284852E+01 -0.18238614672E+02  0.21072904036E+02  0.28295953257E+02  0.00000000000E+00 0. -1.
</event>
<event>
 5    1  0.6903325E-004  0.9118800E+02  0.7818608E-02  0.1130116E+00
         25   -1    0    0    0    0  0.00000000000E+00  0.00000000000E+00  0.99999998245E-14  0.12500000000E+03  0.12500000000E+03 0.  0.
        -13    1    3    3    0    0  0.22475065369E+02  0.31371356311E+02  0.33598200831E+02  0.51167771333E+02  0.10566000000E+00 0.  1.
         23    2    1    0    0    0  0.50313969589E+01 -0.10536100928E+02  0.25055417914E+02  0.97357671137E+02  0.93351045972E+02 0.  0.
         13    1    3    3    0    0 -0.17443668410E+02 -0.41907457239E+02 -0.85427829162E+01  0.46189899803E+02  0.10566000000E+00 0. -1.
         22    1    1    0    0    0 -0.50313969589E+01  0.10536100928E+02 -0.25055417914E+02  0.27642328863E+02  0.00000000000E+00 0.  1.
</event>
<event>
 5    1  0.6903325E-004  0.9118800E+02  0.7818608E-02  0.1130116E+00
         25   -1    0    0    0    0  0.00000000000E+00  0.00000000000E+00  0.99999998245E-14  0.12500000000E+03  0.12500000000E+03 0.  0.
        -13    1    3    3    0    0 -0.41962931971E+02 -0.31968290134E+02  0.28819621473E+02  0.60111903809E+02  0.10566000000E+00 0.  1.
         23    2    1    0    0    0 -0.24264545581E+02 -0.15271980223E+02  0.20957904317E+01  0.96252932502E+02  0.91859855898E+02 0.  0.
         13    1    3    3    0    0  0.17698386390E+02  0.16696309911E+02 -0.26723831041E+02  0.36141028693E+02  0.10566000000E+00 0. -1.
         22    1    1    0    0    0  0.24264545581E+02  0.15271980223E+02 -0.20957904317E+01  0.28747067498E+02  0.00000000000E+00 0.  1.
</event>
<event>
 5    1  0.6903325E-004  0.9118800E+02  0.7818608E-02  0.1130116E+00
         25   -1    0    0    0    0  0.00000000000E+00  0.00000000000E+00  0.99999998245E-14  0.12500000000E+03  0.12500000000E+03 0.  0.
        -13    1    3    3    0    0  0.41572714578E+02  0.24253675228E+01  0.14984332762E+02  0.44257365459E+02  0.10566000000E+00 0.  1.
         23    2    1    0    0    0 -0.42401132573E+01  0.26720653295E+02  0.91436869807E+01  0.96441658232E+02  0.92116309945E+02 0.  0.
         13    1    3    3    0    0 -0.45812827835E+02  0.24295285772E+02 -0.58406457817E+01  0.52184292773E+02  0.10566000000E+00 0. -1.
         22    1    1    0    0    0  0.42401132573E+01 -0.26720653295E+02 -0.91436869807E+01  0.28558341768E+02  0.00000000000E+00 0. -1.
</event>
<event>
 5    1  0.6903325E-004  0.9118800E+02  0.7818608E-02  0.1130116E+00
         25   -1    0    0    0    0  0.00000000000E+00  0.00000000000E+00  0.99999998245E-14  0.12500000000E+03  0.12500000000E+03 0.  0.
        -13    1    3    3    0    0 -0.20347566144E+02 -0.35524801454E+02  0.12960295831E+02  0.42942000400E+02  0.10566000000E+00 0. -1.
         23    2    1    0    0    0  0.17283521382E+02 -0.15183350072E+02 -0.18034867393E+02  0.95767985484E+02  0.91197567790E+02 0.  0.
         13    1    3    3    0    0  0.37631087526E+02  0.20341451382E+02 -0.30995163224E+02  0.52825985083E+02  0.10566000000E+00 0.  1.
         22    1    1    0    0    0 -0.17283521382E+02  0.15183350072E+02  0.18034867393E+02  0.29232014516E+02  0.00000000000E+00 0.  1.
</event>
<event>
 4    1  0.6903325E-004  0.9118800E+02  0.7818608E-02  0.1130116E+00
         25   -1    0    0    0    0  0.00000000000E+00  0.00000000000E+00  0.99999998245E-14  0.12500000000E+03  0.12500000000E+03 0.  0.
        -13    1    1    0    0    0 -0.52827637347E+02  0.44805958571E+01 -0.23210485346E+02  0.57875493958E+02  0.10566000000E+00 0. -1.
         13    1    1    0    0    0 -0.32175147275E+00  0.80604915910E+01  0.84020082467E+00  0.81112360439E+01  0.10566000000E+00 0.  1.
         22    1    1    0    0    0  0.53149388819E+02 -0.12541087448E+02  0.22370284522E+02  0.59013269998E+02  0.00000000000E+00 0. -1.
</event>
<event>
 5    1  0.6903325E-004  0.9118800E+02  0.7818608E-02  0.1130116E+00
         25   -1    0    0    0    0  0.00000000000E+00  0.00000000000E+00  0.99999998245E-14  0.12500000000E+03  0.12500000000E+03 0.  0.
        -13    1    3    3    0    0 -0.10770656351E+01  0.27229840819E+02  0.22264465166E+02  0.35190082048E+02  0.10566000000E+00 0. -1.
         23    2    1    0    0    0 -0.19587527831E+02 -0.94959697683E+01 -0.20908722886E+02  0.94816902394E+02  0.89884512562E+02 0.  0.
         13    1    3    3    0    0 -0.18510462195E+02 -0.36725810587E+02 -0.43173188052E+02  0.59626820346E+02  0.10566000000E+00 0.  1.
         22    1    1    0    0    0  0.19587527831E+02  0.94959697683E+01  0.20908722886E+02  0.30183097606E+02  0.00000000000E+00 0.  1.
</event>
<event>
 5    1  0.6903325E-004  0.9118800E+02  0.7818608E-02  0.1130116E+00
         25   -1    0    0    0    0  0.00000000000E+00  0.00000000000E+00  0.99999998245E-14  0.12500000000E+03  0.12500000000E+03 0.  0.
        -13    1    3    3    0    0  0.12283396669E+02 -0.12262932850E+02 -0.30701641632E+02  0.35268446503E+02  0.10566000000E+00 0.  1.
         23    2    1    0    0    0 -0.33415412485E+02 -0.76138822804E+01  0.37161320673E+00  0.90726116483E+02  0.84003149470E+02 0.  0.
         13    1    3    3    0    0 -0.45698809154E+02  0.46490505699E+01  0.31073254839E+02  0.55457669980E+02  0.10566000000E+00 0. -1.
         22    1    1    0    0    0  0.33415412485E+02  0.76138822804E+01 -0.37161320673E+00  0.34273883517E+02  0.00000000000E+00 0. -1.
</event>
<event>
 5    1  0.6903325E-004  0.9118800E+02  0.7818608E-02  0.1130116E+00
         25   -1    0    0    0    0  0.00000000000E+00  0.00000000000E+00  0.99999998245E-14  0.12500000000E+03  0.12500000000E+03 0.  0.
        -13    1    3    3    0    0 -0.98863368152E+01  0.32104402768E+02 -0.49348063857E+02  0.59696523376E+02  0.10566000000E+00 0.  1.
         23    2    1    0    0    0 -0.11549443593E+02  0.37316521416E+01 -0.25348334516E+02  0.96895677597E+02  0.92730358563E+02 0.  0.
         13    1    3    3    0    0 -0.16631067778E+01 -0.28372750626E+02  0.23999729342E+02  0.37199154221E+02  0.10566000000E+00 0. -1.
         22    1    1    0    0    0  0.11549443593E+02 -0.37316521416E+01  0.25348334516E+02  0.28104322403E+02  0.00000000000E+00 0.  1.
</event>
<event>
 5    1  0.6903325E-004  0.9118800E+02  0.7818608E-02  0.1130116E+00
         25   -1    0    0    0    0  0.00000000000E+00  0.00000000000E+00  0.99999998245E-14  0.12500000000E+03  0.12500000000E+03 0.  0.
        -13    1    3    3    0    0  0.16453687680E+02 -0.11404057022E+02  0.51146471879E+02  0.54924940642E+02  0.10566000000E+00 0.  1.
         23    2    1    0    0    0 -0.37901683085E+01  0.12614958829E+02  0.28355852201E+02  0.93734093390E+02  0.88365849442E+02 0.  0.
         13    1    3    3    0    0 -0.20243855988E+02  0.24019015851E+02 -0.22790619678E+02  0.38809152748E+02  0.10566000000E+00 0. -1.
         22    1    1    0    0    0  0.37901683085E+01 -0.12614958829E+02 -0.28355852201E+02  0.31265906610E+02  0.00000000000E+00 0.  1.
</event>
<event>
 5    1  0.6903325E-004  0.9118800E+02  0.7818608E-02  0.1130116E+00
         25   -1    0    0    0    0  0.00000000000E+00  0.00000000000E+00  0.99999998245E-14  0.12500000000E+03  0.12500000000E+03 0.  0.
        -13    1    3    3    0    0  0.12055417044E+02 -0.37406123771E+02  0.57579405905E+01  0.39720476074E+02  0.10566000000E+00 0. -1.
         23    2    1    0    0    0  0.23433323702E+01  0.14218745326E+02  0.25394784954E+02  0.95801386538E+02  0.91243337480E+02 0.  0.
         13    1    3    3    0    0 -0.97120846739E+01  0.51624869096E+02  0.19636844363E+02  0.56080910464E+02  0.10566000000E+00 0.  1.
         22    1    1    0    0    0 -0.23433323702E+01 -0.14218745326E+02 -0.25394784954E+02  0.29198613462E+02  0.00000000000E+00 0.  1.
</event>
<event>
 5    1  0.6903325E-004  0.9118800E+02  0.7818608E-02  0.1130116E+00
         25   -1    0    0    0    0  0.00000000000E+00  0.00000000000E+00  0.99999998245E-14  0.12500000000E+03  0.12500000000E+03 0.  0.
        -13    1    3    3    0    0  0.12957009838E+02 -0.51667833411E+02 -0.12431676663E+01  0.53282321113E+02  0.10566000000E+00 0.  1.
         23    2    1    0    0    0  0.26754158688E+02 -0.13924320576E+02 -0.74181888074E+01  0.93940360018E+02  0.88657148638E+02 0.  0.
         13    1    3    3    0    0  0.13797148850E+02  0.37743512835E+02 -0.61750211411E+01  0.40658038905E+02  0.10566000000E+00 0. -1.
         22    1    1    0    0    0 -0.26754158688E+02  0.13924320576E+02  0.74181888074E+01  0.31059639982E+02  0.00000000000E+00 0.  1.
</event>
<event>
 5    1  0.6903325E-004  0.9118800E+02  0.7818608E-02  0.1130116E+00
         25   -1    0    0    0    0  0.00000000000E+00  0.00000000000E+00  0.99999998245E-14  0.12500000000E+03  0.12500000000E+03 0.  0.
        -13    1    3    3    0    0 -0.87705945560E+01  0.35675661070E+02 -0.29330561632E+02  0.47010308777E+02  0.10566000000E+00 0.  1.
         23    2    1    0    0    0  0.25858246100E+02  0.17365272685E+02 -0.41518507873E+01  0.93576450682E+02  0.88142570137E+02 0.  0.
         13    1    3    3    0    0  0.34628840656E+02 -0.18310388385E+02  0.25178710845E+02  0.46566141904E+02  0.10566000000E+00 0. -1.
         22    1    1    0    0    0 -0.25858246100E+02 -0.17365272685E+02  0.41518507873E+01  0.31423549318E+02  0.00000000000E+00 0.  1.
</event>
<event>
 5    1  0.6903325E-004  0.9118800E+02  0.7818608E-02  0.1130116E+00
         25   -1    0    0    0    0  0.00000000000E+00  0.00000000000E+00  0.99999998245E-14  0.12500000000E+03  0.12500000000E+03 0.  0.
        -13    1    3    3    0    0  0.37509237688E+02 -0.20230094268E+02  0.24802423712E+01  0.42689136701E+02  0.10566000000E+00 0.  1.
         23    2    1    0    0    0 -0.11804465492E+01  0.21416318182E+02  0.12147669565E+02  0.10035009099E+03  0.97275499209E+02 0.  0.
         13    1    3    3    0    0 -0.38689684237E+02  0.41646412451E+02  0.96674271941E+01  0.57660954284E+02  0.10566000000E+00 0. -1.
         22    1    1    0    0    0  0.11804465492E+01 -0.21416318182E+02 -0.12147669565E+02  0.24649909014E+02  0.00000000000E+00 0. -1.
</event>
<event>
 5    1  0.6903325E-004  0.9118800E+02  0.7818608E-02  0.1130116E+00
         25   -1    0    0    0    0  0.00000000000E+00  0.00000000000E+00  0.99999998245E-14  0.12500000000E+03  0.12500000000E+03 0.  0.
        -13    1    3    3    0    0  0.67190655883E+01 -0.66287820226E+01 -0.52097008907E+02  0.52945217863E+02  0.10566000000E+00 0.  1.
         23    2    1    0    0    0 -0.20514726076E+02  0.32872321942E+01 -0.20801348727E+02  0.95600068192E+02  0.90967120697E+02 0.  0.
         13    1    3    3    0    0 -0.27233791664E+02  0.99160142169E+01  0.31295660180E+02  0.42654850328E+02  0.10566000000E+00 0. -1.
         22    1    1    0    0    0  0.20514726076E+02 -0.32872321942E+01  0.20801348727E+02  0.29399931808E+02  0.00000000000E+00 0.  1.
</event>
<event>
 5    1  0.6903325E-004  0.9118800E+02  0.7818608E-02  0.1130116E+00
         25   -1    0    0    0    0  0.00000000000E+00  0.00000000000E+00  0.99999998245E-14  0.12500000000E+03  0.12500000000E+03 0.  0.
        -13    1    3    3    0    0  0.38081870287E+02 -0.45408120719E+02 -0.73081788662E+01  0.59712200715E+02  0.10566000000E+00 0. -1.
         23    2    1    0    0    0  0.12619215677E+02 -0.22677921458E+02 -0.15442671547E+02  0.94800516056E+02  0.89861721629E+02 0.  0.
         13    1    3    3    0    0 -0.25462654611E+02  0.22730199261E+02 -0.81344926810E+01  0.35088315341E+02  0.10566000000E+00 0.  1.
         22    1    1    0    0    0 -0.12619215677E+02  0.22677921458E+02  0.15442671547E+02  0.30199483944E+02  0.00000000000E+00 0. -1.
</event>
<event>
 5    1  0.6903325E-004  0.9118800E+02  0.7818608E-02  0.1130116E+00
         25   -1    0    0    0    0  0.00000000000E+00  0.00000000000E+00  0.99999998245E-14  0.12500000000E+03  0.12500000000E+03 0.  0.
        -13    1    3    3    0    0 -0.41750646577E+02  0.30012615773E+02  0.76998423402E-01  0.51418777581E+02  0.10566000000E+00 0.  1.
         23    2    1    0    0    0  0.81661298067E+00  0.27457263798E+02 -0.10890437821E+02  0.95450552832E+02  0.90761435687E+02 0.  0.
         13    1    3    3    0    0  0.42567259557E+02 -0.25553519756E+01 -0.10967436245E+02  0.44031775251E+02  0.10566000000E+00 0. -1.
         22    1    1    0    0    0 -0.81661298067E+00 -0.27457263798E+02  0.10890437821E+02  0.29549447168E+02  0.00000000000E+00 0. -1.
</event>
<event>
 5    1  0.6903325E-004  0.9118800E+02  0.7818608E-02  0.1130116E+00
         25   -1    0    0    0    0  0.00000000000E+00  0.00000000000E+00  0.99999998245E-14  0.12500000000E+03  0.12500000000E+03 0.  0.
        -13    1    3    3    0    0  0.38205380848E+02  0.64968186593E+01  0.32086311636E+02  0.50313043406E+02  0.10566000000E+00 0. -1.
         23    2    1    0    0    0 -0.61424867679E+01  0.26739096339E-01  0.29131636370E+02  0.95227813378E+02  0.90454150509E+02 0.  0.
         13    1    3    3    0    0 -0.44347867616E+02 -0.64700795630E+01 -0.29546752653E+01  0.44914769971E+02  0.10566000000E+00 0.  1.
         22    1    1    0    0    0  0.61424867679E+01 -0.26739096339E-01 -0.29131636370E+02  0.29772186622E+02  0.00000000000E+00 0. -1.
</event>
<event>
 5    1  0.6903325E-004  0.9118800E+02  0.7818608E-02  0.1130116E+00
         25   -1    0    0    0    0  0.00000000000E+00  0.00000000000E+00  0.99999998245E-14  0.12500000000E+03  0.12500000000E+03 0.  0.
        -13    1    3    3    0    0 -0.15816757558E+02  0.42551152083E+02 -0.64364130117E+01  0.45849852123E+02  0.10566000000E+00 0.  1.
         23    2    1    0    0    0  0.19623692149E+02  0.83275796264E+01 -0.18724505805E+02  0.96626685184E+02  0.92367046591E+02 0.  0.
         13    1    3    3    0    0  0.35440449708E+02 -0.34223572456E+02 -0.12288092793E+02  0.50776833061E+02  0.10566000000E+00 0. -1.
         22    1    1    0    0    0 -0.19623692149E+02 -0.83275796264E+01  0.18724505805E+02  0.28373314816E+02  0.00000000000E+00 0.  1.
</event>
<event>
 5    1  0.6903325E-004  0.9118800E+02  0.7818608E-02  0.1130116E+00
         25   -1    0    0    0    0  0.00000000000E+00  0.00000000000E+00  0.99999998245E-14  0.12500000000E+03  0.12500000000E+03 0.  0.
        -13    1    3    3    0    0 -0.18145652338E+02 -0.24363124575E+02 -0.22734002096E+02  0.37943017185E+02  0.10566000000E+00 0.  1.
         23    2    1    0    0    0  0.26414748220E+02 -0.19723144299E+02  0.64468775978E+01  0.91409769645E+02  0.85014365911E+02 0.  0.
         13    1    3    3    0    0  0.44560400558E+02  0.46399802753E+01  0.29180879693E+02  0.53466752459E+02  0.10566000000E+00 0. -1.
         22    1    1    0    0    0 -0.26414748220E+02  0.19723144299E+02 -0.64468775978E+01  0.33590230355E+02  0.00000000000E+00 0. -1.
</event>
<event>
 5    1  0.6903325E-004  0.9118800E+02  0.7818608E-02  0.1130116E+00
         25   -1    0    0    0    0  0.00000000000E+00  0.00000000000E+00  0.99999998245E-14  0.12500000000E+03  0.12500000000E+03 0.  0.
        -13    1    3    3    0    0  0.66231289942E+01  0.32122319856E+02  0.84720270122E+01  0.33874705553E+02  0.10566000000E+00 0.  1.
         23    2    1    0    0    0  0.13230980712E+02 -0.25823657542E+02 -0.87632040525E+01  0.94689706621E+02  0.89707450389E+02 0.  0.
         13    1    3    3    0    0  0.66078517175E+01 -0.57945977398E+02 -0.17235231065E+02  0.60815001068E+02  0.10566000000E+00 0. -1.
         22    1    1    0    0    0 -0.13230980712E+02  0.25823657542E+02  0.87632040525E+01  0.30310293379E+02  0.00000000000E+00 0. -1.
</event>
<event>
 5    1  0.6903325E-004  0.9118800E+02  0.7818608E-02  0.1130116E+00
         25   -1    0    0    0    0  0.00000000000E+00  0.00000000000E+00  0.99999998245E-14  0.12500000000E+03  0.12500000000E+03 0.  0.
        -13    1    3    3    0    0  0.14079056400E+02 -0.41997511971E+02 -0.15082746261E+02  0.46792213451E+02  0.10566000000E+00 0.  1.
         23    2    1    0    0    0  0.25557315433E+02  0.64805364065E+01 -0.97230628319E+01  0.96898190893E+02  0.92733746410E+02 0.  0.
         13    1    3    3    0    0  0.11478259033E+02  0.48478048377E+02  0.53596834291E+01  0.50105977442E+02  0.10566000000E+00 0. -1.
         22    1    1    0    0    0 -0.25557315433E+02 -0.64805364065E+01  0.97230628319E+01  0.28101809107E+02  0.00000000000E+00 0. -1.
</event>
<event>
 5    1  0.6903325E-004  0.9118800E+02  0.7818608E-02  0.1130116E+00
         25   -1    0    0    0    0  0.00000000000E+00  0.00000000000E+00  0.99999998245E-14  0.12500000000E+03  0.12500000000E+03 0.  0.
        -13    1    3    3    0    0  0.45570635683E+02  0.40366994658E+02 -0.29732220750E+01  0.60951032049E+02  0.10566000000E+00 0.  1.
         23    2    1    0    0    0  0.26997842101E+02  0.10834583445E+02 -0.11074555604E+01  0.95888178787E+02  0.91362162282E+02 0.  0.
         13    1    3    3    0    0 -0.18572793583E+02 -0.29532411213E+02  0.18657665146E+01  0.34937146738E+02  0.10566000000E+00 0. -1.
         22    1    1    0    0    0 -0.26997842101E+02 -0.10834583445E+02  0.11074555604E+01  0.29111821213E+02  0.00000000000E+00 0.  1.
</event>
<event>
 5    1  0.6903325E-004  0.9118800E+02  0.7818608E-02  0.1130116E+00
         25   -1    0    0    0    0  0.00000000000E+00  0.00000000000E+00  0.99999998245E-14  0.12500000000E+03  0.12500000000E+03 0.  0.
        -13    1    3    3    0    0 -0.33063106245E+01  0.11904636232E+02  0.39453677093E+02  0.41343147605E+02  0.10566000000E+00 0. -1.
         23    2    1    0    0    0 -0.99133815548E+01  0.24137393850E+02 -0.13168888686E+02  0.95771442989E+02  0.91202306699E+02 0.  0.
         13    1    3    3    0    0 -0.66070709303E+01  0.12232757618E+02 -0.52622565778E+02  0.54428295384E+02  0.10566000000E+00 0.  1.
         22    1    1    0    0    0  0.99133815548E+01 -0.24137393850E+02  0.13168888686E+02  0.29228557011E+02  0.00000000000E+00 0.  1.
</event>
<event>
 5    1  0.6903325E-004  0.9118800E+02  0.7818608E-02  0.1130116E+00
         25   -1    0    0    0    0  0.00000000000E+00  0.00000000000E+00  0.99999998245E-14  0.12500000000E+03  0.12500000000E+03 0.  0.
        -13    1    3    3    0    0 -0.23885594010E+01  0.14803359276E+01 -0.35535063090E+02  0.35646156641E+02  0.10566000000E+00 0.  1.
         23    2    1    0    0    0  0.25276363473E+02 -0.61580883103E+01  0.15873860900E+02  0.94523844370E+02  0.89476036415E+02 0.  0.
         13    1    3    3    0    0  0.27664922874E+02 -0.76384242380E+01  0.51408923990E+02  0.58877687729E+02  0.10566000000E+00 0. -1.
         22    1    1    0    0    0 -0.25276363473E+02  0.61580883103E+01 -0.15873860900E+02  0.30476155630E+02  0.00000000000E+00 0. -1.
</event>
<event>
 5    1  0.6903325E-004  0.9118800E+02  0.7818608E-02  0.1130116E+00
         25   -1    0    0    0    0  0.00000000000E+00  0.00000000000E+00  0.99999998245E-14  0.12500000000E+03  0.12500000000E+03 0.  0.
        -13    1    3    3    0    0  0.28287635710E+02 -0.30107446733E+00 -0.21488978877E+02  0.35525601432E+02  0.10566000000E+00 0.  1.
         23    2    1    0    0    0 -0.16330582370E+02  0.21574270900E+02  0.11949314072E+02  0.95420899402E+02  0.90720586696E+02 0.  0.
         13    1    3    3    0    0 -0.44618218080E+02  0.21875345367E+02  0.33438292949E+02  0.59895297970E+02  0.10566000000E+00 0. -1.
         22    1    1    0    0    0  0.16330582370E+02 -0.21574270900E+02 -0.11949314072E+02  0.29579100598E+02  0.00000000000E+00 0. -1.
</event>
<event>
 5    1  0.6903325E-004  0.9118800E+02  0.7818608E-02  0.1130116E+00
         25   -1    0    0    0    0  0.00000000000E+00  0.00000000000E+00  0.99999998245E-14  0.12500000000E+03  0.12500000000E+03 0.  0.
        -13    1    3    3    0    0 -0.42942050946E+02  0.36448935265E+02 -0.50902274933E+00  0.56327745292E+02  0.10566000000E+00 0.  1.
         23    2    1    0    0    0 -0.24635816978E+02  0.46775610901E+01  0.14596275204E+02  0.95985274329E+02  0.91494910144E+02 0.  0.
         13    1    3    3    0    0  0.18306233968E+02 -0.31771374175E+02  0.15105297953E+02  0.39657529037E+02  0.10566000000E+00 0. -1.
         22    1    1    0    0    0  0.24635816978E+02 -0.46775610901E+01 -0.14596275204E+02  0.29014725671E+02  0.00000000000E+00 0.  1.
</event>
<event>
 5    1  0.6903325E-004  0.9118800E+02  0.7818608E-02  0.1130116E+00
         25   -1    0    0    0    0  0.00000000000E+00  0.00000000000E+00  0.99999998245E-14  0.12500000000E+03  0.12500000000E+03 0.  0.
        -13    1    3    3    0    0  0.17488385650E+02 -0.65854505987E+01  0.42642352445E+02  0.46557418080E+02  0.10566000000E+00 0. -1.
         23    2    1    0    0    0  0.22715924790E+00 -0.29495740687E+02  0.31962905223E+01  0.95330712966E+02  0.90596237458E+02 0.  0.
         13    1    3    3    0    0 -0.17261226402E+02 -0.22910290088E+02 -0.39446061922E+02  0.48773294886E+02  0.10566000000E+00 0.  1.
         22    1    1    0    0    0 -0.22715924790E+00  0.29495740687E+02 -0.31962905223E+01  0.29669287034E+02  0.00000000000E+00 0.  1.
</event>
<event>
 5    1  0.6903325E-004  0.9118800E+02  0.7818608E-02  0.1130116E+00
         25   -1    0    0    0    0  0.00000000000E+00  0.00000000000E+00  0.99999998245E-14  0.12500000000E+03  0.12500000000E+03 0.  0.
        -13    1    3    3    0    0  0.57058654785E+02  0.21214199829E+02  0.76645661479E+01  0.61355432510E+02  0.10566000000E+00 0.  1.
         23    2    1    0    0    0  0.23650783807E+02  0.14886647110E+02  0.97006986097E+01  0.95418326782E+02  0.90717041924E+02 0.  0.
         13    1    3    3    0    0 -0.33407870978E+02 -0.63275527185E+01  0.20361324618E+01  0.34062894271E+02  0.10566000000E+00 0. -1.
         22    1    1    0    0    0 -0.23650783807E+02 -0.14886647110E+02 -0.97006986097E+01  0.29581673218E+02  0.00000000000E+00 0.  1.
</event>
<event>
 5    1  0.6903325E-004  0.9118800E+02  0.7818608E-02  0.1130116E+00
         25   -1    0    0    0    0  0.00000000000E+00  0.00000000000E+00  0.99999998245E-14  0.12500000000E+03  0.12500000000E+03 0.  0.
        -13    1    3    3    0    0  0.51270482720E+01  0.31406218181E+02 -0.23693257040E+02  0.39673905248E+02  0.10566000000E+00 0. -1.
         23    2    1    0    0    0  0.24526523028E+02 -0.22277579412E+01  0.16340972252E+02  0.95444279548E+02  0.90752795478E+02 0.  0.
         13    1    3    3    0    0  0.19399474756E+02 -0.33633976122E+02  0.40034229292E+02  0.55770374301E+02  0.10566000000E+00 0.  1.
         22    1    1    0    0    0 -0.24526523028E+02  0.22277579412E+01 -0.16340972252E+02  0.29555720452E+02  0.00000000000E+00 0.  1.
</event>
<event>
 5    1  0.6903325E-004  0.9118800E+02  0.7818608E-02  0.1130116E+00
         25   -1    0    0    0    0  0.00000000000E+00  0.00000000000E+00  0.99999998245E-14  0.12500000000E+03  0.12500000000E+03 0.  0.
        -13    1    3    3    0    0  0.32240827621E+02 -0.24651073753E+02  0.19612284698E+01  0.40632548333E+02  0.10566000000E+00 0. -1.
         23    2    1    0    0    0 -0.16313412950E+01  0.81820647168E+01 -0.27508170497E+02  0.96254445535E+02  0.91861914762E+02 0.  0.
         13    1    3    3    0    0 -0.33872168916E+02  0.32833138470E+02 -0.29469398966E+02  0.55621897202E+02  0.10566000000E+00 0.  1.
         22    1    1    0    0    0  0.16313412950E+01 -0.81820647168E+01  0.27508170497E+02  0.28745554465E+02  0.00000000000E+00 0.  1.
</event>
<event>
 5    1  0.6903325E-004  0.9118800E+02  0.7818608E-02  0.1130116E+00
         25   -1    0    0    0    0  0.00000000000E+00  0.00000000000E+00  0.99999998245E-14  0.12500000000E+03  0.12500000000E+03 0.  0.
        -13    1    3    3    0    0  0.86482384540E+01  0.31396690633E+02 -0.16131232743E+02  0.36342427614E+02  0.10566000000E+00 0.  1.
         23    2    1    0    0    0 -0.29336209496E+02 -0.56994008571E+01  0.70798151189E+01  0.94288110773E+02  0.89146103074E+02 0.  0.
         13    1    3    3    0    0 -0.37984447950E+02 -0.37096091490E+02  0.23211047862E+02  0.57945683159E+02  0.10566000000E+00 0. -1.
         22    1    1    0    0    0  0.29336209496E+02  0.56994008571E+01 -0.70798151189E+01  0.30711889227E+02  0.00000000000E+00 0. -1.
</event>
<event>
 5    1  0.6903325E-004  0.9118800E+02  0.7818608E-02  0.1130116E+00
         25   -1    0    0    0    0  0.00000000000E+00  0.00000000000E+00  0.99999998245E-14  0.12500000000E+03  0.12500000000E+03 0.  0.
        -13    1    3    3    0    0 -0.32420207545E+02 -0.90474853487E+01  0.11108441937E+02  0.35444823243E+02  0.10566000000E+00 0.  1.
         23    2    1    0    0    0  0.22242071452E+02 -0.22333060770E+02 -0.26894810071E+01  0.93366020580E+02  0.87843640322E+02 0.  0.
         13    1    3    3    0    0  0.54662278997E+02 -0.13285575421E+02 -0.13797922944E+02  0.57921197338E+02  0.10566000000E+00 0. -1.
         22    1    1    0    0    0 -0.22242071452E+02  0.22333060770E+02  0.26894810071E+01  0.31633979420E+02  0.00000000000E+00 0. -1.
</event>
<event>
 5    1  0.6903325E-004  0.9118800E+02  0.7818608E-02  0.1130116E+00
         25   -1    0    0    0    0  0.00000000000E+00  0.00000000000E+00  0.99999998245E-14  0.12500000000E+03  0.12500000000E+03 0.  0.
        -13    1    3    3    0    0 -0.34698103661E+02  0.14230713847E+02  0.42627080346E+02  0.56776322152E+02  0.10566000000E+00 0. -1.
         23    2    1    0    0    0 -0.27949684155E+02 -0.11643241650E+01  0.70094832563E+01  0.96161252617E+02  0.91735015965E+02 0.  0.
         13    1    3    3    0    0  0.67484195066E+01 -0.15395038012E+02 -0.35617597089E+02  0.39384930464E+02  0.10566000000E+00 0.  1.
         22    1    1    0    0    0  0.27949684155E+02  0.11643241650E+01 -0.70094832563E+01  0.28838747383E+02  0.00000000000E+00 0. -1.
</event>
<event>
 5    1  0.6903325E-004  0.9118800E+02  0.7818608E-02  0.1130116E+00
         25   -1    0    0    0    0  0.00000000000E+00  0.00000000000E+00  0.99999998245E-14  0.12500000000E+03  0.12500000000E+03 0.  0.
        -13    1    3    3    0    0  0.37134854289E+02 -0.12103715660E+02  0.76724178584E+00  0.39065293546E+02  0.10566000000E+00 0.  1.
         23    2    1    0    0    0 -0.12597642981E+02  0.21774600133E+02  0.48560692584E+01  0.99379398363E+02  0.96020047858E+02 0.  0.
         13    1    3    3    0    0 -0.49732497270E+02  0.33878315793E+02  0.40888274726E+01  0.60314104816E+02  0.10566000000E+00 0. -1.
         22    1    1    0    0    0  0.12597642981E+02 -0.21774600133E+02 -0.48560692584E+01  0.25620601637E+02  0.00000000000E+00 0. -1.
</event>
<event>
 5    1  0.6903325E-004  0.9118800E+02  0.7818608E-02  0.1130116E+00
         25   -1    0    0    0    0  0.00000000000E+00  0.00000000000E+00  0.99999998245E-14  0.12500000000E+03  0.12500000000E+03 0.  0.
        -13    1    3    3    0    0  0.86823122015E+01  0.23521605604E+02 -0.18152847410E+02  0.30954571690E+02  0.10566000000E+00 0. -1.
         23    2    1    0    0    0  0.15051869855E+02 -0.15303452382E+02  0.26780509497E+02  0.90678721908E+02  0.83932594843E+02 0.  0.
         13    1    3    3    0    0  0.63695576536E+01 -0.38825057987E+02  0.44933356907E+02  0.59724150218E+02  0.10566000000E+00 0.  1.
         22    1    1    0    0    0 -0.15051869855E+02  0.15303452382E+02 -0.26780509497E+02  0.34321278092E+02  0.00000000000E+00 0.  1.
</event>
<event>
 5    1  0.6903325E-004  0.9118800E+02  0.7818608E-02  0.1130116E+00
         25   -1    0    0    0    0  0.00000000000E+00  0.00000000000E+00  0.99999998245E-14  0.12500000000E+03  0.12500000000E+03 0.  0.
        -13    1    3    3    0    0 -0.28267655271E+02  0.11732768115E+02  0.17451293212E+02  0.35231760969E+02  0.10566000000E+00 0.  1.
         23    2    1    0    0    0  0.98587947726E+01  0.15429754325E+02 -0.26027165168E+02  0.93177264738E+02  0.87574632083E+02 0.  0.
         13    1    3    3    0    0  0.38126450044E+02  0.36969862101E+01 -0.43478458380E+02  0.57945503769E+02  0.10566000000E+00 0. -1.
         22    1    1    0    0    0 -0.98587947726E+01 -0.15429754325E+02  0.26027165168E+02  0.31822735262E+02  0.00000000000E+00 0. -1.
</event>
<event>
 5    1  0.6903325E-004  0.9118800E+02  0.7818608E-02  0.1130116E+00
         25   -1    0    0    0    0  0.00000000000E+00  0.00000000000E+00  0.99999998245E-14  0.12500000000E+03  0.12500000000E+03 0.  0.
        -13    1    3    3    0    0 -0.15424290197E+02 -0.35651242806E+02  0.12819328750E+02  0.40905576580E+02  0.10566000000E+00 0.  1.
         23    2    1    0    0    0 -0.11745499599E+02  0.19490859486E+02  0.17391059325E+02  0.96359132192E+02  0.92004255597E+02 0.  0.
         13    1    3    3    0    0  0.36787905981E+01  0.55142102292E+02  0.45717305751E+01  0.55453555612E+02  0.10566000000E+00 0. -1.
         22    1    1    0    0    0  0.11745499599E+02 -0.19490859486E+02 -0.17391059325E+02  0.28640867808E+02  0.00000000000E+00 0. -1.
</event>
<event>
 5    1  0.6903325E-004  0.9118800E+02  0.7818608E-02  0.1130116E+00
         25   -1    0    0    0    0  0.00000000000E+00  0.00000000000E+00  0.99999998245E-14  0.12500000000E+03  0.12500000000E+03 0.  0.
        -13    1    3    3    0    0  0.39294909319E+02 -0.48484219846E+01 -0.16067410301E+02  0.42729029148E+02  0.10566000000E+00 0.  1.
         23    2    1    0    0    0 -0.95963015896E+01  0.94451371747E+01 -0.27001737588E+02  0.94827273023E+02  0.89898933563E+02 0.  0.
         13    1    3    3    0    0 -0.48891210909E+02  0.14293559159E+02 -0.10934327287E+02  0.52098243875E+02  0.10566000000E+00 0. -1.
         22    1    1    0    0    0  0.95963015896E+01 -0.94451371747E+01  0.27001737588E+02  0.30172726977E+02  0.00000000000E+00 0. -1.
</event>
<event>
 5    1  0.6903325E-004  0.9118800E+02  0.7818608E-02  0.1130116E+00
         25   -1    0    0    0    0  0.00000000000E+00  0.00000000000E+00  0.99999998245E-14  0.12500000000E+03  0.12500000000E+03 0.  0.
        -13    1    3    3    0    0  0.38143631719E+02  0.26636675344E+02 -0.23078551298E+02  0.51933417066E+02  0.10566000000E+00 0. -1.
         23    2    1    0    0    0  0.27428632660E+02 -0.93214989136E+01  0.89222622931E-01  0.96030564516E+02  0.91556764518E+02 0.  0.
         13    1    3    3    0    0 -0.10714999059E+02 -0.35958174258E+02  0.23167773920E+02  0.44097147450E+02  0.10566000000E+00 0.  1.
         22    1    1    0    0    0 -0.27428632660E+02  0.93214989136E+01 -0.89222622931E-01  0.28969435484E+02  0.00000000000E+00 0. -1.
</event>
<event>
 5    1  0.6903325E-004  0.9118800E+02  0.7818608E-02  0.1130116E+00
         25   -1    0    0    0    0  0.00000000000E+00  0.00000000000E+00  0.99999998245E-14  0.12500000000E+03  0.12500000000E+03 0.  0.
        -13    1    3    3    0    0 -0.91800811673E+01 -0.26092809418E+02  0.42645551577E+02  0.50830727192E+02  0.10566000000E+00 0.  1.
         23    2    1    0    0    0 -0.26900346685E+02 -0.62281610258E+01  0.49972172447E+01  0.96939514942E+02  0.92789432240E+02 0.  0.
         13    1    3    3    0    0 -0.17720265517E+02  0.19864648392E+02 -0.37648334332E+02  0.46108787750E+02  0.10566000000E+00 0. -1.
         22    1    1    0    0    0  0.26900346685E+02  0.62281610258E+01 -0.49972172447E+01  0.28060485058E+02  0.00000000000E+00 0. -1.
</event>
<event>
 5    1  0.6903325E-004  0.9118800E+02  0.7818608E-02  0.1130116E+00
         25   -1    0    0    0    0  0.00000000000E+00  0.00000000000E+00  0.99999998245E-14  0.12500000000E+03  0.12500000000E+03 0.  0.
        -13    1    3    3    0    0  0.25328789628E+02  0.27735666802E+02 -0.49067667832E+02  0.61793705080E+02  0.10566000000E+00 0. -1.
         23    2    1    0    0    0  0.18626994724E+02  0.12435594847E+02 -0.21966613952E+02  0.93628977062E+02  0.88217029340E+02 0.  0.
         13    1    3    3    0    0 -0.67017949040E+01 -0.15300071955E+02  0.27101053880E+02  0.31835271983E+02  0.10566000000E+00 0.  1.
         22    1    1    0    0    0 -0.18626994724E+02 -0.12435594847E+02  0.21966613952E+02  0.31371022938E+02  0.00000000000E+00 0. -1.
</event>
<event>
 5    1  0.6903325E-004  0.9118800E+02  0.7818608E-02  0.1130116E+00
         25   -1    0    0    0    0  0.00000000000E+00  0.00000000000E+00  0.99999998245E-14  0.12500000000E+03  0.12500000000E+03 0.  0.
        -13    1    3    3    0    0 -0.11285046643E+02 -0.40326436677E+02 -0.18410593200E+02  0.45744233284E+02  0.10566000000E+00 0. -1.
         23    2    1    0    0    0  0.12103161506E+02 -0.51334477575E+01 -0.32221296675E+02  0.90199845349E+02  0.83216352583E+02 0.  0.
         13    1    3    3    0    0  0.23388208149E+02  0.35192988919E+02 -0.13810703475E+02  0.44455612064E+02  0.10566000000E+00 0.  1.
         22    1    1    0    0    0 -0.12103161506E+02  0.51334477575E+01  0.32221296675E+02  0.34800154651E+02  0.00000000000E+00 0.  1.
</event>
<event>
 5    1  0.6903325E-004  0.9118800E+02  0.7818608E-02  0.1130116E+00
         25   -1    0    0    0    0  0.00000000000E+00  0.00000000000E+00  0.99999998245E-14  0.12500000000E+03  0.12500000000E+03 0.  0.
        -13    1    3    3    0    0 -0.28965143952E+02 -0.22763193039E+02 -0.44949679489E+02  0.58117358609E+02  0.10566000000E+00 0. -1.
         23    2    1    0    0    0 -0.89156570231E+01 -0.23894920224E+02 -0.11746823265E+02  0.96920754827E+02  0.92764156369E+02 0.  0.
         13    1    3    3    0    0  0.20049486929E+02 -0.11317271852E+01  0.33202856225E+02  0.38803396218E+02  0.10566000000E+00 0.  1.
         22    1    1    0    0    0  0.89156570231E+01  0.23894920224E+02  0.11746823265E+02  0.28079245173E+02  0.00000000000E+00 0. -1.
</event>
<event>
 5    1  0.6903325E-004  0.9118800E+02  0.7818608E-02  0.1130116E+00
         25   -1    0    0    0    0  0.00000000000E+00  0.00000000000E+00  0.99999998245E-14  0.12500000000E+03  0.12500000000E+03 0.  0.
        -13    1    3    3    0    0  0.31528299481E+02  0.13592720195E+02 -0.27070071578E+01  0.34440307232E+02  0.10566000000E+00 0.  1.
         23    2    1    0    0    0 -0.27590309126E+02  0.25477917089E+01  0.93086069311E+01  0.95770450512E+02  0.91200946421E+02 0.  0.
         13    1    3    3    0    0 -0.59118608606E+02 -0.11044928487E+02  0.12015614089E+02  0.61330143280E+02  0.10566000000E+00 0. -1.
         22    1    1    0    0    0  0.27590309126E+02 -0.25477917089E+01 -0.93086069311E+01  0.29229549488E+02  0.00000000000E+00 0. -1.
</event>
<event>
 5    1  0.6903325E-004  0.9118800E+02  0.7818608E-02  0.1130116E+00
         25   -1    0    0    0    0  0.00000000000E+00  0.00000000000E+00  0.99999998245E-14  0.12500000000E+03  0.12500000000E+03 0.  0.
        -13    1    3    3    0    0 -0.34820309274E+01  0.22576391261E+02 -0.33016074789E+02  0.40148354141E+02  0.10566000000E+00 0.  1.
         23    2    1    0    0    0  0.18577458714E+02 -0.21533286746E+02 -0.79545905785E+01  0.95469000667E+02  0.90786839171E+02 0.  0.
         13    1    3    3    0    0  0.22059489641E+02 -0.44109678007E+02  0.25061484211E+02  0.55320646525E+02  0.10566000000E+00 0. -1.
         22    1    1    0    0    0 -0.18577458714E+02  0.21533286746E+02  0.79545905785E+01  0.29530999333E+02  0.00000000000E+00 0. -1.
</event>
<event>
 5    1  0.6903325E-004  0.9118800E+02  0.7818608E-02  0.1130116E+00
         25   -1    0    0    0    0  0.00000000000E+00  0.00000000000E+00  0.99999998245E-14  0.12500000000E+03  0.12500000000E+03 0.  0.
        -13    1    3    3    0    0  0.47312630991E+01  0.17192377842E+02  0.53874931090E+02  0.56749291364E+02  0.10566000000E+00 0.  1.
         23    2    1    0    0    0  0.13506294947E+02  0.20364698083E+02  0.15918401960E+02  0.95836041898E+02  0.91290801697E+02 0.  0.
         13    1    3    3    0    0  0.87750318484E+01  0.31723202412E+01 -0.37956529130E+02  0.39086750533E+02  0.10566000000E+00 0. -1.
         22    1    1    0    0    0 -0.13506294947E+02 -0.20364698083E+02 -0.15918401960E+02  0.29163958102E+02  0.00000000000E+00 0.  1.
</event>
<event>
 5    1  0.6903325E-004  0.9118800E+02  0.7818608E-02  0.1130116E+00
         25   -1    0    0    0    0  0.00000000000E+00  0.00000000000E+00  0.99999998245E-14  0.12500000000E+03  0.12500000000E+03 0.  0.
        -13    1    3    3    0    0 -0.80375942390E+01  0.24734019669E+02  0.20524324224E+02  0.33130555369E+02  0.10566000000E+00 0. -1.
         23    2    1    0    0    0 -0.27959594495E+01 -0.10789114568E+02 -0.28787149942E+02  0.94130559056E+02  0.88924910818E+02 0.  0.
         13    1    3    3    0    0  0.52416347895E+01 -0.35523134237E+02 -0.49311474167E+02  0.61000003687E+02  0.10566000000E+00 0.  1.
         22    1    1    0    0    0  0.27959594495E+01  0.10789114568E+02  0.28787149942E+02  0.30869440944E+02  0.00000000000E+00 0.  1.
</event>
<event>
 5    1  0.6903325E-004  0.9118800E+02  0.7818608E-02  0.1130116E+00
         25   -1    0    0    0    0  0.00000000000E+00  0.00000000000E+00  0.99999998245E-14  0.12500000000E+03  0.12500000000E+03 0.  0.
        -13    1    3    3    0    0  0.37662836489E+01  0.26914740167E+02  0.10375425131E+02  0.29090354784E+02  0.10566000000E+00 0.  1.
         23    2    1    0    0    0 -0.21519636966E+02 -0.18691663685E+02 -0.20679999074E+02  0.89784443378E+02  0.82590016615E+02 0.  0.
         13    1    3    3    0    0 -0.25285920615E+02 -0.45606403852E+02 -0.31055424206E+02  0.60694088594E+02  0.10566000000E+00 0. -1.
         22    1    1    0    0    0  0.21519636966E+02  0.18691663685E+02  0.20679999074E+02  0.35215556622E+02  0.00000000000E+00 0. -1.
</event>
<event>
 5    1  0.6903325E-004  0.9118800E+02  0.7818608E-02  0.1130116E+00
         25   -1    0    0    0    0  0.00000000000E+00  0.00000000000E+00  0.99999998245E-14  0.12500000000E+03  0.12500000000E+03 0.  0.
        -13    1    3    3    0    0  0.33161355839E+02 -0.20377949355E+02 -0.20931110236E+01  0.38978566146E+02  0.10566000000E+00 0.  1.
         23    2    1    0    0    0 -0.14716330381E+02  0.22508286289E+01 -0.24380466224E+02  0.96433520646E+02  0.92105266742E+02 0.  0.
         13    1    3    3    0    0 -0.47877686220E+02  0.22628777984E+02 -0.22287355200E+02  0.57454954500E+02  0.10566000000E+00 0. -1.
         22    1    1    0    0    0  0.14716330381E+02 -0.22508286289E+01  0.24380466224E+02  0.28566479354E+02  0.00000000000E+00 0. -1.
</event>
<event>
 5    1  0.6903325E-004  0.9118800E+02  0.7818608E-02  0.1130116E+00
         25   -1    0    0    0    0  0.00000000000E+00  0.00000000000E+00  0.99999998245E-14  0.12500000000E+03  0.12500000000E+03 0.  0.
        -13    1    3    3    0    0  0.14650398308E+02 -0.18275600419E+02  0.23586214656E+02  0.33240824705E+02  0.10566000000E+00 0. -1.
         23    2    1    0    0    0 -0.11186782556E+02  0.22969561319E+02 -0.15020029032E+02  0.95363095249E+02  0.90640905844E+02 0.  0.
         13    1    3    3    0    0 -0.25837180864E+02  0.41245161738E+02 -0.38606243688E+02  0.62122270543E+02  0.10566000000E+00 0.  1.
         22    1    1    0    0    0  0.11186782556E+02 -0.22969561319E+02  0.15020029032E+02  0.29636904751E+02  0.00000000000E+00 0.  1.
</event>
<event>
 5    1  0.6903325E-004  0.9118800E+02  0.7818608E-02  0.1130116E+00
         25   -1    0    0    0    0  0.00000000000E+00  0.00000000000E+00  0.99999998245E-14  0.12500000000E+03  0.12500000000E+03 0.  0.
        -13    1    3    3    0    0 -0.52349457560E+01  0.34073864711E+02 -0.16901854525E+02  0.38394228262E+02  0.10566000000E+00 0. -1.
         23    2    1    0    0    0  0.22392696845E+02 -0.15934538545E+02 -0.19694180171E+01  0.97446034805E+02  0.93469292825E+02 0.  0.
         13    1    3    3    0    0  0.27627642601E+02 -0.50008403255E+02  0.14932436508E+02  0.59051806543E+02  0.10566000000E+00 0.  1.
         22    1    1    0    0    0 -0.22392696845E+02  0.15934538545E+02  0.19694180171E+01  0.27553965195E+02  0.00000000000E+00 0.  1.
</event>
<event>
 5    1  0.6903325E-004  0.9118800E+02  0.7818608E-02  0.1130116E+00
         25   -1    0    0    0    0  0.00000000000E+00  0.00000000000E+00  0.99999998245E-14  0.12500000000E+03  0.12500000000E+03 0.  0.
        -13    1    3    3    0    0 -0.55443091915E+01  0.33622264251E+02  0.57193616461E+01  0.34553122572E+02  0.10566000000E+00 0.  1.
         23    2    1    0    0    0  0.25685565646E+02 -0.13247228329E+02 -0.12162146786E+02  0.93644694940E+02  0.88239298133E+02 0.  0.
         13    1    3    3    0    0  0.31229874838E+02 -0.46869492580E+02 -0.17881508432E+02  0.59091572368E+02  0.10566000000E+00 0. -1.
         22    1    1    0    0    0 -0.25685565646E+02  0.13247228329E+02  0.12162146786E+02  0.31355305060E+02  0.00000000000E+00 0. -1.
</event>
<event>
 5    1  0.6903325E-004  0.9118800E+02  0.7818608E-02  0.1130116E+00
         25   -1    0    0    0    0  0.00000000000E+00  0.00000000000E+00  0.99999998245E-14  0.12500000000E+03  0.12500000000E+03 0.  0.
        -13    1    3    3    0    0 -0.42222567583E+02  0.37336070570E+02  0.25202761256E+02  0.61740729813E+02  0.10566000000E+00 0. -1.
         23    2    1    0    0    0 -0.21848188991E+02  0.17527318993E+02  0.51493735588E+01  0.96520773864E+02  0.92223605796E+02 0.  0.
         13    1    3    3    0    0  0.20374378592E+02 -0.19808751577E+02 -0.20053387697E+02  0.34780044052E+02  0.10566000000E+00 0.  1.
         22    1    1    0    0    0  0.21848188991E+02 -0.17527318993E+02 -0.51493735588E+01  0.28479226136E+02  0.00000000000E+00 0. -1.
</event>
<event>
 5    1  0.6903325E-004  0.9118800E+02  0.7818608E-02  0.1130116E+00
         25   -1    0    0    0    0  0.00000000000E+00  0.00000000000E+00  0.99999998245E-14  0.12500000000E+03  0.12500000000E+03 0.  0.
        -13    1    3    3    0    0  0.46821834033E+02  0.22522065140E+02 -0.15711387193E+02  0.54280626489E+02  0.10566000000E+00 0. -1.
         23    2    1    0    0    0  0.62544920227E+01  0.14975071102E+02 -0.23666285745E+02  0.96303928737E+02  0.91929223777E+02 0.  0.
         13    1    3    3    0    0 -0.40567342011E+02 -0.75469940379E+01 -0.79548985523E+01  0.42023302248E+02  0.10566000000E+00 0.  1.
         22    1    1    0    0    0 -0.62544920227E+01 -0.14975071102E+02  0.23666285745E+02  0.28696071263E+02  0.00000000000E+00 0. -1.
</event>
<event>
 5    1  0.6903325E-004  0.9118800E+02  0.7818608E-02  0.1130116E+00
         25   -1    0    0    0    0  0.00000000000E+00  0.00000000000E+00  0.99999998245E-14  0.12500000000E+03  0.12500000000E+03 0.  0.
        -13    1    3    3    0    0  0.90959199902E+00  0.35377406815E+02  0.29410571777E+01  0.35511255285E+02  0.10566000000E+00 0.  1.
         23    2    1    0    0    0 -0.11411577492E+02 -0.20352810310E+02 -0.17173265148E+02  0.96027909564E+02  0.91553139711E+02 0.  0.
         13    1    3    3    0    0 -0.12321169491E+02 -0.55730217125E+02 -0.20114322326E+02  0.60516654279E+02  0.10566000000E+00 0. -1.
         22    1    1    0    0    0  0.11411577492E+02  0.20352810310E+02  0.17173265148E+02  0.28972090436E+02  0.00000000000E+00 0. -1.
</event>
<event>
 5    1  0.6903325E-004  0.9118800E+02  0.7818608E-02  0.1130116E+00
         25   -1    0    0    0    0  0.00000000000E+00  0.00000000000E+00  0.99999998245E-14  0.12500000000E+03  0.12500000000E+03 0.  0.
        -13    1    3    3    0    0 -0.55690159858E+02 -0.22231769164E+02 -0.58873169114E+01  0.60252113072E+02  0.10566000000E+00 0. -1.
         23    2    1    0    0    0 -0.18333703460E+02 -0.19240923144E+02 -0.61133565877E+01  0.97728935944E+02  0.93846864551E+02 0.  0.
         13    1    3    3    0    0  0.37356456399E+02  0.29908460209E+01 -0.22603967633E+00  0.37476822872E+02  0.10566000000E+00 0.  1.
         22    1    1    0    0    0  0.18333703460E+02  0.19240923144E+02  0.61133565877E+01  0.27271064056E+02  0.00000000000E+00 0. -1.
</event>
<event>
 5    1  0.6903325E-004  0.9118800E+02  0.7818608E-02  0.1130116E+00
         25   -1    0    0    0    0  0.00000000000E+00  0.00000000000E+00  0.99999998245E-14  0.12500000000E+03  0.12500000000E+03 0.  0.
        -13    1    3    3    0    0 -0.35370560904E+02 -0.35433835724E+02 -0.22091270325E+02  0.54723566051E+02  0.10566000000E+00 0. -1.
         23    2    1    0    0    0 -0.28310530628E+02 -0.21832282600E+01  0.22262060990E+01  0.96518275620E+02  0.92220219610E+02 0.  0.
         13    1    3    3    0    0  0.70600302759E+01  0.33250607464E+02  0.24317476424E+02  0.41794709568E+02  0.10566000000E+00 0.  1.
         22    1    1    0    0    0  0.28310530628E+02  0.21832282600E+01 -0.22262060990E+01  0.28481724380E+02  0.00000000000E+00 0. -1.
</event>
<event>
 5    1  0.6903325E-004  0.9118800E+02  0.7818608E-02  0.1130116E+00
         25   -1    0    0    0    0  0.00000000000E+00  0.00000000000E+00  0.99999998245E-14  0.12500000000E+03  0.12500000000E+03 0.  0.
        -13    1    3    3    0    0 -0.17141736033E+02 -0.58842198091E+02 -0.46862120539E+01  0.61467187490E+02  0.10566000000E+00 0.  1.
         23    2    1    0    0    0 -0.15308057588E+02 -0.24498566748E+02 -0.37200141291E+01  0.95873467338E+02  0.91342032134E+02 0.  0.
         13    1    3    3    0    0  0.18336784450E+01  0.34343631344E+02  0.96619792478E+00  0.34406279848E+02  0.10566000000E+00 0. -1.
         22    1    1    0    0    0  0.15308057588E+02  0.24498566748E+02  0.37200141291E+01  0.29126532662E+02  0.00000000000E+00 0.  1.
</event>
<event>
 5    1  0.6903325E-004  0.9118800E+02  0.7818608E-02  0.1130116E+00
         25   -1    0    0    0    0  0.00000000000E+00  0.00000000000E+00  0.99999998245E-14  0.12500000000E+03  0.12500000000E+03 0.  0.
        -13    1    3    3    0    0  0.10946690128E+02  0.38651308089E+02  0.22538846973E+02  0.46062614219E+02  0.10566000000E+00 0.  1.
         23    2    1    0    0    0  0.10357548845E+02 -0.11435028306E+02  0.24336762644E+02  0.96184783422E+02  0.91767073918E+02 0.  0.
         13    1    3    3    0    0 -0.58914128278E+00 -0.50086336395E+02  0.17979156714E+01  0.50122169204E+02  0.10566000000E+00 0. -1.
         22    1    1    0    0    0 -0.10357548845E+02  0.11435028306E+02 -0.24336762644E+02  0.28815216578E+02  0.00000000000E+00 0.  1.
</event>
<event>
 5    1  0.6903325E-004  0.9118800E+02  0.7818608E-02  0.1130116E+00
         25   -1    0    0    0    0  0.00000000000E+00  0.00000000000E+00  0.99999998245E-14  0.12500000000E+03  0.12500000000E+03 0.  0.
        -13    1    3    3    0    0  0.32022360323E+02 -0.15797926856E+02  0.25001483382E+02  0.43590037726E+02  0.10566000000E+00 0. -1.
         23    2    1    0    0    0 -0.44092875548E+01  0.19908935734E+02  0.22457979667E+02  0.94665722531E+02  0.89674024292E+02 0.  0.
         13    1    3    3    0    0 -0.36431647878E+02  0.35706862590E+02 -0.25435037149E+01  0.51075684805E+02  0.10566000000E+00 0.  1.
         22    1    1    0    0    0  0.44092875548E+01 -0.19908935734E+02 -0.22457979667E+02  0.30334277469E+02  0.00000000000E+00 0.  1.
</event>
<event>
 5    1  0.6903325E-004  0.9118800E+02  0.7818608E-02  0.1130116E+00
         25   -1    0    0    0    0  0.00000000000E+00  0.00000000000E+00  0.99999998245E-14  0.12500000000E+03  0.12500000000E+03 0.  0.
        -13    1    3    3    0    0 -0.45078988101E+02 -0.32416845506E+02  0.28273329716E+01  0.55596510830E+02  0.10566000000E+00 0. -1.
         23    2    1    0    0    0 -0.27903870484E+02 -0.37340595432E+02  0.13576905553E+02  0.76448188298E+02  0.59051224157E+02 0.  0.
         13    1    3    3    0    0  0.17175117617E+02 -0.49237499261E+01  0.10749572582E+02  0.20851677468E+02  0.10566000000E+00 0.  1.
         22    1    1    0    0    0  0.27903870484E+02  0.37340595432E+02 -0.13576905553E+02  0.48551811702E+02  0.00000000000E+00 0. -1.
</event>
<event>
 5    1  0.6903325E-004  0.9118800E+02  0.7818608E-02  0.1130116E+00
         25   -1    0    0    0    0  0.00000000000E+00  0.00000000000E+00  0.99999998245E-14  0.12500000000E+03  0.12500000000E+03 0.  0.
        -13    1    3    3    0    0 -0.53525051005E+02  0.82758643115E+01  0.29452524816E+01  0.54241189988E+02  0.10566000000E+00 0.  1.
         23    2    1    0    0    0 -0.15426357284E+02  0.24770445312E+02  0.11861290894E+01  0.95794617581E+02  0.91234063788E+02 0.  0.
         13    1    3    3    0    0  0.38098693720E+02  0.16494581000E+02 -0.17591233922E+01  0.41553427593E+02  0.10566000000E+00 0. -1.
         22    1    1    0    0    0  0.15426357284E+02 -0.24770445312E+02 -0.11861290894E+01  0.29205382419E+02  0.00000000000E+00 0.  1.
</event>
<event>
 5    1  0.6903325E-004  0.9118800E+02  0.7818608E-02  0.1130116E+00
         25   -1    0    0    0    0  0.00000000000E+00  0.00000000000E+00  0.99999998245E-14  0.12500000000E+03  0.12500000000E+03 0.  0.
        -13    1    3    3    0    0  0.38617975466E+02  0.16764704504E+02  0.29980624383E+02  0.51684159552E+02  0.10566000000E+00 0.  1.
         23    2    1    0    0    0  0.13387799950E+02  0.24496102621E+02 -0.61397146462E+01  0.96416992337E+02  0.92082832734E+02 0.  0.
         13    1    3    3    0    0 -0.25230175516E+02  0.77313981173E+01 -0.36120339029E+02  0.44732832785E+02  0.10566000000E+00 0. -1.
         22    1    1    0    0    0 -0.13387799950E+02 -0.24496102621E+02  0.61397146462E+01  0.28583007663E+02  0.00000000000E+00 0.  1.
</event>
<event>
 5    1  0.6903325E-004  0.9118800E+02  0.7818608E-02  0.1130116E+00
         25   -1    0    0    0    0  0.00000000000E+00  0.00000000000E+00  0.99999998245E-14  0.12500000000E+03  0.12500000000E+03 0.  0.
        -13    1    3    3    0    0 -0.10016236068E+02 -0.20678346068E+02 -0.25606273646E+02  0.34403653805E+02  0.10566000000E+00 0.  1.
         23    2    1    0    0    0 -0.22918016838E+01  0.25953531108E+02  0.13412935563E+02  0.95695649259E+02  0.91098366148E+02 0.  0.
         13    1    3    3    0    0  0.77244343840E+01  0.46631877175E+02  0.39019209209E+02  0.61291995454E+02  0.10566000000E+00 0. -1.
         22    1    1    0    0    0  0.22918016838E+01 -0.25953531108E+02 -0.13412935563E+02  0.29304350741E+02  0.00000000000E+00 0. -1.
</event>
<event>
 5    1  0.6903325E-004  0.9118800E+02  0.7818608E-02  0.1130116E+00
         25   -1    0    0    0    0  0.00000000000E+00  0.00000000000E+00  0.99999998245E-14  0.12500000000E+03  0.12500000000E+03 0.  0.
        -13    1    3    3    0    0 -0.39008124757E+02 -0.19450924620E+02  0.29382185052E+02  0.52567064100E+02  0.10566000000E+00 0. -1.
         23    2    1    0    0    0  0.46655143079E+01 -0.15363619969E+02  0.23083212873E+02  0.96881633070E+02  0.92711424687E+02 0.  0.
         13    1    3    3    0    0  0.43673639064E+02  0.40873046516E+01 -0.62989721797E+01  0.44314568970E+02  0.10566000000E+00 0.  1.
         22    1    1    0    0    0 -0.46655143079E+01  0.15363619969E+02 -0.23083212873E+02  0.28118366930E+02  0.00000000000E+00 0.  1.
</event>
<event>
 5    1  0.6903325E-004  0.9118800E+02  0.7818608E-02  0.1130116E+00
         25   -1    0    0    0    0  0.00000000000E+00  0.00000000000E+00  0.99999998245E-14  0.12500000000E+03  0.12500000000E+03 0.  0.
        -13    1    3    3    0    0  0.45773616270E+02  0.18102209801E+02 -0.74080176611E+01  0.49777543489E+02  0.10566000000E+00 0. -1.
         23    2    1    0    0    0  0.35420528064E+02 -0.16192992947E+02 -0.20540241935E+01  0.85999412257E+02  0.76647590075E+02 0.  0.
         13    1    3    3    0    0 -0.10353088206E+02 -0.34295202748E+02  0.53539934676E+01  0.36221868768E+02  0.10566000000E+00 0.  1.
         22    1    1    0    0    0 -0.35420528064E+02  0.16192992947E+02  0.20540241935E+01  0.39000587743E+02  0.00000000000E+00 0. -1.
</event>
<event>
 5    1  0.6903325E-004  0.9118800E+02  0.7818608E-02  0.1130116E+00
         25   -1    0    0    0    0  0.00000000000E+00  0.00000000000E+00  0.99999998245E-14  0.12500000000E+03  0.12500000000E+03 0.  0.
        -13    1    3    3    0    0 -0.11646841797E+00  0.20690687195E+02  0.45748915411E+02  0.50210482240E+02  0.10566000000E+00 0.  1.
         23    2    1    0    0    0 -0.20709199151E+02 -0.86172063093E+01  0.24160280982E+02  0.92032647192E+02  0.85925326871E+02 0.  0.
         13    1    3    3    0    0 -0.20592730733E+02 -0.29307893505E+02 -0.21588634428E+02  0.41822164951E+02  0.10566000000E+00 0. -1.
         22    1    1    0    0    0  0.20709199151E+02  0.86172063093E+01 -0.24160280982E+02  0.32967352808E+02  0.00000000000E+00 0. -1.
</event>
<event>
 5    1  0.6903325E-004  0.9118800E+02  0.7818608E-02  0.1130116E+00
         25   -1    0    0    0    0  0.00000000000E+00  0.00000000000E+00  0.99999998245E-14  0.12500000000E+03  0.12500000000E+03 0.  0.
        -13    1    3    3    0    0  0.24148387417E+02  0.20701258472E+02  0.19607483036E+02  0.37365107684E+02  0.10566000000E+00 0. -1.
         23    2    1    0    0    0 -0.13818188230E+02 -0.21326626064E+02  0.17693590826E+02  0.94035012328E+02  0.88790501079E+02 0.  0.
         13    1    3    3    0    0 -0.37966575647E+02 -0.42027884536E+02 -0.19138922105E+01  0.56669904644E+02  0.10566000000E+00 0.  1.
         22    1    1    0    0    0  0.13818188230E+02  0.21326626064E+02 -0.17693590826E+02  0.30964987672E+02  0.00000000000E+00 0.  1.
</event>
<event>
 5    1  0.6903325E-004  0.9118800E+02  0.7818608E-02  0.1130116E+00
         25   -1    0    0    0    0  0.00000000000E+00  0.00000000000E+00  0.99999998245E-14  0.12500000000E+03  0.12500000000E+03 0.  0.
        -13    1    3    3    0    0  0.51706879648E+02 -0.23361918738E+01  0.15829656911E+00  0.51759978915E+02  0.10566000000E+00 0.  1.
         23    2    1    0    0    0  0.21012041472E+02  0.76207386704E+01 -0.24100043026E+02  0.92130658380E+02  0.86067790694E+02 0.  0.
         13    1    3    3    0    0 -0.30694838176E+02  0.99569305442E+01 -0.24258339595E+02  0.40370679465E+02  0.10566000000E+00 0. -1.
         22    1    1    0    0    0 -0.21012041472E+02 -0.76207386704E+01  0.24100043026E+02  0.32869341620E+02  0.00000000000E+00 0.  1.
</event>
<event>
 5    1  0.6903325E-004  0.9118800E+02  0.7818608E-02  0.1130116E+00
         25   -1    0    0    0    0  0.00000000000E+00  0.00000000000E+00  0.99999998245E-14  0.12500000000E+03  0.12500000000E+03 0.  0.
        -13    1    3    3    0    0  0.13085562640E+02  0.10154686197E+02 -0.39019983993E+02  0.42390092194E+02  0.10566000000E+00 0. -1.
         23    2    1    0    0    0  0.26794318870E+02 -0.20639253022E+01  0.11217726271E+02  0.95878999089E+02  0.91349601928E+02 0.  0.
         13    1    3    3    0    0  0.13708756230E+02 -0.12218611499E+02  0.50237710263E+02  0.53488906896E+02  0.10566000000E+00 0.  1.
         22    1    1    0    0    0 -0.26794318870E+02  0.20639253022E+01 -0.11217726271E+02  0.29121000911E+02  0.00000000000E+00 0.  1.
</event>
<event>
 5    1  0.6903325E-004  0.9118800E+02  0.7818608E-02  0.1130116E+00
         25   -1    0    0    0    0  0.00000000000E+00  0.00000000000E+00  0.99999998245E-14  0.12500000000E+03  0.12500000000E+03 0.  0.
        -13    1    3    3    0    0 -0.25482126965E+02  0.10990102598E+02 -0.13806808140E+02  0.30996133063E+02  0.10566000000E+00 0.  1.
         23    2    1    0    0    0  0.27546802846E+02  0.84418943442E+01  0.16166331440E+02  0.91963017701E+02  0.85823973488E+02 0.  0.
         13    1    3    3    0    0  0.53028929811E+02 -0.25482082542E+01  0.29973139581E+02  0.60966884639E+02  0.10566000000E+00 0. -1.
         22    1    1    0    0    0 -0.27546802846E+02 -0.84418943442E+01 -0.16166331440E+02  0.33036982299E+02  0.00000000000E+00 0. -1.
</event>
<event>
 5    1  0.6903325E-004  0.9118800E+02  0.7818608E-02  0.1130116E+00
         25   -1    0    0    0    0  0.00000000000E+00  0.00000000000E+00  0.99999998245E-14  0.12500000000E+03  0.12500000000E+03 0.  0.
        -13    1    3    3    0    0  0.32585880783E+02 -0.58459821769E+00  0.47891775078E+01  0.32941292730E+02  0.10566000000E+00 0. -1.
         23    2    1    0    0    0  0.10200108189E+02  0.42312555235E+02  0.32831954284E+01  0.81351702097E+02  0.68650750355E+02 0.  0.
         13    1    3    3    0    0 -0.22385772594E+02  0.42897153453E+02 -0.15059820794E+01  0.48410409367E+02  0.10566000000E+00 0.  1.
         22    1    1    0    0    0 -0.10200108189E+02 -0.42312555235E+02 -0.32831954284E+01  0.43648297903E+02  0.00000000000E+00 0.  1.
</event>
<event>
 5    1  0.6903325E-004  0.9118800E+02  0.7818608E-02  0.1130116E+00
         25   -1    0    0    0    0  0.00000000000E+00  0.00000000000E+00  0.99999998245E-14  0.12500000000E+03  0.12500000000E+03 0.  0.
        -13    1    3    3    0    0 -0.29174157374E+02 -0.22715535804E+02  0.18856694806E+02  0.41505579485E+02  0.10566000000E+00 0.  1.
         23    2    1    0    0    0  0.21145211708E+02 -0.20255519519E+02 -0.11097856500E+01  0.95697480085E+02  0.91100878269E+02 0.  0.
         13    1    3    3    0    0  0.50319369082E+02  0.24600162851E+01 -0.19966480456E+02  0.54191900601E+02  0.10566000000E+00 0. -1.
         22    1    1    0    0    0 -0.21145211708E+02  0.20255519519E+02  0.11097856500E+01  0.29302519915E+02  0.00000000000E+00 0. -1.
</event>
