<event>
 5    1  0.1250806E-009  0.9118800E+02  0.7561462E-02  0.1125453E+00
         25   -1    0    0    0    0  0.00000000000E+00  0.00000000000E+00  0.99999998245E-14  0.12509000000E+03  0.12509000000E+03 0.  0.
        -13    1    3    3    0    0 -0.26660189586E+02  0.23906043334E+02  0.40184758809E+02  0.53824628389E+02  0.10566000000E+00 0. -1.
         23    2    1    0    0    0 -0.27617996419E+02 -0.37209978649E+01  0.83248980679E+01  0.96005580131E+02  0.91494086897E+02 0.  0.
         13    1    3    3    0    0 -0.95780683275E+00 -0.27627041199E+02 -0.31859860741E+02  0.42180951741E+02  0.10566000000E+00 0.  1.
         22    1    1    0    0    0  0.27617996419E+02  0.37209978649E+01 -0.83248980679E+01  0.29084419869E+02  0.00000000000E+00 0. -1.
</event>
<event>
 5    1  0.1250806E-009  0.9118800E+02  0.7561462E-02  0.1125453E+00
         25   -1    0    0    0    0  0.00000000000E+00  0.00000000000E+00  0.99999998245E-14  0.12509000000E+03  0.12509000000E+03 0.  0.
        -13    1    3    3    0    0  0.17884489384E+02  0.36328311876E+02 -0.74121587534E+01  0.41164942192E+02  0.10566000000E+00 0.  1.
         23    2    1    0    0    0 -0.24085413792E+02  0.95702747777E+01  0.14323628075E+02  0.95478116607E+02  0.90770078290E+02 0.  0.
         13    1    3    3    0    0 -0.41969903176E+02 -0.26758037098E+02  0.21735786828E+02  0.54313174415E+02  0.10566000000E+00 0. -1.
         22    1    1    0    0    0  0.24085413792E+02 -0.95702747777E+01 -0.14323628075E+02  0.29611883393E+02  0.00000000000E+00 0. -1.
</event>
<event>
 5    1  0.1250806E-009  0.9118800E+02  0.7561462E-02  0.1125453E+00
         25   -1    0    0    0    0  0.00000000000E+00  0.00000000000E+00  0.99999998245E-14  0.12509000000E+03  0.12509000000E+03 0.  0.
        -13    1    3    3    0    0  0.15110289073E+02 -0.11282508594E+02  0.59214440191E+02  0.62144806117E+02  0.10566000000E+00 0.  1.
         23    2    1    0    0    0  0.84627626528E+01 -0.46665597980E+00  0.27765410830E+02  0.96059771649E+02  0.91568147143E+02 0.  0.
         13    1    3    3    0    0 -0.66475264206E+01  0.10815852614E+02 -0.31449029361E+02  0.33914965533E+02  0.10566000000E+00 0. -1.
         22    1    1    0    0    0 -0.84627626528E+01  0.46665597980E+00 -0.27765410830E+02  0.29030228351E+02  0.00000000000E+00 0.  1.
</event>
<event>
 5    1  0.1250806E-009  0.9118800E+02  0.7561462E-02  0.1125453E+00
         25   -1    0    0    0    0  0.00000000000E+00  0.00000000000E+00  0.99999998245E-14  0.12509000000E+03  0.12509000000E+03 0.  0.
        -13    1    3    3    0    0  0.38351969488E+02  0.67515720720E+01  0.24702890024E+02  0.46116171010E+02  0.10566000000E+00 0. -1.
         23    2    1    0    0    0  0.18606577432E+02  0.20228534946E+02 -0.15975857195E+02  0.93299649846E+02  0.87716579383E+02 0.  0.
         13    1    3    3    0    0 -0.19745392056E+02  0.13476962874E+02 -0.40678747219E+02  0.47183478836E+02  0.10566000000E+00 0.  1.
         22    1    1    0    0    0 -0.18606577432E+02 -0.20228534946E+02  0.15975857195E+02  0.31790350154E+02  0.00000000000E+00 0. -1.
</event>
<event>
 5    1  0.1250806E-009  0.9118800E+02  0.7561462E-02  0.1125453E+00
         25   -1    0    0    0    0  0.00000000000E+00  0.00000000000E+00  0.99999998245E-14  0.12509000000E+03  0.12509000000E+03 0.  0.
        -13    1    3    3    0    0 -0.14742904302E+01 -0.56959587192E+02  0.49561334936E+00  0.56980916998E+02  0.10566000000E+00 0.  1.
         23    2    1    0    0    0 -0.11008130636E+00 -0.23491148278E+02 -0.18228835630E+02  0.95355565185E+02  0.90601033096E+02 0.  0.
         13    1    3    3    0    0  0.13642091238E+01  0.33468438914E+02 -0.18724448979E+02  0.38374648187E+02  0.10566000000E+00 0. -1.
         22    1    1    0    0    0  0.11008130636E+00  0.23491148278E+02  0.18228835630E+02  0.29734434815E+02  0.00000000000E+00 0.  1.
</event>
<event>
 5    1  0.1250806E-009  0.9118800E+02  0.7561462E-02  0.1125453E+00
         25   -1    0    0    0    0  0.00000000000E+00  0.00000000000E+00  0.99999998245E-14  0.12509000000E+03  0.12509000000E+03 0.  0.
        -13    1    3    3    0    0  0.47082482742E+02 -0.28766692483E+02  0.28596287593E+02  0.62145326499E+02  0.10566000000E+00 0. -1.
         23    2    1    0    0    0  0.18936725717E+02 -0.14694992679E+02  0.17094925572E+02  0.95648891477E+02  0.91005118372E+02 0.  0.
         13    1    3    3    0    0 -0.28145757025E+02  0.14071699804E+02 -0.11501362021E+02  0.33503564978E+02  0.10566000000E+00 0.  1.
         22    1    1    0    0    0 -0.18936725717E+02  0.14694992679E+02 -0.17094925572E+02  0.29441108523E+02  0.00000000000E+00 0. -1.
</event>
<event>
 5    1  0.1250806E-009  0.9118800E+02  0.7561462E-02  0.1125453E+00
         25   -1    0    0    0    0  0.00000000000E+00  0.00000000000E+00  0.99999998245E-14  0.12509000000E+03  0.12509000000E+03 0.  0.
        -13    1    3    3    0    0  0.51589197234E+02  0.28544865649E+02 -0.84971886183E+01  0.59569018832E+02  0.10566000000E+00 0.  1.
         23    2    1    0    0    0  0.28359111487E+02  0.11124042259E+02  0.88180502966E+01  0.93376571747E+02  0.87826206907E+02 0.  0.
         13    1    3    3    0    0 -0.23230085747E+02 -0.17420823389E+02  0.17315238915E+02  0.33807552915E+02  0.10566000000E+00 0. -1.
         22    1    1    0    0    0 -0.28359111487E+02 -0.11124042259E+02 -0.88180502966E+01  0.31713428253E+02  0.00000000000E+00 0.  1.
</event>
<event>
 5    1  0.1250806E-009  0.9118800E+02  0.7561462E-02  0.1125453E+00
         25   -1    0    0    0    0  0.00000000000E+00  0.00000000000E+00  0.99999998245E-14  0.12509000000E+03  0.12509000000E+03 0.  0.
        -13    1    3    3    0    0  0.57407307528E+02 -0.13167779772E+02  0.13684034517E+02  0.60466960784E+02  0.10566000000E+00 0.  1.
         23    2    1    0    0    0  0.28811405765E+02  0.50143306048E+01  0.54119058345E+01  0.95348962051E+02  0.90591915897E+02 0.  0.
         13    1    3    3    0    0 -0.28595901763E+02  0.18182110377E+02 -0.82721286826E+01  0.34882001267E+02  0.10566000000E+00 0. -1.
         22    1    1    0    0    0 -0.28811405765E+02 -0.50143306048E+01 -0.54119058345E+01  0.29741037949E+02  0.00000000000E+00 0.  1.
</event>
<event>
 5    1  0.1250806E-009  0.9118800E+02  0.7561462E-02  0.1125453E+00
         25   -1    0    0    0    0  0.00000000000E+00  0.00000000000E+00  0.99999998245E-14  0.12509000000E+03  0.12509000000E+03 0.  0.
        -13    1    3    3    0    0 -0.16061365230E+02 -0.28277417340E+02 -0.48360214514E+02  0.58277794196E+02  0.10566000000E+00 0.  1.
         23    2    1    0    0    0  0.78827427171E+01 -0.17807938138E+02 -0.25539938944E+02  0.92972266973E+02  0.87248459307E+02 0.  0.
         13    1    3    3    0    0  0.23944107947E+02  0.10469479202E+02  0.22820275570E+02  0.34694472777E+02  0.10566000000E+00 0. -1.
         22    1    1    0    0    0 -0.78827427171E+01  0.17807938138E+02  0.25539938944E+02  0.32117733027E+02  0.00000000000E+00 0.  1.
</event>
<event>
 5    1  0.1250806E-009  0.9118800E+02  0.7561462E-02  0.1125453E+00
         25   -1    0    0    0    0  0.00000000000E+00  0.00000000000E+00  0.99999998245E-14  0.12509000000E+03  0.12509000000E+03 0.  0.
        -13    1    3    3    0    0 -0.33983867049E+02  0.20194184181E+02  0.45469914420E+02  0.60251411401E+02  0.10566000000E+00 0. -1.
         23    2    1    0    0    0 -0.18005607587E+02 -0.25151459381E+01  0.21500378607E+02  0.96933399638E+02  0.92753920788E+02 0.  0.
         13    1    3    3    0    0  0.15978259462E+02 -0.22709330120E+02 -0.23969535813E+02  0.36681988238E+02  0.10566000000E+00 0.  1.
         22    1    1    0    0    0  0.18005607587E+02  0.25151459381E+01 -0.21500378607E+02  0.28156600362E+02  0.00000000000E+00 0. -1.
</event>
<event>
 5    1  0.1250806E-009  0.9118800E+02  0.7561462E-02  0.1125453E+00
         25   -1    0    0    0    0  0.00000000000E+00  0.00000000000E+00  0.99999998245E-14  0.12509000000E+03  0.12509000000E+03 0.  0.
        -13    1    3    3    0    0  0.11994636340E+02  0.20293488127E+02  0.10087057657E+02  0.25640921541E+02  0.10566000000E+00 0.  1.
         23    2    1    0    0    0  0.23204795724E+01 -0.38407978847E+02  0.10751895336E+02  0.85138019850E+02  0.75181924065E+02 0.  0.
         13    1    3    3    0    0 -0.96741567674E+01 -0.58701466974E+02  0.66483767867E+00  0.59497098309E+02  0.10566000000E+00 0. -1.
         22    1    1    0    0    0 -0.23204795724E+01  0.38407978847E+02 -0.10751895336E+02  0.39951980150E+02  0.00000000000E+00 0. -1.
</event>
<event>
 5    1  0.1250806E-009  0.9118800E+02  0.7561462E-02  0.1125453E+00
         25   -1    0    0    0    0  0.00000000000E+00  0.00000000000E+00  0.99999998245E-14  0.12509000000E+03  0.12509000000E+03 0.  0.
        -13    1    3    3    0    0 -0.29994870006E+02  0.89376716612E+01 -0.16393734216E+02  0.35331853716E+02  0.10566000000E+00 0.  1.
         23    2    1    0    0    0  0.22177693967E+02 -0.12528256761E+02  0.10137514583E+02  0.97675103883E+02  0.93748863404E+02 0.  0.
         13    1    3    3    0    0  0.52172563973E+02 -0.21465928422E+02  0.26531248799E+02  0.62343250168E+02  0.10566000000E+00 0. -1.
         22    1    1    0    0    0 -0.22177693967E+02  0.12528256761E+02 -0.10137514583E+02  0.27414896117E+02  0.00000000000E+00 0. -1.
</event>
<event>
 5    1  0.1250806E-009  0.9118800E+02  0.7561462E-02  0.1125453E+00
         25   -1    0    0    0    0  0.00000000000E+00  0.00000000000E+00  0.99999998245E-14  0.12509000000E+03  0.12509000000E+03 0.  0.
        -13    1    3    3    0    0  0.12328400828E+02 -0.25474629263E+02 -0.17121794273E+02  0.33077382095E+02  0.10566000000E+00 0.  1.
         23    2    1    0    0    0  0.28959084837E+02 -0.96216986495E+01  0.27976247901E+02  0.83691012982E+02  0.72734514007E+02 0.  0.
         13    1    3    3    0    0  0.16630684009E+02  0.15852930614E+02  0.45098042174E+02  0.50613630887E+02  0.10566000000E+00 0. -1.
         22    1    1    0    0    0 -0.28959084837E+02  0.96216986495E+01 -0.27976247901E+02  0.41398987018E+02  0.00000000000E+00 0. -1.
</event>
<event>
 5    1  0.1250806E-009  0.9118800E+02  0.7561462E-02  0.1125453E+00
         25   -1    0    0    0    0  0.00000000000E+00  0.00000000000E+00  0.99999998245E-14  0.12509000000E+03  0.12509000000E+03 0.  0.
        -13    1    3    3    0    0  0.55433762170E+00 -0.45593667117E+02  0.38096595711E+02  0.59417602949E+02  0.10566000000E+00 0.  1.
         23    2    1    0    0    0 -0.12135636203E+02 -0.29887558094E+02  0.16973154329E+02  0.88639653462E+02  0.80798269803E+02 0.  0.
         13    1    3    3    0    0 -0.12689973824E+02  0.15706109024E+02 -0.21123441382E+02  0.29222050513E+02  0.10566000000E+00 0. -1.
         22    1    1    0    0    0  0.12135636203E+02  0.29887558094E+02 -0.16973154329E+02  0.36450346538E+02  0.00000000000E+00 0.  1.
</event>
<event>
 5    1  0.1250806E-009  0.9118800E+02  0.7561462E-02  0.1125453E+00
         25   -1    0    0    0    0  0.00000000000E+00  0.00000000000E+00  0.99999998245E-14  0.12509000000E+03  0.12509000000E+03 0.  0.
        -13    1    3    3    0    0 -0.25983532885E+02 -0.33854467684E+02  0.23292910597E+02  0.48619335778E+02  0.10566000000E+00 0.  1.
         23    2    1    0    0    0  0.13720041164E+02 -0.10037082821E+02  0.24892654506E+02  0.94946562746E+02  0.90034565406E+02 0.  0.
         13    1    3    3    0    0  0.39703574049E+02  0.23817384862E+02  0.15997439090E+01  0.46327226968E+02  0.10566000000E+00 0. -1.
         22    1    1    0    0    0 -0.13720041164E+02  0.10037082821E+02 -0.24892654506E+02  0.30143437254E+02  0.00000000000E+00 0. -1.
</event>
<event>
 5    1  0.1250806E-009  0.9118800E+02  0.7561462E-02  0.1125453E+00
         25   -1    0    0    0    0  0.00000000000E+00  0.00000000000E+00  0.99999998245E-14  0.12509000000E+03  0.12509000000E+03 0.  0.
        -13    1    3    3    0    0  0.31994047108E+02  0.38362982358E+02  0.33688773713E+02  0.60251822413E+02  0.10566000000E+00 0.  1.
         23    2    1    0    0    0  0.18481782842E+02  0.84789159676E+01  0.22155857423E+02  0.95017581887E+02  0.90133182217E+02 0.  0.
         13    1    3    3    0    0 -0.13512264266E+02 -0.29884066391E+02 -0.11532916290E+02  0.34765759474E+02  0.10566000000E+00 0. -1.
         22    1    1    0    0    0 -0.18481782842E+02 -0.84789159676E+01 -0.22155857423E+02  0.30072418113E+02  0.00000000000E+00 0.  1.
</event>
<event>
 5    1  0.1250806E-009  0.9118800E+02  0.7561462E-02  0.1125453E+00
         25   -1    0    0    0    0  0.00000000000E+00  0.00000000000E+00  0.99999998245E-14  0.12509000000E+03  0.12509000000E+03 0.  0.
        -13    1    3    3    0    0  0.36442362911E+01 -0.32599731647E+02 -0.21968442280E+02  0.39479698350E+02  0.10566000000E+00 0. -1.
         23    2    1    0    0    0  0.14626296524E+02  0.22329832242E+02 -0.59578554409E+01  0.97739570398E+02  0.93834842261E+02 0.  0.
         13    1    3    3    0    0  0.10982060233E+02  0.54929563889E+02  0.16010586839E+02  0.58259872047E+02  0.10566000000E+00 0.  1.
         22    1    1    0    0    0 -0.14626296524E+02 -0.22329832242E+02  0.59578554409E+01  0.27350429602E+02  0.00000000000E+00 0.  1.
</event>
<event>
 5    1  0.1250806E-009  0.9118800E+02  0.7561462E-02  0.1125453E+00
         25   -1    0    0    0    0  0.00000000000E+00  0.00000000000E+00  0.99999998245E-14  0.12509000000E+03  0.12509000000E+03 0.  0.
        -13    1    3    3    0    0  0.31971732058E+02  0.24204334700E+02 -0.89005512329E+00  0.40110408016E+02  0.10566000000E+00 0.  1.
         23    2    1    0    0    0 -0.15322261292E+02  0.87875931113E+00  0.22545170029E+02  0.97816778689E+02  0.93937711237E+02 0.  0.
         13    1    3    3    0    0 -0.47293993350E+02 -0.23325575389E+02  0.23435225153E+02  0.57706370673E+02  0.10566000000E+00 0. -1.
         22    1    1    0    0    0  0.15322261292E+02 -0.87875931113E+00 -0.22545170029E+02  0.27273221311E+02  0.00000000000E+00 0. -1.
</event>
<event>
 5    1  0.1250806E-009  0.9118800E+02  0.7561462E-02  0.1125453E+00
         25   -1    0    0    0    0  0.00000000000E+00  0.00000000000E+00  0.99999998245E-14  0.12509000000E+03  0.12509000000E+03 0.  0.
        -13    1    3    3    0    0  0.23296418519E+02 -0.55182182372E+02 -0.15711695146E+02  0.61924671138E+02  0.10566000000E+00 0.  1.
         23    2    1    0    0    0  0.14205051214E+02 -0.32344945781E+02 -0.28980295719E+01  0.89644583188E+02  0.82339381355E+02 0.  0.
         13    1    3    3    0    0 -0.90913673050E+01  0.22837236591E+02  0.12813665574E+02  0.27719912050E+02  0.10566000000E+00 0. -1.
         22    1    1    0    0    0 -0.14205051214E+02  0.32344945781E+02  0.28980295719E+01  0.35445416812E+02  0.00000000000E+00 0.  1.
</event>
<event>
 5    1  0.1250806E-009  0.9118800E+02  0.7561462E-02  0.1125453E+00
         25   -1    0    0    0    0  0.00000000000E+00  0.00000000000E+00  0.99999998245E-14  0.12509000000E+03  0.12509000000E+03 0.  0.
        -13    1    3    3    0    0  0.69323704496E+01 -0.58532022653E+02 -0.11390742753E+02  0.60031788416E+02  0.10566000000E+00 0. -1.
         23    2    1    0    0    0 -0.92125292464E+01 -0.22878618754E+02 -0.72149870221E+01  0.99392569604E+02  0.96013149951E+02 0.  0.
         13    1    3    3    0    0 -0.16144899696E+02  0.35653403899E+02  0.41757557309E+01  0.39360781188E+02  0.10566000000E+00 0.  1.
         22    1    1    0    0    0  0.92125292464E+01  0.22878618754E+02  0.72149870221E+01  0.25697430396E+02  0.00000000000E+00 0. -1.
</event>
<event>
 5    1  0.1250806E-009  0.9118800E+02  0.7561462E-02  0.1125453E+00
         25   -1    0    0    0    0  0.00000000000E+00  0.00000000000E+00  0.99999998245E-14  0.12509000000E+03  0.12509000000E+03 0.  0.
        -13    1    3    3    0    0 -0.12039882574E+01  0.21296704130E+02 -0.41677448933E+02  0.46819014387E+02  0.10566000000E+00 0.  1.
         23    2    1    0    0    0  0.12916448865E+02  0.26172710177E+02  0.46860021483E+01  0.95529823657E+02  0.90841307688E+02 0.  0.
         13    1    3    3    0    0  0.14120437123E+02  0.48760060477E+01  0.46363451082E+02  0.48710809270E+02  0.10566000000E+00 0. -1.
         22    1    1    0    0    0 -0.12916448865E+02 -0.26172710177E+02 -0.46860021483E+01  0.29560176343E+02  0.00000000000E+00 0. -1.
</event>
<event>
 5    1  0.1250806E-009  0.9118800E+02  0.7561462E-02  0.1125453E+00
         25   -1    0    0    0    0  0.00000000000E+00  0.00000000000E+00  0.99999998245E-14  0.12509000000E+03  0.12509000000E+03 0.  0.
        -13    1    3    3    0    0  0.11878128420E+01  0.19338219765E+02  0.53501284082E+02  0.56901460486E+02  0.10566000000E+00 0.  1.
         23    2    1    0    0    0  0.16176263557E+02  0.17814840648E+02  0.19407465508E+02  0.94175767559E+02  0.88957211219E+02 0.  0.
         13    1    3    3    0    0  0.14988450715E+02 -0.15233791168E+01 -0.34093818574E+02  0.37274307073E+02  0.10566000000E+00 0. -1.
         22    1    1    0    0    0 -0.16176263557E+02 -0.17814840648E+02 -0.19407465508E+02  0.30914232441E+02  0.00000000000E+00 0.  1.
</event>
<event>
 5    1  0.1250806E-009  0.9118800E+02  0.7561462E-02  0.1125453E+00
         25   -1    0    0    0    0  0.00000000000E+00  0.00000000000E+00  0.99999998245E-14  0.12509000000E+03  0.12509000000E+03 0.  0.
        -13    1    3    3    0    0  0.42598207551E+01 -0.40059570876E+01  0.32584999066E+02  0.33105695782E+02  0.10566000000E+00 0.  1.
         23    2    1    0    0    0 -0.27505591988E+01 -0.84192723366E+01 -0.28754578211E+02  0.95002203626E+02  0.90111837197E+02 0.  0.
         13    1    3    3    0    0 -0.70103799539E+01 -0.44133152490E+01 -0.61339577277E+02  0.61896507843E+02  0.10566000000E+00 0. -1.
         22    1    1    0    0    0  0.27505591988E+01  0.84192723366E+01  0.28754578211E+02  0.30087796374E+02  0.00000000000E+00 0. -1.
</event>
<event>
 5    1  0.1250806E-009  0.9118800E+02  0.7561462E-02  0.1125453E+00
         25   -1    0    0    0    0  0.00000000000E+00  0.00000000000E+00  0.99999998245E-14  0.12509000000E+03  0.12509000000E+03 0.  0.
        -13    1    3    3    0    0 -0.65223269116E+00 -0.24833578583E+02 -0.26167222371E+02  0.36081390264E+02  0.10566000000E+00 0.  1.
         23    2    1    0    0    0 -0.17248176114E+02  0.23746698680E+01  0.23953848495E+02  0.95477072182E+02  0.90768638960E+02 0.  0.
         13    1    3    3    0    0 -0.16595943422E+02  0.27208248451E+02  0.50121070865E+02  0.59395681919E+02  0.10566000000E+00 0. -1.
         22    1    1    0    0    0  0.17248176114E+02 -0.23746698680E+01 -0.23953848495E+02  0.29612927818E+02  0.00000000000E+00 0. -1.
</event>
<event>
 5    1  0.1250806E-009  0.9118800E+02  0.7561462E-02  0.1125453E+00
         25   -1    0    0    0    0  0.00000000000E+00  0.00000000000E+00  0.99999998245E-14  0.12509000000E+03  0.12509000000E+03 0.  0.
        -13    1    3    3    0    0  0.42805727544E+02 -0.24344444878E+02  0.23964699795E+02  0.54765868087E+02  0.10566000000E+00 0. -1.
         23    2    1    0    0    0  0.39741034382E+01 -0.22106741077E+02 -0.34679324998E+01  0.10236274643E+03  0.99807834367E+02 0.  0.
         13    1    3    3    0    0 -0.38831624106E+02  0.22377038010E+01 -0.27432632295E+02  0.47596878340E+02  0.10566000000E+00 0.  1.
         22    1    1    0    0    0 -0.39741034382E+01  0.22106741077E+02  0.34679324998E+01  0.22727253574E+02  0.00000000000E+00 0. -1.
</event>
<event>
 5    1  0.1250806E-009  0.9118800E+02  0.7561462E-02  0.1125453E+00
         25   -1    0    0    0    0  0.00000000000E+00  0.00000000000E+00  0.99999998245E-14  0.12509000000E+03  0.12509000000E+03 0.  0.
        -13    1    3    3    0    0  0.46153552893E+02  0.19107444550E+02 -0.32643315328E+02  0.59672791802E+02  0.10566000000E+00 0.  1.
         23    2    1    0    0    0  0.23656792904E+02  0.22812915330E+02 -0.25263172308E+02  0.83637607652E+02  0.72642608587E+02 0.  0.
         13    1    3    3    0    0 -0.22496759988E+02  0.37054707796E+01  0.73801430200E+01  0.23964815849E+02  0.10566000000E+00 0. -1.
         22    1    1    0    0    0 -0.23656792904E+02 -0.22812915330E+02  0.25263172308E+02  0.41452392348E+02  0.00000000000E+00 0.  1.
</event>
<event>
 5    1  0.1250806E-009  0.9118800E+02  0.7561462E-02  0.1125453E+00
         25   -1    0    0    0    0  0.00000000000E+00  0.00000000000E+00  0.99999998245E-14  0.12509000000E+03  0.12509000000E+03 0.  0.
        -13    1    3    3    0    0 -0.43818493578E+02 -0.28739960783E+02  0.16401958481E+02  0.54909754428E+02  0.10566000000E+00 0. -1.
         23    2    1    0    0    0 -0.18153173808E+02  0.21664294753E+01  0.23092487242E+02  0.95636747158E+02  0.90988424011E+02 0.  0.
         13    1    3    3    0    0  0.25665319771E+02  0.30906390258E+02  0.66905287606E+01  0.40726992730E+02  0.10566000000E+00 0.  1.
         22    1    1    0    0    0  0.18153173808E+02 -0.21664294753E+01 -0.23092487242E+02  0.29453252842E+02  0.00000000000E+00 0. -1.
</event>
<event>
 5    1  0.1250806E-009  0.9118800E+02  0.7561462E-02  0.1125453E+00
         25   -1    0    0    0    0  0.00000000000E+00  0.00000000000E+00  0.99999998245E-14  0.12509000000E+03  0.12509000000E+03 0.  0.
        -13    1    3    3    0    0 -0.50354602050E+02 -0.27093459757E+02  0.10547531776E+02  0.58145533791E+02  0.10566000000E+00 0.  1.
         23    2    1    0    0    0 -0.20681770964E+02 -0.61283729841E+01  0.19986047834E+02  0.95683628009E+02  0.91052852538E+02 0.  0.
         13    1    3    3    0    0  0.29672831086E+02  0.20965086773E+02  0.94385160588E+01  0.37538094218E+02  0.10566000000E+00 0. -1.
         22    1    1    0    0    0  0.20681770964E+02  0.61283729841E+01 -0.19986047834E+02  0.29406371991E+02  0.00000000000E+00 0.  1.
</event>
<event>
 5    1  0.1250806E-009  0.9118800E+02  0.7561462E-02  0.1125453E+00
         25   -1    0    0    0    0  0.00000000000E+00  0.00000000000E+00  0.99999998245E-14  0.12509000000E+03  0.12509000000E+03 0.  0.
        -13    1    3    3    0    0  0.24975242231E+02 -0.54542134323E+02 -0.10274620310E+02  0.60862025332E+02  0.10566000000E+00 0. -1.
         23    2    1    0    0    0  0.91132735560E+01 -0.23360026554E+02 -0.14537894374E+02  0.96105642696E+02  0.91630789529E+02 0.  0.
         13    1    3    3    0    0 -0.15861968675E+02  0.31182107768E+02 -0.42632740635E+01  0.35243617364E+02  0.10566000000E+00 0.  1.
         22    1    1    0    0    0 -0.91132735560E+01  0.23360026554E+02  0.14537894374E+02  0.28984357304E+02  0.00000000000E+00 0. -1.
</event>
<event>
 5    1  0.1250806E-009  0.9118800E+02  0.7561462E-02  0.1125453E+00
         25   -1    0    0    0    0  0.00000000000E+00  0.00000000000E+00  0.99999998245E-14  0.12509000000E+03  0.12509000000E+03 0.  0.
        -13    1    3    3    0    0 -0.36778329704E+02  0.10732994537E+02  0.18119184109E+02  0.42381112589E+02  0.10566000000E+00 0. -1.
         23    2    1    0    0    0  0.10116581406E+02  0.26450284624E+02 -0.38700291698E+01  0.96507839448E+02  0.92178214199E+02 0.  0.
         13    1    3    3    0    0  0.46894911110E+02  0.15717290088E+02 -0.21989213278E+02  0.54126726858E+02  0.10566000000E+00 0.  1.
         22    1    1    0    0    0 -0.10116581406E+02 -0.26450284624E+02  0.38700291698E+01  0.28582160552E+02  0.00000000000E+00 0.  1.
</event>
<event>
 5    1  0.1250806E-009  0.9118800E+02  0.7561462E-02  0.1125453E+00
         25   -1    0    0    0    0  0.00000000000E+00  0.00000000000E+00  0.99999998245E-14  0.12509000000E+03  0.12509000000E+03 0.  0.
        -13    1    3    3    0    0 -0.27555349196E+02  0.14109347049E+02 -0.46907644176E+02  0.56202394875E+02  0.10566000000E+00 0. -1.
         23    2    1    0    0    0  0.67215525374E+01  0.10680421749E+02 -0.25164409883E+02  0.96938655414E+02  0.92761008572E+02 0.  0.
         13    1    3    3    0    0  0.34276901733E+02 -0.34289253006E+01  0.21743234293E+02  0.40736260539E+02  0.10566000000E+00 0.  1.
         22    1    1    0    0    0 -0.67215525374E+01 -0.10680421749E+02  0.25164409883E+02  0.28151344586E+02  0.00000000000E+00 0.  1.
</event>
<event>
 5    1  0.1250806E-009  0.9118800E+02  0.7561462E-02  0.1125453E+00
         25   -1    0    0    0    0  0.00000000000E+00  0.00000000000E+00  0.99999998245E-14  0.12509000000E+03  0.12509000000E+03 0.  0.
        -13    1    3    3    0    0  0.77179702069E+01  0.17426171737E+02 -0.50089145749E+02  0.53592650722E+02  0.10566000000E+00 0.  1.
         23    2    1    0    0    0  0.12634501230E+02 -0.13768399328E+02 -0.24727249832E+02  0.94095866270E+02  0.88844784447E+02 0.  0.
         13    1    3    3    0    0  0.49165310228E+01 -0.31194571066E+02  0.25361895916E+02  0.40503215548E+02  0.10566000000E+00 0. -1.
         22    1    1    0    0    0 -0.12634501230E+02  0.13768399328E+02  0.24727249832E+02  0.30994133730E+02  0.00000000000E+00 0. -1.
</event>
<event>
 5    1  0.1250806E-009  0.9118800E+02  0.7561462E-02  0.1125453E+00
         25   -1    0    0    0    0  0.00000000000E+00  0.00000000000E+00  0.99999998245E-14  0.12509000000E+03  0.12509000000E+03 0.  0.
        -13    1    3    3    0    0 -0.54274913960E+01 -0.31552410432E+02  0.12073702120E+02  0.34216921455E+02  0.10566000000E+00 0.  1.
         23    2    1    0    0    0  0.18198335197E+02  0.23601129466E+02  0.72938374394E+01  0.94407875227E+02  0.89283000197E+02 0.  0.
         13    1    3    3    0    0  0.23625826593E+02  0.55153539898E+02 -0.47798646811E+01  0.60190953771E+02  0.10566000000E+00 0. -1.
         22    1    1    0    0    0 -0.18198335197E+02 -0.23601129466E+02 -0.72938374394E+01  0.30682124773E+02  0.00000000000E+00 0. -1.
</event>
<event>
 5    1  0.1250806E-009  0.9118800E+02  0.7561462E-02  0.1125453E+00
         25   -1    0    0    0    0  0.00000000000E+00  0.00000000000E+00  0.99999998245E-14  0.12509000000E+03  0.12509000000E+03 0.  0.
        -13    1    3    3    0    0  0.49060066982E+02  0.21988898432E+02  0.28014826483E+02  0.60623786532E+02  0.10566000000E+00 0. -1.
         23    2    1    0    0    0  0.16956915124E+02  0.18696758402E+02  0.16713688513E+02  0.94817023123E+02  0.89854408601E+02 0.  0.
         13    1    3    3    0    0 -0.32103151858E+02 -0.32921400304E+01 -0.11301137970E+02  0.34193236592E+02  0.10566000000E+00 0.  1.
         22    1    1    0    0    0 -0.16956915124E+02 -0.18696758402E+02 -0.16713688513E+02  0.30272976877E+02  0.00000000000E+00 0. -1.
</event>
<event>
 5    1  0.1250806E-009  0.9118800E+02  0.7561462E-02  0.1125453E+00
         25   -1    0    0    0    0  0.00000000000E+00  0.00000000000E+00  0.99999998245E-14  0.12509000000E+03  0.12509000000E+03 0.  0.
        -13    1    3    3    0    0  0.43475257555E+02  0.23404253136E+02 -0.37918730706E+02  0.62255107315E+02  0.10566000000E+00 0. -1.
         23    2    1    0    0    0  0.22846635968E+02  0.16361707998E+02 -0.18519721601E+02  0.91435069427E+02  0.85015984199E+02 0.  0.
         13    1    3    3    0    0 -0.20628621587E+02 -0.70425451389E+01  0.19399009105E+02  0.29179962113E+02  0.10566000000E+00 0.  1.
         22    1    1    0    0    0 -0.22846635968E+02 -0.16361707998E+02  0.18519721601E+02  0.33654930573E+02  0.00000000000E+00 0. -1.
</event>
<event>
 5    1  0.1250806E-009  0.9118800E+02  0.7561462E-02  0.1125453E+00
         25   -1    0    0    0    0  0.00000000000E+00  0.00000000000E+00  0.99999998245E-14  0.12509000000E+03  0.12509000000E+03 0.  0.
        -13    1    3    3    0    0  0.45483119438E+02  0.29236457482E+02  0.26943383854E+02  0.60410609146E+02  0.10566000000E+00 0. -1.
         23    2    1    0    0    0  0.28775038374E+02  0.10735553643E+02  0.43190768270E+01  0.94075336209E+02  0.88815874216E+02 0.  0.
         13    1    3    3    0    0 -0.16708081064E+02 -0.18500903838E+02 -0.22624307027E+02  0.33664727062E+02  0.10566000000E+00 0.  1.
         22    1    1    0    0    0 -0.28775038374E+02 -0.10735553643E+02 -0.43190768270E+01  0.31014663791E+02  0.00000000000E+00 0. -1.
</event>
<event>
 5    1  0.1250806E-009  0.9118800E+02  0.7561462E-02  0.1125453E+00
         25   -1    0    0    0    0  0.00000000000E+00  0.00000000000E+00  0.99999998245E-14  0.12509000000E+03  0.12509000000E+03 0.  0.
        -13    1    3    3    0    0  0.14962835842E+02  0.13862260622E+02 -0.13131395715E+02  0.24258883805E+02  0.10566000000E+00 0. -1.
         23    2    1    0    0    0 -0.68254319444E+01 -0.94921665483E+01  0.38435198998E+02  0.84915975195E+02  0.74811567115E+02 0.  0.
         13    1    3    3    0    0 -0.21788267787E+02 -0.23354427171E+02  0.51566594713E+02  0.60657091390E+02  0.10566000000E+00 0.  1.
         22    1    1    0    0    0  0.68254319444E+01  0.94921665483E+01 -0.38435198998E+02  0.40174024805E+02  0.00000000000E+00 0.  1.
</event>
<event>
 5    1  0.1250806E-009  0.9118800E+02  0.7561462E-02  0.1125453E+00
         25   -1    0    0    0    0  0.00000000000E+00  0.00000000000E+00  0.99999998245E-14  0.12509000000E+03  0.12509000000E+03 0.  0.
        -13    1    3    3    0    0  0.34125945908E+02  0.10060182497E+02 -0.15337646049E+02  0.38743283371E+02  0.10566000000E+00 0. -1.
         23    2    1    0    0    0 -0.56400226840E+01  0.68076934450E+01  0.26857310659E+02  0.96815105098E+02  0.92594248705E+02 0.  0.
         13    1    3    3    0    0 -0.39765968591E+02 -0.32524890523E+01  0.42194956708E+02  0.58071821727E+02  0.10566000000E+00 0.  1.
         22    1    1    0    0    0  0.56400226840E+01 -0.68076934450E+01 -0.26857310659E+02  0.28274894902E+02  0.00000000000E+00 0.  1.
</event>
<event>
 5    1  0.1250806E-009  0.9118800E+02  0.7561462E-02  0.1125453E+00
         25   -1    0    0    0    0  0.00000000000E+00  0.00000000000E+00  0.99999998245E-14  0.12509000000E+03  0.12509000000E+03 0.  0.
        -13    1    3    3    0    0  0.13981108322E+01  0.39747673193E+02 -0.36773624206E+02  0.54167728764E+02  0.10566000000E+00 0. -1.
         23    2    1    0    0    0 -0.13015703595E+02  0.72574450037E+00 -0.24160694976E+02  0.97636868542E+02  0.93697831735E+02 0.  0.
         13    1    3    3    0    0 -0.14413814427E+02 -0.39021928693E+02  0.12612929231E+02  0.43469139778E+02  0.10566000000E+00 0.  1.
         22    1    1    0    0    0  0.13015703595E+02 -0.72574450037E+00  0.24160694976E+02  0.27453131458E+02  0.00000000000E+00 0. -1.
</event>
<event>
 5    1  0.1250806E-009  0.9118800E+02  0.7561462E-02  0.1125453E+00
         25   -1    0    0    0    0  0.00000000000E+00  0.00000000000E+00  0.99999998245E-14  0.12509000000E+03  0.12509000000E+03 0.  0.
        -13    1    3    3    0    0  0.44400283457E+02 -0.67492838149E+01  0.27069586546E+02  0.52437693340E+02  0.10566000000E+00 0. -1.
         23    2    1    0    0    0  0.20012061528E+02 -0.28429778892E+02  0.14896403971E+02  0.87266227241E+02  0.78643223683E+02 0.  0.
         13    1    3    3    0    0 -0.24388221929E+02 -0.21680495077E+02 -0.12173182575E+02  0.34828533901E+02  0.10566000000E+00 0.  1.
         22    1    1    0    0    0 -0.20012061528E+02  0.28429778892E+02 -0.14896403971E+02  0.37823772759E+02  0.00000000000E+00 0. -1.
</event>
<event>
 5    1  0.1250806E-009  0.9118800E+02  0.7561462E-02  0.1125453E+00
         25   -1    0    0    0    0  0.00000000000E+00  0.00000000000E+00  0.99999998245E-14  0.12509000000E+03  0.12509000000E+03 0.  0.
        -13    1    3    3    0    0  0.25172017831E+02 -0.13372133757E+02  0.19588511058E+02  0.34585623782E+02  0.10566000000E+00 0.  1.
         23    2    1    0    0    0 -0.15002668725E+02  0.22288652457E+02 -0.10601393727E+02  0.96206550652E+02  0.91768440884E+02 0.  0.
         13    1    3    3    0    0 -0.40174686557E+02  0.35660786214E+02 -0.30189904786E+02  0.61620926870E+02  0.10566000000E+00 0. -1.
         22    1    1    0    0    0  0.15002668725E+02 -0.22288652457E+02  0.10601393727E+02  0.28883449348E+02  0.00000000000E+00 0. -1.
</event>
<event>
 5    1  0.1250806E-009  0.9118800E+02  0.7561462E-02  0.1125453E+00
         25   -1    0    0    0    0  0.00000000000E+00  0.00000000000E+00  0.99999998245E-14  0.12509000000E+03  0.12509000000E+03 0.  0.
        -13    1    3    3    0    0  0.52388524475E+02 -0.24151101272E+02 -0.16084274017E+02  0.59887796954E+02  0.10566000000E+00 0.  1.
         23    2    1    0    0    0  0.26441219264E+02  0.10510196885E+01 -0.11069748290E+02  0.96405822380E+02  0.92039668312E+02 0.  0.
         13    1    3    3    0    0 -0.25947305212E+02  0.25202120961E+02  0.50145257273E+01  0.36518025425E+02  0.10566000000E+00 0. -1.
         22    1    1    0    0    0 -0.26441219264E+02 -0.10510196885E+01  0.11069748290E+02  0.28684177620E+02  0.00000000000E+00 0.  1.
</event>
<event>
 5    1  0.1250806E-009  0.9118800E+02  0.7561462E-02  0.1125453E+00
         25   -1    0    0    0    0  0.00000000000E+00  0.00000000000E+00  0.99999998245E-14  0.12509000000E+03  0.12509000000E+03 0.  0.
        -13    1    3    3    0    0  0.64543969507E+01  0.24410263242E+00 -0.51194039525E+02  0.51599996832E+02  0.10566000000E+00 0. -1.
         23    2    1    0    0    0  0.21325252076E+02 -0.15731228755E+02 -0.13039960855E+02  0.95555638430E+02  0.90876848110E+02 0.  0.
         13    1    3    3    0    0  0.14870855125E+02 -0.15975331387E+02  0.38154078670E+02  0.43955641598E+02  0.10566000000E+00 0.  1.
         22    1    1    0    0    0 -0.21325252076E+02  0.15731228755E+02  0.13039960855E+02  0.29534361570E+02  0.00000000000E+00 0. -1.
</event>
<event>
 5    1  0.1250806E-009  0.9118800E+02  0.7561462E-02  0.1125453E+00
         25   -1    0    0    0    0  0.00000000000E+00  0.00000000000E+00  0.99999998245E-14  0.12509000000E+03  0.12509000000E+03 0.  0.
        -13    1    3    3    0    0  0.18668980268E+02  0.25227951804E+02  0.16163986354E+02  0.35302492764E+02  0.10566000000E+00 0.  1.
         23    2    1    0    0    0 -0.16129783897E+02 -0.21553615727E+02 -0.57003927188E+01  0.97572319200E+02  0.93611616359E+02 0.  0.
         13    1    3    3    0    0 -0.34798764165E+02 -0.46781567532E+02 -0.21864379072E+02  0.62269826436E+02  0.10566000000E+00 0. -1.
         22    1    1    0    0    0  0.16129783897E+02  0.21553615727E+02  0.57003927188E+01  0.27517680800E+02  0.00000000000E+00 0. -1.
</event>
<event>
 5    1  0.1250806E-009  0.9118800E+02  0.7561462E-02  0.1125453E+00
         25   -1    0    0    0    0  0.00000000000E+00  0.00000000000E+00  0.99999998245E-14  0.12509000000E+03  0.12509000000E+03 0.  0.
        -13    1    3    3    0    0 -0.28248960098E+02  0.38504168564E+02  0.21006599554E+02  0.52171478149E+02  0.10566000000E+00 0.  1.
         23    2    1    0    0    0  0.61475195947E+01  0.12855842105E+02  0.26073905000E+02  0.95376144724E+02  0.90629442164E+02 0.  0.
         13    1    3    3    0    0  0.34396479692E+02 -0.25648326459E+02  0.50673054469E+01  0.43204666575E+02  0.10566000000E+00 0. -1.
         22    1    1    0    0    0 -0.61475195947E+01 -0.12855842105E+02 -0.26073905000E+02  0.29713855276E+02  0.00000000000E+00 0.  1.
</event>
<event>
 5    1  0.1250806E-009  0.9118800E+02  0.7561462E-02  0.1125453E+00
         25   -1    0    0    0    0  0.00000000000E+00  0.00000000000E+00  0.99999998245E-14  0.12509000000E+03  0.12509000000E+03 0.  0.
        -13    1    3    3    0    0  0.28136648817E+02  0.18526593093E+02 -0.39896483369E+02  0.52217297973E+02  0.10566000000E+00 0.  1.
         23    2    1    0    0    0 -0.86942009400E+01  0.86697191481E+01 -0.31532915603E+02  0.91250999918E+02  0.84744717001E+02 0.  0.
         13    1    3    3    0    0 -0.36830849757E+02 -0.98568739448E+01  0.83635677661E+01  0.39033701946E+02  0.10566000000E+00 0. -1.
         22    1    1    0    0    0  0.86942009400E+01 -0.86697191481E+01  0.31532915603E+02  0.33839000082E+02  0.00000000000E+00 0.  1.
</event>
<event>
 5    1  0.1250806E-009  0.9118800E+02  0.7561462E-02  0.1125453E+00
         25   -1    0    0    0    0  0.00000000000E+00  0.00000000000E+00  0.99999998245E-14  0.12509000000E+03  0.12509000000E+03 0.  0.
        -13    1    3    3    0    0  0.11185169488E+02  0.18836521893E+02  0.32291812351E+02  0.39021723212E+02  0.10566000000E+00 0.  1.
         23    2    1    0    0    0 -0.27026962849E+02  0.11817805708E+02 -0.75195224536E+01  0.94648901621E+02  0.89620054159E+02 0.  0.
         13    1    3    3    0    0 -0.38212132338E+02 -0.70187161848E+01 -0.39811334805E+02  0.55627178408E+02  0.10566000000E+00 0. -1.
         22    1    1    0    0    0  0.27026962849E+02 -0.11817805708E+02  0.75195224536E+01  0.30441098379E+02  0.00000000000E+00 0. -1.
</event>
<event>
 5    1  0.1250806E-009  0.9118800E+02  0.7561462E-02  0.1125453E+00
         25   -1    0    0    0    0  0.00000000000E+00  0.00000000000E+00  0.99999998245E-14  0.12509000000E+03  0.12509000000E+03 0.  0.
        -13    1    3    3    0    0 -0.51974790562E+02  0.78653310229E+01 -0.13463290052E+02  0.54263372814E+02  0.10566000000E+00 0. -1.
         23    2    1    0    0    0 -0.23150696579E+02 -0.18651182465E+02 -0.10762564376E+01  0.95341391842E+02  0.90581462292E+02 0.  0.
         13    1    3    3    0    0  0.28824093983E+02 -0.26516513487E+02  0.12387033614E+02  0.41078019028E+02  0.10566000000E+00 0.  1.
         22    1    1    0    0    0  0.23150696579E+02  0.18651182465E+02  0.10762564376E+01  0.29748608158E+02  0.00000000000E+00 0. -1.
</event>
<event>
 5    1  0.1250806E-009  0.9118800E+02  0.7561462E-02  0.1125453E+00
         25   -1    0    0    0    0  0.00000000000E+00  0.00000000000E+00  0.99999998245E-14  0.12509000000E+03  0.12509000000E+03 0.  0.
        -13    1    3    3    0    0 -0.38231848719E+02 -0.11141653786E+02  0.37544073201E+02  0.54730058488E+02  0.10566000000E+00 0. -1.
         23    2    1    0    0    0 -0.17811858440E+02  0.17006281261E+02  0.13524058233E+02  0.96994163040E+02  0.92835831494E+02 0.  0.
         13    1    3    3    0    0  0.20419990279E+02  0.28147935047E+02 -0.24020014968E+02  0.42264104551E+02  0.10566000000E+00 0.  1.
         22    1    1    0    0    0  0.17811858440E+02 -0.17006281261E+02 -0.13524058233E+02  0.28095836960E+02  0.00000000000E+00 0. -1.
</event>
<event>
 5    1  0.1250806E-009  0.9118800E+02  0.7561462E-02  0.1125453E+00
         25   -1    0    0    0    0  0.00000000000E+00  0.00000000000E+00  0.99999998245E-14  0.12509000000E+03  0.12509000000E+03 0.  0.
        -13    1    3    3    0    0 -0.98698446362E+01  0.10765565455E+02 -0.54707822624E+02  0.56623919443E+02  0.10566000000E+00 0.  1.
         23    2    1    0    0    0  0.12618866233E+02  0.13521873358E+02 -0.23711758222E+02  0.95018014331E+02  0.90133782375E+02 0.  0.
         13    1    3    3    0    0  0.22488710869E+02  0.27563079028E+01  0.30996064402E+02  0.38394094888E+02  0.10566000000E+00 0. -1.
         22    1    1    0    0    0 -0.12618866233E+02 -0.13521873358E+02  0.23711758222E+02  0.30071985669E+02  0.00000000000E+00 0.  1.
</event>
<event>
 5    1  0.1250806E-009  0.9118800E+02  0.7561462E-02  0.1125453E+00
         25   -1    0    0    0    0  0.00000000000E+00  0.00000000000E+00  0.99999998245E-14  0.12509000000E+03  0.12509000000E+03 0.  0.
        -13    1    3    3    0    0  0.25484497885E+02 -0.25333319523E+02 -0.95154833888E+01  0.37172466944E+02  0.10566000000E+00 0.  1.
         23    2    1    0    0    0  0.24043585049E+01  0.22983573597E+02  0.16490933993E+02  0.96700274762E+02  0.92438988744E+02 0.  0.
         13    1    3    3    0    0 -0.23080139380E+02  0.48316893121E+02  0.26006417381E+02  0.59527807819E+02  0.10566000000E+00 0. -1.
         22    1    1    0    0    0 -0.24043585049E+01 -0.22983573597E+02 -0.16490933993E+02  0.28389725238E+02  0.00000000000E+00 0. -1.
</event>
<event>
 5    1  0.1250806E-009  0.9118800E+02  0.7561462E-02  0.1125453E+00
         25   -1    0    0    0    0  0.00000000000E+00  0.00000000000E+00  0.99999998245E-14  0.12509000000E+03  0.12509000000E+03 0.  0.
        -13    1    3    3    0    0  0.41764870045E+02  0.30184107491E+02  0.21352665321E+02  0.55779316913E+02  0.10566000000E+00 0. -1.
         23    2    1    0    0    0  0.29478953783E+02 -0.36800268855E+01  0.69205372301E+01  0.94586800995E+02  0.89533333306E+02 0.  0.
         13    1    3    3    0    0 -0.12285916262E+02 -0.33864134377E+02 -0.14432128091E+02  0.38807484082E+02  0.10566000000E+00 0.  1.
         22    1    1    0    0    0 -0.29478953783E+02  0.36800268855E+01 -0.69205372301E+01  0.30503199005E+02  0.00000000000E+00 0. -1.
</event>
<event>
 5    1  0.1250806E-009  0.9118800E+02  0.7561462E-02  0.1125453E+00
         25   -1    0    0    0    0  0.00000000000E+00  0.00000000000E+00  0.99999998245E-14  0.12509000000E+03  0.12509000000E+03 0.  0.
        -13    1    3    3    0    0 -0.16804991080E+02 -0.40575670849E+02 -0.35111413690E+01  0.44058280354E+02  0.10566000000E+00 0.  1.
         23    2    1    0    0    0 -0.12804134856E+02  0.11369184239E+01  0.26524346957E+02  0.95614935379E+02  0.90958432447E+02 0.  0.
         13    1    3    3    0    0  0.40008562243E+01  0.41712589272E+02  0.30035488326E+02  0.51556655025E+02  0.10566000000E+00 0. -1.
         22    1    1    0    0    0  0.12804134856E+02 -0.11369184239E+01 -0.26524346957E+02  0.29475064621E+02  0.00000000000E+00 0.  1.
</event>
<event>
 5    1  0.1250806E-009  0.9118800E+02  0.7561462E-02  0.1125453E+00
         25   -1    0    0    0    0  0.00000000000E+00  0.00000000000E+00  0.99999998245E-14  0.12509000000E+03  0.12509000000E+03 0.  0.
        -13    1    3    3    0    0  0.19997533449E+01 -0.30756172376E+02 -0.29902095348E+02  0.42942841346E+02  0.10566000000E+00 0.  1.
         23    2    1    0    0    0 -0.28709829763E+02 -0.24162146375E+01  0.29912591777E+01  0.96123811958E+02  0.91655589986E+02 0.  0.
         13    1    3    3    0    0 -0.30709583108E+02  0.28339957738E+02  0.32893354525E+02  0.53180970612E+02  0.10566000000E+00 0. -1.
         22    1    1    0    0    0  0.28709829763E+02  0.24162146375E+01 -0.29912591777E+01  0.28966188042E+02  0.00000000000E+00 0. -1.
</event>
<event>
 5    1  0.1250806E-009  0.9118800E+02  0.7561462E-02  0.1125453E+00
         25   -1    0    0    0    0  0.00000000000E+00  0.00000000000E+00  0.99999998245E-14  0.12509000000E+03  0.12509000000E+03 0.  0.
        -13    1    3    3    0    0 -0.77529250152E+01  0.18637765237E+02 -0.30753705531E+02  0.36786895863E+02  0.10566000000E+00 0.  1.
         23    2    1    0    0    0  0.10479368349E+02 -0.24778182618E+02  0.71695263151E+01  0.97247988535E+02  0.93177216484E+02 0.  0.
         13    1    3    3    0    0  0.18232293365E+02 -0.43415947855E+02  0.37923231846E+02  0.60461092672E+02  0.10566000000E+00 0. -1.
         22    1    1    0    0    0 -0.10479368349E+02  0.24778182618E+02 -0.71695263151E+01  0.27842011465E+02  0.00000000000E+00 0. -1.
</event>
<event>
 5    1  0.1250806E-009  0.9118800E+02  0.7561462E-02  0.1125453E+00
         25   -1    0    0    0    0  0.00000000000E+00  0.00000000000E+00  0.99999998245E-14  0.12509000000E+03  0.12509000000E+03 0.  0.
        -13    1    3    3    0    0 -0.34102238876E+02 -0.17561428067E+02  0.41327125399E+02  0.56385360776E+02  0.10566000000E+00 0. -1.
         23    2    1    0    0    0 -0.79702653854E+01 -0.25666855081E+02  0.15216069620E+02  0.94205677849E+02  0.88999260583E+02 0.  0.
         13    1    3    3    0    0  0.26131973490E+02 -0.81054270139E+01 -0.26111055779E+02  0.37820317073E+02  0.10566000000E+00 0.  1.
         22    1    1    0    0    0  0.79702653854E+01  0.25666855081E+02 -0.15216069620E+02  0.30884322151E+02  0.00000000000E+00 0. -1.
</event>
<event>
 5    1  0.1250806E-009  0.9118800E+02  0.7561462E-02  0.1125453E+00
         25   -1    0    0    0    0  0.00000000000E+00  0.00000000000E+00  0.99999998245E-14  0.12509000000E+03  0.12509000000E+03 0.  0.
        -13    1    3    3    0    0  0.36596015873E+02  0.44476940572E+02 -0.88697758139E+01  0.58276502189E+02  0.10566000000E+00 0.  1.
         23    2    1    0    0    0  0.47282253026E+01  0.28848277007E+02 -0.11051727739E+02  0.93837481912E+02  0.88480241437E+02 0.  0.
         13    1    3    3    0    0 -0.31867790570E+02 -0.15628663564E+02 -0.21819519250E+01  0.35560979723E+02  0.10566000000E+00 0. -1.
         22    1    1    0    0    0 -0.47282253026E+01 -0.28848277007E+02  0.11051727739E+02  0.31252518088E+02  0.00000000000E+00 0.  1.
</event>
<event>
 5    1  0.1250806E-009  0.9118800E+02  0.7561462E-02  0.1125453E+00
         25   -1    0    0    0    0  0.00000000000E+00  0.00000000000E+00  0.99999998245E-14  0.12509000000E+03  0.12509000000E+03 0.  0.
        -13    1    3    3    0    0  0.50579337689E+01 -0.16299472300E+02  0.44300749559E+02  0.47474446461E+02  0.10566000000E+00 0.  1.
         23    2    1    0    0    0  0.30724264108E+02 -0.74643604654E+01  0.85990671797E+01  0.92323537901E+02  0.86313351296E+02 0.  0.
         13    1    3    3    0    0  0.25666330339E+02  0.88351118349E+01 -0.35701682379E+02  0.44849091440E+02  0.10566000000E+00 0. -1.
         22    1    1    0    0    0 -0.30724264108E+02  0.74643604654E+01 -0.85990671797E+01  0.32766462099E+02  0.00000000000E+00 0. -1.
</event>
<event>
 5    1  0.1250806E-009  0.9118800E+02  0.7561462E-02  0.1125453E+00
         25   -1    0    0    0    0  0.00000000000E+00  0.00000000000E+00  0.99999998245E-14  0.12509000000E+03  0.12509000000E+03 0.  0.
        -13    1    3    3    0    0  0.13892471793E+02 -0.18750020846E+02 -0.37808098301E+02  0.44430029433E+02  0.10566000000E+00 0. -1.
         23    2    1    0    0    0 -0.22643032025E+02  0.99594193285E+01 -0.14546304986E+02  0.96393451054E+02  0.92022853057E+02 0.  0.
         13    1    3    3    0    0 -0.36535503818E+02  0.28709440175E+02  0.23261793315E+02  0.51963421621E+02  0.10566000000E+00 0.  1.
         22    1    1    0    0    0  0.22643032025E+02 -0.99594193285E+01  0.14546304986E+02  0.28696548946E+02  0.00000000000E+00 0.  1.
</event>
<event>
 5    1  0.1250806E-009  0.9118800E+02  0.7561462E-02  0.1125453E+00
         25   -1    0    0    0    0  0.00000000000E+00  0.00000000000E+00  0.99999998245E-14  0.12509000000E+03  0.12509000000E+03 0.  0.
        -13    1    3    3    0    0 -0.66907786806E+01 -0.46203065222E+02 -0.91020211259E+01  0.47564143090E+02  0.10566000000E+00 0.  1.
         23    2    1    0    0    0 -0.19755172765E+01  0.89519953901E+01  0.14655697522E+02  0.10780328950E+03  0.10640826503E+03 0.  0.
         13    1    3    3    0    0  0.47152614041E+01  0.55155060612E+02  0.23757718648E+02  0.60239146413E+02  0.10566000000E+00 0. -1.
         22    1    1    0    0    0  0.19755172765E+01 -0.89519953901E+01 -0.14655697522E+02  0.17286710497E+02  0.00000000000E+00 0.  1.
</event>
<event>
 5    1  0.1250806E-009  0.9118800E+02  0.7561462E-02  0.1125453E+00
         25   -1    0    0    0    0  0.00000000000E+00  0.00000000000E+00  0.99999998245E-14  0.12509000000E+03  0.12509000000E+03 0.  0.
        -13    1    3    3    0    0  0.33893971428E+02 -0.14100931124E+02 -0.38845840835E+02  0.53447619890E+02  0.10566000000E+00 0. -1.
         23    2    1    0    0    0 -0.96550224197E-03 -0.24571275129E+02 -0.18397972073E+02  0.94394186950E+02  0.89263820169E+02 0.  0.
         13    1    3    3    0    0 -0.33894936930E+02 -0.10470344005E+02  0.20447868762E+02  0.40946567060E+02  0.10566000000E+00 0.  1.
         22    1    1    0    0    0  0.96550224197E-03  0.24571275129E+02  0.18397972073E+02  0.30695813050E+02  0.00000000000E+00 0.  1.
</event>
<event>
 5    1  0.1250806E-009  0.9118800E+02  0.7561462E-02  0.1125453E+00
         25   -1    0    0    0    0  0.00000000000E+00  0.00000000000E+00  0.99999998245E-14  0.12509000000E+03  0.12509000000E+03 0.  0.
        -13    1    3    3    0    0  0.44521462824E+02  0.90166160861E+01 -0.30898329438E+02  0.54937946301E+02  0.10566000000E+00 0.  1.
         23    2    1    0    0    0  0.25416464832E+01  0.15160273870E+02 -0.21940580582E+02  0.98300394797E+02  0.94579515067E+02 0.  0.
         13    1    3    3    0    0 -0.41979816341E+02  0.61436577843E+01  0.89577488560E+01  0.43362448496E+02  0.10566000000E+00 0. -1.
         22    1    1    0    0    0 -0.25416464832E+01 -0.15160273870E+02  0.21940580582E+02  0.26789605203E+02  0.00000000000E+00 0.  1.
</event>
<event>
 5    1  0.1250806E-009  0.9118800E+02  0.7561462E-02  0.1125453E+00
         25   -1    0    0    0    0  0.00000000000E+00  0.00000000000E+00  0.99999998245E-14  0.12509000000E+03  0.12509000000E+03 0.  0.
        -13    1    3    3    0    0 -0.39782376654E+02  0.46440797303E+02 -0.41956913090E+01  0.61294372792E+02  0.10566000000E+00 0. -1.
         23    2    1    0    0    0 -0.15299930475E+02  0.23327286107E+02 -0.99885454637E+01  0.95458577656E+02  0.90743147719E+02 0.  0.
         13    1    3    3    0    0  0.24482446179E+02 -0.23113511196E+02 -0.57928541547E+01  0.34164204864E+02  0.10566000000E+00 0.  1.
         22    1    1    0    0    0  0.15299930475E+02 -0.23327286107E+02  0.99885454637E+01  0.29631422344E+02  0.00000000000E+00 0. -1.
</event>
<event>
 5    1  0.1250806E-009  0.9118800E+02  0.7561462E-02  0.1125453E+00
         25   -1    0    0    0    0  0.00000000000E+00  0.00000000000E+00  0.99999998245E-14  0.12509000000E+03  0.12509000000E+03 0.  0.
        -13    1    3    3    0    0 -0.32439135813E+02 -0.18998774772E+02 -0.42556529408E+01  0.37833486769E+02  0.10566000000E+00 0. -1.
         23    2    1    0    0    0  0.28236949793E+01  0.26877635773E+02 -0.10635321240E+02  0.96047090091E+02  0.91550821400E+02 0.  0.
         13    1    3    3    0    0  0.35262830792E+02  0.45876410546E+02 -0.63796682996E+01  0.58213603322E+02  0.10566000000E+00 0.  1.
         22    1    1    0    0    0 -0.28236949793E+01 -0.26877635773E+02  0.10635321240E+02  0.29042909909E+02  0.00000000000E+00 0.  1.
</event>
<event>
 5    1  0.1250806E-009  0.9118800E+02  0.7561462E-02  0.1125453E+00
         25   -1    0    0    0    0  0.00000000000E+00  0.00000000000E+00  0.99999998245E-14  0.12509000000E+03  0.12509000000E+03 0.  0.
        -13    1    3    3    0    0  0.17522822121E+02  0.14064385931E+01  0.26924903223E+02  0.32155698441E+02  0.10566000000E+00 0.  1.
         23    2    1    0    0    0 -0.21779867375E+02  0.68693509962E+01 -0.20784780444E+02  0.94210270336E+02  0.89005715169E+02 0.  0.
         13    1    3    3    0    0 -0.39302689496E+02  0.54629124031E+01 -0.47709683667E+02  0.62054571896E+02  0.10566000000E+00 0. -1.
         22    1    1    0    0    0  0.21779867375E+02 -0.68693509962E+01  0.20784780444E+02  0.30879729664E+02  0.00000000000E+00 0. -1.
</event>
<event>
 5    1  0.1250806E-009  0.9118800E+02  0.7561462E-02  0.1125453E+00
         25   -1    0    0    0    0  0.00000000000E+00  0.00000000000E+00  0.99999998245E-14  0.12509000000E+03  0.12509000000E+03 0.  0.
        -13    1    3    3    0    0  0.24929700081E+02  0.22371099608E+02  0.22283041544E+02  0.40230599651E+02  0.10566000000E+00 0. -1.
         23    2    1    0    0    0 -0.19514244557E-01 -0.25620952007E+02  0.16470021988E+02  0.94631910978E+02  0.89596335798E+02 0.  0.
         13    1    3    3    0    0 -0.24949214325E+02 -0.47992051616E+02 -0.58130195558E+01  0.54401311327E+02  0.10566000000E+00 0.  1.
         22    1    1    0    0    0  0.19514244557E-01  0.25620952007E+02 -0.16470021988E+02  0.30458089022E+02  0.00000000000E+00 0.  1.
</event>
<event>
 5    1  0.1250806E-009  0.9118800E+02  0.7561462E-02  0.1125453E+00
         25   -1    0    0    0    0  0.00000000000E+00  0.00000000000E+00  0.99999998245E-14  0.12509000000E+03  0.12509000000E+03 0.  0.
        -13    1    3    3    0    0  0.29106698050E+02  0.35913716447E+02  0.31682827504E+02  0.56042908767E+02  0.10566000000E+00 0. -1.
         23    2    1    0    0    0  0.26385343013E+02  0.11979722774E+02 -0.33525199744E+00  0.96110481758E+02  0.91637395348E+02 0.  0.
         13    1    3    3    0    0 -0.27213550362E+01 -0.23933993674E+02 -0.32018079501E+02  0.40067572991E+02  0.10566000000E+00 0.  1.
         22    1    1    0    0    0 -0.26385343013E+02 -0.11979722774E+02  0.33525199744E+00  0.28979518242E+02  0.00000000000E+00 0. -1.
</event>
<event>
 5    1  0.1250806E-009  0.9118800E+02  0.7561462E-02  0.1125453E+00
         25   -1    0    0    0    0  0.00000000000E+00  0.00000000000E+00  0.99999998245E-14  0.12509000000E+03  0.12509000000E+03 0.  0.
        -13    1    3    3    0    0 -0.33438925248E+02  0.37508952317E+02 -0.26682691513E+02  0.56895170411E+02  0.10566000000E+00 0.  1.
         23    2    1    0    0    0 -0.36424340346E+01  0.25987332464E+02  0.50367687944E+00  0.98843810473E+02  0.95295521428E+02 0.  0.
         13    1    3    3    0    0  0.29796491214E+02 -0.11521619853E+02  0.27186368392E+02  0.41948640063E+02  0.10566000000E+00 0. -1.
         22    1    1    0    0    0  0.36424340346E+01 -0.25987332464E+02 -0.50367687944E+00  0.26246189527E+02  0.00000000000E+00 0.  1.
</event>
<event>
 5    1  0.1250806E-009  0.9118800E+02  0.7561462E-02  0.1125453E+00
         25   -1    0    0    0    0  0.00000000000E+00  0.00000000000E+00  0.99999998245E-14  0.12509000000E+03  0.12509000000E+03 0.  0.
        -13    1    3    3    0    0  0.42170243328E+02  0.36258678693E+01 -0.40200020143E+02  0.58374044949E+02  0.10566000000E+00 0.  1.
         23    2    1    0    0    0  0.29058496578E+02 -0.97424839075E+00 -0.58441887128E+01  0.95433636012E+02  0.90708758990E+02 0.  0.
         13    1    3    3    0    0 -0.13111746750E+02 -0.46001162600E+01  0.34355831431E+02  0.37059591063E+02  0.10566000000E+00 0. -1.
         22    1    1    0    0    0 -0.29058496578E+02  0.97424839075E+00  0.58441887128E+01  0.29656363988E+02  0.00000000000E+00 0.  1.
</event>
<event>
 5    1  0.1250806E-009  0.9118800E+02  0.7561462E-02  0.1125453E+00
         25   -1    0    0    0    0  0.00000000000E+00  0.00000000000E+00  0.99999998245E-14  0.12509000000E+03  0.12509000000E+03 0.  0.
        -13    1    3    3    0    0 -0.39499657525E+02 -0.10430187057E+02 -0.15648417508E+02  0.43748095743E+02  0.10566000000E+00 0. -1.
         23    2    1    0    0    0 -0.75924208407E+01 -0.89982898177E+01  0.26184674860E+02  0.96380223418E+02  0.92004870495E+02 0.  0.
         13    1    3    3    0    0  0.31907236684E+02  0.14318972393E+01  0.41833092368E+02  0.52632127675E+02  0.10566000000E+00 0.  1.
         22    1    1    0    0    0  0.75924208407E+01  0.89982898177E+01 -0.26184674860E+02  0.28709776582E+02  0.00000000000E+00 0.  1.
</event>
<event>
 5    1  0.1250806E-009  0.9118800E+02  0.7561462E-02  0.1125453E+00
         25   -1    0    0    0    0  0.00000000000E+00  0.00000000000E+00  0.99999998245E-14  0.12509000000E+03  0.12509000000E+03 0.  0.
        -13    1    3    3    0    0  0.30773887947E+02  0.15376070802E+02  0.42418208915E+01  0.34662082182E+02  0.10566000000E+00 0. -1.
         23    2    1    0    0    0 -0.28784245713E+02  0.58382225677E+01  0.64506133724E+01  0.95019614953E+02  0.90136003733E+02 0.  0.
         13    1    3    3    0    0 -0.59558133659E+02 -0.95378482348E+01  0.22087924810E+01  0.60357532771E+02  0.10566000000E+00 0.  1.
         22    1    1    0    0    0  0.28784245713E+02 -0.58382225677E+01 -0.64506133724E+01  0.30070385047E+02  0.00000000000E+00 0.  1.
</event>
<event>
 5    1  0.1250806E-009  0.9118800E+02  0.7561462E-02  0.1125453E+00
         25   -1    0    0    0    0  0.00000000000E+00  0.00000000000E+00  0.99999998245E-14  0.12509000000E+03  0.12509000000E+03 0.  0.
        -13    1    3    3    0    0 -0.37911608155E+02 -0.27560031932E+02  0.22437549762E+01  0.46924311326E+02  0.10566000000E+00 0. -1.
         23    2    1    0    0    0 -0.20765193888E+02  0.18730462605E+02  0.61983484763E+01  0.96446623272E+02  0.92095103616E+02 0.  0.
         13    1    3    3    0    0  0.17146414267E+02  0.46290494537E+02  0.39545935001E+01  0.49522311946E+02  0.10566000000E+00 0.  1.
         22    1    1    0    0    0  0.20765193888E+02 -0.18730462605E+02 -0.61983484763E+01  0.28643376728E+02  0.00000000000E+00 0.  1.
</event>
<event>
 5    1  0.1250806E-009  0.9118800E+02  0.7561462E-02  0.1125453E+00
         25   -1    0    0    0    0  0.00000000000E+00  0.00000000000E+00  0.99999998245E-14  0.12509000000E+03  0.12509000000E+03 0.  0.
        -13    1    3    3    0    0  0.40566823090E+02 -0.29004565449E+02 -0.18139175615E+02  0.53065740441E+02  0.10566000000E+00 0.  1.
         23    2    1    0    0    0  0.36926991767E+02  0.11076225334E+01 -0.19278693926E+02  0.83418695868E+02  0.72264661019E+02 0.  0.
         13    1    3    3    0    0 -0.36398313231E+01  0.30112187982E+02 -0.11395183106E+01  0.30352955427E+02  0.10566000000E+00 0. -1.
         22    1    1    0    0    0 -0.36926991767E+02 -0.11076225334E+01  0.19278693926E+02  0.41671304132E+02  0.00000000000E+00 0.  1.
</event>
<event>
 5    1  0.1250806E-009  0.9118800E+02  0.7561462E-02  0.1125453E+00
         25   -1    0    0    0    0  0.00000000000E+00  0.00000000000E+00  0.99999998245E-14  0.12509000000E+03  0.12509000000E+03 0.  0.
        -13    1    3    3    0    0 -0.34441384921E+02  0.29406023336E+02 -0.24919616932E+02  0.51690634314E+02  0.10566000000E+00 0. -1.
         23    2    1    0    0    0 -0.22993418546E+02 -0.11747120461E+02 -0.13722147014E+02  0.95849797295E+02  0.91280853344E+02 0.  0.
         13    1    3    3    0    0  0.11447966375E+02 -0.41153143798E+02  0.11197469917E+02  0.44159162980E+02  0.10566000000E+00 0.  1.
         22    1    1    0    0    0  0.22993418546E+02  0.11747120461E+02  0.13722147014E+02  0.29240202705E+02  0.00000000000E+00 0. -1.
</event>
<event>
 5    1  0.1250806E-009  0.9118800E+02  0.7561462E-02  0.1125453E+00
         25   -1    0    0    0    0  0.00000000000E+00  0.00000000000E+00  0.99999998245E-14  0.12509000000E+03  0.12509000000E+03 0.  0.
        -13    1    3    3    0    0 -0.23538793241E+02  0.47656971829E+02  0.11464567185E+02  0.54375630717E+02  0.10566000000E+00 0. -1.
         23    2    1    0    0    0 -0.37599242913E+01  0.14099900538E+02  0.25442187212E+02  0.95759996318E+02  0.91157708279E+02 0.  0.
         13    1    3    3    0    0  0.19778868949E+02 -0.33557071290E+02  0.13977620027E+02  0.41384365601E+02  0.10566000000E+00 0.  1.
         22    1    1    0    0    0  0.37599242913E+01 -0.14099900538E+02 -0.25442187212E+02  0.29330003682E+02  0.00000000000E+00 0. -1.
</event>
<event>
 5    1  0.1250806E-009  0.9118800E+02  0.7561462E-02  0.1125453E+00
         25   -1    0    0    0    0  0.00000000000E+00  0.00000000000E+00  0.99999998245E-14  0.12509000000E+03  0.12509000000E+03 0.  0.
        -13    1    3    3    0    0 -0.38469270207E+02  0.34090643068E+02  0.53720761127E+01  0.51681012576E+02  0.10566000000E+00 0.  1.
         23    2    1    0    0    0 -0.33920101794E+01  0.20192230980E+02 -0.19454039357E+02  0.96846565855E+02  0.92636740798E+02 0.  0.
         13    1    3    3    0    0  0.35077260028E+02 -0.13898412089E+02 -0.24826115470E+02  0.45165553279E+02  0.10566000000E+00 0. -1.
         22    1    1    0    0    0  0.33920101794E+01 -0.20192230980E+02  0.19454039357E+02  0.28243434145E+02  0.00000000000E+00 0.  1.
</event>
<event>
 5    1  0.1250806E-009  0.9118800E+02  0.7561462E-02  0.1125453E+00
         25   -1    0    0    0    0  0.00000000000E+00  0.00000000000E+00  0.99999998245E-14  0.12509000000E+03  0.12509000000E+03 0.  0.
        -13    1    3    3    0    0 -0.14552292472E+02 -0.24593082770E+02 -0.24851960529E+02  0.37871097720E+02  0.10566000000E+00 0. -1.
         23    2    1    0    0    0  0.10651821082E+02 -0.13700343780E+02  0.24924963355E+02  0.94718722281E+02  0.89717455604E+02 0.  0.
         13    1    3    3    0    0  0.25204113555E+02  0.10892738991E+02  0.49776923884E+02  0.56847624561E+02  0.10566000000E+00 0.  1.
         22    1    1    0    0    0 -0.10651821082E+02  0.13700343780E+02 -0.24924963355E+02  0.30371277719E+02  0.00000000000E+00 0.  1.
</event>
<event>
 5    1  0.1250806E-009  0.9118800E+02  0.7561462E-02  0.1125453E+00
         25   -1    0    0    0    0  0.00000000000E+00  0.00000000000E+00  0.99999998245E-14  0.12509000000E+03  0.12509000000E+03 0.  0.
        -13    1    3    3    0    0 -0.12560356891E+02 -0.16796377814E+02  0.32508442374E+02  0.38687089093E+02  0.10566000000E+00 0.  1.
         23    2    1    0    0    0  0.11289705611E+01  0.31138413754E+01 -0.24375722488E+02  0.10049027583E+03  0.97432792766E+02 0.  0.
         13    1    3    3    0    0  0.13689327452E+02  0.19910219189E+02 -0.56884164862E+02  0.61803186733E+02  0.10566000000E+00 0. -1.
         22    1    1    0    0    0 -0.11289705611E+01 -0.31138413754E+01  0.24375722488E+02  0.24599724174E+02  0.00000000000E+00 0. -1.
</event>
<event>
 5    1  0.1250806E-009  0.9118800E+02  0.7561462E-02  0.1125453E+00
         25   -1    0    0    0    0  0.00000000000E+00  0.00000000000E+00  0.99999998245E-14  0.12509000000E+03  0.12509000000E+03 0.  0.
        -13    1    3    3    0    0  0.31704476665E+00 -0.40065709493E+02 -0.41165757717E+01  0.40278020740E+02  0.10566000000E+00 0.  1.
         23    2    1    0    0    0  0.27321772291E+02  0.75995712834E+01  0.62913099159E+01  0.96041535234E+02  0.91543231234E+02 0.  0.
         13    1    3    3    0    0  0.27004727524E+02  0.47665280777E+02  0.10407885688E+02  0.55763514494E+02  0.10566000000E+00 0. -1.
         22    1    1    0    0    0 -0.27321772291E+02 -0.75995712834E+01 -0.62913099159E+01  0.29048464766E+02  0.00000000000E+00 0. -1.
</event>
<event>
 5    1  0.1250806E-009  0.9118800E+02  0.7561462E-02  0.1125453E+00
         25   -1    0    0    0    0  0.00000000000E+00  0.00000000000E+00  0.99999998245E-14  0.12509000000E+03  0.12509000000E+03 0.  0.
        -13    1    3    3    0    0 -0.22240489458E+02 -0.37958577357E+02  0.70654784890E+01  0.44558109437E+02  0.10566000000E+00 0.  1.
         23    2    1    0    0    0 -0.46933565361E+01  0.56359946714E+01  0.28102973202E+02  0.96045738359E+02  0.91548974448E+02 0.  0.
         13    1    3    3    0    0  0.17547132922E+02  0.43594572028E+02  0.21037494713E+02  0.51487628921E+02  0.10566000000E+00 0. -1.
         22    1    1    0    0    0  0.46933565361E+01 -0.56359946714E+01 -0.28102973202E+02  0.29044261641E+02  0.00000000000E+00 0.  1.
</event>
<event>
 5    1  0.1250806E-009  0.9118800E+02  0.7561462E-02  0.1125453E+00
         25   -1    0    0    0    0  0.00000000000E+00  0.00000000000E+00  0.99999998245E-14  0.12509000000E+03  0.12509000000E+03 0.  0.
        -13    1    3    3    0    0 -0.23824758508E+02  0.41437036979E+02 -0.10116329212E+02  0.48856917958E+02  0.10566000000E+00 0.  1.
         23    2    1    0    0    0 -0.22031420589E+02  0.35199141959E+01  0.18267260590E+02  0.96254846132E+02  0.91834249087E+02 0.  0.
         13    1    3    3    0    0  0.17933379193E+01 -0.37917122784E+02  0.28383589802E+02  0.47397928174E+02  0.10566000000E+00 0. -1.
         22    1    1    0    0    0  0.22031420589E+02 -0.35199141959E+01 -0.18267260590E+02  0.28835153868E+02  0.00000000000E+00 0. -1.
</event>
<event>
 5    1  0.1250806E-009  0.9118800E+02  0.7561462E-02  0.1125453E+00
         25   -1    0    0    0    0  0.00000000000E+00  0.00000000000E+00  0.99999998245E-14  0.12509000000E+03  0.12509000000E+03 0.  0.
        -13    1    3    3    0    0  0.55992164103E+02 -0.76854246593E+01  0.67012130796E+01  0.56913140960E+02  0.10566000000E+00 0.  1.
         23    2    1    0    0    0  0.18737541282E+02 -0.20226933303E+02  0.84230031953E+01  0.96259958949E+02  0.91841213134E+02 0.  0.
         13    1    3    3    0    0 -0.37254622821E+02 -0.12541508644E+02  0.17217901157E+01  0.39346817989E+02  0.10566000000E+00 0. -1.
         22    1    1    0    0    0 -0.18737541282E+02  0.20226933303E+02 -0.84230031953E+01  0.28830041051E+02  0.00000000000E+00 0.  1.
</event>
<event>
 5    1  0.1250806E-009  0.9118800E+02  0.7561462E-02  0.1125453E+00
         25   -1    0    0    0    0  0.00000000000E+00  0.00000000000E+00  0.99999998245E-14  0.12509000000E+03  0.12509000000E+03 0.  0.
        -13    1    3    3    0    0 -0.55813329369E+01 -0.10534910700E+02  0.31408824562E+02  0.33595550973E+02  0.10566000000E+00 0. -1.
         23    2    1    0    0    0  0.94023647751E+01  0.18272033729E+02 -0.21293598756E+02  0.95497956678E+02  0.90797415722E+02 0.  0.
         13    1    3    3    0    0  0.14983697712E+02  0.28806944429E+02 -0.52702423318E+02  0.61902405705E+02  0.10566000000E+00 0.  1.
         22    1    1    0    0    0 -0.94023647751E+01 -0.18272033729E+02  0.21293598756E+02  0.29592043322E+02  0.00000000000E+00 0.  1.
</event>
<event>
 5    1  0.1250806E-009  0.9118800E+02  0.7561462E-02  0.1125453E+00
         25   -1    0    0    0    0  0.00000000000E+00  0.00000000000E+00  0.99999998245E-14  0.12509000000E+03  0.12509000000E+03 0.  0.
        -13    1    3    3    0    0 -0.12655640069E+02 -0.27506101028E+02  0.14324534655E+02  0.33495585925E+02  0.10566000000E+00 0.  1.
         23    2    1    0    0    0  0.81756505118E+01  0.23181662737E+02 -0.15640934946E+02  0.95954633269E+02  0.91424406213E+02 0.  0.
         13    1    3    3    0    0  0.20831290581E+02  0.50687763765E+02 -0.29965469600E+02  0.62459047345E+02  0.10566000000E+00 0. -1.
         22    1    1    0    0    0 -0.81756505118E+01 -0.23181662737E+02  0.15640934946E+02  0.29135366731E+02  0.00000000000E+00 0. -1.
</event>
<event>
 5    1  0.1250806E-009  0.9118800E+02  0.7561462E-02  0.1125453E+00
         25   -1    0    0    0    0  0.00000000000E+00  0.00000000000E+00  0.99999998245E-14  0.12509000000E+03  0.12509000000E+03 0.  0.
        -13    1    3    3    0    0  0.17505438284E+02  0.81062812830E+00  0.38242786544E+02  0.42066844120E+02  0.10566000000E+00 0. -1.
         23    2    1    0    0    0  0.24615665720E+02 -0.53980441092E+01 -0.14747484493E+02  0.95891401096E+02  0.91337848816E+02 0.  0.
         13    1    3    3    0    0  0.71102274367E+01 -0.62086722375E+01 -0.52990271037E+02  0.53824556977E+02  0.10566000000E+00 0.  1.
         22    1    1    0    0    0 -0.24615665720E+02  0.53980441092E+01  0.14747484493E+02  0.29198598904E+02  0.00000000000E+00 0.  1.
</event>
<event>
 5    1  0.1250806E-009  0.9118800E+02  0.7561462E-02  0.1125453E+00
         25   -1    0    0    0    0  0.00000000000E+00  0.00000000000E+00  0.99999998245E-14  0.12509000000E+03  0.12509000000E+03 0.  0.
        -13    1    3    3    0    0 -0.22236480359E+02  0.65219180374E+01  0.26049379527E+02  0.34865137479E+02  0.10566000000E+00 0. -1.
         23    2    1    0    0    0  0.17974061456E+02 -0.60746832927E+01 -0.20162731175E+02  0.97404184303E+02  0.93386673188E+02 0.  0.
         13    1    3    3    0    0  0.40210541815E+02 -0.12596601330E+02 -0.46212110702E+02  0.62539046825E+02  0.10566000000E+00 0.  1.
         22    1    1    0    0    0 -0.17974061456E+02  0.60746832927E+01  0.20162731175E+02  0.27685815697E+02  0.00000000000E+00 0.  1.
</event>
<event>
 5    1  0.1250806E-009  0.9118800E+02  0.7561462E-02  0.1125453E+00
         25   -1    0    0    0    0  0.00000000000E+00  0.00000000000E+00  0.99999998245E-14  0.12509000000E+03  0.12509000000E+03 0.  0.
        -13    1    3    3    0    0  0.48146094025E+02 -0.34541766289E+02 -0.65238719380E+01  0.59613354689E+02  0.10566000000E+00 0. -1.
         23    2    1    0    0    0  0.19619043990E+02 -0.13273237147E+02 -0.16083859098E+02  0.96458265247E+02  0.92110915203E+02 0.  0.
         13    1    3    3    0    0 -0.28527050034E+02  0.21268529141E+02 -0.95599871600E+01  0.36844910558E+02  0.10566000000E+00 0.  1.
         22    1    1    0    0    0 -0.19619043990E+02  0.13273237147E+02  0.16083859098E+02  0.28631734753E+02  0.00000000000E+00 0. -1.
</event>
<event>
 5    1  0.1250806E-009  0.9118800E+02  0.7561462E-02  0.1125453E+00
         25   -1    0    0    0    0  0.00000000000E+00  0.00000000000E+00  0.99999998245E-14  0.12509000000E+03  0.12509000000E+03 0.  0.
        -13    1    3    3    0    0 -0.53670676481E+01 -0.82938583634E+01 -0.39560653362E+02  0.40775604963E+02  0.10566000000E+00 0. -1.
         23    2    1    0    0    0  0.21874387243E+02  0.18145895883E+02  0.14143939958E+01  0.96633667400E+02  0.92348810551E+02 0.  0.
         13    1    3    3    0    0  0.27241454891E+02  0.26439754246E+02  0.40975047357E+02  0.55858062437E+02  0.10566000000E+00 0.  1.
         22    1    1    0    0    0 -0.21874387243E+02 -0.18145895883E+02 -0.14143939958E+01  0.28456332600E+02  0.00000000000E+00 0.  1.
</event>
<event>
 5    1  0.1250806E-009  0.9118800E+02  0.7561462E-02  0.1125453E+00
         25   -1    0    0    0    0  0.00000000000E+00  0.00000000000E+00  0.99999998245E-14  0.12509000000E+03  0.12509000000E+03 0.  0.
        -13    1    3    3    0    0 -0.27147976302E+02 -0.25283934887E+02  0.61848498674E+01  0.37610550549E+02  0.10566000000E+00 0.  1.
         23    2    1    0    0    0 -0.94393039050E+01  0.27047606191E+02 -0.92732282730E+01  0.94979101284E+02  0.90079761652E+02 0.  0.
         13    1    3    3    0    0  0.17708672397E+02  0.52331541078E+02 -0.15458078140E+02  0.57368550735E+02  0.10566000000E+00 0. -1.
         22    1    1    0    0    0  0.94393039050E+01 -0.27047606191E+02  0.92732282730E+01  0.30110898716E+02  0.00000000000E+00 0. -1.
</event>
<event>
 5    1  0.1250806E-009  0.9118800E+02  0.7561462E-02  0.1125453E+00
         25   -1    0    0    0    0  0.00000000000E+00  0.00000000000E+00  0.99999998245E-14  0.12509000000E+03  0.12509000000E+03 0.  0.
        -13    1    3    3    0    0  0.33147282610E+02 -0.39625768688E+01  0.41694364246E+02  0.53412316312E+02  0.10566000000E+00 0. -1.
         23    2    1    0    0    0 -0.72408748807E+01 -0.25118327557E+01  0.27963045807E+02  0.96095664284E+02  0.91617166462E+02 0.  0.
         13    1    3    3    0    0 -0.40388157491E+02  0.14507441130E+01 -0.13731318439E+02  0.42683347972E+02  0.10566000000E+00 0.  1.
         22    1    1    0    0    0  0.72408748807E+01  0.25118327557E+01 -0.27963045807E+02  0.28994335716E+02  0.00000000000E+00 0. -1.
</event>
<event>
 5    1  0.1250806E-009  0.9118800E+02  0.7561462E-02  0.1125453E+00
         25   -1    0    0    0    0  0.00000000000E+00  0.00000000000E+00  0.99999998245E-14  0.12509000000E+03  0.12509000000E+03 0.  0.
        -13    1    3    3    0    0  0.33590743837E+02  0.19497335006E+01  0.19955488519E+02  0.39119972115E+02  0.10566000000E+00 0.  1.
         23    2    1    0    0    0 -0.21483820627E+02 -0.42797221457E+00  0.22070737814E+02  0.94286507071E+02  0.89112795036E+02 0.  0.
         13    1    3    3    0    0 -0.55074564464E+02 -0.23777057152E+01  0.21152492952E+01  0.55166534956E+02  0.10566000000E+00 0. -1.
         22    1    1    0    0    0  0.21483820627E+02  0.42797221457E+00 -0.22070737814E+02  0.30803492929E+02  0.00000000000E+00 0. -1.
</event>
<event>
 5    1  0.1250806E-009  0.9118800E+02  0.7561462E-02  0.1125453E+00
         25   -1    0    0    0    0  0.00000000000E+00  0.00000000000E+00  0.99999998245E-14  0.12509000000E+03  0.12509000000E+03 0.  0.
        -13    1    3    3    0    0  0.41052750447E+02 -0.31324082697E+02 -0.27087105270E+02  0.58311653313E+02  0.10566000000E+00 0. -1.
         23    2    1    0    0    0  0.70996169750E+01 -0.13228136162E+02 -0.23831802593E+02  0.96923655503E+02  0.92740778699E+02 0.  0.
         13    1    3    3    0    0 -0.33953133472E+02  0.18095946535E+02  0.32553026770E+01  0.38612002190E+02  0.10566000000E+00 0.  1.
         22    1    1    0    0    0 -0.70996169750E+01  0.13228136162E+02  0.23831802593E+02  0.28166344497E+02  0.00000000000E+00 0. -1.
</event>
<event>
 5    1  0.1250806E-009  0.9118800E+02  0.7561462E-02  0.1125453E+00
         25   -1    0    0    0    0  0.00000000000E+00  0.00000000000E+00  0.99999998245E-14  0.12509000000E+03  0.12509000000E+03 0.  0.
        -13    1    3    3    0    0 -0.28778596795E+02  0.28324744400E+02  0.14579252710E+02  0.42930927691E+02  0.10566000000E+00 0.  1.
         23    2    1    0    0    0 -0.19277229092E+02 -0.60823216939E+01 -0.22802467850E+02  0.94617738209E+02  0.89576546289E+02 0.  0.
         13    1    3    3    0    0  0.95013677034E+01 -0.34407066094E+02 -0.37381720560E+02  0.51686810517E+02  0.10566000000E+00 0. -1.
         22    1    1    0    0    0  0.19277229092E+02  0.60823216939E+01  0.22802467850E+02  0.30472261791E+02  0.00000000000E+00 0.  1.
</event>
<event>
 5    1  0.1250806E-009  0.9118800E+02  0.7561462E-02  0.1125453E+00
         25   -1    0    0    0    0  0.00000000000E+00  0.00000000000E+00  0.99999998245E-14  0.12509000000E+03  0.12509000000E+03 0.  0.
        -13    1    3    3    0    0 -0.27888641947E+02  0.15466679259E+00 -0.30504433559E+02  0.41331971914E+02  0.10566000000E+00 0.  1.
         23    2    1    0    0    0 -0.40503037218E+01 -0.27737679098E+02  0.93838912170E+01  0.95529194592E+02  0.90840441451E+02 0.  0.
         13    1    3    3    0    0  0.23838338226E+02 -0.27892345891E+02  0.39888324776E+02  0.54197222679E+02  0.10566000000E+00 0. -1.
         22    1    1    0    0    0  0.40503037218E+01  0.27737679098E+02 -0.93838912170E+01  0.29560805408E+02  0.00000000000E+00 0.  1.
</event>
<event>
 4    1  0.1250806E-009  0.9118800E+02  0.7561462E-02  0.1125453E+00
         25   -1    0    0    0    0  0.00000000000E+00  0.00000000000E+00  0.99999998245E-14  0.12509000000E+03  0.12509000000E+03 0.  0.
        -13    1    1    0    0    0 -0.95499661185E+01  0.15684422248E+02 -0.79792097602E+01  0.20022035524E+02  0.10566000000E+00 0. -1.
         13    1    1    0    0    0 -0.40175785539E+01  0.77328419492E+01  0.52363219072E+02  0.53083478199E+02  0.10566000000E+00 0.  1.
         22    1    1    0    0    0  0.13567544672E+02 -0.23417264197E+02 -0.44384009312E+02  0.51984486277E+02  0.00000000000E+00 0.  1.
</event>
<event>
 5    1  0.1250806E-009  0.9118800E+02  0.7561462E-02  0.1125453E+00
         25   -1    0    0    0    0  0.00000000000E+00  0.00000000000E+00  0.99999998245E-14  0.12509000000E+03  0.12509000000E+03 0.  0.
        -13    1    3    3    0    0 -0.28611416446E+02 -0.17359993774E+02  0.18029560764E+02  0.38013928503E+02  0.10566000000E+00 0.  1.
         23    2    1    0    0    0 -0.28535911739E+01  0.66048796337E+01 -0.28130990796E+02  0.96053470236E+02  0.91559538464E+02 0.  0.
         13    1    3    3    0    0  0.25757825272E+02  0.23964873408E+02 -0.46160551560E+02  0.58039541733E+02  0.10566000000E+00 0. -1.
         22    1    1    0    0    0  0.28535911739E+01 -0.66048796337E+01  0.28130990796E+02  0.29036529764E+02  0.00000000000E+00 0. -1.
</event>
<event>
 5    1  0.1250806E-009  0.9118800E+02  0.7561462E-02  0.1125453E+00
         25   -1    0    0    0    0  0.00000000000E+00  0.00000000000E+00  0.99999998245E-14  0.12509000000E+03  0.12509000000E+03 0.  0.
        -13    1    3    3    0    0  0.48033808927E+02  0.17229672670E+02 -0.18630899026E+02  0.54325224186E+02  0.10566000000E+00 0. -1.
         23    2    1    0    0    0  0.24181769289E+02 -0.13773241556E+02 -0.14640128883E+02  0.93644912584E+02  0.88207574109E+02 0.  0.
         13    1    3    3    0    0 -0.23852039637E+02 -0.31002914225E+02  0.39907701430E+01  0.39319688398E+02  0.10566000000E+00 0.  1.
         22    1    1    0    0    0 -0.24181769289E+02  0.13773241556E+02  0.14640128883E+02  0.31445087416E+02  0.00000000000E+00 0. -1.
</event>
<event>
 5    1  0.1250806E-009  0.9118800E+02  0.7561462E-02  0.1125453E+00
         25   -1    0    0    0    0  0.00000000000E+00  0.00000000000E+00  0.99999998245E-14  0.12509000000E+03  0.12509000000E+03 0.  0.
        -13    1    3    3    0    0  0.34069606023E+02  0.96517583917E+01  0.21343826670E+02  0.41345672030E+02  0.10566000000E+00 0.  1.
         23    2    1    0    0    0 -0.83499469518E+01 -0.23121459808E+02  0.17152576512E+02  0.95114436640E+02  0.90267500567E+02 0.  0.
         13    1    3    3    0    0 -0.42419552975E+02 -0.32773218200E+02 -0.41912501587E+01  0.53768764610E+02  0.10566000000E+00 0. -1.
         22    1    1    0    0    0  0.83499469518E+01  0.23121459808E+02 -0.17152576512E+02  0.29975563360E+02  0.00000000000E+00 0. -1.
</event>
<event>
 5    1  0.1250806E-009  0.9118800E+02  0.7561462E-02  0.1125453E+00
         25   -1    0    0    0    0  0.00000000000E+00  0.00000000000E+00  0.99999998245E-14  0.12509000000E+03  0.12509000000E+03 0.  0.
        -13    1    3    3    0    0  0.11936119065E+02  0.47451258272E+02  0.82725138175E+01  0.49623971010E+02  0.10566000000E+00 0.  1.
         23    2    1    0    0    0 -0.19053186367E+01  0.16829957623E+02 -0.23667757082E+02  0.95986040854E+02  0.91467369050E+02 0.  0.
         13    1    3    3    0    0 -0.13841437702E+02 -0.30621300649E+02 -0.31940270899E+02  0.46362069844E+02  0.10566000000E+00 0. -1.
         22    1    1    0    0    0  0.19053186367E+01 -0.16829957623E+02  0.23667757082E+02  0.29103959146E+02  0.00000000000E+00 0.  1.
</event>
<event>
 5    1  0.1250806E-009  0.9118800E+02  0.7561462E-02  0.1125453E+00
         25   -1    0    0    0    0  0.00000000000E+00  0.00000000000E+00  0.99999998245E-14  0.12509000000E+03  0.12509000000E+03 0.  0.
        -13    1    3    3    0    0  0.11990270057E+02  0.46223998340E+02  0.22285760494E+02  0.52698110814E+02  0.10566000000E+00 0.  1.
         23    2    1    0    0    0  0.24320140282E+02  0.56159740758E+01  0.15588197229E+02  0.95662117286E+02  0.91023295934E+02 0.  0.
         13    1    3    3    0    0  0.12329870225E+02 -0.40608024264E+02 -0.66975632646E+01  0.42964006472E+02  0.10566000000E+00 0. -1.
         22    1    1    0    0    0 -0.24320140282E+02 -0.56159740758E+01 -0.15588197229E+02  0.29427882714E+02  0.00000000000E+00 0.  1.
</event>
<event>
 5    1  0.1250806E-009  0.9118800E+02  0.7561462E-02  0.1125453E+00
         25   -1    0    0    0    0  0.00000000000E+00  0.00000000000E+00  0.99999998245E-14  0.12509000000E+03  0.12509000000E+03 0.  0.
        -13    1    3    3    0    0  0.46077811710E+02 -0.32926886819E+02  0.12936821972E+02  0.58092315622E+02  0.10566000000E+00 0.  1.
         23    2    1    0    0    0  0.21155956440E+02 -0.37161753618E+01  0.18311443823E+02  0.96864241780E+02  0.92660606022E+02 0.  0.
         13    1    3    3    0    0 -0.24921855269E+02  0.29210711457E+02  0.53746218513E+01  0.38771926158E+02  0.10566000000E+00 0. -1.
         22    1    1    0    0    0 -0.21155956440E+02  0.37161753618E+01 -0.18311443823E+02  0.28225758220E+02  0.00000000000E+00 0.  1.
</event>
<event>
 5    1  0.1250806E-009  0.9118800E+02  0.7561462E-02  0.1125453E+00
         25   -1    0    0    0    0  0.00000000000E+00  0.00000000000E+00  0.99999998245E-14  0.12509000000E+03  0.12509000000E+03 0.  0.
        -13    1    3    3    0    0 -0.48042076610E+02 -0.17908953730E+02  0.26620664988E+02  0.57770604265E+02  0.10566000000E+00 0.  1.
         23    2    1    0    0    0 -0.10826346218E+02 -0.16132097091E+02  0.22664205780E+02  0.95238357623E+02  0.90439063518E+02 0.  0.
         13    1    3    3    0    0  0.37215730393E+02  0.17768566391E+01 -0.39564592082E+01  0.37467753358E+02  0.10566000000E+00 0. -1.
         22    1    1    0    0    0  0.10826346218E+02  0.16132097091E+02 -0.22664205780E+02  0.29851642377E+02  0.00000000000E+00 0.  1.
</event>
<event>
 5    1  0.1250806E-009  0.9118800E+02  0.7561462E-02  0.1125453E+00
         25   -1    0    0    0    0  0.00000000000E+00  0.00000000000E+00  0.99999998245E-14  0.12509000000E+03  0.12509000000E+03 0.  0.
        -13    1    3    3    0    0 -0.28743202778E+02 -0.38746481671E+01  0.73910660286E+01  0.29930312819E+02  0.10566000000E+00 0.  1.
         23    2    1    0    0    0  0.31053842156E+02  0.89388706551E+01  0.10354965554E+02  0.91156685502E+02  0.84605386819E+02 0.  0.
         13    1    3    3    0    0  0.59797044934E+02  0.12813518822E+02  0.29638995253E+01  0.61226372683E+02  0.10566000000E+00 0. -1.
         22    1    1    0    0    0 -0.31053842156E+02 -0.89388706551E+01 -0.10354965554E+02  0.33933314498E+02  0.00000000000E+00 0. -1.
</event>
<event>
 5    1  0.1250806E-009  0.9118800E+02  0.7561462E-02  0.1125453E+00
         25   -1    0    0    0    0  0.00000000000E+00  0.00000000000E+00  0.99999998245E-14  0.12509000000E+03  0.12509000000E+03 0.  0.
        -13    1    3    3    0    0 -0.51716090024E+02 -0.21602306893E+01 -0.14865095022E+02  0.53853530785E+02  0.10566000000E+00 0. -1.
         23    2    1    0    0    0 -0.24452885965E+02 -0.31849197197E+01  0.16496502029E+02  0.95421465745E+02  0.90691974287E+02 0.  0.
         13    1    3    3    0    0  0.27263204059E+02 -0.10246890303E+01  0.31361597052E+02  0.41567934960E+02  0.10566000000E+00 0.  1.
         22    1    1    0    0    0  0.24452885965E+02  0.31849197197E+01 -0.16496502029E+02  0.29668534255E+02  0.00000000000E+00 0. -1.
</event>
<event>
 5    1  0.1250806E-009  0.9118800E+02  0.7561462E-02  0.1125453E+00
         25   -1    0    0    0    0  0.00000000000E+00  0.00000000000E+00  0.99999998245E-14  0.12509000000E+03  0.12509000000E+03 0.  0.
        -13    1    3    3    0    0 -0.45613860267E+02  0.34712828123E+02 -0.14359837933E+02  0.59091630492E+02  0.10566000000E+00 0. -1.
         23    2    1    0    0    0 -0.12227047497E+02  0.26462446693E+02 -0.12002881999E+01  0.95914625671E+02  0.91369650050E+02 0.  0.
         13    1    3    3    0    0  0.33386812770E+02 -0.82503814301E+01  0.13159549734E+02  0.36822995178E+02  0.10566000000E+00 0.  1.
         22    1    1    0    0    0  0.12227047497E+02 -0.26462446693E+02  0.12002881999E+01  0.29175374329E+02  0.00000000000E+00 0. -1.
</event>
<event>
 5    1  0.1250806E-009  0.9118800E+02  0.7561462E-02  0.1125453E+00
         25   -1    0    0    0    0  0.00000000000E+00  0.00000000000E+00  0.99999998245E-14  0.12509000000E+03  0.12509000000E+03 0.  0.
        -13    1    3    3    0    0 -0.46604295851E+00  0.46351418925E+02 -0.13563083745E+02  0.48297408182E+02  0.10566000000E+00 0. -1.
         23    2    1    0    0    0  0.23857445169E+02  0.14325900176E+02  0.10711852644E+02  0.95271333147E+02  0.90484661831E+02 0.  0.
         13    1    3    3    0    0  0.24323488127E+02 -0.32025518749E+02  0.24274936389E+02  0.46973924964E+02  0.10566000000E+00 0.  1.
         22    1    1    0    0    0 -0.23857445169E+02 -0.14325900176E+02 -0.10711852644E+02  0.29818666853E+02  0.00000000000E+00 0. -1.
</event>
<event>
 5    1  0.1250806E-009  0.9118800E+02  0.7561462E-02  0.1125453E+00
         25   -1    0    0    0    0  0.00000000000E+00  0.00000000000E+00  0.99999998245E-14  0.12509000000E+03  0.12509000000E+03 0.  0.
        -13    1    3    3    0    0  0.10922569003E+02 -0.40419573458E+02 -0.17691364236E+02  0.45453712331E+02  0.10566000000E+00 0. -1.
         23    2    1    0    0    0  0.20078798354E+02 -0.41255440981E+01  0.18469000269E+02  0.97498656641E+02  0.93513131796E+02 0.  0.
         13    1    3    3    0    0  0.91562293506E+01  0.36294029359E+02  0.36160364505E+02  0.52044944310E+02  0.10566000000E+00 0.  1.
         22    1    1    0    0    0 -0.20078798354E+02  0.41255440981E+01 -0.18469000269E+02  0.27591343359E+02  0.00000000000E+00 0.  1.
</event>
<event>
 5    1  0.1250806E-009  0.9118800E+02  0.7561462E-02  0.1125453E+00
         25   -1    0    0    0    0  0.00000000000E+00  0.00000000000E+00  0.99999998245E-14  0.12509000000E+03  0.12509000000E+03 0.  0.
        -13    1    3    3    0    0  0.46957227727E+02 -0.32161601031E+02  0.76562949925E+01  0.57428040483E+02  0.10566000000E+00 0.  1.
         23    2    1    0    0    0  0.24703870241E+02  0.22348022437E+01  0.97231573694E+01  0.98447640210E+02  0.94774060416E+02 0.  0.
         13    1    3    3    0    0 -0.22253357487E+02  0.34396403274E+02  0.20668623769E+01  0.41019599727E+02  0.10566000000E+00 0. -1.
         22    1    1    0    0    0 -0.24703870241E+02 -0.22348022437E+01 -0.97231573694E+01  0.26642359790E+02  0.00000000000E+00 0.  1.
</event>
<event>
 5    1  0.1250806E-009  0.9118800E+02  0.7561462E-02  0.1125453E+00
         25   -1    0    0    0    0  0.00000000000E+00  0.00000000000E+00  0.99999998245E-14  0.12509000000E+03  0.12509000000E+03 0.  0.
        -13    1    3    3    0    0 -0.50470928764E+02  0.17256325918E+01  0.17531435254E+02  0.53457037368E+02  0.10566000000E+00 0.  1.
         23    2    1    0    0    0 -0.81700999321E+01  0.12026108886E+02  0.23555637616E+02  0.97408853143E+02  0.93392926816E+02 0.  0.
         13    1    3    3    0    0  0.42300828832E+02  0.10300476294E+02  0.60242023623E+01  0.43951815774E+02  0.10566000000E+00 0. -1.
         22    1    1    0    0    0  0.81700999321E+01 -0.12026108886E+02 -0.23555637616E+02  0.27681146857E+02  0.00000000000E+00 0. -1.
</event>
<event>
 5    1  0.1250806E-009  0.9118800E+02  0.7561462E-02  0.1125453E+00
         25   -1    0    0    0    0  0.00000000000E+00  0.00000000000E+00  0.99999998245E-14  0.12509000000E+03  0.12509000000E+03 0.  0.
        -13    1    3    3    0    0  0.20603606276E+02 -0.11698417136E+02 -0.33742342308E+02  0.41230066499E+02  0.10566000000E+00 0.  1.
         23    2    1    0    0    0 -0.24441062974E+02 -0.18884266547E+02 -0.10191005092E+02  0.92565583525E+02  0.86663427039E+02 0.  0.
         13    1    3    3    0    0 -0.45044669249E+02 -0.71858494103E+01  0.23551337217E+02  0.51335517025E+02  0.10566000000E+00 0. -1.
         22    1    1    0    0    0  0.24441062974E+02  0.18884266547E+02  0.10191005092E+02  0.32524416475E+02  0.00000000000E+00 0. -1.
</event>
<event>
 5    1  0.1250806E-009  0.9118800E+02  0.7561462E-02  0.1125453E+00
         25   -1    0    0    0    0  0.00000000000E+00  0.00000000000E+00  0.99999998245E-14  0.12509000000E+03  0.12509000000E+03 0.  0.
        -13    1    3    3    0    0 -0.15160287653E+02 -0.34048598996E+02 -0.42922510757E+02  0.56846235663E+02  0.10566000000E+00 0. -1.
         23    2    1    0    0    0  0.10400750042E+02 -0.11489370671E+02 -0.25790658822E+02  0.95001142888E+02  0.90110364708E+02 0.  0.
         13    1    3    3    0    0  0.25561037694E+02  0.22559228325E+02  0.17131851935E+02  0.38154907226E+02  0.10566000000E+00 0.  1.
         22    1    1    0    0    0 -0.10400750042E+02  0.11489370671E+02  0.25790658822E+02  0.30088857112E+02  0.00000000000E+00 0. -1.
</event>
<event>
 5    1  0.1250806E-009  0.9118800E+02  0.7561462E-02  0.1125453E+00
         25   -1    0    0    0    0  0.00000000000E+00  0.00000000000E+00  0.99999998245E-14  0.12509000000E+03  0.12509000000E+03 0.  0.
        -13    1    3    3    0    0 -0.22724920752E+02 -0.14910624962E+02 -0.55183449547E+02  0.61514006762E+02  0.10566000000E+00 0.  1.
         23    2    1    0    0    0 -0.15591147261E+02 -0.64893510663E+00 -0.26187507614E+02  0.94605732833E+02  0.89559779702E+02 0.  0.
         13    1    3    3    0    0  0.71337734913E+01  0.14261689855E+02  0.28995941933E+02  0.33091726071E+02  0.10566000000E+00 0. -1.
         22    1    1    0    0    0  0.15591147261E+02  0.64893510663E+00  0.26187507614E+02  0.30484267167E+02  0.00000000000E+00 0.  1.
</event>
<event>
 5    1  0.1250806E-009  0.9118800E+02  0.7561462E-02  0.1125453E+00
         25   -1    0    0    0    0  0.00000000000E+00  0.00000000000E+00  0.99999998245E-14  0.12509000000E+03  0.12509000000E+03 0.  0.
        -13    1    3    3    0    0 -0.28354961369E+02  0.35391732924E+02 -0.13519000295E+02  0.47321803924E+02  0.10566000000E+00 0. -1.
         23    2    1    0    0    0  0.58439029060E+01  0.53935674507E+01 -0.28722843661E+02  0.95286585447E+02  0.90505744830E+02 0.  0.
         13    1    3    3    0    0  0.34198864275E+02 -0.29998165473E+02 -0.15203843367E+02  0.47964781524E+02  0.10566000000E+00 0.  1.
         22    1    1    0    0    0 -0.58439029060E+01 -0.53935674507E+01  0.28722843661E+02  0.29803414553E+02  0.00000000000E+00 0. -1.
</event>
<event>
 5    1  0.1250806E-009  0.9118800E+02  0.7561462E-02  0.1125453E+00
         25   -1    0    0    0    0  0.00000000000E+00  0.00000000000E+00  0.99999998245E-14  0.12509000000E+03  0.12509000000E+03 0.  0.
        -13    1    3    3    0    0  0.46163967197E+02  0.12058732269E+01  0.55030935727E+01  0.46506571584E+02  0.10566000000E+00 0.  1.
         23    2    1    0    0    0  0.10681338654E+02 -0.10801249476E+02 -0.25684598326E+02  0.95249480955E+02  0.90454447350E+02 0.  0.
         13    1    3    3    0    0 -0.35482628543E+02 -0.12007122703E+02 -0.31187691899E+02  0.48742909371E+02  0.10566000000E+00 0. -1.
         22    1    1    0    0    0 -0.10681338654E+02  0.10801249476E+02  0.25684598326E+02  0.29840519045E+02  0.00000000000E+00 0. -1.
</event>
<event>
 5    1  0.1250806E-009  0.9118800E+02  0.7561462E-02  0.1125453E+00
         25   -1    0    0    0    0  0.00000000000E+00  0.00000000000E+00  0.99999998245E-14  0.12509000000E+03  0.12509000000E+03 0.  0.
        -13    1    3    3    0    0 -0.36458202410E+01 -0.25118639534E+02  0.17235915095E+02  0.30681036333E+02  0.10566000000E+00 0.  1.
         23    2    1    0    0    0  0.22061853469E+02  0.46382162928E+01 -0.27030935715E+02  0.89891847854E+02  0.82714172886E+02 0.  0.
         13    1    3    3    0    0  0.25707673710E+02  0.29756855827E+02 -0.44266850810E+02  0.59210811521E+02  0.10566000000E+00 0. -1.
         22    1    1    0    0    0 -0.22061853469E+02 -0.46382162928E+01  0.27030935715E+02  0.35198152146E+02  0.00000000000E+00 0. -1.
</event>
<event>
 5    1  0.1250806E-009  0.9118800E+02  0.7561462E-02  0.1125453E+00
         25   -1    0    0    0    0  0.00000000000E+00  0.00000000000E+00  0.99999998245E-14  0.12509000000E+03  0.12509000000E+03 0.  0.
        -13    1    3    3    0    0  0.15021761052E+02  0.14059087524E+02 -0.34708043469E+02  0.40348118823E+02  0.10566000000E+00 0. -1.
         23    2    1    0    0    0 -0.18134990625E+02  0.10849998912E+02  0.14276763177E+02  0.99586542820E+02  0.96265534760E+02 0.  0.
         13    1    3    3    0    0 -0.33156751677E+02 -0.32090886118E+01  0.48984806646E+02  0.59238423997E+02  0.10566000000E+00 0.  1.
         22    1    1    0    0    0  0.18134990625E+02 -0.10849998912E+02 -0.14276763177E+02  0.25503457180E+02  0.00000000000E+00 0.  1.
</event>
<event>
 5    1  0.1250806E-009  0.9118800E+02  0.7561462E-02  0.1125453E+00
         25   -1    0    0    0    0  0.00000000000E+00  0.00000000000E+00  0.99999998245E-14  0.12509000000E+03  0.12509000000E+03 0.  0.
        -13    1    3    3    0    0  0.59892058107E+01  0.38359368662E+02  0.83892081432E+01  0.39720293651E+02  0.10566000000E+00 0.  1.
         23    2    1    0    0    0 -0.90758355771E+01 -0.18432808213E+02  0.16109121093E+02  0.98981706443E+02  0.95476359472E+02 0.  0.
         13    1    3    3    0    0 -0.15065041388E+02 -0.56792176875E+02  0.77199129498E+01  0.59261412793E+02  0.10566000000E+00 0. -1.
         22    1    1    0    0    0  0.90758355771E+01  0.18432808213E+02 -0.16109121093E+02  0.26108293557E+02  0.00000000000E+00 0. -1.
</event>
<event>
 5    1  0.1250806E-009  0.9118800E+02  0.7561462E-02  0.1125453E+00
         25   -1    0    0    0    0  0.00000000000E+00  0.00000000000E+00  0.99999998245E-14  0.12509000000E+03  0.12509000000E+03 0.  0.
        -13    1    3    3    0    0 -0.25415396159E+02  0.50641063732E+01 -0.30355691637E+02  0.39913239834E+02  0.10566000000E+00 0. -1.
         23    2    1    0    0    0  0.14383258040E+02  0.25679288472E+02  0.25945810080E+01  0.95542820458E+02  0.90859202738E+02 0.  0.
         13    1    3    3    0    0  0.39798654199E+02  0.20615182099E+02  0.32950272645E+02  0.55629580624E+02  0.10566000000E+00 0.  1.
         22    1    1    0    0    0 -0.14383258040E+02 -0.25679288472E+02 -0.25945810080E+01  0.29547179542E+02  0.00000000000E+00 0.  1.
</event>
<event>
 5    1  0.1250806E-009  0.9118800E+02  0.7561462E-02  0.1125453E+00
         25   -1    0    0    0    0  0.00000000000E+00  0.00000000000E+00  0.99999998245E-14  0.12509000000E+03  0.12509000000E+03 0.  0.
        -13    1    3    3    0    0 -0.43434706531E+01  0.32817188530E+02 -0.18969493090E+02  0.38153458984E+02  0.10566000000E+00 0.  1.
         23    2    1    0    0    0 -0.15417528772E+02 -0.23003655398E+02 -0.92986554669E+01  0.95878130005E+02  0.91319671838E+02 0.  0.
         13    1    3    3    0    0 -0.11074058119E+02 -0.55820843928E+02  0.96708376233E+01  0.57724671021E+02  0.10566000000E+00 0. -1.
         22    1    1    0    0    0  0.15417528772E+02  0.23003655398E+02  0.92986554669E+01  0.29211869995E+02  0.00000000000E+00 0. -1.
</event>
<event>
 5    1  0.1250806E-009  0.9118800E+02  0.7561462E-02  0.1125453E+00
         25   -1    0    0    0    0  0.00000000000E+00  0.00000000000E+00  0.99999998245E-14  0.12509000000E+03  0.12509000000E+03 0.  0.
        -13    1    3    3    0    0 -0.56317559926E+02 -0.78768807951E+01 -0.93372490813E+01  0.57627321572E+02  0.10566000000E+00 0.  1.
         23    2    1    0    0    0 -0.24193573839E+02 -0.20642859966E+02 -0.83478149456E+01  0.92209265564E+02  0.86147582432E+02 0.  0.
         13    1    3    3    0    0  0.32123986087E+02 -0.12765979171E+02  0.98943413568E+00  0.34581943992E+02  0.10566000000E+00 0. -1.
         22    1    1    0    0    0  0.24193573839E+02  0.20642859966E+02  0.83478149456E+01  0.32880734436E+02  0.00000000000E+00 0.  1.
</event>
<event>
 5    1  0.1250806E-009  0.9118800E+02  0.7561462E-02  0.1125453E+00
         25   -1    0    0    0    0  0.00000000000E+00  0.00000000000E+00  0.99999998245E-14  0.12509000000E+03  0.12509000000E+03 0.  0.
        -13    1    3    3    0    0  0.85971088415E+01  0.29288298263E+02 -0.42618958277E+02  0.52422337455E+02  0.10566000000E+00 0. -1.
         23    2    1    0    0    0  0.85358144042E+01  0.25472022818E+02  0.28715320642E+01  0.98072787516E+02  0.94278003165E+02 0.  0.
         13    1    3    3    0    0 -0.61294437233E-01 -0.38162754450E+01  0.45490490341E+02  0.45650450061E+02  0.10566000000E+00 0.  1.
         22    1    1    0    0    0 -0.85358144042E+01 -0.25472022818E+02 -0.28715320642E+01  0.27017212484E+02  0.00000000000E+00 0. -1.
</event>
<event>
 5    1  0.1250806E-009  0.9118800E+02  0.7561462E-02  0.1125453E+00
         25   -1    0    0    0    0  0.00000000000E+00  0.00000000000E+00  0.99999998245E-14  0.12509000000E+03  0.12509000000E+03 0.  0.
        -13    1    3    3    0    0 -0.53279299028E+02 -0.20974102302E+02 -0.42622291785E+01  0.57417544652E+02  0.10566000000E+00 0.  1.
         23    2    1    0    0    0 -0.20028501100E+02 -0.39432122052E+01 -0.18639436381E+02  0.97447308970E+02  0.93444420155E+02 0.  0.
         13    1    3    3    0    0  0.33250797928E+02  0.17030890097E+02 -0.14377207202E+02  0.40029764317E+02  0.10566000000E+00 0. -1.
         22    1    1    0    0    0  0.20028501100E+02  0.39432122052E+01  0.18639436381E+02  0.27642691030E+02  0.00000000000E+00 0.  1.
</event>
<event>
 5    1  0.1250806E-009  0.9118800E+02  0.7561462E-02  0.1125453E+00
         25   -1    0    0    0    0  0.00000000000E+00  0.00000000000E+00  0.99999998245E-14  0.12509000000E+03  0.12509000000E+03 0.  0.
        -13    1    3    3    0    0  0.31776143654E+02 -0.27911442924E+02  0.98129282744E+01  0.43417469721E+02  0.10566000000E+00 0.  1.
         23    2    1    0    0    0 -0.17796360769E+02 -0.12316073972E+02  0.19119131153E+02  0.96212027240E+02  0.91775905742E+02 0.  0.
         13    1    3    3    0    0 -0.49572504423E+02  0.15595368952E+02  0.93062028787E+01  0.52794557519E+02  0.10566000000E+00 0. -1.
         22    1    1    0    0    0  0.17796360769E+02  0.12316073972E+02 -0.19119131153E+02  0.28877972760E+02  0.00000000000E+00 0.  1.
</event>
<event>
 5    1  0.1250806E-009  0.9118800E+02  0.7561462E-02  0.1125453E+00
         25   -1    0    0    0    0  0.00000000000E+00  0.00000000000E+00  0.99999998245E-14  0.12509000000E+03  0.12509000000E+03 0.  0.
        -13    1    3    3    0    0  0.46373804261E+02 -0.72196431776E+01  0.12019286763E+02  0.48447160780E+02  0.10566000000E+00 0. -1.
         23    2    1    0    0    0  0.11925244261E+02  0.18338996864E+02  0.23633460439E+02  0.92886417762E+02  0.87125288497E+02 0.  0.
         13    1    3    3    0    0 -0.34448560001E+02  0.25558640042E+02  0.11614173676E+02  0.44439256982E+02  0.10566000000E+00 0.  1.
         22    1    1    0    0    0 -0.11925244261E+02 -0.18338996864E+02 -0.23633460439E+02  0.32203582238E+02  0.00000000000E+00 0.  1.
</event>
<event>
 5    1  0.1250806E-009  0.9118800E+02  0.7561462E-02  0.1125453E+00
         25   -1    0    0    0    0  0.00000000000E+00  0.00000000000E+00  0.99999998245E-14  0.12509000000E+03  0.12509000000E+03 0.  0.
        -13    1    3    3    0    0 -0.71124594809E+01 -0.11920693203E+02 -0.43293114540E+02  0.45464216004E+02  0.10566000000E+00 0.  1.
         23    2    1    0    0    0 -0.72620306303E+01 -0.19002334673E+02  0.12174607463E+02  0.10138247211E+03  0.98571592114E+02 0.  0.
         13    1    3    3    0    0 -0.14957114948E+00 -0.70816414703E+01  0.55467722002E+02  0.55918256103E+02  0.10566000000E+00 0. -1.
         22    1    1    0    0    0  0.72620306303E+01  0.19002334673E+02 -0.12174607463E+02  0.23707527893E+02  0.00000000000E+00 0.  1.
</event>
<event>
 5    1  0.1250806E-009  0.9118800E+02  0.7561462E-02  0.1125453E+00
         25   -1    0    0    0    0  0.00000000000E+00  0.00000000000E+00  0.99999998245E-14  0.12509000000E+03  0.12509000000E+03 0.  0.
        -13    1    3    3    0    0  0.19160299507E+02 -0.11217973722E+02  0.37523656994E+02  0.43600412955E+02  0.10566000000E+00 0.  1.
         23    2    1    0    0    0 -0.18619234514E+02  0.16198497631E+02  0.19492271377E+02  0.93641377410E+02  0.88202560622E+02 0.  0.
         13    1    3    3    0    0 -0.37779534021E+02  0.27416471353E+02 -0.18031385616E+02  0.50040964455E+02  0.10566000000E+00 0. -1.
         22    1    1    0    0    0  0.18619234514E+02 -0.16198497631E+02 -0.19492271377E+02  0.31448622590E+02  0.00000000000E+00 0. -1.
</event>
<event>
 5    1  0.1250806E-009  0.9118800E+02  0.7561462E-02  0.1125453E+00
         25   -1    0    0    0    0  0.00000000000E+00  0.00000000000E+00  0.99999998245E-14  0.12509000000E+03  0.12509000000E+03 0.  0.
        -13    1    3    3    0    0  0.48325223629E+02 -0.19291933135E+02  0.74729722662E+00  0.52039173130E+02  0.10566000000E+00 0. -1.
         23    2    1    0    0    0  0.35263313818E+02 -0.63098804892E+01 -0.23320587254E+02  0.82344641386E+02  0.70380922713E+02 0.  0.
         13    1    3    3    0    0 -0.13061909811E+02  0.12982052646E+02 -0.24067884480E+02  0.30305468256E+02  0.10566000000E+00 0.  1.
         22    1    1    0    0    0 -0.35263313818E+02  0.63098804892E+01  0.23320587254E+02  0.42745358614E+02  0.00000000000E+00 0. -1.
</event>
<event>
 5    1  0.1250806E-009  0.9118800E+02  0.7561462E-02  0.1125453E+00
         25   -1    0    0    0    0  0.00000000000E+00  0.00000000000E+00  0.99999998245E-14  0.12509000000E+03  0.12509000000E+03 0.  0.
        -13    1    3    3    0    0 -0.33125904616E+02  0.26723923282E+02  0.34438236514E+02  0.54749401188E+02  0.10566000000E+00 0.  1.
         23    2    1    0    0    0 -0.13509932592E+02 -0.34055883076E+01  0.31288502632E+02  0.90839646610E+02  0.84135335555E+02 0.  0.
         13    1    3    3    0    0  0.19615972024E+02 -0.30129511590E+02 -0.31497338816E+01  0.36090245422E+02  0.10566000000E+00 0. -1.
         22    1    1    0    0    0  0.13509932592E+02  0.34055883076E+01 -0.31288502632E+02  0.34250353390E+02  0.00000000000E+00 0.  1.
</event>
<event>
 5    1  0.1250806E-009  0.9118800E+02  0.7561462E-02  0.1125453E+00
         25   -1    0    0    0    0  0.00000000000E+00  0.00000000000E+00  0.99999998245E-14  0.12509000000E+03  0.12509000000E+03 0.  0.
        -13    1    3    3    0    0 -0.40053947754E+02 -0.14820731485E+02  0.36748126724E+02  0.56341892000E+02  0.10566000000E+00 0. -1.
         23    2    1    0    0    0 -0.18620991956E+02 -0.22417367723E+02  0.48021749450E+01  0.95554587335E+02  0.90875401290E+02 0.  0.
         13    1    3    3    0    0  0.21432955797E+02 -0.75966362379E+01 -0.31945951779E+02  0.39212695335E+02  0.10566000000E+00 0.  1.
         22    1    1    0    0    0  0.18620991956E+02  0.22417367723E+02 -0.48021749450E+01  0.29535412665E+02  0.00000000000E+00 0.  1.
</event>
<event>
 5    1  0.1250806E-009  0.9118800E+02  0.7561462E-02  0.1125453E+00
         25   -1    0    0    0    0  0.00000000000E+00  0.00000000000E+00  0.99999998245E-14  0.12509000000E+03  0.12509000000E+03 0.  0.
        -13    1    3    3    0    0 -0.63769445253E+01  0.21371353875E+02  0.23425203292E+02  0.32344265353E+02  0.10566000000E+00 0.  1.
         23    2    1    0    0    0  0.19787974449E+02 -0.13572364628E+02 -0.19950784728E+02  0.93884121938E+02  0.88546154781E+02 0.  0.
         13    1    3    3    0    0  0.26164918974E+02 -0.34943718503E+02 -0.43375988020E+02  0.61539856585E+02  0.10566000000E+00 0. -1.
         22    1    1    0    0    0 -0.19787974449E+02  0.13572364628E+02  0.19950784728E+02  0.31205878062E+02  0.00000000000E+00 0. -1.
</event>
<event>
 5    1  0.1250806E-009  0.9118800E+02  0.7561462E-02  0.1125453E+00
         25   -1    0    0    0    0  0.00000000000E+00  0.00000000000E+00  0.99999998245E-14  0.12509000000E+03  0.12509000000E+03 0.  0.
        -13    1    3    3    0    0  0.25645419217E+02 -0.33592209445E+02 -0.29358489587E+02  0.51459266776E+02  0.10566000000E+00 0. -1.
         23    2    1    0    0    0 -0.23378308807E+01  0.11894991161E+01 -0.28867867945E+02  0.96103207127E+02  0.91627464545E+02 0.  0.
         13    1    3    3    0    0 -0.27983250098E+02  0.34781708561E+02  0.49062164197E+00  0.44643940351E+02  0.10566000000E+00 0.  1.
         22    1    1    0    0    0  0.23378308807E+01 -0.11894991161E+01  0.28867867945E+02  0.28986792873E+02  0.00000000000E+00 0.  1.
</event>
<event>
 5    1  0.1250806E-009  0.9118800E+02  0.7561462E-02  0.1125453E+00
         25   -1    0    0    0    0  0.00000000000E+00  0.00000000000E+00  0.99999998245E-14  0.12509000000E+03  0.12509000000E+03 0.  0.
        -13    1    3    3    0    0 -0.49629424141E+02  0.26524481681E+02 -0.13061389553E+02  0.57768840477E+02  0.10566000000E+00 0.  1.
         23    2    1    0    0    0 -0.11686046226E+02  0.21748123583E+02 -0.15244050809E+02  0.96074045064E+02  0.91587643785E+02 0.  0.
         13    1    3    3    0    0  0.37943377915E+02 -0.47763580980E+01 -0.21826612563E+01  0.38305204587E+02  0.10566000000E+00 0. -1.
         22    1    1    0    0    0  0.11686046226E+02 -0.21748123583E+02  0.15244050809E+02  0.29015954936E+02  0.00000000000E+00 0.  1.
</event>
<event>
 5    1  0.1250806E-009  0.9118800E+02  0.7561462E-02  0.1125453E+00
         25   -1    0    0    0    0  0.00000000000E+00  0.00000000000E+00  0.99999998245E-14  0.12509000000E+03  0.12509000000E+03 0.  0.
        -13    1    3    3    0    0 -0.53094977855E+02  0.13398373087E+02  0.12865028215E+02  0.56250450574E+02  0.10566000000E+00 0. -1.
         23    2    1    0    0    0 -0.36529313401E+02 -0.57211255042E+01 -0.57658060913E+01  0.87668528430E+02  0.79280542018E+02 0.  0.
         13    1    3    3    0    0  0.16565664454E+02 -0.19119498591E+02 -0.18630834307E+02  0.31418077856E+02  0.10566000000E+00 0.  1.
         22    1    1    0    0    0  0.36529313401E+02  0.57211255042E+01  0.57658060913E+01  0.37421471570E+02  0.00000000000E+00 0. -1.
</event>
<event>
 5    1  0.1250806E-009  0.9118800E+02  0.7561462E-02  0.1125453E+00
         25   -1    0    0    0    0  0.00000000000E+00  0.00000000000E+00  0.99999998245E-14  0.12509000000E+03  0.12509000000E+03 0.  0.
        -13    1    3    3    0    0  0.88812292598E+00  0.27122419756E+02 -0.35136864007E+02  0.44396224976E+02  0.10566000000E+00 0. -1.
         23    2    1    0    0    0 -0.23357610963E+02  0.19328474309E+02  0.73156584555E+01  0.93902073367E+02  0.88571511306E+02 0.  0.
         13    1    3    3    0    0 -0.24245733889E+02 -0.77939454476E+01  0.42452522463E+02  0.49505848392E+02  0.10566000000E+00 0.  1.
         22    1    1    0    0    0  0.23357610963E+02 -0.19328474309E+02 -0.73156584555E+01  0.31187926633E+02  0.00000000000E+00 0.  1.
</event>
<event>
 5    1  0.1250806E-009  0.9118800E+02  0.7561462E-02  0.1125453E+00
         25   -1    0    0    0    0  0.00000000000E+00  0.00000000000E+00  0.99999998245E-14  0.12509000000E+03  0.12509000000E+03 0.  0.
        -13    1    3    3    0    0  0.25446033494E+02 -0.35353622714E+02  0.31177386085E+02  0.53566965816E+02  0.10566000000E+00 0.  1.
         23    2    1    0    0    0  0.10788222383E+02  0.53119402945E+01  0.25151495077E+02  0.97211690215E+02  0.93128473400E+02 0.  0.
         13    1    3    3    0    0 -0.14657811111E+02  0.40665563008E+02 -0.60258910078E+01  0.43644724399E+02  0.10566000000E+00 0. -1.
         22    1    1    0    0    0 -0.10788222383E+02 -0.53119402945E+01 -0.25151495077E+02  0.27878309785E+02  0.00000000000E+00 0.  1.
</event>
<event>
 5    1  0.1250806E-009  0.9118800E+02  0.7561462E-02  0.1125453E+00
         25   -1    0    0    0    0  0.00000000000E+00  0.00000000000E+00  0.99999998245E-14  0.12509000000E+03  0.12509000000E+03 0.  0.
        -13    1    3    3    0    0 -0.31303103730E+02  0.19727564937E+01  0.47466824732E+02  0.56893643630E+02  0.10566000000E+00 0.  1.
         23    2    1    0    0    0  0.21214306590E+01  0.92410910625E+01  0.26334148889E+02  0.97100973047E+02  0.92979639368E+02 0.  0.
         13    1    3    3    0    0  0.33424534389E+02  0.72683345689E+01 -0.21132675843E+02  0.40207329417E+02  0.10566000000E+00 0. -1.
         22    1    1    0    0    0 -0.21214306590E+01 -0.92410910625E+01 -0.26334148889E+02  0.27989026953E+02  0.00000000000E+00 0.  1.
</event>
<event>
 5    1  0.1250806E-009  0.9118800E+02  0.7561462E-02  0.1125453E+00
         25   -1    0    0    0    0  0.00000000000E+00  0.00000000000E+00  0.99999998245E-14  0.12509000000E+03  0.12509000000E+03 0.  0.
        -13    1    3    3    0    0 -0.11092144415E+02  0.48101293857E+02 -0.24785120865E+02  0.55236613933E+02  0.10566000000E+00 0.  1.
         23    2    1    0    0    0 -0.25424229170E+02  0.15910724327E+02 -0.13110200715E+02  0.92357448307E+02  0.86362482118E+02 0.  0.
         13    1    3    3    0    0 -0.14332084755E+02 -0.32190569530E+02  0.11674920150E+02  0.37120834374E+02  0.10566000000E+00 0. -1.
         22    1    1    0    0    0  0.25424229170E+02 -0.15910724327E+02  0.13110200715E+02  0.32732551693E+02  0.00000000000E+00 0.  1.
</event>
<event>
 5    1  0.1250806E-009  0.9118800E+02  0.7561462E-02  0.1125453E+00
         25   -1    0    0    0    0  0.00000000000E+00  0.00000000000E+00  0.99999998245E-14  0.12509000000E+03  0.12509000000E+03 0.  0.
        -13    1    3    3    0    0  0.25479966131E+02 -0.27191485612E+02 -0.28749725386E+02  0.47065522813E+02  0.10566000000E+00 0.  1.
         23    2    1    0    0    0 -0.18312723831E+02  0.26670362236E+01 -0.13385071485E+02  0.10225079960E+03  0.99667431709E+02 0.  0.
         13    1    3    3    0    0 -0.43792689962E+02  0.29858521835E+02  0.15364653901E+02  0.55185276785E+02  0.10566000000E+00 0. -1.
         22    1    1    0    0    0  0.18312723831E+02 -0.26670362236E+01  0.13385071485E+02  0.22839200402E+02  0.00000000000E+00 0. -1.
</event>
<event>
 5    1  0.1250806E-009  0.9118800E+02  0.7561462E-02  0.1125453E+00
         25   -1    0    0    0    0  0.00000000000E+00  0.00000000000E+00  0.99999998245E-14  0.12509000000E+03  0.12509000000E+03 0.  0.
        -13    1    3    3    0    0 -0.51711107018E+01 -0.37607230378E+02 -0.34774282078E+02  0.51481122954E+02  0.10566000000E+00 0. -1.
         23    2    1    0    0    0  0.12879634124E+02 -0.26241780916E+02  0.38512086563E+01  0.95605294660E+02  0.90945173144E+02 0.  0.
         13    1    3    3    0    0  0.18050744826E+02  0.11365449461E+02  0.38625490734E+02  0.44124171706E+02  0.10566000000E+00 0.  1.
         22    1    1    0    0    0 -0.12879634124E+02  0.26241780916E+02 -0.38512086563E+01  0.29484705340E+02  0.00000000000E+00 0. -1.
</event>
<event>
 5    1  0.1250806E-009  0.9118800E+02  0.7561462E-02  0.1125453E+00
         25   -1    0    0    0    0  0.00000000000E+00  0.00000000000E+00  0.99999998245E-14  0.12509000000E+03  0.12509000000E+03 0.  0.
        -13    1    3    3    0    0 -0.46486280495E+02 -0.32920875156E+02  0.21614451001E+02  0.60925806941E+02  0.10566000000E+00 0.  1.
         23    2    1    0    0    0 -0.24823410397E+02 -0.18687398146E+02  0.10708013453E+01  0.94000336626E+02  0.88710180459E+02 0.  0.
         13    1    3    3    0    0  0.21662870098E+02  0.14233477010E+02 -0.20543649655E+02  0.33074529685E+02  0.10566000000E+00 0. -1.
         22    1    1    0    0    0  0.24823410397E+02  0.18687398146E+02 -0.10708013453E+01  0.31089663374E+02  0.00000000000E+00 0.  1.
</event>
<event>
 5    1  0.1250806E-009  0.9118800E+02  0.7561462E-02  0.1125453E+00
         25   -1    0    0    0    0  0.00000000000E+00  0.00000000000E+00  0.99999998245E-14  0.12509000000E+03  0.12509000000E+03 0.  0.
        -13    1    3    3    0    0 -0.11616656456E+02  0.29470624066E+02 -0.25455927936E+02  0.40638403281E+02  0.10566000000E+00 0. -1.
         23    2    1    0    0    0  0.28779803184E+01  0.14029873875E+02  0.25512868390E+02  0.95832067996E+02  0.91256554127E+02 0.  0.
         13    1    3    3    0    0  0.14494636775E+02 -0.15440750191E+02  0.50968796326E+02  0.55193664715E+02  0.10566000000E+00 0.  1.
         22    1    1    0    0    0 -0.28779803184E+01 -0.14029873875E+02 -0.25512868390E+02  0.29257932004E+02  0.00000000000E+00 0.  1.
</event>
<event>
 5    1  0.1250806E-009  0.9118800E+02  0.7561462E-02  0.1125453E+00
         25   -1    0    0    0    0  0.00000000000E+00  0.00000000000E+00  0.99999998245E-14  0.12509000000E+03  0.12509000000E+03 0.  0.
        -13    1    3    3    0    0  0.33701667420E+02  0.24240034683E+02 -0.26412025130E+01  0.41597701656E+02  0.10566000000E+00 0.  1.
         23    2    1    0    0    0  0.11985042029E+02 -0.24664790063E+02  0.87475610124E+01  0.96306099553E+02  0.91904036289E+02 0.  0.
         13    1    3    3    0    0 -0.21716625391E+02 -0.48904824746E+02  0.11388763525E+02  0.54708397897E+02  0.10566000000E+00 0. -1.
         22    1    1    0    0    0 -0.11985042029E+02  0.24664790063E+02 -0.87475610124E+01  0.28783900447E+02  0.00000000000E+00 0. -1.
</event>
<event>
 5    1  0.1250806E-009  0.9118800E+02  0.7561462E-02  0.1125453E+00
         25   -1    0    0    0    0  0.00000000000E+00  0.00000000000E+00  0.99999998245E-14  0.12509000000E+03  0.12509000000E+03 0.  0.
        -13    1    3    3    0    0  0.16873318285E+02 -0.15909671289E+02  0.26200768816E+02  0.34990255230E+02  0.10566000000E+00 0. -1.
         23    2    1    0    0    0 -0.25054644086E+02  0.13016155680E+02 -0.72629368886E+01  0.95936856924E+02  0.91400080773E+02 0.  0.
         13    1    3    3    0    0 -0.41927962371E+02  0.28925826969E+02 -0.33463705705E+02  0.60946601694E+02  0.10566000000E+00 0.  1.
         22    1    1    0    0    0  0.25054644086E+02 -0.13016155680E+02  0.72629368886E+01  0.29153143076E+02  0.00000000000E+00 0.  1.
</event>
<event>
 5    1  0.1250806E-009  0.9118800E+02  0.7561462E-02  0.1125453E+00
         25   -1    0    0    0    0  0.00000000000E+00  0.00000000000E+00  0.99999998245E-14  0.12509000000E+03  0.12509000000E+03 0.  0.
        -13    1    3    3    0    0  0.14753904819E+02 -0.52668577738E+02  0.69201997696E+01  0.55132178600E+02  0.10566000000E+00 0.  1.
         23    2    1    0    0    0  0.70524727224E+01 -0.21977592777E+02 -0.18330735882E+02  0.95615132168E+02  0.90958703078E+02 0.  0.
         13    1    3    3    0    0 -0.77014320962E+01  0.30690984961E+02 -0.25250935652E+02  0.40482953567E+02  0.10566000000E+00 0. -1.
         22    1    1    0    0    0 -0.70524727224E+01  0.21977592777E+02  0.18330735882E+02  0.29474867832E+02  0.00000000000E+00 0.  1.
</event>
<event>
 5    1  0.1250806E-009  0.9118800E+02  0.7561462E-02  0.1125453E+00
         25   -1    0    0    0    0  0.00000000000E+00  0.00000000000E+00  0.99999998245E-14  0.12509000000E+03  0.12509000000E+03 0.  0.
        -13    1    3    3    0    0  0.20472217315E+02  0.30267812443E+02  0.62444218281E+01  0.37070960601E+02  0.10566000000E+00 0.  1.
         23    2    1    0    0    0 -0.16007605101E+02 -0.34058964601E+01  0.29083237471E+02  0.91718181746E+02  0.85431531703E+02 0.  0.
         13    1    3    3    0    0 -0.36479822417E+02 -0.33673708903E+02  0.22838815643E+02  0.54647221145E+02  0.10566000000E+00 0. -1.
         22    1    1    0    0    0  0.16007605101E+02  0.34058964601E+01 -0.29083237471E+02  0.33371818254E+02  0.00000000000E+00 0. -1.
</event>
<event>
 5    1  0.1250806E-009  0.9118800E+02  0.7561462E-02  0.1125453E+00
         25   -1    0    0    0    0  0.00000000000E+00  0.00000000000E+00  0.99999998245E-14  0.12509000000E+03  0.12509000000E+03 0.  0.
        -13    1    3    3    0    0  0.10617429272E+02 -0.17029736974E+02  0.33246853352E+02  0.38834342631E+02  0.10566000000E+00 0.  1.
         23    2    1    0    0    0 -0.52784812937E+01  0.12033304579E+02 -0.19771230187E+02  0.10135049017E+03  0.98530997817E+02 0.  0.
         13    1    3    3    0    0 -0.15895910566E+02  0.29063041553E+02 -0.53018083539E+02  0.62516147539E+02  0.10566000000E+00 0. -1.
         22    1    1    0    0    0  0.52784812937E+01 -0.12033304579E+02  0.19771230187E+02  0.23739509830E+02  0.00000000000E+00 0. -1.
</event>
<event>
 5    1  0.1250806E-009  0.9118800E+02  0.7561462E-02  0.1125453E+00
         25   -1    0    0    0    0  0.00000000000E+00  0.00000000000E+00  0.99999998245E-14  0.12509000000E+03  0.12509000000E+03 0.  0.
        -13    1    3    3    0    0  0.22655867324E+02 -0.14576373714E+02 -0.41781480193E+02  0.49713803375E+02  0.10566000000E+00 0.  1.
         23    2    1    0    0    0 -0.13551216144E+02 -0.21757245731E+02 -0.14248761426E+02  0.95763554546E+02  0.91162590882E+02 0.  0.
         13    1    3    3    0    0 -0.36207083468E+02 -0.71808720165E+01  0.27532718767E+02  0.46049751171E+02  0.10566000000E+00 0. -1.
         22    1    1    0    0    0  0.13551216144E+02  0.21757245731E+02  0.14248761426E+02  0.29326445454E+02  0.00000000000E+00 0.  1.
</event>
<event>
 5    1  0.1250806E-009  0.9118800E+02  0.7561462E-02  0.1125453E+00
         25   -1    0    0    0    0  0.00000000000E+00  0.00000000000E+00  0.99999998245E-14  0.12509000000E+03  0.12509000000E+03 0.  0.
        -13    1    3    3    0    0 -0.55216801758E+01 -0.34175958186E+02 -0.16309586083E+02  0.38268770978E+02  0.10566000000E+00 0.  1.
         23    2    1    0    0    0 -0.25061845415E+02  0.12446648817E+02  0.10146175660E+02  0.95324919067E+02  0.90558711079E+02 0.  0.
         13    1    3    3    0    0 -0.19540165240E+02  0.46622607003E+02  0.26455761743E+02  0.57056148090E+02  0.10566000000E+00 0. -1.
         22    1    1    0    0    0  0.25061845415E+02 -0.12446648817E+02 -0.10146175660E+02  0.29765080933E+02  0.00000000000E+00 0. -1.
</event>
<event>
 5    1  0.1250806E-009  0.9118800E+02  0.7561462E-02  0.1125453E+00
         25   -1    0    0    0    0  0.00000000000E+00  0.00000000000E+00  0.99999998245E-14  0.12509000000E+03  0.12509000000E+03 0.  0.
        -13    1    3    3    0    0  0.13039572893E+02 -0.23845433881E+02  0.27139379975E+02  0.38408232030E+02  0.10566000000E+00 0. -1.
         23    2    1    0    0    0 -0.19029310650E+02  0.20010372418E+02  0.52537737263E+01  0.96980716720E+02  0.92817711721E+02 0.  0.
         13    1    3    3    0    0 -0.32068883543E+02  0.43855806299E+02 -0.21885606249E+02  0.58572484690E+02  0.10566000000E+00 0.  1.
         22    1    1    0    0    0  0.19029310650E+02 -0.20010372418E+02 -0.52537737263E+01  0.28109283280E+02  0.00000000000E+00 0.  1.
</event>
<event>
 5    1  0.1250806E-009  0.9118800E+02  0.7561462E-02  0.1125453E+00
         25   -1    0    0    0    0  0.00000000000E+00  0.00000000000E+00  0.99999998245E-14  0.12509000000E+03  0.12509000000E+03 0.  0.
        -13    1    3    3    0    0  0.27981209005E+02  0.17069475776E+02  0.15455642901E+02  0.36238144575E+02  0.10566000000E+00 0. -1.
         23    2    1    0    0    0 -0.27071038207E+02 -0.29690253638E+01  0.13095840987E+02  0.94871507775E+02  0.89930226927E+02 0.  0.
         13    1    3    3    0    0 -0.55052247212E+02 -0.20038501140E+02 -0.23598019141E+01  0.58633363200E+02  0.10566000000E+00 0.  1.
         22    1    1    0    0    0  0.27071038207E+02  0.29690253638E+01 -0.13095840987E+02  0.30218492225E+02  0.00000000000E+00 0.  1.
</event>
<event>
 5    1  0.1250806E-009  0.9118800E+02  0.7561462E-02  0.1125453E+00
         25   -1    0    0    0    0  0.00000000000E+00  0.00000000000E+00  0.99999998245E-14  0.12509000000E+03  0.12509000000E+03 0.  0.
        -13    1    3    3    0    0  0.48137307246E+02  0.54189927021E+00 -0.59143050598E+01  0.48502414085E+02  0.10566000000E+00 0. -1.
         23    2    1    0    0    0  0.23426203644E+02 -0.79790998509E+01  0.25625019944E+02  0.89465644585E+02  0.82067087571E+02 0.  0.
         13    1    3    3    0    0 -0.24711103602E+02 -0.85209991211E+01  0.31539325004E+02  0.40963230500E+02  0.10566000000E+00 0.  1.
         22    1    1    0    0    0 -0.23426203644E+02  0.79790998509E+01 -0.25625019944E+02  0.35624355415E+02  0.00000000000E+00 0. -1.
</event>
<event>
 5    1  0.1250806E-009  0.9118800E+02  0.7561462E-02  0.1125453E+00
         25   -1    0    0    0    0  0.00000000000E+00  0.00000000000E+00  0.99999998245E-14  0.12509000000E+03  0.12509000000E+03 0.  0.
        -13    1    3    3    0    0 -0.57229548382E+02 -0.10134351378E+02  0.13095916890E+02  0.59577180942E+02  0.10566000000E+00 0. -1.
         23    2    1    0    0    0 -0.19969059988E+02 -0.19335263122E+01  0.18116278477E+02  0.98058510462E+02  0.94259058171E+02 0.  0.
         13    1    3    3    0    0  0.37260488393E+02  0.82008250663E+01  0.50203615868E+01  0.38481329519E+02  0.10566000000E+00 0.  1.
         22    1    1    0    0    0  0.19969059988E+02  0.19335263122E+01 -0.18116278477E+02  0.27031489538E+02  0.00000000000E+00 0. -1.
</event>
<event>
 5    1  0.1250806E-009  0.9118800E+02  0.7561462E-02  0.1125453E+00
         25   -1    0    0    0    0  0.00000000000E+00  0.00000000000E+00  0.99999998245E-14  0.12509000000E+03  0.12509000000E+03 0.  0.
        -13    1    3    3    0    0  0.36839291521E+01 -0.59642881269E+02 -0.78239390298E+01  0.60266655839E+02  0.10566000000E+00 0.  1.
         23    2    1    0    0    0 -0.64539619469E+01 -0.28195234823E+02  0.50506782247E+01  0.95727877426E+02  0.91113622881E+02 0.  0.
         13    1    3    3    0    0 -0.10137891099E+02  0.31447646446E+02  0.12874617255E+02  0.35461221587E+02  0.10566000000E+00 0. -1.
         22    1    1    0    0    0  0.64539619469E+01  0.28195234823E+02 -0.50506782247E+01  0.29362122574E+02  0.00000000000E+00 0.  1.
</event>
<event>
 5    1  0.1250806E-009  0.9118800E+02  0.7561462E-02  0.1125453E+00
         25   -1    0    0    0    0  0.00000000000E+00  0.00000000000E+00  0.99999998245E-14  0.12509000000E+03  0.12509000000E+03 0.  0.
        -13    1    3    3    0    0 -0.95587738108E+01  0.39149429380E+02 -0.88908103929E+01  0.41268700622E+02  0.10566000000E+00 0. -1.
         23    2    1    0    0    0 -0.21002161480E+02 -0.14967983518E+02 -0.11946695833E+02  0.96667212333E+02  0.92394237275E+02 0.  0.
         13    1    3    3    0    0 -0.11443387669E+02 -0.54117412897E+02 -0.30558854400E+01  0.55398511712E+02  0.10566000000E+00 0.  1.
         22    1    1    0    0    0  0.21002161480E+02  0.14967983518E+02  0.11946695833E+02  0.28422787667E+02  0.00000000000E+00 0.  1.
</event>
<event>
 5    1  0.1250806E-009  0.9118800E+02  0.7561462E-02  0.1125453E+00
         25   -1    0    0    0    0  0.00000000000E+00  0.00000000000E+00  0.99999998245E-14  0.12509000000E+03  0.12509000000E+03 0.  0.
        -13    1    3    3    0    0 -0.22804977788E+02  0.25697102839E+02  0.38487180482E+02  0.51591494762E+02  0.10566000000E+00 0. -1.
         23    2    1    0    0    0  0.15296947898E+02  0.17997804659E+02  0.16803551439E+02  0.96102469431E+02  0.91626457435E+02 0.  0.
         13    1    3    3    0    0  0.38101925686E+02 -0.76992981803E+01 -0.21683629043E+02  0.44510974669E+02  0.10566000000E+00 0.  1.
         22    1    1    0    0    0 -0.15296947898E+02 -0.17997804659E+02 -0.16803551439E+02  0.28987530569E+02  0.00000000000E+00 0. -1.
</event>
<event>
 5    1  0.1250806E-009  0.9118800E+02  0.7561462E-02  0.1125453E+00
         25   -1    0    0    0    0  0.00000000000E+00  0.00000000000E+00  0.99999998245E-14  0.12509000000E+03  0.12509000000E+03 0.  0.
        -13    1    3    3    0    0  0.12808938044E+02 -0.38943600987E+02 -0.10626792470E+02  0.42351066502E+02  0.10566000000E+00 0. -1.
         23    2    1    0    0    0 -0.23858026507E+02  0.52398372361E+01 -0.47106200820E+00  0.10065880636E+03  0.97648922555E+02 0.  0.
         13    1    3    3    0    0 -0.36666964551E+02  0.44183438223E+02  0.10155730462E+02  0.58307739862E+02  0.10566000000E+00 0.  1.
         22    1    1    0    0    0  0.23858026507E+02 -0.52398372361E+01  0.47106200820E+00  0.24431193636E+02  0.00000000000E+00 0.  1.
</event>
<event>
 5    1  0.1250806E-009  0.9118800E+02  0.7561462E-02  0.1125453E+00
         25   -1    0    0    0    0  0.00000000000E+00  0.00000000000E+00  0.99999998245E-14  0.12509000000E+03  0.12509000000E+03 0.  0.
        -13    1    3    3    0    0 -0.45627852749E+02  0.23857140317E+02  0.10538401246E+02  0.52556000186E+02  0.10566000000E+00 0.  1.
         23    2    1    0    0    0 -0.10190800536E+02  0.22958110687E+02 -0.14621680959E+02  0.96025918801E+02  0.91521889544E+02 0.  0.
         13    1    3    3    0    0  0.35437052214E+02 -0.89902963071E+00 -0.25160082205E+02  0.43469918616E+02  0.10566000000E+00 0. -1.
         22    1    1    0    0    0  0.10190800536E+02 -0.22958110687E+02  0.14621680959E+02  0.29064081199E+02  0.00000000000E+00 0. -1.
</event>
<event>
 5    1  0.1250806E-009  0.9118800E+02  0.7561462E-02  0.1125453E+00
         25   -1    0    0    0    0  0.00000000000E+00  0.00000000000E+00  0.99999998245E-14  0.12509000000E+03  0.12509000000E+03 0.  0.
        -13    1    3    3    0    0  0.22272705186E+02  0.51221757854E+02 -0.24400266705E+02  0.60951833880E+02  0.10566000000E+00 0. -1.
         23    2    1    0    0    0  0.12736015811E+02  0.26897490866E+02 -0.21803733837E+01  0.95249840120E+02  0.90454944039E+02 0.  0.
         13    1    3    3    0    0 -0.95366893757E+01 -0.24324266988E+02  0.22219893322E+02  0.34298006240E+02  0.10566000000E+00 0.  1.
         22    1    1    0    0    0 -0.12736015811E+02 -0.26897490866E+02  0.21803733837E+01  0.29840159880E+02  0.00000000000E+00 0. -1.
</event>
<event>
 5    1  0.1250806E-009  0.9118800E+02  0.7561462E-02  0.1125453E+00
         25   -1    0    0    0    0  0.00000000000E+00  0.00000000000E+00  0.99999998245E-14  0.12509000000E+03  0.12509000000E+03 0.  0.
        -13    1    3    3    0    0  0.49585515538E+02  0.36698500768E+02 -0.16707787750E+00  0.61689078359E+02  0.10566000000E+00 0.  1.
         23    2    1    0    0    0  0.20170002778E+02  0.21041052327E+02 -0.54770397268E+01  0.95432743564E+02  0.90707528270E+02 0.  0.
         13    1    3    3    0    0 -0.29415512760E+02 -0.15657448441E+02 -0.53099618493E+01  0.33743665205E+02  0.10566000000E+00 0. -1.
         22    1    1    0    0    0 -0.20170002778E+02 -0.21041052327E+02  0.54770397268E+01  0.29657256436E+02  0.00000000000E+00 0.  1.
</event>
<event>
 5    1  0.1250806E-009  0.9118800E+02  0.7561462E-02  0.1125453E+00
         25   -1    0    0    0    0  0.00000000000E+00  0.00000000000E+00  0.99999998245E-14  0.12509000000E+03  0.12509000000E+03 0.  0.
        -13    1    3    3    0    0  0.79920221397E+01 -0.29347575783E+02 -0.37286603493E+02  0.48119170673E+02  0.10566000000E+00 0.  1.
         23    2    1    0    0    0 -0.15534133049E+02 -0.22418615701E+02  0.53398647084E+01  0.97297595019E+02  0.93243789187E+02 0.  0.
         13    1    3    3    0    0 -0.23526155189E+02  0.69289600823E+01  0.42626468201E+02  0.49178424346E+02  0.10566000000E+00 0. -1.
         22    1    1    0    0    0  0.15534133049E+02  0.22418615701E+02 -0.53398647084E+01  0.27792404981E+02  0.00000000000E+00 0.  1.
</event>
<event>
 5    1  0.1250806E-009  0.9118800E+02  0.7561462E-02  0.1125453E+00
         25   -1    0    0    0    0  0.00000000000E+00  0.00000000000E+00  0.99999998245E-14  0.12509000000E+03  0.12509000000E+03 0.  0.
        -13    1    3    3    0    0 -0.37033398958E+02 -0.35191070404E+02  0.35126801913E+02  0.61998285873E+02  0.10566000000E+00 0.  1.
         23    2    1    0    0    0 -0.13166076549E+02 -0.15606963591E+02  0.20479751641E+02  0.96170402640E+02  0.91719154119E+02 0.  0.
         13    1    3    3    0    0  0.23867322409E+02  0.19584106813E+02 -0.14647050272E+02  0.34172116767E+02  0.10566000000E+00 0. -1.
         22    1    1    0    0    0  0.13166076549E+02  0.15606963591E+02 -0.20479751641E+02  0.28919597360E+02  0.00000000000E+00 0.  1.
</event>
<event>
 5    1  0.1250806E-009  0.9118800E+02  0.7561462E-02  0.1125453E+00
         25   -1    0    0    0    0  0.00000000000E+00  0.00000000000E+00  0.99999998245E-14  0.12509000000E+03  0.12509000000E+03 0.  0.
        -13    1    3    3    0    0 -0.30236413497E+02  0.49826468814E+01 -0.50168924832E+02  0.58787750884E+02  0.10566000000E+00 0.  1.
         23    2    1    0    0    0 -0.19891611341E+02  0.14353676920E+02 -0.15724644626E+02  0.95952932689E+02  0.91422079390E+02 0.  0.
         13    1    3    3    0    0  0.10344802156E+02  0.93710300389E+01  0.34444280206E+02  0.37165181805E+02  0.10566000000E+00 0. -1.
         22    1    1    0    0    0  0.19891611341E+02 -0.14353676920E+02  0.15724644626E+02  0.29137067311E+02  0.00000000000E+00 0.  1.
</event>
<event>
 5    1  0.1250806E-009  0.9118800E+02  0.7561462E-02  0.1125453E+00
         25   -1    0    0    0    0  0.00000000000E+00  0.00000000000E+00  0.99999998245E-14  0.12509000000E+03  0.12509000000E+03 0.  0.
        -13    1    3    3    0    0 -0.19020259567E+01 -0.24595771509E+02 -0.20888695414E+02  0.32325198205E+02  0.10566000000E+00 0. -1.
         23    2    1    0    0    0 -0.85256665444E+01  0.26491092317E+02  0.13394763688E+02  0.94204976826E+02  0.88998275278E+02 0.  0.
         13    1    3    3    0    0 -0.66236405877E+01  0.51086863826E+02  0.34283459102E+02  0.61879778621E+02  0.10566000000E+00 0.  1.
         22    1    1    0    0    0  0.85256665444E+01 -0.26491092317E+02 -0.13394763688E+02  0.30885023174E+02  0.00000000000E+00 0.  1.
</event>
<event>
 5    1  0.1250806E-009  0.9118800E+02  0.7561462E-02  0.1125453E+00
         25   -1    0    0    0    0  0.00000000000E+00  0.00000000000E+00  0.99999998245E-14  0.12509000000E+03  0.12509000000E+03 0.  0.
        -13    1    3    3    0    0  0.22470066195E+02  0.32986949087E+02 -0.39996494047E+02  0.56504631536E+02  0.10566000000E+00 0.  1.
         23    2    1    0    0    0 -0.66296620863E+01  0.10101082758E+02 -0.26598971194E+02  0.95875456347E+02  0.91316009380E+02 0.  0.
         13    1    3    3    0    0 -0.29099728282E+02 -0.22885866330E+02  0.13397522853E+02  0.39370824812E+02  0.10566000000E+00 0. -1.
         22    1    1    0    0    0  0.66296620863E+01 -0.10101082758E+02  0.26598971194E+02  0.29214543653E+02  0.00000000000E+00 0.  1.
</event>
<event>
 5    1  0.1250806E-009  0.9118800E+02  0.7561462E-02  0.1125453E+00
         25   -1    0    0    0    0  0.00000000000E+00  0.00000000000E+00  0.99999998245E-14  0.12509000000E+03  0.12509000000E+03 0.  0.
        -13    1    3    3    0    0 -0.21384022314E+02 -0.26181100529E+02 -0.18287744296E+02  0.38434088914E+02  0.10566000000E+00 0.  1.
         23    2    1    0    0    0  0.15077058616E+02  0.19089907181E+02 -0.14688410407E+02  0.96673602392E+02  0.92402888193E+02 0.  0.
         13    1    3    3    0    0  0.36461080930E+02  0.45271007710E+02  0.35993338882E+01  0.58239513478E+02  0.10566000000E+00 0. -1.
         22    1    1    0    0    0 -0.15077058616E+02 -0.19089907181E+02  0.14688410407E+02  0.28416397608E+02  0.00000000000E+00 0. -1.
</event>
<event>
 5    1  0.1250806E-009  0.9118800E+02  0.7561462E-02  0.1125453E+00
         25   -1    0    0    0    0  0.00000000000E+00  0.00000000000E+00  0.99999998245E-14  0.12509000000E+03  0.12509000000E+03 0.  0.
        -13    1    3    3    0    0 -0.46520789709E+02  0.84261113033E+01  0.29066504545E+02  0.55498252922E+02  0.10566000000E+00 0.  1.
         23    2    1    0    0    0 -0.29532500436E+02 -0.60813277585E+01 -0.32267410753E+01  0.94765703021E+02  0.89782935359E+02 0.  0.
         13    1    3    3    0    0  0.16988289272E+02 -0.14507439062E+02 -0.32293245621E+02  0.39267450099E+02  0.10566000000E+00 0. -1.
         22    1    1    0    0    0  0.29532500436E+02  0.60813277585E+01  0.32267410753E+01  0.30324296979E+02  0.00000000000E+00 0.  1.
</event>
<event>
 5    1  0.1250806E-009  0.9118800E+02  0.7561462E-02  0.1125453E+00
         25   -1    0    0    0    0  0.00000000000E+00  0.00000000000E+00  0.99999998245E-14  0.12509000000E+03  0.12509000000E+03 0.  0.
        -13    1    3    3    0    0  0.34966924585E+02  0.17860333978E+02  0.33758473847E+02  0.51781493462E+02  0.10566000000E+00 0. -1.
         23    2    1    0    0    0  0.28624965635E+02 -0.12096662519E+02  0.53386411179E+01  0.93558761669E+02  0.88085315997E+02 0.  0.
         13    1    3    3    0    0 -0.63419589492E+01 -0.29956996497E+02 -0.28419832729E+02  0.41777268206E+02  0.10566000000E+00 0.  1.
         22    1    1    0    0    0 -0.28624965635E+02  0.12096662519E+02 -0.53386411179E+01  0.31531238331E+02  0.00000000000E+00 0. -1.
</event>
<event>
 5    1  0.1250806E-009  0.9118800E+02  0.7561462E-02  0.1125453E+00
         25   -1    0    0    0    0  0.00000000000E+00  0.00000000000E+00  0.99999998245E-14  0.12509000000E+03  0.12509000000E+03 0.  0.
        -13    1    3    3    0    0 -0.45785691467E+02 -0.32829579980E+02 -0.24696817371E+02  0.61514671559E+02  0.10566000000E+00 0. -1.
         23    2    1    0    0    0 -0.16123396268E+02 -0.21379276364E+02 -0.11845509708E+02  0.95809401213E+02  0.91225478325E+02 0.  0.
         13    1    3    3    0    0  0.29662295199E+02  0.11450303616E+02  0.12851307663E+02  0.34294729654E+02  0.10566000000E+00 0.  1.
         22    1    1    0    0    0  0.16123396268E+02  0.21379276364E+02  0.11845509708E+02  0.29280598787E+02  0.00000000000E+00 0. -1.
</event>
<event>
 5    1  0.1250806E-009  0.9118800E+02  0.7561462E-02  0.1125453E+00
         25   -1    0    0    0    0  0.00000000000E+00  0.00000000000E+00  0.99999998245E-14  0.12509000000E+03  0.12509000000E+03 0.  0.
        -13    1    3    3    0    0  0.30945061508E+02  0.84637566756E+01  0.23675321026E+02  0.39871844684E+02  0.10566000000E+00 0.  1.
         23    2    1    0    0    0 -0.21724325567E+02  0.16942952281E+02  0.14343872613E+02  0.94029468214E+02  0.88751249330E+02 0.  0.
         13    1    3    3    0    0 -0.52669387074E+02  0.84791956052E+01 -0.93314484133E+01  0.54157623530E+02  0.10566000000E+00 0. -1.
         22    1    1    0    0    0  0.21724325567E+02 -0.16942952281E+02 -0.14343872613E+02  0.31060531786E+02  0.00000000000E+00 0. -1.
</event>
<event>
 5    1  0.1250806E-009  0.9118800E+02  0.7561462E-02  0.1125453E+00
         25   -1    0    0    0    0  0.00000000000E+00  0.00000000000E+00  0.99999998245E-14  0.12509000000E+03  0.12509000000E+03 0.  0.
        -13    1    3    3    0    0 -0.20785168876E+02  0.69245062232E+01  0.37557972639E+02  0.43480852159E+02  0.10566000000E+00 0. -1.
         23    2    1    0    0    0 -0.75054423325E+01 -0.28080974545E+02  0.70607564237E+00  0.96014729772E+02  0.91506595361E+02 0.  0.
         13    1    3    3    0    0  0.13279726544E+02 -0.35005480768E+02 -0.36851896997E+02  0.52533877614E+02  0.10566000000E+00 0.  1.
         22    1    1    0    0    0  0.75054423325E+01  0.28080974545E+02 -0.70607564237E+00  0.29075270228E+02  0.00000000000E+00 0.  1.
</event>
<event>
 5    1  0.1250806E-009  0.9118800E+02  0.7561462E-02  0.1125453E+00
         25   -1    0    0    0    0  0.00000000000E+00  0.00000000000E+00  0.99999998245E-14  0.12509000000E+03  0.12509000000E+03 0.  0.
        -13    1    3    3    0    0 -0.62263364039E+02  0.17606876962E+00 -0.29241560451E+01  0.62332329928E+02  0.10566000000E+00 0.  1.
         23    2    1    0    0    0 -0.24062310034E+02  0.32096265225E+01 -0.27967167600E+01  0.10065400010E+03  0.97642765448E+02 0.  0.
         13    1    3    3    0    0  0.38201054005E+02  0.30335577529E+01  0.12743928511E+00  0.38321670169E+02  0.10566000000E+00 0. -1.
         22    1    1    0    0    0  0.24062310034E+02 -0.32096265225E+01  0.27967167600E+01  0.24435999902E+02  0.00000000000E+00 0.  1.
</event>
<event>
 5    1  0.1250806E-009  0.9118800E+02  0.7561462E-02  0.1125453E+00
         25   -1    0    0    0    0  0.00000000000E+00  0.00000000000E+00  0.99999998245E-14  0.12509000000E+03  0.12509000000E+03 0.  0.
        -13    1    3    3    0    0  0.20986937715E+02 -0.50357198563E+02  0.68991076272E+01  0.54990070484E+02  0.10566000000E+00 0.  1.
         23    2    1    0    0    0  0.24252547627E+02 -0.10279547128E+02  0.13091990344E+02  0.95674776616E+02  0.91040691528E+02 0.  0.
         13    1    3    3    0    0  0.32656099116E+01  0.40077651435E+02  0.61928827170E+01  0.40684706132E+02  0.10566000000E+00 0. -1.
         22    1    1    0    0    0 -0.24252547627E+02  0.10279547128E+02 -0.13091990344E+02  0.29415223384E+02  0.00000000000E+00 0.  1.
</event>
<event>
 5    1  0.1250806E-009  0.9118800E+02  0.7561462E-02  0.1125453E+00
         25   -1    0    0    0    0  0.00000000000E+00  0.00000000000E+00  0.99999998245E-14  0.12509000000E+03  0.12509000000E+03 0.  0.
        -13    1    3    3    0    0  0.14424716767E+02 -0.10859909616E+02 -0.29424069588E+02  0.34522414832E+02  0.10566000000E+00 0.  1.
         23    2    1    0    0    0 -0.26143462363E+02  0.21683477353E+01  0.13995871304E+02  0.95356739671E+02  0.90602654658E+02 0.  0.
         13    1    3    3    0    0 -0.40568179129E+02  0.13028257352E+02  0.43419940893E+02  0.60834324839E+02  0.10566000000E+00 0. -1.
         22    1    1    0    0    0  0.26143462363E+02 -0.21683477353E+01 -0.13995871304E+02  0.29733260329E+02  0.00000000000E+00 0. -1.
</event>
<event>
 5    1  0.1250806E-009  0.9118800E+02  0.7561462E-02  0.1125453E+00
         25   -1    0    0    0    0  0.00000000000E+00  0.00000000000E+00  0.99999998245E-14  0.12509000000E+03  0.12509000000E+03 0.  0.
        -13    1    3    3    0    0  0.19207959917E+02  0.37680793215E+02  0.44697211637E+01  0.42529724579E+02  0.10566000000E+00 0.  1.
         23    2    1    0    0    0  0.10024277932E+02 -0.12656844629E+02  0.23033128773E+02  0.96961600025E+02  0.92791944663E+02 0.  0.
         13    1    3    3    0    0 -0.91836819847E+01 -0.50337637844E+02  0.18563407610E+02  0.54431875447E+02  0.10566000000E+00 0. -1.
         22    1    1    0    0    0 -0.10024277932E+02  0.12656844629E+02 -0.23033128773E+02  0.28128399975E+02  0.00000000000E+00 0. -1.
</event>
<event>
 5    1  0.1250806E-009  0.9118800E+02  0.7561462E-02  0.1125453E+00
         25   -1    0    0    0    0  0.00000000000E+00  0.00000000000E+00  0.99999998245E-14  0.12509000000E+03  0.12509000000E+03 0.  0.
        -13    1    3    3    0    0  0.19517570788E+02 -0.40479022080E+02 -0.21959454967E+02  0.50017153302E+02  0.10566000000E+00 0. -1.
         23    2    1    0    0    0  0.12132086731E+02  0.10362853888E+02 -0.17225415207E+02  0.10161040890E+03  0.98860426858E+02 0.  0.
         13    1    3    3    0    0 -0.73854840567E+01  0.50841875968E+02  0.47340397594E+01  0.51593255598E+02  0.10566000000E+00 0.  1.
         22    1    1    0    0    0 -0.12132086731E+02 -0.10362853888E+02  0.17225415207E+02  0.23479591100E+02  0.00000000000E+00 0.  1.
</event>
<event>
 5    1  0.1250806E-009  0.9118800E+02  0.7561462E-02  0.1125453E+00
         25   -1    0    0    0    0  0.00000000000E+00  0.00000000000E+00  0.99999998245E-14  0.12509000000E+03  0.12509000000E+03 0.  0.
        -13    1    3    3    0    0 -0.56699053931E+02  0.16668518459E+02  0.17796300462E+02  0.61719864699E+02  0.10566000000E+00 0. -1.
         23    2    1    0    0    0 -0.27705355295E+02  0.15483474489E+02  0.78500325668E+01  0.92395234278E+02  0.86417195116E+02 0.  0.
         13    1    3    3    0    0  0.28993698635E+02 -0.11850439692E+01 -0.99462678950E+01  0.30675369580E+02  0.10566000000E+00 0.  1.
         22    1    1    0    0    0  0.27705355295E+02 -0.15483474489E+02 -0.78500325668E+01  0.32694765722E+02  0.00000000000E+00 0. -1.
</event>
<event>
 5    1  0.1250806E-009  0.9118800E+02  0.7561462E-02  0.1125453E+00
         25   -1    0    0    0    0  0.00000000000E+00  0.00000000000E+00  0.99999998245E-14  0.12509000000E+03  0.12509000000E+03 0.  0.
        -13    1    3    3    0    0  0.12366217415E+02 -0.13895253983E+02  0.47039935066E+02  0.50584267035E+02  0.10566000000E+00 0.  1.
         23    2    1    0    0    0  0.15820197788E+02  0.17239269678E+02  0.86241309596E+01  0.10015314551E+03  0.96998999189E+02 0.  0.
         13    1    3    3    0    0  0.34539803722E+01  0.31134523661E+02 -0.38415804107E+02  0.49568878474E+02  0.10566000000E+00 0. -1.
         22    1    1    0    0    0 -0.15820197788E+02 -0.17239269678E+02 -0.86241309596E+01  0.24936854490E+02  0.00000000000E+00 0.  1.
</event>
<event>
 5    1  0.1250806E-009  0.9118800E+02  0.7561462E-02  0.1125453E+00
         25   -1    0    0    0    0  0.00000000000E+00  0.00000000000E+00  0.99999998245E-14  0.12509000000E+03  0.12509000000E+03 0.  0.
        -13    1    3    3    0    0  0.28392058237E+02 -0.17066486051E+02 -0.33706502194E+02  0.47260061059E+02  0.10566000000E+00 0.  1.
         23    2    1    0    0    0  0.10241728042E+02 -0.22584419020E+02  0.12580027913E+02  0.97283416642E+02  0.93224766428E+02 0.  0.
         13    1    3    3    0    0 -0.18150330196E+02 -0.55179329691E+01  0.46286530107E+02  0.50023355583E+02  0.10566000000E+00 0. -1.
         22    1    1    0    0    0 -0.10241728042E+02  0.22584419020E+02 -0.12580027913E+02  0.27806583358E+02  0.00000000000E+00 0. -1.
</event>
<event>
 5    1  0.1250806E-009  0.9118800E+02  0.7561462E-02  0.1125453E+00
         25   -1    0    0    0    0  0.00000000000E+00  0.00000000000E+00  0.99999998245E-14  0.12509000000E+03  0.12509000000E+03 0.  0.
        -13    1    3    3    0    0  0.17427230373E+02 -0.67380685230E+01 -0.57598374732E+02  0.60553231637E+02  0.10566000000E+00 0. -1.
         23    2    1    0    0    0  0.26156653525E+01 -0.12830373543E+02 -0.26055580985E+02  0.95929178836E+02  0.91389571950E+02 0.  0.
         13    1    3    3    0    0 -0.14811565021E+02 -0.60923050201E+01  0.31542793747E+02  0.35375947199E+02  0.10566000000E+00 0.  1.
         22    1    1    0    0    0 -0.26156653525E+01  0.12830373543E+02  0.26055580985E+02  0.29160821164E+02  0.00000000000E+00 0. -1.
</event>
<event>
 5    1  0.1250806E-009  0.9118800E+02  0.7561462E-02  0.1125453E+00
         25   -1    0    0    0    0  0.00000000000E+00  0.00000000000E+00  0.99999998245E-14  0.12509000000E+03  0.12509000000E+03 0.  0.
        -13    1    3    3    0    0  0.15907977877E+01  0.11002828891E+02  0.32572820483E+02  0.34417912189E+02  0.10566000000E+00 0. -1.
         23    2    1    0    0    0  0.18247440911E+02 -0.71385218699E+01 -0.22803857018E+02  0.95024347019E+02  0.90142570615E+02 0.  0.
         13    1    3    3    0    0  0.16656643123E+02 -0.18141350761E+02 -0.55376677502E+02  0.60606434829E+02  0.10566000000E+00 0.  1.
         22    1    1    0    0    0 -0.18247440911E+02  0.71385218699E+01  0.22803857018E+02  0.30065652981E+02  0.00000000000E+00 0.  1.
</event>
<event>
 5    1  0.1250806E-009  0.9118800E+02  0.7561462E-02  0.1125453E+00
         25   -1    0    0    0    0  0.00000000000E+00  0.00000000000E+00  0.99999998245E-14  0.12509000000E+03  0.12509000000E+03 0.  0.
        -13    1    3    3    0    0  0.46171462536E+02 -0.80042000517E+01  0.35966912389E+02  0.59071999475E+02  0.10566000000E+00 0.  1.
         23    2    1    0    0    0  0.24754073600E+02 -0.14438883637E+02  0.71397469462E+01  0.95556603532E+02  0.90878176542E+02 0.  0.
         13    1    3    3    0    0 -0.21417388936E+02 -0.64346835854E+01 -0.28827165443E+02  0.36484604057E+02  0.10566000000E+00 0. -1.
         22    1    1    0    0    0 -0.24754073600E+02  0.14438883637E+02 -0.71397469462E+01  0.29533396468E+02  0.00000000000E+00 0.  1.
</event>
<event>
 5    1  0.1250806E-009  0.9118800E+02  0.7561462E-02  0.1125453E+00
         25   -1    0    0    0    0  0.00000000000E+00  0.00000000000E+00  0.99999998245E-14  0.12509000000E+03  0.12509000000E+03 0.  0.
        -13    1    3    3    0    0 -0.47111287084E+02 -0.28896903405E+02 -0.10385847287E+01  0.55277429566E+02  0.10566000000E+00 0.  1.
         23    2    1    0    0    0 -0.10939043417E+02 -0.17869744632E+02 -0.18692879833E+02  0.97011285632E+02  0.92858900163E+02 0.  0.
         13    1    3    3    0    0  0.36172243667E+02  0.11027158773E+02 -0.17654295105E+02  0.41733856067E+02  0.10566000000E+00 0. -1.
         22    1    1    0    0    0  0.10939043417E+02  0.17869744632E+02  0.18692879833E+02  0.28078714368E+02  0.00000000000E+00 0.  1.
</event>
<event>
 5    1  0.1250806E-009  0.9118800E+02  0.7561462E-02  0.1125453E+00
         25   -1    0    0    0    0  0.00000000000E+00  0.00000000000E+00  0.99999998245E-14  0.12509000000E+03  0.12509000000E+03 0.  0.
        -13    1    3    3    0    0 -0.39777254175E+02  0.10917173692E+02 -0.14245928484E+02  0.43639114032E+02  0.10566000000E+00 0. -1.
         23    2    1    0    0    0 -0.38516475222E+01  0.15905380097E+02  0.23801814721E+02  0.96205009284E+02  0.91766339812E+02 0.  0.
         13    1    3    3    0    0  0.35925606653E+02  0.49882064043E+01  0.38047743205E+02  0.52565895251E+02  0.10566000000E+00 0.  1.
         22    1    1    0    0    0  0.38516475222E+01 -0.15905380097E+02 -0.23801814721E+02  0.28884990716E+02  0.00000000000E+00 0. -1.
</event>
<event>
 5    1  0.1250806E-009  0.9118800E+02  0.7561462E-02  0.1125453E+00
         25   -1    0    0    0    0  0.00000000000E+00  0.00000000000E+00  0.99999998245E-14  0.12509000000E+03  0.12509000000E+03 0.  0.
        -13    1    3    3    0    0  0.35052564926E+02  0.35683538435E+02 -0.23525482419E+02  0.55276185742E+02  0.10566000000E+00 0. -1.
         23    2    1    0    0    0  0.16072759726E+02  0.24735178387E+02  0.87809582388E+01  0.94312282693E+02  0.89148969619E+02 0.  0.
         13    1    3    3    0    0 -0.18979805200E+02 -0.10948360048E+02  0.32306440658E+02  0.39036096951E+02  0.10566000000E+00 0.  1.
         22    1    1    0    0    0 -0.16072759726E+02 -0.24735178387E+02 -0.87809582388E+01  0.30777717307E+02  0.00000000000E+00 0. -1.
</event>
<event>
 5    1  0.1250806E-009  0.9118800E+02  0.7561462E-02  0.1125453E+00
         25   -1    0    0    0    0  0.00000000000E+00  0.00000000000E+00  0.99999998245E-14  0.12509000000E+03  0.12509000000E+03 0.  0.
        -13    1    3    3    0    0  0.18234462547E+02  0.29753509200E+02  0.50855866981E+02  0.61677364604E+02  0.10566000000E+00 0. -1.
         23    2    1    0    0    0  0.17080353715E+02  0.15326402404E+02  0.26261784511E+02  0.90214243100E+02  0.83200307924E+02 0.  0.
         13    1    3    3    0    0 -0.11541088324E+01 -0.14427106796E+02 -0.24594082470E+02  0.28536878496E+02  0.10566000000E+00 0.  1.
         22    1    1    0    0    0 -0.17080353715E+02 -0.15326402404E+02 -0.26261784511E+02  0.34875756900E+02  0.00000000000E+00 0. -1.
</event>
<event>
 5    1  0.1250806E-009  0.9118800E+02  0.7561462E-02  0.1125453E+00
         25   -1    0    0    0    0  0.00000000000E+00  0.00000000000E+00  0.99999998245E-14  0.12509000000E+03  0.12509000000E+03 0.  0.
        -13    1    3    3    0    0  0.10088001824E+01 -0.15497308765E+02  0.47040911074E+02  0.49538295645E+02  0.10566000000E+00 0. -1.
         23    2    1    0    0    0 -0.22709491594E+02 -0.16630706989E+02  0.70095549494E+01  0.96082496074E+02  0.91599185410E+02 0.  0.
         13    1    3    3    0    0 -0.23718291777E+02 -0.11333982243E+01 -0.40031356124E+02  0.46544200429E+02  0.10566000000E+00 0.  1.
         22    1    1    0    0    0  0.22709491594E+02  0.16630706989E+02 -0.70095549494E+01  0.29007503926E+02  0.00000000000E+00 0. -1.
</event>
<event>
 5    1  0.1250806E-009  0.9118800E+02  0.7561462E-02  0.1125453E+00
         25   -1    0    0    0    0  0.00000000000E+00  0.00000000000E+00  0.99999998245E-14  0.12509000000E+03  0.12509000000E+03 0.  0.
        -13    1    3    3    0    0 -0.28841169212E+02 -0.42667998693E+02  0.13710216619E+01  0.51519530457E+02  0.10566000000E+00 0.  1.
         23    2    1    0    0    0 -0.13863893836E+02 -0.13427039380E+02 -0.24900473838E+02  0.93585610843E+02  0.88123436274E+02 0.  0.
         13    1    3    3    0    0  0.14977275376E+02  0.29240959313E+02 -0.26271495500E+02  0.42066080387E+02  0.10566000000E+00 0. -1.
         22    1    1    0    0    0  0.13863893836E+02  0.13427039380E+02  0.24900473838E+02  0.31504389157E+02  0.00000000000E+00 0.  1.
</event>
<event>
 5    1  0.1250806E-009  0.9118800E+02  0.7561462E-02  0.1125453E+00
         25   -1    0    0    0    0  0.00000000000E+00  0.00000000000E+00  0.99999998245E-14  0.12509000000E+03  0.12509000000E+03 0.  0.
        -13    1    3    3    0    0 -0.35733127914E+02  0.62753358820E+01  0.28047259334E+01  0.36388376201E+02  0.10566000000E+00 0. -1.
         23    2    1    0    0    0  0.21842106015E+02 -0.77296583099E-01  0.18570567073E+02  0.96420337788E+02  0.92059393914E+02 0.  0.
         13    1    3    3    0    0  0.57575233928E+02 -0.63526324651E+01  0.15765841140E+02  0.60031961587E+02  0.10566000000E+00 0.  1.
         22    1    1    0    0    0 -0.21842106015E+02  0.77296583099E-01 -0.18570567073E+02  0.28669662212E+02  0.00000000000E+00 0.  1.
</event>
<event>
 5    1  0.1250806E-009  0.9118800E+02  0.7561462E-02  0.1125453E+00
         25   -1    0    0    0    0  0.00000000000E+00  0.00000000000E+00  0.99999998245E-14  0.12509000000E+03  0.12509000000E+03 0.  0.
        -13    1    3    3    0    0  0.49140363921E+02 -0.28357823590E+02 -0.99751573701E+01  0.57606045287E+02  0.10566000000E+00 0. -1.
         23    2    1    0    0    0  0.24931122416E+02 -0.95641700753E+01  0.12494716531E+02  0.95608613409E+02  0.90949737782E+02 0.  0.
         13    1    3    3    0    0 -0.24209241505E+02  0.18793653515E+02  0.22469873901E+02  0.38002568122E+02  0.10566000000E+00 0.  1.
         22    1    1    0    0    0 -0.24931122416E+02  0.95641700753E+01 -0.12494716531E+02  0.29481386591E+02  0.00000000000E+00 0. -1.
</event>
<event>
 5    1  0.1250806E-009  0.9118800E+02  0.7561462E-02  0.1125453E+00
         25   -1    0    0    0    0  0.00000000000E+00  0.00000000000E+00  0.99999998245E-14  0.12509000000E+03  0.12509000000E+03 0.  0.
        -13    1    3    3    0    0 -0.23951591907E+01  0.56551206942E+02 -0.10088412202E+02  0.57494025941E+02  0.10566000000E+00 0. -1.
         23    2    1    0    0    0 -0.18826345314E+02  0.25439393353E+02 -0.52504402250E+01  0.93009458630E+02  0.87301765503E+02 0.  0.
         13    1    3    3    0    0 -0.16431186123E+02 -0.31111813589E+02  0.48379719771E+01  0.35515432689E+02  0.10566000000E+00 0.  1.
         22    1    1    0    0    0  0.18826345314E+02 -0.25439393353E+02  0.52504402250E+01  0.32080541370E+02  0.00000000000E+00 0. -1.
</event>
<event>
 5    1  0.1250806E-009  0.9118800E+02  0.7561462E-02  0.1125453E+00
         25   -1    0    0    0    0  0.00000000000E+00  0.00000000000E+00  0.99999998245E-14  0.12509000000E+03  0.12509000000E+03 0.  0.
        -13    1    3    3    0    0  0.36393108803E+02 -0.13755038980E+02 -0.10409853539E+02  0.40274504099E+02  0.10566000000E+00 0.  1.
         23    2    1    0    0    0 -0.17114415612E+02  0.15371185849E+02 -0.57779706841E+01  0.10137162060E+03  0.98557820297E+02 0.  0.
         13    1    3    3    0    0 -0.53507524416E+02  0.29126224828E+02  0.46318828545E+01  0.61097116500E+02  0.10566000000E+00 0. -1.
         22    1    1    0    0    0  0.17114415612E+02 -0.15371185849E+02  0.57779706841E+01  0.23718379400E+02  0.00000000000E+00 0. -1.
</event>
<event>
 5    1  0.1250806E-009  0.9118800E+02  0.7561462E-02  0.1125453E+00
         25   -1    0    0    0    0  0.00000000000E+00  0.00000000000E+00  0.99999998245E-14  0.12509000000E+03  0.12509000000E+03 0.  0.
        -13    1    3    3    0    0 -0.48644601746E+02 -0.81632804953E+01  0.13350919421E+02  0.51099849715E+02  0.10566000000E+00 0.  1.
         23    2    1    0    0    0 -0.21869827500E+02  0.31979561393E+01 -0.19950780062E+02  0.95315012117E+02  0.90545025437E+02 0.  0.
         13    1    3    3    0    0  0.26774774245E+02  0.11361236635E+02 -0.33301699483E+02  0.44215162402E+02  0.10566000000E+00 0. -1.
         22    1    1    0    0    0  0.21869827500E+02 -0.31979561393E+01  0.19950780062E+02  0.29774987883E+02  0.00000000000E+00 0.  1.
</event>
<event>
 5    1  0.1250806E-009  0.9118800E+02  0.7561462E-02  0.1125453E+00
         25   -1    0    0    0    0  0.00000000000E+00  0.00000000000E+00  0.99999998245E-14  0.12509000000E+03  0.12509000000E+03 0.  0.
        -13    1    3    3    0    0  0.51362669000E+01 -0.40685861871E+02  0.41727891828E+01  0.41220673544E+02  0.10566000000E+00 0.  1.
         23    2    1    0    0    0 -0.25112251419E+02 -0.82268743514E+01 -0.20186569506E+02  0.91836365291E+02  0.85604402741E+02 0.  0.
         13    1    3    3    0    0 -0.30248518319E+02  0.32458987520E+02 -0.24359358689E+02  0.50615691747E+02  0.10566000000E+00 0. -1.
         22    1    1    0    0    0  0.25112251419E+02  0.82268743514E+01  0.20186569506E+02  0.33253634709E+02  0.00000000000E+00 0. -1.
</event>
<event>
 5    1  0.1250806E-009  0.9118800E+02  0.7561462E-02  0.1125453E+00
         25   -1    0    0    0    0  0.00000000000E+00  0.00000000000E+00  0.99999998245E-14  0.12509000000E+03  0.12509000000E+03 0.  0.
        -13    1    3    3    0    0  0.25599199127E+02  0.35680501691E+02 -0.32553439396E+02  0.54664017209E+02  0.10566000000E+00 0.  1.
         23    2    1    0    0    0  0.87713558128E+01  0.24097836783E+02  0.64084115872E+01  0.98656873823E+02  0.95049821636E+02 0.  0.
         13    1    3    3    0    0 -0.16827843314E+02 -0.11582664908E+02  0.38961850983E+02  0.43992856614E+02  0.10566000000E+00 0. -1.
         22    1    1    0    0    0 -0.87713558128E+01 -0.24097836783E+02 -0.64084115872E+01  0.26433126177E+02  0.00000000000E+00 0.  1.
</event>
<event>
 5    1  0.1250806E-009  0.9118800E+02  0.7561462E-02  0.1125453E+00
         25   -1    0    0    0    0  0.00000000000E+00  0.00000000000E+00  0.99999998245E-14  0.12509000000E+03  0.12509000000E+03 0.  0.
        -13    1    3    3    0    0  0.32886612755E+01 -0.24213127747E+02  0.24592877477E+02  0.34668597245E+02  0.10566000000E+00 0. -1.
         23    2    1    0    0    0 -0.14161217179E+02  0.25938089965E+01 -0.26490621269E+02  0.94940025998E+02  0.90025483082E+02 0.  0.
         13    1    3    3    0    0 -0.17449878455E+02  0.26806936744E+02 -0.51083498746E+02  0.60271428753E+02  0.10566000000E+00 0.  1.
         22    1    1    0    0    0  0.14161217179E+02 -0.25938089965E+01  0.26490621269E+02  0.30149974002E+02  0.00000000000E+00 0.  1.
</event>
<event>
 5    1  0.1250806E-009  0.9118800E+02  0.7561462E-02  0.1125453E+00
         25   -1    0    0    0    0  0.00000000000E+00  0.00000000000E+00  0.99999998245E-14  0.12509000000E+03  0.12509000000E+03 0.  0.
        -13    1    3    3    0    0  0.64806213772E+01 -0.18415438787E+02  0.23866850157E+02  0.30834469990E+02  0.10566000000E+00 0.  1.
         23    2    1    0    0    0  0.26902332004E+01  0.28594740359E+02 -0.15665735725E+02  0.92374379776E+02  0.86387002681E+02 0.  0.
         13    1    3    3    0    0 -0.37903881768E+01  0.47010179146E+02 -0.39532585882E+02  0.61539909785E+02  0.10566000000E+00 0. -1.
         22    1    1    0    0    0 -0.26902332004E+01 -0.28594740359E+02  0.15665735725E+02  0.32715620224E+02  0.00000000000E+00 0. -1.
</event>
<event>
 5    1  0.1250806E-009  0.9118800E+02  0.7561462E-02  0.1125453E+00
         25   -1    0    0    0    0  0.00000000000E+00  0.00000000000E+00  0.99999998245E-14  0.12509000000E+03  0.12509000000E+03 0.  0.
        -13    1    3    3    0    0  0.13779549139E+02 -0.25105870233E+02  0.29268353541E+02  0.40949094956E+02  0.10566000000E+00 0. -1.
         23    2    1    0    0    0  0.16860817031E+01  0.23792240038E+02 -0.34150481516E+01  0.10099485295E+03  0.98078459463E+02 0.  0.
         13    1    3    3    0    0 -0.12093467436E+02  0.48898110271E+02 -0.32683401693E+02  0.60045757993E+02  0.10566000000E+00 0.  1.
         22    1    1    0    0    0 -0.16860817031E+01 -0.23792240038E+02  0.34150481516E+01  0.24095147051E+02  0.00000000000E+00 0.  1.
</event>
<event>
 5    1  0.1250806E-009  0.9118800E+02  0.7561462E-02  0.1125453E+00
         25   -1    0    0    0    0  0.00000000000E+00  0.00000000000E+00  0.99999998245E-14  0.12509000000E+03  0.12509000000E+03 0.  0.
        -13    1    3    3    0    0 -0.15429983309E+02 -0.32614901701E+02 -0.40385538185E+02  0.54155508089E+02  0.10566000000E+00 0.  1.
         23    2    1    0    0    0  0.16376789479E+02 -0.11521830436E+02 -0.16142699668E+02  0.99369608036E+02  0.95983229985E+02 0.  0.
         13    1    3    3    0    0  0.31806772788E+02  0.21093071266E+02  0.24242838517E+02  0.45214099946E+02  0.10566000000E+00 0. -1.
         22    1    1    0    0    0 -0.16376789479E+02  0.11521830436E+02  0.16142699668E+02  0.25720391964E+02  0.00000000000E+00 0.  1.
</event>
<event>
 5    1  0.1250806E-009  0.9118800E+02  0.7561462E-02  0.1125453E+00
         25   -1    0    0    0    0  0.00000000000E+00  0.00000000000E+00  0.99999998245E-14  0.12509000000E+03  0.12509000000E+03 0.  0.
        -13    1    3    3    0    0 -0.30208779331E+02 -0.13816436907E+02  0.43846282449E+02  0.55008834982E+02  0.10566000000E+00 0.  1.
         23    2    1    0    0    0 -0.21088823661E+02 -0.22008643512E+02  0.70358915415E+01  0.93807055087E+02  0.88437214687E+02 0.  0.
         13    1    3    3    0    0  0.91199556698E+01 -0.81922066057E+01 -0.36810390908E+02  0.38798220105E+02  0.10566000000E+00 0. -1.
         22    1    1    0    0    0  0.21088823661E+02  0.22008643512E+02 -0.70358915415E+01  0.31282944913E+02  0.00000000000E+00 0.  1.
</event>
<event>
 5    1  0.1250806E-009  0.9118800E+02  0.7561462E-02  0.1125453E+00
         25   -1    0    0    0    0  0.00000000000E+00  0.00000000000E+00  0.99999998245E-14  0.12509000000E+03  0.12509000000E+03 0.  0.
        -13    1    3    3    0    0  0.23987946935E+02  0.11181872471E+02  0.30101405114E+02  0.40081936380E+02  0.10566000000E+00 0.  1.
         23    2    1    0    0    0  0.63168861381E+01 -0.27548491419E+02 -0.63445138149E+01  0.96123203741E+02  0.91654759898E+02 0.  0.
         13    1    3    3    0    0 -0.17671060797E+02 -0.38730363891E+02 -0.36445918929E+02  0.56041267361E+02  0.10566000000E+00 0. -1.
         22    1    1    0    0    0 -0.63168861381E+01  0.27548491419E+02  0.63445138149E+01  0.28966796259E+02  0.00000000000E+00 0.  1.
</event>
<event>
 5    1  0.1250806E-009  0.9118800E+02  0.7561462E-02  0.1125453E+00
         25   -1    0    0    0    0  0.00000000000E+00  0.00000000000E+00  0.99999998245E-14  0.12509000000E+03  0.12509000000E+03 0.  0.
        -13    1    3    3    0    0 -0.13713024958E+02  0.32761112524E+02  0.12427368040E+02  0.37626960916E+02  0.10566000000E+00 0.  1.
         23    2    1    0    0    0  0.64894403418E+01 -0.24238874239E+02  0.97789028823E+01  0.98159296298E+02  0.94392715015E+02 0.  0.
         13    1    3    3    0    0  0.20202465300E+02 -0.56999986762E+02 -0.26484651576E+01  0.60532335382E+02  0.10566000000E+00 0. -1.
         22    1    1    0    0    0 -0.64894403418E+01  0.24238874239E+02 -0.97789028823E+01  0.26930703702E+02  0.00000000000E+00 0. -1.
</event>
<event>
 5    1  0.1250806E-009  0.9118800E+02  0.7561462E-02  0.1125453E+00
         25   -1    0    0    0    0  0.00000000000E+00  0.00000000000E+00  0.99999998245E-14  0.12509000000E+03  0.12509000000E+03 0.  0.
        -13    1    3    3    0    0  0.40534740297E+02 -0.23419250195E+02 -0.96604381765E+01  0.47800226782E+02  0.10566000000E+00 0.  1.
         23    2    1    0    0    0  0.22823580691E+02  0.16294788255E+02  0.97224124220E+01  0.95409008387E+02  0.90674790424E+02 0.  0.
         13    1    3    3    0    0 -0.17711159606E+02  0.39714038450E+02  0.19382850598E+02  0.47608781605E+02  0.10566000000E+00 0. -1.
         22    1    1    0    0    0 -0.22823580691E+02 -0.16294788255E+02 -0.97224124220E+01  0.29680991613E+02  0.00000000000E+00 0.  1.
</event>
<event>
 5    1  0.1250806E-009  0.9118800E+02  0.7561462E-02  0.1125453E+00
         25   -1    0    0    0    0  0.00000000000E+00  0.00000000000E+00  0.99999998245E-14  0.12509000000E+03  0.12509000000E+03 0.  0.
        -13    1    3    3    0    0 -0.27744267070E+02  0.25286595280E+02  0.86084771072E+01  0.38513287295E+02  0.10566000000E+00 0.  1.
         23    2    1    0    0    0  0.64442859824E+01 -0.21858493877E+02  0.16040029372E+02  0.97222364315E+02  0.93142809730E+02 0.  0.
         13    1    3    3    0    0  0.34188553052E+02 -0.47145089157E+02  0.74315522652E+01  0.58709077020E+02  0.10566000000E+00 0. -1.
         22    1    1    0    0    0 -0.64442859824E+01  0.21858493877E+02 -0.16040029372E+02  0.27867635685E+02  0.00000000000E+00 0. -1.
</event>
<event>
 5    1  0.1250806E-009  0.9118800E+02  0.7561462E-02  0.1125453E+00
         25   -1    0    0    0    0  0.00000000000E+00  0.00000000000E+00  0.99999998245E-14  0.12509000000E+03  0.12509000000E+03 0.  0.
        -13    1    3    3    0    0  0.74695852823E+01 -0.45994450267E+02  0.36897813688E+02  0.59436890722E+02  0.10566000000E+00 0. -1.
         23    2    1    0    0    0  0.90985660942E+01 -0.10773818454E+02  0.24518599405E+02  0.96805361310E+02  0.92581084421E+02 0.  0.
         13    1    3    3    0    0  0.16289808119E+01  0.35220631813E+02 -0.12379214283E+02  0.37368470588E+02  0.10566000000E+00 0.  1.
         22    1    1    0    0    0 -0.90985660942E+01  0.10773818454E+02 -0.24518599405E+02  0.28284638690E+02  0.00000000000E+00 0. -1.
</event>
<event>
 5    1  0.1250806E-009  0.9118800E+02  0.7561462E-02  0.1125453E+00
         25   -1    0    0    0    0  0.00000000000E+00  0.00000000000E+00  0.99999998245E-14  0.12509000000E+03  0.12509000000E+03 0.  0.
        -13    1    3    3    0    0 -0.13008568933E+02 -0.17745475286E+02  0.11114428610E+02  0.24650891387E+02  0.10566000000E+00 0.  1.
         23    2    1    0    0    0  0.21445668840E+02  0.23172982379E+02 -0.21119031677E+02  0.87104248417E+02  0.78385156560E+02 0.  0.
         13    1    3    3    0    0  0.34454237773E+02  0.40918457665E+02 -0.32233460287E+02  0.62453357030E+02  0.10566000000E+00 0. -1.
         22    1    1    0    0    0 -0.21445668840E+02 -0.23172982379E+02  0.21119031677E+02  0.37985751583E+02  0.00000000000E+00 0. -1.
</event>
<event>
 5    1  0.1250806E-009  0.9118800E+02  0.7561462E-02  0.1125453E+00
         25   -1    0    0    0    0  0.00000000000E+00  0.00000000000E+00  0.99999998245E-14  0.12509000000E+03  0.12509000000E+03 0.  0.
        -13    1    3    3    0    0  0.15492677244E+02 -0.52504026594E+02 -0.77893674740E+01  0.55293591549E+02  0.10566000000E+00 0.  1.
         23    2    1    0    0    0  0.17372979667E+02 -0.13619119394E+02  0.13045298957E+02  0.99448614303E+02  0.96086139616E+02 0.  0.
         13    1    3    3    0    0  0.18803024227E+01  0.38884907199E+02  0.20834666431E+02  0.44155022754E+02  0.10566000000E+00 0. -1.
         22    1    1    0    0    0 -0.17372979667E+02  0.13619119394E+02 -0.13045298957E+02  0.25641385697E+02  0.00000000000E+00 0.  1.
</event>
<event>
 5    1  0.1250806E-009  0.9118800E+02  0.7561462E-02  0.1125453E+00
         25   -1    0    0    0    0  0.00000000000E+00  0.00000000000E+00  0.99999998245E-14  0.12509000000E+03  0.12509000000E+03 0.  0.
        -13    1    3    3    0    0  0.11314743902E+02  0.55242864704E+02  0.67450193005E+01  0.56791759787E+02  0.10566000000E+00 0. -1.
         23    2    1    0    0    0  0.19896959990E+02  0.19868246470E+02 -0.76721925514E+01  0.95943837762E+02  0.91409634237E+02 0.  0.
         13    1    3    3    0    0  0.85822160882E+01 -0.35374618234E+02 -0.14417211852E+02  0.39152077975E+02  0.10566000000E+00 0.  1.
         22    1    1    0    0    0 -0.19896959990E+02 -0.19868246470E+02  0.76721925514E+01  0.29146162238E+02  0.00000000000E+00 0. -1.
</event>
<event>
 5    1  0.1250806E-009  0.9118800E+02  0.7561462E-02  0.1125453E+00
         25   -1    0    0    0    0  0.00000000000E+00  0.00000000000E+00  0.99999998245E-14  0.12509000000E+03  0.12509000000E+03 0.  0.
        -13    1    3    3    0    0  0.35267336521E+02 -0.46246106004E+02 -0.11668798047E+02  0.59318288560E+02  0.10566000000E+00 0.  1.
         23    2    1    0    0    0  0.18293038388E+02 -0.15583124932E+02 -0.18169017500E+02  0.94963894493E+02  0.90058642141E+02 0.  0.
         13    1    3    3    0    0 -0.16974298133E+02  0.30662981072E+02 -0.65002194523E+01  0.35645605933E+02  0.10566000000E+00 0. -1.
         22    1    1    0    0    0 -0.18293038388E+02  0.15583124932E+02  0.18169017500E+02  0.30126105507E+02  0.00000000000E+00 0.  1.
</event>
<event>
 5    1  0.1250806E-009  0.9118800E+02  0.7561462E-02  0.1125453E+00
         25   -1    0    0    0    0  0.00000000000E+00  0.00000000000E+00  0.99999998245E-14  0.12509000000E+03  0.12509000000E+03 0.  0.
        -13    1    3    3    0    0  0.29033179361E+02 -0.41911684051E+02 -0.15649676056E+02  0.53333275621E+02  0.10566000000E+00 0. -1.
         23    2    1    0    0    0  0.21594548694E+02 -0.13867358487E+02  0.14858502796E+02  0.95435265639E+02  0.90711006265E+02 0.  0.
         13    1    3    3    0    0 -0.74386306671E+01  0.28044325564E+02  0.30508178852E+02  0.42101990018E+02  0.10566000000E+00 0.  1.
         22    1    1    0    0    0 -0.21594548694E+02  0.13867358487E+02 -0.14858502796E+02  0.29654734361E+02  0.00000000000E+00 0.  1.
</event>
<event>
 4    1  0.1250806E-009  0.9118800E+02  0.7561462E-02  0.1125453E+00
         25   -1    0    0    0    0  0.00000000000E+00  0.00000000000E+00  0.99999998245E-14  0.12509000000E+03  0.12509000000E+03 0.  0.
        -13    1    1    0    0    0  0.18166736272E+01  0.29502694087E+01 -0.14110349930E+02  0.14529884096E+02  0.10566000000E+00 0.  1.
         13    1    1    0    0    0  0.51505372165E+02  0.14232745952E+02  0.10207808325E+02  0.54402067369E+02  0.10566000000E+00 0. -1.
         22    1    1    0    0    0 -0.53322045792E+02 -0.17183015360E+02  0.39025416044E+01  0.56158048535E+02  0.00000000000E+00 0. -1.
</event>
<event>
 5    1  0.1250806E-009  0.9118800E+02  0.7561462E-02  0.1125453E+00
         25   -1    0    0    0    0  0.00000000000E+00  0.00000000000E+00  0.99999998245E-14  0.12509000000E+03  0.12509000000E+03 0.  0.
        -13    1    3    3    0    0 -0.18120639789E+02  0.42556766079E+00  0.25679329580E+02  0.31432114564E+02  0.10566000000E+00 0.  1.
         23    2    1    0    0    0 -0.16541115954E+02  0.28952525140E+02 -0.20654561830E+02  0.85866688649E+02  0.76384684762E+02 0.  0.
         13    1    3    3    0    0  0.15795238353E+01  0.28526957479E+02 -0.46333891410E+02  0.54434574085E+02  0.10566000000E+00 0. -1.
         22    1    1    0    0    0  0.16541115954E+02 -0.28952525140E+02  0.20654561830E+02  0.39223311351E+02  0.00000000000E+00 0. -1.
</event>
<event>
 5    1  0.1250806E-009  0.9118800E+02  0.7561462E-02  0.1125453E+00
         25   -1    0    0    0    0  0.00000000000E+00  0.00000000000E+00  0.99999998245E-14  0.12509000000E+03  0.12509000000E+03 0.  0.
        -13    1    3    3    0    0 -0.83871276046E+01 -0.37170978486E+02 -0.31552701356E+02  0.49473322892E+02  0.10566000000E+00 0.  1.
         23    2    1    0    0    0 -0.28162850183E+02 -0.18817703301E+01 -0.11690051711E+02  0.94539312626E+02  0.89466961124E+02 0.  0.
         13    1    3    3    0    0 -0.19775722579E+02  0.35289208156E+02  0.19862649645E+02  0.45065989734E+02  0.10566000000E+00 0. -1.
         22    1    1    0    0    0  0.28162850183E+02  0.18817703301E+01  0.11690051711E+02  0.30550687374E+02  0.00000000000E+00 0.  1.
</event>
<event>
 5    1  0.1250806E-009  0.9118800E+02  0.7561462E-02  0.1125453E+00
         25   -1    0    0    0    0  0.00000000000E+00  0.00000000000E+00  0.99999998245E-14  0.12509000000E+03  0.12509000000E+03 0.  0.
        -13    1    3    3    0    0 -0.44072827871E+02  0.16314455055E+02  0.31904010781E+02  0.56801872049E+02  0.10566000000E+00 0. -1.
         23    2    1    0    0    0 -0.59601774310E+01  0.16516970890E+02  0.23368914019E+02  0.95859191171E+02  0.91293725672E+02 0.  0.
         13    1    3    3    0    0  0.38112650440E+02  0.20251583459E+00 -0.85350967618E+01  0.39057319122E+02  0.10566000000E+00 0.  1.
         22    1    1    0    0    0  0.59601774310E+01 -0.16516970890E+02 -0.23368914019E+02  0.29230808829E+02  0.00000000000E+00 0. -1.
</event>
<event>
 5    1  0.1250806E-009  0.9118800E+02  0.7561462E-02  0.1125453E+00
         25   -1    0    0    0    0  0.00000000000E+00  0.00000000000E+00  0.99999998245E-14  0.12509000000E+03  0.12509000000E+03 0.  0.
        -13    1    3    3    0    0 -0.61530713944E+01  0.13853350362E+02 -0.41348810750E+02  0.44039878727E+02  0.10566000000E+00 0. -1.
         23    2    1    0    0    0 -0.94370626388E+01 -0.17360405653E+02  0.90055444187E+01  0.10337498985E+03  0.10106852556E+03 0.  0.
         13    1    3    3    0    0 -0.32839912445E+01 -0.31213756015E+02  0.50354355169E+02  0.59335111119E+02  0.10566000000E+00 0.  1.
         22    1    1    0    0    0  0.94370626388E+01  0.17360405653E+02 -0.90055444187E+01  0.21715010153E+02  0.00000000000E+00 0.  1.
</event>
<event>
 5    1  0.1250806E-009  0.9118800E+02  0.7561462E-02  0.1125453E+00
         25   -1    0    0    0    0  0.00000000000E+00  0.00000000000E+00  0.99999998245E-14  0.12509000000E+03  0.12509000000E+03 0.  0.
        -13    1    3    3    0    0  0.31418841928E+01  0.49724698864E+02  0.30410800604E+02  0.58371611857E+02  0.10566000000E+00 0.  1.
         23    2    1    0    0    0  0.12423575787E+02  0.23988330242E+02  0.17129055389E+01  0.98021212282E+02  0.94209547227E+02 0.  0.
         13    1    3    3    0    0  0.92816915945E+01 -0.25736368622E+02 -0.28697895065E+02  0.39649600425E+02  0.10566000000E+00 0. -1.
         22    1    1    0    0    0 -0.12423575787E+02 -0.23988330242E+02 -0.17129055389E+01  0.27068787718E+02  0.00000000000E+00 0.  1.
</event>
<event>
 5    1  0.1250806E-009  0.9118800E+02  0.7561462E-02  0.1125453E+00
         25   -1    0    0    0    0  0.00000000000E+00  0.00000000000E+00  0.99999998245E-14  0.12509000000E+03  0.12509000000E+03 0.  0.
        -13    1    3    3    0    0 -0.25110484925E+02  0.42133453292E+02  0.11182967915E+02  0.50307397815E+02  0.10566000000E+00 0.  1.
         23    2    1    0    0    0  0.15932364006E+02  0.22753487212E+02  0.95221342539E+01  0.95726205220E+02  0.91111327079E+02 0.  0.
         13    1    3    3    0    0  0.41042848931E+02 -0.19379966081E+02 -0.16608336608E+01  0.45418807405E+02  0.10566000000E+00 0. -1.
         22    1    1    0    0    0 -0.15932364006E+02 -0.22753487212E+02 -0.95221342539E+01  0.29363794780E+02  0.00000000000E+00 0.  1.
</event>
<event>
 5    1  0.1250806E-009  0.9118800E+02  0.7561462E-02  0.1125453E+00
         25   -1    0    0    0    0  0.00000000000E+00  0.00000000000E+00  0.99999998245E-14  0.12509000000E+03  0.12509000000E+03 0.  0.
        -13    1    3    3    0    0  0.25615240935E+02 -0.13230174530E+01 -0.23303468389E+02  0.34654779560E+02  0.10566000000E+00 0.  1.
         23    2    1    0    0    0 -0.13924123417E+02  0.15663106995E+02  0.20296473645E+02  0.95915336744E+02  0.91370623543E+02 0.  0.
         13    1    3    3    0    0 -0.39539364352E+02  0.16986124448E+02  0.43599942034E+02  0.61260557184E+02  0.10566000000E+00 0. -1.
         22    1    1    0    0    0  0.13924123417E+02 -0.15663106995E+02 -0.20296473645E+02  0.29174663256E+02  0.00000000000E+00 0. -1.
</event>
<event>
 5    1  0.1250806E-009  0.9118800E+02  0.7561462E-02  0.1125453E+00
         25   -1    0    0    0    0  0.00000000000E+00  0.00000000000E+00  0.99999998245E-14  0.12509000000E+03  0.12509000000E+03 0.  0.
        -13    1    3    3    0    0  0.24680801814E+02  0.55338676809E+02  0.91754905879E+01  0.61283863461E+02  0.10566000000E+00 0.  1.
         23    2    1    0    0    0  0.10160890965E+02  0.25716115669E+02 -0.46451819393E+01  0.97051811301E+02  0.92913476155E+02 0.  0.
         13    1    3    3    0    0 -0.14519910849E+02 -0.29622561140E+02 -0.13820672527E+02  0.35767947840E+02  0.10566000000E+00 0. -1.
         22    1    1    0    0    0 -0.10160890965E+02 -0.25716115669E+02  0.46451819393E+01  0.28038188699E+02  0.00000000000E+00 0.  1.
</event>
<event>
 5    1  0.1250806E-009  0.9118800E+02  0.7561462E-02  0.1125453E+00
         25   -1    0    0    0    0  0.00000000000E+00  0.00000000000E+00  0.99999998245E-14  0.12509000000E+03  0.12509000000E+03 0.  0.
        -13    1    3    3    0    0  0.81974269119E+01  0.92630335662E+01 -0.57287894445E+02  0.58608153125E+02  0.10566000000E+00 0.  1.
         23    2    1    0    0    0  0.56654340722E+01 -0.80082622505E+01 -0.42458629729E+02  0.81512888508E+02  0.68886764672E+02 0.  0.
         13    1    3    3    0    0 -0.25319928397E+01 -0.17271295817E+02  0.14829264715E+02  0.22904735383E+02  0.10566000000E+00 0. -1.
         22    1    1    0    0    0 -0.56654340722E+01  0.80082622505E+01  0.42458629729E+02  0.43577111492E+02  0.00000000000E+00 0.  1.
</event>
<event>
 5    1  0.1250806E-009  0.9118800E+02  0.7561462E-02  0.1125453E+00
         25   -1    0    0    0    0  0.00000000000E+00  0.00000000000E+00  0.99999998245E-14  0.12509000000E+03  0.12509000000E+03 0.  0.
        -13    1    3    3    0    0  0.76784926063E+01  0.26610896327E+02 -0.21222207522E+02  0.34892582423E+02  0.10566000000E+00 0. -1.
         23    2    1    0    0    0 -0.12737621956E+02 -0.23299470061E+02  0.94192409160E+01  0.96914932695E+02  0.92729012512E+02 0.  0.
         13    1    3    3    0    0 -0.20416114563E+02 -0.49910366388E+02  0.30641448438E+02  0.62022350272E+02  0.10566000000E+00 0.  1.
         22    1    1    0    0    0  0.12737621956E+02  0.23299470061E+02 -0.94192409160E+01  0.28175067305E+02  0.00000000000E+00 0.  1.
</event>
<event>
 5    1  0.1250806E-009  0.9118800E+02  0.7561462E-02  0.1125453E+00
         25   -1    0    0    0    0  0.00000000000E+00  0.00000000000E+00  0.99999998245E-14  0.12509000000E+03  0.12509000000E+03 0.  0.
        -13    1    3    3    0    0 -0.71663142686E+01 -0.26059742078E+00 -0.33747936752E+02  0.34501570548E+02  0.10566000000E+00 0.  1.
         23    2    1    0    0    0  0.21324942913E+02  0.16620563046E+02  0.15557496889E+02  0.93896538896E+02  0.88563694598E+02 0.  0.
         13    1    3    3    0    0  0.28491257182E+02  0.16881160467E+02  0.49305433641E+02  0.59394968348E+02  0.10566000000E+00 0. -1.
         22    1    1    0    0    0 -0.21324942913E+02 -0.16620563046E+02 -0.15557496889E+02  0.31193461104E+02  0.00000000000E+00 0. -1.
</event>
<event>
 5    1  0.1250806E-009  0.9118800E+02  0.7561462E-02  0.1125453E+00
         25   -1    0    0    0    0  0.00000000000E+00  0.00000000000E+00  0.99999998245E-14  0.12509000000E+03  0.12509000000E+03 0.  0.
        -13    1    3    3    0    0  0.26606780784E+02  0.28441095344E+01  0.25136563321E+02  0.36713318052E+02  0.10566000000E+00 0. -1.
         23    2    1    0    0    0 -0.23525753223E+01  0.48562933162E+01 -0.27629990059E+02  0.96938009909E+02  0.92760138094E+02 0.  0.
         13    1    3    3    0    0 -0.28959356107E+02  0.20121837818E+01 -0.52766553380E+02  0.60224691857E+02  0.10566000000E+00 0.  1.
         22    1    1    0    0    0  0.23525753223E+01 -0.48562933162E+01  0.27629990059E+02  0.28151990091E+02  0.00000000000E+00 0.  1.
</event>
<event>
 5    1  0.1250806E-009  0.9118800E+02  0.7561462E-02  0.1125453E+00
         25   -1    0    0    0    0  0.00000000000E+00  0.00000000000E+00  0.99999998245E-14  0.12509000000E+03  0.12509000000E+03 0.  0.
        -13    1    3    3    0    0 -0.34762194721E+02 -0.25058043766E+02  0.17241902881E+02  0.46191017722E+02  0.10566000000E+00 0.  1.
         23    2    1    0    0    0  0.14476935434E+00  0.10497388466E+02  0.26243737774E+02  0.96824298255E+02  0.92606667349E+02 0.  0.
         13    1    3    3    0    0  0.34906964075E+02  0.35555432232E+02  0.90018348924E+01  0.50633280534E+02  0.10566000000E+00 0. -1.
         22    1    1    0    0    0 -0.14476935434E+00 -0.10497388466E+02 -0.26243737774E+02  0.28265701745E+02  0.00000000000E+00 0. -1.
</event>
<event>
 5    1  0.1250806E-009  0.9118800E+02  0.7561462E-02  0.1125453E+00
         25   -1    0    0    0    0  0.00000000000E+00  0.00000000000E+00  0.99999998245E-14  0.12509000000E+03  0.12509000000E+03 0.  0.
        -13    1    3    3    0    0 -0.47743499067E+02  0.19461685638E+02  0.12416787537E+02  0.53031940260E+02  0.10566000000E+00 0. -1.
         23    2    1    0    0    0 -0.26330870329E+02 -0.10229568449E+02 -0.89987823341E+01  0.95443130242E+02  0.90721850863E+02 0.  0.
         13    1    3    3    0    0  0.21412628737E+02 -0.29691254087E+02 -0.21415569872E+02  0.42411189982E+02  0.10566000000E+00 0.  1.
         22    1    1    0    0    0  0.26330870329E+02  0.10229568449E+02  0.89987823341E+01  0.29646869758E+02  0.00000000000E+00 0. -1.
</event>
<event>
 5    1  0.1250806E-009  0.9118800E+02  0.7561462E-02  0.1125453E+00
         25   -1    0    0    0    0  0.00000000000E+00  0.00000000000E+00  0.99999998245E-14  0.12509000000E+03  0.12509000000E+03 0.  0.
        -13    1    3    3    0    0 -0.10948677188E+02  0.33752752960E+02 -0.19559465758E+02  0.40517967982E+02  0.10566000000E+00 0.  1.
         23    2    1    0    0    0 -0.25669639986E+01  0.10503311347E+02  0.28526394378E+02  0.94583213384E+02  0.89528320795E+02 0.  0.
         13    1    3    3    0    0  0.83817131897E+01 -0.23249441613E+02  0.48085860136E+02  0.54065245402E+02  0.10566000000E+00 0. -1.
         22    1    1    0    0    0  0.25669639986E+01 -0.10503311347E+02 -0.28526394378E+02  0.30506786616E+02  0.00000000000E+00 0. -1.
</event>
<event>
 5    1  0.1250806E-009  0.9118800E+02  0.7561462E-02  0.1125453E+00
         25   -1    0    0    0    0  0.00000000000E+00  0.00000000000E+00  0.99999998245E-14  0.12509000000E+03  0.12509000000E+03 0.  0.
        -13    1    3    3    0    0  0.18638287093E+02 -0.20528995920E+01  0.57921293951E+02  0.60880929687E+02  0.10566000000E+00 0.  1.
         23    2    1    0    0    0  0.16296120142E+01  0.59306756911E+01  0.29527698346E+02  0.94928542491E+02  0.90009525387E+02 0.  0.
         13    1    3    3    0    0 -0.17008675079E+02  0.79835752831E+01 -0.28393595605E+02  0.34047612804E+02  0.10566000000E+00 0. -1.
         22    1    1    0    0    0 -0.16296120142E+01 -0.59306756911E+01 -0.29527698346E+02  0.30161457509E+02  0.00000000000E+00 0.  1.
</event>
<event>
 5    1  0.1250806E-009  0.9118800E+02  0.7561462E-02  0.1125453E+00
         25   -1    0    0    0    0  0.00000000000E+00  0.00000000000E+00  0.99999998245E-14  0.12509000000E+03  0.12509000000E+03 0.  0.
        -13    1    3    3    0    0 -0.17531131952E+02 -0.36896677487E+02 -0.39754358220E+02  0.57001101380E+02  0.10566000000E+00 0. -1.
         23    2    1    0    0    0 -0.59217984804E+00 -0.68827468437E+01 -0.32034300810E+02  0.92319291899E+02  0.86307197540E+02 0.  0.
         13    1    3    3    0    0  0.16938952104E+02  0.30013930643E+02  0.77200574099E+01  0.35318190518E+02  0.10566000000E+00 0.  1.
         22    1    1    0    0    0  0.59217984804E+00  0.68827468437E+01  0.32034300810E+02  0.32770708101E+02  0.00000000000E+00 0. -1.
</event>
<event>
 5    1  0.1250806E-009  0.9118800E+02  0.7561462E-02  0.1125453E+00
         25   -1    0    0    0    0  0.00000000000E+00  0.00000000000E+00  0.99999998245E-14  0.12509000000E+03  0.12509000000E+03 0.  0.
        -13    1    3    3    0    0 -0.19978530144E+02  0.11168980633E+02  0.40779394074E+02  0.46763852923E+02  0.10566000000E+00 0.  1.
         23    2    1    0    0    0  0.11404883064E+02  0.10734535579E+02 -0.10034120366E+02  0.10648932304E+03  0.10485223287E+03 0.  0.
         13    1    3    3    0    0  0.31383413208E+02 -0.43444505433E+00 -0.50813514440E+02  0.59725470119E+02  0.10566000000E+00 0. -1.
         22    1    1    0    0    0 -0.11404883064E+02 -0.10734535579E+02  0.10034120366E+02  0.18600676959E+02  0.00000000000E+00 0. -1.
</event>
<event>
 5    1  0.1250806E-009  0.9118800E+02  0.7561462E-02  0.1125453E+00
         25   -1    0    0    0    0  0.00000000000E+00  0.00000000000E+00  0.99999998245E-14  0.12509000000E+03  0.12509000000E+03 0.  0.
        -13    1    3    3    0    0  0.23844941173E+02  0.44920179167E+02  0.18439859310E+02  0.54096610719E+02  0.10566000000E+00 0. -1.
         23    2    1    0    0    0  0.22633622691E+02  0.21700158049E+02 -0.11222799105E+02  0.91786412277E+02  0.85531377420E+02 0.  0.
         13    1    3    3    0    0 -0.12113184821E+01 -0.23220021117E+02 -0.29662658415E+02  0.37689801557E+02  0.10566000000E+00 0.  1.
         22    1    1    0    0    0 -0.22633622691E+02 -0.21700158049E+02  0.11222799105E+02  0.33303587723E+02  0.00000000000E+00 0. -1.
</event>
<event>
 5    1  0.1250806E-009  0.9118800E+02  0.7561462E-02  0.1125453E+00
         25   -1    0    0    0    0  0.00000000000E+00  0.00000000000E+00  0.99999998245E-14  0.12509000000E+03  0.12509000000E+03 0.  0.
        -13    1    3    3    0    0 -0.35865701972E+02  0.19772024379E+02  0.14895837005E+01  0.40981844146E+02  0.10566000000E+00 0. -1.
         23    2    1    0    0    0 -0.16678792561E+02 -0.25524283825E+02 -0.12518028023E+02  0.92129839023E+02  0.86032174369E+02 0.  0.
         13    1    3    3    0    0  0.19186909411E+02 -0.45296308204E+02 -0.14007611723E+02  0.51147994877E+02  0.10566000000E+00 0.  1.
         22    1    1    0    0    0  0.16678792561E+02  0.25524283825E+02  0.12518028023E+02  0.32960160977E+02  0.00000000000E+00 0. -1.
</event>
<event>
 5    1  0.1250806E-009  0.9118800E+02  0.7561462E-02  0.1125453E+00
         25   -1    0    0    0    0  0.00000000000E+00  0.00000000000E+00  0.99999998245E-14  0.12509000000E+03  0.12509000000E+03 0.  0.
        -13    1    3    3    0    0  0.40529225594E+02 -0.33017028251E+02  0.28589680366E+01  0.52353864652E+02  0.10566000000E+00 0.  1.
         23    2    1    0    0    0 -0.31866322571E+01 -0.28242119913E+02 -0.20050884416E+01  0.96598030220E+02  0.92300526003E+02 0.  0.
         13    1    3    3    0    0 -0.43715857851E+02  0.47749083379E+01 -0.48640564782E+01  0.44244165567E+02  0.10566000000E+00 0. -1.
         22    1    1    0    0    0  0.31866322571E+01  0.28242119913E+02  0.20050884416E+01  0.28491969780E+02  0.00000000000E+00 0.  1.
</event>
<event>
 5    1  0.1250806E-009  0.9118800E+02  0.7561462E-02  0.1125453E+00
         25   -1    0    0    0    0  0.00000000000E+00  0.00000000000E+00  0.99999998245E-14  0.12509000000E+03  0.12509000000E+03 0.  0.
        -13    1    3    3    0    0 -0.49526201200E+01  0.86150379785E+01 -0.34103192058E+02  0.35521630002E+02  0.10566000000E+00 0.  1.
         23    2    1    0    0    0  0.13175203701E+02  0.14217999511E+02  0.22600389112E+02  0.95315596720E+02  0.90545833076E+02 0.  0.
         13    1    3    3    0    0  0.18127823821E+02  0.56029615323E+01  0.56703581170E+02  0.59793966718E+02  0.10566000000E+00 0. -1.
         22    1    1    0    0    0 -0.13175203701E+02 -0.14217999511E+02 -0.22600389112E+02  0.29774403280E+02  0.00000000000E+00 0. -1.
</event>
<event>
 5    1  0.1250806E-009  0.9118800E+02  0.7561462E-02  0.1125453E+00
         25   -1    0    0    0    0  0.00000000000E+00  0.00000000000E+00  0.99999998245E-14  0.12509000000E+03  0.12509000000E+03 0.  0.
        -13    1    3    3    0    0 -0.34329644136E+02  0.32648863622E+02  0.90517814835E+01  0.48232962530E+02  0.10566000000E+00 0. -1.
         23    2    1    0    0    0 -0.13531623874E+02 -0.12809108493E+02  0.18189122711E+02  0.99051138849E+02  0.95567284241E+02 0.  0.
         13    1    3    3    0    0  0.20798020262E+02 -0.45457972115E+02  0.91373412273E+01  0.50818176319E+02  0.10566000000E+00 0.  1.
         22    1    1    0    0    0  0.13531623874E+02  0.12809108493E+02 -0.18189122711E+02  0.26038861151E+02  0.00000000000E+00 0.  1.
</event>
<event>
 5    1  0.1250806E-009  0.9118800E+02  0.7561462E-02  0.1125453E+00
         25   -1    0    0    0    0  0.00000000000E+00  0.00000000000E+00  0.99999998245E-14  0.12509000000E+03  0.12509000000E+03 0.  0.
        -13    1    3    3    0    0 -0.53166897192E+02 -0.15282977453E+02  0.38482469716E+00  0.55321312448E+02  0.10566000000E+00 0. -1.
         23    2    1    0    0    0 -0.22683083586E+02  0.35044773677E+00  0.20041927204E+02  0.94819156922E+02  0.89857379100E+02 0.  0.
         13    1    3    3    0    0  0.30483813606E+02  0.15633425190E+02  0.19657102507E+02  0.39497844474E+02  0.10566000000E+00 0.  1.
         22    1    1    0    0    0  0.22683083586E+02 -0.35044773677E+00 -0.20041927204E+02  0.30270843078E+02  0.00000000000E+00 0. -1.
</event>
<event>
 5    1  0.1250806E-009  0.9118800E+02  0.7561462E-02  0.1125453E+00
         25   -1    0    0    0    0  0.00000000000E+00  0.00000000000E+00  0.99999998245E-14  0.12509000000E+03  0.12509000000E+03 0.  0.
        -13    1    3    3    0    0  0.26686714514E+02 -0.20384237116E+02  0.49785362254E+02  0.60052404724E+02  0.10566000000E+00 0.  1.
         23    2    1    0    0    0  0.16156907978E+02  0.22408788370E+01  0.25107672152E+02  0.95149017815E+02  0.90315409410E+02 0.  0.
         13    1    3    3    0    0 -0.10529806536E+02  0.22625115953E+02 -0.24677690103E+02  0.35096613090E+02  0.10566000000E+00 0. -1.
         22    1    1    0    0    0 -0.16156907978E+02 -0.22408788370E+01 -0.25107672152E+02  0.29940982185E+02  0.00000000000E+00 0.  1.
</event>
<event>
 5    1  0.1250806E-009  0.9118800E+02  0.7561462E-02  0.1125453E+00
         25   -1    0    0    0    0  0.00000000000E+00  0.00000000000E+00  0.99999998245E-14  0.12509000000E+03  0.12509000000E+03 0.  0.
        -13    1    3    3    0    0 -0.88435906434E+01 -0.33234513014E+02  0.13094945363E+02  0.36799873761E+02  0.10566000000E+00 0.  1.
         23    2    1    0    0    0  0.29022479219E+02 -0.10916375937E+02 -0.16671608217E+02  0.89884686706E+02  0.82703342254E+02 0.  0.
         13    1    3    3    0    0  0.37866069862E+02  0.22318137076E+02 -0.29766553580E+02  0.53084812945E+02  0.10566000000E+00 0. -1.
         22    1    1    0    0    0 -0.29022479219E+02  0.10916375937E+02  0.16671608217E+02  0.35205313294E+02  0.00000000000E+00 0. -1.
</event>
<event>
 5    1  0.1250806E-009  0.9118800E+02  0.7561462E-02  0.1125453E+00
         25   -1    0    0    0    0  0.00000000000E+00  0.00000000000E+00  0.99999998245E-14  0.12509000000E+03  0.12509000000E+03 0.  0.
        -13    1    3    3    0    0 -0.29798189441E+02  0.18481842567E+02 -0.42096706882E+02  0.54787357054E+02  0.10566000000E+00 0.  1.
         23    2    1    0    0    0 -0.28934639408E+02 -0.35375649391E+01 -0.89387553324E+01  0.94600180875E+02  0.89552024831E+02 0.  0.
         13    1    3    3    0    0  0.86355003310E+00 -0.22019407506E+02  0.33157951550E+02  0.39812823821E+02  0.10566000000E+00 0. -1.
         22    1    1    0    0    0  0.28934639408E+02  0.35375649391E+01  0.89387553324E+01  0.30489819125E+02  0.00000000000E+00 0. -1.
</event>
<event>
 5    1  0.1250806E-009  0.9118800E+02  0.7561462E-02  0.1125453E+00
         25   -1    0    0    0    0  0.00000000000E+00  0.00000000000E+00  0.99999998245E-14  0.12509000000E+03  0.12509000000E+03 0.  0.
        -13    1    3    3    0    0  0.26059624759E+02 -0.20489780105E+02  0.28227269878E+02  0.43539924898E+02  0.10566000000E+00 0. -1.
         23    2    1    0    0    0  0.18216599868E+01  0.24289723874E+02  0.16129290385E+02  0.95875908549E+02  0.91316628830E+02 0.  0.
         13    1    3    3    0    0 -0.24237964772E+02  0.44779503979E+02 -0.12097979494E+02  0.52335983651E+02  0.10566000000E+00 0.  1.
         22    1    1    0    0    0 -0.18216599868E+01 -0.24289723874E+02 -0.16129290385E+02  0.29214091451E+02  0.00000000000E+00 0. -1.
</event>
<event>
 5    1  0.1250806E-009  0.9118800E+02  0.7561462E-02  0.1125453E+00
         25   -1    0    0    0    0  0.00000000000E+00  0.00000000000E+00  0.99999998245E-14  0.12509000000E+03  0.12509000000E+03 0.  0.
        -13    1    3    3    0    0  0.20327632151E+02  0.55824413037E+02  0.73961790398E+01  0.59868959805E+02  0.10566000000E+00 0. -1.
         23    2    1    0    0    0  0.18089636000E+02  0.13911999253E+02  0.21318170946E+01  0.10217006767E+03  0.99566055611E+02 0.  0.
         13    1    3    3    0    0 -0.22379961507E+01 -0.41912413784E+02 -0.52643619452E+01  0.42301107866E+02  0.10566000000E+00 0.  1.
         22    1    1    0    0    0 -0.18089636000E+02 -0.13911999253E+02 -0.21318170946E+01  0.22919932329E+02  0.00000000000E+00 0. -1.
</event>
<event>
 5    1  0.1250806E-009  0.9118800E+02  0.7561462E-02  0.1125453E+00
         25   -1    0    0    0    0  0.00000000000E+00  0.00000000000E+00  0.99999998245E-14  0.12509000000E+03  0.12509000000E+03 0.  0.
        -13    1    3    3    0    0  0.15474107788E+02 -0.14036318994E+02  0.26740159159E+02  0.33933958487E+02  0.10566000000E+00 0.  1.
         23    2    1    0    0    0 -0.15179258153E+02  0.16068641027E+02 -0.18456459676E+02  0.96293263964E+02  0.91886564190E+02 0.  0.
         13    1    3    3    0    0 -0.30653365941E+02  0.30104960021E+02 -0.45196618835E+02  0.62359305477E+02  0.10566000000E+00 0. -1.
         22    1    1    0    0    0  0.15179258153E+02 -0.16068641027E+02  0.18456459676E+02  0.28796736036E+02  0.00000000000E+00 0. -1.
</event>
<event>
 5    1  0.1250806E-009  0.9118800E+02  0.7561462E-02  0.1125453E+00
         25   -1    0    0    0    0  0.00000000000E+00  0.00000000000E+00  0.99999998245E-14  0.12509000000E+03  0.12509000000E+03 0.  0.
        -13    1    3    3    0    0  0.28876892235E+02  0.35304488716E+02 -0.41652293024E+02  0.61767357940E+02  0.10566000000E+00 0.  1.
         23    2    1    0    0    0  0.16824353154E+02  0.20694366728E+02 -0.14918341758E+02  0.94530670915E+02  0.89454877729E+02 0.  0.
         13    1    3    3    0    0 -0.12052539081E+02 -0.14610121988E+02  0.26733951266E+02  0.32763312976E+02  0.10566000000E+00 0. -1.
         22    1    1    0    0    0 -0.16824353154E+02 -0.20694366728E+02  0.14918341758E+02  0.30559329085E+02  0.00000000000E+00 0.  1.
</event>
<event>
 5    1  0.1250806E-009  0.9118800E+02  0.7561462E-02  0.1125453E+00
         25   -1    0    0    0    0  0.00000000000E+00  0.00000000000E+00  0.99999998245E-14  0.12509000000E+03  0.12509000000E+03 0.  0.
        -13    1    3    3    0    0 -0.12518672840E+02 -0.84689561993E+00 -0.58037793734E+02  0.59378708873E+02  0.10566000000E+00 0.  1.
         23    2    1    0    0    0  0.81177317732E+01 -0.13589306965E+01 -0.28572664173E+02  0.95355484707E+02  0.90600921982E+02 0.  0.
         13    1    3    3    0    0  0.20636404613E+02 -0.51203507657E+00  0.29465129561E+02  0.35976775834E+02  0.10566000000E+00 0. -1.
         22    1    1    0    0    0 -0.81177317732E+01  0.13589306965E+01  0.28572664173E+02  0.29734515293E+02  0.00000000000E+00 0.  1.
</event>
<event>
 5    1  0.1250806E-009  0.9118800E+02  0.7561462E-02  0.1125453E+00
         25   -1    0    0    0    0  0.00000000000E+00  0.00000000000E+00  0.99999998245E-14  0.12509000000E+03  0.12509000000E+03 0.  0.
        -13    1    3    3    0    0  0.65957866318E+01 -0.33012896402E+02 -0.10321804500E+02  0.35212306689E+02  0.10566000000E+00 0.  1.
         23    2    1    0    0    0  0.35068241539E+01  0.27974667153E+02 -0.42216572626E+01  0.96582067630E+02  0.92278890217E+02 0.  0.
         13    1    3    3    0    0 -0.30889624779E+01  0.60987563556E+02  0.61001472372E+01  0.61369760941E+02  0.10566000000E+00 0. -1.
         22    1    1    0    0    0 -0.35068241539E+01 -0.27974667153E+02  0.42216572626E+01  0.28507932370E+02  0.00000000000E+00 0. -1.
</event>
<event>
 5    1  0.1250806E-009  0.9118800E+02  0.7561462E-02  0.1125453E+00
         25   -1    0    0    0    0  0.00000000000E+00  0.00000000000E+00  0.99999998245E-14  0.12509000000E+03  0.12509000000E+03 0.  0.
        -13    1    3    3    0    0  0.16295965458E+02  0.23665134137E+02  0.26839853235E+02  0.39319027832E+02  0.10566000000E+00 0. -1.
         23    2    1    0    0    0  0.20726937526E+02 -0.64846984939E+01 -0.20241454287E+02  0.95402060944E+02  0.90665205603E+02 0.  0.
         13    1    3    3    0    0  0.44309720679E+01 -0.30149832630E+02 -0.47081307522E+02  0.56083033113E+02  0.10566000000E+00 0.  1.
         22    1    1    0    0    0 -0.20726937526E+02  0.64846984939E+01  0.20241454287E+02  0.29687939056E+02  0.00000000000E+00 0.  1.
</event>
<event>
 5    1  0.1250806E-009  0.9118800E+02  0.7561462E-02  0.1125453E+00
         25   -1    0    0    0    0  0.00000000000E+00  0.00000000000E+00  0.99999998245E-14  0.12509000000E+03  0.12509000000E+03 0.  0.
        -13    1    3    3    0    0  0.32219373210E+02 -0.15090144779E+02 -0.21072807860E+02  0.41350633304E+02  0.10566000000E+00 0.  1.
         23    2    1    0    0    0  0.18697805467E+02 -0.43807187566E-01 -0.47157778025E+02  0.74360660593E+02  0.54369494823E+02 0.  0.
         13    1    3    3    0    0 -0.13521567743E+02  0.15046337591E+02 -0.26084970165E+02  0.33010027290E+02  0.10566000000E+00 0. -1.
         22    1    1    0    0    0 -0.18697805467E+02  0.43807187566E-01  0.47157778025E+02  0.50729339407E+02  0.00000000000E+00 0.  1.
</event>
<event>
 5    1  0.1250806E-009  0.9118800E+02  0.7561462E-02  0.1125453E+00
         25   -1    0    0    0    0  0.00000000000E+00  0.00000000000E+00  0.99999998245E-14  0.12509000000E+03  0.12509000000E+03 0.  0.
        -13    1    3    3    0    0 -0.47597132794E+02  0.21651701004E+02 -0.28413898691E+02  0.59511713212E+02  0.10566000000E+00 0.  1.
         23    2    1    0    0    0 -0.26055693723E+02 -0.31546027903E+01 -0.12937321615E+02  0.95828677666E+02  0.91251906711E+02 0.  0.
         13    1    3    3    0    0  0.21541439070E+02 -0.24806303794E+02  0.15476577075E+02  0.36316964454E+02  0.10566000000E+00 0. -1.
         22    1    1    0    0    0  0.26055693723E+02  0.31546027903E+01  0.12937321615E+02  0.29261322334E+02  0.00000000000E+00 0.  1.
</event>
<event>
 5    1  0.1250806E-009  0.9118800E+02  0.7561462E-02  0.1125453E+00
         25   -1    0    0    0    0  0.00000000000E+00  0.00000000000E+00  0.99999998245E-14  0.12509000000E+03  0.12509000000E+03 0.  0.
        -13    1    3    3    0    0  0.48954913501E+02  0.35670927731E+02  0.12424627332E+02  0.61833495530E+02  0.10566000000E+00 0.  1.
         23    2    1    0    0    0  0.22732749290E+02  0.18704644873E+02  0.12604105587E+02  0.93066491327E+02  0.87383446373E+02 0.  0.
         13    1    3    3    0    0 -0.26222164211E+02 -0.16966282858E+02  0.17947825534E+00  0.31232995796E+02  0.10566000000E+00 0. -1.
         22    1    1    0    0    0 -0.22732749290E+02 -0.18704644873E+02 -0.12604105587E+02  0.32023508673E+02  0.00000000000E+00 0.  1.
</event>
<event>
 5    1  0.1250806E-009  0.9118800E+02  0.7561462E-02  0.1125453E+00
         25   -1    0    0    0    0  0.00000000000E+00  0.00000000000E+00  0.99999998245E-14  0.12509000000E+03  0.12509000000E+03 0.  0.
        -13    1    3    3    0    0  0.59948945166E+01  0.35522529654E+02  0.19649490719E+01  0.36078540189E+02  0.10566000000E+00 0.  1.
         23    2    1    0    0    0  0.29624951152E+02 -0.99484072030E+01 -0.15485720980E+02  0.90212842849E+02  0.83198202649E+02 0.  0.
         13    1    3    3    0    0  0.23630056636E+02 -0.45470936857E+02 -0.17450670052E+02  0.54134302660E+02  0.10566000000E+00 0. -1.
         22    1    1    0    0    0 -0.29624951152E+02  0.99484072030E+01  0.15485720980E+02  0.34877157151E+02  0.00000000000E+00 0. -1.
</event>
<event>
 5    1  0.1250806E-009  0.9118800E+02  0.7561462E-02  0.1125453E+00
         25   -1    0    0    0    0  0.00000000000E+00  0.00000000000E+00  0.99999998245E-14  0.12509000000E+03  0.12509000000E+03 0.  0.
        -13    1    3    3    0    0 -0.29368263455E+02  0.34906439517E+02  0.19335299909E+02  0.49546134104E+02  0.10566000000E+00 0.  1.
         23    2    1    0    0    0  0.13951648301E+02  0.23628974145E+02  0.12894209111E+02  0.94771069642E+02  0.89790412089E+02 0.  0.
         13    1    3    3    0    0  0.43319911755E+02 -0.11277465372E+02 -0.64410907980E+01  0.45224935538E+02  0.10566000000E+00 0. -1.
         22    1    1    0    0    0 -0.13951648301E+02 -0.23628974145E+02 -0.12894209111E+02  0.30318930358E+02  0.00000000000E+00 0.  1.
</event>
<event>
 5    1  0.1250806E-009  0.9118800E+02  0.7561462E-02  0.1125453E+00
         25   -1    0    0    0    0  0.00000000000E+00  0.00000000000E+00  0.99999998245E-14  0.12509000000E+03  0.12509000000E+03 0.  0.
        -13    1    3    3    0    0  0.21891459650E+02  0.47113627012E+02  0.34038684849E+02  0.62109363917E+02  0.10566000000E+00 0.  1.
         23    2    1    0    0    0 -0.15986810366E+00  0.86538622283E+01  0.57316256230E+01  0.11470893929E+03  0.11423823498E+03 0.  0.
         13    1    3    3    0    0 -0.22051327754E+02 -0.38459764784E+02 -0.28307059226E+02  0.52599575369E+02  0.10566000000E+00 0. -1.
         22    1    1    0    0    0  0.15986810366E+00 -0.86538622283E+01 -0.57316256230E+01  0.10381060715E+02  0.00000000000E+00 0.  1.
</event>
<event>
 5    1  0.1250806E-009  0.9118800E+02  0.7561462E-02  0.1125453E+00
         25   -1    0    0    0    0  0.00000000000E+00  0.00000000000E+00  0.99999998245E-14  0.12509000000E+03  0.12509000000E+03 0.  0.
        -13    1    3    3    0    0  0.26519003448E+02 -0.92948570665E+01 -0.43651949400E+02  0.51914889600E+02  0.10566000000E+00 0. -1.
         23    2    1    0    0    0  0.10330038248E+02  0.21301650109E+02 -0.13402023115E+02  0.97885511195E+02  0.94029192758E+02 0.  0.
         13    1    3    3    0    0 -0.16188965200E+02  0.30596507175E+02  0.30249926284E+02  0.45970621595E+02  0.10566000000E+00 0.  1.
         22    1    1    0    0    0 -0.10330038248E+02 -0.21301650109E+02  0.13402023115E+02  0.27204488805E+02  0.00000000000E+00 0. -1.
</event>
<event>
 5    1  0.1250806E-009  0.9118800E+02  0.7561462E-02  0.1125453E+00
         25   -1    0    0    0    0  0.00000000000E+00  0.00000000000E+00  0.99999998245E-14  0.12509000000E+03  0.12509000000E+03 0.  0.
        -13    1    3    3    0    0 -0.21108166885E+02 -0.45365985864E+02  0.31758917316E+02  0.59264385391E+02  0.10566000000E+00 0. -1.
         23    2    1    0    0    0 -0.16508380735E+02 -0.91422860651E+01  0.19920767973E+02  0.97650156239E+02  0.93715569613E+02 0.  0.
         13    1    3    3    0    0  0.45997861504E+01  0.36223699798E+02 -0.11838149343E+02  0.38385770848E+02  0.10566000000E+00 0.  1.
         22    1    1    0    0    0  0.16508380735E+02  0.91422860651E+01 -0.19920767973E+02  0.27439843761E+02  0.00000000000E+00 0. -1.
</event>
<event>
 5    1  0.1250806E-009  0.9118800E+02  0.7561462E-02  0.1125453E+00
         25   -1    0    0    0    0  0.00000000000E+00  0.00000000000E+00  0.99999998245E-14  0.12509000000E+03  0.12509000000E+03 0.  0.
        -13    1    3    3    0    0 -0.52276970685E+02  0.21790502756E+01 -0.17361521572E+02  0.55127701924E+02  0.10566000000E+00 0.  1.
         23    2    1    0    0    0 -0.14993045240E+02  0.19262212294E+02 -0.15487158787E+02  0.96181933387E+02  0.91734878834E+02 0.  0.
         13    1    3    3    0    0  0.37283925445E+02  0.17083162019E+02  0.18743627850E+01  0.41054231463E+02  0.10566000000E+00 0. -1.
         22    1    1    0    0    0  0.14993045240E+02 -0.19262212294E+02  0.15487158787E+02  0.28908066613E+02  0.00000000000E+00 0.  1.
</event>
<event>
 5    1  0.1250806E-009  0.9118800E+02  0.7561462E-02  0.1125453E+00
         25   -1    0    0    0    0  0.00000000000E+00  0.00000000000E+00  0.99999998245E-14  0.12509000000E+03  0.12509000000E+03 0.  0.
        -13    1    3    3    0    0  0.16677875185E+02  0.44026636442E+01 -0.35950400236E+02  0.39874520800E+02  0.10566000000E+00 0. -1.
         23    2    1    0    0    0 -0.67281050345E+01 -0.27957882349E+02  0.36330627802E+01  0.96105353583E+02  0.91630394844E+02 0.  0.
         13    1    3    3    0    0 -0.23405980220E+02 -0.32360545993E+02  0.39583463016E+02  0.56230832782E+02  0.10566000000E+00 0.  1.
         22    1    1    0    0    0  0.67281050345E+01  0.27957882349E+02 -0.36330627802E+01  0.28984646417E+02  0.00000000000E+00 0.  1.
</event>
<event>
 5    1  0.1250806E-009  0.9118800E+02  0.7561462E-02  0.1125453E+00
         25   -1    0    0    0    0  0.00000000000E+00  0.00000000000E+00  0.99999998245E-14  0.12509000000E+03  0.12509000000E+03 0.  0.
        -13    1    3    3    0    0  0.41541266419E+02  0.15692215234E+02  0.14776212673E+02  0.46800321148E+02  0.10566000000E+00 0. -1.
         23    2    1    0    0    0 -0.84097389248E+01  0.18438889434E+02  0.19393611997E+02  0.97039535857E+02  0.92896948178E+02 0.  0.
         13    1    3    3    0    0 -0.49951005343E+02  0.27466742007E+01  0.46173993240E+01  0.50239214709E+02  0.10566000000E+00 0.  1.
         22    1    1    0    0    0  0.84097389248E+01 -0.18438889434E+02 -0.19393611997E+02  0.28050464143E+02  0.00000000000E+00 0. -1.
</event>
<event>
 5    1  0.1250806E-009  0.9118800E+02  0.7561462E-02  0.1125453E+00
         25   -1    0    0    0    0  0.00000000000E+00  0.00000000000E+00  0.99999998245E-14  0.12509000000E+03  0.12509000000E+03 0.  0.
        -13    1    3    3    0    0 -0.55539033257E+01  0.40299687779E+02 -0.43788111990E+02  0.59768893188E+02  0.10566000000E+00 0. -1.
         23    2    1    0    0    0 -0.88529645189E+01  0.91959481192E+01 -0.26899343576E+02  0.95315596103E+02  0.90545832224E+02 0.  0.
         13    1    3    3    0    0 -0.32990611933E+01 -0.31103739660E+02  0.16888768413E+02  0.35546702915E+02  0.10566000000E+00 0.  1.
         22    1    1    0    0    0  0.88529645189E+01 -0.91959481192E+01  0.26899343576E+02  0.29774403897E+02  0.00000000000E+00 0. -1.
</event>
<event>
 5    1  0.1250806E-009  0.9118800E+02  0.7561462E-02  0.1125453E+00
         25   -1    0    0    0    0  0.00000000000E+00  0.00000000000E+00  0.99999998245E-14  0.12509000000E+03  0.12509000000E+03 0.  0.
        -13    1    3    3    0    0  0.54071920346E+02  0.14997236081E+02  0.21453162342E+02  0.60074445470E+02  0.10566000000E+00 0.  1.
         23    2    1    0    0    0  0.26584785028E+02  0.20191157368E+02  0.10904043180E+02  0.89971176151E+02  0.82834055494E+02 0.  0.
         13    1    3    3    0    0 -0.27487135318E+02  0.51939212870E+01 -0.10549119162E+02  0.29896730682E+02  0.10566000000E+00 0. -1.
         22    1    1    0    0    0 -0.26584785028E+02 -0.20191157368E+02 -0.10904043180E+02  0.35118823849E+02  0.00000000000E+00 0.  1.
</event>
<event>
 5    1  0.1250806E-009  0.9118800E+02  0.7561462E-02  0.1125453E+00
         25   -1    0    0    0    0  0.00000000000E+00  0.00000000000E+00  0.99999998245E-14  0.12509000000E+03  0.12509000000E+03 0.  0.
        -13    1    3    3    0    0  0.83375444349E+00 -0.57251844978E+02  0.20304719080E+01  0.57294003875E+02  0.10566000000E+00 0.  1.
         23    2    1    0    0    0 -0.16214646910E+02 -0.24280722568E+02 -0.60288768024E+01  0.95276989110E+02  0.90492480547E+02 0.  0.
         13    1    3    3    0    0 -0.17048401354E+02  0.32971122410E+02 -0.80593487104E+01  0.37982985235E+02  0.10566000000E+00 0. -1.
         22    1    1    0    0    0  0.16214646910E+02  0.24280722568E+02  0.60288768024E+01  0.29813010890E+02  0.00000000000E+00 0.  1.
</event>
<event>
 5    1  0.1250806E-009  0.9118800E+02  0.7561462E-02  0.1125453E+00
         25   -1    0    0    0    0  0.00000000000E+00  0.00000000000E+00  0.99999998245E-14  0.12509000000E+03  0.12509000000E+03 0.  0.
        -13    1    3    3    0    0  0.28937586332E+02  0.13565095641E+02 -0.38580471736E+02  0.50098499837E+02  0.10566000000E+00 0.  1.
         23    2    1    0    0    0  0.22456459322E+02 -0.16907285188E+02 -0.39102204098E+01  0.96709748391E+02  0.92451807730E+02 0.  0.
         13    1    3    3    0    0 -0.64811270101E+01 -0.30472380829E+02  0.34670251326E+02  0.46611248554E+02  0.10566000000E+00 0. -1.
         22    1    1    0    0    0 -0.22456459322E+02  0.16907285188E+02  0.39102204098E+01  0.28380251609E+02  0.00000000000E+00 0. -1.
</event>
<event>
 5    1  0.1250806E-009  0.9118800E+02  0.7561462E-02  0.1125453E+00
         25   -1    0    0    0    0  0.00000000000E+00  0.00000000000E+00  0.99999998245E-14  0.12509000000E+03  0.12509000000E+03 0.  0.
        -13    1    3    3    0    0 -0.29336288786E+02 -0.37243722319E+02  0.34846435000E+02  0.58838744788E+02  0.10566000000E+00 0.  1.
         23    2    1    0    0    0 -0.44601422218E+01 -0.27407140005E+02  0.93586057232E+01  0.95787650384E+02  0.91195648324E+02 0.  0.
         13    1    3    3    0    0  0.24876146565E+02  0.98365823134E+01 -0.25487829277E+02  0.36948905597E+02  0.10566000000E+00 0. -1.
         22    1    1    0    0    0  0.44601422218E+01  0.27407140005E+02 -0.93586057232E+01  0.29302349616E+02  0.00000000000E+00 0.  1.
</event>
<event>
 5    1  0.1250806E-009  0.9118800E+02  0.7561462E-02  0.1125453E+00
         25   -1    0    0    0    0  0.00000000000E+00  0.00000000000E+00  0.99999998245E-14  0.12509000000E+03  0.12509000000E+03 0.  0.
        -13    1    3    3    0    0  0.48317633211E+01 -0.43313045929E+02  0.38726942592E+01  0.43753569104E+02  0.10566000000E+00 0.  1.
         23    2    1    0    0    0  0.14697080094E+02 -0.23852299575E+01 -0.25829163429E+02  0.95276594145E+02  0.90491934576E+02 0.  0.
         13    1    3    3    0    0  0.98653167725E+01  0.40927815972E+02 -0.29701857688E+02  0.51523025041E+02  0.10566000000E+00 0. -1.
         22    1    1    0    0    0 -0.14697080094E+02  0.23852299575E+01  0.25829163429E+02  0.29813405855E+02  0.00000000000E+00 0.  1.
</event>
<event>
 5    1  0.1250806E-009  0.9118800E+02  0.7561462E-02  0.1125453E+00
         25   -1    0    0    0    0  0.00000000000E+00  0.00000000000E+00  0.99999998245E-14  0.12509000000E+03  0.12509000000E+03 0.  0.
        -13    1    3    3    0    0  0.37686028201E+02  0.42036419772E+02 -0.41965360795E+01  0.56612007453E+02  0.10566000000E+00 0. -1.
         23    2    1    0    0    0  0.21959121328E+02  0.92949331832E+01  0.14209255584E+02  0.97332086955E+02  0.93290049921E+02 0.  0.
         13    1    3    3    0    0 -0.15726906873E+02 -0.32741486589E+02  0.18405791663E+02  0.40720079501E+02  0.10566000000E+00 0.  1.
         22    1    1    0    0    0 -0.21959121328E+02 -0.92949331832E+01 -0.14209255584E+02  0.27757913045E+02  0.00000000000E+00 0. -1.
</event>
<event>
 5    1  0.1250806E-009  0.9118800E+02  0.7561462E-02  0.1125453E+00
         25   -1    0    0    0    0  0.00000000000E+00  0.00000000000E+00  0.99999998245E-14  0.12509000000E+03  0.12509000000E+03 0.  0.
        -13    1    3    3    0    0  0.10014444225E+02 -0.86024825712E+00  0.37647893019E+02  0.38966705442E+02  0.10566000000E+00 0. -1.
         23    2    1    0    0    0  0.24756076048E+02 -0.85495145758E+01 -0.15501137675E+02  0.94655763193E+02  0.89629630902E+02 0.  0.
         13    1    3    3    0    0  0.14741631824E+02 -0.76892663187E+01 -0.53149030695E+02  0.55689057751E+02  0.10566000000E+00 0.  1.
         22    1    1    0    0    0 -0.24756076048E+02  0.85495145758E+01  0.15501137675E+02  0.30434236807E+02  0.00000000000E+00 0.  1.
</event>
<event>
 5    1  0.1250806E-009  0.9118800E+02  0.7561462E-02  0.1125453E+00
         25   -1    0    0    0    0  0.00000000000E+00  0.00000000000E+00  0.99999998245E-14  0.12509000000E+03  0.12509000000E+03 0.  0.
        -13    1    3    3    0    0 -0.47320978188E+01  0.19680851468E+02 -0.40678026282E+02  0.45436127151E+02  0.10566000000E+00 0. -1.
         23    2    1    0    0    0 -0.28471158704E+02  0.10469337202E+02  0.15145859393E+01  0.94717185347E+02  0.89715312684E+02 0.  0.
         13    1    3    3    0    0 -0.23739060885E+02 -0.92115142659E+01  0.42192612221E+02  0.49281058195E+02  0.10566000000E+00 0.  1.
         22    1    1    0    0    0  0.28471158704E+02 -0.10469337202E+02 -0.15145859393E+01  0.30372814653E+02  0.00000000000E+00 0.  1.
</event>
<event>
 5    1  0.1250806E-009  0.9118800E+02  0.7561462E-02  0.1125453E+00
         25   -1    0    0    0    0  0.00000000000E+00  0.00000000000E+00  0.99999998245E-14  0.12509000000E+03  0.12509000000E+03 0.  0.
        -13    1    3    3    0    0  0.10272371763E+02 -0.34580789733E+02  0.18896192684E+02  0.40723824749E+02  0.10566000000E+00 0. -1.
         23    2    1    0    0    0  0.32953986280E+02  0.77867736209E+01  0.11394257585E+02  0.89362865199E+02  0.81910277228E+02 0.  0.
         13    1    3    3    0    0  0.22681614517E+02  0.42367563354E+02 -0.75019350990E+01  0.48639040450E+02  0.10566000000E+00 0.  1.
         22    1    1    0    0    0 -0.32953986280E+02 -0.77867736209E+01 -0.11394257585E+02  0.35727134801E+02  0.00000000000E+00 0.  1.
</event>
<event>
 5    1  0.1250806E-009  0.9118800E+02  0.7561462E-02  0.1125453E+00
         25   -1    0    0    0    0  0.00000000000E+00  0.00000000000E+00  0.99999998245E-14  0.12509000000E+03  0.12509000000E+03 0.  0.
        -13    1    3    3    0    0  0.11877261729E+02 -0.36537746014E+02 -0.12400054938E+02  0.40371385367E+02  0.10566000000E+00 0.  1.
         23    2    1    0    0    0 -0.28968630878E+02 -0.29693250570E+00 -0.72961330680E+01  0.95215206250E+02  0.90407036229E+02 0.  0.
         13    1    3    3    0    0 -0.40845892606E+02  0.36240813508E+02  0.51039218695E+01  0.54843820883E+02  0.10566000000E+00 0. -1.
         22    1    1    0    0    0  0.28968630878E+02  0.29693250570E+00  0.72961330680E+01  0.29874793750E+02  0.00000000000E+00 0. -1.
</event>
<event>
 5    1  0.1250806E-009  0.9118800E+02  0.7561462E-02  0.1125453E+00
         25   -1    0    0    0    0  0.00000000000E+00  0.00000000000E+00  0.99999998245E-14  0.12509000000E+03  0.12509000000E+03 0.  0.
        -13    1    3    3    0    0  0.33356780021E+02  0.45242283713E+02 -0.58634477202E+01  0.56514867001E+02  0.10566000000E+00 0.  1.
         23    2    1    0    0    0 -0.83617308835E+00  0.26999720754E+02 -0.11599460710E+02  0.95692183840E+02  0.91064605929E+02 0.  0.
         13    1    3    3    0    0 -0.34192953109E+02 -0.18242562959E+02 -0.57360129894E+01  0.39177316839E+02  0.10566000000E+00 0. -1.
         22    1    1    0    0    0  0.83617308835E+00 -0.26999720754E+02  0.11599460710E+02  0.29397816160E+02  0.00000000000E+00 0.  1.
</event>
<event>
 5    1  0.1250806E-009  0.9118800E+02  0.7561462E-02  0.1125453E+00
         25   -1    0    0    0    0  0.00000000000E+00  0.00000000000E+00  0.99999998245E-14  0.12509000000E+03  0.12509000000E+03 0.  0.
        -13    1    3    3    0    0 -0.19215012807E+02  0.27851960860E+02  0.27967826421E+02  0.43899418216E+02  0.10566000000E+00 0.  1.
         23    2    1    0    0    0 -0.21100464908E+02  0.49192027214E+01 -0.19046127395E+02  0.96242415292E+02  0.91817315130E+02 0.  0.
         13    1    3    3    0    0 -0.18854521011E+01 -0.22932758139E+02 -0.47013953816E+02  0.52342997076E+02  0.10566000000E+00 0. -1.
         22    1    1    0    0    0  0.21100464908E+02 -0.49192027214E+01  0.19046127395E+02  0.28847584708E+02  0.00000000000E+00 0. -1.
</event>
<event>
 5    1  0.1250806E-009  0.9118800E+02  0.7561462E-02  0.1125453E+00
         25   -1    0    0    0    0  0.00000000000E+00  0.00000000000E+00  0.99999998245E-14  0.12509000000E+03  0.12509000000E+03 0.  0.
        -13    1    3    3    0    0  0.84977094671E+01 -0.33706040704E+02  0.13576484554E+02  0.37318096722E+02  0.10566000000E+00 0.  1.
         23    2    1    0    0    0 -0.17073737871E+02  0.19144902351E+02  0.13653524739E+02  0.96030431030E+02  0.91528056546E+02 0.  0.
         13    1    3    3    0    0 -0.25571447338E+02  0.52850943054E+02  0.77040185507E-01  0.58712334308E+02  0.10566000000E+00 0. -1.
         22    1    1    0    0    0  0.17073737871E+02 -0.19144902351E+02 -0.13653524739E+02  0.29059568970E+02  0.00000000000E+00 0. -1.
</event>
<event>
 5    1  0.1250806E-009  0.9118800E+02  0.7561462E-02  0.1125453E+00
         25   -1    0    0    0    0  0.00000000000E+00  0.00000000000E+00  0.99999998245E-14  0.12509000000E+03  0.12509000000E+03 0.  0.
        -13    1    3    3    0    0  0.69518044132E+01  0.33179406873E+02  0.16699477263E+02  0.37790003042E+02  0.10566000000E+00 0.  1.
         23    2    1    0    0    0 -0.25665524400E+01 -0.38421681765E+01 -0.28060635203E+02  0.96651492731E+02  0.92372952488E+02 0.  0.
         13    1    3    3    0    0 -0.95183568532E+01 -0.37021575049E+02 -0.44760112466E+02  0.58861489688E+02  0.10566000000E+00 0. -1.
         22    1    1    0    0    0  0.25665524400E+01  0.38421681765E+01  0.28060635203E+02  0.28438507269E+02  0.00000000000E+00 0. -1.
</event>
<event>
 5    1  0.1250806E-009  0.9118800E+02  0.7561462E-02  0.1125453E+00
         25   -1    0    0    0    0  0.00000000000E+00  0.00000000000E+00  0.99999998245E-14  0.12509000000E+03  0.12509000000E+03 0.  0.
        -13    1    3    3    0    0  0.13059524722E+02  0.20765259986E+02  0.22646436094E+02  0.33385916792E+02  0.10566000000E+00 0.  1.
         23    2    1    0    0    0 -0.56985512959E+00 -0.26846621254E+02 -0.13821948621E+02  0.94888806790E+02  0.89954286072E+02 0.  0.
         13    1    3    3    0    0 -0.13629379852E+02 -0.47611881240E+02 -0.36468384715E+02  0.61502889998E+02  0.10566000000E+00 0. -1.
         22    1    1    0    0    0  0.56985512959E+00  0.26846621254E+02  0.13821948621E+02  0.30201193210E+02  0.00000000000E+00 0. -1.
</event>
<event>
 5    1  0.1250806E-009  0.9118800E+02  0.7561462E-02  0.1125453E+00
         25   -1    0    0    0    0  0.00000000000E+00  0.00000000000E+00  0.99999998245E-14  0.12509000000E+03  0.12509000000E+03 0.  0.
        -13    1    3    3    0    0 -0.81990036335E+00 -0.50117882386E+02  0.19876702367E+02  0.53921877123E+02  0.10566000000E+00 0.  1.
         23    2    1    0    0    0 -0.22621802599E+02 -0.17781913272E+02  0.39575577848E+01  0.96045126854E+02  0.91548138902E+02 0.  0.
         13    1    3    3    0    0 -0.21801902235E+02  0.32335969114E+02 -0.15919144583E+02  0.42123249731E+02  0.10566000000E+00 0. -1.
         22    1    1    0    0    0  0.22621802599E+02  0.17781913272E+02 -0.39575577848E+01  0.29044873146E+02  0.00000000000E+00 0.  1.
</event>
<event>
 5    1  0.1250806E-009  0.9118800E+02  0.7561462E-02  0.1125453E+00
         25   -1    0    0    0    0  0.00000000000E+00  0.00000000000E+00  0.99999998245E-14  0.12509000000E+03  0.12509000000E+03 0.  0.
        -13    1    3    3    0    0 -0.34233080901E+02 -0.49462473201E+02 -0.10931626810E+02  0.61138790566E+02  0.10566000000E+00 0.  1.
         23    2    1    0    0    0 -0.17019843754E+02 -0.19875880997E+02 -0.13833266402E+02  0.95491267152E+02  0.90788199212E+02 0.  0.
         13    1    3    3    0    0  0.17213237147E+02  0.29586592204E+02 -0.29016395923E+01  0.34352476587E+02  0.10566000000E+00 0. -1.
         22    1    1    0    0    0  0.17019843754E+02  0.19875880997E+02  0.13833266402E+02  0.29598732848E+02  0.00000000000E+00 0.  1.
</event>
<event>
 5    1  0.1250806E-009  0.9118800E+02  0.7561462E-02  0.1125453E+00
         25   -1    0    0    0    0  0.00000000000E+00  0.00000000000E+00  0.99999998245E-14  0.12509000000E+03  0.12509000000E+03 0.  0.
        -13    1    3    3    0    0 -0.32011380202E+01  0.22398219543E+02  0.38309546387E+02  0.44492246873E+02  0.10566000000E+00 0. -1.
         23    2    1    0    0    0  0.17279899781E+02  0.14235259848E+02 -0.12192212172E+02  0.99597106931E+02  0.96279261069E+02 0.  0.
         13    1    3    3    0    0  0.20481037801E+02 -0.81629596948E+01 -0.50501758559E+02  0.55104860058E+02  0.10566000000E+00 0.  1.
         22    1    1    0    0    0 -0.17279899781E+02 -0.14235259848E+02  0.12192212172E+02  0.25492893069E+02  0.00000000000E+00 0.  1.
</event>
<event>
 5    1  0.1250806E-009  0.9118800E+02  0.7561462E-02  0.1125453E+00
         25   -1    0    0    0    0  0.00000000000E+00  0.00000000000E+00  0.99999998245E-14  0.12509000000E+03  0.12509000000E+03 0.  0.
        -13    1    3    3    0    0  0.28419147243E+02  0.24090015105E+02 -0.11087229499E+02  0.38870484687E+02  0.10566000000E+00 0.  1.
         23    2    1    0    0    0 -0.26162415019E+02  0.13638266941E+02  0.23398267830E+00  0.95585271012E+02  0.90917627563E+02 0.  0.
         13    1    3    3    0    0 -0.54581562262E+02 -0.10451748164E+02  0.11321212177E+02  0.56714786325E+02  0.10566000000E+00 0. -1.
         22    1    1    0    0    0  0.26162415019E+02 -0.13638266941E+02 -0.23398267830E+00  0.29504728988E+02  0.00000000000E+00 0. -1.
</event>
<event>
 5    1  0.1250806E-009  0.9118800E+02  0.7561462E-02  0.1125453E+00
         25   -1    0    0    0    0  0.00000000000E+00  0.00000000000E+00  0.99999998245E-14  0.12509000000E+03  0.12509000000E+03 0.  0.
        -13    1    3    3    0    0 -0.30535609817E+02  0.37909249763E+02  0.16837132415E+02  0.51507619596E+02  0.10566000000E+00 0.  1.
         23    2    1    0    0    0 -0.12789919640E+02 -0.11325923371E+01  0.26655722664E+02  0.95502969725E+02  0.90804321845E+02 0.  0.
         13    1    3    3    0    0  0.17745690178E+02 -0.39041842100E+02  0.98185902491E+01  0.43995350129E+02  0.10566000000E+00 0. -1.
         22    1    1    0    0    0  0.12789919640E+02  0.11325923371E+01 -0.26655722664E+02  0.29587030275E+02  0.00000000000E+00 0.  1.
</event>
<event>
 5    1  0.1250806E-009  0.9118800E+02  0.7561462E-02  0.1125453E+00
         25   -1    0    0    0    0  0.00000000000E+00  0.00000000000E+00  0.99999998245E-14  0.12509000000E+03  0.12509000000E+03 0.  0.
        -13    1    3    3    0    0 -0.98791308407E+01  0.41058189242E+02  0.22387139284E+02  0.47797147397E+02  0.10566000000E+00 0.  1.
         23    2    1    0    0    0 -0.16673807172E+01 -0.74657813500E+01  0.26810471926E+02  0.97209550676E+02  0.93125599531E+02 0.  0.
         13    1    3    3    0    0  0.82117501235E+01 -0.48523970592E+02  0.44233326427E+01  0.49412403279E+02  0.10566000000E+00 0. -1.
         22    1    1    0    0    0  0.16673807172E+01  0.74657813500E+01 -0.26810471926E+02  0.27880449324E+02  0.00000000000E+00 0.  1.
</event>
<event>
 5    1  0.1250806E-009  0.9118800E+02  0.7561462E-02  0.1125453E+00
         25   -1    0    0    0    0  0.00000000000E+00  0.00000000000E+00  0.99999998245E-14  0.12509000000E+03  0.12509000000E+03 0.  0.
        -13    1    3    3    0    0  0.36950317485E+02  0.29420100793E+02  0.17835830458E+02  0.50487585653E+02  0.10566000000E+00 0.  1.
         23    2    1    0    0    0 -0.14848089717E+01  0.83077135404E+01  0.28289567300E+02  0.95568442114E+02  0.90894470394E+02 0.  0.
         13    1    3    3    0    0 -0.38435126457E+02 -0.21112387252E+02  0.10453736842E+02  0.45080856461E+02  0.10566000000E+00 0. -1.
         22    1    1    0    0    0  0.14848089717E+01 -0.83077135404E+01 -0.28289567300E+02  0.29521557886E+02  0.00000000000E+00 0.  1.
</event>
<event>
 5    1  0.1250806E-009  0.9118800E+02  0.7561462E-02  0.1125453E+00
         25   -1    0    0    0    0  0.00000000000E+00  0.00000000000E+00  0.99999998245E-14  0.12509000000E+03  0.12509000000E+03 0.  0.
        -13    1    3    3    0    0 -0.18056006242E+02  0.20571299374E+02 -0.21113704711E+02  0.34568734573E+02  0.10566000000E+00 0. -1.
         23    2    1    0    0    0  0.19023588030E+02 -0.23036233306E+02 -0.11468128839E+01  0.95192171881E+02  0.90375159537E+02 0.  0.
         13    1    3    3    0    0  0.37079594272E+02 -0.43607532679E+02  0.19966891827E+02  0.60623437308E+02  0.10566000000E+00 0.  1.
         22    1    1    0    0    0 -0.19023588030E+02  0.23036233306E+02  0.11468128839E+01  0.29897828119E+02  0.00000000000E+00 0.  1.
</event>
<event>
 5    1  0.1250806E-009  0.9118800E+02  0.7561462E-02  0.1125453E+00
         25   -1    0    0    0    0  0.00000000000E+00  0.00000000000E+00  0.99999998245E-14  0.12509000000E+03  0.12509000000E+03 0.  0.
        -13    1    3    3    0    0 -0.24438622137E+02 -0.13427803148E+02  0.21611013002E+02  0.35278877481E+02  0.10566000000E+00 0.  1.
         23    2    1    0    0    0  0.37872533138E+01  0.36701013799E+01 -0.28953838265E+02  0.95659782840E+02  0.91020087733E+02 0.  0.
         13    1    3    3    0    0  0.28225875451E+02  0.17097904528E+02 -0.50564851267E+02  0.60380905359E+02  0.10566000000E+00 0. -1.
         22    1    1    0    0    0 -0.37872533138E+01 -0.36701013799E+01  0.28953838265E+02  0.29430217160E+02  0.00000000000E+00 0. -1.
</event>
<event>
 5    1  0.1250806E-009  0.9118800E+02  0.7561462E-02  0.1125453E+00
         25   -1    0    0    0    0  0.00000000000E+00  0.00000000000E+00  0.99999998245E-14  0.12509000000E+03  0.12509000000E+03 0.  0.
        -13    1    3    3    0    0 -0.18308225350E+02 -0.34120887459E+01 -0.36994566742E+02  0.41417901897E+02  0.10566000000E+00 0.  1.
         23    2    1    0    0    0 -0.19237526767E+02  0.65944608889E+01  0.18368717454E+02  0.97686001543E+02  0.93763403127E+02 0.  0.
         13    1    3    3    0    0 -0.92930141724E+00  0.10006549635E+02  0.55363284196E+02  0.56268099646E+02  0.10566000000E+00 0. -1.
         22    1    1    0    0    0  0.19237526767E+02 -0.65944608889E+01 -0.18368717454E+02  0.27403998457E+02  0.00000000000E+00 0. -1.
</event>
<event>
 5    1  0.1250806E-009  0.9118800E+02  0.7561462E-02  0.1125453E+00
         25   -1    0    0    0    0  0.00000000000E+00  0.00000000000E+00  0.99999998245E-14  0.12509000000E+03  0.12509000000E+03 0.  0.
        -13    1    3    3    0    0 -0.94196549706E+01  0.59839244454E+02  0.87586250866E+01  0.61206125135E+02  0.10566000000E+00 0.  1.
         23    2    1    0    0    0  0.46186715621E+01  0.29333691963E+02  0.44977531517E+01  0.95056229098E+02  0.90186802226E+02 0.  0.
         13    1    3    3    0    0  0.14038326533E+02 -0.30505552491E+02 -0.42608719348E+01  0.33850103963E+02  0.10566000000E+00 0. -1.
         22    1    1    0    0    0 -0.46186715621E+01 -0.29333691963E+02 -0.44977531517E+01  0.30033770902E+02  0.00000000000E+00 0.  1.
</event>
<event>
 5    1  0.1250806E-009  0.9118800E+02  0.7561462E-02  0.1125453E+00
         25   -1    0    0    0    0  0.00000000000E+00  0.00000000000E+00  0.99999998245E-14  0.12509000000E+03  0.12509000000E+03 0.  0.
        -13    1    3    3    0    0  0.20400129306E+02  0.32754943786E+02 -0.58779896199E+01  0.39033492594E+02  0.10566000000E+00 0.  1.
         23    2    1    0    0    0  0.14534169178E+02 -0.17625505859E+02  0.18860112723E+02  0.95465611695E+02  0.90752843669E+02 0.  0.
         13    1    3    3    0    0 -0.58659601282E+01 -0.50380449645E+02  0.24738102343E+02  0.56432119101E+02  0.10566000000E+00 0. -1.
         22    1    1    0    0    0 -0.14534169178E+02  0.17625505859E+02 -0.18860112723E+02  0.29624388305E+02  0.00000000000E+00 0. -1.
</event>
<event>
 5    1  0.1250806E-009  0.9118800E+02  0.7561462E-02  0.1125453E+00
         25   -1    0    0    0    0  0.00000000000E+00  0.00000000000E+00  0.99999998245E-14  0.12509000000E+03  0.12509000000E+03 0.  0.
        -13    1    3    3    0    0 -0.32399912730E+01 -0.12379951412E+02 -0.49262149125E+02  0.50897261624E+02  0.10566000000E+00 0.  1.
         23    2    1    0    0    0  0.44563581101E+01 -0.29465265877E+02 -0.11324755932E+02  0.93210365157E+02  0.87589160602E+02 0.  0.
         13    1    3    3    0    0  0.76963493832E+01 -0.17085314465E+02  0.37937393193E+02  0.42313103532E+02  0.10566000000E+00 0. -1.
         22    1    1    0    0    0 -0.44563581101E+01  0.29465265877E+02  0.11324755932E+02  0.31879634843E+02  0.00000000000E+00 0.  1.
</event>
<event>
 5    1  0.1250806E-009  0.9118800E+02  0.7561462E-02  0.1125453E+00
         25   -1    0    0    0    0  0.00000000000E+00  0.00000000000E+00  0.99999998245E-14  0.12509000000E+03  0.12509000000E+03 0.  0.
        -13    1    3    3    0    0  0.12115532656E+02  0.29049003814E+02 -0.30552732126E+02  0.43864693758E+02  0.10566000000E+00 0.  1.
         23    2    1    0    0    0  0.24819269397E+02 -0.15065792694E+02 -0.82288441646E+01  0.94912390433E+02  0.89987075398E+02 0.  0.
         13    1    3    3    0    0  0.12703736741E+02 -0.44114796508E+02  0.22323887961E+02  0.51047696675E+02  0.10566000000E+00 0. -1.
         22    1    1    0    0    0 -0.24819269397E+02  0.15065792694E+02  0.82288441646E+01  0.30177609567E+02  0.00000000000E+00 0. -1.
</event>
<event>
 5    1  0.1250806E-009  0.9118800E+02  0.7561462E-02  0.1125453E+00
         25   -1    0    0    0    0  0.00000000000E+00  0.00000000000E+00  0.99999998245E-14  0.12509000000E+03  0.12509000000E+03 0.  0.
        -13    1    3    3    0    0  0.44478904352E+02 -0.21400817035E+01 -0.19582652248E+02  0.48646113052E+02  0.10566000000E+00 0.  1.
         23    2    1    0    0    0  0.21283611684E+02  0.17083797047E+02  0.14541480112E+02  0.94165852611E+02  0.88943267909E+02 0.  0.
         13    1    3    3    0    0 -0.23195292667E+02  0.19223878751E+02  0.34124132360E+02  0.45519739559E+02  0.10566000000E+00 0. -1.
         22    1    1    0    0    0 -0.21283611684E+02 -0.17083797047E+02 -0.14541480112E+02  0.30924147389E+02  0.00000000000E+00 0.  1.
</event>
<event>
 5    1  0.1250806E-009  0.9118800E+02  0.7561462E-02  0.1125453E+00
         25   -1    0    0    0    0  0.00000000000E+00  0.00000000000E+00  0.99999998245E-14  0.12509000000E+03  0.12509000000E+03 0.  0.
        -13    1    3    3    0    0 -0.96173720732E+00  0.23217281527E+02 -0.30266394958E+02  0.38157999525E+02  0.10566000000E+00 0.  1.
         23    2    1    0    0    0 -0.25734850422E+02 -0.68862887434E+01  0.12184982078E+02  0.95795336883E+02  0.91206191026E+02 0.  0.
         13    1    3    3    0    0 -0.24773113214E+02 -0.30103570271E+02  0.42451377036E+02  0.57637337358E+02  0.10566000000E+00 0. -1.
         22    1    1    0    0    0  0.25734850422E+02  0.68862887434E+01 -0.12184982078E+02  0.29294663117E+02  0.00000000000E+00 0. -1.
</event>
<event>
 5    1  0.1250806E-009  0.9118800E+02  0.7561462E-02  0.1125453E+00
         25   -1    0    0    0    0  0.00000000000E+00  0.00000000000E+00  0.99999998245E-14  0.12509000000E+03  0.12509000000E+03 0.  0.
        -13    1    3    3    0    0 -0.16913064158E+02  0.30391527656E+02 -0.17939309117E+02  0.39134724582E+02  0.10566000000E+00 0. -1.
         23    2    1    0    0    0  0.29022300512E+02  0.15857420897E+01 -0.74932830454E+00  0.96014752832E+02  0.91506626883E+02 0.  0.
         13    1    3    3    0    0  0.45935364670E+02 -0.28805785566E+02  0.17189980812E+02  0.56880028250E+02  0.10566000000E+00 0.  1.
         22    1    1    0    0    0 -0.29022300512E+02 -0.15857420897E+01  0.74932830454E+00  0.29075247168E+02  0.00000000000E+00 0.  1.
</event>
<event>
 5    1  0.1250806E-009  0.9118800E+02  0.7561462E-02  0.1125453E+00
         25   -1    0    0    0    0  0.00000000000E+00  0.00000000000E+00  0.99999998245E-14  0.12509000000E+03  0.12509000000E+03 0.  0.
        -13    1    3    3    0    0 -0.50152282452E+02 -0.10864921269E+02 -0.25787771766E+02  0.57430987159E+02  0.10566000000E+00 0. -1.
         23    2    1    0    0    0 -0.28171389919E+02 -0.74903054517E+01  0.51055120387E+01  0.95496113150E+02  0.90794875890E+02 0.  0.
         13    1    3    3    0    0  0.21980892533E+02  0.33746158174E+01  0.30893283805E+02  0.38065125991E+02  0.10566000000E+00 0.  1.
         22    1    1    0    0    0  0.28171389919E+02  0.74903054517E+01 -0.51055120387E+01  0.29593886850E+02  0.00000000000E+00 0.  1.
</event>
<event>
 5    1  0.1250806E-009  0.9118800E+02  0.7561462E-02  0.1125453E+00
         25   -1    0    0    0    0  0.00000000000E+00  0.00000000000E+00  0.99999998245E-14  0.12509000000E+03  0.12509000000E+03 0.  0.
        -13    1    3    3    0    0  0.11312081714E+01 -0.36704560877E+02  0.10268487073E+02  0.38130793486E+02  0.10566000000E+00 0.  1.
         23    2    1    0    0    0  0.20375450105E+02  0.17690197137E+02 -0.46069084021E+01  0.97716186843E+02  0.93803664771E+02 0.  0.
         13    1    3    3    0    0  0.19244241933E+02  0.54394758014E+02 -0.14875395475E+02  0.59585393357E+02  0.10566000000E+00 0. -1.
         22    1    1    0    0    0 -0.20375450105E+02 -0.17690197137E+02  0.46069084021E+01  0.27373813157E+02  0.00000000000E+00 0. -1.
</event>
<event>
 5    1  0.1250806E-009  0.9118800E+02  0.7561462E-02  0.1125453E+00
         25   -1    0    0    0    0  0.00000000000E+00  0.00000000000E+00  0.99999998245E-14  0.12509000000E+03  0.12509000000E+03 0.  0.
        -13    1    3    3    0    0 -0.10055927134E+02  0.53683096190E+01 -0.55854114075E+02  0.57005557991E+02  0.10566000000E+00 0.  1.
         23    2    1    0    0    0  0.89072285398E+01 -0.10579845687E+02 -0.24352834954E+02  0.97084064463E+02  0.92956888649E+02 0.  0.
         13    1    3    3    0    0  0.18963155674E+02 -0.15948155306E+02  0.31501279121E+02  0.40078506472E+02  0.10566000000E+00 0. -1.
         22    1    1    0    0    0 -0.89072285398E+01  0.10579845687E+02  0.24352834954E+02  0.28005935537E+02  0.00000000000E+00 0.  1.
</event>
<event>
 5    1  0.1250806E-009  0.9118800E+02  0.7561462E-02  0.1125453E+00
         25   -1    0    0    0    0  0.00000000000E+00  0.00000000000E+00  0.99999998245E-14  0.12509000000E+03  0.12509000000E+03 0.  0.
        -13    1    3    3    0    0  0.32287036916E+02  0.76795790994E+01  0.87842255401E+01  0.34330780218E+02  0.10566000000E+00 0.  1.
         23    2    1    0    0    0 -0.27971889851E+02  0.82429843031E+01 -0.31380624740E+01  0.95760478215E+02  0.91158369555E+02 0.  0.
         13    1    3    3    0    0 -0.60258926767E+02  0.56340520369E+00 -0.11922288014E+02  0.61429697997E+02  0.10566000000E+00 0. -1.
         22    1    1    0    0    0  0.27971889851E+02 -0.82429843031E+01  0.31380624740E+01  0.29329521785E+02  0.00000000000E+00 0. -1.
</event>
<event>
 5    1  0.1250806E-009  0.9118800E+02  0.7561462E-02  0.1125453E+00
         25   -1    0    0    0    0  0.00000000000E+00  0.00000000000E+00  0.99999998245E-14  0.12509000000E+03  0.12509000000E+03 0.  0.
        -13    1    3    3    0    0  0.22573334122E+02  0.11360878677E+02 -0.57564485705E+01  0.25918581016E+02  0.10566000000E+00 0.  1.
         23    2    1    0    0    0 -0.15385441680E+02  0.82646611266E+01 -0.42686754121E+02  0.78968688043E+02  0.64100532561E+02 0.  0.
         13    1    3    3    0    0 -0.37958775802E+02 -0.30962175502E+01 -0.36930305551E+02  0.53050107027E+02  0.10566000000E+00 0. -1.
         22    1    1    0    0    0  0.15385441680E+02 -0.82646611266E+01  0.42686754121E+02  0.46121311957E+02  0.00000000000E+00 0. -1.
</event>
<event>
 5    1  0.1250806E-009  0.9118800E+02  0.7561462E-02  0.1125453E+00
         25   -1    0    0    0    0  0.00000000000E+00  0.00000000000E+00  0.99999998245E-14  0.12509000000E+03  0.12509000000E+03 0.  0.
        -13    1    3    3    0    0 -0.49568555823E+02 -0.26795372059E+02  0.27040716337E+02  0.62499961554E+02  0.10566000000E+00 0.  1.
         23    2    1    0    0    0 -0.23290769275E+02 -0.10803851318E+02  0.12931274998E+02  0.96342808663E+02  0.91953987250E+02 0.  0.
         13    1    3    3    0    0  0.26277786549E+02  0.15991520741E+02 -0.14109441339E+02  0.33842847109E+02  0.10566000000E+00 0. -1.
         22    1    1    0    0    0  0.23290769275E+02  0.10803851318E+02 -0.12931274998E+02  0.28747191337E+02  0.00000000000E+00 0.  1.
</event>
<event>
 5    1  0.1250806E-009  0.9118800E+02  0.7561462E-02  0.1125453E+00
         25   -1    0    0    0    0  0.00000000000E+00  0.00000000000E+00  0.99999998245E-14  0.12509000000E+03  0.12509000000E+03 0.  0.
        -13    1    3    3    0    0 -0.32459208787E+02  0.14183301129E+01 -0.23689301420E+02  0.40209526996E+02  0.10566000000E+00 0.  1.
         23    2    1    0    0    0 -0.87591633304E+01  0.10452152207E+02  0.25849495040E+02  0.95863867484E+02  0.91300132897E+02 0.  0.
         13    1    3    3    0    0  0.23700045457E+02  0.90338220945E+01  0.49538796461E+02  0.55654340488E+02  0.10566000000E+00 0. -1.
         22    1    1    0    0    0  0.87591633304E+01 -0.10452152207E+02 -0.25849495040E+02  0.29226132516E+02  0.00000000000E+00 0. -1.
</event>
<event>
 5    1  0.1250806E-009  0.9118800E+02  0.7561462E-02  0.1125453E+00
         25   -1    0    0    0    0  0.00000000000E+00  0.00000000000E+00  0.99999998245E-14  0.12509000000E+03  0.12509000000E+03 0.  0.
        -13    1    3    3    0    0 -0.62319990316E+01  0.37951437480E+02  0.15821047858E+02  0.41586850543E+02  0.10566000000E+00 0.  1.
         23    2    1    0    0    0  0.38698485825E+01 -0.13693858236E+02  0.26246843876E+02  0.95233772929E+02  0.90432722017E+02 0.  0.
         13    1    3    3    0    0  0.10101847614E+02 -0.51645295717E+02  0.10425796018E+02  0.53646922386E+02  0.10566000000E+00 0. -1.
         22    1    1    0    0    0 -0.38698485825E+01  0.13693858236E+02 -0.26246843876E+02  0.29856227071E+02  0.00000000000E+00 0.  1.
</event>
<event>
 5    1  0.1250806E-009  0.9118800E+02  0.7561462E-02  0.1125453E+00
         25   -1    0    0    0    0  0.00000000000E+00  0.00000000000E+00  0.99999998245E-14  0.12509000000E+03  0.12509000000E+03 0.  0.
        -13    1    3    3    0    0 -0.16947937311E+02 -0.43914710878E+02 -0.19464245794E+02  0.50937240198E+02  0.10566000000E+00 0.  1.
         23    2    1    0    0    0 -0.16112246541E+02 -0.15713225911E+02  0.16887157939E+02  0.96953083674E+02  0.92780463318E+02 0.  0.
         13    1    3    3    0    0  0.83569077073E+00  0.28201484968E+02  0.36351403732E+02  0.46015843476E+02  0.10566000000E+00 0. -1.
         22    1    1    0    0    0  0.16112246541E+02  0.15713225911E+02 -0.16887157939E+02  0.28136916326E+02  0.00000000000E+00 0. -1.
</event>
<event>
 5    1  0.1250806E-009  0.9118800E+02  0.7561462E-02  0.1125453E+00
         25   -1    0    0    0    0  0.00000000000E+00  0.00000000000E+00  0.99999998245E-14  0.12509000000E+03  0.12509000000E+03 0.  0.
        -13    1    3    3    0    0 -0.28019853972E+02 -0.52763581014E+01 -0.23128711281E+02  0.36713766096E+02  0.10566000000E+00 0.  1.
         23    2    1    0    0    0 -0.54901807206E+01  0.21659666659E+02  0.21890693507E+02  0.93809243834E+02  0.88440310506E+02 0.  0.
         13    1    3    3    0    0  0.22529673251E+02  0.26936024760E+02  0.45019404787E+02  0.57095477738E+02  0.10566000000E+00 0. -1.
         22    1    1    0    0    0  0.54901807206E+01 -0.21659666659E+02 -0.21890693507E+02  0.31280756166E+02  0.00000000000E+00 0. -1.
</event>
<event>
 5    1  0.1250806E-009  0.9118800E+02  0.7561462E-02  0.1125453E+00
         25   -1    0    0    0    0  0.00000000000E+00  0.00000000000E+00  0.99999998245E-14  0.12509000000E+03  0.12509000000E+03 0.  0.
        -13    1    3    3    0    0  0.35680405690E+02  0.21268805123E+02  0.32290215685E+02  0.52612951016E+02  0.10566000000E+00 0.  1.
         23    2    1    0    0    0  0.46213513243E+01 -0.90531455711E+01  0.26876769212E+02  0.96355403151E+02  0.91971118621E+02 0.  0.
         13    1    3    3    0    0 -0.31059054366E+02 -0.30321950694E+02 -0.54134464733E+01  0.43742452135E+02  0.10566000000E+00 0. -1.
         22    1    1    0    0    0 -0.46213513243E+01  0.90531455711E+01 -0.26876769212E+02  0.28734596849E+02  0.00000000000E+00 0. -1.
</event>
<event>
 5    1  0.1250806E-009  0.9118800E+02  0.7561462E-02  0.1125453E+00
         25   -1    0    0    0    0  0.00000000000E+00  0.00000000000E+00  0.99999998245E-14  0.12509000000E+03  0.12509000000E+03 0.  0.
        -13    1    3    3    0    0  0.41527723082E+02 -0.27387509293E+02 -0.13566670290E+02  0.51562516971E+02  0.10566000000E+00 0.  1.
         23    2    1    0    0    0  0.78988752661E+01 -0.14812469383E+01 -0.27655934295E+02  0.96290051655E+02  0.91882191000E+02 0.  0.
         13    1    3    3    0    0 -0.33628847816E+02  0.25906262355E+02 -0.14089264005E+02  0.44727534683E+02  0.10566000000E+00 0. -1.
         22    1    1    0    0    0 -0.78988752661E+01  0.14812469383E+01  0.27655934295E+02  0.28799948345E+02  0.00000000000E+00 0.  1.
</event>
<event>
 5    1  0.1250806E-009  0.9118800E+02  0.7561462E-02  0.1125453E+00
         25   -1    0    0    0    0  0.00000000000E+00  0.00000000000E+00  0.99999998245E-14  0.12509000000E+03  0.12509000000E+03 0.  0.
        -13    1    3    3    0    0 -0.42530563402E+02  0.21661719739E+02  0.70966702901E+00  0.47734617592E+02  0.10566000000E+00 0.  1.
         23    2    1    0    0    0 -0.14744941537E+02 -0.10955873593E+02 -0.22161764475E+02  0.96304790746E+02  0.91902254863E+02 0.  0.
         13    1    3    3    0    0  0.27785621865E+02 -0.32617593331E+02 -0.22871431504E+02  0.48570173154E+02  0.10566000000E+00 0. -1.
         22    1    1    0    0    0  0.14744941537E+02  0.10955873593E+02  0.22161764475E+02  0.28785209254E+02  0.00000000000E+00 0. -1.
</event>
<event>
 5    1  0.1250806E-009  0.9118800E+02  0.7561462E-02  0.1125453E+00
         25   -1    0    0    0    0  0.00000000000E+00  0.00000000000E+00  0.99999998245E-14  0.12509000000E+03  0.12509000000E+03 0.  0.
        -13    1    3    3    0    0 -0.19833289332E+02 -0.31161124917E+02  0.43772083665E+02  0.57274615182E+02  0.10566000000E+00 0.  1.
         23    2    1    0    0    0 -0.28794900999E+01  0.34949635583E+00  0.28933467570E+02  0.96011500098E+02  0.91502180272E+02 0.  0.
         13    1    3    3    0    0  0.16953799232E+02  0.31510621273E+02 -0.14838616095E+02  0.38736884916E+02  0.10566000000E+00 0. -1.
         22    1    1    0    0    0  0.28794900999E+01 -0.34949635583E+00 -0.28933467570E+02  0.29078499902E+02  0.00000000000E+00 0.  1.
</event>
<event>
 5    1  0.1250806E-009  0.9118800E+02  0.7561462E-02  0.1125453E+00
         25   -1    0    0    0    0  0.00000000000E+00  0.00000000000E+00  0.99999998245E-14  0.12509000000E+03  0.12509000000E+03 0.  0.
        -13    1    3    3    0    0 -0.40254151424E+02 -0.18216281333E+02 -0.18226551249E+02  0.47795898850E+02  0.10566000000E+00 0.  1.
         23    2    1    0    0    0 -0.23668120702E+02  0.10863517133E+02  0.15061154762E+02  0.95006211594E+02  0.90117400743E+02 0.  0.
         13    1    3    3    0    0  0.16586030722E+02  0.29079798466E+02  0.33287706011E+02  0.47210312744E+02  0.10566000000E+00 0. -1.
         22    1    1    0    0    0  0.23668120702E+02 -0.10863517133E+02 -0.15061154762E+02  0.30083788406E+02  0.00000000000E+00 0. -1.
</event>
<event>
 5    1  0.1250806E-009  0.9118800E+02  0.7561462E-02  0.1125453E+00
         25   -1    0    0    0    0  0.00000000000E+00  0.00000000000E+00  0.99999998245E-14  0.12509000000E+03  0.12509000000E+03 0.  0.
        -13    1    3    3    0    0  0.12843137129E+02  0.28761494164E+02 -0.18189600679E+02  0.36373650556E+02  0.10566000000E+00 0. -1.
         23    2    1    0    0    0  0.64032765013E+01 -0.17449587657E+02  0.20812463773E+02  0.97185722413E+02  0.93093586961E+02 0.  0.
         13    1    3    3    0    0 -0.64398606274E+01 -0.46211081821E+02  0.39002064452E+02  0.60812071857E+02  0.10566000000E+00 0.  1.
         22    1    1    0    0    0 -0.64032765013E+01  0.17449587657E+02 -0.20812463773E+02  0.27904277587E+02  0.00000000000E+00 0.  1.
</event>
<event>
 5    1  0.1250806E-009  0.9118800E+02  0.7561462E-02  0.1125453E+00
         25   -1    0    0    0    0  0.00000000000E+00  0.00000000000E+00  0.99999998245E-14  0.12509000000E+03  0.12509000000E+03 0.  0.
        -13    1    3    3    0    0  0.45025936569E+02  0.23636485579E+02  0.17967948909E+01  0.50884752631E+02  0.10566000000E+00 0.  1.
         23    2    1    0    0    0  0.12127518942E+02 -0.17146661939E+02 -0.43495605960E+01  0.10364230994E+03  0.10139884123E+03 0.  0.
         13    1    3    3    0    0 -0.32898417627E+02 -0.40783147518E+02 -0.61463554869E+01  0.52757557313E+02  0.10566000000E+00 0. -1.
         22    1    1    0    0    0 -0.12127518942E+02  0.17146661939E+02  0.43495605960E+01  0.21447690055E+02  0.00000000000E+00 0.  1.
</event>
<event>
 5    1  0.1250806E-009  0.9118800E+02  0.7561462E-02  0.1125453E+00
         25   -1    0    0    0    0  0.00000000000E+00  0.00000000000E+00  0.99999998245E-14  0.12509000000E+03  0.12509000000E+03 0.  0.
        -13    1    3    3    0    0 -0.10900587729E+02 -0.13230043281E+02  0.27984909159E+02  0.32818031061E+02  0.10566000000E+00 0.  1.
         23    2    1    0    0    0  0.67340763814E+01  0.12499037124E+02 -0.26171675409E+02  0.95315341187E+02  0.90545480053E+02 0.  0.
         13    1    3    3    0    0  0.17634664111E+02  0.25729080406E+02 -0.54156584568E+02  0.62497310125E+02  0.10566000000E+00 0. -1.
         22    1    1    0    0    0 -0.67340763814E+01 -0.12499037124E+02  0.26171675409E+02  0.29774658813E+02  0.00000000000E+00 0. -1.
</event>
<event>
 5    1  0.1250806E-009  0.9118800E+02  0.7561462E-02  0.1125453E+00
         25   -1    0    0    0    0  0.00000000000E+00  0.00000000000E+00  0.99999998245E-14  0.12509000000E+03  0.12509000000E+03 0.  0.
        -13    1    3    3    0    0  0.16818825990E+00 -0.26191550873E+02 -0.28405309562E+02  0.38638043426E+02  0.10566000000E+00 0. -1.
         23    2    1    0    0    0 -0.27776648747E+02  0.67980918388E+01  0.82578047136E+01  0.95325127970E+02  0.90558999638E+02 0.  0.
         13    1    3    3    0    0 -0.27944837007E+02  0.32989642712E+02  0.36663114276E+02  0.56687084544E+02  0.10566000000E+00 0.  1.
         22    1    1    0    0    0  0.27776648747E+02 -0.67980918388E+01 -0.82578047136E+01  0.29764872030E+02  0.00000000000E+00 0.  1.
</event>
<event>
 5    1  0.1250806E-009  0.9118800E+02  0.7561462E-02  0.1125453E+00
         25   -1    0    0    0    0  0.00000000000E+00  0.00000000000E+00  0.99999998245E-14  0.12509000000E+03  0.12509000000E+03 0.  0.
        -13    1    3    3    0    0 -0.31752038444E+01  0.36648334023E+02  0.12600276259E+00  0.36785993895E+02  0.10566000000E+00 0.  1.
         23    2    1    0    0    0 -0.55310674994E+01 -0.19144943505E+02 -0.20672354633E+02  0.96376452404E+02  0.91999743273E+02 0.  0.
         13    1    3    3    0    0 -0.23558636551E+01 -0.55793277528E+02 -0.20798357395E+02  0.59590458509E+02  0.10566000000E+00 0. -1.
         22    1    1    0    0    0  0.55310674994E+01  0.19144943505E+02  0.20672354633E+02  0.28713547596E+02  0.00000000000E+00 0. -1.
</event>
<event>
 5    1  0.1250806E-009  0.9118800E+02  0.7561462E-02  0.1125453E+00
         25   -1    0    0    0    0  0.00000000000E+00  0.00000000000E+00  0.99999998245E-14  0.12509000000E+03  0.12509000000E+03 0.  0.
        -13    1    3    3    0    0 -0.30181895684E+02  0.42156876885E+02  0.20974554476E+01  0.51889879352E+02  0.10566000000E+00 0. -1.
         23    2    1    0    0    0 -0.13335150303E+02  0.10935700503E+02 -0.23717976512E+02  0.95764956285E+02  0.91164514277E+02 0.  0.
         13    1    3    3    0    0  0.16846745381E+02 -0.31221176382E+02 -0.25815431959E+02  0.43875076933E+02  0.10566000000E+00 0.  1.
         22    1    1    0    0    0  0.13335150303E+02 -0.10935700503E+02  0.23717976512E+02  0.29325043715E+02  0.00000000000E+00 0.  1.
</event>
<event>
 5    1  0.1250806E-009  0.9118800E+02  0.7561462E-02  0.1125453E+00
         25   -1    0    0    0    0  0.00000000000E+00  0.00000000000E+00  0.99999998245E-14  0.12509000000E+03  0.12509000000E+03 0.  0.
        -13    1    3    3    0    0  0.42037307757E+02  0.37862642898E+02  0.24753258586E+02  0.61753137130E+02  0.10566000000E+00 0.  1.
         23    2    1    0    0    0  0.21757622701E+02  0.21501037883E+02  0.20777004435E+02  0.88111997229E+02  0.79977192791E+02 0.  0.
         13    1    3    3    0    0 -0.20279685056E+02 -0.16361605015E+02 -0.39762541514E+01  0.26358860100E+02  0.10566000000E+00 0. -1.
         22    1    1    0    0    0 -0.21757622701E+02 -0.21501037883E+02 -0.20777004435E+02  0.36978002771E+02  0.00000000000E+00 0.  1.
</event>
<event>
 5    1  0.1250806E-009  0.9118800E+02  0.7561462E-02  0.1125453E+00
         25   -1    0    0    0    0  0.00000000000E+00  0.00000000000E+00  0.99999998245E-14  0.12509000000E+03  0.12509000000E+03 0.  0.
        -13    1    3    3    0    0  0.28100135564E+02  0.24199605956E+02 -0.39829192708E+02  0.54420715752E+02  0.10566000000E+00 0.  1.
         23    2    1    0    0    0  0.72863447851E+01 -0.10265944162E+02 -0.24578425684E+02  0.97475159081E+02  0.93481694459E+02 0.  0.
         13    1    3    3    0    0 -0.20813790779E+02 -0.34465550118E+02  0.15250767024E+02  0.43054443329E+02  0.10566000000E+00 0. -1.
         22    1    1    0    0    0 -0.72863447851E+01  0.10265944162E+02  0.24578425684E+02  0.27614840919E+02  0.00000000000E+00 0.  1.
</event>
<event>
 5    1  0.1250806E-009  0.9118800E+02  0.7561462E-02  0.1125453E+00
         25   -1    0    0    0    0  0.00000000000E+00  0.00000000000E+00  0.99999998245E-14  0.12509000000E+03  0.12509000000E+03 0.  0.
        -13    1    3    3    0    0 -0.28001144290E+02  0.49802468075E+02  0.25015299124E+01  0.57189323513E+02  0.10566000000E+00 0. -1.
         23    2    1    0    0    0  0.11891675411E+01  0.27451711170E+02 -0.97382361378E+01  0.95937919308E+02  0.91401534737E+02 0.  0.
         13    1    3    3    0    0  0.29190311831E+02 -0.22350756905E+02 -0.12239766050E+02  0.38748595794E+02  0.10566000000E+00 0.  1.
         22    1    1    0    0    0 -0.11891675411E+01 -0.27451711170E+02  0.97382361378E+01  0.29152080692E+02  0.00000000000E+00 0. -1.
</event>
<event>
 5    1  0.1250806E-009  0.9118800E+02  0.7561462E-02  0.1125453E+00
         25   -1    0    0    0    0  0.00000000000E+00  0.00000000000E+00  0.99999998245E-14  0.12509000000E+03  0.12509000000E+03 0.  0.
        -13    1    3    3    0    0 -0.94460103893E+01  0.18584029358E+02  0.56812485236E+02  0.60516633269E+02  0.10566000000E+00 0. -1.
         23    2    1    0    0    0 -0.13180837267E+02  0.14156444536E+02  0.22050654273E+02  0.95757922903E+02  0.91154863018E+02 0.  0.
         13    1    3    3    0    0 -0.37348268777E+01 -0.44275848221E+01 -0.34761830963E+02  0.35241289635E+02  0.10566000000E+00 0.  1.
         22    1    1    0    0    0  0.13180837267E+02 -0.14156444536E+02 -0.22050654273E+02  0.29332077097E+02  0.00000000000E+00 0. -1.
</event>
<event>
 5    1  0.1250806E-009  0.9118800E+02  0.7561462E-02  0.1125453E+00
         25   -1    0    0    0    0  0.00000000000E+00  0.00000000000E+00  0.99999998245E-14  0.12509000000E+03  0.12509000000E+03 0.  0.
        -13    1    3    3    0    0  0.43003542953E+02 -0.25182761485E+02  0.35709122594E+02  0.61307656806E+02  0.10566000000E+00 0. -1.
         23    2    1    0    0    0  0.24951457828E+02 -0.45105651138E+01  0.15786105358E+02  0.95221595828E+02  0.90415876616E+02 0.  0.
         13    1    3    3    0    0 -0.18052085125E+02  0.20672196372E+02 -0.19923017236E+02  0.33913939022E+02  0.10566000000E+00 0.  1.
         22    1    1    0    0    0 -0.24951457828E+02  0.45105651138E+01 -0.15786105358E+02  0.29868404172E+02  0.00000000000E+00 0. -1.
</event>
<event>
 5    1  0.1250806E-009  0.9118800E+02  0.7561462E-02  0.1125453E+00
         25   -1    0    0    0    0  0.00000000000E+00  0.00000000000E+00  0.99999998245E-14  0.12509000000E+03  0.12509000000E+03 0.  0.
        -13    1    3    3    0    0 -0.34880943438E+01 -0.38291111865E+02 -0.89045277800E+01  0.39467427443E+02  0.10566000000E+00 0.  1.
         23    2    1    0    0    0 -0.17495717990E+01  0.24540197188E+01  0.29470366719E+02  0.95465926532E+02  0.90753277626E+02 0.  0.
         13    1    3    3    0    0  0.17385225448E+01  0.40745131583E+02  0.38374894499E+02  0.55998499089E+02  0.10566000000E+00 0. -1.
         22    1    1    0    0    0  0.17495717990E+01 -0.24540197188E+01 -0.29470366719E+02  0.29624073468E+02  0.00000000000E+00 0. -1.
</event>
<event>
 5    1  0.1250806E-009  0.9118800E+02  0.7561462E-02  0.1125453E+00
         25   -1    0    0    0    0  0.00000000000E+00  0.00000000000E+00  0.99999998245E-14  0.12509000000E+03  0.12509000000E+03 0.  0.
        -13    1    3    3    0    0 -0.29312068771E+02  0.33563154553E+02 -0.11157665215E+02  0.45936775858E+02  0.10566000000E+00 0.  1.
         23    2    1    0    0    0 -0.43820652441E+01  0.15783913888E+02  0.26169438365E+02  0.94216484849E+02  0.89014448712E+02 0.  0.
         13    1    3    3    0    0  0.24930003527E+02 -0.17779240664E+02  0.37327103580E+02  0.48279708990E+02  0.10566000000E+00 0. -1.
         22    1    1    0    0    0  0.43820652441E+01 -0.15783913888E+02 -0.26169438365E+02  0.30873515151E+02  0.00000000000E+00 0. -1.
</event>
<event>
 5    1  0.1250806E-009  0.9118800E+02  0.7561462E-02  0.1125453E+00
         25   -1    0    0    0    0  0.00000000000E+00  0.00000000000E+00  0.99999998245E-14  0.12509000000E+03  0.12509000000E+03 0.  0.
        -13    1    3    3    0    0  0.20320149196E+02  0.36264762411E+02  0.16534447530E+02  0.44737462771E+02  0.10566000000E+00 0.  1.
         23    2    1    0    0    0  0.24396189174E+01  0.79908917774E+01 -0.25382733866E+02  0.98367551190E+02  0.94668293830E+02 0.  0.
         13    1    3    3    0    0 -0.17880530278E+02 -0.28273870633E+02 -0.41917181396E+02  0.53630088419E+02  0.10566000000E+00 0. -1.
         22    1    1    0    0    0 -0.24396189174E+01 -0.79908917774E+01  0.25382733866E+02  0.26722448810E+02  0.00000000000E+00 0. -1.
</event>
<event>
 5    1  0.1250806E-009  0.9118800E+02  0.7561462E-02  0.1125453E+00
         25   -1    0    0    0    0  0.00000000000E+00  0.00000000000E+00  0.99999998245E-14  0.12509000000E+03  0.12509000000E+03 0.  0.
        -13    1    3    3    0    0  0.22595092911E+02  0.22871914014E+02  0.21412603303E+02  0.38628660585E+02  0.10566000000E+00 0.  1.
         23    2    1    0    0    0  0.29133463326E+01 -0.28042138550E+02  0.10870693500E+01  0.96875981480E+02  0.92676453032E+02 0.  0.
         13    1    3    3    0    0 -0.19681746578E+02 -0.50914052564E+02 -0.20325533954E+02  0.58247320895E+02  0.10566000000E+00 0. -1.
         22    1    1    0    0    0 -0.29133463326E+01  0.28042138550E+02 -0.10870693500E+01  0.28214018520E+02  0.00000000000E+00 0. -1.
</event>
<event>
 5    1  0.1250806E-009  0.9118800E+02  0.7561462E-02  0.1125453E+00
         25   -1    0    0    0    0  0.00000000000E+00  0.00000000000E+00  0.99999998245E-14  0.12509000000E+03  0.12509000000E+03 0.  0.
        -13    1    3    3    0    0  0.33789496580E+02 -0.19898228850E+02 -0.99312315210E+01  0.40451330189E+02  0.10566000000E+00 0. -1.
         23    2    1    0    0    0  0.43203440270E+01  0.27636229158E+02 -0.57309519449E+01  0.96537060663E+02  0.92217860183E+02 0.  0.
         13    1    3    3    0    0 -0.29469152553E+02  0.47534458007E+02  0.42002795762E+01  0.56085730474E+02  0.10566000000E+00 0.  1.
         22    1    1    0    0    0 -0.43203440270E+01 -0.27636229158E+02  0.57309519449E+01  0.28552939337E+02  0.00000000000E+00 0.  1.
</event>
<event>
 5    1  0.1250806E-009  0.9118800E+02  0.7561462E-02  0.1125453E+00
         25   -1    0    0    0    0  0.00000000000E+00  0.00000000000E+00  0.99999998245E-14  0.12509000000E+03  0.12509000000E+03 0.  0.
        -13    1    3    3    0    0 -0.10558715210E+02  0.38804864934E+02 -0.30289875173E+02  0.50346715002E+02  0.10566000000E+00 0.  1.
         23    2    1    0    0    0 -0.23167807866E+02 -0.27174942762E+01 -0.18509075468E+02  0.95312189955E+02  0.90541126472E+02 0.  0.
         13    1    3    3    0    0 -0.12609092655E+02 -0.41522359211E+02  0.11780799705E+02  0.44965474953E+02  0.10566000000E+00 0. -1.
         22    1    1    0    0    0  0.23167807866E+02  0.27174942762E+01  0.18509075468E+02  0.29777810045E+02  0.00000000000E+00 0. -1.
</event>
<event>
 5    1  0.1250806E-009  0.9118800E+02  0.7561462E-02  0.1125453E+00
         25   -1    0    0    0    0  0.00000000000E+00  0.00000000000E+00  0.99999998245E-14  0.12509000000E+03  0.12509000000E+03 0.  0.
        -13    1    3    3    0    0 -0.35985132215E+01 -0.52966593337E+01  0.20978701054E+02  0.21934469665E+02  0.10566000000E+00 0. -1.
         23    2    1    0    0    0  0.46136567887E+02  0.13116993193E+02  0.98221119227E+01  0.76129686588E+02  0.58297657676E+02 0.  0.
         13    1    3    3    0    0  0.49735081108E+02  0.18413652527E+02 -0.11156589132E+02  0.54195216923E+02  0.10566000000E+00 0.  1.
         22    1    1    0    0    0 -0.46136567887E+02 -0.13116993193E+02 -0.98221119227E+01  0.48960313412E+02  0.00000000000E+00 0.  1.
</event>
<event>
 5    1  0.1250806E-009  0.9118800E+02  0.7561462E-02  0.1125453E+00
         25   -1    0    0    0    0  0.00000000000E+00  0.00000000000E+00  0.99999998245E-14  0.12509000000E+03  0.12509000000E+03 0.  0.
        -13    1    3    3    0    0 -0.32829329940E+02  0.19034209220E+02  0.13422397028E+02  0.40252179207E+02  0.10566000000E+00 0. -1.
         23    2    1    0    0    0 -0.90303199861E+01 -0.13128453358E+02 -0.24817305048E+02  0.95597601039E+02  0.90934590382E+02 0.  0.
         13    1    3    3    0    0  0.23799009953E+02 -0.32162662578E+02 -0.38239702076E+02  0.55345421832E+02  0.10566000000E+00 0.  1.
         22    1    1    0    0    0  0.90303199861E+01  0.13128453358E+02  0.24817305048E+02  0.29492398961E+02  0.00000000000E+00 0.  1.
</event>
<event>
 5    1  0.1250806E-009  0.9118800E+02  0.7561462E-02  0.1125453E+00
         25   -1    0    0    0    0  0.00000000000E+00  0.00000000000E+00  0.99999998245E-14  0.12509000000E+03  0.12509000000E+03 0.  0.
        -13    1    3    3    0    0  0.20548533602E+02 -0.16013388639E+02  0.16837890232E+02  0.31019293358E+02  0.10566000000E+00 0.  1.
         23    2    1    0    0    0 -0.97776539068E+01  0.19979784840E+02 -0.23300677096E+02  0.92876402385E+02  0.87110907747E+02 0.  0.
         13    1    3    3    0    0 -0.30326187509E+02  0.35993173479E+02 -0.40138567328E+02  0.61857109027E+02  0.10566000000E+00 0. -1.
         22    1    1    0    0    0  0.97776539068E+01 -0.19979784840E+02  0.23300677096E+02  0.32213597615E+02  0.00000000000E+00 0. -1.
</event>
<event>
 5    1  0.1250806E-009  0.9118800E+02  0.7561462E-02  0.1125453E+00
         25   -1    0    0    0    0  0.00000000000E+00  0.00000000000E+00  0.99999998245E-14  0.12509000000E+03  0.12509000000E+03 0.  0.
        -13    1    3    3    0    0  0.47822603913E+02  0.19013652745E+02  0.21284610347E+02  0.55691707079E+02  0.10566000000E+00 0. -1.
         23    2    1    0    0    0  0.27339058489E+02 -0.67422791369E+01 -0.32579031411E+01  0.96743988290E+02  0.92498123712E+02 0.  0.
         13    1    3    3    0    0 -0.20483545424E+02 -0.25755931882E+02 -0.24542513488E+02  0.41052281210E+02  0.10566000000E+00 0.  1.
         22    1    1    0    0    0 -0.27339058489E+02  0.67422791369E+01  0.32579031411E+01  0.28346011710E+02  0.00000000000E+00 0. -1.
</event>
<event>
 5    1  0.1250806E-009  0.9118800E+02  0.7561462E-02  0.1125453E+00
         25   -1    0    0    0    0  0.00000000000E+00  0.00000000000E+00  0.99999998245E-14  0.12509000000E+03  0.12509000000E+03 0.  0.
        -13    1    3    3    0    0  0.15010747510E+02  0.41462105403E+02  0.31419988682E+02  0.54144765011E+02  0.10566000000E+00 0. -1.
         23    2    1    0    0    0 -0.35652769105E+01  0.39273278030E+01  0.28471647237E+02  0.96128477258E+02  0.91661956888E+02 0.  0.
         13    1    3    3    0    0 -0.18576024421E+02 -0.37534777600E+02 -0.29483414453E+01  0.41983712247E+02  0.10566000000E+00 0.  1.
         22    1    1    0    0    0  0.35652769105E+01 -0.39273278030E+01 -0.28471647237E+02  0.28961522742E+02  0.00000000000E+00 0. -1.
</event>
<event>
 5    1  0.1250806E-009  0.9118800E+02  0.7561462E-02  0.1125453E+00
         25   -1    0    0    0    0  0.00000000000E+00  0.00000000000E+00  0.99999998245E-14  0.12509000000E+03  0.12509000000E+03 0.  0.
        -13    1    3    3    0    0  0.36073624302E+02  0.10601211578E+02  0.36208941723E+02  0.52199527603E+02  0.10566000000E+00 0. -1.
         23    2    1    0    0    0 -0.54883173093E+01  0.15852666488E+02  0.23950387322E+02  0.95848766877E+02  0.91279441263E+02 0.  0.
         13    1    3    3    0    0 -0.41561941612E+02  0.52514549096E+01 -0.12258554400E+02  0.43649239274E+02  0.10566000000E+00 0.  1.
         22    1    1    0    0    0  0.54883173093E+01 -0.15852666488E+02 -0.23950387322E+02  0.29241233123E+02  0.00000000000E+00 0. -1.
</event>
<event>
 5    1  0.1250806E-009  0.9118800E+02  0.7561462E-02  0.1125453E+00
         25   -1    0    0    0    0  0.00000000000E+00  0.00000000000E+00  0.99999998245E-14  0.12509000000E+03  0.12509000000E+03 0.  0.
        -13    1    3    3    0    0 -0.52037933717E+01  0.17625139522E+02  0.31702485893E+02  0.36644014306E+02  0.10566000000E+00 0. -1.
         23    2    1    0    0    0 -0.20074553487E+02 -0.19085552103E+02 -0.11359679605E+02  0.95151925287E+02  0.90319436271E+02 0.  0.
         13    1    3    3    0    0 -0.14870760115E+02 -0.36710691625E+02 -0.43062165498E+02  0.58507910981E+02  0.10566000000E+00 0.  1.
         22    1    1    0    0    0  0.20074553487E+02  0.19085552103E+02  0.11359679605E+02  0.29938074713E+02  0.00000000000E+00 0.  1.
</event>
<event>
 5    1  0.1250806E-009  0.9118800E+02  0.7561462E-02  0.1125453E+00
         25   -1    0    0    0    0  0.00000000000E+00  0.00000000000E+00  0.99999998245E-14  0.12509000000E+03  0.12509000000E+03 0.  0.
        -13    1    3    3    0    0 -0.84696636167E+01  0.23596005410E+02  0.24470618953E+02  0.35033256044E+02  0.10566000000E+00 0. -1.
         23    2    1    0    0    0  0.92520472728E+01  0.12488745777E+01 -0.28448397675E+02  0.95148867812E+02  0.90315201650E+02 0.  0.
         13    1    3    3    0    0  0.17721710889E+02 -0.22347130832E+02 -0.52919016628E+02  0.60115611768E+02  0.10566000000E+00 0.  1.
         22    1    1    0    0    0 -0.92520472728E+01 -0.12488745777E+01  0.28448397675E+02  0.29941132188E+02  0.00000000000E+00 0.  1.
</event>
<event>
 5    1  0.1250806E-009  0.9118800E+02  0.7561462E-02  0.1125453E+00
         25   -1    0    0    0    0  0.00000000000E+00  0.00000000000E+00  0.99999998245E-14  0.12509000000E+03  0.12509000000E+03 0.  0.
        -13    1    3    3    0    0 -0.36120066685E+00  0.29091031198E+02  0.14180714410E+02  0.32365450519E+02  0.10566000000E+00 0.  1.
         23    2    1    0    0    0 -0.11559278781E+02 -0.20781961517E+02 -0.20134612196E+02  0.93930579936E+02  0.88611762133E+02 0.  0.
         13    1    3    3    0    0 -0.11198078115E+02 -0.49872992716E+02 -0.34315326607E+02  0.61565129416E+02  0.10566000000E+00 0. -1.
         22    1    1    0    0    0  0.11559278781E+02  0.20781961517E+02  0.20134612196E+02  0.31159420064E+02  0.00000000000E+00 0. -1.
</event>
<event>
 5    1  0.1250806E-009  0.9118800E+02  0.7561462E-02  0.1125453E+00
         25   -1    0    0    0    0  0.00000000000E+00  0.00000000000E+00  0.99999998245E-14  0.12509000000E+03  0.12509000000E+03 0.  0.
        -13    1    3    3    0    0  0.34954181790E+02  0.56673403579E+01 -0.82248389543E+01  0.36353441532E+02  0.10566000000E+00 0. -1.
         23    2    1    0    0    0  0.69289279355E+01 -0.24341573066E+02  0.25257169653E+02  0.89334625012E+02  0.81867138618E+02 0.  0.
         13    1    3    3    0    0 -0.28025253855E+02 -0.30008913424E+02  0.33482008608E+02  0.52981183480E+02  0.10566000000E+00 0.  1.
         22    1    1    0    0    0 -0.69289279355E+01  0.24341573066E+02 -0.25257169653E+02  0.35755374988E+02  0.00000000000E+00 0.  1.
</event>
<event>
 5    1  0.1250806E-009  0.9118800E+02  0.7561462E-02  0.1125453E+00
         25   -1    0    0    0    0  0.00000000000E+00  0.00000000000E+00  0.99999998245E-14  0.12509000000E+03  0.12509000000E+03 0.  0.
        -13    1    3    3    0    0 -0.15768316228E+02  0.20791375639E+02  0.38143929401E+02  0.46215707415E+02  0.10566000000E+00 0.  1.
         23    2    1    0    0    0 -0.28304828717E+02 -0.50824408935E+00 -0.53860880469E+01  0.96272790121E+02  0.91858687845E+02 0.  0.
         13    1    3    3    0    0 -0.12536512489E+02 -0.21299619729E+02 -0.43530017448E+02  0.50057082706E+02  0.10566000000E+00 0. -1.
         22    1    1    0    0    0  0.28304828717E+02  0.50824408935E+00  0.53860880469E+01  0.28817209879E+02  0.00000000000E+00 0. -1.
</event>
<event>
 5    1  0.1250806E-009  0.9118800E+02  0.7561462E-02  0.1125453E+00
         25   -1    0    0    0    0  0.00000000000E+00  0.00000000000E+00  0.99999998245E-14  0.12509000000E+03  0.12509000000E+03 0.  0.
        -13    1    3    3    0    0 -0.12787952772E+02  0.55922124366E+01 -0.47091803784E+02  0.49116735679E+02  0.10566000000E+00 0.  1.
         23    2    1    0    0    0 -0.36034361829E+00 -0.20640897252E+02 -0.41585236805E+02  0.78662546839E+02  0.63500298174E+02 0.  0.
         13    1    3    3    0    0  0.12427609154E+02 -0.26233109688E+02  0.55065669793E+01  0.29545811160E+02  0.10566000000E+00 0. -1.
         22    1    1    0    0    0  0.36034361829E+00  0.20640897252E+02  0.41585236805E+02  0.46427453161E+02  0.00000000000E+00 0.  1.
</event>
<event>
 5    1  0.1250806E-009  0.9118800E+02  0.7561462E-02  0.1125453E+00
         25   -1    0    0    0    0  0.00000000000E+00  0.00000000000E+00  0.99999998245E-14  0.12509000000E+03  0.12509000000E+03 0.  0.
        -13    1    3    3    0    0  0.41356815393E+02 -0.52292826332E+01 -0.40600666650E+02  0.58190694040E+02  0.10566000000E+00 0.  1.
         23    2    1    0    0    0  0.13976542030E+02  0.12880774350E+02 -0.22350983122E+02  0.95750188795E+02  0.91144249039E+02 0.  0.
         13    1    3    3    0    0 -0.27380273363E+02  0.18110056984E+02  0.18249683528E+02  0.37559494756E+02  0.10566000000E+00 0. -1.
         22    1    1    0    0    0 -0.13976542030E+02 -0.12880774350E+02  0.22350983122E+02  0.29339811205E+02  0.00000000000E+00 0.  1.
</event>
<event>
 5    1  0.1250806E-009  0.9118800E+02  0.7561462E-02  0.1125453E+00
         25   -1    0    0    0    0  0.00000000000E+00  0.00000000000E+00  0.99999998245E-14  0.12509000000E+03  0.12509000000E+03 0.  0.
        -13    1    3    3    0    0 -0.32292706762E+02 -0.52722410638E+00  0.21168066957E+02  0.38615995364E+02  0.10566000000E+00 0.  1.
         23    2    1    0    0    0  0.63589855419E+01  0.26820013279E+02 -0.10517490713E+02  0.95588009893E+02  0.90921395804E+02 0.  0.
         13    1    3    3    0    0  0.38651692304E+02  0.27347237385E+02 -0.31685557670E+02  0.56972014528E+02  0.10566000000E+00 0. -1.
         22    1    1    0    0    0 -0.63589855419E+01 -0.26820013279E+02  0.10517490713E+02  0.29501990107E+02  0.00000000000E+00 0. -1.
</event>
<event>
 5    1  0.1250806E-009  0.9118800E+02  0.7561462E-02  0.1125453E+00
         25   -1    0    0    0    0  0.00000000000E+00  0.00000000000E+00  0.99999998245E-14  0.12509000000E+03  0.12509000000E+03 0.  0.
        -13    1    3    3    0    0  0.12457638290E+02 -0.15923059374E+02  0.45377061638E+02  0.49677212669E+02  0.10566000000E+00 0. -1.
         23    2    1    0    0    0 -0.69680836987E+01  0.18668096374E+02  0.20484366790E+02  0.96512713644E+02  0.92184828467E+02 0.  0.
         13    1    3    3    0    0 -0.19425721989E+02  0.34591155748E+02 -0.24892694848E+02  0.46835500975E+02  0.10566000000E+00 0.  1.
         22    1    1    0    0    0  0.69680836987E+01 -0.18668096374E+02 -0.20484366790E+02  0.28577286356E+02  0.00000000000E+00 0.  1.
</event>
<event>
 5    1  0.1250806E-009  0.9118800E+02  0.7561462E-02  0.1125453E+00
         25   -1    0    0    0    0  0.00000000000E+00  0.00000000000E+00  0.99999998245E-14  0.12509000000E+03  0.12509000000E+03 0.  0.
        -13    1    3    3    0    0  0.37557922108E+02 -0.13371160151E+02  0.31382189785E+02  0.50736953363E+02  0.10566000000E+00 0.  1.
         23    2    1    0    0    0  0.13913642050E+02 -0.24378344469E+02 -0.60662487708E+01  0.96372540358E+02  0.91994423998E+02 0.  0.
         13    1    3    3    0    0 -0.23644280058E+02 -0.11007184318E+02 -0.37448438556E+02  0.45635586995E+02  0.10566000000E+00 0. -1.
         22    1    1    0    0    0 -0.13913642050E+02  0.24378344469E+02  0.60662487708E+01  0.28717459642E+02  0.00000000000E+00 0. -1.
</event>
<event>
 5    1  0.1250806E-009  0.9118800E+02  0.7561462E-02  0.1125453E+00
         25   -1    0    0    0    0  0.00000000000E+00  0.00000000000E+00  0.99999998245E-14  0.12509000000E+03  0.12509000000E+03 0.  0.
        -13    1    3    3    0    0 -0.70506321122E+00 -0.30822494252E+02 -0.15969898962E+02  0.34721349383E+02  0.10566000000E+00 0.  1.
         23    2    1    0    0    0 -0.85190284955E+01  0.25341927270E+02  0.92735789548E+01  0.96791830609E+02  0.92562800745E+02 0.  0.
         13    1    3    3    0    0 -0.78139652843E+01  0.56164421522E+02  0.25243477917E+02  0.62070481227E+02  0.10566000000E+00 0. -1.
         22    1    1    0    0    0  0.85190284955E+01 -0.25341927270E+02 -0.92735789548E+01  0.28298169391E+02  0.00000000000E+00 0. -1.
</event>
<event>
 5    1  0.1250806E-009  0.9118800E+02  0.7561462E-02  0.1125453E+00
         25   -1    0    0    0    0  0.00000000000E+00  0.00000000000E+00  0.99999998245E-14  0.12509000000E+03  0.12509000000E+03 0.  0.
        -13    1    3    3    0    0 -0.23022850463E+02 -0.26453695650E+02 -0.10174183186E+02  0.36515405304E+02  0.10566000000E+00 0. -1.
         23    2    1    0    0    0  0.20081440386E+02  0.14087524801E+02 -0.15729865841E+02  0.95949799548E+02  0.91417792311E+02 0.  0.
         13    1    3    3    0    0  0.43104290849E+02  0.40541220451E+02 -0.55556826544E+01  0.59434394244E+02  0.10566000000E+00 0.  1.
         22    1    1    0    0    0 -0.20081440386E+02 -0.14087524801E+02  0.15729865841E+02  0.29140200452E+02  0.00000000000E+00 0.  1.
</event>
<event>
 5    1  0.1250806E-009  0.9118800E+02  0.7561462E-02  0.1125453E+00
         25   -1    0    0    0    0  0.00000000000E+00  0.00000000000E+00  0.99999998245E-14  0.12509000000E+03  0.12509000000E+03 0.  0.
        -13    1    3    3    0    0 -0.43707264817E+02  0.18148121707E+02 -0.29156567676E+02  0.55585932770E+02  0.10566000000E+00 0. -1.
         23    2    1    0    0    0 -0.28045548008E+02  0.61278185038E+01  0.58656187222E+01  0.95789685912E+02  0.91198440345E+02 0.  0.
         13    1    3    3    0    0  0.15661716809E+02 -0.12020303203E+02  0.35022186398E+02  0.40203753141E+02  0.10566000000E+00 0.  1.
         22    1    1    0    0    0  0.28045548008E+02 -0.61278185038E+01 -0.58656187222E+01  0.29300314088E+02  0.00000000000E+00 0.  1.
</event>
<event>
 5    1  0.1250806E-009  0.9118800E+02  0.7561462E-02  0.1125453E+00
         25   -1    0    0    0    0  0.00000000000E+00  0.00000000000E+00  0.99999998245E-14  0.12509000000E+03  0.12509000000E+03 0.  0.
        -13    1    3    3    0    0  0.49397234043E+02 -0.35409279954E+02 -0.22943163301E+01  0.60820875441E+02  0.10566000000E+00 0.  1.
         23    2    1    0    0    0  0.23795211319E+02 -0.11482938921E+02 -0.10242692032E+02  0.96753050481E+02  0.92510378171E+02 0.  0.
         13    1    3    3    0    0 -0.25602022723E+02  0.23926341033E+02 -0.79483757015E+01  0.35932175040E+02  0.10566000000E+00 0. -1.
         22    1    1    0    0    0 -0.23795211319E+02  0.11482938921E+02  0.10242692032E+02  0.28336949519E+02  0.00000000000E+00 0.  1.
</event>
<event>
 5    1  0.1250806E-009  0.9118800E+02  0.7561462E-02  0.1125453E+00
         25   -1    0    0    0    0  0.00000000000E+00  0.00000000000E+00  0.99999998245E-14  0.12509000000E+03  0.12509000000E+03 0.  0.
        -13    1    3    3    0    0  0.75291184173E+01  0.15984876402E+02 -0.30855464503E+02  0.35556641454E+02  0.10566000000E+00 0.  1.
         23    2    1    0    0    0  0.16602159996E+02 -0.18916277919E+02  0.16437154506E+02  0.95029438876E+02  0.90149636261E+02 0.  0.
         13    1    3    3    0    0  0.90730415787E+01 -0.34901154321E+02  0.47292619010E+02  0.59472797422E+02  0.10566000000E+00 0. -1.
         22    1    1    0    0    0 -0.16602159996E+02  0.18916277919E+02 -0.16437154506E+02  0.30060561124E+02  0.00000000000E+00 0. -1.
</event>
<event>
 5    1  0.1250806E-009  0.9118800E+02  0.7561462E-02  0.1125453E+00
         25   -1    0    0    0    0  0.00000000000E+00  0.00000000000E+00  0.99999998245E-14  0.12509000000E+03  0.12509000000E+03 0.  0.
        -13    1    3    3    0    0  0.15088810435E+02 -0.32338171349E+01  0.56702031275E+02  0.58764455994E+02  0.10566000000E+00 0. -1.
         23    2    1    0    0    0 -0.73305883021E+01 -0.69624926254E+01  0.27645592958E+02  0.95653752983E+02  0.91011800451E+02 0.  0.
         13    1    3    3    0    0 -0.22419398738E+02 -0.37286754905E+01 -0.29056438316E+02  0.36889296989E+02  0.10566000000E+00 0.  1.
         22    1    1    0    0    0  0.73305883021E+01  0.69624926254E+01 -0.27645592958E+02  0.29436247017E+02  0.00000000000E+00 0. -1.
</event>
<event>
 5    1  0.1250806E-009  0.9118800E+02  0.7561462E-02  0.1125453E+00
         25   -1    0    0    0    0  0.00000000000E+00  0.00000000000E+00  0.99999998245E-14  0.12509000000E+03  0.12509000000E+03 0.  0.
        -13    1    3    3    0    0  0.56925555605E+02  0.22502412290E+02 -0.12541698886E+02  0.62483460330E+02  0.10566000000E+00 0.  1.
         23    2    1    0    0    0  0.25694940780E+02  0.10314453451E+02 -0.36881413803E+01  0.97157575857E+02  0.93055758704E+02 0.  0.
         13    1    3    3    0    0 -0.31230614826E+02 -0.12187958839E+02  0.88535575052E+01  0.34674115527E+02  0.10566000000E+00 0. -1.
         22    1    1    0    0    0 -0.25694940780E+02 -0.10314453451E+02  0.36881413803E+01  0.27932424143E+02  0.00000000000E+00 0.  1.
</event>
<event>
 5    1  0.1250806E-009  0.9118800E+02  0.7561462E-02  0.1125453E+00
         25   -1    0    0    0    0  0.00000000000E+00  0.00000000000E+00  0.99999998245E-14  0.12509000000E+03  0.12509000000E+03 0.  0.
        -13    1    3    3    0    0 -0.18837931469E+02  0.17903905271E+02 -0.31898003155E+02  0.41145002798E+02  0.10566000000E+00 0.  1.
         23    2    1    0    0    0 -0.37344897530E+01  0.20210640453E+02  0.20701483440E+02  0.95918647308E+02  0.91375155724E+02 0.  0.
         13    1    3    3    0    0  0.15103441716E+02  0.23067351818E+01  0.52599486595E+02  0.54773644510E+02  0.10566000000E+00 0. -1.
         22    1    1    0    0    0  0.37344897530E+01 -0.20210640453E+02 -0.20701483440E+02  0.29171352692E+02  0.00000000000E+00 0. -1.
</event>
<event>
 5    1  0.1250806E-009  0.9118800E+02  0.7561462E-02  0.1125453E+00
         25   -1    0    0    0    0  0.00000000000E+00  0.00000000000E+00  0.99999998245E-14  0.12509000000E+03  0.12509000000E+03 0.  0.
        -13    1    3    3    0    0 -0.16230686258E+02 -0.91353710096E+01 -0.39960926312E+02  0.44088286150E+02  0.10566000000E+00 0. -1.
         23    2    1    0    0    0  0.16375238646E+02 -0.23530630787E+02 -0.17099962199E+01  0.96371310736E+02  0.91992751997E+02 0.  0.
         13    1    3    3    0    0  0.32605924904E+02 -0.14395259778E+02  0.38250930092E+02  0.52283024586E+02  0.10566000000E+00 0.  1.
         22    1    1    0    0    0 -0.16375238646E+02  0.23530630787E+02  0.17099962199E+01  0.28718689264E+02  0.00000000000E+00 0.  1.
</event>
<event>
 5    1  0.1250806E-009  0.9118800E+02  0.7561462E-02  0.1125453E+00
         25   -1    0    0    0    0  0.00000000000E+00  0.00000000000E+00  0.99999998245E-14  0.12509000000E+03  0.12509000000E+03 0.  0.
        -13    1    3    3    0    0 -0.14205446610E+02 -0.23128484282E+02  0.25926625537E+02  0.37535617410E+02  0.10566000000E+00 0.  1.
         23    2    1    0    0    0 -0.73129742184E+01  0.24729349265E+02 -0.96395160499E+01  0.97559279401E+02  0.93594190101E+02 0.  0.
         13    1    3    3    0    0  0.68924723912E+01  0.47857833547E+02 -0.35566141587E+02  0.60023661992E+02  0.10566000000E+00 0. -1.
         22    1    1    0    0    0  0.73129742184E+01 -0.24729349265E+02  0.96395160499E+01  0.27530720599E+02  0.00000000000E+00 0. -1.
</event>
<event>
 5    1  0.1250806E-009  0.9118800E+02  0.7561462E-02  0.1125453E+00
         25   -1    0    0    0    0  0.00000000000E+00  0.00000000000E+00  0.99999998245E-14  0.12509000000E+03  0.12509000000E+03 0.  0.
        -13    1    3    3    0    0  0.25999041396E+02 -0.43755592547E+01 -0.21844182145E+02  0.34238503617E+02  0.10566000000E+00 0. -1.
         23    2    1    0    0    0 -0.10894586198E+02  0.49632031822E+01  0.26644947139E+02  0.95879067076E+02  0.91320955433E+02 0.  0.
         13    1    3    3    0    0 -0.36893627593E+02  0.93387624368E+01  0.48489129284E+02  0.61640563460E+02  0.10566000000E+00 0.  1.
         22    1    1    0    0    0  0.10894586198E+02 -0.49632031822E+01 -0.26644947139E+02  0.29210932924E+02  0.00000000000E+00 0.  1.
</event>
<event>
 5    1  0.1250806E-009  0.9118800E+02  0.7561462E-02  0.1125453E+00
         25   -1    0    0    0    0  0.00000000000E+00  0.00000000000E+00  0.99999998245E-14  0.12509000000E+03  0.12509000000E+03 0.  0.
        -13    1    3    3    0    0 -0.46836825417E+02 -0.99480674186E+00 -0.10442974644E+02  0.47997340958E+02  0.10566000000E+00 0.  1.
         23    2    1    0    0    0 -0.77267349838E+01 -0.27780527517E+02 -0.16628837804E+01  0.96207040922E+02  0.91769109171E+02 0.  0.
         13    1    3    3    0    0  0.39110090433E+02 -0.26785720775E+02  0.87800908638E+01  0.48209699965E+02  0.10566000000E+00 0. -1.
         22    1    1    0    0    0  0.77267349838E+01  0.27780527517E+02  0.16628837804E+01  0.28882959078E+02  0.00000000000E+00 0.  1.
</event>
<event>
 5    1  0.1250806E-009  0.9118800E+02  0.7561462E-02  0.1125453E+00
         25   -1    0    0    0    0  0.00000000000E+00  0.00000000000E+00  0.99999998245E-14  0.12509000000E+03  0.12509000000E+03 0.  0.
        -13    1    3    3    0    0 -0.11111030102E+02  0.18435831639E+02  0.31076749818E+02  0.37803576834E+02  0.10566000000E+00 0. -1.
         23    2    1    0    0    0 -0.57528248658E+01 -0.27680175653E+02 -0.47188446837E+01  0.96427226002E+02  0.92068753120E+02 0.  0.
         13    1    3    3    0    0  0.53582052366E+01 -0.46116007292E+02 -0.35795594502E+02  0.58623649167E+02  0.10566000000E+00 0.  1.
         22    1    1    0    0    0  0.57528248658E+01  0.27680175653E+02  0.47188446837E+01  0.28662773998E+02  0.00000000000E+00 0.  1.
</event>
<event>
 5    1  0.1250806E-009  0.9118800E+02  0.7561462E-02  0.1125453E+00
         25   -1    0    0    0    0  0.00000000000E+00  0.00000000000E+00  0.99999998245E-14  0.12509000000E+03  0.12509000000E+03 0.  0.
        -13    1    3    3    0    0 -0.33901540650E+01  0.47661519441E+02  0.10509501115E+02  0.48924169464E+02  0.10566000000E+00 0. -1.
         23    2    1    0    0    0  0.23669830221E+02  0.98488419763E+01  0.14575058950E+02  0.95599443980E+02  0.90937125504E+02 0.  0.
         13    1    3    3    0    0  0.27059984286E+02 -0.37812677465E+02  0.40655578349E+01  0.46675274516E+02  0.10566000000E+00 0.  1.
         22    1    1    0    0    0 -0.23669830221E+02 -0.98488419763E+01 -0.14575058950E+02  0.29490556020E+02  0.00000000000E+00 0. -1.
</event>
<event>
 5    1  0.1250806E-009  0.9118800E+02  0.7561462E-02  0.1125453E+00
         25   -1    0    0    0    0  0.00000000000E+00  0.00000000000E+00  0.99999998245E-14  0.12509000000E+03  0.12509000000E+03 0.  0.
        -13    1    3    3    0    0 -0.42046520764E+02  0.25952004638E+02 -0.95578686285E+01  0.50326737127E+02  0.10566000000E+00 0.  1.
         23    2    1    0    0    0 -0.21705028787E+02 -0.12795081823E+02 -0.16970253413E+02  0.94712180882E+02  0.89708334691E+02 0.  0.
         13    1    3    3    0    0  0.20341491977E+02 -0.38747086461E+02 -0.74123847842E+01  0.44385443755E+02  0.10566000000E+00 0. -1.
         22    1    1    0    0    0  0.21705028787E+02  0.12795081823E+02  0.16970253413E+02  0.30377819118E+02  0.00000000000E+00 0. -1.
</event>
<event>
 5    1  0.1250806E-009  0.9118800E+02  0.7561462E-02  0.1125453E+00
         25   -1    0    0    0    0  0.00000000000E+00  0.00000000000E+00  0.99999998245E-14  0.12509000000E+03  0.12509000000E+03 0.  0.
        -13    1    3    3    0    0  0.18015253400E+02  0.23139450015E+02  0.23186969682E+02  0.37384893060E+02  0.10566000000E+00 0. -1.
         23    2    1    0    0    0  0.90343656158E+01 -0.16008019222E+02 -0.21055879099E+02  0.97139570914E+02  0.93031552450E+02 0.  0.
         13    1    3    3    0    0 -0.89808877840E+01 -0.39147469237E+02 -0.44242848781E+02  0.59754677853E+02  0.10566000000E+00 0.  1.
         22    1    1    0    0    0 -0.90343656158E+01  0.16008019222E+02  0.21055879099E+02  0.27950429086E+02  0.00000000000E+00 0.  1.
</event>
<event>
 5    1  0.1250806E-009  0.9118800E+02  0.7561462E-02  0.1125453E+00
         25   -1    0    0    0    0  0.00000000000E+00  0.00000000000E+00  0.99999998245E-14  0.12509000000E+03  0.12509000000E+03 0.  0.
        -13    1    3    3    0    0  0.54858809286E+02  0.50638882291E+01 -0.28449535638E+02  0.62004186652E+02  0.10566000000E+00 0.  1.
         23    2    1    0    0    0  0.22640809740E+02  0.55750899606E+01 -0.17130187866E+02  0.96156779819E+02  0.91700572926E+02 0.  0.
         13    1    3    3    0    0 -0.32217999546E+02  0.51120173156E+00  0.11319347773E+02  0.34152593167E+02  0.10566000000E+00 0. -1.
         22    1    1    0    0    0 -0.22640809740E+02 -0.55750899606E+01  0.17130187866E+02  0.28933220181E+02  0.00000000000E+00 0.  1.
</event>
<event>
 5    1  0.1250806E-009  0.9118800E+02  0.7561462E-02  0.1125453E+00
         25   -1    0    0    0    0  0.00000000000E+00  0.00000000000E+00  0.99999998245E-14  0.12509000000E+03  0.12509000000E+03 0.  0.
        -13    1    3    3    0    0 -0.26197465467E+02 -0.41521938451E+01  0.39192524275E+02  0.47324550010E+02  0.10566000000E+00 0.  1.
         23    2    1    0    0    0  0.61742405294E+01  0.23682316375E+02  0.14318903178E+02  0.96735029656E+02  0.92486007695E+02 0.  0.
         13    1    3    3    0    0  0.32371705996E+02  0.27834510220E+02 -0.24873621097E+02  0.49410479646E+02  0.10566000000E+00 0. -1.
         22    1    1    0    0    0 -0.61742405294E+01 -0.23682316375E+02 -0.14318903178E+02  0.28354970344E+02  0.00000000000E+00 0.  1.
</event>
<event>
 5    1  0.1250806E-009  0.9118800E+02  0.7561462E-02  0.1125453E+00
         25   -1    0    0    0    0  0.00000000000E+00  0.00000000000E+00  0.99999998245E-14  0.12509000000E+03  0.12509000000E+03 0.  0.
        -13    1    3    3    0    0 -0.26818077748E+02 -0.18489918045E+02  0.12954117888E+02  0.35055765542E+02  0.10566000000E+00 0. -1.
         23    2    1    0    0    0  0.18592259293E+02  0.20800916958E+02 -0.25523743682E+01  0.97074560206E+02  0.92944098104E+02 0.  0.
         13    1    3    3    0    0  0.45410337041E+02  0.39290835004E+02 -0.15506492256E+02  0.62018794664E+02  0.10566000000E+00 0.  1.
         22    1    1    0    0    0 -0.18592259293E+02 -0.20800916958E+02  0.25523743682E+01  0.28015439794E+02  0.00000000000E+00 0.  1.
</event>
<event>
 5    1  0.1250806E-009  0.9118800E+02  0.7561462E-02  0.1125453E+00
         25   -1    0    0    0    0  0.00000000000E+00  0.00000000000E+00  0.99999998245E-14  0.12509000000E+03  0.12509000000E+03 0.  0.
        -13    1    3    3    0    0 -0.27359978331E+02  0.15669132376E+02  0.15451819257E+02  0.35112106261E+02  0.10566000000E+00 0. -1.
         23    2    1    0    0    0  0.15802061717E+02 -0.24561880116E+02  0.96862354951E+00  0.95867930584E+02  0.91305699568E+02 0.  0.
         13    1    3    3    0    0  0.43162040048E+02 -0.40231012492E+02 -0.14483195707E+02  0.60755824323E+02  0.10566000000E+00 0.  1.
         22    1    1    0    0    0 -0.15802061717E+02  0.24561880116E+02 -0.96862354951E+00  0.29222069416E+02  0.00000000000E+00 0.  1.
</event>
<event>
 5    1  0.1250806E-009  0.9118800E+02  0.7561462E-02  0.1125453E+00
         25   -1    0    0    0    0  0.00000000000E+00  0.00000000000E+00  0.99999998245E-14  0.12509000000E+03  0.12509000000E+03 0.  0.
        -13    1    3    3    0    0 -0.81516506628E+01  0.35617360132E+02 -0.11255820505E+02  0.38232844657E+02  0.10566000000E+00 0.  1.
         23    2    1    0    0    0  0.28894054660E+02 -0.69014310360E+01 -0.48646372603E+01  0.94987494445E+02  0.90091416129E+02 0.  0.
         13    1    3    3    0    0  0.37045705322E+02 -0.42518791168E+02  0.63911832447E+01  0.56754649788E+02  0.10566000000E+00 0. -1.
         22    1    1    0    0    0 -0.28894054660E+02  0.69014310360E+01  0.48646372603E+01  0.30102505555E+02  0.00000000000E+00 0. -1.
</event>
<event>
 5    1  0.1250806E-009  0.9118800E+02  0.7561462E-02  0.1125453E+00
         25   -1    0    0    0    0  0.00000000000E+00  0.00000000000E+00  0.99999998245E-14  0.12509000000E+03  0.12509000000E+03 0.  0.
        -13    1    3    3    0    0 -0.51089555489E+01 -0.42542756468E+02 -0.11705949374E+02  0.44418779468E+02  0.10566000000E+00 0.  1.
         23    2    1    0    0    0  0.24816975304E+02  0.22655410981E+00 -0.13862616336E+02  0.96662799615E+02  0.92388262825E+02 0.  0.
         13    1    3    3    0    0  0.29925930853E+02  0.42769310578E+02 -0.21566669625E+01  0.52244020147E+02  0.10566000000E+00 0. -1.
         22    1    1    0    0    0 -0.24816975304E+02 -0.22655410981E+00  0.13862616336E+02  0.28427200385E+02  0.00000000000E+00 0.  1.
</event>
<event>
 5    1  0.1250806E-009  0.9118800E+02  0.7561462E-02  0.1125453E+00
         25   -1    0    0    0    0  0.00000000000E+00  0.00000000000E+00  0.99999998245E-14  0.12509000000E+03  0.12509000000E+03 0.  0.
        -13    1    3    3    0    0 -0.11716503920E+02  0.53412714702E+02 -0.12461621811E+02  0.56084737123E+02  0.10566000000E+00 0.  1.
         23    2    1    0    0    0 -0.98138718174E+01  0.21602710869E+02  0.14029795450E+02  0.97525088295E+02  0.93548482028E+02 0.  0.
         13    1    3    3    0    0  0.19026321026E+01 -0.31810003833E+02  0.26491417261E+02  0.41440351172E+02  0.10566000000E+00 0. -1.
         22    1    1    0    0    0  0.98138718174E+01 -0.21602710869E+02 -0.14029795450E+02  0.27564911705E+02  0.00000000000E+00 0.  1.
</event>
<event>
 5    1  0.1250806E-009  0.9118800E+02  0.7561462E-02  0.1125453E+00
         25   -1    0    0    0    0  0.00000000000E+00  0.00000000000E+00  0.99999998245E-14  0.12509000000E+03  0.12509000000E+03 0.  0.
        -13    1    3    3    0    0 -0.33854959314E+02  0.25304399972E+02 -0.16499836670E+02  0.45373193653E+02  0.10566000000E+00 0. -1.
         23    2    1    0    0    0 -0.97868011508E+01  0.13671035476E+02  0.25134333348E+02  0.94850730819E+02  0.89901322217E+02 0.  0.
         13    1    3    3    0    0  0.24068158163E+02 -0.11633364496E+02  0.41634170018E+02  0.49477537166E+02  0.10566000000E+00 0.  1.
         22    1    1    0    0    0  0.97868011508E+01 -0.13671035476E+02 -0.25134333348E+02  0.30239269181E+02  0.00000000000E+00 0.  1.
</event>
<event>
 5    1  0.1250806E-009  0.9118800E+02  0.7561462E-02  0.1125453E+00
         25   -1    0    0    0    0  0.00000000000E+00  0.00000000000E+00  0.99999998245E-14  0.12509000000E+03  0.12509000000E+03 0.  0.
        -13    1    3    3    0    0  0.16239447644E+02 -0.42149030152E+02 -0.31365833478E+02  0.54991700067E+02  0.10566000000E+00 0.  1.
         23    2    1    0    0    0 -0.10777185783E+02 -0.31671676653E+02 -0.13636425466E+02  0.88962518287E+02  0.81296584954E+02 0.  0.
         13    1    3    3    0    0 -0.27016633426E+02  0.10477353499E+02  0.17729408012E+02  0.33970818220E+02  0.10566000000E+00 0. -1.
         22    1    1    0    0    0  0.10777185783E+02  0.31671676653E+02  0.13636425466E+02  0.36127481713E+02  0.00000000000E+00 0.  1.
</event>
<event>
 5    1  0.1250806E-009  0.9118800E+02  0.7561462E-02  0.1125453E+00
         25   -1    0    0    0    0  0.00000000000E+00  0.00000000000E+00  0.99999998245E-14  0.12509000000E+03  0.12509000000E+03 0.  0.
        -13    1    3    3    0    0 -0.26704105217E+02 -0.45727058781E+02 -0.41145135953E+01  0.53113214235E+02  0.10566000000E+00 0.  1.
         23    2    1    0    0    0  0.10955686717E+02 -0.27333622556E+02  0.24705685100E+01  0.95539065966E+02  0.90854033611E+02 0.  0.
         13    1    3    3    0    0  0.37659791935E+02  0.18393436225E+02  0.65850821053E+01  0.42425851731E+02  0.10566000000E+00 0. -1.
         22    1    1    0    0    0 -0.10955686717E+02  0.27333622556E+02 -0.24705685100E+01  0.29550934034E+02  0.00000000000E+00 0.  1.
</event>
<event>
 5    1  0.1250806E-009  0.9118800E+02  0.7561462E-02  0.1125453E+00
         25   -1    0    0    0    0  0.00000000000E+00  0.00000000000E+00  0.99999998245E-14  0.12509000000E+03  0.12509000000E+03 0.  0.
        -13    1    3    3    0    0  0.28879350669E+02  0.25416875510E+02 -0.11862876960E+01  0.38489646638E+02  0.10566000000E+00 0.  1.
         23    2    1    0    0    0  0.22742426778E+01 -0.20662725358E+02 -0.21257208542E+02  0.95358042211E+02  0.90604452982E+02 0.  0.
         13    1    3    3    0    0 -0.26605107991E+02 -0.46079600868E+02 -0.20070920846E+02  0.56868395573E+02  0.10566000000E+00 0. -1.
         22    1    1    0    0    0 -0.22742426778E+01  0.20662725358E+02  0.21257208542E+02  0.29731957789E+02  0.00000000000E+00 0. -1.
</event>
<event>
 5    1  0.1250806E-009  0.9118800E+02  0.7561462E-02  0.1125453E+00
         25   -1    0    0    0    0  0.00000000000E+00  0.00000000000E+00  0.99999998245E-14  0.12509000000E+03  0.12509000000E+03 0.  0.
        -13    1    3    3    0    0  0.45147127915E+02 -0.16350650918E+01 -0.28478438052E+02  0.53403831274E+02  0.10566000000E+00 0. -1.
         23    2    1    0    0    0  0.37662416197E+01 -0.38533658934E+01 -0.29742327866E+02  0.94863536900E+02  0.89919139017E+02 0.  0.
         13    1    3    3    0    0 -0.41380886296E+02 -0.22183008016E+01 -0.12638898147E+01  0.41459705626E+02  0.10566000000E+00 0.  1.
         22    1    1    0    0    0 -0.37662416197E+01  0.38533658934E+01  0.29742327866E+02  0.30226463100E+02  0.00000000000E+00 0. -1.
</event>
<event>
 5    1  0.1250806E-009  0.9118800E+02  0.7561462E-02  0.1125453E+00
         25   -1    0    0    0    0  0.00000000000E+00  0.00000000000E+00  0.99999998245E-14  0.12509000000E+03  0.12509000000E+03 0.  0.
        -13    1    3    3    0    0 -0.39545431944E+02  0.33996818979E+01  0.47421232770E+01  0.39973715387E+02  0.10566000000E+00 0. -1.
         23    2    1    0    0    0  0.72110425723E+01 -0.27697978389E+02 -0.12176209971E+01  0.96442840582E+02  0.92089965560E+02 0.  0.
         13    1    3    3    0    0  0.46756474516E+02 -0.31097660287E+02 -0.59597442742E+01  0.56469125195E+02  0.10566000000E+00 0.  1.
         22    1    1    0    0    0 -0.72110425723E+01  0.27697978389E+02  0.12176209971E+01  0.28647159418E+02  0.00000000000E+00 0.  1.
</event>
<event>
 5    1  0.1250806E-009  0.9118800E+02  0.7561462E-02  0.1125453E+00
         25   -1    0    0    0    0  0.00000000000E+00  0.00000000000E+00  0.99999998245E-14  0.12509000000E+03  0.12509000000E+03 0.  0.
        -13    1    3    3    0    0  0.31373627764E+02 -0.38452241361E+02 -0.21505309326E+02  0.54086679303E+02  0.10566000000E+00 0. -1.
         23    2    1    0    0    0 -0.71345192326E+01 -0.24813837930E+02 -0.14319127102E+02  0.95566021297E+02  0.90891138776E+02 0.  0.
         13    1    3    3    0    0 -0.38508146997E+02  0.13638403430E+02  0.71861822242E+01  0.41479341994E+02  0.10566000000E+00 0.  1.
         22    1    1    0    0    0  0.71345192326E+01  0.24813837930E+02  0.14319127102E+02  0.29523978703E+02  0.00000000000E+00 0. -1.
</event>
<event>
 5    1  0.1250806E-009  0.9118800E+02  0.7561462E-02  0.1125453E+00
         25   -1    0    0    0    0  0.00000000000E+00  0.00000000000E+00  0.99999998245E-14  0.12509000000E+03  0.12509000000E+03 0.  0.
        -13    1    3    3    0    0  0.71253455537E+01 -0.14237607882E+02  0.48199701306E+02  0.50761229275E+02  0.10566000000E+00 0. -1.
         23    2    1    0    0    0  0.54188345055E+01  0.20794577768E+02  0.19259722632E+02  0.96233195815E+02  0.91804753847E+02 0.  0.
         13    1    3    3    0    0 -0.17065110482E+01  0.35032185649E+02 -0.28939978674E+02  0.45471966540E+02  0.10566000000E+00 0.  1.
         22    1    1    0    0    0 -0.54188345055E+01 -0.20794577768E+02 -0.19259722632E+02  0.28856804185E+02  0.00000000000E+00 0. -1.
</event>
<event>
 5    1  0.1250806E-009  0.9118800E+02  0.7561462E-02  0.1125453E+00
         25   -1    0    0    0    0  0.00000000000E+00  0.00000000000E+00  0.99999998245E-14  0.12509000000E+03  0.12509000000E+03 0.  0.
        -13    1    3    3    0    0  0.19565332445E+02 -0.54513974131E+02 -0.40072991633E+01  0.58057258116E+02  0.10566000000E+00 0.  1.
         23    2    1    0    0    0  0.24275560909E+02 -0.18325635172E+02 -0.14987162846E+01  0.94637119801E+02  0.89603607806E+02 0.  0.
         13    1    3    3    0    0  0.47102284641E+01  0.36188338959E+02  0.25085828787E+01  0.36579861685E+02  0.10566000000E+00 0. -1.
         22    1    1    0    0    0 -0.24275560909E+02  0.18325635172E+02  0.14987162846E+01  0.30452880199E+02  0.00000000000E+00 0.  1.
</event>
<event>
 5    1  0.1250806E-009  0.9118800E+02  0.7561462E-02  0.1125453E+00
         25   -1    0    0    0    0  0.00000000000E+00  0.00000000000E+00  0.99999998245E-14  0.12509000000E+03  0.12509000000E+03 0.  0.
        -13    1    3    3    0    0 -0.38026468009E+02  0.25877732195E+02  0.24777988604E+02  0.52245853195E+02  0.10566000000E+00 0. -1.
         23    2    1    0    0    0 -0.19879282719E+02  0.19568422169E+02 -0.12760338836E+02  0.94415331708E+02  0.89293446494E+02 0.  0.
         13    1    3    3    0    0  0.18147185291E+02 -0.63093100261E+01 -0.37538327440E+02  0.42169478512E+02  0.10566000000E+00 0.  1.
         22    1    1    0    0    0  0.19879282719E+02 -0.19568422169E+02  0.12760338836E+02  0.30674668292E+02  0.00000000000E+00 0.  1.
</event>
<event>
 5    1  0.1250806E-009  0.9118800E+02  0.7561462E-02  0.1125453E+00
         25   -1    0    0    0    0  0.00000000000E+00  0.00000000000E+00  0.99999998245E-14  0.12509000000E+03  0.12509000000E+03 0.  0.
        -13    1    3    3    0    0  0.17794339957E+01 -0.27825277905E+02 -0.31815045320E+02  0.42303909377E+02  0.10566000000E+00 0.  1.
         23    2    1    0    0    0 -0.27042469723E+02  0.12959999851E+00  0.59221081301E+01  0.97406370729E+02  0.93389601825E+02 0.  0.
         13    1    3    3    0    0 -0.28821903719E+02  0.27954877903E+02  0.37737153450E+02  0.55102461353E+02  0.10566000000E+00 0. -1.
         22    1    1    0    0    0  0.27042469723E+02 -0.12959999851E+00 -0.59221081301E+01  0.27683629271E+02  0.00000000000E+00 0. -1.
</event>
<event>
 5    1  0.1250806E-009  0.9118800E+02  0.7561462E-02  0.1125453E+00
         25   -1    0    0    0    0  0.00000000000E+00  0.00000000000E+00  0.99999998245E-14  0.12509000000E+03  0.12509000000E+03 0.  0.
        -13    1    3    3    0    0 -0.12763496512E+01  0.57234024803E+01  0.41364715681E+02  0.41778430701E+02  0.10566000000E+00 0.  1.
         23    2    1    0    0    0  0.92314248968E+01 -0.27327408541E+02 -0.62505686176E+00  0.96238706108E+02  0.91812261676E+02 0.  0.
         13    1    3    3    0    0  0.10507774548E+02 -0.33050811021E+02 -0.41989772543E+02  0.54460275407E+02  0.10566000000E+00 0. -1.
         22    1    1    0    0    0 -0.92314248968E+01  0.27327408541E+02  0.62505686176E+00  0.28851293892E+02  0.00000000000E+00 0. -1.
</event>
<event>
 5    1  0.1250806E-009  0.9118800E+02  0.7561462E-02  0.1125453E+00
         25   -1    0    0    0    0  0.00000000000E+00  0.00000000000E+00  0.99999998245E-14  0.12509000000E+03  0.12509000000E+03 0.  0.
        -13    1    3    3    0    0  0.27714765960E+02  0.48353710991E+01 -0.17914460538E+02  0.33353082711E+02  0.10566000000E+00 0. -1.
         23    2    1    0    0    0 -0.18335768776E+02 -0.54687164549E+01  0.22550245707E+02  0.95516010453E+02  0.90822284683E+02 0.  0.
         13    1    3    3    0    0 -0.46050534737E+02 -0.10304087554E+02  0.40464706246E+02  0.62162927742E+02  0.10566000000E+00 0.  1.
         22    1    1    0    0    0  0.18335768776E+02  0.54687164549E+01 -0.22550245707E+02  0.29573989547E+02  0.00000000000E+00 0.  1.
</event>
<event>
 5    1  0.1250806E-009  0.9118800E+02  0.7561462E-02  0.1125453E+00
         25   -1    0    0    0    0  0.00000000000E+00  0.00000000000E+00  0.99999998245E-14  0.12509000000E+03  0.12509000000E+03 0.  0.
        -13    1    3    3    0    0  0.17220533116E+02 -0.32205670237E+02  0.29251606446E+01  0.36637681218E+02  0.10566000000E+00 0. -1.
         23    2    1    0    0    0  0.93838058031E+01  0.25823007204E+02  0.10491133740E+02  0.95680011908E+02  0.91047884540E+02 0.  0.
         13    1    3    3    0    0 -0.78367273127E+01  0.58028677440E+02  0.75659730958E+01  0.59042330691E+02  0.10566000000E+00 0.  1.
         22    1    1    0    0    0 -0.93838058031E+01 -0.25823007204E+02 -0.10491133740E+02  0.29409988092E+02  0.00000000000E+00 0.  1.
</event>
<event>
 5    1  0.1250806E-009  0.9118800E+02  0.7561462E-02  0.1125453E+00
         25   -1    0    0    0    0  0.00000000000E+00  0.00000000000E+00  0.99999998245E-14  0.12509000000E+03  0.12509000000E+03 0.  0.
        -13    1    3    3    0    0  0.29569149298E+01  0.45507001639E+02  0.20633072440E+02  0.50053625108E+02  0.10566000000E+00 0.  1.
         23    2    1    0    0    0  0.10932780099E+02  0.20329856504E+02 -0.17277712995E+02  0.96256892077E+02  0.91837035884E+02 0.  0.
         13    1    3    3    0    0  0.79758651688E+01 -0.25177145135E+02 -0.37910785435E+02  0.46203266970E+02  0.10566000000E+00 0. -1.
         22    1    1    0    0    0 -0.10932780099E+02 -0.20329856504E+02  0.17277712995E+02  0.28833107923E+02  0.00000000000E+00 0.  1.
</event>
<event>
 5    1  0.1250806E-009  0.9118800E+02  0.7561462E-02  0.1125453E+00
         25   -1    0    0    0    0  0.00000000000E+00  0.00000000000E+00  0.99999998245E-14  0.12509000000E+03  0.12509000000E+03 0.  0.
        -13    1    3    3    0    0  0.27518944649E+02  0.22258521847E+02 -0.16178023217E+02  0.38916239653E+02  0.10566000000E+00 0. -1.
         23    2    1    0    0    0 -0.16417092635E+02 -0.51884578773E+01  0.17368270939E+02  0.10063396064E+03  0.97617089554E+02 0.  0.
         13    1    3    3    0    0 -0.43936037284E+02 -0.27446979725E+02  0.33546294156E+02  0.61717720988E+02  0.10566000000E+00 0.  1.
         22    1    1    0    0    0  0.16417092635E+02  0.51884578773E+01 -0.17368270939E+02  0.24456039360E+02  0.00000000000E+00 0.  1.
</event>
<event>
 5    1  0.1250806E-009  0.9118800E+02  0.7561462E-02  0.1125453E+00
         25   -1    0    0    0    0  0.00000000000E+00  0.00000000000E+00  0.99999998245E-14  0.12509000000E+03  0.12509000000E+03 0.  0.
        -13    1    3    3    0    0  0.35015082693E+02 -0.21299851105E+02 -0.20527527886E+02  0.45838087201E+02  0.10566000000E+00 0.  1.
         23    2    1    0    0    0  0.17466092619E+02 -0.14725922162E+02  0.22657649632E+02  0.92914135417E+02  0.87165074993E+02 0.  0.
         13    1    3    3    0    0 -0.17548990075E+02  0.65739289431E+01  0.43185177517E+02  0.47076048216E+02  0.10566000000E+00 0. -1.
         22    1    1    0    0    0 -0.17466092619E+02  0.14725922162E+02 -0.22657649632E+02  0.32175864583E+02  0.00000000000E+00 0. -1.
</event>
<event>
 5    1  0.1250806E-009  0.9118800E+02  0.7561462E-02  0.1125453E+00
         25   -1    0    0    0    0  0.00000000000E+00  0.00000000000E+00  0.99999998245E-14  0.12509000000E+03  0.12509000000E+03 0.  0.
        -13    1    3    3    0    0  0.23725186987E+02 -0.26404526219E+02 -0.30827269271E+02  0.47015052878E+02  0.10566000000E+00 0.  1.
         23    2    1    0    0    0  0.17092232378E+02  0.18824041409E+02 -0.15893864857E+02  0.95104939008E+02  0.90254338073E+02 0.  0.
         13    1    3    3    0    0 -0.66329546088E+01  0.45228567628E+02  0.14933404414E+02  0.48089886130E+02  0.10566000000E+00 0. -1.
         22    1    1    0    0    0 -0.17092232378E+02 -0.18824041409E+02  0.15893864857E+02  0.29985060992E+02  0.00000000000E+00 0. -1.
</event>
<event>
 5    1  0.1250806E-009  0.9118800E+02  0.7561462E-02  0.1125453E+00
         25   -1    0    0    0    0  0.00000000000E+00  0.00000000000E+00  0.99999998245E-14  0.12509000000E+03  0.12509000000E+03 0.  0.
        -13    1    3    3    0    0  0.16113239932E+02 -0.25865698889E+02 -0.15809426167E+02  0.34331035520E+02  0.10566000000E+00 0.  1.
         23    2    1    0    0    0 -0.95355059304E+01  0.23510816826E+02 -0.23508336999E+02  0.90502049936E+02  0.83631900331E+02 0.  0.
         13    1    3    3    0    0 -0.25648745863E+02  0.49376515715E+02 -0.76989108326E+01  0.56171014416E+02  0.10566000000E+00 0. -1.
         22    1    1    0    0    0  0.95355059304E+01 -0.23510816826E+02  0.23508336999E+02  0.34587950064E+02  0.00000000000E+00 0. -1.
</event>
<event>
 5    1  0.1250806E-009  0.9118800E+02  0.7561462E-02  0.1125453E+00
         25   -1    0    0    0    0  0.00000000000E+00  0.00000000000E+00  0.99999998245E-14  0.12509000000E+03  0.12509000000E+03 0.  0.
        -13    1    3    3    0    0  0.43320408480E+02 -0.92429033312E+00 -0.30906230687E+02  0.53223287787E+02  0.10566000000E+00 0.  1.
         23    2    1    0    0    0  0.29058158319E+02 -0.88824792612E+00  0.82286350742E+01  0.94876162368E+02  0.89936701080E+02 0.  0.
         13    1    3    3    0    0 -0.14262250161E+02  0.36042407004E-01  0.39134865761E+02  0.41652874581E+02  0.10566000000E+00 0. -1.
         22    1    1    0    0    0 -0.29058158319E+02  0.88824792612E+00 -0.82286350742E+01  0.30213837632E+02  0.00000000000E+00 0. -1.
</event>
<event>
 5    1  0.1250806E-009  0.9118800E+02  0.7561462E-02  0.1125453E+00
         25   -1    0    0    0    0  0.00000000000E+00  0.00000000000E+00  0.99999998245E-14  0.12509000000E+03  0.12509000000E+03 0.  0.
        -13    1    3    3    0    0  0.12076760762E+02 -0.21819930680E+02 -0.52607728199E+02  0.58219771175E+02  0.10566000000E+00 0.  1.
         23    2    1    0    0    0  0.99134441382E+01  0.56721321903E+01 -0.26665488456E+02  0.96081419668E+02  0.91597715433E+02 0.  0.
         13    1    3    3    0    0 -0.21633166235E+01  0.27492062871E+02  0.25942239743E+02  0.37861648493E+02  0.10566000000E+00 0. -1.
         22    1    1    0    0    0 -0.99134441382E+01 -0.56721321903E+01  0.26665488456E+02  0.29008580332E+02  0.00000000000E+00 0.  1.
</event>
<event>
 5    1  0.1250806E-009  0.9118800E+02  0.7561462E-02  0.1125453E+00
         25   -1    0    0    0    0  0.00000000000E+00  0.00000000000E+00  0.99999998245E-14  0.12509000000E+03  0.12509000000E+03 0.  0.
        -13    1    3    3    0    0 -0.25047954073E+02  0.54785335817E+02 -0.87149219806E-01  0.60239951717E+02  0.10566000000E+00 0.  1.
         23    2    1    0    0    0 -0.12127500519E+01  0.29096509315E+02 -0.47195942608E+01  0.95588268068E+02  0.90921751002E+02 0.  0.
         13    1    3    3    0    0  0.23835204021E+02 -0.25688826502E+02 -0.46324450410E+01  0.35348316351E+02  0.10566000000E+00 0. -1.
         22    1    1    0    0    0  0.12127500519E+01 -0.29096509315E+02  0.47195942608E+01  0.29501731932E+02  0.00000000000E+00 0.  1.
</event>
<event>
 5    1  0.1250806E-009  0.9118800E+02  0.7561462E-02  0.1125453E+00
         25   -1    0    0    0    0  0.00000000000E+00  0.00000000000E+00  0.99999998245E-14  0.12509000000E+03  0.12509000000E+03 0.  0.
        -13    1    3    3    0    0  0.10352657428E+02  0.44518517583E+02 -0.22550144262E+02  0.50966617446E+02  0.10566000000E+00 0.  1.
         23    2    1    0    0    0  0.15580325498E+02  0.17581728778E+02  0.14809037332E+02  0.97320028518E+02  0.93273879701E+02 0.  0.
         13    1    3    3    0    0  0.52276680696E+01 -0.26936788805E+02  0.37359181594E+02  0.46353411071E+02  0.10566000000E+00 0. -1.
         22    1    1    0    0    0 -0.15580325498E+02 -0.17581728778E+02 -0.14809037332E+02  0.27769971482E+02  0.00000000000E+00 0.  1.
</event>
<event>
 5    1  0.1250806E-009  0.9118800E+02  0.7561462E-02  0.1125453E+00
         25   -1    0    0    0    0  0.00000000000E+00  0.00000000000E+00  0.99999998245E-14  0.12509000000E+03  0.12509000000E+03 0.  0.
        -13    1    3    3    0    0  0.34742093004E+02  0.18021416106E+02 -0.31433493636E+02  0.50198208643E+02  0.10566000000E+00 0. -1.
         23    2    1    0    0    0  0.21413873345E+02 -0.18498889943E+02 -0.76359598655E+01  0.95780090689E+02  0.91185278354E+02 0.  0.
         13    1    3    3    0    0 -0.13328219659E+02 -0.36520306050E+02  0.23797533770E+02  0.45581882046E+02  0.10566000000E+00 0.  1.
         22    1    1    0    0    0 -0.21413873345E+02  0.18498889943E+02  0.76359598655E+01  0.29309909311E+02  0.00000000000E+00 0. -1.
</event>
<event>
 5    1  0.1250806E-009  0.9118800E+02  0.7561462E-02  0.1125453E+00
         25   -1    0    0    0    0  0.00000000000E+00  0.00000000000E+00  0.99999998245E-14  0.12509000000E+03  0.12509000000E+03 0.  0.
        -13    1    3    3    0    0 -0.72250971925E+01 -0.28713440752E+02  0.18730544607E+02  0.35035812743E+02  0.10566000000E+00 0.  1.
         23    2    1    0    0    0  0.10566897028E+02  0.40574652079E+01 -0.28039706203E+02  0.94851821141E+02  0.89902839294E+02 0.  0.
         13    1    3    3    0    0  0.17791994221E+02  0.32770905960E+02 -0.46770250811E+02  0.59816008398E+02  0.10566000000E+00 0. -1.
         22    1    1    0    0    0 -0.10566897028E+02 -0.40574652079E+01  0.28039706203E+02  0.30238178859E+02  0.00000000000E+00 0. -1.
</event>
<event>
 5    1  0.1250806E-009  0.9118800E+02  0.7561462E-02  0.1125453E+00
         25   -1    0    0    0    0  0.00000000000E+00  0.00000000000E+00  0.99999998245E-14  0.12509000000E+03  0.12509000000E+03 0.  0.
        -13    1    3    3    0    0 -0.84530269765E+01  0.28272912534E+02  0.22405980762E+02  0.37051995711E+02  0.10566000000E+00 0. -1.
         23    2    1    0    0    0  0.43654188575E+01 -0.27451639782E+02  0.98955572846E+01  0.95584551986E+02  0.90916638279E+02 0.  0.
         13    1    3    3    0    0  0.12818445834E+02 -0.55724552316E+02 -0.12510423478E+02  0.58532556275E+02  0.10566000000E+00 0.  1.
         22    1    1    0    0    0 -0.43654188575E+01  0.27451639782E+02 -0.98955572846E+01  0.29505448014E+02  0.00000000000E+00 0.  1.
</event>
<event>
 5    1  0.1250806E-009  0.9118800E+02  0.7561462E-02  0.1125453E+00
         25   -1    0    0    0    0  0.00000000000E+00  0.00000000000E+00  0.99999998245E-14  0.12509000000E+03  0.12509000000E+03 0.  0.
        -13    1    3    3    0    0  0.35450569562E+02 -0.76912834580E+00 -0.94035100654E+01  0.36684759864E+02  0.10566000000E+00 0.  1.
         23    2    1    0    0    0 -0.11511198326E+02  0.13698573848E+02  0.23299993748E+02  0.95712315935E+02  0.91092255986E+02 0.  0.
         13    1    3    3    0    0 -0.46961767888E+02  0.14467702194E+02  0.32703503814E+02  0.59027556071E+02  0.10566000000E+00 0. -1.
         22    1    1    0    0    0  0.11511198326E+02 -0.13698573848E+02 -0.23299993748E+02  0.29377684065E+02  0.00000000000E+00 0. -1.
</event>
<event>
 5    1  0.1250806E-009  0.9118800E+02  0.7561462E-02  0.1125453E+00
         25   -1    0    0    0    0  0.00000000000E+00  0.00000000000E+00  0.99999998245E-14  0.12509000000E+03  0.12509000000E+03 0.  0.
        -13    1    3    3    0    0 -0.33587821076E+02  0.49202230963E+01 -0.50908420532E+01  0.34326056529E+02  0.10566000000E+00 0. -1.
         23    2    1    0    0    0  0.22994548398E+02  0.78411728233E+01  0.17318287350E+02  0.95254512338E+02  0.90461405012E+02 0.  0.
         13    1    3    3    0    0  0.56582369474E+02  0.29209497270E+01  0.22409129404E+02  0.60928455809E+02  0.10566000000E+00 0.  1.
         22    1    1    0    0    0 -0.22994548398E+02 -0.78411728233E+01 -0.17318287350E+02  0.29835487662E+02  0.00000000000E+00 0.  1.
</event>
<event>
 5    1  0.1250806E-009  0.9118800E+02  0.7561462E-02  0.1125453E+00
         25   -1    0    0    0    0  0.00000000000E+00  0.00000000000E+00  0.99999998245E-14  0.12509000000E+03  0.12509000000E+03 0.  0.
        -13    1    3    3    0    0 -0.44179228094E+02 -0.10845735011E+02 -0.13508640852E+02  0.47454490879E+02  0.10566000000E+00 0.  1.
         23    2    1    0    0    0 -0.10405791163E+02  0.84510542007E+01  0.21478162734E+02  0.99771779658E+02  0.96505936268E+02 0.  0.
         13    1    3    3    0    0  0.33773436930E+02  0.19296789212E+02  0.34986803586E+02  0.52317288779E+02  0.10566000000E+00 0. -1.
         22    1    1    0    0    0  0.10405791163E+02 -0.84510542007E+01 -0.21478162734E+02  0.25318220342E+02  0.00000000000E+00 0. -1.
</event>
<event>
 5    1  0.1250806E-009  0.9118800E+02  0.7561462E-02  0.1125453E+00
         25   -1    0    0    0    0  0.00000000000E+00  0.00000000000E+00  0.99999998245E-14  0.12509000000E+03  0.12509000000E+03 0.  0.
        -13    1    3    3    0    0  0.54337751752E+02  0.20367185104E+02  0.11155157813E+02  0.59091980881E+02  0.10566000000E+00 0. -1.
         23    2    1    0    0    0  0.19266229902E+02 -0.51873252269E+01 -0.33750385756E+01  0.10485421874E+03  0.10288304207E+03 0.  0.
         13    1    3    3    0    0 -0.35071521851E+02 -0.25554510331E+02 -0.14530196388E+02  0.45762237864E+02  0.10566000000E+00 0.  1.
         22    1    1    0    0    0 -0.19266229902E+02  0.51873252269E+01  0.33750385756E+01  0.20235781255E+02  0.00000000000E+00 0. -1.
</event>
<event>
 5    1  0.1250806E-009  0.9118800E+02  0.7561462E-02  0.1125453E+00
         25   -1    0    0    0    0  0.00000000000E+00  0.00000000000E+00  0.99999998245E-14  0.12509000000E+03  0.12509000000E+03 0.  0.
        -13    1    3    3    0    0  0.16344127658E+02  0.29172566812E+02 -0.28607707663E+02  0.44006604790E+02  0.10566000000E+00 0.  1.
         23    2    1    0    0    0 -0.98449873369E+01 -0.15126500759E+02 -0.23119644030E+02  0.95759934522E+02  0.91157623481E+02 0.  0.
         13    1    3    3    0    0 -0.26189114995E+02 -0.44299067571E+02  0.54880636335E+01  0.51753329733E+02  0.10566000000E+00 0. -1.
         22    1    1    0    0    0  0.98449873369E+01  0.15126500759E+02  0.23119644030E+02  0.29330065478E+02  0.00000000000E+00 0. -1.
</event>
<event>
 5    1  0.1250806E-009  0.9118800E+02  0.7561462E-02  0.1125453E+00
         25   -1    0    0    0    0  0.00000000000E+00  0.00000000000E+00  0.99999998245E-14  0.12509000000E+03  0.12509000000E+03 0.  0.
        -13    1    3    3    0    0  0.14715008941E+02  0.50198187563E+02 -0.18831158929E+02  0.55596881508E+02  0.10566000000E+00 0.  1.
         23    2    1    0    0    0  0.81661493092E+01  0.33607365218E+02  0.96332342129E+01  0.89188186775E+02  0.81643079728E+02 0.  0.
         13    1    3    3    0    0 -0.65488596321E+01 -0.16590822346E+02  0.28464393142E+02  0.33591305267E+02  0.10566000000E+00 0. -1.
         22    1    1    0    0    0 -0.81661493092E+01 -0.33607365218E+02 -0.96332342129E+01  0.35901813225E+02  0.00000000000E+00 0.  1.
</event>
<event>
 5    1  0.1250806E-009  0.9118800E+02  0.7561462E-02  0.1125453E+00
         25   -1    0    0    0    0  0.00000000000E+00  0.00000000000E+00  0.99999998245E-14  0.12509000000E+03  0.12509000000E+03 0.  0.
        -13    1    3    3    0    0  0.71600536702E+01  0.26180378075E+01  0.35655586936E+02  0.36461658415E+02  0.10566000000E+00 0. -1.
         23    2    1    0    0    0 -0.21281811110E+02  0.95422554144E+01 -0.16672120871E+02  0.96420683007E+02  0.92059862995E+02 0.  0.
         13    1    3    3    0    0 -0.28441864780E+02  0.69242176068E+01 -0.52327707808E+02  0.59959024592E+02  0.10566000000E+00 0.  1.
         22    1    1    0    0    0  0.21281811110E+02 -0.95422554144E+01  0.16672120871E+02  0.28669316993E+02  0.00000000000E+00 0.  1.
</event>
<event>
 5    1  0.1250806E-009  0.9118800E+02  0.7561462E-02  0.1125453E+00
         25   -1    0    0    0    0  0.00000000000E+00  0.00000000000E+00  0.99999998245E-14  0.12509000000E+03  0.12509000000E+03 0.  0.
        -13    1    3    3    0    0  0.30959254667E+02 -0.34863919755E+02 -0.26842199825E+02  0.53800401539E+02  0.10566000000E+00 0. -1.
         23    2    1    0    0    0  0.11711173444E+02  0.29439005363E+01 -0.26211485762E+02  0.96230684005E+02  0.91801331278E+02 0.  0.
         13    1    3    3    0    0 -0.19248081222E+02  0.37807820292E+02  0.63071406251E+00  0.42430282467E+02  0.10566000000E+00 0.  1.
         22    1    1    0    0    0 -0.11711173444E+02 -0.29439005363E+01  0.26211485762E+02  0.28859315995E+02  0.00000000000E+00 0. -1.
</event>
<event>
 5    1  0.1250806E-009  0.9118800E+02  0.7561462E-02  0.1125453E+00
         25   -1    0    0    0    0  0.00000000000E+00  0.00000000000E+00  0.99999998245E-14  0.12509000000E+03  0.12509000000E+03 0.  0.
        -13    1    3    3    0    0 -0.30534264226E+02 -0.17108620987E+02 -0.83435831820E+00  0.35010762941E+02  0.10566000000E+00 0.  1.
         23    2    1    0    0    0  0.14668863916E+02  0.23737436074E+02 -0.72155402148E+01  0.96268038572E+02  0.91852217121E+02 0.  0.
         13    1    3    3    0    0  0.45203128142E+02  0.40846057062E+02 -0.63811818966E+01  0.61257275631E+02  0.10566000000E+00 0. -1.
         22    1    1    0    0    0 -0.14668863916E+02 -0.23737436074E+02  0.72155402148E+01  0.28821961428E+02  0.00000000000E+00 0. -1.
</event>
<event>
 5    1  0.1250806E-009  0.9118800E+02  0.7561462E-02  0.1125453E+00
         25   -1    0    0    0    0  0.00000000000E+00  0.00000000000E+00  0.99999998245E-14  0.12509000000E+03  0.12509000000E+03 0.  0.
        -13    1    3    3    0    0  0.32666041441E+02 -0.95561698542E+01  0.10443158913E+02  0.35601423817E+02  0.10566000000E+00 0.  1.
         23    2    1    0    0    0 -0.11381005385E+02  0.17678627149E+02 -0.20331427913E+02  0.95842297485E+02  0.91270575131E+02 0.  0.
         13    1    3    3    0    0 -0.44047046826E+02  0.27234797003E+02 -0.30774586826E+02  0.60240873668E+02  0.10566000000E+00 0. -1.
         22    1    1    0    0    0  0.11381005385E+02 -0.17678627149E+02  0.20331427913E+02  0.29247702515E+02  0.00000000000E+00 0. -1.
</event>
<event>
 5    1  0.1250806E-009  0.9118800E+02  0.7561462E-02  0.1125453E+00
         25   -1    0    0    0    0  0.00000000000E+00  0.00000000000E+00  0.99999998245E-14  0.12509000000E+03  0.12509000000E+03 0.  0.
        -13    1    3    3    0    0  0.20633807170E+02 -0.17391059647E+02 -0.44473946568E+02  0.52020630920E+02  0.10566000000E+00 0. -1.
         23    2    1    0    0    0  0.25670107651E+02 -0.13652272893E+02 -0.94433736019E+00  0.95999954366E+02  0.91486395072E+02 0.  0.
         13    1    3    3    0    0  0.50363004803E+01  0.37387867542E+01  0.43529609208E+02  0.43979323446E+02  0.10566000000E+00 0.  1.
         22    1    1    0    0    0 -0.25670107651E+02  0.13652272893E+02  0.94433736019E+00  0.29090045634E+02  0.00000000000E+00 0. -1.
</event>
<event>
 5    1  0.1250806E-009  0.9118800E+02  0.7561462E-02  0.1125453E+00
         25   -1    0    0    0    0  0.00000000000E+00  0.00000000000E+00  0.99999998245E-14  0.12509000000E+03  0.12509000000E+03 0.  0.
        -13    1    3    3    0    0 -0.45123650889E+01  0.22456168458E+02 -0.32487047200E+02  0.39749972834E+02  0.10566000000E+00 0.  1.
         23    2    1    0    0    0  0.22111474054E+02  0.12718145421E+02  0.15323219221E+02  0.95333159525E+02  0.90570093021E+02 0.  0.
         13    1    3    3    0    0  0.26623839142E+02 -0.97380230365E+01  0.47810266421E+02  0.55583186690E+02  0.10566000000E+00 0. -1.
         22    1    1    0    0    0 -0.22111474054E+02 -0.12718145421E+02 -0.15323219221E+02  0.29756840475E+02  0.00000000000E+00 0. -1.
</event>
<event>
 5    1  0.1250806E-009  0.9118800E+02  0.7561462E-02  0.1125453E+00
         25   -1    0    0    0    0  0.00000000000E+00  0.00000000000E+00  0.99999998245E-14  0.12509000000E+03  0.12509000000E+03 0.  0.
        -13    1    3    3    0    0  0.64186383141E+01 -0.97542174199E+01  0.54559183198E+01  0.12888827876E+02  0.10566000000E+00 0. -1.
         23    2    1    0    0    0 -0.26292217599E+01  0.48160236377E+02 -0.14361643734E+02  0.74765274609E+02  0.55292570041E+02 0.  0.
         13    1    3    3    0    0 -0.90478600740E+01  0.57914453797E+02 -0.19817562053E+02  0.61876446733E+02  0.10566000000E+00 0.  1.
         22    1    1    0    0    0  0.26292217599E+01 -0.48160236377E+02  0.14361643734E+02  0.50324725391E+02  0.00000000000E+00 0.  1.
</event>
<event>
 5    1  0.1250806E-009  0.9118800E+02  0.7561462E-02  0.1125453E+00
         25   -1    0    0    0    0  0.00000000000E+00  0.00000000000E+00  0.99999998245E-14  0.12509000000E+03  0.12509000000E+03 0.  0.
        -13    1    3    3    0    0 -0.75109181543E+01  0.45100680635E+02  0.25596700304E+02  0.52399308351E+02  0.10566000000E+00 0. -1.
         23    2    1    0    0    0  0.21709603263E+02  0.18684113736E+02  0.10605202821E+02  0.94547025246E+02  0.89477744026E+02 0.  0.
         13    1    3    3    0    0  0.29220521418E+02 -0.26416566899E+02 -0.14991497483E+02  0.42147716895E+02  0.10566000000E+00 0.  1.
         22    1    1    0    0    0 -0.21709603263E+02 -0.18684113736E+02 -0.10605202821E+02  0.30542974754E+02  0.00000000000E+00 0. -1.
</event>
<event>
 4    1  0.1250806E-009  0.9118800E+02  0.7561462E-02  0.1125453E+00
         25   -1    0    0    0    0  0.00000000000E+00  0.00000000000E+00  0.99999998245E-14  0.12509000000E+03  0.12509000000E+03 0.  0.
        -13    1    1    0    0    0  0.92182858328E+01 -0.13165396738E+02 -0.34426826189E+02  0.37993709880E+02  0.10566000000E+00 0. -1.
         13    1    1    0    0    0  0.25578936652E+01 -0.32465639298E+02  0.10321185581E+02  0.34162824690E+02  0.10566000000E+00 0.  1.
         22    1    1    0    0    0 -0.11776179498E+02  0.45631036035E+02  0.24105640609E+02  0.52933465429E+02  0.00000000000E+00 0. -1.
</event>
<event>
 5    1  0.1250806E-009  0.9118800E+02  0.7561462E-02  0.1125453E+00
         25   -1    0    0    0    0  0.00000000000E+00  0.00000000000E+00  0.99999998245E-14  0.12509000000E+03  0.12509000000E+03 0.  0.
        -13    1    3    3    0    0 -0.23188028822E+02  0.22488053555E+02  0.43767859467E+02  0.54397002856E+02  0.10566000000E+00 0. -1.
         23    2    1    0    0    0  0.89126019220E+01  0.92530922483E+01  0.31242355371E+02  0.91309251662E+02  0.84830657670E+02 0.  0.
         13    1    3    3    0    0  0.32100630744E+02 -0.13234961306E+02 -0.12525504096E+02  0.36912248805E+02  0.10566000000E+00 0.  1.
         22    1    1    0    0    0 -0.89126019220E+01 -0.92530922483E+01 -0.31242355371E+02  0.33780748338E+02  0.00000000000E+00 0. -1.
</event>
<event>
 5    1  0.1250806E-009  0.9118800E+02  0.7561462E-02  0.1125453E+00
         25   -1    0    0    0    0  0.00000000000E+00  0.00000000000E+00  0.99999998245E-14  0.12509000000E+03  0.12509000000E+03 0.  0.
        -13    1    3    3    0    0 -0.59851279066E+02  0.87961351940E+01  0.15382665893E+02  0.62419429460E+02  0.10566000000E+00 0. -1.
         23    2    1    0    0    0 -0.26558280913E+02  0.15832570983E+01  0.83675203028E+01  0.97199779776E+02  0.93112473946E+02 0.  0.
         13    1    3    3    0    0  0.33292998152E+02 -0.72128780957E+01 -0.70151455902E+01  0.34780350316E+02  0.10566000000E+00 0.  1.
         22    1    1    0    0    0  0.26558280913E+02 -0.15832570983E+01 -0.83675203028E+01  0.27890220224E+02  0.00000000000E+00 0. -1.
</event>
<event>
 5    1  0.1250806E-009  0.9118800E+02  0.7561462E-02  0.1125453E+00
         25   -1    0    0    0    0  0.00000000000E+00  0.00000000000E+00  0.99999998245E-14  0.12509000000E+03  0.12509000000E+03 0.  0.
        -13    1    3    3    0    0 -0.21560234947E+02 -0.67040760358E+01 -0.30916494046E+02  0.38283536077E+02  0.10566000000E+00 0.  1.
         23    2    1    0    0    0  0.23721777649E+02 -0.19361147891E+02 -0.15588908910E+00  0.94469727566E+02  0.89369616440E+02 0.  0.
         13    1    3    3    0    0  0.45282012595E+02 -0.12657071856E+02  0.30760604957E+02  0.56186191489E+02  0.10566000000E+00 0. -1.
         22    1    1    0    0    0 -0.23721777649E+02  0.19361147891E+02  0.15588908910E+00  0.30620272434E+02  0.00000000000E+00 0. -1.
</event>
<event>
 5    1  0.1250806E-009  0.9118800E+02  0.7561462E-02  0.1125453E+00
         25   -1    0    0    0    0  0.00000000000E+00  0.00000000000E+00  0.99999998245E-14  0.12509000000E+03  0.12509000000E+03 0.  0.
        -13    1    3    3    0    0 -0.30508407930E+02  0.49974279805E+02 -0.15067392393E+02  0.60458490504E+02  0.10566000000E+00 0. -1.
         23    2    1    0    0    0 -0.88981132050E+01  0.25394322505E+02  0.32854203639E+01  0.97982030303E+02  0.94157507620E+02 0.  0.
         13    1    3    3    0    0  0.21610294725E+02 -0.24579957299E+02  0.18352812757E+02  0.37523539799E+02  0.10566000000E+00 0.  1.
         22    1    1    0    0    0  0.88981132050E+01 -0.25394322505E+02 -0.32854203639E+01  0.27107969697E+02  0.00000000000E+00 0. -1.
</event>
<event>
 5    1  0.1250806E-009  0.9118800E+02  0.7561462E-02  0.1125453E+00
         25   -1    0    0    0    0  0.00000000000E+00  0.00000000000E+00  0.99999998245E-14  0.12509000000E+03  0.12509000000E+03 0.  0.
        -13    1    3    3    0    0 -0.42810438817E+02  0.17492679055E+02 -0.40149295699E+02  0.61242996345E+02  0.10566000000E+00 0. -1.
         23    2    1    0    0    0 -0.24393902152E+02  0.14172561222E+02 -0.13480289531E+02  0.93822730218E+02  0.88459383594E+02 0.  0.
         13    1    3    3    0    0  0.18416536665E+02 -0.33201178325E+01  0.26669006168E+02  0.32579733872E+02  0.10566000000E+00 0.  1.
         22    1    1    0    0    0  0.24393902152E+02 -0.14172561222E+02  0.13480289531E+02  0.31267269782E+02  0.00000000000E+00 0. -1.
</event>
<event>
 5    1  0.1250806E-009  0.9118800E+02  0.7561462E-02  0.1125453E+00
         25   -1    0    0    0    0  0.00000000000E+00  0.00000000000E+00  0.99999998245E-14  0.12509000000E+03  0.12509000000E+03 0.  0.
        -13    1    3    3    0    0 -0.29710986054E+02  0.28435149052E+02 -0.57420347208E+01  0.41524480980E+02  0.10566000000E+00 0.  1.
         23    2    1    0    0    0  0.22564606023E+02  0.17868846040E+02 -0.89329765876E+01  0.94952727820E+02  0.90043130476E+02 0.  0.
         13    1    3    3    0    0  0.52275592077E+02 -0.10566303012E+02 -0.31909418668E+01  0.53428246840E+02  0.10566000000E+00 0. -1.
         22    1    1    0    0    0 -0.22564606023E+02 -0.17868846040E+02  0.89329765876E+01  0.30137272180E+02  0.00000000000E+00 0. -1.
</event>
<event>
 5    1  0.1250806E-009  0.9118800E+02  0.7561462E-02  0.1125453E+00
         25   -1    0    0    0    0  0.00000000000E+00  0.00000000000E+00  0.99999998245E-14  0.12509000000E+03  0.12509000000E+03 0.  0.
        -13    1    3    3    0    0 -0.17807075924E+02  0.40044825433E+02  0.33306252651E+02  0.55045414220E+02  0.10566000000E+00 0.  1.
         23    2    1    0    0    0 -0.19634769663E+02  0.12278894394E+01  0.22127851127E+02  0.95481324115E+02  0.90774498440E+02 0.  0.
         13    1    3    3    0    0 -0.18276937393E+01 -0.38816935994E+02 -0.11178401525E+02  0.40435909895E+02  0.10566000000E+00 0. -1.
         22    1    1    0    0    0  0.19634769663E+02 -0.12278894394E+01 -0.22127851127E+02  0.29608675885E+02  0.00000000000E+00 0.  1.
</event>
<event>
 5    1  0.1250806E-009  0.9118800E+02  0.7561462E-02  0.1125453E+00
         25   -1    0    0    0    0  0.00000000000E+00  0.00000000000E+00  0.99999998245E-14  0.12509000000E+03  0.12509000000E+03 0.  0.
        -13    1    3    3    0    0  0.10067363966E+02 -0.34915006977E+02 -0.33804209262E+02  0.49630084196E+02  0.10566000000E+00 0. -1.
         23    2    1    0    0    0 -0.89010577625E+01  0.75162142038E+01 -0.25785453012E+02  0.96794913991E+02  0.92566967554E+02 0.  0.
         13    1    3    3    0    0 -0.18968421728E+02  0.42431221181E+02  0.80187562498E+01  0.47164829795E+02  0.10566000000E+00 0.  1.
         22    1    1    0    0    0  0.89010577625E+01 -0.75162142038E+01  0.25785453012E+02  0.28295086009E+02  0.00000000000E+00 0.  1.
</event>
<event>
 5    1  0.1250806E-009  0.9118800E+02  0.7561462E-02  0.1125453E+00
         25   -1    0    0    0    0  0.00000000000E+00  0.00000000000E+00  0.99999998245E-14  0.12509000000E+03  0.12509000000E+03 0.  0.
        -13    1    3    3    0    0 -0.25150738468E+02  0.19927984725E+02 -0.24907074635E+02  0.40620902890E+02  0.10566000000E+00 0. -1.
         23    2    1    0    0    0 -0.54873998661E+01 -0.27510161097E+02 -0.16170649911E+02  0.92710833250E+02  0.86872827527E+02 0.  0.
         13    1    3    3    0    0  0.19663338602E+02 -0.47438145822E+02  0.87364247244E+01  0.52089930360E+02  0.10566000000E+00 0.  1.
         22    1    1    0    0    0  0.54873998661E+01  0.27510161097E+02  0.16170649911E+02  0.32379166750E+02  0.00000000000E+00 0.  1.
</event>
<event>
 5    1  0.1250806E-009  0.9118800E+02  0.7561462E-02  0.1125453E+00
         25   -1    0    0    0    0  0.00000000000E+00  0.00000000000E+00  0.99999998245E-14  0.12509000000E+03  0.12509000000E+03 0.  0.
        -13    1    3    3    0    0 -0.35474773158E+02  0.96246250527E+00 -0.22537435806E+02  0.42039660339E+02  0.10566000000E+00 0.  1.
         23    2    1    0    0    0 -0.13248216816E+02 -0.15266740797E+01  0.26215170491E+02  0.95677738162E+02  0.91044760603E+02 0.  0.
         13    1    3    3    0    0  0.22226556342E+02 -0.24891365849E+01  0.48752606297E+02  0.53638077823E+02  0.10566000000E+00 0. -1.
         22    1    1    0    0    0  0.13248216816E+02  0.15266740797E+01 -0.26215170491E+02  0.29412261838E+02  0.00000000000E+00 0. -1.
</event>
<event>
 5    1  0.1250806E-009  0.9118800E+02  0.7561462E-02  0.1125453E+00
         25   -1    0    0    0    0  0.00000000000E+00  0.00000000000E+00  0.99999998245E-14  0.12509000000E+03  0.12509000000E+03 0.  0.
        -13    1    3    3    0    0  0.42917525700E+02 -0.88684495335E+01 -0.11156418787E+02  0.45222121285E+02  0.10566000000E+00 0.  1.
         23    2    1    0    0    0  0.10016250629E+02 -0.43510331010E+00  0.26989871189E+02  0.96298200154E+02  0.91893283839E+02 0.  0.
         13    1    3    3    0    0 -0.32901275070E+02  0.84333462234E+01  0.38146289976E+02  0.51076078870E+02  0.10566000000E+00 0. -1.
         22    1    1    0    0    0 -0.10016250629E+02  0.43510331010E+00 -0.26989871189E+02  0.28791799846E+02  0.00000000000E+00 0. -1.
</event>
<event>
 5    1  0.1250806E-009  0.9118800E+02  0.7561462E-02  0.1125453E+00
         25   -1    0    0    0    0  0.00000000000E+00  0.00000000000E+00  0.99999998245E-14  0.12509000000E+03  0.12509000000E+03 0.  0.
        -13    1    3    3    0    0  0.16003407528E+02 -0.16001577663E+02  0.47370997624E+02  0.52499353521E+02  0.10566000000E+00 0.  1.
         23    2    1    0    0    0 -0.17810610123E+02 -0.51841205006E+01  0.22906187211E+02  0.95614818052E+02  0.90958271094E+02 0.  0.
         13    1    3    3    0    0 -0.33814017651E+02  0.10817457163E+02 -0.24464810413E+02  0.43115464531E+02  0.10566000000E+00 0. -1.
         22    1    1    0    0    0  0.17810610123E+02  0.51841205006E+01 -0.22906187211E+02  0.29475181948E+02  0.00000000000E+00 0. -1.
</event>
<event>
 5    1  0.1250806E-009  0.9118800E+02  0.7561462E-02  0.1125453E+00
         25   -1    0    0    0    0  0.00000000000E+00  0.00000000000E+00  0.99999998245E-14  0.12509000000E+03  0.12509000000E+03 0.  0.
        -13    1    3    3    0    0  0.26102536989E+02 -0.31083573509E+02 -0.86636132489E+01  0.41504220724E+02  0.10566000000E+00 0.  1.
         23    2    1    0    0    0  0.45018751631E+01  0.17920982024E+02 -0.21666492283E+02  0.96614302211E+02  0.92322575935E+02 0.  0.
         13    1    3    3    0    0 -0.21600661826E+02  0.49004555533E+02 -0.13002879034E+02  0.55110081487E+02  0.10566000000E+00 0. -1.
         22    1    1    0    0    0 -0.45018751631E+01 -0.17920982024E+02  0.21666492283E+02  0.28475697789E+02  0.00000000000E+00 0.  1.
</event>
<event>
 5    1  0.1250806E-009  0.9118800E+02  0.7561462E-02  0.1125453E+00
         25   -1    0    0    0    0  0.00000000000E+00  0.00000000000E+00  0.99999998245E-14  0.12509000000E+03  0.12509000000E+03 0.  0.
        -13    1    3    3    0    0  0.34434089276E+02  0.45022623307E+02 -0.12848637720E+02  0.58119203100E+02  0.10566000000E+00 0. -1.
         23    2    1    0    0    0  0.20576039765E+02  0.11213542121E+02 -0.18682046780E+02  0.95121085919E+02  0.90276714469E+02 0.  0.
         13    1    3    3    0    0 -0.13858049511E+02 -0.33809081186E+02 -0.58334090600E+01  0.37001882819E+02  0.10566000000E+00 0.  1.
         22    1    1    0    0    0 -0.20576039765E+02 -0.11213542121E+02  0.18682046780E+02  0.29968914081E+02  0.00000000000E+00 0. -1.
</event>
<event>
 5    1  0.1250806E-009  0.9118800E+02  0.7561462E-02  0.1125453E+00
         25   -1    0    0    0    0  0.00000000000E+00  0.00000000000E+00  0.99999998245E-14  0.12509000000E+03  0.12509000000E+03 0.  0.
        -13    1    3    3    0    0  0.34955892425E+02  0.36068476426E+02  0.47328983598E+01  0.50450578766E+02  0.10566000000E+00 0.  1.
         23    2    1    0    0    0 -0.95893471619E+01  0.27431862208E+02  0.32435307075E+01  0.95849905358E+02  0.91281001433E+02 0.  0.
         13    1    3    3    0    0 -0.44545239587E+02 -0.86366142179E+01 -0.14893676523E+01  0.45399326592E+02  0.10566000000E+00 0. -1.
         22    1    1    0    0    0  0.95893471619E+01 -0.27431862208E+02 -0.32435307075E+01  0.29240094642E+02  0.00000000000E+00 0.  1.
</event>
<event>
 5    1  0.1250806E-009  0.9118800E+02  0.7561462E-02  0.1125453E+00
         25   -1    0    0    0    0  0.00000000000E+00  0.00000000000E+00  0.99999998245E-14  0.12509000000E+03  0.12509000000E+03 0.  0.
        -13    1    3    3    0    0  0.11743145965E+01 -0.24008801664E+02  0.10571282213E+02  0.26259564806E+02  0.10566000000E+00 0. -1.
         23    2    1    0    0    0  0.86332390427E+01  0.12863729296E+02 -0.35864966609E+02  0.86022056905E+02  0.76638698427E+02 0.  0.
         13    1    3    3    0    0  0.74589244462E+01  0.36872530960E+02 -0.46436248822E+02  0.59762492100E+02  0.10566000000E+00 0.  1.
         22    1    1    0    0    0 -0.86332390427E+01 -0.12863729296E+02  0.35864966609E+02  0.39067943095E+02  0.00000000000E+00 0.  1.
</event>
<event>
 5    1  0.1250806E-009  0.9118800E+02  0.7561462E-02  0.1125453E+00
         25   -1    0    0    0    0  0.00000000000E+00  0.00000000000E+00  0.99999998245E-14  0.12509000000E+03  0.12509000000E+03 0.  0.
        -13    1    3    3    0    0 -0.45517501585E+02 -0.23827666687E+02 -0.89830746853E+01  0.52156566654E+02  0.10566000000E+00 0. -1.
         23    2    1    0    0    0 -0.23865213907E+02  0.69310546659E+01  0.14322586444E+02  0.96406826604E+02  0.92041033131E+02 0.  0.
         13    1    3    3    0    0  0.21652287678E+02  0.30758721353E+02  0.23305661129E+02  0.44250259950E+02  0.10566000000E+00 0.  1.
         22    1    1    0    0    0  0.23865213907E+02 -0.69310546659E+01 -0.14322586444E+02  0.28683173396E+02  0.00000000000E+00 0. -1.
</event>
<event>
 5    1  0.1250806E-009  0.9118800E+02  0.7561462E-02  0.1125453E+00
         25   -1    0    0    0    0  0.00000000000E+00  0.00000000000E+00  0.99999998245E-14  0.12509000000E+03  0.12509000000E+03 0.  0.
        -13    1    3    3    0    0 -0.26770433639E+02  0.60565665119E+00 -0.33535784528E+02  0.42914833626E+02  0.10566000000E+00 0. -1.
         23    2    1    0    0    0  0.23800204168E+02  0.91506623189E+00 -0.15807563680E+02  0.96503882143E+02  0.92172843802E+02 0.  0.
         13    1    3    3    0    0  0.50570637807E+02  0.30940958070E+00  0.17728220848E+02  0.53589048517E+02  0.10566000000E+00 0.  1.
         22    1    1    0    0    0 -0.23800204168E+02 -0.91506623189E+00  0.15807563680E+02  0.28586117857E+02  0.00000000000E+00 0.  1.
</event>
<event>
 5    1  0.1250806E-009  0.9118800E+02  0.7561462E-02  0.1125453E+00
         25   -1    0    0    0    0  0.00000000000E+00  0.00000000000E+00  0.99999998245E-14  0.12509000000E+03  0.12509000000E+03 0.  0.
        -13    1    3    3    0    0 -0.24193710365E+02  0.43958960210E+02 -0.35711611932E+02  0.61587792579E+02  0.10566000000E+00 0.  1.
         23    2    1    0    0    0 -0.17712717542E+02  0.16302719825E+02 -0.17457876484E+02  0.95352876942E+02  0.90597321447E+02 0.  0.
         13    1    3    3    0    0  0.64809928227E+01 -0.27656240385E+02  0.18253735448E+02  0.33765084363E+02  0.10566000000E+00 0. -1.
         22    1    1    0    0    0  0.17712717542E+02 -0.16302719825E+02  0.17457876484E+02  0.29737123058E+02  0.00000000000E+00 0.  1.
</event>
<event>
 5    1  0.1250806E-009  0.9118800E+02  0.7561462E-02  0.1125453E+00
         25   -1    0    0    0    0  0.00000000000E+00  0.00000000000E+00  0.99999998245E-14  0.12509000000E+03  0.12509000000E+03 0.  0.
        -13    1    3    3    0    0  0.48648884540E+02  0.21336347893E+02  0.19463020878E+02  0.56575383817E+02  0.10566000000E+00 0.  1.
         23    2    1    0    0    0  0.36033212302E+02  0.91812446051E+01 -0.59405016823E+01  0.87433961951E+02  0.78909571669E+02 0.  0.
         13    1    3    3    0    0 -0.12615672238E+02 -0.12155103288E+02 -0.25403522560E+02  0.30858578134E+02  0.10566000000E+00 0. -1.
         22    1    1    0    0    0 -0.36033212302E+02 -0.91812446051E+01  0.59405016823E+01  0.37656038049E+02  0.00000000000E+00 0.  1.
</event>
<event>
 5    1  0.1250806E-009  0.9118800E+02  0.7561462E-02  0.1125453E+00
         25   -1    0    0    0    0  0.00000000000E+00  0.00000000000E+00  0.99999998245E-14  0.12509000000E+03  0.12509000000E+03 0.  0.
        -13    1    3    3    0    0 -0.16930266533E+02 -0.22776593541E+02  0.37825425498E+02  0.47288276733E+02  0.10566000000E+00 0.  1.
         23    2    1    0    0    0 -0.91473325796E+01 -0.24120715950E+02 -0.11214942246E+02  0.96960699247E+02  0.92790730343E+02 0.  0.
         13    1    3    3    0    0  0.77829339531E+01 -0.13441224090E+01 -0.49040367744E+02  0.49672422514E+02  0.10566000000E+00 0. -1.
         22    1    1    0    0    0  0.91473325796E+01  0.24120715950E+02  0.11214942246E+02  0.28129300753E+02  0.00000000000E+00 0. -1.
</event>
<event>
 5    1  0.1250806E-009  0.9118800E+02  0.7561462E-02  0.1125453E+00
         25   -1    0    0    0    0  0.00000000000E+00  0.00000000000E+00  0.99999998245E-14  0.12509000000E+03  0.12509000000E+03 0.  0.
        -13    1    3    3    0    0  0.22449072441E+02 -0.18456323724E+02 -0.55064798180E+02  0.62263471646E+02  0.10566000000E+00 0.  1.
         23    2    1    0    0    0  0.89074911637E+01 -0.12729129391E+02 -0.27477177627E+02  0.93524680040E+02  0.88036903355E+02 0.  0.
         13    1    3    3    0    0 -0.13541581277E+02  0.57271943329E+01  0.27587620553E+02  0.31261208394E+02  0.10566000000E+00 0. -1.
         22    1    1    0    0    0 -0.89074911637E+01  0.12729129391E+02  0.27477177627E+02  0.31565319960E+02  0.00000000000E+00 0.  1.
</event>
<event>
 5    1  0.1250806E-009  0.9118800E+02  0.7561462E-02  0.1125453E+00
         25   -1    0    0    0    0  0.00000000000E+00  0.00000000000E+00  0.99999998245E-14  0.12509000000E+03  0.12509000000E+03 0.  0.
        -13    1    3    3    0    0  0.65982745012E+00  0.37084969443E+02  0.55810651794E+01  0.37508529476E+02  0.10566000000E+00 0.  1.
         23    2    1    0    0    0  0.24277249484E+02 -0.16117014546E+02  0.33248794157E+01  0.95760870734E+02  0.91158908178E+02 0.  0.
         13    1    3    3    0    0  0.23617422034E+02 -0.53201983989E+02 -0.22561857637E+01  0.58252341258E+02  0.10566000000E+00 0. -1.
         22    1    1    0    0    0 -0.24277249484E+02  0.16117014546E+02 -0.33248794157E+01  0.29329129266E+02  0.00000000000E+00 0. -1.
</event>
<event>
 5    1  0.1250806E-009  0.9118800E+02  0.7561462E-02  0.1125453E+00
         25   -1    0    0    0    0  0.00000000000E+00  0.00000000000E+00  0.99999998245E-14  0.12509000000E+03  0.12509000000E+03 0.  0.
        -13    1    3    3    0    0  0.42754095856E+02  0.15869532068E+02 -0.41667809662E+02  0.61773556532E+02  0.10566000000E+00 0.  1.
         23    2    1    0    0    0  0.18442212590E+02  0.13944038444E+02 -0.17651644642E+02  0.96001652300E+02  0.91488716640E+02 0.  0.
         13    1    3    3    0    0 -0.24311883267E+02 -0.19254936232E+01  0.24016165020E+02  0.34228095769E+02  0.10566000000E+00 0. -1.
         22    1    1    0    0    0 -0.18442212590E+02 -0.13944038444E+02  0.17651644642E+02  0.29088347700E+02  0.00000000000E+00 0.  1.
</event>
<event>
 5    1  0.1250806E-009  0.9118800E+02  0.7561462E-02  0.1125453E+00
         25   -1    0    0    0    0  0.00000000000E+00  0.00000000000E+00  0.99999998245E-14  0.12509000000E+03  0.12509000000E+03 0.  0.
        -13    1    3    3    0    0 -0.54006898306E+02 -0.24659673692E+02 -0.13393764283E+02  0.60862539028E+02  0.10566000000E+00 0.  1.
         23    2    1    0    0    0 -0.33872984412E+02 -0.20561664497E+02  0.13684554173E+00  0.85464505094E+02  0.75723191853E+02 0.  0.
         13    1    3    3    0    0  0.20133913894E+02  0.40980091955E+01  0.13530609824E+02  0.24601966066E+02  0.10566000000E+00 0. -1.
         22    1    1    0    0    0  0.33872984412E+02  0.20561664497E+02 -0.13684554173E+00  0.39625494906E+02  0.00000000000E+00 0.  1.
</event>
<event>
 5    1  0.1250806E-009  0.9118800E+02  0.7561462E-02  0.1125453E+00
         25   -1    0    0    0    0  0.00000000000E+00  0.00000000000E+00  0.99999998245E-14  0.12509000000E+03  0.12509000000E+03 0.  0.
        -13    1    3    3    0    0 -0.29013500352E+02  0.44751352405E+02  0.26696181217E+02  0.59641965094E+02  0.10566000000E+00 0.  1.
         23    2    1    0    0    0 -0.19360345833E+02  0.98111978261E+01  0.17933216325E+02  0.96935376200E+02  0.92756586384E+02 0.  0.
         13    1    3    3    0    0  0.96531545180E+01 -0.34940154579E+02 -0.87629648917E+01  0.37293411105E+02  0.10566000000E+00 0. -1.
         22    1    1    0    0    0  0.19360345833E+02 -0.98111978261E+01 -0.17933216325E+02  0.28154623800E+02  0.00000000000E+00 0.  1.
</event>
<event>
 5    1  0.1250806E-009  0.9118800E+02  0.7561462E-02  0.1125453E+00
         25   -1    0    0    0    0  0.00000000000E+00  0.00000000000E+00  0.99999998245E-14  0.12509000000E+03  0.12509000000E+03 0.  0.
        -13    1    3    3    0    0  0.41407638769E+01  0.25379731227E+02  0.24540042729E+02  0.35545766890E+02  0.10566000000E+00 0. -1.
         23    2    1    0    0    0  0.14112644170E+02 -0.26184527687E+02 -0.35970107678E+01  0.95127778752E+02  0.90285987773E+02 0.  0.
         13    1    3    3    0    0  0.99718802928E+01 -0.51564258914E+02 -0.28137053497E+02  0.59582011861E+02  0.10566000000E+00 0.  1.
         22    1    1    0    0    0 -0.14112644170E+02  0.26184527687E+02  0.35970107678E+01  0.29962221248E+02  0.00000000000E+00 0.  1.
</event>
<event>
 5    1  0.1250806E-009  0.9118800E+02  0.7561462E-02  0.1125453E+00
         25   -1    0    0    0    0  0.00000000000E+00  0.00000000000E+00  0.99999998245E-14  0.12509000000E+03  0.12509000000E+03 0.  0.
        -13    1    3    3    0    0 -0.55251855199E+02 -0.25655131605E+02  0.29422804290E+01  0.60988699435E+02  0.10566000000E+00 0. -1.
         23    2    1    0    0    0 -0.20629813524E+02 -0.19369339232E+02  0.54734531669E+01  0.96267800259E+02  0.91851892571E+02 0.  0.
         13    1    3    3    0    0  0.34622041675E+02  0.62857923727E+01  0.25311727379E+01  0.35279100824E+02  0.10566000000E+00 0.  1.
         22    1    1    0    0    0  0.20629813524E+02  0.19369339232E+02 -0.54734531669E+01  0.28822199741E+02  0.00000000000E+00 0. -1.
</event>
<event>
 5    1  0.1250806E-009  0.9118800E+02  0.7561462E-02  0.1125453E+00
         25   -1    0    0    0    0  0.00000000000E+00  0.00000000000E+00  0.99999998245E-14  0.12509000000E+03  0.12509000000E+03 0.  0.
        -13    1    3    3    0    0 -0.48162687748E+01  0.28095762710E+02 -0.15369559876E+02  0.32385225983E+02  0.10566000000E+00 0.  1.
         23    2    1    0    0    0 -0.60763579096E+01 -0.23201478183E+02  0.19293638580E+02  0.94308914818E+02  0.89144243837E+02 0.  0.
         13    1    3    3    0    0 -0.12600891348E+01 -0.51297240893E+02  0.34663198455E+02  0.61923688836E+02  0.10566000000E+00 0. -1.
         22    1    1    0    0    0  0.60763579096E+01  0.23201478183E+02 -0.19293638580E+02  0.30781085182E+02  0.00000000000E+00 0. -1.
</event>
<event>
 5    1  0.1250806E-009  0.9118800E+02  0.7561462E-02  0.1125453E+00
         25   -1    0    0    0    0  0.00000000000E+00  0.00000000000E+00  0.99999998245E-14  0.12509000000E+03  0.12509000000E+03 0.  0.
        -13    1    3    3    0    0  0.16191422413E+02 -0.37671609308E+02  0.12369402721E+02  0.42829027485E+02  0.10566000000E+00 0.  1.
         23    2    1    0    0    0  0.10375436285E+02 -0.13100893084E+01 -0.26638397140E+02  0.96472344360E+02  0.92130033171E+02 0.  0.
         13    1    3    3    0    0 -0.58159861287E+01  0.36361519999E+02 -0.39007799862E+02  0.53643316875E+02  0.10566000000E+00 0. -1.
         22    1    1    0    0    0 -0.10375436285E+02  0.13100893084E+01  0.26638397140E+02  0.28617655640E+02  0.00000000000E+00 0. -1.
</event>
<event>
 5    1  0.1250806E-009  0.9118800E+02  0.7561462E-02  0.1125453E+00
         25   -1    0    0    0    0  0.00000000000E+00  0.00000000000E+00  0.99999998245E-14  0.12509000000E+03  0.12509000000E+03 0.  0.
        -13    1    3    3    0    0  0.35459849829E+02 -0.31908732960E+02  0.39207909541E+02  0.61748194497E+02  0.10566000000E+00 0. -1.
         23    2    1    0    0    0  0.17037090846E+02 -0.76979714109E+01  0.19923513321E+02  0.97768440539E+02  0.93873320779E+02 0.  0.
         13    1    3    3    0    0 -0.18422758983E+02  0.24210761549E+02 -0.19284396220E+02  0.36020246042E+02  0.10566000000E+00 0.  1.
         22    1    1    0    0    0 -0.17037090846E+02  0.76979714109E+01 -0.19923513321E+02  0.27321559461E+02  0.00000000000E+00 0. -1.
</event>
<event>
 5    1  0.1250806E-009  0.9118800E+02  0.7561462E-02  0.1125453E+00
         25   -1    0    0    0    0  0.00000000000E+00  0.00000000000E+00  0.99999998245E-14  0.12509000000E+03  0.12509000000E+03 0.  0.
        -13    1    3    3    0    0 -0.54944695714E+02  0.23646230319E+01 -0.26732270113E+02  0.61148478792E+02  0.10566000000E+00 0.  1.
         23    2    1    0    0    0 -0.23718999625E+02 -0.77162308733E+01 -0.14936962392E+02  0.96016919537E+02  0.91509588731E+02 0.  0.
         13    1    3    3    0    0  0.31225696089E+02 -0.10080853905E+02  0.11795307721E+02  0.34868440744E+02  0.10566000000E+00 0. -1.
         22    1    1    0    0    0  0.23718999625E+02  0.77162308733E+01  0.14936962392E+02  0.29073080463E+02  0.00000000000E+00 0.  1.
</event>
<event>
 5    1  0.1250806E-009  0.9118800E+02  0.7561462E-02  0.1125453E+00
         25   -1    0    0    0    0  0.00000000000E+00  0.00000000000E+00  0.99999998245E-14  0.12509000000E+03  0.12509000000E+03 0.  0.
        -13    1    3    3    0    0  0.41326832519E+02  0.61441797411E+00  0.18161700302E+02  0.45145798447E+02  0.10566000000E+00 0.  1.
         23    2    1    0    0    0  0.11275610561E+02 -0.23102529231E+02 -0.14593593890E+02  0.95529228139E+02  0.90840487646E+02 0.  0.
         13    1    3    3    0    0 -0.30051221957E+02 -0.23716947205E+02 -0.32755294192E+02  0.50383429692E+02  0.10566000000E+00 0. -1.
         22    1    1    0    0    0 -0.11275610561E+02  0.23102529231E+02  0.14593593890E+02  0.29560771861E+02  0.00000000000E+00 0. -1.
</event>
<event>
 5    1  0.1250806E-009  0.9118800E+02  0.7561462E-02  0.1125453E+00
         25   -1    0    0    0    0  0.00000000000E+00  0.00000000000E+00  0.99999998245E-14  0.12509000000E+03  0.12509000000E+03 0.  0.
        -13    1    3    3    0    0  0.20059288149E+02  0.20582172298E+02 -0.16434707114E+02  0.33107576467E+02  0.10566000000E+00 0.  1.
         23    2    1    0    0    0 -0.15116622985E+02 -0.19706069953E+02  0.15894620209E+02  0.95603046358E+02  0.90942080677E+02 0.  0.
         13    1    3    3    0    0 -0.35175911134E+02 -0.40288242251E+02  0.32329327323E+02  0.62495469892E+02  0.10566000000E+00 0. -1.
         22    1    1    0    0    0  0.15116622985E+02  0.19706069953E+02 -0.15894620209E+02  0.29486953642E+02  0.00000000000E+00 0. -1.
</event>
<event>
 5    1  0.1250806E-009  0.9118800E+02  0.7561462E-02  0.1125453E+00
         25   -1    0    0    0    0  0.00000000000E+00  0.00000000000E+00  0.99999998245E-14  0.12509000000E+03  0.12509000000E+03 0.  0.
        -13    1    3    3    0    0 -0.36628183064E+02 -0.32367058022E+02 -0.91072700470E+01  0.49721260758E+02  0.10566000000E+00 0.  1.
         23    2    1    0    0    0 -0.75370382464E+01 -0.16528862652E+02 -0.30811327414E+02  0.89322023498E+02  0.81847881699E+02 0.  0.
         13    1    3    3    0    0  0.29091144818E+02  0.15838195370E+02 -0.21704057366E+02  0.39600762740E+02  0.10566000000E+00 0. -1.
         22    1    1    0    0    0  0.75370382464E+01  0.16528862652E+02  0.30811327414E+02  0.35767976502E+02  0.00000000000E+00 0.  1.
</event>
<event>
 5    1  0.1250806E-009  0.9118800E+02  0.7561462E-02  0.1125453E+00
         25   -1    0    0    0    0  0.00000000000E+00  0.00000000000E+00  0.99999998245E-14  0.12509000000E+03  0.12509000000E+03 0.  0.
        -13    1    3    3    0    0 -0.16656438211E+02  0.35448994830E+02  0.23928347911E+02  0.45898204389E+02  0.10566000000E+00 0. -1.
         23    2    1    0    0    0  0.24561520844E+02  0.13160290137E+02  0.14432356905E+02  0.93709202232E+02  0.88298698261E+02 0.  0.
         13    1    3    3    0    0  0.41217959055E+02 -0.22288704693E+02 -0.94959910058E+01  0.47810997843E+02  0.10566000000E+00 0.  1.
         22    1    1    0    0    0 -0.24561520844E+02 -0.13160290137E+02 -0.14432356905E+02  0.31380797768E+02  0.00000000000E+00 0. -1.
</event>
<event>
 5    1  0.1250806E-009  0.9118800E+02  0.7561462E-02  0.1125453E+00
         25   -1    0    0    0    0  0.00000000000E+00  0.00000000000E+00  0.99999998245E-14  0.12509000000E+03  0.12509000000E+03 0.  0.
        -13    1    3    3    0    0  0.13854481670E+02 -0.33373339243E+02  0.75724879363E+01  0.36919915657E+02  0.10566000000E+00 0. -1.
         23    2    1    0    0    0  0.52771440765E+01  0.21757543831E+02 -0.16085019055E+02  0.97522504627E+02  0.93545027166E+02 0.  0.
         13    1    3    3    0    0 -0.85773375939E+01  0.55130883074E+02 -0.23657506991E+02  0.60602588969E+02  0.10566000000E+00 0.  1.
         22    1    1    0    0    0 -0.52771440765E+01 -0.21757543831E+02  0.16085019055E+02  0.27567495373E+02  0.00000000000E+00 0.  1.
</event>
<event>
 5    1  0.1250806E-009  0.9118800E+02  0.7561462E-02  0.1125453E+00
         25   -1    0    0    0    0  0.00000000000E+00  0.00000000000E+00  0.99999998245E-14  0.12509000000E+03  0.12509000000E+03 0.  0.
        -13    1    3    3    0    0 -0.30856718184E+02 -0.22020429012E+02  0.86153863000E+01  0.38875087088E+02  0.10566000000E+00 0.  1.
         23    2    1    0    0    0  0.21775094775E+02 -0.17781077986E+02 -0.10571477792E+02  0.95055392803E+02  0.90185642268E+02 0.  0.
         13    1    3    3    0    0  0.52631812959E+02  0.42393510264E+01 -0.19186864092E+02  0.56180305715E+02  0.10566000000E+00 0. -1.
         22    1    1    0    0    0 -0.21775094775E+02  0.17781077986E+02  0.10571477792E+02  0.30034607197E+02  0.00000000000E+00 0. -1.
</event>
<event>
 5    1  0.1250806E-009  0.9118800E+02  0.7561462E-02  0.1125453E+00
         25   -1    0    0    0    0  0.00000000000E+00  0.00000000000E+00  0.99999998245E-14  0.12509000000E+03  0.12509000000E+03 0.  0.
        -13    1    3    3    0    0  0.41414173209E+02 -0.14615210028E+02 -0.33963045568E+02  0.55517904634E+02  0.10566000000E+00 0.  1.
         23    2    1    0    0    0  0.32013075984E+01 -0.56672091424E+01 -0.29340900284E+02  0.95035814613E+02  0.90158482684E+02 0.  0.
         13    1    3    3    0    0 -0.38212865610E+02  0.89480008853E+01  0.46221452835E+01  0.39517909978E+02  0.10566000000E+00 0. -1.
         22    1    1    0    0    0 -0.32013075984E+01  0.56672091424E+01  0.29340900284E+02  0.30054185387E+02  0.00000000000E+00 0. -1.
</event>
<event>
 5    1  0.1250806E-009  0.9118800E+02  0.7561462E-02  0.1125453E+00
         25   -1    0    0    0    0  0.00000000000E+00  0.00000000000E+00  0.99999998245E-14  0.12509000000E+03  0.12509000000E+03 0.  0.
        -13    1    3    3    0    0 -0.24659356106E+02  0.26023967561E+02 -0.74440584899E+01  0.36616333814E+02  0.10566000000E+00 0.  1.
         23    2    1    0    0    0  0.28856086181E+02  0.82144109098E+01  0.57529884923E+01  0.94540906185E+02  0.89469189163E+02 0.  0.
         13    1    3    3    0    0  0.53515442287E+02 -0.17809556651E+02  0.13197046982E+02  0.57924572371E+02  0.10566000000E+00 0. -1.
         22    1    1    0    0    0 -0.28856086181E+02 -0.82144109098E+01 -0.57529884923E+01  0.30549093815E+02  0.00000000000E+00 0. -1.
</event>
<event>
 5    1  0.1250806E-009  0.9118800E+02  0.7561462E-02  0.1125453E+00
         25   -1    0    0    0    0  0.00000000000E+00  0.00000000000E+00  0.99999998245E-14  0.12509000000E+03  0.12509000000E+03 0.  0.
        -13    1    3    3    0    0  0.33467414765E+02  0.25366872819E+02 -0.34074482694E+01  0.42132742083E+02  0.10566000000E+00 0.  1.
         23    2    1    0    0    0 -0.12404128359E+02  0.14701919470E+02  0.22180650543E+02  0.95730332172E+02  0.91116992942E+02 0.  0.
         13    1    3    3    0    0 -0.45871543124E+02 -0.10664953348E+02  0.25588098813E+02  0.53597590089E+02  0.10566000000E+00 0. -1.
         22    1    1    0    0    0  0.12404128359E+02 -0.14701919470E+02 -0.22180650543E+02  0.29359667828E+02  0.00000000000E+00 0.  1.
</event>
<event>
 5    1  0.1250806E-009  0.9118800E+02  0.7561462E-02  0.1125453E+00
         25   -1    0    0    0    0  0.00000000000E+00  0.00000000000E+00  0.99999998245E-14  0.12509000000E+03  0.12509000000E+03 0.  0.
        -13    1    3    3    0    0  0.17311210057E+02 -0.48056449856E+02 -0.13296574379E+02  0.52781724306E+02  0.10566000000E+00 0.  1.
         23    2    1    0    0    0  0.34434596756E+01 -0.33568689928E+02  0.15565899028E+02  0.87928035970E+02  0.79688944898E+02 0.  0.
         13    1    3    3    0    0 -0.13867750381E+02  0.14487759929E+02  0.28862473407E+02  0.35146311664E+02  0.10566000000E+00 0. -1.
         22    1    1    0    0    0 -0.34434596756E+01  0.33568689928E+02 -0.15565899028E+02  0.37161964030E+02  0.00000000000E+00 0.  1.
</event>
<event>
 5    1  0.1250806E-009  0.9118800E+02  0.7561462E-02  0.1125453E+00
         25   -1    0    0    0    0  0.00000000000E+00  0.00000000000E+00  0.99999998245E-14  0.12509000000E+03  0.12509000000E+03 0.  0.
        -13    1    3    3    0    0 -0.11039757293E+02 -0.50424432947E+02  0.27816564950E+02  0.58636781365E+02  0.10566000000E+00 0.  1.
         23    2    1    0    0    0  0.32504342802E+01 -0.14097028891E+02  0.22928747002E+02  0.97978766431E+02  0.94153171405E+02 0.  0.
         13    1    3    3    0    0  0.14290191573E+02  0.36327404056E+02 -0.48878179485E+01  0.39341985066E+02  0.10566000000E+00 0. -1.
         22    1    1    0    0    0 -0.32504342802E+01  0.14097028891E+02 -0.22928747002E+02  0.27111233569E+02  0.00000000000E+00 0.  1.
</event>
<event>
 5    1  0.1250806E-009  0.9118800E+02  0.7561462E-02  0.1125453E+00
         25   -1    0    0    0    0  0.00000000000E+00  0.00000000000E+00  0.99999998245E-14  0.12509000000E+03  0.12509000000E+03 0.  0.
        -13    1    3    3    0    0 -0.49235196238E+01 -0.33417736770E+02 -0.51775486097E+01  0.34173152473E+02  0.10566000000E+00 0.  1.
         23    2    1    0    0    0 -0.14856957987E+02  0.24467263103E+02  0.98873934300E+01  0.94805734891E+02  0.89838692416E+02 0.  0.
         13    1    3    3    0    0 -0.99334383635E+01  0.57884999872E+02  0.15064942040E+02  0.60632582418E+02  0.10566000000E+00 0. -1.
         22    1    1    0    0    0  0.14856957987E+02 -0.24467263103E+02 -0.98873934300E+01  0.30284265109E+02  0.00000000000E+00 0. -1.
</event>
<event>
 5    1  0.1250806E-009  0.9118800E+02  0.7561462E-02  0.1125453E+00
         25   -1    0    0    0    0  0.00000000000E+00  0.00000000000E+00  0.99999998245E-14  0.12509000000E+03  0.12509000000E+03 0.  0.
        -13    1    3    3    0    0 -0.13087663936E+02  0.37578985244E+01  0.43075645931E+02  0.45176666378E+02  0.10566000000E+00 0. -1.
         23    2    1    0    0    0  0.22281028255E+02 -0.11726633412E+02  0.49666439392E+01  0.99426295994E+02  0.96057080071E+02 0.  0.
         13    1    3    3    0    0  0.35368692191E+02 -0.15484531937E+02 -0.38109001992E+02  0.54249629616E+02  0.10566000000E+00 0.  1.
         22    1    1    0    0    0 -0.22281028255E+02  0.11726633412E+02 -0.49666439392E+01  0.25663704006E+02  0.00000000000E+00 0.  1.
</event>
<event>
 5    1  0.1250806E-009  0.9118800E+02  0.7561462E-02  0.1125453E+00
         25   -1    0    0    0    0  0.00000000000E+00  0.00000000000E+00  0.99999998245E-14  0.12509000000E+03  0.12509000000E+03 0.  0.
        -13    1    3    3    0    0 -0.17186474221E+02 -0.42684634667E+02 -0.11895267105E+01  0.46030197378E+02  0.10566000000E+00 0.  1.
         23    2    1    0    0    0 -0.14173512899E+02  0.40933366375E+01 -0.23027135399E+02  0.97742370534E+02  0.93838575011E+02 0.  0.
         13    1    3    3    0    0  0.30129613225E+01  0.46777971304E+02 -0.21837608689E+02  0.51712173156E+02  0.10566000000E+00 0. -1.
         22    1    1    0    0    0  0.14173512899E+02 -0.40933366375E+01  0.23027135399E+02  0.27347629466E+02  0.00000000000E+00 0.  1.
</event>
<event>
 5    1  0.1250806E-009  0.9118800E+02  0.7561462E-02  0.1125453E+00
         25   -1    0    0    0    0  0.00000000000E+00  0.00000000000E+00  0.99999998245E-14  0.12509000000E+03  0.12509000000E+03 0.  0.
        -13    1    3    3    0    0  0.22552168377E+02  0.21523651163E+02  0.11683953962E+02  0.33292548747E+02  0.10566000000E+00 0.  1.
         23    2    1    0    0    0 -0.10177849044E+02 -0.29001112019E+02  0.17639577502E+01  0.94304213402E+02  0.89137646418E+02 0.  0.
         13    1    3    3    0    0 -0.32730017421E+02 -0.50524763183E+02 -0.99199962116E+01  0.61011664654E+02  0.10566000000E+00 0. -1.
         22    1    1    0    0    0  0.10177849044E+02  0.29001112019E+02 -0.17639577502E+01  0.30785786598E+02  0.00000000000E+00 0. -1.
</event>
<event>
 5    1  0.1250806E-009  0.9118800E+02  0.7561462E-02  0.1125453E+00
         25   -1    0    0    0    0  0.00000000000E+00  0.00000000000E+00  0.99999998245E-14  0.12509000000E+03  0.12509000000E+03 0.  0.
        -13    1    3    3    0    0 -0.32327486616E+02 -0.12563790173E+02  0.41829214807E+02  0.54337920368E+02  0.10566000000E+00 0.  1.
         23    2    1    0    0    0 -0.29675361978E+02 -0.42254354662E+00  0.28212414445E+01  0.95277837132E+02  0.90493652781E+02 0.  0.
         13    1    3    3    0    0  0.26521246382E+01  0.12141246627E+02 -0.39007973363E+02  0.40939916764E+02  0.10566000000E+00 0. -1.
         22    1    1    0    0    0  0.29675361978E+02  0.42254354662E+00 -0.28212414445E+01  0.29812162868E+02  0.00000000000E+00 0. -1.
</event>
<event>
 5    1  0.1250806E-009  0.9118800E+02  0.7561462E-02  0.1125453E+00
         25   -1    0    0    0    0  0.00000000000E+00  0.00000000000E+00  0.99999998245E-14  0.12509000000E+03  0.12509000000E+03 0.  0.
        -13    1    3    3    0    0 -0.70907535853E+01 -0.19358597584E+02 -0.26161021849E+02  0.33308322009E+02  0.10566000000E+00 0.  1.
         23    2    1    0    0    0  0.11581592393E+02  0.23516840596E+02  0.14372185152E+02  0.95194602695E+02  0.90378524010E+02 0.  0.
         13    1    3    3    0    0  0.18672345978E+02  0.42875438180E+02  0.40533207001E+02  0.61886280687E+02  0.10566000000E+00 0. -1.
         22    1    1    0    0    0 -0.11581592393E+02 -0.23516840596E+02 -0.14372185152E+02  0.29895397305E+02  0.00000000000E+00 0. -1.
</event>
<event>
 5    1  0.1250806E-009  0.9118800E+02  0.7561462E-02  0.1125453E+00
         25   -1    0    0    0    0  0.00000000000E+00  0.00000000000E+00  0.99999998245E-14  0.12509000000E+03  0.12509000000E+03 0.  0.
        -13    1    3    3    0    0  0.46753851960E+01 -0.46489925456E+01 -0.38526835208E+02  0.39087089347E+02  0.10566000000E+00 0.  1.
         23    2    1    0    0    0 -0.29578024936E+02  0.93832279807E+01  0.20253335723E+01  0.93993271835E+02  0.88700217857E+02 0.  0.
         13    1    3    3    0    0 -0.34253410132E+02  0.14032220526E+02  0.40552168781E+02  0.54906182488E+02  0.10566000000E+00 0. -1.
         22    1    1    0    0    0  0.29578024936E+02 -0.93832279807E+01 -0.20253335723E+01  0.31096728165E+02  0.00000000000E+00 0. -1.
</event>
<event>
 5    1  0.1250806E-009  0.9118800E+02  0.7561462E-02  0.1125453E+00
         25   -1    0    0    0    0  0.00000000000E+00  0.00000000000E+00  0.99999998245E-14  0.12509000000E+03  0.12509000000E+03 0.  0.
        -13    1    3    3    0    0  0.39218419464E+02  0.55806187524E+01 -0.34438650380E+02  0.52490566152E+02  0.10566000000E+00 0.  1.
         23    2    1    0    0    0  0.14345804213E+02  0.25512442850E+02 -0.59889340234E+01  0.95214354912E+02  0.90405858283E+02 0.  0.
         13    1    3    3    0    0 -0.24872615251E+02  0.19931824097E+02  0.28449716357E+02  0.42723788761E+02  0.10566000000E+00 0. -1.
         22    1    1    0    0    0 -0.14345804213E+02 -0.25512442850E+02  0.59889340234E+01  0.29875645088E+02  0.00000000000E+00 0. -1.
</event>
<event>
 5    1  0.1250806E-009  0.9118800E+02  0.7561462E-02  0.1125453E+00
         25   -1    0    0    0    0  0.00000000000E+00  0.00000000000E+00  0.99999998245E-14  0.12509000000E+03  0.12509000000E+03 0.  0.
        -13    1    3    3    0    0 -0.25170062919E+02 -0.43089285861E+02 -0.22295829939E+02  0.54656507573E+02  0.10566000000E+00 0.  1.
         23    2    1    0    0    0  0.11463019334E+01 -0.23636869395E+02 -0.28584585918E+02  0.87980780727E+02  0.79771696875E+02 0.  0.
         13    1    3    3    0    0  0.26316364852E+02  0.19452416467E+02 -0.62887559794E+01  0.33324273154E+02  0.10566000000E+00 0. -1.
         22    1    1    0    0    0 -0.11463019334E+01  0.23636869395E+02  0.28584585918E+02  0.37109219273E+02  0.00000000000E+00 0.  1.
</event>
<event>
 5    1  0.1250806E-009  0.9118800E+02  0.7561462E-02  0.1125453E+00
         25   -1    0    0    0    0  0.00000000000E+00  0.00000000000E+00  0.99999998245E-14  0.12509000000E+03  0.12509000000E+03 0.  0.
        -13    1    3    3    0    0  0.79864039689E+01 -0.54489406955E+02 -0.25051897829E+02  0.60501957552E+02  0.10566000000E+00 0. -1.
         23    2    1    0    0    0 -0.62708700085E+01 -0.20041659036E+02 -0.15504330102E+02  0.98986817062E+02  0.95483055002E+02 0.  0.
         13    1    3    3    0    0 -0.14257273977E+02  0.34447747920E+02  0.95475677271E+01  0.38484859510E+02  0.10566000000E+00 0.  1.
         22    1    1    0    0    0  0.62708700085E+01  0.20041659036E+02  0.15504330102E+02  0.26103182938E+02  0.00000000000E+00 0. -1.
</event>
<event>
 5    1  0.1250806E-009  0.9118800E+02  0.7561462E-02  0.1125453E+00
         25   -1    0    0    0    0  0.00000000000E+00  0.00000000000E+00  0.99999998245E-14  0.12509000000E+03  0.12509000000E+03 0.  0.
        -13    1    3    3    0    0  0.53192312817E+02 -0.46351262584E+01 -0.17783014248E+02  0.56277467054E+02  0.10566000000E+00 0. -1.
         23    2    1    0    0    0  0.14221166212E+02  0.49222603355E+00 -0.25078338042E+02  0.96255872757E+02  0.91835647471E+02 0.  0.
         13    1    3    3    0    0 -0.38971146605E+02  0.51273522920E+01 -0.72953237944E+01  0.39978405703E+02  0.10566000000E+00 0.  1.
         22    1    1    0    0    0 -0.14221166212E+02 -0.49222603355E+00  0.25078338042E+02  0.28834127243E+02  0.00000000000E+00 0. -1.
</event>
<event>
 5    1  0.1250806E-009  0.9118800E+02  0.7561462E-02  0.1125453E+00
         25   -1    0    0    0    0  0.00000000000E+00  0.00000000000E+00  0.99999998245E-14  0.12509000000E+03  0.12509000000E+03 0.  0.
        -13    1    3    3    0    0 -0.42509802352E+02 -0.37594379930E+01 -0.29512486017E+02  0.51886555724E+02  0.10566000000E+00 0.  1.
         23    2    1    0    0    0 -0.25534662662E+02  0.13991701552E+01  0.11858452907E+02  0.96901357256E+02  0.92710697648E+02 0.  0.
         13    1    3    3    0    0  0.16975139690E+02  0.51586081483E+01  0.41370938924E+02  0.45014801532E+02  0.10566000000E+00 0. -1.
         22    1    1    0    0    0  0.25534662662E+02 -0.13991701552E+01 -0.11858452907E+02  0.28188642744E+02  0.00000000000E+00 0. -1.
</event>
<event>
 5    1  0.1250806E-009  0.9118800E+02  0.7561462E-02  0.1125453E+00
         25   -1    0    0    0    0  0.00000000000E+00  0.00000000000E+00  0.99999998245E-14  0.12509000000E+03  0.12509000000E+03 0.  0.
        -13    1    3    3    0    0 -0.38147433414E+02  0.26618968784E+02 -0.11494138072E+02  0.47915786013E+02  0.10566000000E+00 0.  1.
         23    2    1    0    0    0  0.78245597775E+01  0.28361094883E+02  0.12154978739E+01  0.95644238442E+02  0.90998722372E+02 0.  0.
         13    1    3    3    0    0  0.45971993191E+02  0.17421260983E+01  0.12709635946E+02  0.47728452429E+02  0.10566000000E+00 0. -1.
         22    1    1    0    0    0 -0.78245597775E+01 -0.28361094883E+02 -0.12154978739E+01  0.29445761558E+02  0.00000000000E+00 0. -1.
</event>
<event>
 5    1  0.1250806E-009  0.9118800E+02  0.7561462E-02  0.1125453E+00
         25   -1    0    0    0    0  0.00000000000E+00  0.00000000000E+00  0.99999998245E-14  0.12509000000E+03  0.12509000000E+03 0.  0.
        -13    1    3    3    0    0 -0.17198658393E+02 -0.33060614909E+02 -0.15550814377E+00  0.37267055901E+02  0.10566000000E+00 0.  1.
         23    2    1    0    0    0 -0.44814806516E+01  0.20915513907E+02  0.19543423297E+02  0.96116084403E+02  0.91645042943E+02 0.  0.
         13    1    3    3    0    0  0.12717177741E+02  0.53976128816E+02  0.19698931441E+02  0.58849028502E+02  0.10566000000E+00 0. -1.
         22    1    1    0    0    0  0.44814806516E+01 -0.20915513907E+02 -0.19543423297E+02  0.28973915597E+02  0.00000000000E+00 0. -1.
</event>
<event>
 5    1  0.1250806E-009  0.9118800E+02  0.7561462E-02  0.1125453E+00
         25   -1    0    0    0    0  0.00000000000E+00  0.00000000000E+00  0.99999998245E-14  0.12509000000E+03  0.12509000000E+03 0.  0.
        -13    1    3    3    0    0 -0.41978053394E+02 -0.16074817411E+01  0.20702431539E+02  0.46833137840E+02  0.10566000000E+00 0. -1.
         23    2    1    0    0    0 -0.17558523277E+02  0.19078040288E+02 -0.15284514979E+02  0.94991997424E+02  0.90097668203E+02 0.  0.
         13    1    3    3    0    0  0.24419530117E+02  0.20685522029E+02 -0.35986946518E+02  0.48158859584E+02  0.10566000000E+00 0.  1.
         22    1    1    0    0    0  0.17558523277E+02 -0.19078040288E+02  0.15284514979E+02  0.30098002576E+02  0.00000000000E+00 0.  1.
</event>
<event>
 5    1  0.1250806E-009  0.9118800E+02  0.7561462E-02  0.1125453E+00
         25   -1    0    0    0    0  0.00000000000E+00  0.00000000000E+00  0.99999998245E-14  0.12509000000E+03  0.12509000000E+03 0.  0.
        -13    1    3    3    0    0  0.17911730318E+02 -0.56298895853E+02 -0.86554136007E+01  0.59710326627E+02  0.10566000000E+00 0.  1.
         23    2    1    0    0    0  0.16261982601E+02 -0.20291863930E+02 -0.13002290271E+02  0.96016448924E+02  0.91508945420E+02 0.  0.
         13    1    3    3    0    0 -0.16497477176E+01  0.36007031923E+02 -0.43468766705E+01  0.36306122297E+02  0.10566000000E+00 0. -1.
         22    1    1    0    0    0 -0.16261982601E+02  0.20291863930E+02  0.13002290271E+02  0.29073551076E+02  0.00000000000E+00 0.  1.
</event>
<event>
 5    1  0.1250806E-009  0.9118800E+02  0.7561462E-02  0.1125453E+00
         25   -1    0    0    0    0  0.00000000000E+00  0.00000000000E+00  0.99999998245E-14  0.12509000000E+03  0.12509000000E+03 0.  0.
        -13    1    3    3    0    0  0.11388676433E+02 -0.51484221549E+02 -0.11649168476E+01  0.52741778646E+02  0.10566000000E+00 0.  1.
         23    2    1    0    0    0  0.13988302685E+02 -0.14992076913E+02  0.21180054642E+02  0.95610690361E+02  0.90952594325E+02 0.  0.
         13    1    3    3    0    0  0.25996262517E+01  0.36492144636E+02  0.22344971489E+02  0.42868911715E+02  0.10566000000E+00 0. -1.
         22    1    1    0    0    0 -0.13988302685E+02  0.14992076913E+02 -0.21180054642E+02  0.29479309639E+02  0.00000000000E+00 0.  1.
</event>
<event>
 5    1  0.1250806E-009  0.9118800E+02  0.7561462E-02  0.1125453E+00
         25   -1    0    0    0    0  0.00000000000E+00  0.00000000000E+00  0.99999998245E-14  0.12509000000E+03  0.12509000000E+03 0.  0.
        -13    1    3    3    0    0  0.29087306052E+02  0.48662856007E+02 -0.67823699624E+00  0.56697584583E+02  0.10566000000E+00 0. -1.
         23    2    1    0    0    0  0.15747000242E+01  0.24814693676E+02 -0.15256791743E+02  0.95917780395E+02  0.91373968936E+02 0.  0.
         13    1    3    3    0    0 -0.27512606028E+02 -0.23848162331E+02 -0.14578554747E+02  0.39220195812E+02  0.10566000000E+00 0.  1.
         22    1    1    0    0    0 -0.15747000242E+01 -0.24814693676E+02  0.15256791743E+02  0.29172219605E+02  0.00000000000E+00 0. -1.
</event>
<event>
 5    1  0.1250806E-009  0.9118800E+02  0.7561462E-02  0.1125453E+00
         25   -1    0    0    0    0  0.00000000000E+00  0.00000000000E+00  0.99999998245E-14  0.12509000000E+03  0.12509000000E+03 0.  0.
        -13    1    3    3    0    0 -0.33453875374E+01 -0.50020131912E+02  0.33365487629E+01  0.50242899359E+02  0.10566000000E+00 0.  1.
         23    2    1    0    0    0  0.22034839754E+02 -0.14302233622E+02 -0.11374627985E+02  0.96463609879E+02  0.92118173123E+02 0.  0.
         13    1    3    3    0    0  0.25380227292E+02  0.35717898290E+02 -0.14711176748E+02  0.46220710520E+02  0.10566000000E+00 0. -1.
         22    1    1    0    0    0 -0.22034839754E+02  0.14302233622E+02  0.11374627985E+02  0.28626390121E+02  0.00000000000E+00 0.  1.
</event>
<event>
 5    1  0.1250806E-009  0.9118800E+02  0.7561462E-02  0.1125453E+00
         25   -1    0    0    0    0  0.00000000000E+00  0.00000000000E+00  0.99999998245E-14  0.12509000000E+03  0.12509000000E+03 0.  0.
        -13    1    3    3    0    0  0.44425995591E+02  0.30417426095E+01  0.38594240601E+02  0.58927479616E+02  0.10566000000E+00 0. -1.
         23    2    1    0    0    0  0.65191835177E+01  0.36525764338E+01  0.24665975775E+02  0.99316924334E+02  0.95914545455E+02 0.  0.
         13    1    3    3    0    0 -0.37906812073E+02  0.61083382426E+00 -0.13928264826E+02  0.40389444718E+02  0.10566000000E+00 0.  1.
         22    1    1    0    0    0 -0.65191835177E+01 -0.36525764338E+01 -0.24665975775E+02  0.25773075666E+02  0.00000000000E+00 0. -1.
</event>
<event>
 5    1  0.1250806E-009  0.9118800E+02  0.7561462E-02  0.1125453E+00
         25   -1    0    0    0    0  0.00000000000E+00  0.00000000000E+00  0.99999998245E-14  0.12509000000E+03  0.12509000000E+03 0.  0.
        -13    1    3    3    0    0  0.29304023285E+02 -0.93180240963E+01  0.25962674011E+01  0.30859408973E+02  0.10566000000E+00 0. -1.
         23    2    1    0    0    0 -0.24394986023E+02 -0.27395270748E+02  0.72039222846E+01  0.87706678870E+02  0.79340713506E+02 0.  0.
         13    1    3    3    0    0 -0.53699009308E+02 -0.18077246652E+02  0.46076548835E+01  0.56847269897E+02  0.10566000000E+00 0.  1.
         22    1    1    0    0    0  0.24394986023E+02  0.27395270748E+02 -0.72039222846E+01  0.37383321130E+02  0.00000000000E+00 0.  1.
</event>
<event>
 5    1  0.1250806E-009  0.9118800E+02  0.7561462E-02  0.1125453E+00
         25   -1    0    0    0    0  0.00000000000E+00  0.00000000000E+00  0.99999998245E-14  0.12509000000E+03  0.12509000000E+03 0.  0.
        -13    1    3    3    0    0  0.24571605292E+02  0.14095100198E+01 -0.40866991680E+02  0.47706107346E+02  0.10566000000E+00 0.  1.
         23    2    1    0    0    0  0.21114436510E+02  0.18899036205E+02  0.44515410502E+01  0.96405348767E+02  0.92039024629E+02 0.  0.
         13    1    3    3    0    0 -0.34571687822E+01  0.17489526185E+02  0.45318532730E+02  0.48699241421E+02  0.10566000000E+00 0. -1.
         22    1    1    0    0    0 -0.21114436510E+02 -0.18899036205E+02 -0.44515410502E+01  0.28684651233E+02  0.00000000000E+00 0. -1.
</event>
<event>
 5    1  0.1250806E-009  0.9118800E+02  0.7561462E-02  0.1125453E+00
         25   -1    0    0    0    0  0.00000000000E+00  0.00000000000E+00  0.99999998245E-14  0.12509000000E+03  0.12509000000E+03 0.  0.
        -13    1    3    3    0    0 -0.22197672323E+02  0.50972877772E+02  0.22352412956E+02  0.59921719383E+02  0.10566000000E+00 0. -1.
         23    2    1    0    0    0 -0.62505287706E+01  0.16658728604E+02 -0.49959464302E+01  0.10660914966E+03  0.10499509018E+03 0.  0.
         13    1    3    3    0    0  0.15947143553E+02 -0.34314149168E+02 -0.27348359386E+02  0.46687430276E+02  0.10566000000E+00 0.  1.
         22    1    1    0    0    0  0.62505287706E+01 -0.16658728604E+02  0.49959464302E+01  0.18480850341E+02  0.00000000000E+00 0. -1.
</event>
<event>
 5    1  0.1250806E-009  0.9118800E+02  0.7561462E-02  0.1125453E+00
         25   -1    0    0    0    0  0.00000000000E+00  0.00000000000E+00  0.99999998245E-14  0.12509000000E+03  0.12509000000E+03 0.  0.
        -13    1    3    3    0    0  0.33452055115E+02  0.66508872840E+01 -0.34197181614E+02  0.48298371478E+02  0.10566000000E+00 0. -1.
         23    2    1    0    0    0 -0.91053388083E+01 -0.10775445847E+02 -0.26699356496E+02  0.94892763946E+02  0.89959788706E+02 0.  0.
         13    1    3    3    0    0 -0.42557393923E+02 -0.17426333131E+02  0.74978251178E+01  0.46594392468E+02  0.10566000000E+00 0.  1.
         22    1    1    0    0    0  0.91053388083E+01  0.10775445847E+02  0.26699356496E+02  0.30197236054E+02  0.00000000000E+00 0.  1.
</event>
<event>
 5    1  0.1250806E-009  0.9118800E+02  0.7561462E-02  0.1125453E+00
         25   -1    0    0    0    0  0.00000000000E+00  0.00000000000E+00  0.99999998245E-14  0.12509000000E+03  0.12509000000E+03 0.  0.
        -13    1    3    3    0    0  0.69714607732E+01 -0.11195870648E+02  0.36697443738E+02  0.38995670604E+02  0.10566000000E+00 0.  1.
         23    2    1    0    0    0  0.21606773965E+02 -0.11194637946E+02 -0.17488262215E+02  0.95123153065E+02  0.90279578720E+02 0.  0.
         13    1    3    3    0    0  0.14635313192E+02  0.12327016971E-02 -0.54185705953E+02  0.56127482461E+02  0.10566000000E+00 0. -1.
         22    1    1    0    0    0 -0.21606773965E+02  0.11194637946E+02  0.17488262215E+02  0.29966846935E+02  0.00000000000E+00 0. -1.
</event>
<event>
 5    1  0.1250806E-009  0.9118800E+02  0.7561462E-02  0.1125453E+00
         25   -1    0    0    0    0  0.00000000000E+00  0.00000000000E+00  0.99999998245E-14  0.12509000000E+03  0.12509000000E+03 0.  0.
        -13    1    3    3    0    0  0.14010310526E+02  0.39152970170E+02 -0.27747914182E+01  0.41676786171E+02  0.10566000000E+00 0.  1.
         23    2    1    0    0    0  0.44898481045E+01 -0.19934899401E+02 -0.10657166155E+02  0.10204365234E+03  0.99407106596E+02 0.  0.
         13    1    3    3    0    0 -0.95204624214E+01 -0.59087869571E+02 -0.78823747365E+01  0.60366866166E+02  0.10566000000E+00 0. -1.
         22    1    1    0    0    0 -0.44898481045E+01  0.19934899401E+02  0.10657166155E+02  0.23046347663E+02  0.00000000000E+00 0. -1.
</event>
<event>
 5    1  0.1250806E-009  0.9118800E+02  0.7561462E-02  0.1125453E+00
         25   -1    0    0    0    0  0.00000000000E+00  0.00000000000E+00  0.99999998245E-14  0.12509000000E+03  0.12509000000E+03 0.  0.
        -13    1    3    3    0    0  0.36876476640E+01  0.58113950968E+01  0.36137965588E+02  0.36787698748E+02  0.10566000000E+00 0. -1.
         23    2    1    0    0    0 -0.23877842666E+02  0.62583877526E+01 -0.15935351482E+02  0.95708811894E+02  0.91087444028E+02 0.  0.
         13    1    3    3    0    0 -0.27565490330E+02  0.44699265577E+00 -0.52073317071E+02  0.58921113146E+02  0.10566000000E+00 0.  1.
         22    1    1    0    0    0  0.23877842666E+02 -0.62583877526E+01  0.15935351482E+02  0.29381188106E+02  0.00000000000E+00 0.  1.
</event>
<event>
 5    1  0.1250806E-009  0.9118800E+02  0.7561462E-02  0.1125453E+00
         25   -1    0    0    0    0  0.00000000000E+00  0.00000000000E+00  0.99999998245E-14  0.12509000000E+03  0.12509000000E+03 0.  0.
        -13    1    3    3    0    0  0.38729473539E+02  0.22408645081E+02  0.40800909789E+02  0.60554478766E+02  0.10566000000E+00 0.  1.
         23    2    1    0    0    0  0.11337742963E+02  0.68768012000E+01  0.27149476545E+02  0.94875286914E+02  0.89935483432E+02 0.  0.
         13    1    3    3    0    0 -0.27391730576E+02 -0.15531843881E+02 -0.13651433244E+02  0.34320808148E+02  0.10566000000E+00 0. -1.
         22    1    1    0    0    0 -0.11337742963E+02 -0.68768012000E+01 -0.27149476545E+02  0.30214713086E+02  0.00000000000E+00 0.  1.
</event>
<event>
 5    1  0.1250806E-009  0.9118800E+02  0.7561462E-02  0.1125453E+00
         25   -1    0    0    0    0  0.00000000000E+00  0.00000000000E+00  0.99999998245E-14  0.12509000000E+03  0.12509000000E+03 0.  0.
        -13    1    3    3    0    0 -0.46395544724E+02  0.34487676738E+02 -0.19387722195E+02  0.60974103953E+02  0.10566000000E+00 0.  1.
         23    2    1    0    0    0 -0.15185370479E+02  0.23586967836E+02 -0.86004660906E+01  0.95748756924E+02  0.91142283860E+02 0.  0.
         13    1    3    3    0    0  0.31210174245E+02 -0.10900708902E+02  0.10787256104E+02  0.34774652971E+02  0.10566000000E+00 0. -1.
         22    1    1    0    0    0  0.15185370479E+02 -0.23586967836E+02  0.86004660906E+01  0.29341243076E+02  0.00000000000E+00 0.  1.
</event>
<event>
 5    1  0.1250806E-009  0.9118800E+02  0.7561462E-02  0.1125453E+00
         25   -1    0    0    0    0  0.00000000000E+00  0.00000000000E+00  0.99999998245E-14  0.12509000000E+03  0.12509000000E+03 0.  0.
        -13    1    3    3    0    0  0.29912323022E+02 -0.37195776278E+02  0.42137468389E+01  0.47917008128E+02  0.10566000000E+00 0. -1.
         23    2    1    0    0    0 -0.12756929880E+02 -0.23163928041E+02  0.15774284031E+02  0.94298201433E+02  0.89129209211E+02 0.  0.
         13    1    3    3    0    0 -0.42669252902E+02  0.14031848237E+02  0.11560537193E+02  0.46381193305E+02  0.10566000000E+00 0.  1.
         22    1    1    0    0    0  0.12756929880E+02  0.23163928041E+02 -0.15774284031E+02  0.30791798567E+02  0.00000000000E+00 0. -1.
</event>
<event>
 5    1  0.1250806E-009  0.9118800E+02  0.7561462E-02  0.1125453E+00
         25   -1    0    0    0    0  0.00000000000E+00  0.00000000000E+00  0.99999998245E-14  0.12509000000E+03  0.12509000000E+03 0.  0.
        -13    1    3    3    0    0  0.28368052590E+02 -0.15269678626E+01 -0.19800767674E+02  0.34628883942E+02  0.10566000000E+00 0.  1.
         23    2    1    0    0    0 -0.20537707359E+02  0.18518577337E+02  0.10449342072E+02  0.95527796430E+02  0.90838516120E+02 0.  0.
         13    1    3    3    0    0 -0.48905759949E+02  0.20045545200E+02  0.30250109746E+02  0.60898912488E+02  0.10566000000E+00 0. -1.
         22    1    1    0    0    0  0.20537707359E+02 -0.18518577337E+02 -0.10449342072E+02  0.29562203570E+02  0.00000000000E+00 0. -1.
</event>
<event>
 5    1  0.1250806E-009  0.9118800E+02  0.7561462E-02  0.1125453E+00
         25   -1    0    0    0    0  0.00000000000E+00  0.00000000000E+00  0.99999998245E-14  0.12509000000E+03  0.12509000000E+03 0.  0.
        -13    1    3    3    0    0  0.27376999734E+02 -0.50947882414E+02 -0.11721505456E+02  0.59013487366E+02  0.10566000000E+00 0.  1.
         23    2    1    0    0    0  0.18999930492E+02 -0.14773511518E+02 -0.15694496463E+02  0.96357244815E+02  0.91973623436E+02 0.  0.
         13    1    3    3    0    0 -0.83770692421E+01  0.36174370896E+02 -0.39729910067E+01  0.37343757449E+02  0.10566000000E+00 0. -1.
         22    1    1    0    0    0 -0.18999930492E+02  0.14773511518E+02  0.15694496463E+02  0.28732755185E+02  0.00000000000E+00 0.  1.
</event>
<event>
 5    1  0.1250806E-009  0.9118800E+02  0.7561462E-02  0.1125453E+00
         25   -1    0    0    0    0  0.00000000000E+00  0.00000000000E+00  0.99999998245E-14  0.12509000000E+03  0.12509000000E+03 0.  0.
        -13    1    3    3    0    0 -0.94609695626E+01 -0.54670468564E+02  0.50740007160E+01  0.55714690391E+02  0.10566000000E+00 0.  1.
         23    2    1    0    0    0 -0.18994513237E+02 -0.17538039293E+02  0.14846278444E+02  0.95277480163E+02  0.90493159339E+02 0.  0.
         13    1    3    3    0    0 -0.95335436746E+01  0.37132429270E+02  0.97722777284E+01  0.39562789772E+02  0.10566000000E+00 0. -1.
         22    1    1    0    0    0  0.18994513237E+02  0.17538039293E+02 -0.14846278444E+02  0.29812519837E+02  0.00000000000E+00 0.  1.
</event>
<event>
 5    1  0.1250806E-009  0.9118800E+02  0.7561462E-02  0.1125453E+00
         25   -1    0    0    0    0  0.00000000000E+00  0.00000000000E+00  0.99999998245E-14  0.12509000000E+03  0.12509000000E+03 0.  0.
        -13    1    3    3    0    0 -0.35005529255E+01 -0.41346050551E+02 -0.38033889630E+02  0.56287988873E+02  0.10566000000E+00 0.  1.
         23    2    1    0    0    0 -0.87811495517E+01 -0.33887626732E+01 -0.27487482823E+02  0.96035671375E+02  0.91535218166E+02 0.  0.
         13    1    3    3    0    0 -0.52805966262E+01  0.37957287877E+02  0.10546406808E+02  0.39747682503E+02  0.10566000000E+00 0. -1.
         22    1    1    0    0    0  0.87811495517E+01  0.33887626732E+01  0.27487482823E+02  0.29054328625E+02  0.00000000000E+00 0.  1.
</event>
<event>
 5    1  0.1250806E-009  0.9118800E+02  0.7561462E-02  0.1125453E+00
         25   -1    0    0    0    0  0.00000000000E+00  0.00000000000E+00  0.99999998245E-14  0.12509000000E+03  0.12509000000E+03 0.  0.
        -13    1    3    3    0    0 -0.60208150674E+01 -0.12829319622E+02  0.54932380475E+02  0.56731113551E+02  0.10566000000E+00 0.  1.
         23    2    1    0    0    0 -0.54877286897E+00 -0.22624892462E+02  0.15676224471E+02  0.97559454705E+02  0.93594424396E+02 0.  0.
         13    1    3    3    0    0  0.54720421985E+01 -0.97955728407E+01 -0.39256156004E+02  0.40828341154E+02  0.10566000000E+00 0. -1.
         22    1    1    0    0    0  0.54877286897E+00  0.22624892462E+02 -0.15676224471E+02  0.27530545295E+02  0.00000000000E+00 0.  1.
</event>
<event>
 5    1  0.1250806E-009  0.9118800E+02  0.7561462E-02  0.1125453E+00
         25   -1    0    0    0    0  0.00000000000E+00  0.00000000000E+00  0.99999998245E-14  0.12509000000E+03  0.12509000000E+03 0.  0.
        -13    1    3    3    0    0 -0.31660277704E+02  0.31300899974E+02 -0.10597315625E+02  0.45764984277E+02  0.10566000000E+00 0. -1.
         23    2    1    0    0    0 -0.57735167470E+00  0.15588904110E+02  0.25035641152E+02  0.95592023897E+02  0.90926918118E+02 0.  0.
         13    1    3    3    0    0  0.31082926029E+02 -0.15711995864E+02  0.35632956777E+02  0.49827039619E+02  0.10566000000E+00 0.  1.
         22    1    1    0    0    0  0.57735167470E+00 -0.15588904110E+02 -0.25035641152E+02  0.29497976103E+02  0.00000000000E+00 0.  1.
</event>
<event>
 5    1  0.1250806E-009  0.9118800E+02  0.7561462E-02  0.1125453E+00
         25   -1    0    0    0    0  0.00000000000E+00  0.00000000000E+00  0.99999998245E-14  0.12509000000E+03  0.12509000000E+03 0.  0.
        -13    1    3    3    0    0  0.41533232370E+02  0.30712986302E+02  0.84501862279E+01  0.52342274789E+02  0.10566000000E+00 0. -1.
         23    2    1    0    0    0 -0.66165091939E+00  0.28900541091E+02 -0.27934357843E+01  0.96047232556E+02  0.91551016056E+02 0.  0.
         13    1    3    3    0    0 -0.42194883290E+02 -0.18124452109E+01 -0.11243622012E+02  0.43704957768E+02  0.10566000000E+00 0.  1.
         22    1    1    0    0    0  0.66165091939E+00 -0.28900541091E+02  0.27934357843E+01  0.29042767444E+02  0.00000000000E+00 0. -1.
</event>
<event>
 5    1  0.1250806E-009  0.9118800E+02  0.7561462E-02  0.1125453E+00
         25   -1    0    0    0    0  0.00000000000E+00  0.00000000000E+00  0.99999998245E-14  0.12509000000E+03  0.12509000000E+03 0.  0.
        -13    1    3    3    0    0  0.42560843536E+02 -0.36244846785E+01 -0.12188081639E+02  0.44419846800E+02  0.10566000000E+00 0.  1.
         23    2    1    0    0    0  0.85392317393E+01  0.30233662473E+02 -0.84131997478E+01  0.92566550686E+02  0.86664823029E+02 0.  0.
         13    1    3    3    0    0 -0.34021611796E+02  0.33858147152E+02  0.37748818915E+01  0.48146703886E+02  0.10566000000E+00 0. -1.
         22    1    1    0    0    0 -0.85392317393E+01 -0.30233662473E+02  0.84131997478E+01  0.32523449314E+02  0.00000000000E+00 0.  1.
</event>
<event>
 5    1  0.1250806E-009  0.9118800E+02  0.7561462E-02  0.1125453E+00
         25   -1    0    0    0    0  0.00000000000E+00  0.00000000000E+00  0.99999998245E-14  0.12509000000E+03  0.12509000000E+03 0.  0.
        -13    1    3    3    0    0  0.14615304247E+02  0.32698216838E+02  0.31822787265E+02  0.47911182995E+02  0.10566000000E+00 0. -1.
         23    2    1    0    0    0  0.19751499157E+02  0.18592182390E+02 -0.12876005207E+02  0.95063636999E+02  0.90197076473E+02 0.  0.
         13    1    3    3    0    0  0.51361949104E+01 -0.14106034448E+02 -0.44698792473E+02  0.47152454003E+02  0.10566000000E+00 0.  1.
         22    1    1    0    0    0 -0.19751499157E+02 -0.18592182390E+02  0.12876005207E+02  0.30026363001E+02  0.00000000000E+00 0. -1.
</event>
<event>
 5    1  0.1250806E-009  0.9118800E+02  0.7561462E-02  0.1125453E+00
         25   -1    0    0    0    0  0.00000000000E+00  0.00000000000E+00  0.99999998245E-14  0.12509000000E+03  0.12509000000E+03 0.  0.
        -13    1    3    3    0    0  0.12674321928E+01  0.28966249108E+02  0.48141543614E+02  0.56198481807E+02  0.10566000000E+00 0.  1.
         23    2    1    0    0    0  0.13977295474E+02  0.23161596906E+02  0.10990406133E+02  0.95890455706E+02  0.91336554065E+02 0.  0.
         13    1    3    3    0    0  0.12709863281E+02 -0.58046522024E+01 -0.37151137481E+02  0.39691973899E+02  0.10566000000E+00 0. -1.
         22    1    1    0    0    0 -0.13977295474E+02 -0.23161596906E+02 -0.10990406133E+02  0.29199544294E+02  0.00000000000E+00 0. -1.
</event>
<event>
 5    1  0.1250806E-009  0.9118800E+02  0.7561462E-02  0.1125453E+00
         25   -1    0    0    0    0  0.00000000000E+00  0.00000000000E+00  0.99999998245E-14  0.12509000000E+03  0.12509000000E+03 0.  0.
        -13    1    3    3    0    0 -0.35376901751E+02 -0.73357160160E+01  0.17744648089E+00  0.36130050626E+02  0.10566000000E+00 0.  1.
         23    2    1    0    0    0  0.22299123692E+02 -0.13769015624E+02  0.13406283254E+02  0.95652521518E+02  0.91010107864E+02 0.  0.
         13    1    3    3    0    0  0.57676025442E+02 -0.64332996081E+01  0.13228836774E+02  0.59522470892E+02  0.10566000000E+00 0. -1.
         22    1    1    0    0    0 -0.22299123692E+02  0.13769015624E+02 -0.13406283254E+02  0.29437478482E+02  0.00000000000E+00 0. -1.
</event>
<event>
 5    1  0.1250806E-009  0.9118800E+02  0.7561462E-02  0.1125453E+00
         25   -1    0    0    0    0  0.00000000000E+00  0.00000000000E+00  0.99999998245E-14  0.12509000000E+03  0.12509000000E+03 0.  0.
        -13    1    3    3    0    0 -0.37676257804E+02 -0.34371015569E+01  0.46982797402E+02  0.60321708240E+02  0.10566000000E+00 0. -1.
         23    2    1    0    0    0 -0.15591837359E+02 -0.13141019887E+02  0.23314732374E+02  0.94116325023E+02  0.88873584907E+02 0.  0.
         13    1    3    3    0    0  0.22084420445E+02 -0.97039183304E+01 -0.23668065028E+02  0.33794616783E+02  0.10566000000E+00 0.  1.
         22    1    1    0    0    0  0.15591837359E+02  0.13141019887E+02 -0.23314732374E+02  0.30973674977E+02  0.00000000000E+00 0. -1.
</event>
<event>
 5    1  0.1250806E-009  0.9118800E+02  0.7561462E-02  0.1125453E+00
         25   -1    0    0    0    0  0.00000000000E+00  0.00000000000E+00  0.99999998245E-14  0.12509000000E+03  0.12509000000E+03 0.  0.
        -13    1    3    3    0    0  0.15819718573E+01 -0.16678792050E+02  0.42841672933E+02  0.46001139583E+02  0.10566000000E+00 0. -1.
         23    2    1    0    0    0  0.30896272204E+01  0.24714480057E+02  0.13517651346E+02  0.96751365263E+02  0.92508099437E+02 0.  0.
         13    1    3    3    0    0  0.15076553631E+01  0.41393272107E+02 -0.29324021587E+02  0.50750225679E+02  0.10566000000E+00 0.  1.
         22    1    1    0    0    0 -0.30896272204E+01 -0.24714480057E+02 -0.13517651346E+02  0.28338634737E+02  0.00000000000E+00 0.  1.
</event>
<event>
 5    1  0.1250806E-009  0.9118800E+02  0.7561462E-02  0.1125453E+00
         25   -1    0    0    0    0  0.00000000000E+00  0.00000000000E+00  0.99999998245E-14  0.12509000000E+03  0.12509000000E+03 0.  0.
        -13    1    3    3    0    0  0.58130649242E+02  0.19394475179E+02  0.40213704473E+01  0.61412544590E+02  0.10566000000E+00 0.  1.
         23    2    1    0    0    0  0.25680403772E+02  0.17018494798E+02  0.45129480735E+01  0.93953542215E+02  0.88644171221E+02 0.  0.
         13    1    3    3    0    0 -0.32450245470E+02 -0.23759803815E+01  0.49157762615E+00  0.32540997625E+02  0.10566000000E+00 0. -1.
         22    1    1    0    0    0 -0.25680403772E+02 -0.17018494798E+02 -0.45129480735E+01  0.31136457785E+02  0.00000000000E+00 0.  1.
</event>
<event>
 5    1  0.1250806E-009  0.9118800E+02  0.7561462E-02  0.1125453E+00
         25   -1    0    0    0    0  0.00000000000E+00  0.00000000000E+00  0.99999998245E-14  0.12509000000E+03  0.12509000000E+03 0.  0.
        -13    1    3    3    0    0 -0.19620816764E+02  0.50405102501E+02 -0.26739706039E+02  0.60337996749E+02  0.10566000000E+00 0. -1.
         23    2    1    0    0    0 -0.15732551071E+02  0.15588779058E+02 -0.18267187746E+02  0.96380883958E+02  0.92005768562E+02 0.  0.
         13    1    3    3    0    0  0.38882656928E+01 -0.34816323442E+02  0.84725182926E+01  0.36042887210E+02  0.10566000000E+00 0.  1.
         22    1    1    0    0    0  0.15732551071E+02 -0.15588779058E+02  0.18267187746E+02  0.28709116042E+02  0.00000000000E+00 0. -1.
</event>
<event>
 5    1  0.1250806E-009  0.9118800E+02  0.7561462E-02  0.1125453E+00
         25   -1    0    0    0    0  0.00000000000E+00  0.00000000000E+00  0.99999998245E-14  0.12509000000E+03  0.12509000000E+03 0.  0.
        -13    1    3    3    0    0 -0.21087791629E+01  0.12407533780E+02  0.38587543818E+02  0.40588219301E+02  0.10566000000E+00 0. -1.
         23    2    1    0    0    0  0.51582121777E+01 -0.29769250292E+02  0.62308063743E+01  0.94241363662E+02  0.89049403485E+02 0.  0.
         13    1    3    3    0    0  0.72669913406E+01 -0.42176784072E+02 -0.32356737444E+02  0.53653144361E+02  0.10566000000E+00 0.  1.
         22    1    1    0    0    0 -0.51582121777E+01  0.29769250292E+02 -0.62308063743E+01  0.30848636338E+02  0.00000000000E+00 0.  1.
</event>
<event>
 5    1  0.1250806E-009  0.9118800E+02  0.7561462E-02  0.1125453E+00
         25   -1    0    0    0    0  0.00000000000E+00  0.00000000000E+00  0.99999998245E-14  0.12509000000E+03  0.12509000000E+03 0.  0.
        -13    1    3    3    0    0 -0.44694246572E+01 -0.29286317485E+02 -0.54047393141E+02  0.61634373672E+02  0.10566000000E+00 0. -1.
         23    2    1    0    0    0  0.16775985621E+01 -0.42094034506E+01 -0.21181102486E+02  0.10342960949E+03  0.10113610435E+03 0.  0.
         13    1    3    3    0    0  0.61470232193E+01  0.25076914035E+02  0.32866290655E+02  0.41795235822E+02  0.10566000000E+00 0.  1.
         22    1    1    0    0    0 -0.16775985621E+01  0.42094034506E+01  0.21181102486E+02  0.21660390506E+02  0.00000000000E+00 0. -1.
</event>
<event>
 5    1  0.1250806E-009  0.9118800E+02  0.7561462E-02  0.1125453E+00
         25   -1    0    0    0    0  0.00000000000E+00  0.00000000000E+00  0.99999998245E-14  0.12509000000E+03  0.12509000000E+03 0.  0.
        -13    1    3    3    0    0 -0.40704864651E+02  0.38547226036E+01  0.14741898896E+02  0.43463543800E+02  0.10566000000E+00 0.  1.
         23    2    1    0    0    0 -0.33582571116E+01  0.24293902619E+02 -0.15850267337E+02  0.95888928617E+02  0.91334462616E+02 0.  0.
         13    1    3    3    0    0  0.37346607539E+02  0.20439180015E+02 -0.30592166233E+02  0.52425384817E+02  0.10566000000E+00 0. -1.
         22    1    1    0    0    0  0.33582571116E+01 -0.24293902619E+02  0.15850267337E+02  0.29201071383E+02  0.00000000000E+00 0. -1.
</event>
<event>
 5    1  0.1250806E-009  0.9118800E+02  0.7561462E-02  0.1125453E+00
         25   -1    0    0    0    0  0.00000000000E+00  0.00000000000E+00  0.99999998245E-14  0.12509000000E+03  0.12509000000E+03 0.  0.
        -13    1    3    3    0    0  0.17961108073E+02 -0.53223899776E+01 -0.41741665820E+02  0.45752672793E+02  0.10566000000E+00 0.  1.
         23    2    1    0    0    0  0.17080209770E+02  0.24377028398E+02 -0.21588733507E+01  0.95246511373E+02  0.90450340603E+02 0.  0.
         13    1    3    3    0    0 -0.88089830323E+00  0.29699418376E+02  0.39582792469E+02  0.49493838580E+02  0.10566000000E+00 0. -1.
         22    1    1    0    0    0 -0.17080209770E+02 -0.24377028398E+02  0.21588733507E+01  0.29843488627E+02  0.00000000000E+00 0. -1.
</event>
<event>
 5    1  0.1250806E-009  0.9118800E+02  0.7561462E-02  0.1125453E+00
         25   -1    0    0    0    0  0.00000000000E+00  0.00000000000E+00  0.99999998245E-14  0.12509000000E+03  0.12509000000E+03 0.  0.
        -13    1    3    3    0    0  0.25352811238E+02 -0.35577942741E+02  0.15229073602E+01  0.43713675872E+02  0.10566000000E+00 0.  1.
         23    2    1    0    0    0  0.14111945749E+02  0.55022546391E+01 -0.26408486607E+02  0.94646117465E+02  0.89616168003E+02 0.  0.
         13    1    3    3    0    0 -0.11240865489E+02  0.41080197380E+02 -0.27931393967E+02  0.50932441594E+02  0.10566000000E+00 0. -1.
         22    1    1    0    0    0 -0.14111945749E+02 -0.55022546391E+01  0.26408486607E+02  0.30443882535E+02  0.00000000000E+00 0.  1.
</event>
<event>
 5    1  0.1250806E-009  0.9118800E+02  0.7561462E-02  0.1125453E+00
         25   -1    0    0    0    0  0.00000000000E+00  0.00000000000E+00  0.99999998245E-14  0.12509000000E+03  0.12509000000E+03 0.  0.
        -13    1    3    3    0    0  0.47942787116E+02  0.82429655524E+01 -0.37013628083E+02  0.61126730204E+02  0.10566000000E+00 0. -1.
         23    2    1    0    0    0  0.20642940518E+02 -0.50152011616E+01 -0.19968154177E+02  0.95935061873E+02  0.91397624036E+02 0.  0.
         13    1    3    3    0    0 -0.27299846597E+02 -0.13258166714E+02  0.17045473907E+02  0.34808331669E+02  0.10566000000E+00 0.  1.
         22    1    1    0    0    0 -0.20642940518E+02  0.50152011616E+01  0.19968154177E+02  0.29154938127E+02  0.00000000000E+00 0. -1.
</event>
<event>
 5    1  0.1250806E-009  0.9118800E+02  0.7561462E-02  0.1125453E+00
         25   -1    0    0    0    0  0.00000000000E+00  0.00000000000E+00  0.99999998245E-14  0.12509000000E+03  0.12509000000E+03 0.  0.
        -13    1    3    3    0    0 -0.69116959068E+01  0.66689068255E+01 -0.57270983929E+02  0.58070841416E+02  0.10566000000E+00 0. -1.
         23    2    1    0    0    0 -0.14762391824E+02 -0.89651756078E+01 -0.26810155504E+02  0.93198198167E+02  0.87571782655E+02 0.  0.
         13    1    3    3    0    0 -0.78506959168E+01 -0.15634082433E+02  0.30460828425E+02  0.35127356751E+02  0.10566000000E+00 0.  1.
         22    1    1    0    0    0  0.14762391824E+02  0.89651756078E+01  0.26810155504E+02  0.31891801833E+02  0.00000000000E+00 0. -1.
</event>
<event>
 5    1  0.1250806E-009  0.9118800E+02  0.7561462E-02  0.1125453E+00
         25   -1    0    0    0    0  0.00000000000E+00  0.00000000000E+00  0.99999998245E-14  0.12509000000E+03  0.12509000000E+03 0.  0.
        -13    1    3    3    0    0 -0.31602844706E+02 -0.51038393880E+02 -0.44657843164E+00  0.60032225011E+02  0.10566000000E+00 0. -1.
         23    2    1    0    0    0 -0.40509322810E+01 -0.27174701547E+02  0.57893421552E+01  0.97011699853E+02  0.92859458158E+02 0.  0.
         13    1    3    3    0    0  0.27551912425E+02  0.23863692333E+02  0.62359205868E+01  0.36979474843E+02  0.10566000000E+00 0.  1.
         22    1    1    0    0    0  0.40509322810E+01  0.27174701547E+02 -0.57893421552E+01  0.28078300147E+02  0.00000000000E+00 0. -1.
</event>
<event>
 5    1  0.1250806E-009  0.9118800E+02  0.7561462E-02  0.1125453E+00
         25   -1    0    0    0    0  0.00000000000E+00  0.00000000000E+00  0.99999998245E-14  0.12509000000E+03  0.12509000000E+03 0.  0.
        -13    1    3    3    0    0 -0.85084662196E+01 -0.11492245501E+02 -0.32058300924E+02  0.35102870627E+02  0.10566000000E+00 0. -1.
         23    2    1    0    0    0 -0.55275177093E+01  0.21133234466E+02  0.19247041952E+02  0.95976160080E+02  0.91453855188E+02 0.  0.
         13    1    3    3    0    0  0.29809485103E+01  0.32625479967E+02  0.51305342876E+02  0.60873289453E+02  0.10566000000E+00 0.  1.
         22    1    1    0    0    0  0.55275177093E+01 -0.21133234466E+02 -0.19247041952E+02  0.29113839920E+02  0.00000000000E+00 0.  1.
</event>
<event>
 5    1  0.1250806E-009  0.9118800E+02  0.7561462E-02  0.1125453E+00
         25   -1    0    0    0    0  0.00000000000E+00  0.00000000000E+00  0.99999998245E-14  0.12509000000E+03  0.12509000000E+03 0.  0.
        -13    1    3    3    0    0  0.12598330164E+02 -0.15638616078E+01  0.53116188211E+02  0.54612308138E+02  0.10566000000E+00 0. -1.
         23    2    1    0    0    0  0.88527285587E+01  0.20819797709E+02  0.19222483118E+02  0.95402651907E+02  0.90666020945E+02 0.  0.
         13    1    3    3    0    0 -0.37456016057E+01  0.22383659317E+02 -0.33893705093E+02  0.40790343769E+02  0.10566000000E+00 0.  1.
         22    1    1    0    0    0 -0.88527285587E+01 -0.20819797709E+02 -0.19222483118E+02  0.29687348093E+02  0.00000000000E+00 0. -1.
</event>
<event>
 5    1  0.1250806E-009  0.9118800E+02  0.7561462E-02  0.1125453E+00
         25   -1    0    0    0    0  0.00000000000E+00  0.00000000000E+00  0.99999998245E-14  0.12509000000E+03  0.12509000000E+03 0.  0.
        -13    1    3    3    0    0  0.25595076668E+02 -0.27294950386E+02  0.36267789037E+02  0.52110324811E+02  0.10566000000E+00 0. -1.
         23    2    1    0    0    0  0.92477829998E+01  0.11165794344E+02  0.26276867798E+02  0.95078831496E+02  0.90218146532E+02 0.  0.
         13    1    3    3    0    0 -0.16347293668E+02  0.38460744730E+02 -0.99909212391E+01  0.42968506685E+02  0.10566000000E+00 0.  1.
         22    1    1    0    0    0 -0.92477829998E+01 -0.11165794344E+02 -0.26276867798E+02  0.30011168504E+02  0.00000000000E+00 0. -1.
</event>
<event>
 5    1  0.1250806E-009  0.9118800E+02  0.7561462E-02  0.1125453E+00
         25   -1    0    0    0    0  0.00000000000E+00  0.00000000000E+00  0.99999998245E-14  0.12509000000E+03  0.12509000000E+03 0.  0.
        -13    1    3    3    0    0  0.16313453896E+02 -0.41599542991E+02 -0.25578072496E+02  0.51486888736E+02  0.10566000000E+00 0. -1.
         23    2    1    0    0    0 -0.10278065941E+02 -0.15680806775E+01 -0.23272267586E+02  0.99600865940E+02  0.96284144806E+02 0.  0.
         13    1    3    3    0    0 -0.26591519837E+02  0.40031462313E+02  0.23058049096E+01  0.48113977205E+02  0.10566000000E+00 0.  1.
         22    1    1    0    0    0  0.10278065941E+02  0.15680806775E+01  0.23272267586E+02  0.25489134060E+02  0.00000000000E+00 0. -1.
</event>
<event>
 5    1  0.1250806E-009  0.9118800E+02  0.7561462E-02  0.1125453E+00
         25   -1    0    0    0    0  0.00000000000E+00  0.00000000000E+00  0.99999998245E-14  0.12509000000E+03  0.12509000000E+03 0.  0.
        -13    1    3    3    0    0  0.16352355142E+02  0.28652104652E+02 -0.24928891336E+02  0.41349769128E+02  0.10566000000E+00 0.  1.
         23    2    1    0    0    0 -0.22119647215E+02  0.15603337749E+02  0.11275706365E+02  0.95766212799E+02  0.91166238367E+02 0.  0.
         13    1    3    3    0    0 -0.38472002357E+02 -0.13048766903E+02  0.36204597701E+02  0.54416443671E+02  0.10566000000E+00 0. -1.
         22    1    1    0    0    0  0.22119647215E+02 -0.15603337749E+02 -0.11275706365E+02  0.29323787201E+02  0.00000000000E+00 0. -1.
</event>
<event>
 5    1  0.1250806E-009  0.9118800E+02  0.7561462E-02  0.1125453E+00
         25   -1    0    0    0    0  0.00000000000E+00  0.00000000000E+00  0.99999998245E-14  0.12509000000E+03  0.12509000000E+03 0.  0.
        -13    1    3    3    0    0 -0.38947121160E+02  0.14037765571E+02 -0.47271342451E+01  0.41668862129E+02  0.10566000000E+00 0.  1.
         23    2    1    0    0    0 -0.52107306173E+01 -0.27293525585E+02 -0.10615546107E+02  0.95344780694E+02  0.90586142063E+02 0.  0.
         13    1    3    3    0    0  0.33736390543E+02 -0.41331291156E+02 -0.58884118620E+01  0.53675918565E+02  0.10566000000E+00 0. -1.
         22    1    1    0    0    0  0.52107306173E+01  0.27293525585E+02  0.10615546107E+02  0.29745219306E+02  0.00000000000E+00 0. -1.
</event>
<event>
 5    1  0.1250806E-009  0.9118800E+02  0.7561462E-02  0.1125453E+00
         25   -1    0    0    0    0  0.00000000000E+00  0.00000000000E+00  0.99999998245E-14  0.12509000000E+03  0.12509000000E+03 0.  0.
        -13    1    3    3    0    0  0.47138458108E+02  0.37504953786E+02  0.14260238348E+02  0.61903322633E+02  0.10566000000E+00 0.  1.
         23    2    1    0    0    0  0.17464876513E+02  0.19180462222E+02  0.12747135117E+01  0.99118151063E+02  0.95654957702E+02 0.  0.
         13    1    3    3    0    0 -0.29673581595E+02 -0.18324491563E+02 -0.12985524837E+02  0.37214828430E+02  0.10566000000E+00 0. -1.
         22    1    1    0    0    0 -0.17464876513E+02 -0.19180462222E+02 -0.12747135117E+01  0.25971848937E+02  0.00000000000E+00 0.  1.
</event>
<event>
 5    1  0.1250806E-009  0.9118800E+02  0.7561462E-02  0.1125453E+00
         25   -1    0    0    0    0  0.00000000000E+00  0.00000000000E+00  0.99999998245E-14  0.12509000000E+03  0.12509000000E+03 0.  0.
        -13    1    3    3    0    0  0.14061658637E+02  0.23842177596E+02  0.19194785702E+02  0.33684278801E+02  0.10566000000E+00 0. -1.
         23    2    1    0    0    0 -0.25138496258E+02 -0.11957592588E+02 -0.11458892059E+02  0.94986275615E+02  0.90089723795E+02 0.  0.
         13    1    3    3    0    0 -0.39200154895E+02 -0.35799770185E+02 -0.30653677761E+02  0.61301996814E+02  0.10566000000E+00 0.  1.
         22    1    1    0    0    0  0.25138496258E+02  0.11957592588E+02  0.11458892059E+02  0.30103724385E+02  0.00000000000E+00 0.  1.
</event>
<event>
 5    1  0.1250806E-009  0.9118800E+02  0.7561462E-02  0.1125453E+00
         25   -1    0    0    0    0  0.00000000000E+00  0.00000000000E+00  0.99999998245E-14  0.12509000000E+03  0.12509000000E+03 0.  0.
        -13    1    3    3    0    0 -0.34182309891E+02  0.26017719469E+02 -0.13024911002E+02  0.44888879541E+02  0.10566000000E+00 0. -1.
         23    2    1    0    0    0  0.12518067353E+02  0.10625741721E+02 -0.24702576815E+02  0.95428144045E+02  0.90701185093E+02 0.  0.
         13    1    3    3    0    0  0.46700377244E+02 -0.15391977748E+02 -0.11677665813E+02  0.50539264504E+02  0.10566000000E+00 0.  1.
         22    1    1    0    0    0 -0.12518067353E+02 -0.10625741721E+02  0.24702576815E+02  0.29661855955E+02  0.00000000000E+00 0. -1.
</event>
<event>
 5    1  0.1250806E-009  0.9118800E+02  0.7561462E-02  0.1125453E+00
         25   -1    0    0    0    0  0.00000000000E+00  0.00000000000E+00  0.99999998245E-14  0.12509000000E+03  0.12509000000E+03 0.  0.
        -13    1    3    3    0    0 -0.31422226586E+02  0.12215534275E+01  0.34176823478E+02  0.46442598371E+02  0.10566000000E+00 0. -1.
         23    2    1    0    0    0  0.13299656303E+02  0.13037365774E+02  0.25511396884E+02  0.93503845833E+02  0.88007295438E+02 0.  0.
         13    1    3    3    0    0  0.44721882889E+02  0.11815812347E+02 -0.86654265938E+01  0.47061247461E+02  0.10566000000E+00 0.  1.
         22    1    1    0    0    0 -0.13299656303E+02 -0.13037365774E+02 -0.25511396884E+02  0.31586154167E+02  0.00000000000E+00 0.  1.
</event>
<event>
 5    1  0.1250806E-009  0.9118800E+02  0.7561462E-02  0.1125453E+00
         25   -1    0    0    0    0  0.00000000000E+00  0.00000000000E+00  0.99999998245E-14  0.12509000000E+03  0.12509000000E+03 0.  0.
        -13    1    3    3    0    0 -0.57319322174E+01 -0.76009004127E+01  0.59578806588E+02  0.60334683993E+02  0.10566000000E+00 0.  1.
         23    2    1    0    0    0 -0.14098136691E+02 -0.70189894815E+01  0.28468322859E+02  0.92555878252E+02  0.86649417316E+02 0.  0.
         13    1    3    3    0    0 -0.83662044738E+01  0.58191093116E+00 -0.31110483729E+02  0.32221194260E+02  0.10566000000E+00 0. -1.
         22    1    1    0    0    0  0.14098136691E+02  0.70189894815E+01 -0.28468322859E+02  0.32534121748E+02  0.00000000000E+00 0.  1.
</event>
<event>
 5    1  0.1250806E-009  0.9118800E+02  0.7561462E-02  0.1125453E+00
         25   -1    0    0    0    0  0.00000000000E+00  0.00000000000E+00  0.99999998245E-14  0.12509000000E+03  0.12509000000E+03 0.  0.
        -13    1    3    3    0    0 -0.24954501608E+02  0.10560391836E+02  0.25644150161E+02  0.37307943226E+02  0.10566000000E+00 0.  1.
         23    2    1    0    0    0  0.21651920813E+02 -0.82587137849E+01 -0.10929206213E+02  0.99468532893E+02  0.96112067188E+02 0.  0.
         13    1    3    3    0    0  0.46606422421E+02 -0.18819105621E+02 -0.36573356374E+02  0.62160589667E+02  0.10566000000E+00 0. -1.
         22    1    1    0    0    0 -0.21651920813E+02  0.82587137849E+01  0.10929206213E+02  0.25621467107E+02  0.00000000000E+00 0. -1.
</event>
<event>
 5    1  0.1250806E-009  0.9118800E+02  0.7561462E-02  0.1125453E+00
         25   -1    0    0    0    0  0.00000000000E+00  0.00000000000E+00  0.99999998245E-14  0.12509000000E+03  0.12509000000E+03 0.  0.
        -13    1    3    3    0    0  0.31322368126E+02 -0.88573333496E+01 -0.43722227977E+02  0.54508600077E+02  0.10566000000E+00 0.  1.
         23    2    1    0    0    0  0.23769942965E+02 -0.16300378557E+02 -0.35579779883E+01  0.96049136772E+02  0.91553617829E+02 0.  0.
         13    1    3    3    0    0 -0.75524251608E+01 -0.74430452070E+01  0.40164249988E+02  0.41540536695E+02  0.10566000000E+00 0. -1.
         22    1    1    0    0    0 -0.23769942965E+02  0.16300378557E+02  0.35579779883E+01  0.29040863228E+02  0.00000000000E+00 0.  1.
</event>
<event>
 5    1  0.1250806E-009  0.9118800E+02  0.7561462E-02  0.1125453E+00
         25   -1    0    0    0    0  0.00000000000E+00  0.00000000000E+00  0.99999998245E-14  0.12509000000E+03  0.12509000000E+03 0.  0.
        -13    1    3    3    0    0  0.16641005336E+02 -0.26399098593E+02 -0.48076959013E+02  0.57317018564E+02  0.10566000000E+00 0.  1.
         23    2    1    0    0    0 -0.74155156710E+01 -0.21248611766E+02 -0.17387011190E+02  0.96650563775E+02  0.92371694503E+02 0.  0.
         13    1    3    3    0    0 -0.24056521007E+02  0.51504868274E+01  0.30689947823E+02  0.39333545211E+02  0.10566000000E+00 0. -1.
         22    1    1    0    0    0  0.74155156710E+01  0.21248611766E+02  0.17387011190E+02  0.28439436225E+02  0.00000000000E+00 0.  1.
</event>
<event>
 5    1  0.1250806E-009  0.9118800E+02  0.7561462E-02  0.1125453E+00
         25   -1    0    0    0    0  0.00000000000E+00  0.00000000000E+00  0.99999998245E-14  0.12509000000E+03  0.12509000000E+03 0.  0.
        -13    1    3    3    0    0  0.45238921997E+02 -0.36817416630E+02 -0.15270238114E+02  0.60293229859E+02  0.10566000000E+00 0.  1.
         23    2    1    0    0    0  0.13282429026E+02 -0.26017136142E+02 -0.61269829246E+01  0.95242819001E+02  0.90445234023E+02 0.  0.
         13    1    3    3    0    0 -0.31956492971E+02  0.10800280488E+02  0.91432551894E+01  0.34949589141E+02  0.10566000000E+00 0. -1.
         22    1    1    0    0    0 -0.13282429026E+02  0.26017136142E+02  0.61269829246E+01  0.29847180999E+02  0.00000000000E+00 0.  1.
</event>
<event>
 5    1  0.1250806E-009  0.9118800E+02  0.7561462E-02  0.1125453E+00
         25   -1    0    0    0    0  0.00000000000E+00  0.00000000000E+00  0.99999998245E-14  0.12509000000E+03  0.12509000000E+03 0.  0.
        -13    1    3    3    0    0 -0.16128430585E+02 -0.47444892979E+02  0.13943451040E+02  0.52015143313E+02  0.10566000000E+00 0.  1.
         23    2    1    0    0    0 -0.96660058921E+01  0.59566373331E+01  0.15556747891E+02  0.10583057106E+03  0.10406336612E+03 0.  0.
         13    1    3    3    0    0  0.64624246925E+01  0.53401530312E+02  0.16132968510E+01  0.53815427745E+02  0.10566000000E+00 0. -1.
         22    1    1    0    0    0  0.96660058921E+01 -0.59566373331E+01 -0.15556747891E+02  0.19259428942E+02  0.00000000000E+00 0.  1.
</event>
<event>
 5    1  0.1250806E-009  0.9118800E+02  0.7561462E-02  0.1125453E+00
         25   -1    0    0    0    0  0.00000000000E+00  0.00000000000E+00  0.99999998245E-14  0.12509000000E+03  0.12509000000E+03 0.  0.
        -13    1    3    3    0    0 -0.45936331484E+01  0.52193276289E+02 -0.28408408843E+01  0.52472098264E+02  0.10566000000E+00 0. -1.
         23    2    1    0    0    0 -0.23258840812E+02  0.13009257534E+02  0.81073006684E+01  0.97234250474E+02  0.93158771372E+02 0.  0.
         13    1    3    3    0    0 -0.18665207664E+02 -0.39184018755E+02  0.10948141553E+02  0.44762152210E+02  0.10566000000E+00 0.  1.
         22    1    1    0    0    0  0.23258840812E+02 -0.13009257534E+02 -0.81073006684E+01  0.27855749526E+02  0.00000000000E+00 0.  1.
</event>
<event>
 5    1  0.1250806E-009  0.9118800E+02  0.7561462E-02  0.1125453E+00
         25   -1    0    0    0    0  0.00000000000E+00  0.00000000000E+00  0.99999998245E-14  0.12509000000E+03  0.12509000000E+03 0.  0.
        -13    1    3    3    0    0 -0.15658670075E+02  0.64090414198E+01  0.31143117006E+02  0.35442554385E+02  0.10566000000E+00 0.  1.
         23    2    1    0    0    0 -0.32223869015E+01 -0.17162380259E+02 -0.23249214161E+02  0.96013256155E+02  0.91504580896E+02 0.  0.
         13    1    3    3    0    0  0.12436283174E+02 -0.23571421679E+02 -0.54392331167E+02  0.60570701770E+02  0.10566000000E+00 0. -1.
         22    1    1    0    0    0  0.32223869015E+01  0.17162380259E+02  0.23249214161E+02  0.29076743845E+02  0.00000000000E+00 0. -1.
</event>
<event>
 5    1  0.1250806E-009  0.9118800E+02  0.7561462E-02  0.1125453E+00
         25   -1    0    0    0    0  0.00000000000E+00  0.00000000000E+00  0.99999998245E-14  0.12509000000E+03  0.12509000000E+03 0.  0.
        -13    1    3    3    0    0 -0.45064785801E+02 -0.10183388353E+02  0.35131737323E+02  0.58041247824E+02  0.10566000000E+00 0.  1.
         23    2    1    0    0    0 -0.29825154767E+02 -0.82043586008E+01  0.25663017600E+01  0.94050714221E+02  0.88781189358E+02 0.  0.
         13    1    3    3    0    0  0.15239631034E+02  0.19790297517E+01 -0.32565435563E+02  0.36009466397E+02  0.10566000000E+00 0. -1.
         22    1    1    0    0    0  0.29825154767E+02  0.82043586008E+01 -0.25663017600E+01  0.31039285779E+02  0.00000000000E+00 0.  1.
</event>
<event>
 5    1  0.1250806E-009  0.9118800E+02  0.7561462E-02  0.1125453E+00
         25   -1    0    0    0    0  0.00000000000E+00  0.00000000000E+00  0.99999998245E-14  0.12509000000E+03  0.12509000000E+03 0.  0.
        -13    1    3    3    0    0  0.41019333565E+02 -0.28975494957E+02  0.24996476481E+02  0.56098128620E+02  0.10566000000E+00 0. -1.
         23    2    1    0    0    0  0.75844522921E+01 -0.93046973935E+01  0.27615007050E+02  0.94978707691E+02  0.90079215083E+02 0.  0.
         13    1    3    3    0    0 -0.33434881273E+02  0.19670797564E+02  0.26185305692E+01  0.38880579071E+02  0.10566000000E+00 0.  1.
         22    1    1    0    0    0 -0.75844522921E+01  0.93046973935E+01 -0.27615007050E+02  0.30111292309E+02  0.00000000000E+00 0. -1.
</event>
<event>
 5    1  0.1250806E-009  0.9118800E+02  0.7561462E-02  0.1125453E+00
         25   -1    0    0    0    0  0.00000000000E+00  0.00000000000E+00  0.99999998245E-14  0.12509000000E+03  0.12509000000E+03 0.  0.
        -13    1    3    3    0    0 -0.55478899022E+02 -0.27564419206E+01 -0.20174361829E+02  0.59097565500E+02  0.10566000000E+00 0.  1.
         23    2    1    0    0    0 -0.20791621730E+02 -0.14450164375E+02 -0.13798940925E+02  0.96254092605E+02  0.91833222680E+02 0.  0.
         13    1    3    3    0    0  0.34687277292E+02 -0.11693722455E+02  0.63754209041E+01  0.37156527105E+02  0.10566000000E+00 0. -1.
         22    1    1    0    0    0  0.20791621730E+02  0.14450164375E+02  0.13798940925E+02  0.28835907395E+02  0.00000000000E+00 0.  1.
</event>
<event>
 5    1  0.1250806E-009  0.9118800E+02  0.7561462E-02  0.1125453E+00
         25   -1    0    0    0    0  0.00000000000E+00  0.00000000000E+00  0.99999998245E-14  0.12509000000E+03  0.12509000000E+03 0.  0.
        -13    1    3    3    0    0 -0.70197669484E+01 -0.93146425741E+01 -0.32400184996E+02  0.34435778575E+02  0.10566000000E+00 0.  1.
         23    2    1    0    0    0 -0.10739597128E+01  0.81917541970E+01  0.27108497391E+02  0.96750471827E+02  0.92506891320E+02 0.  0.
         13    1    3    3    0    0  0.59458072356E+01  0.17506396771E+02  0.59508682387E+02  0.62314693251E+02  0.10566000000E+00 0. -1.
         22    1    1    0    0    0  0.10739597128E+01 -0.81917541970E+01 -0.27108497391E+02  0.28339528173E+02  0.00000000000E+00 0. -1.
</event>
<event>
 5    1  0.1250806E-009  0.9118800E+02  0.7561462E-02  0.1125453E+00
         25   -1    0    0    0    0  0.00000000000E+00  0.00000000000E+00  0.99999998245E-14  0.12509000000E+03  0.12509000000E+03 0.  0.
        -13    1    3    3    0    0  0.43527813395E+02  0.19668139795E+01 -0.21740701137E+01  0.43626558896E+02  0.10566000000E+00 0.  1.
         23    2    1    0    0    0 -0.56855687131E+01  0.23598360470E+02  0.10151437109E+02  0.98779166036E+02  0.95210627868E+02 0.  0.
         13    1    3    3    0    0 -0.49213382108E+02  0.21631546491E+02  0.12325507223E+02  0.55152607141E+02  0.10566000000E+00 0. -1.
         22    1    1    0    0    0  0.56855687131E+01 -0.23598360470E+02 -0.10151437109E+02  0.26310833964E+02  0.00000000000E+00 0.  1.
</event>
<event>
 5    1  0.1250806E-009  0.9118800E+02  0.7561462E-02  0.1125453E+00
         25   -1    0    0    0    0  0.00000000000E+00  0.00000000000E+00  0.99999998245E-14  0.12509000000E+03  0.12509000000E+03 0.  0.
        -13    1    3    3    0    0  0.10752171947E+02 -0.70521753822E+01  0.59426715944E+02  0.60802040353E+02  0.10566000000E+00 0.  1.
         23    2    1    0    0    0  0.31559233440E+01  0.69278214128E+01  0.28618768123E+02  0.95476009209E+02  0.90767174044E+02 0.  0.
         13    1    3    3    0    0 -0.75962486025E+01  0.13979996795E+02 -0.30807947821E+02  0.34673968856E+02  0.10566000000E+00 0. -1.
         22    1    1    0    0    0 -0.31559233440E+01 -0.69278214128E+01 -0.28618768123E+02  0.29613990791E+02  0.00000000000E+00 0.  1.
</event>
<event>
 5    1  0.1250806E-009  0.9118800E+02  0.7561462E-02  0.1125453E+00
         25   -1    0    0    0    0  0.00000000000E+00  0.00000000000E+00  0.99999998245E-14  0.12509000000E+03  0.12509000000E+03 0.  0.
        -13    1    3    3    0    0  0.84222400581E+01  0.15763394388E+02 -0.16682292479E+02  0.24448492318E+02  0.10566000000E+00 0. -1.
         23    2    1    0    0    0 -0.48386969604E+01 -0.31278933126E+02  0.21801911797E+02  0.86656837187E+02  0.77667878994E+02 0.  0.
         13    1    3    3    0    0 -0.13260937019E+02 -0.47042327514E+02  0.38484204277E+02  0.62208344869E+02  0.10566000000E+00 0.  1.
         22    1    1    0    0    0  0.48386969604E+01  0.31278933126E+02 -0.21801911797E+02  0.38433162813E+02  0.00000000000E+00 0.  1.
</event>
<event>
 5    1  0.1250806E-009  0.9118800E+02  0.7561462E-02  0.1125453E+00
         25   -1    0    0    0    0  0.00000000000E+00  0.00000000000E+00  0.99999998245E-14  0.12509000000E+03  0.12509000000E+03 0.  0.
        -13    1    3    3    0    0  0.52293010177E+01 -0.12322480083E+02 -0.32482899128E+02  0.35133161035E+02  0.10566000000E+00 0.  1.
         23    2    1    0    0    0  0.96376817152E+01  0.17310347129E+02  0.20864608415E+02  0.96317358292E+02  0.91919359210E+02 0.  0.
         13    1    3    3    0    0  0.44083806975E+01  0.29632827212E+02  0.53347507543E+02  0.61184197257E+02  0.10566000000E+00 0. -1.
         22    1    1    0    0    0 -0.96376817152E+01 -0.17310347129E+02 -0.20864608415E+02  0.28772641708E+02  0.00000000000E+00 0. -1.
</event>
<event>
 5    1  0.1250806E-009  0.9118800E+02  0.7561462E-02  0.1125453E+00
         25   -1    0    0    0    0  0.00000000000E+00  0.00000000000E+00  0.99999998245E-14  0.12509000000E+03  0.12509000000E+03 0.  0.
        -13    1    3    3    0    0 -0.20902400045E+02  0.47306613188E+02 -0.83470654144E+01  0.52388077308E+02  0.10566000000E+00 0.  1.
         23    2    1    0    0    0 -0.29022544129E+01  0.18012848437E+02  0.20771020252E+02  0.97443642703E+02  0.93439512153E+02 0.  0.
         13    1    3    3    0    0  0.18000145632E+02 -0.29293764751E+02  0.29118085667E+02  0.45055565394E+02  0.10566000000E+00 0. -1.
         22    1    1    0    0    0  0.29022544129E+01 -0.18012848437E+02 -0.20771020252E+02  0.27646357297E+02  0.00000000000E+00 0.  1.
</event>
<event>
 5    1  0.1250806E-009  0.9118800E+02  0.7561462E-02  0.1125453E+00
         25   -1    0    0    0    0  0.00000000000E+00  0.00000000000E+00  0.99999998245E-14  0.12509000000E+03  0.12509000000E+03 0.  0.
        -13    1    3    3    0    0 -0.77831058692E+01 -0.46492761627E+01 -0.41334695844E+02  0.42317381185E+02  0.10566000000E+00 0.  1.
         23    2    1    0    0    0 -0.10883787361E+02  0.27820686010E+02  0.30886471310E+00  0.95214545279E+02  0.90406121683E+02 0.  0.
         13    1    3    3    0    0 -0.31006814919E+01  0.32469962173E+02  0.41643560557E+02  0.52897164094E+02  0.10566000000E+00 0. -1.
         22    1    1    0    0    0  0.10883787361E+02 -0.27820686010E+02 -0.30886471310E+00  0.29875454721E+02  0.00000000000E+00 0. -1.
</event>
<event>
 5    1  0.1250806E-009  0.9118800E+02  0.7561462E-02  0.1125453E+00
         25   -1    0    0    0    0  0.00000000000E+00  0.00000000000E+00  0.99999998245E-14  0.12509000000E+03  0.12509000000E+03 0.  0.
        -13    1    3    3    0    0 -0.84522215755E+01 -0.27992712585E+02 -0.19343491260E+02  0.35060145829E+02  0.10566000000E+00 0.  1.
         23    2    1    0    0    0  0.23583063048E+02  0.13972858619E+02  0.10534473746E+02  0.95723747637E+02  0.91107952912E+02 0.  0.
         13    1    3    3    0    0  0.32035284624E+02  0.41965571204E+02  0.29877965006E+02  0.60663601808E+02  0.10566000000E+00 0. -1.
         22    1    1    0    0    0 -0.23583063048E+02 -0.13972858619E+02 -0.10534473746E+02  0.29366252363E+02  0.00000000000E+00 0. -1.
</event>
<event>
 5    1  0.1250806E-009  0.9118800E+02  0.7561462E-02  0.1125453E+00
         25   -1    0    0    0    0  0.00000000000E+00  0.00000000000E+00  0.99999998245E-14  0.12509000000E+03  0.12509000000E+03 0.  0.
        -13    1    3    3    0    0 -0.30391887040E+02 -0.25751239601E+02 -0.37908445890E+02  0.54989586038E+02  0.10566000000E+00 0.  1.
         23    2    1    0    0    0  0.57686972923E+01 -0.74182429192E+01 -0.26300372241E+02  0.97161201664E+02  0.93060632559E+02 0.  0.
         13    1    3    3    0    0  0.36160584333E+02  0.18332996682E+02  0.11608073649E+02  0.42171615626E+02  0.10566000000E+00 0. -1.
         22    1    1    0    0    0 -0.57686972923E+01  0.74182429192E+01  0.26300372241E+02  0.27928798336E+02  0.00000000000E+00 0.  1.
</event>
<event>
 5    1  0.1250806E-009  0.9118800E+02  0.7561462E-02  0.1125453E+00
         25   -1    0    0    0    0  0.00000000000E+00  0.00000000000E+00  0.99999998245E-14  0.12509000000E+03  0.12509000000E+03 0.  0.
        -13    1    3    3    0    0 -0.17292108470E+02 -0.64911119231E+01 -0.26005501841E+02  0.31897473872E+02  0.10566000000E+00 0.  1.
         23    2    1    0    0    0  0.17948986963E+02  0.31783764467E+00  0.25028219434E+02  0.94289368159E+02  0.89116811130E+02 0.  0.
         13    1    3    3    0    0  0.35241095432E+02  0.68089495678E+01  0.51033721276E+02  0.62391894287E+02  0.10566000000E+00 0. -1.
         22    1    1    0    0    0 -0.17948986963E+02 -0.31783764467E+00 -0.25028219434E+02  0.30800631841E+02  0.00000000000E+00 0. -1.
</event>
<event>
 5    1  0.1250806E-009  0.9118800E+02  0.7561462E-02  0.1125453E+00
         25   -1    0    0    0    0  0.00000000000E+00  0.00000000000E+00  0.99999998245E-14  0.12509000000E+03  0.12509000000E+03 0.  0.
        -13    1    3    3    0    0 -0.29609014984E+02  0.16163749451E+02  0.31327473646E+02  0.46036749817E+02  0.10566000000E+00 0. -1.
         23    2    1    0    0    0  0.14411179952E+02  0.20030928282E+02 -0.35578814811E+00  0.10041112684E+03  0.97331123551E+02 0.  0.
         13    1    3    3    0    0  0.44020194935E+02  0.38671788315E+01 -0.31683261794E+02  0.54374377019E+02  0.10566000000E+00 0.  1.
         22    1    1    0    0    0 -0.14411179952E+02 -0.20030928282E+02  0.35578814811E+00  0.24678873164E+02  0.00000000000E+00 0.  1.
</event>
<event>
 5    1  0.1250806E-009  0.9118800E+02  0.7561462E-02  0.1125453E+00
         25   -1    0    0    0    0  0.00000000000E+00  0.00000000000E+00  0.99999998245E-14  0.12509000000E+03  0.12509000000E+03 0.  0.
        -13    1    3    3    0    0 -0.62166311331E+01 -0.16063594391E+02 -0.31141160769E+02  0.35587478493E+02  0.10566000000E+00 0. -1.
         23    2    1    0    0    0  0.91638436436E+00  0.70316126680E+00  0.27792394828E+02  0.97273612630E+02  0.93211610370E+02 0.  0.
         13    1    3    3    0    0  0.71330154974E+01  0.16766755658E+02  0.58933555597E+02  0.61686134137E+02  0.10566000000E+00 0.  1.
         22    1    1    0    0    0 -0.91638436436E+00 -0.70316126680E+00 -0.27792394828E+02  0.27816387370E+02  0.00000000000E+00 0.  1.
</event>
<event>
 5    1  0.1250806E-009  0.9118800E+02  0.7561462E-02  0.1125453E+00
         25   -1    0    0    0    0  0.00000000000E+00  0.00000000000E+00  0.99999998245E-14  0.12509000000E+03  0.12509000000E+03 0.  0.
        -13    1    3    3    0    0  0.11131291965E+02  0.33388668019E+02 -0.27286060257E+02  0.44533684569E+02  0.10566000000E+00 0.  1.
         23    2    1    0    0    0 -0.22183500584E+02  0.17626542349E+02  0.80941869965E+01  0.95622754515E+02  0.90969185028E+02 0.  0.
         13    1    3    3    0    0 -0.33314792549E+02 -0.15762125671E+02  0.35380247253E+02  0.51089069946E+02  0.10566000000E+00 0. -1.
         22    1    1    0    0    0  0.22183500584E+02 -0.17626542349E+02 -0.80941869965E+01  0.29467245485E+02  0.00000000000E+00 0. -1.
</event>
<event>
 5    1  0.1250806E-009  0.9118800E+02  0.7561462E-02  0.1125453E+00
         25   -1    0    0    0    0  0.00000000000E+00  0.00000000000E+00  0.99999998245E-14  0.12509000000E+03  0.12509000000E+03 0.  0.
        -13    1    3    3    0    0  0.43965776222E+02 -0.67766376393E+00  0.20662416970E+02  0.48583900071E+02  0.10566000000E+00 0. -1.
         23    2    1    0    0    0  0.20130215177E+02  0.37330283474E+01 -0.20349325502E+02  0.96223824083E+02  0.91791983359E+02 0.  0.
         13    1    3    3    0    0 -0.23835561045E+02  0.44106921113E+01 -0.41011742472E+02  0.47639924012E+02  0.10566000000E+00 0.  1.
         22    1    1    0    0    0 -0.20130215177E+02 -0.37330283474E+01  0.20349325502E+02  0.28866175917E+02  0.00000000000E+00 0.  1.
</event>
<event>
 5    1  0.1250806E-009  0.9118800E+02  0.7561462E-02  0.1125453E+00
         25   -1    0    0    0    0  0.00000000000E+00  0.00000000000E+00  0.99999998245E-14  0.12509000000E+03  0.12509000000E+03 0.  0.
        -13    1    3    3    0    0  0.27578581947E+02 -0.45584402540E+01 -0.40016868917E+02  0.48813097850E+02  0.10566000000E+00 0. -1.
         23    2    1    0    0    0 -0.16229260689E+02  0.49074998556E+01 -0.22461562199E+02  0.96947607889E+02  0.92773080371E+02 0.  0.
         13    1    3    3    0    0 -0.43807842636E+02  0.94659401096E+01  0.17555306719E+02  0.48134510038E+02  0.10566000000E+00 0.  1.
         22    1    1    0    0    0  0.16229260689E+02 -0.49074998556E+01  0.22461562199E+02  0.28142392111E+02  0.00000000000E+00 0.  1.
</event>
<event>
 5    1  0.1250806E-009  0.9118800E+02  0.7561462E-02  0.1125453E+00
         25   -1    0    0    0    0  0.00000000000E+00  0.00000000000E+00  0.99999998245E-14  0.12509000000E+03  0.12509000000E+03 0.  0.
        -13    1    3    3    0    0 -0.40403451936E+02 -0.16118256192E+02 -0.55497592456E+01  0.43852572362E+02  0.10566000000E+00 0. -1.
         23    2    1    0    0    0 -0.81097673917E+01 -0.39815407245E+02  0.10250025777E+01  0.84444143981E+02  0.74018429065E+02 0.  0.
         13    1    3    3    0    0  0.32293684545E+02 -0.23697151052E+02  0.65747618233E+01  0.40591571619E+02  0.10566000000E+00 0.  1.
         22    1    1    0    0    0  0.81097673917E+01  0.39815407245E+02 -0.10250025777E+01  0.40645856019E+02  0.00000000000E+00 0. -1.
</event>
<event>
 5    1  0.1250806E-009  0.9118800E+02  0.7561462E-02  0.1125453E+00
         25   -1    0    0    0    0  0.00000000000E+00  0.00000000000E+00  0.99999998245E-14  0.12509000000E+03  0.12509000000E+03 0.  0.
        -13    1    3    3    0    0 -0.14869960758E+01 -0.77567734531E+01  0.37622614857E+02  0.38442827738E+02  0.10566000000E+00 0. -1.
         23    2    1    0    0    0  0.16820528149E+02 -0.19043124977E+02 -0.15204410448E+02  0.95480122034E+02  0.90772841921E+02 0.  0.
         13    1    3    3    0    0  0.18307524225E+02 -0.11286351523E+02 -0.52827025306E+02  0.57037294296E+02  0.10566000000E+00 0.  1.
         22    1    1    0    0    0 -0.16820528149E+02  0.19043124977E+02  0.15204410448E+02  0.29609877966E+02  0.00000000000E+00 0.  1.
</event>
<event>
 5    1  0.1250806E-009  0.9118800E+02  0.7561462E-02  0.1125453E+00
         25   -1    0    0    0    0  0.00000000000E+00  0.00000000000E+00  0.99999998245E-14  0.12509000000E+03  0.12509000000E+03 0.  0.
        -13    1    3    3    0    0  0.32385241085E+02 -0.10092349151E+00  0.15898930095E+02  0.36077710125E+02  0.10566000000E+00 0.  1.
         23    2    1    0    0    0 -0.15594861622E+02  0.26055906966E+02 -0.44683857494E+01  0.94396735787E+02  0.89267391915E+02 0.  0.
         13    1    3    3    0    0 -0.47980102708E+02  0.26156830457E+02 -0.20367315844E+02  0.58319025662E+02  0.10566000000E+00 0. -1.
         22    1    1    0    0    0  0.15594861622E+02 -0.26055906966E+02  0.44683857494E+01  0.30693264213E+02  0.00000000000E+00 0. -1.
</event>
<event>
 5    1  0.1250806E-009  0.9118800E+02  0.7561462E-02  0.1125453E+00
         25   -1    0    0    0    0  0.00000000000E+00  0.00000000000E+00  0.99999998245E-14  0.12509000000E+03  0.12509000000E+03 0.  0.
        -13    1    3    3    0    0  0.27415715113E+02  0.42798671767E+02 -0.10143741476E+01  0.50836874994E+02  0.10566000000E+00 0.  1.
         23    2    1    0    0    0  0.26919019929E+02 -0.21312437750E+00  0.11767440678E+02  0.95710556234E+02  0.91089839491E+02 0.  0.
         13    1    3    3    0    0 -0.49669518471E+00 -0.43011796145E+02  0.12781814826E+02  0.44873681239E+02  0.10566000000E+00 0. -1.
         22    1    1    0    0    0 -0.26919019929E+02  0.21312437750E+00 -0.11767440678E+02  0.29379443766E+02  0.00000000000E+00 0. -1.
</event>
<event>
 5    1  0.1250806E-009  0.9118800E+02  0.7561462E-02  0.1125453E+00
         25   -1    0    0    0    0  0.00000000000E+00  0.00000000000E+00  0.99999998245E-14  0.12509000000E+03  0.12509000000E+03 0.  0.
        -13    1    3    3    0    0  0.15024786366E+00  0.17421284603E+02 -0.36277873218E+02  0.40244490068E+02  0.10566000000E+00 0.  1.
         23    2    1    0    0    0 -0.20034995949E+02 -0.23606408778E+02 -0.13916579401E+02  0.91143943082E+02  0.84586544913E+02 0.  0.
         13    1    3    3    0    0 -0.20185243812E+02 -0.41027693381E+02  0.22361293817E+02  0.50899453014E+02  0.10566000000E+00 0. -1.
         22    1    1    0    0    0  0.20034995949E+02  0.23606408778E+02  0.13916579401E+02  0.33946056918E+02  0.00000000000E+00 0. -1.
</event>
<event>
 5    1  0.1250806E-009  0.9118800E+02  0.7561462E-02  0.1125453E+00
         25   -1    0    0    0    0  0.00000000000E+00  0.00000000000E+00  0.99999998245E-14  0.12509000000E+03  0.12509000000E+03 0.  0.
        -13    1    3    3    0    0  0.78719308176E+01  0.30666976067E+02  0.15493013207E+02  0.35248763641E+02  0.10566000000E+00 0. -1.
         23    2    1    0    0    0 -0.24532864616E+02 -0.13678012526E+02 -0.92910790482E+01  0.95504976377E+02  0.90807086122E+02 0.  0.
         13    1    3    3    0    0 -0.32404795433E+02 -0.44344988593E+02 -0.24784092255E+02  0.60256212736E+02  0.10566000000E+00 0.  1.
         22    1    1    0    0    0  0.24532864616E+02  0.13678012526E+02  0.92910790482E+01  0.29585023623E+02  0.00000000000E+00 0.  1.
</event>
<event>
 5    1  0.1250806E-009  0.9118800E+02  0.7561462E-02  0.1125453E+00
         25   -1    0    0    0    0  0.00000000000E+00  0.00000000000E+00  0.99999998245E-14  0.12509000000E+03  0.12509000000E+03 0.  0.
        -13    1    3    3    0    0  0.27682065614E+02 -0.33748860576E+02 -0.30820532120E+02  0.53434059466E+02  0.10566000000E+00 0.  1.
         23    2    1    0    0    0 -0.85402939393E+01 -0.52981167694E+01 -0.22781341742E+02  0.10019027724E+03  0.97046872491E+02 0.  0.
         13    1    3    3    0    0 -0.36222359553E+02  0.28450743806E+02  0.80391903776E+01  0.46756217776E+02  0.10566000000E+00 0. -1.
         22    1    1    0    0    0  0.85402939393E+01  0.52981167694E+01  0.22781341742E+02  0.24899722758E+02  0.00000000000E+00 0. -1.
</event>
<event>
 5    1  0.1250806E-009  0.9118800E+02  0.7561462E-02  0.1125453E+00
         25   -1    0    0    0    0  0.00000000000E+00  0.00000000000E+00  0.99999998245E-14  0.12509000000E+03  0.12509000000E+03 0.  0.
        -13    1    3    3    0    0  0.10828851119E+02  0.55032660532E+02  0.19149749118E+02  0.59267038032E+02  0.10566000000E+00 0. -1.
         23    2    1    0    0    0  0.13931657550E+02  0.16334685515E+02  0.16187699819E+02  0.98202183830E+02  0.94449532824E+02 0.  0.
         13    1    3    3    0    0  0.31028064316E+01 -0.38697975017E+02 -0.29620492995E+01  0.38935145798E+02  0.10566000000E+00 0.  1.
         22    1    1    0    0    0 -0.13931657550E+02 -0.16334685515E+02 -0.16187699819E+02  0.26887816170E+02  0.00000000000E+00 0. -1.
</event>
<event>
 5    1  0.1250806E-009  0.9118800E+02  0.7561462E-02  0.1125453E+00
         25   -1    0    0    0    0  0.00000000000E+00  0.00000000000E+00  0.99999998245E-14  0.12509000000E+03  0.12509000000E+03 0.  0.
        -13    1    3    3    0    0 -0.14756303461E+02  0.47514153383E+02 -0.19806715455E+02  0.53550540657E+02  0.10566000000E+00 0. -1.
         23    2    1    0    0    0  0.15890673914E+02  0.18609516196E+02 -0.16006298684E+02  0.95849117522E+02  0.91279921789E+02 0.  0.
         13    1    3    3    0    0  0.30646977376E+02 -0.28904637187E+02  0.38004167708E+01  0.42298576865E+02  0.10566000000E+00 0.  1.
         22    1    1    0    0    0 -0.15890673914E+02 -0.18609516196E+02  0.16006298684E+02  0.29240882478E+02  0.00000000000E+00 0.  1.
</event>
<event>
 5    1  0.1250806E-009  0.9118800E+02  0.7561462E-02  0.1125453E+00
         25   -1    0    0    0    0  0.00000000000E+00  0.00000000000E+00  0.99999998245E-14  0.12509000000E+03  0.12509000000E+03 0.  0.
        -13    1    3    3    0    0  0.47189232146E+00 -0.71787091554E+00 -0.50343271514E+02  0.50350711730E+02  0.10566000000E+00 0. -1.
         23    2    1    0    0    0  0.11422291896E+02  0.23338846614E+02 -0.13181814995E+02  0.95953583611E+02  0.91422970023E+02 0.  0.
         13    1    3    3    0    0  0.10950399575E+02  0.24056717529E+02  0.37161456519E+02  0.45602871881E+02  0.10566000000E+00 0.  1.
         22    1    1    0    0    0 -0.11422291896E+02 -0.23338846614E+02  0.13181814995E+02  0.29136416389E+02  0.00000000000E+00 0. -1.
</event>
<event>
 5    1  0.1250806E-009  0.9118800E+02  0.7561462E-02  0.1125453E+00
         25   -1    0    0    0    0  0.00000000000E+00  0.00000000000E+00  0.99999998245E-14  0.12509000000E+03  0.12509000000E+03 0.  0.
        -13    1    3    3    0    0  0.22081435986E+02  0.31207729890E+02  0.75881988257E+01  0.38975686595E+02  0.10566000000E+00 0. -1.
         23    2    1    0    0    0  0.50104354225E+01 -0.25781867592E+02  0.32552650131E+01  0.98624817024E+02  0.95007624026E+02 0.  0.
         13    1    3    3    0    0 -0.17071000563E+02 -0.56989597482E+02 -0.43329338126E+01  0.59649130429E+02  0.10566000000E+00 0.  1.
         22    1    1    0    0    0 -0.50104354225E+01  0.25781867592E+02 -0.32552650131E+01  0.26465182976E+02  0.00000000000E+00 0.  1.
</event>
<event>
 5    1  0.1250806E-009  0.9118800E+02  0.7561462E-02  0.1125453E+00
         25   -1    0    0    0    0  0.00000000000E+00  0.00000000000E+00  0.99999998245E-14  0.12509000000E+03  0.12509000000E+03 0.  0.
        -13    1    3    3    0    0 -0.49738411768E+02  0.52320033047E+01  0.21075899851E+01  0.50057332763E+02  0.10566000000E+00 0. -1.
         23    2    1    0    0    0 -0.15938366234E+02 -0.21320762694E+02  0.14482304585E+02  0.94785815699E+02  0.89810952960E+02 0.  0.
         13    1    3    3    0    0  0.33800045534E+02 -0.26552765999E+02  0.12374714600E+02  0.44728482936E+02  0.10566000000E+00 0.  1.
         22    1    1    0    0    0  0.15938366234E+02  0.21320762694E+02 -0.14482304585E+02  0.30304184301E+02  0.00000000000E+00 0. -1.
</event>
<event>
 5    1  0.1250806E-009  0.9118800E+02  0.7561462E-02  0.1125453E+00
         25   -1    0    0    0    0  0.00000000000E+00  0.00000000000E+00  0.99999998245E-14  0.12509000000E+03  0.12509000000E+03 0.  0.
        -13    1    3    3    0    0 -0.38290323986E+02 -0.26339215700E+02  0.17275599464E+02  0.49581858533E+02  0.10566000000E+00 0.  1.
         23    2    1    0    0    0 -0.22057618755E+02  0.15965418124E+02  0.12447395352E+02  0.95150548234E+02  0.90317529069E+02 0.  0.
         13    1    3    3    0    0  0.16232705231E+02  0.42304633824E+02 -0.48282041125E+01  0.45568689701E+02  0.10566000000E+00 0. -1.
         22    1    1    0    0    0  0.22057618755E+02 -0.15965418124E+02 -0.12447395352E+02  0.29939451766E+02  0.00000000000E+00 0.  1.
</event>
<event>
 5    1  0.1250806E-009  0.9118800E+02  0.7561462E-02  0.1125453E+00
         25   -1    0    0    0    0  0.00000000000E+00  0.00000000000E+00  0.99999998245E-14  0.12509000000E+03  0.12509000000E+03 0.  0.
        -13    1    3    3    0    0 -0.40453058401E+02 -0.25620841307E+02  0.28202802305E+00  0.47884946978E+02  0.10566000000E+00 0.  1.
         23    2    1    0    0    0 -0.43215950105E+01 -0.67981495386E+01  0.27204843354E+02  0.96717574610E+02  0.92462396227E+02 0.  0.
         13    1    3    3    0    0  0.36131463390E+02  0.18822691768E+02  0.26922815331E+02  0.48832627632E+02  0.10566000000E+00 0. -1.
         22    1    1    0    0    0  0.43215950105E+01  0.67981495386E+01 -0.27204843354E+02  0.28372425390E+02  0.00000000000E+00 0.  1.
</event>
<event>
 5    1  0.1250806E-009  0.9118800E+02  0.7561462E-02  0.1125453E+00
         25   -1    0    0    0    0  0.00000000000E+00  0.00000000000E+00  0.99999998245E-14  0.12509000000E+03  0.12509000000E+03 0.  0.
        -13    1    3    3    0    0  0.59867946439E+02 -0.16849876367E+02  0.46159863656E+01  0.62365117161E+02  0.10566000000E+00 0.  1.
         23    2    1    0    0    0  0.29016366749E+02 -0.74069456883E+01 -0.10567085033E+01  0.95124536269E+02  0.90281495245E+02 0.  0.
         13    1    3    3    0    0 -0.30851579689E+02  0.94429306790E+01 -0.56726948689E+01  0.32759419107E+02  0.10566000000E+00 0. -1.
         22    1    1    0    0    0 -0.29016366749E+02  0.74069456883E+01  0.10567085033E+01  0.29965463731E+02  0.00000000000E+00 0.  1.
</event>
<event>
 5    1  0.1250806E-009  0.9118800E+02  0.7561462E-02  0.1125453E+00
         25   -1    0    0    0    0  0.00000000000E+00  0.00000000000E+00  0.99999998245E-14  0.12509000000E+03  0.12509000000E+03 0.  0.
        -13    1    3    3    0    0  0.39544772625E+02 -0.22107164019E+02 -0.16217087237E+01  0.45333837762E+02  0.10566000000E+00 0. -1.
         23    2    1    0    0    0 -0.11980077114E+02 -0.18951898034E+02 -0.14309783602E+02  0.98491755819E+02  0.94832269671E+02 0.  0.
         13    1    3    3    0    0 -0.51524849739E+02  0.31552659852E+01 -0.12688074878E+02  0.53157918058E+02  0.10566000000E+00 0.  1.
         22    1    1    0    0    0  0.11980077114E+02  0.18951898034E+02  0.14309783602E+02  0.26598244181E+02  0.00000000000E+00 0. -1.
</event>
<event>
 5    1  0.1250806E-009  0.9118800E+02  0.7561462E-02  0.1125453E+00
         25   -1    0    0    0    0  0.00000000000E+00  0.00000000000E+00  0.99999998245E-14  0.12509000000E+03  0.12509000000E+03 0.  0.
        -13    1    3    3    0    0  0.25152186474E+02  0.23050092757E+02  0.19324387678E+01  0.34171402432E+02  0.10566000000E+00 0. -1.
         23    2    1    0    0    0 -0.18295145718E+02 -0.56221263290E+01  0.27036917117E+02  0.91964246446E+02  0.85791066411E+02 0.  0.
         13    1    3    3    0    0 -0.43447332192E+02 -0.28672219086E+02  0.25104478349E+02  0.57792844014E+02  0.10566000000E+00 0.  1.
         22    1    1    0    0    0  0.18295145718E+02  0.56221263290E+01 -0.27036917117E+02  0.33125753554E+02  0.00000000000E+00 0.  1.
</event>
<event>
 5    1  0.1250806E-009  0.9118800E+02  0.7561462E-02  0.1125453E+00
         25   -1    0    0    0    0  0.00000000000E+00  0.00000000000E+00  0.99999998245E-14  0.12509000000E+03  0.12509000000E+03 0.  0.
        -13    1    3    3    0    0  0.21024478055E+02 -0.28188752260E+02  0.13267224550E+02  0.37585433917E+02  0.10566000000E+00 0.  1.
         23    2    1    0    0    0 -0.17294870488E+01  0.26701446996E+02  0.67807692094E+00  0.98324010658E+02  0.94610744032E+02 0.  0.
         13    1    3    3    0    0 -0.22753965104E+02  0.54890199257E+02 -0.12589147629E+02  0.60738576740E+02  0.10566000000E+00 0. -1.
         22    1    1    0    0    0  0.17294870488E+01 -0.26701446996E+02 -0.67807692094E+00  0.26765989342E+02  0.00000000000E+00 0. -1.
</event>
<event>
 5    1  0.1250806E-009  0.9118800E+02  0.7561462E-02  0.1125453E+00
         25   -1    0    0    0    0  0.00000000000E+00  0.00000000000E+00  0.99999998245E-14  0.12509000000E+03  0.12509000000E+03 0.  0.
        -13    1    3    3    0    0 -0.17317199445E+02  0.27613592257E+02 -0.30283202057E+02  0.44491340335E+02  0.10566000000E+00 0.  1.
         23    2    1    0    0    0 -0.25277734366E+02 -0.20397523428E+00  0.13084855997E+02  0.96625655338E+02  0.92337957268E+02 0.  0.
         13    1    3    3    0    0 -0.79605349205E+01 -0.27817567491E+02  0.43368058054E+02  0.52134315003E+02  0.10566000000E+00 0. -1.
         22    1    1    0    0    0  0.25277734366E+02  0.20397523428E+00 -0.13084855997E+02  0.28464344662E+02  0.00000000000E+00 0. -1.
</event>
<event>
 5    1  0.1250806E-009  0.9118800E+02  0.7561462E-02  0.1125453E+00
         25   -1    0    0    0    0  0.00000000000E+00  0.00000000000E+00  0.99999998245E-14  0.12509000000E+03  0.12509000000E+03 0.  0.
        -13    1    3    3    0    0 -0.27921044916E+02 -0.25084476550E+01 -0.19477597831E+02  0.34135978675E+02  0.10566000000E+00 0. -1.
         23    2    1    0    0    0  0.13066864844E+02 -0.16745118706E+01  0.26353356171E+02  0.95627374042E+02  0.90975537030E+02 0.  0.
         13    1    3    3    0    0  0.40987909759E+02  0.83393578435E+00  0.45830954003E+02  0.61491395367E+02  0.10566000000E+00 0.  1.
         22    1    1    0    0    0 -0.13066864844E+02  0.16745118706E+01 -0.26353356171E+02  0.29462625958E+02  0.00000000000E+00 0.  1.
</event>
<event>
 5    1  0.1250806E-009  0.9118800E+02  0.7561462E-02  0.1125453E+00
         25   -1    0    0    0    0  0.00000000000E+00  0.00000000000E+00  0.99999998245E-14  0.12509000000E+03  0.12509000000E+03 0.  0.
        -13    1    3    3    0    0 -0.17005029231E+02  0.31549472229E+02  0.32943873827E+01  0.35991726401E+02  0.10566000000E+00 0.  1.
         23    2    1    0    0    0  0.13260631815E+02 -0.12082735001E+02  0.25800083654E+02  0.93665787078E+02  0.88237171935E+02 0.  0.
         13    1    3    3    0    0  0.30265661046E+02 -0.43632207229E+02  0.22505696272E+02  0.57674060677E+02  0.10566000000E+00 0. -1.
         22    1    1    0    0    0 -0.13260631815E+02  0.12082735001E+02 -0.25800083654E+02  0.31424212922E+02  0.00000000000E+00 0. -1.
</event>
<event>
 5    1  0.1250806E-009  0.9118800E+02  0.7561462E-02  0.1125453E+00
         25   -1    0    0    0    0  0.00000000000E+00  0.00000000000E+00  0.99999998245E-14  0.12509000000E+03  0.12509000000E+03 0.  0.
        -13    1    3    3    0    0  0.36263181575E+02  0.13282400397E+02 -0.31423553232E+02  0.49788466135E+02  0.10566000000E+00 0.  1.
         23    2    1    0    0    0 -0.79576538385E+01  0.19244581791E+02 -0.20799895467E+02  0.95656790281E+02  0.91015974930E+02 0.  0.
         13    1    3    3    0    0 -0.44220835414E+02  0.59621813936E+01  0.10623657765E+02  0.45868324146E+02  0.10566000000E+00 0. -1.
         22    1    1    0    0    0  0.79576538385E+01 -0.19244581791E+02  0.20799895467E+02  0.29433209719E+02  0.00000000000E+00 0. -1.
</event>
<event>
 5    1  0.1250806E-009  0.9118800E+02  0.7561462E-02  0.1125453E+00
         25   -1    0    0    0    0  0.00000000000E+00  0.00000000000E+00  0.99999998245E-14  0.12509000000E+03  0.12509000000E+03 0.  0.
        -13    1    3    3    0    0 -0.27773313593E+01 -0.97004892933E+00 -0.36317133937E+02  0.36436244947E+02  0.10566000000E+00 0. -1.
         23    2    1    0    0    0  0.29351828482E+02  0.10607644589E+02  0.84629332280E+01  0.92753129437E+02  0.86933709357E+02 0.  0.
         13    1    3    3    0    0  0.32129159842E+02  0.11577693519E+02  0.44780067165E+02  0.56316884490E+02  0.10566000000E+00 0.  1.
         22    1    1    0    0    0 -0.29351828482E+02 -0.10607644589E+02 -0.84629332280E+01  0.32336870563E+02  0.00000000000E+00 0.  1.
</event>
<event>
 5    1  0.1250806E-009  0.9118800E+02  0.7561462E-02  0.1125453E+00
         25   -1    0    0    0    0  0.00000000000E+00  0.00000000000E+00  0.99999998245E-14  0.12509000000E+03  0.12509000000E+03 0.  0.
        -13    1    3    3    0    0  0.19100256264E+02 -0.23454847925E+02 -0.18699069674E+02  0.35561440512E+02  0.10566000000E+00 0. -1.
         23    2    1    0    0    0 -0.19430457290E+02 -0.32098896625E+00  0.21677409889E+02  0.95977188320E+02  0.91455261598E+02 0.  0.
         13    1    3    3    0    0 -0.38530713554E+02  0.23133858959E+02  0.40376479564E+02  0.60415747809E+02  0.10566000000E+00 0.  1.
         22    1    1    0    0    0  0.19430457290E+02  0.32098896625E+00 -0.21677409889E+02  0.29112811680E+02  0.00000000000E+00 0.  1.
</event>
<event>
 5    1  0.1250806E-009  0.9118800E+02  0.7561462E-02  0.1125453E+00
         25   -1    0    0    0    0  0.00000000000E+00  0.00000000000E+00  0.99999998245E-14  0.12509000000E+03  0.12509000000E+03 0.  0.
        -13    1    3    3    0    0 -0.46045386662E+02  0.31134655525E+02  0.20785667049E+02  0.59343066370E+02  0.10566000000E+00 0.  1.
         23    2    1    0    0    0 -0.85178383433E+01  0.20132351039E+02  0.91084428302E+00  0.10321090574E+03  0.10086523830E+03 0.  0.
         13    1    3    3    0    0  0.37527548319E+02 -0.11002304487E+02 -0.19874822766E+02  0.43867839368E+02  0.10566000000E+00 0. -1.
         22    1    1    0    0    0  0.85178383433E+01 -0.20132351039E+02 -0.91084428302E+00  0.21879094261E+02  0.00000000000E+00 0.  1.
</event>
<event>
 5    1  0.1250806E-009  0.9118800E+02  0.7561462E-02  0.1125453E+00
         25   -1    0    0    0    0  0.00000000000E+00  0.00000000000E+00  0.99999998245E-14  0.12509000000E+03  0.12509000000E+03 0.  0.
        -13    1    3    3    0    0 -0.21566111658E+02 -0.50288344031E+02 -0.45234603409E+01  0.54904349326E+02  0.10566000000E+00 0.  1.
         23    2    1    0    0    0  0.99884703280E+01 -0.25767137719E+02  0.71647371660E+01  0.96540947750E+02  0.92223132717E+02 0.  0.
         13    1    3    3    0    0  0.31554581986E+02  0.24521206313E+02  0.11688197507E+02  0.41636598424E+02  0.10566000000E+00 0. -1.
         22    1    1    0    0    0 -0.99884703280E+01  0.25767137719E+02 -0.71647371660E+01  0.28549052250E+02  0.00000000000E+00 0.  1.
</event>
<event>
 5    1  0.1250806E-009  0.9118800E+02  0.7561462E-02  0.1125453E+00
         25   -1    0    0    0    0  0.00000000000E+00  0.00000000000E+00  0.99999998245E-14  0.12509000000E+03  0.12509000000E+03 0.  0.
        -13    1    3    3    0    0  0.29926865611E+02 -0.11423743885E+02  0.11356754567E+02  0.33986854047E+02  0.10566000000E+00 0.  1.
         23    2    1    0    0    0 -0.19262964634E+02  0.22468665017E+02 -0.27539997933E+01  0.95366486934E+02  0.90616111156E+02 0.  0.
         13    1    3    3    0    0 -0.49189830245E+02  0.33892408902E+02 -0.14110754361E+02  0.61379632887E+02  0.10566000000E+00 0. -1.
         22    1    1    0    0    0  0.19262964634E+02 -0.22468665017E+02  0.27539997933E+01  0.29723513066E+02  0.00000000000E+00 0. -1.
</event>
<event>
 5    1  0.1250806E-009  0.9118800E+02  0.7561462E-02  0.1125453E+00
         25   -1    0    0    0    0  0.00000000000E+00  0.00000000000E+00  0.99999998245E-14  0.12509000000E+03  0.12509000000E+03 0.  0.
        -13    1    3    3    0    0 -0.29668254322E+01 -0.34236531796E+02 -0.12893262571E+02  0.36704080786E+02  0.10566000000E+00 0.  1.
         23    2    1    0    0    0 -0.69305443741E+01  0.25946199235E+02 -0.77327230905E+00  0.98223000723E+02  0.94477098923E+02 0.  0.
         13    1    3    3    0    0 -0.39637189419E+01  0.60182731032E+02  0.12119990262E+02  0.61518919937E+02  0.10566000000E+00 0. -1.
         22    1    1    0    0    0  0.69305443741E+01 -0.25946199235E+02  0.77327230905E+00  0.26866999277E+02  0.00000000000E+00 0. -1.
</event>
<event>
 5    1  0.1250806E-009  0.9118800E+02  0.7561462E-02  0.1125453E+00
         25   -1    0    0    0    0  0.00000000000E+00  0.00000000000E+00  0.99999998245E-14  0.12509000000E+03  0.12509000000E+03 0.  0.
        -13    1    3    3    0    0 -0.83578314361E+01 -0.23554724456E+02 -0.51238975853E+02  0.57009843019E+02  0.10566000000E+00 0.  1.
         23    2    1    0    0    0 -0.20341911835E+02 -0.28479040587E+01 -0.19396074706E+02  0.96839130126E+02  0.92626699579E+02 0.  0.
         13    1    3    3    0    0 -0.11984080399E+02  0.20706820398E+02  0.31842901147E+02  0.39829287108E+02  0.10566000000E+00 0. -1.
         22    1    1    0    0    0  0.20341911835E+02  0.28479040587E+01  0.19396074706E+02  0.28250869874E+02  0.00000000000E+00 0.  1.
</event>
<event>
 5    1  0.1250806E-009  0.9118800E+02  0.7561462E-02  0.1125453E+00
         25   -1    0    0    0    0  0.00000000000E+00  0.00000000000E+00  0.99999998245E-14  0.12509000000E+03  0.12509000000E+03 0.  0.
        -13    1    3    3    0    0  0.17591216939E+02  0.46630649153E+02  0.34453442733E+02  0.60588111326E+02  0.10566000000E+00 0. -1.
         23    2    1    0    0    0  0.55181757293E+01  0.15045016258E+02  0.24459214952E+02  0.95848659853E+02  0.91279294596E+02 0.  0.
         13    1    3    3    0    0 -0.12073041210E+02 -0.31585632895E+02 -0.99942277818E+01  0.35260548527E+02  0.10566000000E+00 0.  1.
         22    1    1    0    0    0 -0.55181757293E+01 -0.15045016258E+02 -0.24459214952E+02  0.29241340147E+02  0.00000000000E+00 0. -1.
</event>
<event>
 5    1  0.1250806E-009  0.9118800E+02  0.7561462E-02  0.1125453E+00
         25   -1    0    0    0    0  0.00000000000E+00  0.00000000000E+00  0.99999998245E-14  0.12509000000E+03  0.12509000000E+03 0.  0.
        -13    1    3    3    0    0 -0.27816641052E+02 -0.53060928755E+00  0.23640405181E+02  0.36509272614E+02  0.10566000000E+00 0. -1.
         23    2    1    0    0    0  0.19898449346E+02  0.19928576480E+02 -0.60068356440E+01  0.96294539918E+02  0.91888301195E+02 0.  0.
         13    1    3    3    0    0  0.47715090398E+02  0.20459185768E+02 -0.29647240825E+02  0.59785267304E+02  0.10566000000E+00 0.  1.
         22    1    1    0    0    0 -0.19898449346E+02 -0.19928576480E+02  0.60068356440E+01  0.28795460082E+02  0.00000000000E+00 0.  1.
</event>
<event>
 5    1  0.1250806E-009  0.9118800E+02  0.7561462E-02  0.1125453E+00
         25   -1    0    0    0    0  0.00000000000E+00  0.00000000000E+00  0.99999998245E-14  0.12509000000E+03  0.12509000000E+03 0.  0.
        -13    1    3    3    0    0 -0.44297305068E+02 -0.23326733597E+02 -0.26072213447E+02  0.56446073510E+02  0.10566000000E+00 0.  1.
         23    2    1    0    0    0 -0.18512870449E+02 -0.23527364276E+02  0.26386865557E+01  0.95036282946E+02  0.90159132468E+02 0.  0.
         13    1    3    3    0    0  0.25784434619E+02 -0.20063067913E+00  0.28710900003E+02  0.38590209436E+02  0.10566000000E+00 0. -1.
         22    1    1    0    0    0  0.18512870449E+02  0.23527364276E+02 -0.26386865557E+01  0.30053717054E+02  0.00000000000E+00 0.  1.
</event>
<event>
 5    1  0.1250806E-009  0.9118800E+02  0.7561462E-02  0.1125453E+00
         25   -1    0    0    0    0  0.00000000000E+00  0.00000000000E+00  0.99999998245E-14  0.12509000000E+03  0.12509000000E+03 0.  0.
        -13    1    3    3    0    0  0.13168224875E+02 -0.20624619690E+02 -0.52051550242E+02  0.57516537886E+02  0.10566000000E+00 0.  1.
         23    2    1    0    0    0  0.90075533605E+00  0.73903142257E+01 -0.27096775368E+02  0.96989050908E+02  0.92828942987E+02 0.  0.
         13    1    3    3    0    0 -0.12267469539E+02  0.28014933916E+02  0.24954774874E+02  0.39472513022E+02  0.10566000000E+00 0. -1.
         22    1    1    0    0    0 -0.90075533605E+00 -0.73903142257E+01  0.27096775368E+02  0.28100949092E+02  0.00000000000E+00 0.  1.
</event>
<event>
 5    1  0.1250806E-009  0.9118800E+02  0.7561462E-02  0.1125453E+00
         25   -1    0    0    0    0  0.00000000000E+00  0.00000000000E+00  0.99999998245E-14  0.12509000000E+03  0.12509000000E+03 0.  0.
        -13    1    3    3    0    0 -0.22754647868E+02 -0.19099836552E+02  0.19006960540E+02  0.35268306862E+02  0.10566000000E+00 0.  1.
         23    2    1    0    0    0  0.10701229927E+01  0.13820662291E+02 -0.25826776620E+02  0.95778257303E+02  0.91182763240E+02 0.  0.
         13    1    3    3    0    0  0.23824770861E+02  0.32920498843E+02 -0.44833737160E+02  0.60509950441E+02  0.10566000000E+00 0. -1.
         22    1    1    0    0    0 -0.10701229927E+01 -0.13820662291E+02  0.25826776620E+02  0.29311742697E+02  0.00000000000E+00 0. -1.
</event>
<event>
 5    1  0.1250806E-009  0.9118800E+02  0.7561462E-02  0.1125453E+00
         25   -1    0    0    0    0  0.00000000000E+00  0.00000000000E+00  0.99999998245E-14  0.12509000000E+03  0.12509000000E+03 0.  0.
        -13    1    3    3    0    0 -0.35580136082E+02 -0.28399431029E+02 -0.35769849606E+02  0.57896174928E+02  0.10566000000E+00 0.  1.
         23    2    1    0    0    0 -0.18290112331E+01 -0.20196985943E+02 -0.21749306271E+02  0.95352887723E+02  0.90597336333E+02 0.  0.
         13    1    3    3    0    0  0.33751124849E+02  0.82024450856E+01  0.14020543335E+02  0.37456712795E+02  0.10566000000E+00 0. -1.
         22    1    1    0    0    0  0.18290112331E+01  0.20196985943E+02  0.21749306271E+02  0.29737112277E+02  0.00000000000E+00 0.  1.
</event>
<event>
 5    1  0.1250806E-009  0.9118800E+02  0.7561462E-02  0.1125453E+00
         25   -1    0    0    0    0  0.00000000000E+00  0.00000000000E+00  0.99999998245E-14  0.12509000000E+03  0.12509000000E+03 0.  0.
        -13    1    3    3    0    0  0.49168489162E+02  0.84547765301E+01  0.32050353142E+02  0.59298059607E+02  0.10566000000E+00 0. -1.
         23    2    1    0    0    0  0.30075005480E+02  0.43174210052E+01  0.26586513478E+01  0.94590581878E+02  0.89538615548E+02 0.  0.
         13    1    3    3    0    0 -0.19093483681E+02 -0.41373555250E+01 -0.29391701794E+02  0.35292522271E+02  0.10566000000E+00 0.  1.
         22    1    1    0    0    0 -0.30075005480E+02 -0.43174210052E+01 -0.26586513478E+01  0.30499418122E+02  0.00000000000E+00 0. -1.
</event>
<event>
 5    1  0.1250806E-009  0.9118800E+02  0.7561462E-02  0.1125453E+00
         25   -1    0    0    0    0  0.00000000000E+00  0.00000000000E+00  0.99999998245E-14  0.12509000000E+03  0.12509000000E+03 0.  0.
        -13    1    3    3    0    0 -0.22842305723E+02 -0.47460768991E+01 -0.34495606462E+02  0.41644377843E+02  0.10566000000E+00 0. -1.
         23    2    1    0    0    0  0.17631620914E+02 -0.23411023092E+02 -0.43286667799E+01  0.95464210317E+02  0.90750912046E+02 0.  0.
         13    1    3    3    0    0  0.40473926636E+02 -0.18664946193E+02  0.30166939682E+02  0.53819832474E+02  0.10566000000E+00 0.  1.
         22    1    1    0    0    0 -0.17631620914E+02  0.23411023092E+02  0.43286667799E+01  0.29625789683E+02  0.00000000000E+00 0.  1.
</event>
<event>
 5    1  0.1250806E-009  0.9118800E+02  0.7561462E-02  0.1125453E+00
         25   -1    0    0    0    0  0.00000000000E+00  0.00000000000E+00  0.99999998245E-14  0.12509000000E+03  0.12509000000E+03 0.  0.
        -13    1    3    3    0    0  0.35502523172E+01  0.41626239235E+02 -0.19498223775E+02  0.46103578806E+02  0.10566000000E+00 0.  1.
         23    2    1    0    0    0  0.78642127479E+01 -0.15888108894E+02 -0.10524264313E+02  0.10447355060E+03  0.10241916222E+03 0.  0.
         13    1    3    3    0    0  0.43139604308E+01 -0.57514348128E+02  0.89739594620E+01  0.58369971798E+02  0.10566000000E+00 0. -1.
         22    1    1    0    0    0 -0.78642127479E+01  0.15888108894E+02  0.10524264313E+02  0.20616449396E+02  0.00000000000E+00 0. -1.
</event>
<event>
 5    1  0.1250806E-009  0.9118800E+02  0.7561462E-02  0.1125453E+00
         25   -1    0    0    0    0  0.00000000000E+00  0.00000000000E+00  0.99999998245E-14  0.12509000000E+03  0.12509000000E+03 0.  0.
        -13    1    3    3    0    0  0.16956223094E+02 -0.20419333721E+02 -0.16204828911E+02  0.31097754506E+02  0.10566000000E+00 0. -1.
         23    2    1    0    0    0  0.59967838916E+01  0.31087634214E+02  0.12473743933E+02  0.91060649348E+02  0.84463276955E+02 0.  0.
         13    1    3    3    0    0 -0.10959439202E+02  0.51506967935E+02  0.28678572845E+02  0.59962894843E+02  0.10566000000E+00 0.  1.
         22    1    1    0    0    0 -0.59967838916E+01 -0.31087634214E+02 -0.12473743933E+02  0.34029350652E+02  0.00000000000E+00 0.  1.
</event>
<event>
 5    1  0.1250806E-009  0.9118800E+02  0.7561462E-02  0.1125453E+00
         25   -1    0    0    0    0  0.00000000000E+00  0.00000000000E+00  0.99999998245E-14  0.12509000000E+03  0.12509000000E+03 0.  0.
        -13    1    3    3    0    0  0.11610457946E+02 -0.52476013747E+02  0.16215327121E+02  0.56138068636E+02  0.10566000000E+00 0.  1.
         23    2    1    0    0    0 -0.49591328324E+01 -0.17295130128E+02  0.23285522105E+02  0.95663310341E+02  0.91024935491E+02 0.  0.
         13    1    3    3    0    0 -0.16569590778E+02  0.35180883619E+02  0.70701949833E+01  0.39525241706E+02  0.10566000000E+00 0. -1.
         22    1    1    0    0    0  0.49591328324E+01  0.17295130128E+02 -0.23285522105E+02  0.29426689659E+02  0.00000000000E+00 0.  1.
</event>
<event>
 5    1  0.1250806E-009  0.9118800E+02  0.7561462E-02  0.1125453E+00
         25   -1    0    0    0    0  0.00000000000E+00  0.00000000000E+00  0.99999998245E-14  0.12509000000E+03  0.12509000000E+03 0.  0.
        -13    1    3    3    0    0  0.46340006111E+02  0.14401435551E+02 -0.33060595321E+02  0.58718069104E+02  0.10566000000E+00 0. -1.
         23    2    1    0    0    0  0.23561923234E+02 -0.84997023954E+01 -0.17220466958E+02  0.94693394111E+02  0.89682134446E+02 0.  0.
         13    1    3    3    0    0 -0.22778082877E+02 -0.22901137946E+02  0.15840128363E+02  0.35975325007E+02  0.10566000000E+00 0.  1.
         22    1    1    0    0    0 -0.23561923234E+02  0.84997023954E+01  0.17220466958E+02  0.30396605889E+02  0.00000000000E+00 0. -1.
</event>
<event>
 5    1  0.1250806E-009  0.9118800E+02  0.7561462E-02  0.1125453E+00
         25   -1    0    0    0    0  0.00000000000E+00  0.00000000000E+00  0.99999998245E-14  0.12509000000E+03  0.12509000000E+03 0.  0.
        -13    1    3    3    0    0  0.60472399374E+01  0.57176118843E+02  0.63333633434E+01  0.57842893531E+02  0.10566000000E+00 0. -1.
         23    2    1    0    0    0  0.19793135793E+02  0.25743021515E+02  0.69951575936E+00  0.92609841387E+02  0.86727285315E+02 0.  0.
         13    1    3    3    0    0  0.13745895856E+02 -0.31433097328E+02 -0.56338475841E+01  0.34766947855E+02  0.10566000000E+00 0.  1.
         22    1    1    0    0    0 -0.19793135793E+02 -0.25743021515E+02 -0.69951575936E+00  0.32480158613E+02  0.00000000000E+00 0. -1.
</event>
<event>
 5    1  0.1250806E-009  0.9118800E+02  0.7561462E-02  0.1125453E+00
         25   -1    0    0    0    0  0.00000000000E+00  0.00000000000E+00  0.99999998245E-14  0.12509000000E+03  0.12509000000E+03 0.  0.
        -13    1    3    3    0    0 -0.11469378881E+02  0.22483519239E+02  0.35010988605E+02  0.43160581280E+02  0.10566000000E+00 0. -1.
         23    2    1    0    0    0  0.20414213985E+02  0.20616636688E+02 -0.63222681045E+01  0.95395608022E+02  0.90656302125E+02 0.  0.
         13    1    3    3    0    0  0.31883592866E+02 -0.18668825514E+01 -0.41333256710E+02  0.52235026742E+02  0.10566000000E+00 0.  1.
         22    1    1    0    0    0 -0.20414213985E+02 -0.20616636688E+02  0.63222681045E+01  0.29694391978E+02  0.00000000000E+00 0.  1.
</event>
<event>
 5    1  0.1250806E-009  0.9118800E+02  0.7561462E-02  0.1125453E+00
         25   -1    0    0    0    0  0.00000000000E+00  0.00000000000E+00  0.99999998245E-14  0.12509000000E+03  0.12509000000E+03 0.  0.
        -13    1    3    3    0    0 -0.31696474404E+02 -0.84251992534E+01  0.36716372494E+02  0.49231632568E+02  0.10566000000E+00 0.  1.
         23    2    1    0    0    0  0.13746547356E+02 -0.81910663445E+01  0.23683521619E+02  0.96507307189E+02  0.92177491897E+02 0.  0.
         13    1    3    3    0    0  0.45443021760E+02  0.23413290891E+00 -0.13032850875E+02  0.47275674621E+02  0.10566000000E+00 0. -1.
         22    1    1    0    0    0 -0.13746547356E+02  0.81910663445E+01 -0.23683521619E+02  0.28582692811E+02  0.00000000000E+00 0.  1.
</event>
<event>
 5    1  0.1250806E-009  0.9118800E+02  0.7561462E-02  0.1125453E+00
         25   -1    0    0    0    0  0.00000000000E+00  0.00000000000E+00  0.99999998245E-14  0.12509000000E+03  0.12509000000E+03 0.  0.
        -13    1    3    3    0    0  0.41434072891E+02  0.23935541832E+02  0.14216407157E+02  0.49918032369E+02  0.10566000000E+00 0. -1.
         23    2    1    0    0    0  0.17583242036E+02 -0.17892121755E+02  0.43924628503E+00  0.10000033363E+03  0.96801732252E+02 0.  0.
         13    1    3    3    0    0 -0.23850830855E+02 -0.41827663587E+02 -0.13777160872E+02  0.50082301259E+02  0.10566000000E+00 0.  1.
         22    1    1    0    0    0 -0.17583242036E+02  0.17892121755E+02 -0.43924628503E+00  0.25089666372E+02  0.00000000000E+00 0.  1.
</event>
<event>
 5    1  0.1250806E-009  0.9118800E+02  0.7561462E-02  0.1125453E+00
         25   -1    0    0    0    0  0.00000000000E+00  0.00000000000E+00  0.99999998245E-14  0.12509000000E+03  0.12509000000E+03 0.  0.
        -13    1    3    3    0    0  0.40368792709E+02 -0.61958550416E+01 -0.76175001263E+00  0.40848738923E+02  0.10566000000E+00 0.  1.
         23    2    1    0    0    0 -0.51632873151E+01  0.38370808902E+01 -0.29018234943E+02  0.95367269895E+02  0.90617191980E+02 0.  0.
         13    1    3    3    0    0 -0.45532080024E+02  0.10032935932E+02 -0.28256484931E+02  0.54518530972E+02  0.10566000000E+00 0. -1.
         22    1    1    0    0    0  0.51632873151E+01 -0.38370808902E+01  0.29018234943E+02  0.29722730105E+02  0.00000000000E+00 0. -1.
</event>
<event>
 5    1  0.1250806E-009  0.9118800E+02  0.7561462E-02  0.1125453E+00
         25   -1    0    0    0    0  0.00000000000E+00  0.00000000000E+00  0.99999998245E-14  0.12509000000E+03  0.12509000000E+03 0.  0.
        -13    1    3    3    0    0 -0.21062995438E+01  0.37717229640E+02 -0.96932345739E+01  0.38999947052E+02  0.10566000000E+00 0.  1.
         23    2    1    0    0    0  0.24897465595E+02 -0.11360813609E+02 -0.12319081512E+02  0.95078141540E+02  0.90217189884E+02 0.  0.
         13    1    3    3    0    0  0.27003765139E+02 -0.49078043249E+02 -0.26258469376E+01  0.56078194488E+02  0.10566000000E+00 0. -1.
         22    1    1    0    0    0 -0.24897465595E+02  0.11360813609E+02  0.12319081512E+02  0.30011858460E+02  0.00000000000E+00 0. -1.
</event>
<event>
 5    1  0.1250806E-009  0.9118800E+02  0.7561462E-02  0.1125453E+00
         25   -1    0    0    0    0  0.00000000000E+00  0.00000000000E+00  0.99999998245E-14  0.12509000000E+03  0.12509000000E+03 0.  0.
        -13    1    3    3    0    0  0.11193888073E+02  0.22872836955E+02 -0.22530684550E+02  0.34001657473E+02  0.10566000000E+00 0.  1.
         23    2    1    0    0    0 -0.15419735180E+02 -0.19786871119E+02  0.14195032516E+02  0.96266616267E+02  0.91850280117E+02 0.  0.
         13    1    3    3    0    0 -0.26613623253E+02 -0.42659708074E+02  0.36725717066E+02  0.62264958794E+02  0.10566000000E+00 0. -1.
         22    1    1    0    0    0  0.15419735180E+02  0.19786871119E+02 -0.14195032516E+02  0.28823383733E+02  0.00000000000E+00 0. -1.
</event>
<event>
 5    1  0.1250806E-009  0.9118800E+02  0.7561462E-02  0.1125453E+00
         25   -1    0    0    0    0  0.00000000000E+00  0.00000000000E+00  0.99999998245E-14  0.12509000000E+03  0.12509000000E+03 0.  0.
        -13    1    3    3    0    0  0.15544400484E+02 -0.22172982670E+02 -0.56199270635E+02  0.62383000336E+02  0.10566000000E+00 0.  1.
         23    2    1    0    0    0  0.79058981635E+01 -0.16392084326E+02 -0.35227779365E+02  0.85439021534E+02  0.75681082890E+02 0.  0.
         13    1    3    3    0    0 -0.76385023205E+01  0.57808983445E+01  0.20971491270E+02  0.23056021198E+02  0.10566000000E+00 0. -1.
         22    1    1    0    0    0 -0.79058981635E+01  0.16392084326E+02  0.35227779365E+02  0.39650978466E+02  0.00000000000E+00 0.  1.
</event>
<event>
 5    1  0.1250806E-009  0.9118800E+02  0.7561462E-02  0.1125453E+00
         25   -1    0    0    0    0  0.00000000000E+00  0.00000000000E+00  0.99999998245E-14  0.12509000000E+03  0.12509000000E+03 0.  0.
        -13    1    3    3    0    0 -0.27002958841E+01  0.41235738453E+02 -0.99356433470E+01  0.42501834035E+02  0.10566000000E+00 0.  1.
         23    2    1    0    0    0 -0.19793414852E+02 -0.13152631866E+02  0.34837090582E+01  0.10107110691E+03  0.98175666163E+02 0.  0.
         13    1    3    3    0    0 -0.17093118968E+02 -0.54388370319E+02  0.13419352405E+02  0.58569272874E+02  0.10566000000E+00 0. -1.
         22    1    1    0    0    0  0.19793414852E+02  0.13152631866E+02 -0.34837090582E+01  0.24018893091E+02  0.00000000000E+00 0. -1.
</event>
<event>
 5    1  0.1250806E-009  0.9118800E+02  0.7561462E-02  0.1125453E+00
         25   -1    0    0    0    0  0.00000000000E+00  0.00000000000E+00  0.99999998245E-14  0.12509000000E+03  0.12509000000E+03 0.  0.
        -13    1    3    3    0    0  0.21695248022E+02  0.80421415045E+01 -0.53717789704E+02  0.58489075231E+02  0.10566000000E+00 0. -1.
         23    2    1    0    0    0 -0.15619648654E+01  0.14733272616E+02 -0.24843703450E+02  0.96163910438E+02  0.91710299386E+02 0.  0.
         13    1    3    3    0    0 -0.23257212888E+02  0.66911311113E+01  0.28874086254E+02  0.37674835207E+02  0.10566000000E+00 0.  1.
         22    1    1    0    0    0  0.15619648654E+01 -0.14733272616E+02  0.24843703450E+02  0.28926089562E+02  0.00000000000E+00 0. -1.
</event>
<event>
 5    1  0.1250806E-009  0.9118800E+02  0.7561462E-02  0.1125453E+00
         25   -1    0    0    0    0  0.00000000000E+00  0.00000000000E+00  0.99999998245E-14  0.12509000000E+03  0.12509000000E+03 0.  0.
        -13    1    3    3    0    0 -0.21062816523E+01 -0.40879163974E+02  0.15763534103E+02  0.43863910463E+02  0.10566000000E+00 0. -1.
         23    2    1    0    0    0 -0.25025040466E+02  0.72643398975E+01  0.85213283084E+01  0.97674013412E+02  0.93747408366E+02 0.  0.
         13    1    3    3    0    0 -0.22918758813E+02  0.48143503872E+02 -0.72422057941E+01  0.53810102949E+02  0.10566000000E+00 0.  1.
         22    1    1    0    0    0  0.25025040466E+02 -0.72643398975E+01 -0.85213283084E+01  0.27415986588E+02  0.00000000000E+00 0.  1.
</event>
<event>
 5    1  0.1250806E-009  0.9118800E+02  0.7561462E-02  0.1125453E+00
         25   -1    0    0    0    0  0.00000000000E+00  0.00000000000E+00  0.99999998245E-14  0.12509000000E+03  0.12509000000E+03 0.  0.
        -13    1    3    3    0    0  0.12351890898E+02  0.35278920395E+02  0.38757121568E+02  0.53845121128E+02  0.10566000000E+00 0.  1.
         23    2    1    0    0    0  0.57046290627E+01  0.27389884424E+02 -0.30872680289E+01  0.96942535009E+02  0.92766240134E+02 0.  0.
         13    1    3    3    0    0 -0.66472618350E+01 -0.78890359705E+01 -0.41844389597E+02  0.43097413881E+02  0.10566000000E+00 0. -1.
         22    1    1    0    0    0 -0.57046290627E+01 -0.27389884424E+02  0.30872680289E+01  0.28147464991E+02  0.00000000000E+00 0.  1.
</event>
<event>
 5    1  0.1250806E-009  0.9118800E+02  0.7561462E-02  0.1125453E+00
         25   -1    0    0    0    0  0.00000000000E+00  0.00000000000E+00  0.99999998245E-14  0.12509000000E+03  0.12509000000E+03 0.  0.
        -13    1    3    3    0    0  0.17541876937E+02 -0.33958576535E+02 -0.41017645092E+02  0.56065682371E+02  0.10566000000E+00 0.  1.
         23    2    1    0    0    0  0.24303047024E+02 -0.22380240013E+02 -0.88933895049E+01  0.90875885740E+02  0.84189197611E+02 0.  0.
         13    1    3    3    0    0  0.67611700871E+01  0.11578336522E+02  0.32124255587E+02  0.34810203369E+02  0.10566000000E+00 0. -1.
         22    1    1    0    0    0 -0.24303047024E+02  0.22380240013E+02  0.88933895049E+01  0.34214114260E+02  0.00000000000E+00 0.  1.
</event>
<event>
 5    1  0.1250806E-009  0.9118800E+02  0.7561462E-02  0.1125453E+00
         25   -1    0    0    0    0  0.00000000000E+00  0.00000000000E+00  0.99999998245E-14  0.12509000000E+03  0.12509000000E+03 0.  0.
        -13    1    3    3    0    0 -0.42572382449E+02 -0.33419940538E+02 -0.34870834830E+00  0.54124236109E+02  0.10566000000E+00 0. -1.
         23    2    1    0    0    0 -0.23532493656E+02  0.68344339462E+01  0.77580660482E+01  0.99386394536E+02  0.96005104474E+02 0.  0.
         13    1    3    3    0    0  0.19039888793E+02  0.40254374484E+02  0.81067743965E+01  0.45262158427E+02  0.10566000000E+00 0.  1.
         22    1    1    0    0    0  0.23532493656E+02 -0.68344339462E+01 -0.77580660482E+01  0.25703605464E+02  0.00000000000E+00 0. -1.
</event>
<event>
 5    1  0.1250806E-009  0.9118800E+02  0.7561462E-02  0.1125453E+00
         25   -1    0    0    0    0  0.00000000000E+00  0.00000000000E+00  0.99999998245E-14  0.12509000000E+03  0.12509000000E+03 0.  0.
        -13    1    3    3    0    0  0.37772452636E+02  0.19512795971E+02 -0.33445011068E+02  0.54093320421E+02  0.10566000000E+00 0.  1.
         23    2    1    0    0    0  0.14016160333E+02 -0.13538866007E+02 -0.20499613166E+02  0.96805944719E+02  0.92581872684E+02 0.  0.
         13    1    3    3    0    0 -0.23756292303E+02 -0.33051661978E+02  0.12945397903E+02  0.42712624298E+02  0.10566000000E+00 0. -1.
         22    1    1    0    0    0 -0.14016160333E+02  0.13538866007E+02  0.20499613166E+02  0.28284055281E+02  0.00000000000E+00 0.  1.
</event>
<event>
 5    1  0.1250806E-009  0.9118800E+02  0.7561462E-02  0.1125453E+00
         25   -1    0    0    0    0  0.00000000000E+00  0.00000000000E+00  0.99999998245E-14  0.12509000000E+03  0.12509000000E+03 0.  0.
        -13    1    3    3    0    0  0.21362855244E+02 -0.14982947625E+02  0.20084492500E+02  0.32928077787E+02  0.10566000000E+00 0.  1.
         23    2    1    0    0    0 -0.18163473930E+02  0.64140087554E+01 -0.22931382047E+02  0.95141718311E+02  0.90305298777E+02 0.  0.
         13    1    3    3    0    0 -0.39526329174E+02  0.21396956381E+02 -0.43015874547E+02  0.62213640525E+02  0.10566000000E+00 0. -1.
         22    1    1    0    0    0  0.18163473930E+02 -0.64140087554E+01  0.22931382047E+02  0.29948281689E+02  0.00000000000E+00 0. -1.
</event>
<event>
 5    1  0.1250806E-009  0.9118800E+02  0.7561462E-02  0.1125453E+00
         25   -1    0    0    0    0  0.00000000000E+00  0.00000000000E+00  0.99999998245E-14  0.12509000000E+03  0.12509000000E+03 0.  0.
        -13    1    3    3    0    0 -0.20220687685E+02 -0.36417581511E+02  0.27115233897E+02  0.49702751703E+02  0.10566000000E+00 0. -1.
         23    2    1    0    0    0 -0.15913072448E+02 -0.17572435083E+02 -0.15683513378E+02  0.96664853714E+02  0.92391043950E+02 0.  0.
         13    1    3    3    0    0  0.43076152365E+01  0.18845146428E+02 -0.42798747275E+02  0.46962102011E+02  0.10566000000E+00 0.  1.
         22    1    1    0    0    0  0.15913072448E+02  0.17572435083E+02  0.15683513378E+02  0.28425146286E+02  0.00000000000E+00 0.  1.
</event>
<event>
 5    1  0.1250806E-009  0.9118800E+02  0.7561462E-02  0.1125453E+00
         25   -1    0    0    0    0  0.00000000000E+00  0.00000000000E+00  0.99999998245E-14  0.12509000000E+03  0.12509000000E+03 0.  0.
        -13    1    3    3    0    0 -0.23823783171E+02 -0.21411738955E+02  0.13922389120E+02  0.34926770428E+02  0.10566000000E+00 0.  1.
         23    2    1    0    0    0  0.86399838869E+01  0.27695611754E+02 -0.22938943572E+01  0.95987454007E+02  0.91469301645E+02 0.  0.
         13    1    3    3    0    0  0.32463767058E+02  0.49107350709E+02 -0.16216283478E+02  0.61060683579E+02  0.10566000000E+00 0. -1.
         22    1    1    0    0    0 -0.86399838869E+01 -0.27695611754E+02  0.22938943572E+01  0.29102545993E+02  0.00000000000E+00 0. -1.
</event>
<event>
 5    1  0.1250806E-009  0.9118800E+02  0.7561462E-02  0.1125453E+00
         25   -1    0    0    0    0  0.00000000000E+00  0.00000000000E+00  0.99999998245E-14  0.12509000000E+03  0.12509000000E+03 0.  0.
        -13    1    3    3    0    0 -0.33218873719E+02  0.80450081773E+01 -0.92911832152E+01  0.35419669357E+02  0.10566000000E+00 0.  1.
         23    2    1    0    0    0  0.17166924807E+02 -0.11850700425E+02  0.19297906212E+02  0.96672547756E+02  0.92401460473E+02 0.  0.
         13    1    3    3    0    0  0.50385798526E+02 -0.19895708602E+02  0.28589089427E+02  0.61252878399E+02  0.10566000000E+00 0. -1.
         22    1    1    0    0    0 -0.17166924807E+02  0.11850700425E+02 -0.19297906212E+02  0.28417452244E+02  0.00000000000E+00 0. -1.
</event>
<event>
 5    1  0.1250806E-009  0.9118800E+02  0.7561462E-02  0.1125453E+00
         25   -1    0    0    0    0  0.00000000000E+00  0.00000000000E+00  0.99999998245E-14  0.12509000000E+03  0.12509000000E+03 0.  0.
        -13    1    3    3    0    0  0.46876793460E+02 -0.25883147624E+02 -0.20915077499E+02  0.57487587590E+02  0.10566000000E+00 0.  1.
         23    2    1    0    0    0  0.13112798368E+02 -0.25896917711E+02 -0.24798122654E+01  0.95956766454E+02  0.91427324862E+02 0.  0.
         13    1    3    3    0    0 -0.33763995092E+02 -0.13770087103E-01  0.18435265233E+02  0.38469178864E+02  0.10566000000E+00 0. -1.
         22    1    1    0    0    0 -0.13112798368E+02  0.25896917711E+02  0.24798122654E+01  0.29133233546E+02  0.00000000000E+00 0.  1.
</event>
<event>
 5    1  0.1250806E-009  0.9118800E+02  0.7561462E-02  0.1125453E+00
         25   -1    0    0    0    0  0.00000000000E+00  0.00000000000E+00  0.99999998245E-14  0.12509000000E+03  0.12509000000E+03 0.  0.
        -13    1    3    3    0    0 -0.15045005945E+02 -0.35878927923E+02  0.39605735291E+02  0.55518241190E+02  0.10566000000E+00 0.  1.
         23    2    1    0    0    0  0.11734034336E+02 -0.93469160574E+01  0.24976496543E+02  0.95954492777E+02  0.91424213986E+02 0.  0.
         13    1    3    3    0    0  0.26779040281E+02  0.26532011866E+02 -0.14629238748E+02  0.40436251587E+02  0.10566000000E+00 0. -1.
         22    1    1    0    0    0 -0.11734034336E+02  0.93469160574E+01 -0.24976496543E+02  0.29135507223E+02  0.00000000000E+00 0.  1.
</event>
<event>
 5    1  0.1250806E-009  0.9118800E+02  0.7561462E-02  0.1125453E+00
         25   -1    0    0    0    0  0.00000000000E+00  0.00000000000E+00  0.99999998245E-14  0.12509000000E+03  0.12509000000E+03 0.  0.
        -13    1    3    3    0    0 -0.20469134743E+02 -0.20264329802E+02 -0.28731074284E+02  0.40683096404E+02  0.10566000000E+00 0. -1.
         23    2    1    0    0    0  0.17299469092E+01 -0.17346901879E+02  0.22519616755E+02  0.96611220885E+02  0.92318400879E+02 0.  0.
         13    1    3    3    0    0  0.22199081652E+02  0.29174279231E+01  0.51250691039E+02  0.55928124480E+02  0.10566000000E+00 0.  1.
         22    1    1    0    0    0 -0.17299469092E+01  0.17346901879E+02 -0.22519616755E+02  0.28478779115E+02  0.00000000000E+00 0.  1.
</event>
<event>
 5    1  0.1250806E-009  0.9118800E+02  0.7561462E-02  0.1125453E+00
         25   -1    0    0    0    0  0.00000000000E+00  0.00000000000E+00  0.99999998245E-14  0.12509000000E+03  0.12509000000E+03 0.  0.
        -13    1    3    3    0    0  0.11051221717E+02  0.23149784651E+02  0.53446313097E+02  0.59283737893E+02  0.10566000000E+00 0.  1.
         23    2    1    0    0    0 -0.76466019810E+01  0.16904075583E+02  0.23262591288E+02  0.95334892092E+02  0.90572485908E+02 0.  0.
         13    1    3    3    0    0 -0.18697823698E+02 -0.62457090686E+01 -0.30183721809E+02  0.36051154199E+02  0.10566000000E+00 0. -1.
         22    1    1    0    0    0  0.76466019810E+01 -0.16904075583E+02 -0.23262591288E+02  0.29755107908E+02  0.00000000000E+00 0.  1.
</event>
<event>
 5    1  0.1250806E-009  0.9118800E+02  0.7561462E-02  0.1125453E+00
         25   -1    0    0    0    0  0.00000000000E+00  0.00000000000E+00  0.99999998245E-14  0.12509000000E+03  0.12509000000E+03 0.  0.
        -13    1    3    3    0    0 -0.96300280149E+01 -0.95580899511E+01 -0.37702175183E+02  0.40069435991E+02  0.10566000000E+00 0.  1.
         23    2    1    0    0    0  0.22925463783E+02 -0.20375206637E+02  0.40996254036E+01  0.94145972085E+02  0.88915303498E+02 0.  0.
         13    1    3    3    0    0  0.32555491798E+02 -0.10817116686E+02  0.41801800586E+02  0.54076536094E+02  0.10566000000E+00 0. -1.
         22    1    1    0    0    0 -0.22925463783E+02  0.20375206637E+02 -0.40996254036E+01  0.30944027915E+02  0.00000000000E+00 0. -1.
</event>
<event>
 5    1  0.1250806E-009  0.9118800E+02  0.7561462E-02  0.1125453E+00
         25   -1    0    0    0    0  0.00000000000E+00  0.00000000000E+00  0.99999998245E-14  0.12509000000E+03  0.12509000000E+03 0.  0.
        -13    1    3    3    0    0  0.41677433217E+02 -0.77044390139E+00  0.10068329474E+02  0.42883381930E+02  0.10566000000E+00 0.  1.
         23    2    1    0    0    0 -0.54377436732E+01  0.49849289379E+01  0.29876504998E+02  0.94316242939E+02  0.89154526292E+02 0.  0.
         13    1    3    3    0    0 -0.47115176890E+02  0.57553728393E+01  0.19808175524E+02  0.51432861009E+02  0.10566000000E+00 0. -1.
         22    1    1    0    0    0  0.54377436732E+01 -0.49849289379E+01 -0.29876504998E+02  0.30773757061E+02  0.00000000000E+00 0.  1.
</event>
<event>
 5    1  0.1250806E-009  0.9118800E+02  0.7561462E-02  0.1125453E+00
         25   -1    0    0    0    0  0.00000000000E+00  0.00000000000E+00  0.99999998245E-14  0.12509000000E+03  0.12509000000E+03 0.  0.
        -13    1    3    3    0    0 -0.34922266306E+02  0.91811391843E+01 -0.17988182635E+02  0.40341589944E+02  0.10566000000E+00 0.  1.
         23    2    1    0    0    0 -0.73416308084E+01 -0.14323217224E+02  0.24244005715E+02  0.95989726674E+02  0.91472409606E+02 0.  0.
         13    1    3    3    0    0  0.27580635498E+02 -0.23504356408E+02  0.42232188350E+02  0.55648136730E+02  0.10566000000E+00 0. -1.
         22    1    1    0    0    0  0.73416308084E+01  0.14323217224E+02 -0.24244005715E+02  0.29100273326E+02  0.00000000000E+00 0. -1.
</event>
<event>
 5    1  0.1250806E-009  0.9118800E+02  0.7561462E-02  0.1125453E+00
         25   -1    0    0    0    0  0.00000000000E+00  0.00000000000E+00  0.99999998245E-14  0.12509000000E+03  0.12509000000E+03 0.  0.
        -13    1    3    3    0    0 -0.26216560511E+02 -0.56080357796E+02  0.83133682706E+01  0.62461490789E+02  0.10566000000E+00 0.  1.
         23    2    1    0    0    0 -0.12163102290E+02 -0.27042968331E+02  0.62437722335E+01  0.94787394746E+02  0.89813152253E+02 0.  0.
         13    1    3    3    0    0  0.14053458221E+02  0.29037389465E+02 -0.20695960370E+01  0.32325903958E+02  0.10566000000E+00 0. -1.
         22    1    1    0    0    0  0.12163102290E+02  0.27042968331E+02 -0.62437722335E+01  0.30302605254E+02  0.00000000000E+00 0.  1.
</event>
<event>
 5    1  0.1250806E-009  0.9118800E+02  0.7561462E-02  0.1125453E+00
         25   -1    0    0    0    0  0.00000000000E+00  0.00000000000E+00  0.99999998245E-14  0.12509000000E+03  0.12509000000E+03 0.  0.
        -13    1    3    3    0    0  0.43532804500E+02  0.29548317731E+02  0.31620946592E+02  0.61384880678E+02  0.10566000000E+00 0.  1.
         23    2    1    0    0    0  0.25347318982E+02  0.14040264065E+02  0.79048575875E+01  0.95054980971E+02  0.90185071044E+02 0.  0.
         13    1    3    3    0    0 -0.18185485518E+02 -0.15508053666E+02 -0.23716089005E+02  0.33670100293E+02  0.10566000000E+00 0. -1.
         22    1    1    0    0    0 -0.25347318982E+02 -0.14040264065E+02 -0.79048575875E+01  0.30035019029E+02  0.00000000000E+00 0.  1.
</event>
<event>
 5    1  0.1250806E-009  0.9118800E+02  0.7561462E-02  0.1125453E+00
         25   -1    0    0    0    0  0.00000000000E+00  0.00000000000E+00  0.99999998245E-14  0.12509000000E+03  0.12509000000E+03 0.  0.
        -13    1    3    3    0    0  0.53794032111E+02 -0.18532048375E+01 -0.29640211669E+02  0.61447421189E+02  0.10566000000E+00 0.  1.
         23    2    1    0    0    0  0.31868178950E+02 -0.37189009069E+01 -0.86461633819E+01  0.91860988658E+02  0.85640376240E+02 0.  0.
         13    1    3    3    0    0 -0.21925853162E+02 -0.18656960694E+01  0.20994048287E+02  0.30413567469E+02  0.10566000000E+00 0. -1.
         22    1    1    0    0    0 -0.31868178950E+02  0.37189009069E+01  0.86461633819E+01  0.33229011342E+02  0.00000000000E+00 0.  1.
</event>
<event>
 5    1  0.1250806E-009  0.9118800E+02  0.7561462E-02  0.1125453E+00
         25   -1    0    0    0    0  0.00000000000E+00  0.00000000000E+00  0.99999998245E-14  0.12509000000E+03  0.12509000000E+03 0.  0.
        -13    1    3    3    0    0  0.33728003432E+02 -0.19196071601E+02 -0.12488583141E+02  0.40768164704E+02  0.10566000000E+00 0.  1.
         23    2    1    0    0    0  0.33937602283E+01  0.26570797921E+02 -0.12150874815E+02  0.95676250334E+02  0.91042716394E+02 0.  0.
         13    1    3    3    0    0 -0.30334243204E+02  0.45766869522E+02  0.33770832602E+00  0.54908085630E+02  0.10566000000E+00 0. -1.
         22    1    1    0    0    0 -0.33937602283E+01 -0.26570797921E+02  0.12150874815E+02  0.29413749666E+02  0.00000000000E+00 0.  1.
</event>
<event>
 5    1  0.1250806E-009  0.9118800E+02  0.7561462E-02  0.1125453E+00
         25   -1    0    0    0    0  0.00000000000E+00  0.00000000000E+00  0.99999998245E-14  0.12509000000E+03  0.12509000000E+03 0.  0.
        -13    1    3    3    0    0 -0.14259146752E+02 -0.20799521811E+02  0.18301913222E+02  0.31159502006E+02  0.10566000000E+00 0. -1.
         23    2    1    0    0    0  0.21326038342E+02  0.11996748709E+02 -0.20484960154E+02  0.93178317445E+02  0.87543379867E+02 0.  0.
         13    1    3    3    0    0  0.35585185093E+02  0.32796270520E+02 -0.38786873376E+02  0.62018815439E+02  0.10566000000E+00 0.  1.
         22    1    1    0    0    0 -0.21326038342E+02 -0.11996748709E+02  0.20484960154E+02  0.31911682555E+02  0.00000000000E+00 0.  1.
</event>
<event>
 5    1  0.1250806E-009  0.9118800E+02  0.7561462E-02  0.1125453E+00
         25   -1    0    0    0    0  0.00000000000E+00  0.00000000000E+00  0.99999998245E-14  0.12509000000E+03  0.12509000000E+03 0.  0.
        -13    1    3    3    0    0  0.27716309661E+02 -0.37939758047E+02 -0.30729746928E+01  0.47085808896E+02  0.10566000000E+00 0.  1.
         23    2    1    0    0    0  0.29116076095E+02 -0.65335361816E+01  0.22586425279E+02  0.87665681849E+02  0.79276050513E+02 0.  0.
         13    1    3    3    0    0  0.13997664342E+01  0.31406221865E+02  0.25659399972E+02  0.40579872953E+02  0.10566000000E+00 0. -1.
         22    1    1    0    0    0 -0.29116076095E+02  0.65335361816E+01 -0.22586425279E+02  0.37424318151E+02  0.00000000000E+00 0. -1.
</event>
<event>
 5    1  0.1250806E-009  0.9118800E+02  0.7561462E-02  0.1125453E+00
         25   -1    0    0    0    0  0.00000000000E+00  0.00000000000E+00  0.99999998245E-14  0.12509000000E+03  0.12509000000E+03 0.  0.
        -13    1    3    3    0    0 -0.67206267160E+01  0.17077738765E+02 -0.51250129373E+02  0.54437146412E+02  0.10566000000E+00 0. -1.
         23    2    1    0    0    0  0.11236472101E+02 -0.85417667307E+01 -0.29028315638E+02  0.92812094353E+02  0.87018513347E+02 0.  0.
         13    1    3    3    0    0  0.17957098818E+02 -0.25619505495E+02  0.22221813734E+02  0.38374947941E+02  0.10566000000E+00 0.  1.
         22    1    1    0    0    0 -0.11236472101E+02  0.85417667307E+01  0.29028315638E+02  0.32277905647E+02  0.00000000000E+00 0. -1.
</event>
<event>
 5    1  0.1250806E-009  0.9118800E+02  0.7561462E-02  0.1125453E+00
         25   -1    0    0    0    0  0.00000000000E+00  0.00000000000E+00  0.99999998245E-14  0.12509000000E+03  0.12509000000E+03 0.  0.
        -13    1    3    3    0    0 -0.41343791408E+02 -0.16747740796E+02  0.16878640460E+02  0.47693768750E+02  0.10566000000E+00 0.  1.
         23    2    1    0    0    0  0.48553523890E+01 -0.26399372511E+02  0.13586740563E+02  0.95005106200E+02  0.90115866357E+02 0.  0.
         13    1    3    3    0    0  0.46199143797E+02 -0.96516317149E+01 -0.32918998967E+01  0.47311337450E+02  0.10566000000E+00 0. -1.
         22    1    1    0    0    0 -0.48553523890E+01  0.26399372511E+02 -0.13586740563E+02  0.30084893800E+02  0.00000000000E+00 0.  1.
</event>
<event>
 5    1  0.1250806E-009  0.9118800E+02  0.7561462E-02  0.1125453E+00
         25   -1    0    0    0    0  0.00000000000E+00  0.00000000000E+00  0.99999998245E-14  0.12509000000E+03  0.12509000000E+03 0.  0.
        -13    1    3    3    0    0 -0.29032409019E+01 -0.16807724544E+02  0.32161695494E+02  0.36404865515E+02  0.10566000000E+00 0.  1.
         23    2    1    0    0    0 -0.11890351889E+02  0.17931865539E+02 -0.17278868621E+02  0.97494863280E+02  0.93508057383E+02 0.  0.
         13    1    3    3    0    0 -0.89871109872E+01  0.34739590083E+02 -0.49440564115E+02  0.61089997766E+02  0.10566000000E+00 0. -1.
         22    1    1    0    0    0  0.11890351889E+02 -0.17931865539E+02  0.17278868621E+02  0.27595136720E+02  0.00000000000E+00 0. -1.
</event>
<event>
 5    1  0.1250806E-009  0.9118800E+02  0.7561462E-02  0.1125453E+00
         25   -1    0    0    0    0  0.00000000000E+00  0.00000000000E+00  0.99999998245E-14  0.12509000000E+03  0.12509000000E+03 0.  0.
        -13    1    3    3    0    0 -0.34204213188E+02 -0.11823381172E+02  0.12638790586E+02  0.38333676235E+02  0.10566000000E+00 0. -1.
         23    2    1    0    0    0  0.20689870542E+00  0.10399762043E+02 -0.27502399600E+02  0.95686261439E+02  0.91056470318E+02 0.  0.
         13    1    3    3    0    0  0.34411111893E+02  0.22223143215E+02 -0.40141190185E+02  0.57352585204E+02  0.10566000000E+00 0.  1.
         22    1    1    0    0    0 -0.20689870542E+00 -0.10399762043E+02  0.27502399600E+02  0.29403738561E+02  0.00000000000E+00 0.  1.
</event>
<event>
 5    1  0.1250806E-009  0.9118800E+02  0.7561462E-02  0.1125453E+00
         25   -1    0    0    0    0  0.00000000000E+00  0.00000000000E+00  0.99999998245E-14  0.12509000000E+03  0.12509000000E+03 0.  0.
        -13    1    3    3    0    0  0.40394351964E+02  0.11998565325E+02  0.19990116009E+02  0.46639952214E+02  0.10566000000E+00 0. -1.
         23    2    1    0    0    0 -0.10474033207E+02  0.57648258129E+01  0.24236979402E+02  0.98064646000E+02  0.94267200215E+02 0.  0.
         13    1    3    3    0    0 -0.50868385171E+02 -0.62337395122E+01  0.42468633933E+01  0.51424693786E+02  0.10566000000E+00 0.  1.
         22    1    1    0    0    0  0.10474033207E+02 -0.57648258129E+01 -0.24236979402E+02  0.27025354000E+02  0.00000000000E+00 0.  1.
</event>
<event>
 5    1  0.1250806E-009  0.9118800E+02  0.7561462E-02  0.1125453E+00
         25   -1    0    0    0    0  0.00000000000E+00  0.00000000000E+00  0.99999998245E-14  0.12509000000E+03  0.12509000000E+03 0.  0.
        -13    1    3    3    0    0  0.93902372373E+01 -0.18062676583E+02  0.30369933961E+02  0.36562014353E+02  0.10566000000E+00 0.  1.
         23    2    1    0    0    0  0.20389840734E+02 -0.10080288981E+02 -0.23656938025E+02  0.92272191606E+02  0.86238905350E+02 0.  0.
         13    1    3    3    0    0  0.10999603496E+02  0.79823876023E+01 -0.54026871986E+02  0.55710177253E+02  0.10566000000E+00 0. -1.
         22    1    1    0    0    0 -0.20389840734E+02  0.10080288981E+02  0.23656938025E+02  0.32817808394E+02  0.00000000000E+00 0. -1.
</event>
<event>
 5    1  0.1250806E-009  0.9118800E+02  0.7561462E-02  0.1125453E+00
         25   -1    0    0    0    0  0.00000000000E+00  0.00000000000E+00  0.99999998245E-14  0.12509000000E+03  0.12509000000E+03 0.  0.
        -13    1    3    3    0    0  0.54645826473E+00 -0.53174030009E+02 -0.23530353917E+02  0.58150363744E+02  0.10566000000E+00 0. -1.
         23    2    1    0    0    0  0.53072252908E+01 -0.30507941938E+02  0.37059493477E+01  0.93902899748E+02  0.88572678400E+02 0.  0.
         13    1    3    3    0    0  0.47607670260E+01  0.22666088072E+02  0.27236303265E+02  0.35752536004E+02  0.10566000000E+00 0.  1.
         22    1    1    0    0    0 -0.53072252908E+01  0.30507941938E+02 -0.37059493477E+01  0.31187100252E+02  0.00000000000E+00 0. -1.
</event>
<event>
 5    1  0.1250806E-009  0.9118800E+02  0.7561462E-02  0.1125453E+00
         25   -1    0    0    0    0  0.00000000000E+00  0.00000000000E+00  0.99999998245E-14  0.12509000000E+03  0.12509000000E+03 0.  0.
        -13    1    3    3    0    0  0.86552257199E+01  0.18527175086E+02 -0.35970584062E+02  0.41377085817E+02  0.10566000000E+00 0.  1.
         23    2    1    0    0    0  0.54986499702E+01  0.20962787309E+02  0.18864929811E+02  0.96357454341E+02  0.91973908404E+02 0.  0.
         13    1    3    3    0    0 -0.31565757497E+01  0.24356122230E+01  0.54835513872E+02  0.54980368524E+02  0.10566000000E+00 0. -1.
         22    1    1    0    0    0 -0.54986499702E+01 -0.20962787309E+02 -0.18864929811E+02  0.28732545659E+02  0.00000000000E+00 0. -1.
</event>
<event>
 5    1  0.1250806E-009  0.9118800E+02  0.7561462E-02  0.1125453E+00
         25   -1    0    0    0    0  0.00000000000E+00  0.00000000000E+00  0.99999998245E-14  0.12509000000E+03  0.12509000000E+03 0.  0.
        -13    1    3    3    0    0  0.54835175838E+02 -0.92142322930E+01  0.22206107375E+02  0.59874209429E+02  0.10566000000E+00 0. -1.
         23    2    1    0    0    0  0.22135690502E+02  0.40507517030E+01  0.19582325164E+02  0.95259397556E+02  0.90468160037E+02 0.  0.
         13    1    3    3    0    0 -0.32699485336E+02  0.13264983996E+02 -0.26237822106E+01  0.35385188127E+02  0.10566000000E+00 0.  1.
         22    1    1    0    0    0 -0.22135690502E+02 -0.40507517030E+01 -0.19582325164E+02  0.29830602444E+02  0.00000000000E+00 0. -1.
</event>
<event>
 5    1  0.1250806E-009  0.9118800E+02  0.7561462E-02  0.1125453E+00
         25   -1    0    0    0    0  0.00000000000E+00  0.00000000000E+00  0.99999998245E-14  0.12509000000E+03  0.12509000000E+03 0.  0.
        -13    1    3    3    0    0 -0.30342246543E+02 -0.27302318027E+01  0.25525696124E+02  0.39745168481E+02  0.10566000000E+00 0.  1.
         23    2    1    0    0    0  0.30455270792E+01  0.29358617871E+02 -0.49218377308E+01  0.95166294261E+02  0.90339334723E+02 0.  0.
         13    1    3    3    0    0  0.33387773622E+02  0.32088849674E+02 -0.30447533854E+02  0.55421125780E+02  0.10566000000E+00 0. -1.
         22    1    1    0    0    0 -0.30455270792E+01 -0.29358617871E+02  0.49218377308E+01  0.29923705739E+02  0.00000000000E+00 0. -1.
</event>
<event>
 5    1  0.1250806E-009  0.9118800E+02  0.7561462E-02  0.1125453E+00
         25   -1    0    0    0    0  0.00000000000E+00  0.00000000000E+00  0.99999998245E-14  0.12509000000E+03  0.12509000000E+03 0.  0.
        -13    1    3    3    0    0  0.18913848465E+02  0.72200613078E+01  0.21299121074E+01  0.20357078343E+02  0.10566000000E+00 0.  1.
         23    2    1    0    0    0 -0.40572343960E+02 -0.46181697459E+01 -0.11791966059E+02  0.82587140688E+02  0.70810611897E+02 0.  0.
         13    1    3    3    0    0 -0.59486192425E+02 -0.11838231054E+02 -0.13921878166E+02  0.62230062344E+02  0.10566000000E+00 0. -1.
         22    1    1    0    0    0  0.40572343960E+02  0.46181697459E+01  0.11791966059E+02  0.42502859312E+02  0.00000000000E+00 0. -1.
</event>
<event>
 5    1  0.1250806E-009  0.9118800E+02  0.7561462E-02  0.1125453E+00
         25   -1    0    0    0    0  0.00000000000E+00  0.00000000000E+00  0.99999998245E-14  0.12509000000E+03  0.12509000000E+03 0.  0.
        -13    1    3    3    0    0  0.16872402202E+02  0.20733639082E-02 -0.49467712340E+02  0.52266085453E+02  0.10566000000E+00 0.  1.
         23    2    1    0    0    0 -0.17959674914E+02 -0.63538578308E+00 -0.22331153688E+02  0.96425840093E+02  0.92066870124E+02 0.  0.
         13    1    3    3    0    0 -0.34832077116E+02 -0.63745914699E+00  0.27136558652E+02  0.44159754640E+02  0.10566000000E+00 0. -1.
         22    1    1    0    0    0  0.17959674914E+02  0.63538578308E+00  0.22331153688E+02  0.28664159907E+02  0.00000000000E+00 0.  1.
</event>
<event>
 5    1  0.1250806E-009  0.9118800E+02  0.7561462E-02  0.1125453E+00
         25   -1    0    0    0    0  0.00000000000E+00  0.00000000000E+00  0.99999998245E-14  0.12509000000E+03  0.12509000000E+03 0.  0.
        -13    1    3    3    0    0 -0.46585025581E+02 -0.10002570202E+02  0.10512631638E+01  0.47658497011E+02  0.10566000000E+00 0.  1.
         23    2    1    0    0    0 -0.32431094566E+01  0.20740646751E+02 -0.98465895416E+01  0.10190277265E+03  0.99229670772E+02 0.  0.
         13    1    3    3    0    0  0.43341916125E+02  0.30743216952E+02 -0.10897852705E+02  0.54244275639E+02  0.10566000000E+00 0. -1.
         22    1    1    0    0    0  0.32431094566E+01 -0.20740646751E+02  0.98465895416E+01  0.23187227350E+02  0.00000000000E+00 0. -1.
</event>
<event>
 5    1  0.1250806E-009  0.9118800E+02  0.7561462E-02  0.1125453E+00
         25   -1    0    0    0    0  0.00000000000E+00  0.00000000000E+00  0.99999998245E-14  0.12509000000E+03  0.12509000000E+03 0.  0.
        -13    1    3    3    0    0 -0.47450972255E+02 -0.31648179515E+02 -0.23743398764E+02  0.61781568315E+02  0.10566000000E+00 0.  1.
         23    2    1    0    0    0 -0.18737517709E+02 -0.20490682216E+02 -0.92722918461E+01  0.95816496218E+02  0.91235206603E+02 0.  0.
         13    1    3    3    0    0  0.28713454546E+02  0.11157497299E+02  0.14471106918E+02  0.34034927903E+02  0.10566000000E+00 0. -1.
         22    1    1    0    0    0  0.18737517709E+02  0.20490682216E+02  0.92722918461E+01  0.29273503782E+02  0.00000000000E+00 0.  1.
</event>
<event>
 5    1  0.1250806E-009  0.9118800E+02  0.7561462E-02  0.1125453E+00
         25   -1    0    0    0    0  0.00000000000E+00  0.00000000000E+00  0.99999998245E-14  0.12509000000E+03  0.12509000000E+03 0.  0.
        -13    1    3    3    0    0  0.21494031410E+02  0.14546234338E+02  0.48343561885E+02  0.54869822848E+02  0.10566000000E+00 0.  1.
         23    2    1    0    0    0 -0.69235373153E+01  0.20717906843E+02  0.20263987007E+02  0.95294090846E+02  0.90516117613E+02 0.  0.
         13    1    3    3    0    0 -0.28417568725E+02  0.61716725048E+01 -0.28079574878E+02  0.40424267997E+02  0.10566000000E+00 0. -1.
         22    1    1    0    0    0  0.69235373153E+01 -0.20717906843E+02 -0.20263987007E+02  0.29795909154E+02  0.00000000000E+00 0.  1.
</event>
<event>
 5    1  0.1250806E-009  0.9118800E+02  0.7561462E-02  0.1125453E+00
         25   -1    0    0    0    0  0.00000000000E+00  0.00000000000E+00  0.99999998245E-14  0.12509000000E+03  0.12509000000E+03 0.  0.
        -13    1    3    3    0    0  0.41149174994E+02 -0.21746638048E+01 -0.12832694939E+02  0.43158695402E+02  0.10566000000E+00 0.  1.
         23    2    1    0    0    0 -0.18427815824E+01  0.27838526322E+02 -0.91854471308E+01  0.95717362551E+02  0.91099185852E+02 0.  0.
         13    1    3    3    0    0 -0.42991956577E+02  0.30013190127E+02  0.36472478084E+01  0.52558667149E+02  0.10566000000E+00 0. -1.
         22    1    1    0    0    0  0.18427815824E+01 -0.27838526322E+02  0.91854471308E+01  0.29372637449E+02  0.00000000000E+00 0.  1.
</event>
<event>
 5    1  0.1250806E-009  0.9118800E+02  0.7561462E-02  0.1125453E+00
         25   -1    0    0    0    0  0.00000000000E+00  0.00000000000E+00  0.99999998245E-14  0.12509000000E+03  0.12509000000E+03 0.  0.
        -13    1    3    3    0    0  0.33118573620E+02  0.46104237906E+02  0.71069775466E+01  0.57209797809E+02  0.10566000000E+00 0.  1.
         23    2    1    0    0    0  0.27631317070E+02  0.77792911525E+01  0.13366288772E+01  0.96353374753E+02  0.91968359753E+02 0.  0.
         13    1    3    3    0    0 -0.54872565497E+01 -0.38324946754E+02 -0.57703486694E+01  0.39143576943E+02  0.10566000000E+00 0. -1.
         22    1    1    0    0    0 -0.27631317070E+02 -0.77792911525E+01 -0.13366288772E+01  0.28736625247E+02  0.00000000000E+00 0.  1.
</event>
<event>
 5    1  0.1250806E-009  0.9118800E+02  0.7561462E-02  0.1125453E+00
         25   -1    0    0    0    0  0.00000000000E+00  0.00000000000E+00  0.99999998245E-14  0.12509000000E+03  0.12509000000E+03 0.  0.
        -13    1    3    3    0    0  0.38303125486E+02 -0.21563241455E+02 -0.22301819006E+02  0.49289807254E+02  0.10566000000E+00 0.  1.
         23    2    1    0    0    0 -0.43241546930E+00  0.29408638616E+01 -0.29285171651E+02  0.95654359324E+02  0.91012633824E+02 0.  0.
         13    1    3    3    0    0 -0.38735540955E+02  0.24504105317E+02 -0.69833526445E+01  0.46364552070E+02  0.10566000000E+00 0. -1.
         22    1    1    0    0    0  0.43241546930E+00 -0.29408638616E+01  0.29285171651E+02  0.29435640676E+02  0.00000000000E+00 0.  1.
</event>
<event>
 5    1  0.1250806E-009  0.9118800E+02  0.7561462E-02  0.1125453E+00
         25   -1    0    0    0    0  0.00000000000E+00  0.00000000000E+00  0.99999998245E-14  0.12509000000E+03  0.12509000000E+03 0.  0.
        -13    1    3    3    0    0 -0.38882939672E+02  0.13523364009E+02  0.12313498106E+02  0.42969730873E+02  0.10566000000E+00 0.  1.
         23    2    1    0    0    0 -0.13275952278E+02 -0.17711993418E+02 -0.20432057079E+02  0.94966345238E+02  0.90062046122E+02 0.  0.
         13    1    3    3    0    0  0.25606987394E+02 -0.31235357427E+02 -0.32745555185E+02  0.51996614365E+02  0.10566000000E+00 0. -1.
         22    1    1    0    0    0  0.13275952278E+02  0.17711993418E+02  0.20432057079E+02  0.30123654762E+02  0.00000000000E+00 0. -1.
</event>
<event>
 5    1  0.1250806E-009  0.9118800E+02  0.7561462E-02  0.1125453E+00
         25   -1    0    0    0    0  0.00000000000E+00  0.00000000000E+00  0.99999998245E-14  0.12509000000E+03  0.12509000000E+03 0.  0.
        -13    1    3    3    0    0  0.53395097498E+01  0.38036263413E+02 -0.30637467702E+02  0.49131795103E+02  0.10566000000E+00 0.  1.
         23    2    1    0    0    0 -0.21485388526E+02  0.10293485912E+01 -0.19222658446E+02  0.96242260464E+02  0.91817104195E+02 0.  0.
         13    1    3    3    0    0 -0.26824898276E+02 -0.37006914822E+02  0.11414809256E+02  0.47110465361E+02  0.10566000000E+00 0. -1.
         22    1    1    0    0    0  0.21485388526E+02 -0.10293485912E+01  0.19222658446E+02  0.28847739536E+02  0.00000000000E+00 0. -1.
</event>
<event>
 5    1  0.1250806E-009  0.9118800E+02  0.7561462E-02  0.1125453E+00
         25   -1    0    0    0    0  0.00000000000E+00  0.00000000000E+00  0.99999998245E-14  0.12509000000E+03  0.12509000000E+03 0.  0.
        -13    1    3    3    0    0 -0.17740677299E+02 -0.21201909752E+02  0.42123856234E+02  0.50385345451E+02  0.10566000000E+00 0.  1.
         23    2    1    0    0    0  0.57915835016E+01 -0.29135365504E+02  0.39939094844E+02  0.75315073988E+02  0.56522713225E+02 0.  0.
         13    1    3    3    0    0  0.23532260801E+02 -0.79334557514E+01 -0.21847613900E+01  0.24929728537E+02  0.10566000000E+00 0. -1.
         22    1    1    0    0    0 -0.57915835016E+01  0.29135365504E+02 -0.39939094844E+02  0.49774926012E+02  0.00000000000E+00 0. -1.
</event>
<event>
 5    1  0.1250806E-009  0.9118800E+02  0.7561462E-02  0.1125453E+00
         25   -1    0    0    0    0  0.00000000000E+00  0.00000000000E+00  0.99999998245E-14  0.12509000000E+03  0.12509000000E+03 0.  0.
        -13    1    3    3    0    0 -0.37421901905E+02 -0.35108290394E+02 -0.16997890785E+02  0.54054881850E+02  0.10566000000E+00 0.  1.
         23    2    1    0    0    0 -0.10831472730E+02 -0.28137231171E+02  0.10718416217E+02  0.93091421506E+02  0.87419126810E+02 0.  0.
         13    1    3    3    0    0  0.26590429175E+02  0.69710592233E+01  0.27716307002E+02  0.39036539656E+02  0.10566000000E+00 0. -1.
         22    1    1    0    0    0  0.10831472730E+02  0.28137231171E+02 -0.10718416217E+02  0.31998578494E+02  0.00000000000E+00 0.  1.
</event>
<event>
 5    1  0.1250806E-009  0.9118800E+02  0.7561462E-02  0.1125453E+00
         25   -1    0    0    0    0  0.00000000000E+00  0.00000000000E+00  0.99999998245E-14  0.12509000000E+03  0.12509000000E+03 0.  0.
        -13    1    3    3    0    0 -0.29813245591E+02 -0.28325488899E+02  0.25651991427E+01  0.41203814687E+02  0.10566000000E+00 0.  1.
         23    2    1    0    0    0 -0.15892061901E+02  0.22839568632E+02 -0.96893669694E+01  0.95626677732E+02  0.90974579609E+02 0.  0.
         13    1    3    3    0    0  0.13921183690E+02  0.51165057531E+02 -0.12254566112E+02  0.54422863046E+02  0.10566000000E+00 0. -1.
         22    1    1    0    0    0  0.15892061901E+02 -0.22839568632E+02  0.96893669694E+01  0.29463322268E+02  0.00000000000E+00 0. -1.
</event>
<event>
 5    1  0.1250806E-009  0.9118800E+02  0.7561462E-02  0.1125453E+00
         25   -1    0    0    0    0  0.00000000000E+00  0.00000000000E+00  0.99999998245E-14  0.12509000000E+03  0.12509000000E+03 0.  0.
        -13    1    3    3    0    0  0.16984793705E+02  0.68122644379E+01 -0.29229370322E+02  0.34485611745E+02  0.10566000000E+00 0.  1.
         23    2    1    0    0    0  0.87123047272E+01  0.12858463864E+02  0.28239516547E+02  0.92860903807E+02  0.87088649171E+02 0.  0.
         13    1    3    3    0    0 -0.82724889775E+01  0.60461994264E+01  0.57468886869E+02  0.58375292062E+02  0.10566000000E+00 0. -1.
         22    1    1    0    0    0 -0.87123047272E+01 -0.12858463864E+02 -0.28239516547E+02  0.32229096193E+02  0.00000000000E+00 0. -1.
</event>
<event>
 5    1  0.1250806E-009  0.9118800E+02  0.7561462E-02  0.1125453E+00
         25   -1    0    0    0    0  0.00000000000E+00  0.00000000000E+00  0.99999998245E-14  0.12509000000E+03  0.12509000000E+03 0.  0.
        -13    1    3    3    0    0  0.41569978204E+02  0.97656643066E+00 -0.14081939901E+02  0.43901354936E+02  0.10566000000E+00 0.  1.
         23    2    1    0    0    0  0.90682880148E+01 -0.14287903684E+01  0.27133651603E+02  0.96445448358E+02  0.92093507753E+02 0.  0.
         13    1    3    3    0    0 -0.32501690189E+02 -0.24053567990E+01  0.41215591504E+02  0.52544093422E+02  0.10566000000E+00 0. -1.
         22    1    1    0    0    0 -0.90682880148E+01  0.14287903684E+01 -0.27133651603E+02  0.28644551642E+02  0.00000000000E+00 0. -1.
</event>
<event>
 5    1  0.1250806E-009  0.9118800E+02  0.7561462E-02  0.1125453E+00
         25   -1    0    0    0    0  0.00000000000E+00  0.00000000000E+00  0.99999998245E-14  0.12509000000E+03  0.12509000000E+03 0.  0.
        -13    1    3    3    0    0  0.11597507186E+02  0.52897688634E+02  0.13601141808E+02  0.55836098164E+02  0.10566000000E+00 0.  1.
         23    2    1    0    0    0 -0.13929780812E+02  0.25025547774E+02 -0.11930170947E+01  0.96423990082E+02  0.92064356505E+02 0.  0.
         13    1    3    3    0    0 -0.25527287998E+02 -0.27872140860E+02 -0.14794158902E+02  0.40587891917E+02  0.10566000000E+00 0. -1.
         22    1    1    0    0    0  0.13929780812E+02 -0.25025547774E+02  0.11930170947E+01  0.28666009918E+02  0.00000000000E+00 0.  1.
</event>
<event>
 5    1  0.1250806E-009  0.9118800E+02  0.7561462E-02  0.1125453E+00
         25   -1    0    0    0    0  0.00000000000E+00  0.00000000000E+00  0.99999998245E-14  0.12509000000E+03  0.12509000000E+03 0.  0.
        -13    1    3    3    0    0  0.17173928808E+02  0.35936191185E+02  0.10935356086E+02  0.41303109378E+02  0.10566000000E+00 0.  1.
         23    2    1    0    0    0 -0.10838607757E+02 -0.38962530679E+01  0.29502409238E+02  0.93419061319E+02  0.87886703550E+02 0.  0.
         13    1    3    3    0    0 -0.28012536564E+02 -0.39832444253E+02  0.18567053152E+02  0.52115951941E+02  0.10566000000E+00 0. -1.
         22    1    1    0    0    0  0.10838607757E+02  0.38962530679E+01 -0.29502409238E+02  0.31670938681E+02  0.00000000000E+00 0. -1.
</event>
<event>
 5    1  0.1250806E-009  0.9118800E+02  0.7561462E-02  0.1125453E+00
         25   -1    0    0    0    0  0.00000000000E+00  0.00000000000E+00  0.99999998245E-14  0.12509000000E+03  0.12509000000E+03 0.  0.
        -13    1    3    3    0    0 -0.80910401181E+01 -0.42655557141E+02 -0.32621887466E+02  0.54306170838E+02  0.10566000000E+00 0.  1.
         23    2    1    0    0    0 -0.24290126144E+02 -0.13731738134E+02 -0.66866051014E+01  0.96397116770E+02  0.92027835862E+02 0.  0.
         13    1    3    3    0    0 -0.16199086026E+02  0.28923819007E+02  0.25935282365E+02  0.42090945931E+02  0.10566000000E+00 0. -1.
         22    1    1    0    0    0  0.24290126144E+02  0.13731738134E+02  0.66866051014E+01  0.28692883230E+02  0.00000000000E+00 0.  1.
</event>
<event>
 5    1  0.1250806E-009  0.9118800E+02  0.7561462E-02  0.1125453E+00
         25   -1    0    0    0    0  0.00000000000E+00  0.00000000000E+00  0.99999998245E-14  0.12509000000E+03  0.12509000000E+03 0.  0.
        -13    1    3    3    0    0 -0.32619139507E+02 -0.26989482335E+02 -0.32512851651E+02  0.53381055679E+02  0.10566000000E+00 0.  1.
         23    2    1    0    0    0  0.45823354922E+01 -0.26132013019E+02 -0.10952125585E+02  0.96387579234E+02  0.92014870933E+02 0.  0.
         13    1    3    3    0    0  0.37201474999E+02  0.85746931626E+00  0.21560726067E+02  0.43006523555E+02  0.10566000000E+00 0. -1.
         22    1    1    0    0    0 -0.45823354922E+01  0.26132013019E+02  0.10952125585E+02  0.28702420766E+02  0.00000000000E+00 0.  1.
</event>
<event>
 5    1  0.1250806E-009  0.9118800E+02  0.7561462E-02  0.1125453E+00
         25   -1    0    0    0    0  0.00000000000E+00  0.00000000000E+00  0.99999998245E-14  0.12509000000E+03  0.12509000000E+03 0.  0.
        -13    1    3    3    0    0 -0.37969366686E+02 -0.26499112326E+02  0.29072670070E+00  0.46303039281E+02  0.10566000000E+00 0.  1.
         23    2    1    0    0    0  0.12699749209E+01 -0.91916329300E+01 -0.26596530961E+02  0.96921322158E+02  0.92737631398E+02 0.  0.
         13    1    3    3    0    0  0.39239341607E+02  0.17307479396E+02 -0.26887257662E+02  0.50618282877E+02  0.10566000000E+00 0. -1.
         22    1    1    0    0    0 -0.12699749209E+01  0.91916329300E+01  0.26596530961E+02  0.28168677842E+02  0.00000000000E+00 0. -1.
</event>
<event>
 5    1  0.1250806E-009  0.9118800E+02  0.7561462E-02  0.1125453E+00
         25   -1    0    0    0    0  0.00000000000E+00  0.00000000000E+00  0.99999998245E-14  0.12509000000E+03  0.12509000000E+03 0.  0.
        -13    1    3    3    0    0  0.13538212456E+02  0.52768113737E+02 -0.95636328560E+01  0.55310317856E+02  0.10566000000E+00 0. -1.
         23    2    1    0    0    0  0.13773696188E+02  0.11105623371E+02 -0.20126881673E+02  0.98291848142E+02  0.94568210664E+02 0.  0.
         13    1    3    3    0    0  0.23548373259E+00 -0.41662490366E+02 -0.10563248817E+02  0.42981530286E+02  0.10566000000E+00 0.  1.
         22    1    1    0    0    0 -0.13773696188E+02 -0.11105623371E+02  0.20126881673E+02  0.26798151858E+02  0.00000000000E+00 0. -1.
</event>
<event>
 5    1  0.1250806E-009  0.9118800E+02  0.7561462E-02  0.1125453E+00
         25   -1    0    0    0    0  0.00000000000E+00  0.00000000000E+00  0.99999998245E-14  0.12509000000E+03  0.12509000000E+03 0.  0.
        -13    1    3    3    0    0  0.50351854263E+02 -0.15898759648E+02  0.84229315419E+01  0.53469960968E+02  0.10566000000E+00 0.  1.
         23    2    1    0    0    0  0.13821226402E+02 -0.40851574881E+01  0.25741294431E+02  0.95588660201E+02  0.90922290497E+02 0.  0.
         13    1    3    3    0    0 -0.36530627862E+02  0.11813602160E+02  0.17318362889E+02  0.42118699234E+02  0.10566000000E+00 0. -1.
         22    1    1    0    0    0 -0.13821226402E+02  0.40851574881E+01 -0.25741294431E+02  0.29501339799E+02  0.00000000000E+00 0.  1.
</event>
<event>
 5    1  0.1250806E-009  0.9118800E+02  0.7561462E-02  0.1125453E+00
         25   -1    0    0    0    0  0.00000000000E+00  0.00000000000E+00  0.99999998245E-14  0.12509000000E+03  0.12509000000E+03 0.  0.
        -13    1    3    3    0    0 -0.13519327858E+01  0.43553208219E+02 -0.32437857299E+02  0.54322513000E+02  0.10566000000E+00 0.  1.
         23    2    1    0    0    0  0.99633118956E+01  0.24994305082E+02  0.51042092803E+01  0.97703218100E+02  0.93786368968E+02 0.  0.
         13    1    3    3    0    0  0.11315244681E+02 -0.18558903137E+02  0.37542066579E+02  0.43380705100E+02  0.10566000000E+00 0. -1.
         22    1    1    0    0    0 -0.99633118956E+01 -0.24994305082E+02 -0.51042092803E+01  0.27386781900E+02  0.00000000000E+00 0. -1.
</event>
<event>
 5    1  0.1250806E-009  0.9118800E+02  0.7561462E-02  0.1125453E+00
         25   -1    0    0    0    0  0.00000000000E+00  0.00000000000E+00  0.99999998245E-14  0.12509000000E+03  0.12509000000E+03 0.  0.
        -13    1    3    3    0    0  0.16137584532E+02 -0.30532386292E+02 -0.46078062944E+02  0.57583394273E+02  0.10566000000E+00 0.  1.
         23    2    1    0    0    0  0.16509778577E+02  0.52084716159E+00 -0.25034417984E+02  0.95097231634E+02  0.90243655236E+02 0.  0.
         13    1    3    3    0    0  0.37219404486E+00  0.31053233454E+02  0.21043644960E+02  0.37513837362E+02  0.10566000000E+00 0. -1.
         22    1    1    0    0    0 -0.16509778577E+02 -0.52084716159E+00  0.25034417984E+02  0.29992768366E+02  0.00000000000E+00 0.  1.
</event>
<event>
 5    1  0.1250806E-009  0.9118800E+02  0.7561462E-02  0.1125453E+00
         25   -1    0    0    0    0  0.00000000000E+00  0.00000000000E+00  0.99999998245E-14  0.12509000000E+03  0.12509000000E+03 0.  0.
        -13    1    3    3    0    0 -0.25585230418E+02 -0.82153441247E+01 -0.32826781492E+02  0.42422925898E+02  0.10566000000E+00 0.  1.
         23    2    1    0    0    0  0.10071523806E+02 -0.27222466183E+02  0.23133928806E+01  0.95972135320E+02  0.91448349982E+02 0.  0.
         13    1    3    3    0    0  0.35656754224E+02 -0.19007122059E+02  0.35140174372E+02  0.53549209422E+02  0.10566000000E+00 0. -1.
         22    1    1    0    0    0 -0.10071523806E+02  0.27222466183E+02 -0.23133928806E+01  0.29117864680E+02  0.00000000000E+00 0. -1.
</event>
<event>
 5    1  0.1250806E-009  0.9118800E+02  0.7561462E-02  0.1125453E+00
         25   -1    0    0    0    0  0.00000000000E+00  0.00000000000E+00  0.99999998245E-14  0.12509000000E+03  0.12509000000E+03 0.  0.
        -13    1    3    3    0    0  0.24824687224E+02  0.98606252751E+01  0.24238467494E+02  0.36069536968E+02  0.10566000000E+00 0.  1.
         23    2    1    0    0    0 -0.21198407957E+01 -0.41095547967E+01 -0.28121855874E+02  0.96590509769E+02  0.92290333372E+02 0.  0.
         13    1    3    3    0    0 -0.26944528020E+02 -0.13970180072E+02 -0.52360323368E+02  0.60520972801E+02  0.10566000000E+00 0. -1.
         22    1    1    0    0    0  0.21198407957E+01  0.41095547967E+01  0.28121855874E+02  0.28499490231E+02  0.00000000000E+00 0. -1.
</event>
<event>
 5    1  0.1250806E-009  0.9118800E+02  0.7561462E-02  0.1125453E+00
         25   -1    0    0    0    0  0.00000000000E+00  0.00000000000E+00  0.99999998245E-14  0.12509000000E+03  0.12509000000E+03 0.  0.
        -13    1    3    3    0    0 -0.13537835997E+02 -0.17673684801E+02  0.26078972764E+02  0.34289300406E+02  0.10566000000E+00 0.  1.
         23    2    1    0    0    0  0.64296956475E+01 -0.39936761181E+01 -0.29353789346E+02  0.94776052978E+02  0.89797354271E+02 0.  0.
         13    1    3    3    0    0  0.19967531644E+02  0.13680008683E+02 -0.55432762110E+02  0.60486752572E+02  0.10566000000E+00 0. -1.
         22    1    1    0    0    0 -0.64296956475E+01  0.39936761181E+01  0.29353789346E+02  0.30313947022E+02  0.00000000000E+00 0. -1.
</event>
<event>
 5    1  0.1250806E-009  0.9118800E+02  0.7561462E-02  0.1125453E+00
         25   -1    0    0    0    0  0.00000000000E+00  0.00000000000E+00  0.99999998245E-14  0.12509000000E+03  0.12509000000E+03 0.  0.
        -13    1    3    3    0    0  0.57140542244E+01  0.30689008543E+02  0.10902780024E+02  0.33065804653E+02  0.10566000000E+00 0. -1.
         23    2    1    0    0    0 -0.40513829013E+00 -0.25687338098E+02 -0.14925693820E+02  0.95378389279E+02  0.90632540127E+02 0.  0.
         13    1    3    3    0    0 -0.61191925145E+01 -0.56376346641E+02 -0.25828473844E+02  0.62312584626E+02  0.10566000000E+00 0.  1.
         22    1    1    0    0    0  0.40513829013E+00  0.25687338098E+02  0.14925693820E+02  0.29711610721E+02  0.00000000000E+00 0.  1.
</event>
<event>
 5    1  0.1250806E-009  0.9118800E+02  0.7561462E-02  0.1125453E+00
         25   -1    0    0    0    0  0.00000000000E+00  0.00000000000E+00  0.99999998245E-14  0.12509000000E+03  0.12509000000E+03 0.  0.
        -13    1    3    3    0    0 -0.21943007232E+02 -0.21880686003E+02 -0.16879243408E+02  0.35287108247E+02  0.10566000000E+00 0. -1.
         23    2    1    0    0    0  0.19915704098E+02  0.34392096934E+01  0.20080293867E+02  0.96599973064E+02  0.92303158998E+02 0.  0.
         13    1    3    3    0    0  0.41858711330E+02  0.25319895697E+02  0.36959537276E+02  0.61312864816E+02  0.10566000000E+00 0.  1.
         22    1    1    0    0    0 -0.19915704098E+02 -0.34392096934E+01 -0.20080293867E+02  0.28490026936E+02  0.00000000000E+00 0.  1.
</event>
<event>
 5    1  0.1250806E-009  0.9118800E+02  0.7561462E-02  0.1125453E+00
         25   -1    0    0    0    0  0.00000000000E+00  0.00000000000E+00  0.99999998245E-14  0.12509000000E+03  0.12509000000E+03 0.  0.
        -13    1    3    3    0    0 -0.11795777948E+02  0.42636024969E+02 -0.39912600597E+02  0.59581858422E+02  0.10566000000E+00 0. -1.
         23    2    1    0    0    0 -0.29823375999E+01  0.10804374311E+02 -0.28396785993E+02  0.94561221830E+02  0.89497588668E+02 0.  0.
         13    1    3    3    0    0  0.88134403476E+01 -0.31831650658E+02  0.11515814604E+02  0.34979363408E+02  0.10566000000E+00 0.  1.
         22    1    1    0    0    0  0.29823375999E+01 -0.10804374311E+02  0.28396785993E+02  0.30528778170E+02  0.00000000000E+00 0. -1.
</event>
<event>
 5    1  0.1250806E-009  0.9118800E+02  0.7561462E-02  0.1125453E+00
         25   -1    0    0    0    0  0.00000000000E+00  0.00000000000E+00  0.99999998245E-14  0.12509000000E+03  0.12509000000E+03 0.  0.
        -13    1    3    3    0    0 -0.52693496885E+02 -0.47530478663E+01  0.19171219148E+02  0.56273820606E+02  0.10566000000E+00 0.  1.
         23    2    1    0    0    0 -0.22575451352E+02 -0.19249637040E+02 -0.11640225590E+01  0.95399016884E+02  0.90661005642E+02 0.  0.
         13    1    3    3    0    0  0.30118045533E+02 -0.14496589173E+02 -0.20335241707E+02  0.39125196277E+02  0.10566000000E+00 0. -1.
         22    1    1    0    0    0  0.22575451352E+02  0.19249637040E+02  0.11640225590E+01  0.29690983116E+02  0.00000000000E+00 0.  1.
</event>
<event>
 5    1  0.1250806E-009  0.9118800E+02  0.7561462E-02  0.1125453E+00
         25   -1    0    0    0    0  0.00000000000E+00  0.00000000000E+00  0.99999998245E-14  0.12509000000E+03  0.12509000000E+03 0.  0.
        -13    1    3    3    0    0 -0.50048398216E+02  0.50391183342E+01  0.32269974755E+02  0.59762842238E+02  0.10566000000E+00 0.  1.
         23    2    1    0    0    0 -0.28219986822E+02 -0.63259720169E+01  0.63975735746E+01  0.95470504294E+02  0.90759587176E+02 0.  0.
         13    1    3    3    0    0  0.21828411394E+02 -0.11365090351E+02 -0.25872401181E+02  0.35707662057E+02  0.10566000000E+00 0. -1.
         22    1    1    0    0    0  0.28219986822E+02  0.63259720169E+01 -0.63975735746E+01  0.29619495706E+02  0.00000000000E+00 0.  1.
</event>
<event>
 5    1  0.1250806E-009  0.9118800E+02  0.7561462E-02  0.1125453E+00
         25   -1    0    0    0    0  0.00000000000E+00  0.00000000000E+00  0.99999998245E-14  0.12509000000E+03  0.12509000000E+03 0.  0.
        -13    1    3    3    0    0  0.10371874288E+02 -0.56349907744E+02  0.14748575032E+02  0.59164343218E+02  0.10566000000E+00 0.  1.
         23    2    1    0    0    0 -0.59167165417E+01 -0.31073880365E+02 -0.16493403183E+01  0.93414869391E+02  0.87880736935E+02 0.  0.
         13    1    3    3    0    0 -0.16288590830E+02  0.25276027378E+02 -0.16397915350E+02  0.34250526173E+02  0.10566000000E+00 0. -1.
         22    1    1    0    0    0  0.59167165417E+01  0.31073880365E+02  0.16493403183E+01  0.31675130609E+02  0.00000000000E+00 0.  1.
</event>
<event>
 5    1  0.1250806E-009  0.9118800E+02  0.7561462E-02  0.1125453E+00
         25   -1    0    0    0    0  0.00000000000E+00  0.00000000000E+00  0.99999998245E-14  0.12509000000E+03  0.12509000000E+03 0.  0.
        -13    1    3    3    0    0 -0.85207970676E+01 -0.29024238986E+01  0.32477876439E+02  0.33702398567E+02  0.10566000000E+00 0. -1.
         23    2    1    0    0    0 -0.79257036184E+01  0.42890447698E+01 -0.28547930929E+02  0.95153449711E+02  0.90321547533E+02 0.  0.
         13    1    3    3    0    0  0.59509344915E+00  0.71914686684E+01 -0.61025807368E+02  0.61451051144E+02  0.10566000000E+00 0.  1.
         22    1    1    0    0    0  0.79257036184E+01 -0.42890447698E+01  0.28547930929E+02  0.29936550289E+02  0.00000000000E+00 0.  1.
</event>
<event>
 5    1  0.1250806E-009  0.9118800E+02  0.7561462E-02  0.1125453E+00
         25   -1    0    0    0    0  0.00000000000E+00  0.00000000000E+00  0.99999998245E-14  0.12509000000E+03  0.12509000000E+03 0.  0.
        -13    1    3    3    0    0 -0.46104209762E+02 -0.87560623538E+01  0.26452217108E+02  0.53870193425E+02  0.10566000000E+00 0.  1.
         23    2    1    0    0    0 -0.22254062044E+01 -0.18745307016E+02  0.16632951522E+02  0.99930627110E+02  0.96711613523E+02 0.  0.
         13    1    3    3    0    0  0.43878803557E+02 -0.99892446621E+01 -0.98192655860E+01  0.46060433685E+02  0.10566000000E+00 0. -1.
         22    1    1    0    0    0  0.22254062044E+01  0.18745307016E+02 -0.16632951522E+02  0.25159372890E+02  0.00000000000E+00 0.  1.
</event>
<event>
 5    1  0.1250806E-009  0.9118800E+02  0.7561462E-02  0.1125453E+00
         25   -1    0    0    0    0  0.00000000000E+00  0.00000000000E+00  0.99999998245E-14  0.12509000000E+03  0.12509000000E+03 0.  0.
        -13    1    3    3    0    0  0.40428830584E+02 -0.41816539851E+02 -0.15992287484E+02  0.60323111413E+02  0.10566000000E+00 0.  1.
         23    2    1    0    0    0  0.25332465036E+02 -0.11869669481E+02 -0.89836567688E+00  0.97100182221E+02  0.92978575425E+02 0.  0.
         13    1    3    3    0    0 -0.15096365548E+02  0.29946870370E+02  0.15093921807E+02  0.36777070809E+02  0.10566000000E+00 0. -1.
         22    1    1    0    0    0 -0.25332465036E+02  0.11869669481E+02  0.89836567688E+00  0.27989817779E+02  0.00000000000E+00 0.  1.
</event>
<event>
 5    1  0.1250806E-009  0.9118800E+02  0.7561462E-02  0.1125453E+00
         25   -1    0    0    0    0  0.00000000000E+00  0.00000000000E+00  0.99999998245E-14  0.12509000000E+03  0.12509000000E+03 0.  0.
        -13    1    3    3    0    0  0.26641020272E+02  0.54264975723E+01  0.43541543164E+02  0.51332913244E+02  0.10566000000E+00 0.  1.
         23    2    1    0    0    0 -0.37003621260E+01  0.23733443956E+02  0.19438218717E+02  0.94189945166E+02  0.88977145276E+02 0.  0.
         13    1    3    3    0    0 -0.30341382398E+02  0.18306946384E+02 -0.24103324446E+02  0.42857031921E+02  0.10566000000E+00 0. -1.
         22    1    1    0    0    0  0.37003621260E+01 -0.23733443956E+02 -0.19438218717E+02  0.30900054834E+02  0.00000000000E+00 0.  1.
</event>
<event>
 5    1  0.1250806E-009  0.9118800E+02  0.7561462E-02  0.1125453E+00
         25   -1    0    0    0    0  0.00000000000E+00  0.00000000000E+00  0.99999998245E-14  0.12509000000E+03  0.12509000000E+03 0.  0.
        -13    1    3    3    0    0 -0.43476766106E+02  0.44183043572E+02 -0.78756211233E+01  0.62485255080E+02  0.10566000000E+00 0. -1.
         23    2    1    0    0    0 -0.20423263700E+02  0.20841726548E+02 -0.17647061012E+01  0.95856432765E+02  0.91289946046E+02 0.  0.
         13    1    3    3    0    0  0.23053502406E+02 -0.23341317024E+02  0.61109150222E+01  0.33371177685E+02  0.10566000000E+00 0.  1.
         22    1    1    0    0    0  0.20423263700E+02 -0.20841726548E+02  0.17647061012E+01  0.29233567235E+02  0.00000000000E+00 0. -1.
</event>
<event>
 5    1  0.1250806E-009  0.9118800E+02  0.7561462E-02  0.1125453E+00
         25   -1    0    0    0    0  0.00000000000E+00  0.00000000000E+00  0.99999998245E-14  0.12509000000E+03  0.12509000000E+03 0.  0.
        -13    1    3    3    0    0 -0.36467232388E+02  0.15693290331E+02  0.43777433376E+02  0.59098335311E+02  0.10566000000E+00 0.  1.
         23    2    1    0    0    0 -0.56680121242E+01  0.10238828839E+02  0.29249314347E+02  0.93586311847E+02  0.88124431334E+02 0.  0.
         13    1    3    3    0    0  0.30799220264E+02 -0.54544614919E+01 -0.14528119029E+02  0.34487976537E+02  0.10566000000E+00 0. -1.
         22    1    1    0    0    0  0.56680121242E+01 -0.10238828839E+02 -0.29249314347E+02  0.31503688153E+02  0.00000000000E+00 0.  1.
</event>
<event>
 5    1  0.1250806E-009  0.9118800E+02  0.7561462E-02  0.1125453E+00
         25   -1    0    0    0    0  0.00000000000E+00  0.00000000000E+00  0.99999998245E-14  0.12509000000E+03  0.12509000000E+03 0.  0.
        -13    1    3    3    0    0 -0.33199545336E+01  0.51512877430E+02 -0.21142112279E+02  0.55781705916E+02  0.10566000000E+00 0.  1.
         23    2    1    0    0    0 -0.67157912869E+01  0.28844254198E+02  0.94451224910E+01  0.94004582330E+02  0.88716167114E+02 0.  0.
         13    1    3    3    0    0 -0.33958367533E+01 -0.22668623232E+02  0.30587234770E+02  0.38222876414E+02  0.10566000000E+00 0. -1.
         22    1    1    0    0    0  0.67157912869E+01 -0.28844254198E+02 -0.94451224910E+01  0.31085417670E+02  0.00000000000E+00 0.  1.
</event>
<event>
 5    1  0.1250806E-009  0.9118800E+02  0.7561462E-02  0.1125453E+00
         25   -1    0    0    0    0  0.00000000000E+00  0.00000000000E+00  0.99999998245E-14  0.12509000000E+03  0.12509000000E+03 0.  0.
        -13    1    3    3    0    0  0.13833884167E+02 -0.57515866697E+02  0.18776091619E+02  0.62064515252E+02  0.10566000000E+00 0.  1.
         23    2    1    0    0    0  0.30394388037E+01 -0.27248674640E+02  0.13126858546E+02  0.94691926489E+02  0.89680087361E+02 0.  0.
         13    1    3    3    0    0 -0.10794445363E+02  0.30267192057E+02 -0.56492330728E+01  0.32627411237E+02  0.10566000000E+00 0. -1.
         22    1    1    0    0    0 -0.30394388037E+01  0.27248674640E+02 -0.13126858546E+02  0.30398073511E+02  0.00000000000E+00 0.  1.
</event>
<event>
 5    1  0.1250806E-009  0.9118800E+02  0.7561462E-02  0.1125453E+00
         25   -1    0    0    0    0  0.00000000000E+00  0.00000000000E+00  0.99999998245E-14  0.12509000000E+03  0.12509000000E+03 0.  0.
        -13    1    3    3    0    0  0.13130062850E+02  0.30190731150E+02 -0.51136403509E+02  0.60817939177E+02  0.10566000000E+00 0. -1.
         23    2    1    0    0    0 -0.13152507417E+00  0.21435153389E+02 -0.20010731096E+02  0.95765736008E+02  0.91165584156E+02 0.  0.
         13    1    3    3    0    0 -0.13261587924E+02 -0.87555777609E+01  0.31125672413E+02  0.34947796832E+02  0.10566000000E+00 0.  1.
         22    1    1    0    0    0  0.13152507417E+00 -0.21435153389E+02  0.20010731096E+02  0.29324263992E+02  0.00000000000E+00 0. -1.
</event>
<event>
 5    1  0.1250806E-009  0.9118800E+02  0.7561462E-02  0.1125453E+00
         25   -1    0    0    0    0  0.00000000000E+00  0.00000000000E+00  0.99999998245E-14  0.12509000000E+03  0.12509000000E+03 0.  0.
        -13    1    3    3    0    0  0.33541989841E+02 -0.75687695810E+01 -0.77994936818E+01  0.35258965118E+02  0.10566000000E+00 0.  1.
         23    2    1    0    0    0 -0.19572619213E+02 -0.73516946079E+01  0.20811626035E+02  0.95589853989E+02  0.90923932883E+02 0.  0.
         13    1    3    3    0    0 -0.53114609053E+02  0.21707497308E+00  0.28611119717E+02  0.60330888871E+02  0.10566000000E+00 0. -1.
         22    1    1    0    0    0  0.19572619213E+02  0.73516946079E+01 -0.20811626035E+02  0.29500146011E+02  0.00000000000E+00 0. -1.
</event>
<event>
 5    1  0.1250806E-009  0.9118800E+02  0.7561462E-02  0.1125453E+00
         25   -1    0    0    0    0  0.00000000000E+00  0.00000000000E+00  0.99999998245E-14  0.12509000000E+03  0.12509000000E+03 0.  0.
        -13    1    3    3    0    0  0.19816793770E+02  0.15978712138E+02  0.30903524698E+02  0.40038276183E+02  0.10566000000E+00 0.  1.
         23    2    1    0    0    0  0.16274929370E+02  0.49564018741E+01 -0.23733567953E+02  0.95888604600E+02  0.91334018848E+02 0.  0.
         13    1    3    3    0    0 -0.35418644000E+01 -0.11022310264E+02 -0.54637092650E+02  0.55850328417E+02  0.10566000000E+00 0. -1.
         22    1    1    0    0    0 -0.16274929370E+02 -0.49564018741E+01  0.23733567953E+02  0.29201395400E+02  0.00000000000E+00 0. -1.
</event>
<event>
 5    1  0.1250806E-009  0.9118800E+02  0.7561462E-02  0.1125453E+00
         25   -1    0    0    0    0  0.00000000000E+00  0.00000000000E+00  0.99999998245E-14  0.12509000000E+03  0.12509000000E+03 0.  0.
        -13    1    3    3    0    0 -0.31355778180E+01 -0.35799925452E+02 -0.15205121152E+02  0.39021447742E+02  0.10566000000E+00 0.  1.
         23    2    1    0    0    0 -0.67252012740E+01  0.21580131528E+02 -0.17414012674E+02  0.96556191170E+02  0.92243806334E+02 0.  0.
         13    1    3    3    0    0 -0.35896234561E+01  0.57380056980E+02 -0.22088915212E+01  0.57534743428E+02  0.10566000000E+00 0. -1.
         22    1    1    0    0    0  0.67252012740E+01 -0.21580131528E+02  0.17414012674E+02  0.28533808830E+02  0.00000000000E+00 0. -1.
</event>
<event>
 5    1  0.1250806E-009  0.9118800E+02  0.7561462E-02  0.1125453E+00
         25   -1    0    0    0    0  0.00000000000E+00  0.00000000000E+00  0.99999998245E-14  0.12509000000E+03  0.12509000000E+03 0.  0.
        -13    1    3    3    0    0  0.36414580164E+02 -0.12176244731E+02 -0.56384246486E+01  0.38808318449E+02  0.10566000000E+00 0.  1.
         23    2    1    0    0    0 -0.90581930981E+01  0.16829664047E+02  0.19030833025E+02  0.98118513950E+02  0.94338654431E+02 0.  0.
         13    1    3    3    0    0 -0.45472773262E+02  0.29005908778E+02  0.24669257673E+02  0.59310195501E+02  0.10566000000E+00 0. -1.
         22    1    1    0    0    0  0.90581930981E+01 -0.16829664047E+02 -0.19030833025E+02  0.26971486050E+02  0.00000000000E+00 0. -1.
</event>
<event>
 5    1  0.1250806E-009  0.9118800E+02  0.7561462E-02  0.1125453E+00
         25   -1    0    0    0    0  0.00000000000E+00  0.00000000000E+00  0.99999998245E-14  0.12509000000E+03  0.12509000000E+03 0.  0.
        -13    1    3    3    0    0  0.41623935179E+02 -0.12066274619E+02 -0.46695150928E+01  0.43588559258E+02  0.10566000000E+00 0.  1.
         23    2    1    0    0    0 -0.69338068378E+01 -0.23174506096E+02 -0.17746570206E+02  0.95088730625E+02  0.90231870909E+02 0.  0.
         13    1    3    3    0    0 -0.48557742017E+02 -0.11108231477E+02 -0.13077055113E+02  0.51500171366E+02  0.10566000000E+00 0. -1.
         22    1    1    0    0    0  0.69338068378E+01  0.23174506096E+02  0.17746570206E+02  0.30001269375E+02  0.00000000000E+00 0. -1.
</event>
<event>
 5    1  0.1250806E-009  0.9118800E+02  0.7561462E-02  0.1125453E+00
         25   -1    0    0    0    0  0.00000000000E+00  0.00000000000E+00  0.99999998245E-14  0.12509000000E+03  0.12509000000E+03 0.  0.
        -13    1    3    3    0    0 -0.19608887591E+02  0.27406561294E+01 -0.29584701336E+02  0.35598952032E+02  0.10566000000E+00 0.  1.
         23    2    1    0    0    0  0.26521626739E+01 -0.26746001007E+02  0.15637462709E+02  0.93994778877E+02  0.88702343145E+02 0.  0.
         13    1    3    3    0    0  0.22261050265E+02 -0.29486657137E+02  0.45222164045E+02  0.58395826845E+02  0.10566000000E+00 0. -1.
         22    1    1    0    0    0 -0.26521626739E+01  0.26746001007E+02 -0.15637462709E+02  0.31095221123E+02  0.00000000000E+00 0. -1.
</event>
<event>
 5    1  0.1250806E-009  0.9118800E+02  0.7561462E-02  0.1125453E+00
         25   -1    0    0    0    0  0.00000000000E+00  0.00000000000E+00  0.99999998245E-14  0.12509000000E+03  0.12509000000E+03 0.  0.
        -13    1    3    3    0    0  0.44472902112E+02 -0.41221387767E+02  0.14788662284E+02  0.62416003780E+02  0.10566000000E+00 0. -1.
         23    2    1    0    0    0  0.22049718003E+02 -0.20869470727E+02  0.44994969512E+01  0.94398464599E+02  0.89269814458E+02 0.  0.
         13    1    3    3    0    0 -0.22423184109E+02  0.20351917039E+02 -0.10289165333E+02  0.31982460819E+02  0.10566000000E+00 0.  1.
         22    1    1    0    0    0 -0.22049718003E+02  0.20869470727E+02 -0.44994969512E+01  0.30691535401E+02  0.00000000000E+00 0. -1.
</event>
<event>
 5    1  0.1250806E-009  0.9118800E+02  0.7561462E-02  0.1125453E+00
         25   -1    0    0    0    0  0.00000000000E+00  0.00000000000E+00  0.99999998245E-14  0.12509000000E+03  0.12509000000E+03 0.  0.
        -13    1    3    3    0    0  0.13437206305E+02  0.27546974882E+02 -0.35464150683E+02  0.46873355824E+02  0.10566000000E+00 0.  1.
         23    2    1    0    0    0  0.51326771559E+01 -0.19976508529E+02 -0.16368336364E+02  0.98758883367E+02  0.95183976282E+02 0.  0.
         13    1    3    3    0    0 -0.83045291495E+01 -0.47523483411E+02  0.19095814320E+02  0.51885527544E+02  0.10566000000E+00 0. -1.
         22    1    1    0    0    0 -0.51326771559E+01  0.19976508529E+02  0.16368336364E+02  0.26331116633E+02  0.00000000000E+00 0.  1.
</event>
<event>
 5    1  0.1250806E-009  0.9118800E+02  0.7561462E-02  0.1125453E+00
         25   -1    0    0    0    0  0.00000000000E+00  0.00000000000E+00  0.99999998245E-14  0.12509000000E+03  0.12509000000E+03 0.  0.
        -13    1    3    3    0    0  0.16564014630E+02 -0.40110340492E+02 -0.44317203653E+02  0.62026056611E+02  0.10566000000E+00 0. -1.
         23    2    1    0    0    0  0.53474723949E+01 -0.22629221489E+02 -0.17283144044E+02  0.96117872114E+02  0.91647483028E+02 0.  0.
         13    1    3    3    0    0 -0.11216542235E+02  0.17481119003E+02  0.27034059609E+02  0.34091815503E+02  0.10566000000E+00 0.  1.
         22    1    1    0    0    0 -0.53474723949E+01  0.22629221489E+02  0.17283144044E+02  0.28972127886E+02  0.00000000000E+00 0. -1.
</event>
<event>
 5    1  0.1250806E-009  0.9118800E+02  0.7561462E-02  0.1125453E+00
         25   -1    0    0    0    0  0.00000000000E+00  0.00000000000E+00  0.99999998245E-14  0.12509000000E+03  0.12509000000E+03 0.  0.
        -13    1    3    3    0    0 -0.89480275652E+01 -0.25761361375E+02  0.32170538461E+02  0.42174277067E+02  0.10566000000E+00 0.  1.
         23    2    1    0    0    0  0.27053437519E+02 -0.14367684750E+02 -0.36730053001E+01  0.94238584885E+02  0.89045499979E+02 0.  0.
         13    1    3    3    0    0  0.36001465084E+02  0.11393676625E+02 -0.35843543761E+02  0.52064307818E+02  0.10566000000E+00 0. -1.
         22    1    1    0    0    0 -0.27053437519E+02  0.14367684750E+02  0.36730053001E+01  0.30851415115E+02  0.00000000000E+00 0. -1.
</event>
<event>
 5    1  0.1250806E-009  0.9118800E+02  0.7561462E-02  0.1125453E+00
         25   -1    0    0    0    0  0.00000000000E+00  0.00000000000E+00  0.99999998245E-14  0.12509000000E+03  0.12509000000E+03 0.  0.
        -13    1    3    3    0    0 -0.46800258148E+02 -0.46654083754E+01  0.10677287503E+02  0.48229097342E+02  0.10566000000E+00 0. -1.
         23    2    1    0    0    0 -0.28632096703E+01 -0.26112297512E+02  0.95651770058E+01  0.97133915472E+02  0.93023947846E+02 0.  0.
         13    1    3    3    0    0  0.43937048477E+02 -0.21446889137E+02 -0.11121104973E+01  0.48904818130E+02  0.10566000000E+00 0.  1.
         22    1    1    0    0    0  0.28632096703E+01  0.26112297512E+02 -0.95651770058E+01  0.27956084528E+02  0.00000000000E+00 0.  1.
</event>
<event>
 5    1  0.1250806E-009  0.9118800E+02  0.7561462E-02  0.1125453E+00
         25   -1    0    0    0    0  0.00000000000E+00  0.00000000000E+00  0.99999998245E-14  0.12509000000E+03  0.12509000000E+03 0.  0.
        -13    1    3    3    0    0  0.75826773499E+01  0.45067238942E+02 -0.47139126785E+01  0.45943281973E+02  0.10566000000E+00 0. -1.
         23    2    1    0    0    0 -0.24292915839E+02  0.75344359498E+01 -0.14005681549E+02  0.96054287495E+02  0.91560655008E+02 0.  0.
         13    1    3    3    0    0 -0.31875593189E+02 -0.37532802993E+02 -0.92917688709E+01  0.50111005522E+02  0.10566000000E+00 0.  1.
         22    1    1    0    0    0  0.24292915839E+02 -0.75344359498E+01  0.14005681549E+02  0.29035712505E+02  0.00000000000E+00 0. -1.
</event>
<event>
 5    1  0.1250806E-009  0.9118800E+02  0.7561462E-02  0.1125453E+00
         25   -1    0    0    0    0  0.00000000000E+00  0.00000000000E+00  0.99999998245E-14  0.12509000000E+03  0.12509000000E+03 0.  0.
        -13    1    3    3    0    0  0.24665434940E+01  0.35060231965E+02 -0.64209468468E+01  0.35728747875E+02  0.10566000000E+00 0.  1.
         23    2    1    0    0    0  0.17313961123E+02 -0.21597493098E+02  0.84317001195E+01  0.96153543327E+02  0.91696157878E+02 0.  0.
         13    1    3    3    0    0  0.14847417629E+02 -0.56657725063E+02  0.14852646966E+02  0.60424795452E+02  0.10566000000E+00 0. -1.
         22    1    1    0    0    0 -0.17313961123E+02  0.21597493098E+02 -0.84317001195E+01  0.28936456673E+02  0.00000000000E+00 0. -1.
</event>
<event>
 5    1  0.1250806E-009  0.9118800E+02  0.7561462E-02  0.1125453E+00
         25   -1    0    0    0    0  0.00000000000E+00  0.00000000000E+00  0.99999998245E-14  0.12509000000E+03  0.12509000000E+03 0.  0.
        -13    1    3    3    0    0  0.32618333994E+02  0.13124476693E+02 -0.47947317003E+01  0.35485323968E+02  0.10566000000E+00 0.  1.
         23    2    1    0    0    0 -0.13147702800E+02 -0.25390820374E+02  0.48946619461E+01  0.96081146804E+02  0.91597342797E+02 0.  0.
         13    1    3    3    0    0 -0.45766036794E+02 -0.38515297066E+02  0.96893936464E+01  0.60595822836E+02  0.10566000000E+00 0. -1.
         22    1    1    0    0    0  0.13147702800E+02  0.25390820374E+02 -0.48946619461E+01  0.29008853196E+02  0.00000000000E+00 0. -1.
</event>
<event>
 5    1  0.1250806E-009  0.9118800E+02  0.7561462E-02  0.1125453E+00
         25   -1    0    0    0    0  0.00000000000E+00  0.00000000000E+00  0.99999998245E-14  0.12509000000E+03  0.12509000000E+03 0.  0.
        -13    1    3    3    0    0 -0.16868931608E+00 -0.37988373137E+02 -0.47885372169E+02  0.61124176734E+02  0.10566000000E+00 0. -1.
         23    2    1    0    0    0 -0.30371017523E+01 -0.19090864660E+02 -0.10551069980E+02  0.10306705337E+03  0.10068667892E+03 0.  0.
         13    1    3    3    0    0 -0.28684124363E+01  0.18897508477E+02  0.37334302189E+02  0.41942876636E+02  0.10566000000E+00 0.  1.
         22    1    1    0    0    0  0.30371017523E+01  0.19090864660E+02  0.10551069980E+02  0.22022946630E+02  0.00000000000E+00 0. -1.
</event>
<event>
 5    1  0.1250806E-009  0.9118800E+02  0.7561462E-02  0.1125453E+00
         25   -1    0    0    0    0  0.00000000000E+00  0.00000000000E+00  0.99999998245E-14  0.12509000000E+03  0.12509000000E+03 0.  0.
        -13    1    3    3    0    0  0.52947856364E+01 -0.62522972557E+01  0.43055752008E+02  0.43828471579E+02  0.10566000000E+00 0. -1.
         23    2    1    0    0    0  0.12150989072E+02  0.25877065352E+02  0.19697590278E+01  0.96434302533E+02  0.92078367209E+02 0.  0.
         13    1    3    3    0    0  0.68562034353E+01  0.32129362608E+02 -0.41085992981E+02  0.52605830954E+02  0.10566000000E+00 0.  1.
         22    1    1    0    0    0 -0.12150989072E+02 -0.25877065352E+02 -0.19697590278E+01  0.28655697467E+02  0.00000000000E+00 0.  1.
</event>
<event>
 5    1  0.1250806E-009  0.9118800E+02  0.7561462E-02  0.1125453E+00
         25   -1    0    0    0    0  0.00000000000E+00  0.00000000000E+00  0.99999998245E-14  0.12509000000E+03  0.12509000000E+03 0.  0.
        -13    1    3    3    0    0  0.53346802764E+01  0.19338091236E+01  0.38277704008E+02  0.38696152516E+02  0.10566000000E+00 0.  1.
         23    2    1    0    0    0  0.12182639420E+02 -0.88521096216E+01 -0.20951659937E+02  0.99287895394E+02  0.95876678966E+02 0.  0.
         13    1    3    3    0    0  0.68479591438E+01 -0.10785918745E+02 -0.59229363945E+02  0.60591742878E+02  0.10566000000E+00 0. -1.
         22    1    1    0    0    0 -0.12182639420E+02  0.88521096216E+01  0.20951659937E+02  0.25802104606E+02  0.00000000000E+00 0. -1.
</event>
<event>
 5    1  0.1250806E-009  0.9118800E+02  0.7561462E-02  0.1125453E+00
         25   -1    0    0    0    0  0.00000000000E+00  0.00000000000E+00  0.99999998245E-14  0.12509000000E+03  0.12509000000E+03 0.  0.
        -13    1    3    3    0    0  0.27613848965E+02  0.25651581109E+02  0.33576287866E+02  0.50476792083E+02  0.10566000000E+00 0.  1.
         23    2    1    0    0    0  0.20880502743E+02 -0.14817789742E+02  0.12638338278E+02  0.96536718542E+02  0.92217396107E+02 0.  0.
         13    1    3    3    0    0 -0.67333462223E+01 -0.40469370851E+02 -0.20937949588E+02  0.46059926459E+02  0.10566000000E+00 0. -1.
         22    1    1    0    0    0 -0.20880502743E+02  0.14817789742E+02 -0.12638338278E+02  0.28553281458E+02  0.00000000000E+00 0.  1.
</event>
<event>
 5    1  0.1250806E-009  0.9118800E+02  0.7561462E-02  0.1125453E+00
         25   -1    0    0    0    0  0.00000000000E+00  0.00000000000E+00  0.99999998245E-14  0.12509000000E+03  0.12509000000E+03 0.  0.
        -13    1    3    3    0    0 -0.91328293038E+01 -0.53295967588E+02 -0.28146555509E+01  0.54146118810E+02  0.10566000000E+00 0. -1.
         23    2    1    0    0    0  0.15115188600E+02 -0.20590179689E+02 -0.13444599072E+02  0.96225113542E+02  0.91793740560E+02 0.  0.
         13    1    3    3    0    0  0.24248017903E+02  0.32705787899E+02 -0.10629943521E+02  0.42078994732E+02  0.10566000000E+00 0.  1.
         22    1    1    0    0    0 -0.15115188600E+02  0.20590179689E+02  0.13444599072E+02  0.28864886458E+02  0.00000000000E+00 0. -1.
</event>
<event>
 5    1  0.1250806E-009  0.9118800E+02  0.7561462E-02  0.1125453E+00
         25   -1    0    0    0    0  0.00000000000E+00  0.00000000000E+00  0.99999998245E-14  0.12509000000E+03  0.12509000000E+03 0.  0.
        -13    1    3    3    0    0  0.10958669647E+02  0.41591258895E+01  0.15207838643E+02  0.19201049160E+02  0.10566000000E+00 0.  1.
         23    2    1    0    0    0  0.55462249748E+01 -0.40135857277E+02 -0.23479810657E+02  0.78261064935E+02  0.62704426682E+02 0.  0.
         13    1    3    3    0    0 -0.54124446720E+01 -0.44294983166E+02 -0.38687649300E+02  0.59060015776E+02  0.10566000000E+00 0. -1.
         22    1    1    0    0    0 -0.55462249748E+01  0.40135857277E+02  0.23479810657E+02  0.46828935065E+02  0.00000000000E+00 0. -1.
</event>
<event>
 5    1  0.1250806E-009  0.9118800E+02  0.7561462E-02  0.1125453E+00
         25   -1    0    0    0    0  0.00000000000E+00  0.00000000000E+00  0.99999998245E-14  0.12509000000E+03  0.12509000000E+03 0.  0.
        -13    1    3    3    0    0  0.47948358587E+02  0.63519901873E+01 -0.22465155487E+02  0.53329984489E+02  0.10566000000E+00 0.  1.
         23    2    1    0    0    0  0.11681603331E+02  0.24678646323E+02 -0.11833357908E+02  0.95332248067E+02  0.90568834161E+02 0.  0.
         13    1    3    3    0    0 -0.36266755255E+02  0.18326656136E+02  0.10631797579E+02  0.42002263578E+02  0.10566000000E+00 0. -1.
         22    1    1    0    0    0 -0.11681603331E+02 -0.24678646323E+02  0.11833357908E+02  0.29757751933E+02  0.00000000000E+00 0.  1.
</event>
<event>
 5    1  0.1250806E-009  0.9118800E+02  0.7561462E-02  0.1125453E+00
         25   -1    0    0    0    0  0.00000000000E+00  0.00000000000E+00  0.99999998245E-14  0.12509000000E+03  0.12509000000E+03 0.  0.
        -13    1    3    3    0    0  0.50839888331E+01  0.54632897034E+02  0.10104611799E+02  0.55791708384E+02  0.10566000000E+00 0. -1.
         23    2    1    0    0    0 -0.52614921358E+01  0.18488632580E+02  0.22610154759E+02  0.95412871898E+02  0.90680120155E+02 0.  0.
         13    1    3    3    0    0 -0.10345480969E+02 -0.36144264454E+02  0.12505542960E+02  0.39621163514E+02  0.10566000000E+00 0.  1.
         22    1    1    0    0    0  0.52614921358E+01 -0.18488632580E+02 -0.22610154759E+02  0.29677128102E+02  0.00000000000E+00 0. -1.
</event>
<event>
 5    1  0.1250806E-009  0.9118800E+02  0.7561462E-02  0.1125453E+00
         25   -1    0    0    0    0  0.00000000000E+00  0.00000000000E+00  0.99999998245E-14  0.12509000000E+03  0.12509000000E+03 0.  0.
        -13    1    3    3    0    0  0.73868998232E+01  0.37078252655E+02 -0.24018004682E+02  0.44791057388E+02  0.10566000000E+00 0.  1.
         23    2    1    0    0    0  0.29764919722E+02  0.52859544105E+01  0.64417261931E+01  0.94180655193E+02  0.88964083855E+02 0.  0.
         13    1    3    3    0    0  0.22378019899E+02 -0.31792298245E+02  0.30459730876E+02  0.49389597805E+02  0.10566000000E+00 0. -1.
         22    1    1    0    0    0 -0.29764919722E+02 -0.52859544105E+01 -0.64417261931E+01  0.30909344807E+02  0.00000000000E+00 0.  1.
</event>
<event>
 5    1  0.1250806E-009  0.9118800E+02  0.7561462E-02  0.1125453E+00
         25   -1    0    0    0    0  0.00000000000E+00  0.00000000000E+00  0.99999998245E-14  0.12509000000E+03  0.12509000000E+03 0.  0.
        -13    1    3    3    0    0  0.15708751239E+02  0.11020874146E+02  0.43414120017E+02  0.47466003764E+02  0.10566000000E+00 0.  1.
         23    2    1    0    0    0 -0.15222749911E+02 -0.16664770952E+02  0.18707419382E+02  0.95774232133E+02  0.91177241102E+02 0.  0.
         13    1    3    3    0    0 -0.30931501150E+02 -0.27685645098E+02 -0.24706700635E+02  0.48308228369E+02  0.10566000000E+00 0. -1.
         22    1    1    0    0    0  0.15222749911E+02  0.16664770952E+02 -0.18707419382E+02  0.29315767867E+02  0.00000000000E+00 0.  1.
</event>
<event>
 5    1  0.1250806E-009  0.9118800E+02  0.7561462E-02  0.1125453E+00
         25   -1    0    0    0    0  0.00000000000E+00  0.00000000000E+00  0.99999998245E-14  0.12509000000E+03  0.12509000000E+03 0.  0.
        -13    1    3    3    0    0  0.30573614196E+02  0.22215770351E+02  0.96720476645E+01  0.39010844740E+02  0.10566000000E+00 0.  1.
         23    2    1    0    0    0 -0.15742425639E+02  0.10031176040E+02 -0.21854798246E+02  0.96348380976E+02  0.91961567259E+02 0.  0.
         13    1    3    3    0    0 -0.46316039835E+02 -0.12184594311E+02 -0.31526845910E+02  0.57337536236E+02  0.10566000000E+00 0. -1.
         22    1    1    0    0    0  0.15742425639E+02 -0.10031176040E+02  0.21854798246E+02  0.28741619024E+02  0.00000000000E+00 0. -1.
</event>
<event>
 5    1  0.1250806E-009  0.9118800E+02  0.7561462E-02  0.1125453E+00
         25   -1    0    0    0    0  0.00000000000E+00  0.00000000000E+00  0.99999998245E-14  0.12509000000E+03  0.12509000000E+03 0.  0.
        -13    1    3    3    0    0  0.52466888642E+01 -0.41345168056E+01  0.58811025769E+02  0.59189271742E+02  0.10566000000E+00 0. -1.
         23    2    1    0    0    0 -0.52386984309E+01 -0.14108142467E+02  0.26027497521E+02  0.95024832907E+02  0.90143244875E+02 0.  0.
         13    1    3    3    0    0 -0.10485387295E+02 -0.99736256618E+01 -0.32783528248E+02  0.35835561165E+02  0.10566000000E+00 0.  1.
         22    1    1    0    0    0  0.52386984309E+01  0.14108142467E+02 -0.26027497521E+02  0.30065167093E+02  0.00000000000E+00 0. -1.
</event>
<event>
 5    1  0.1250806E-009  0.9118800E+02  0.7561462E-02  0.1125453E+00
         25   -1    0    0    0    0  0.00000000000E+00  0.00000000000E+00  0.99999998245E-14  0.12509000000E+03  0.12509000000E+03 0.  0.
        -13    1    3    3    0    0  0.12133725966E+02 -0.30666872601E+02 -0.13315528375E+02  0.35566822193E+02  0.10566000000E+00 0.  1.
         23    2    1    0    0    0 -0.93671141049E+01  0.10357322199E+02  0.25512192332E+02  0.96005830640E+02  0.91494429391E+02 0.  0.
         13    1    3    3    0    0 -0.21500840071E+02  0.41024194800E+02  0.38827720707E+02  0.60439008447E+02  0.10566000000E+00 0. -1.
         22    1    1    0    0    0  0.93671141049E+01 -0.10357322199E+02 -0.25512192332E+02  0.29084169360E+02  0.00000000000E+00 0. -1.
</event>
<event>
 5    1  0.1250806E-009  0.9118800E+02  0.7561462E-02  0.1125453E+00
         25   -1    0    0    0    0  0.00000000000E+00  0.00000000000E+00  0.99999998245E-14  0.12509000000E+03  0.12509000000E+03 0.  0.
        -13    1    3    3    0    0  0.22419140907E+01  0.43192802468E+02 -0.43708324525E+02  0.61490431456E+02  0.10566000000E+00 0.  1.
         23    2    1    0    0    0  0.86834758912E+01  0.17676957211E+02 -0.21580704423E+02  0.95873491427E+02  0.91313317677E+02 0.  0.
         13    1    3    3    0    0  0.64415618005E+01 -0.25515845256E+02  0.22127620102E+02  0.34383059971E+02  0.10566000000E+00 0. -1.
         22    1    1    0    0    0 -0.86834758912E+01 -0.17676957211E+02  0.21580704423E+02  0.29216508573E+02  0.00000000000E+00 0.  1.
</event>
<event>
 5    1  0.1250806E-009  0.9118800E+02  0.7561462E-02  0.1125453E+00
         25   -1    0    0    0    0  0.00000000000E+00  0.00000000000E+00  0.99999998245E-14  0.12509000000E+03  0.12509000000E+03 0.  0.
        -13    1    3    3    0    0  0.11083078524E+02  0.23434747470E+02 -0.40960013181E+02  0.48474280422E+02  0.10566000000E+00 0. -1.
         23    2    1    0    0    0  0.26060981423E+02 -0.88907311149E+01 -0.96258234077E+01  0.95920215483E+02  0.91377302485E+02 0.  0.
         13    1    3    3    0    0  0.14977902900E+02 -0.32325478585E+02  0.31334189774E+02  0.47445935061E+02  0.10566000000E+00 0.  1.
         22    1    1    0    0    0 -0.26060981423E+02  0.88907311149E+01  0.96258234077E+01  0.29169784517E+02  0.00000000000E+00 0. -1.
</event>
<event>
 5    1  0.1250806E-009  0.9118800E+02  0.7561462E-02  0.1125453E+00
         25   -1    0    0    0    0  0.00000000000E+00  0.00000000000E+00  0.99999998245E-14  0.12509000000E+03  0.12509000000E+03 0.  0.
        -13    1    3    3    0    0  0.26611331646E+02  0.41949715910E+02 -0.94778942679E+01  0.50574531937E+02  0.10566000000E+00 0.  1.
         23    2    1    0    0    0  0.29141102475E+02 -0.21940545654E+01  0.32554146858E+00  0.95864605116E+02  0.91301143519E+02 0.  0.
         13    1    3    3    0    0  0.25297708287E+01 -0.44143770475E+02  0.98034357365E+01  0.45290073178E+02  0.10566000000E+00 0. -1.
         22    1    1    0    0    0 -0.29141102475E+02  0.21940545654E+01 -0.32554146858E+00  0.29225394884E+02  0.00000000000E+00 0.  1.
</event>
<event>
 5    1  0.1250806E-009  0.9118800E+02  0.7561462E-02  0.1125453E+00
         25   -1    0    0    0    0  0.00000000000E+00  0.00000000000E+00  0.99999998245E-14  0.12509000000E+03  0.12509000000E+03 0.  0.
        -13    1    3    3    0    0 -0.24673494477E+02 -0.47986752434E+02 -0.44696106943E+01  0.54143312816E+02  0.10566000000E+00 0.  1.
         23    2    1    0    0    0 -0.18317946088E+02 -0.98085937721E+01 -0.20375705538E+02  0.95988023489E+02  0.91470080444E+02 0.  0.
         13    1    3    3    0    0  0.63555483891E+01  0.38178158662E+02 -0.15906094844E+02  0.41844710673E+02  0.10566000000E+00 0. -1.
         22    1    1    0    0    0  0.18317946088E+02  0.98085937721E+01  0.20375705538E+02  0.29101976511E+02  0.00000000000E+00 0.  1.
</event>
<event>
 5    1  0.1250806E-009  0.9118800E+02  0.7561462E-02  0.1125453E+00
         25   -1    0    0    0    0  0.00000000000E+00  0.00000000000E+00  0.99999998245E-14  0.12509000000E+03  0.12509000000E+03 0.  0.
        -13    1    3    3    0    0 -0.19999856577E+02  0.13834768131E+01 -0.32136546333E+02  0.37877130903E+02  0.10566000000E+00 0. -1.
         23    2    1    0    0    0 -0.10454128685E+02  0.81516039751E+01  0.25318038731E+02  0.96511327198E+02  0.92182947113E+02 0.  0.
         13    1    3    3    0    0  0.95457278919E+01  0.67681271619E+01  0.57454585064E+02  0.58634196295E+02  0.10566000000E+00 0.  1.
         22    1    1    0    0    0  0.10454128685E+02 -0.81516039751E+01 -0.25318038731E+02  0.28578672802E+02  0.00000000000E+00 0.  1.
</event>
<event>
 5    1  0.1250806E-009  0.9118800E+02  0.7561462E-02  0.1125453E+00
         25   -1    0    0    0    0  0.00000000000E+00  0.00000000000E+00  0.99999998245E-14  0.12509000000E+03  0.12509000000E+03 0.  0.
        -13    1    3    3    0    0 -0.10260359776E+02 -0.14663184642E+02  0.37972547952E+02  0.41978679453E+02  0.10566000000E+00 0.  1.
         23    2    1    0    0    0 -0.22562018767E+02  0.19055549214E+02 -0.17381461786E+01  0.95506562086E+02  0.90809270466E+02 0.  0.
         13    1    3    3    0    0 -0.12301658991E+02  0.33718733856E+02 -0.39710694131E+02  0.53527882633E+02  0.10566000000E+00 0. -1.
         22    1    1    0    0    0  0.22562018767E+02 -0.19055549214E+02  0.17381461786E+01  0.29583437914E+02  0.00000000000E+00 0.  1.
</event>
<event>
 5    1  0.1250806E-009  0.9118800E+02  0.7561462E-02  0.1125453E+00
         25   -1    0    0    0    0  0.00000000000E+00  0.00000000000E+00  0.99999998245E-14  0.12509000000E+03  0.12509000000E+03 0.  0.
        -13    1    3    3    0    0  0.38185391928E+02 -0.72695157635E+01  0.25852995406E+02  0.46683600457E+02  0.10566000000E+00 0. -1.
         23    2    1    0    0    0  0.21511952185E+02  0.76178554331E+01 -0.18079242886E+02  0.95975487613E+02  0.91452935388E+02 0.  0.
         13    1    3    3    0    0 -0.16673439743E+02  0.14887371197E+02 -0.43932238292E+02  0.49291887156E+02  0.10566000000E+00 0.  1.
         22    1    1    0    0    0 -0.21511952185E+02 -0.76178554331E+01  0.18079242886E+02  0.29114512387E+02  0.00000000000E+00 0. -1.
</event>
<event>
 5    1  0.1250806E-009  0.9118800E+02  0.7561462E-02  0.1125453E+00
         25   -1    0    0    0    0  0.00000000000E+00  0.00000000000E+00  0.99999998245E-14  0.12509000000E+03  0.12509000000E+03 0.  0.
        -13    1    3    3    0    0  0.41176594150E+02  0.21225093390E+02  0.86749431719E+01  0.47130481625E+02  0.10566000000E+00 0. -1.
         23    2    1    0    0    0 -0.38092350802E+00  0.59622672123E+01  0.28738949357E+02  0.95736619561E+02  0.91125624178E+02 0.  0.
         13    1    3    3    0    0 -0.41557517658E+02 -0.15262826178E+02  0.20064006185E+02  0.48606137936E+02  0.10566000000E+00 0.  1.
         22    1    1    0    0    0  0.38092350802E+00 -0.59622672123E+01 -0.28738949357E+02  0.29353380439E+02  0.00000000000E+00 0.  1.
</event>
<event>
 5    1  0.1250806E-009  0.9118800E+02  0.7561462E-02  0.1125453E+00
         25   -1    0    0    0    0  0.00000000000E+00  0.00000000000E+00  0.99999998245E-14  0.12509000000E+03  0.12509000000E+03 0.  0.
        -13    1    3    3    0    0 -0.92345409688E+01 -0.17580405853E+02  0.29742171133E+02  0.35762484878E+02  0.10566000000E+00 0.  1.
         23    2    1    0    0    0  0.17259130561E+02 -0.88001462446E+01 -0.22747056078E+02  0.95211099052E+02  0.90401353202E+02 0.  0.
         13    1    3    3    0    0  0.26493671530E+02  0.87802596086E+01 -0.52489227211E+02  0.59448614174E+02  0.10566000000E+00 0. -1.
         22    1    1    0    0    0 -0.17259130561E+02  0.88001462446E+01  0.22747056078E+02  0.29878900948E+02  0.00000000000E+00 0. -1.
</event>
<event>
 5    1  0.1250806E-009  0.9118800E+02  0.7561462E-02  0.1125453E+00
         25   -1    0    0    0    0  0.00000000000E+00  0.00000000000E+00  0.99999998245E-14  0.12509000000E+03  0.12509000000E+03 0.  0.
        -13    1    3    3    0    0  0.36097910591E+02 -0.29316166433E+01 -0.29990716516E+02  0.47022417700E+02  0.10566000000E+00 0.  1.
         23    2    1    0    0    0  0.25725616655E+02  0.99300300024E+01  0.14108000928E+02  0.94115033684E+02  0.88871767322E+02 0.  0.
         13    1    3    3    0    0 -0.10372293936E+02  0.12861646646E+02  0.44098717444E+02  0.47092615984E+02  0.10566000000E+00 0. -1.
         22    1    1    0    0    0 -0.25725616655E+02 -0.99300300024E+01 -0.14108000928E+02  0.30974966316E+02  0.00000000000E+00 0.  1.
</event>
<event>
 5    1  0.1250806E-009  0.9118800E+02  0.7561462E-02  0.1125453E+00
         25   -1    0    0    0    0  0.00000000000E+00  0.00000000000E+00  0.99999998245E-14  0.12509000000E+03  0.12509000000E+03 0.  0.
        -13    1    3    3    0    0  0.26612342116E+02 -0.11160090127E+02 -0.55187483522E+02  0.62277073358E+02  0.10566000000E+00 0.  1.
         23    2    1    0    0    0  0.11245355026E+02 -0.21868829826E+01 -0.28707901722E+02  0.94180711944E+02  0.88964163652E+02 0.  0.
         13    1    3    3    0    0 -0.15366987090E+02  0.89732071444E+01  0.26479581801E+02  0.31903638586E+02  0.10566000000E+00 0. -1.
         22    1    1    0    0    0 -0.11245355026E+02  0.21868829826E+01  0.28707901722E+02  0.30909288056E+02  0.00000000000E+00 0.  1.
</event>
<event>
 5    1  0.1250806E-009  0.9118800E+02  0.7561462E-02  0.1125453E+00
         25   -1    0    0    0    0  0.00000000000E+00  0.00000000000E+00  0.99999998245E-14  0.12509000000E+03  0.12509000000E+03 0.  0.
        -13    1    3    3    0    0 -0.28420765085E+02 -0.12542772432E+02 -0.37768304321E+02  0.48903138995E+02  0.10566000000E+00 0. -1.
         23    2    1    0    0    0 -0.96238880426E+01 -0.27942289489E+02  0.19580336509E+01  0.95472021360E+02  0.90761678058E+02 0.  0.
         13    1    3    3    0    0  0.18796877042E+02 -0.15399517057E+02  0.39726337971E+02  0.46568882365E+02  0.10566000000E+00 0.  1.
         22    1    1    0    0    0  0.96238880426E+01  0.27942289489E+02 -0.19580336509E+01  0.29617978640E+02  0.00000000000E+00 0.  1.
</event>
<event>
 5    1  0.1250806E-009  0.9118800E+02  0.7561462E-02  0.1125453E+00
         25   -1    0    0    0    0  0.00000000000E+00  0.00000000000E+00  0.99999998245E-14  0.12509000000E+03  0.12509000000E+03 0.  0.
        -13    1    3    3    0    0 -0.21606204994E+02  0.28763067936E+02 -0.89952404370E+01  0.37081905100E+02  0.10566000000E+00 0. -1.
         23    2    1    0    0    0  0.30140029530E+02  0.51669073501E+01 -0.51046721711E+01  0.94087161588E+02  0.88832527748E+02 0.  0.
         13    1    3    3    0    0  0.51746234524E+02 -0.23596160586E+02  0.38905682659E+01  0.57005256488E+02  0.10566000000E+00 0.  1.
         22    1    1    0    0    0 -0.30140029530E+02 -0.51669073501E+01  0.51046721711E+01  0.31002838412E+02  0.00000000000E+00 0.  1.
</event>
<event>
 5    1  0.1250806E-009  0.9118800E+02  0.7561462E-02  0.1125453E+00
         25   -1    0    0    0    0  0.00000000000E+00  0.00000000000E+00  0.99999998245E-14  0.12509000000E+03  0.12509000000E+03 0.  0.
        -13    1    3    3    0    0 -0.11220109649E+02 -0.20714710133E+02 -0.30259114721E+02  0.38348601854E+02  0.10566000000E+00 0. -1.
         23    2    1    0    0    0  0.24082739406E+02  0.17109434490E+02 -0.10303174329E+02  0.93803157923E+02  0.88431702173E+02 0.  0.
         13    1    3    3    0    0  0.35302849056E+02  0.37824144622E+02  0.19955940392E+02  0.55454556069E+02  0.10566000000E+00 0.  1.
         22    1    1    0    0    0 -0.24082739406E+02 -0.17109434490E+02  0.10303174329E+02  0.31286842077E+02  0.00000000000E+00 0.  1.
</event>
<event>
 5    1  0.1250806E-009  0.9118800E+02  0.7561462E-02  0.1125453E+00
         25   -1    0    0    0    0  0.00000000000E+00  0.00000000000E+00  0.99999998245E-14  0.12509000000E+03  0.12509000000E+03 0.  0.
        -13    1    3    3    0    0 -0.17206739187E+02 -0.10923201362E+02  0.31708283898E+02  0.37693694874E+02  0.10566000000E+00 0. -1.
         23    2    1    0    0    0  0.22090477401E+02  0.18643052730E+02  0.43243387375E-01  0.96184040806E+02  0.91737752474E+02 0.  0.
         13    1    3    3    0    0  0.39297216588E+02  0.29566254092E+02 -0.31665040511E+02  0.58490345932E+02  0.10566000000E+00 0.  1.
         22    1    1    0    0    0 -0.22090477401E+02 -0.18643052730E+02 -0.43243387375E-01  0.28905959194E+02  0.00000000000E+00 0.  1.
</event>
<event>
 5    1  0.1250806E-009  0.9118800E+02  0.7561462E-02  0.1125453E+00
         25   -1    0    0    0    0  0.00000000000E+00  0.00000000000E+00  0.99999998245E-14  0.12509000000E+03  0.12509000000E+03 0.  0.
        -13    1    3    3    0    0 -0.19791836083E+02 -0.18931295524E+02 -0.19932719965E+02  0.33873813116E+02  0.10566000000E+00 0.  1.
         23    2    1    0    0    0  0.24798342832E+02  0.16120674059E+02  0.36279148107E+01  0.95290743211E+02  0.90511491185E+02 0.  0.
         13    1    3    3    0    0  0.44590178914E+02  0.35051969583E+02  0.23560634776E+02  0.61416930095E+02  0.10566000000E+00 0. -1.
         22    1    1    0    0    0 -0.24798342832E+02 -0.16120674059E+02 -0.36279148107E+01  0.29799256789E+02  0.00000000000E+00 0. -1.
</event>
<event>
 5    1  0.1250806E-009  0.9118800E+02  0.7561462E-02  0.1125453E+00
         25   -1    0    0    0    0  0.00000000000E+00  0.00000000000E+00  0.99999998245E-14  0.12509000000E+03  0.12509000000E+03 0.  0.
        -13    1    3    3    0    0  0.41621721498E+02 -0.33379475304E+01 -0.38455853296E+02  0.56765952920E+02  0.10566000000E+00 0. -1.
         23    2    1    0    0    0  0.27952083934E+02  0.71952061672E+01 -0.31607342300E+01  0.96054156135E+02  0.91560475545E+02 0.  0.
         13    1    3    3    0    0 -0.13669637564E+02  0.10533153698E+02  0.35295119066E+02  0.39288203215E+02  0.10566000000E+00 0.  1.
         22    1    1    0    0    0 -0.27952083934E+02 -0.71952061672E+01  0.31607342300E+01  0.29035843865E+02  0.00000000000E+00 0. -1.
</event>
<event>
 5    1  0.1250806E-009  0.9118800E+02  0.7561462E-02  0.1125453E+00
         25   -1    0    0    0    0  0.00000000000E+00  0.00000000000E+00  0.99999998245E-14  0.12509000000E+03  0.12509000000E+03 0.  0.
        -13    1    3    3    0    0 -0.44530647536E+01 -0.12066381249E+02  0.31763581278E+02  0.34268988923E+02  0.10566000000E+00 0. -1.
         23    2    1    0    0    0  0.14350639060E+02  0.94527284215E+01 -0.23200694509E+02  0.96218437144E+02  0.91784641987E+02 0.  0.
         13    1    3    3    0    0  0.18803703813E+02  0.21519109671E+02 -0.54964275787E+02  0.61949448221E+02  0.10566000000E+00 0.  1.
         22    1    1    0    0    0 -0.14350639060E+02 -0.94527284215E+01  0.23200694509E+02  0.28871562856E+02  0.00000000000E+00 0.  1.
</event>
<event>
 5    1  0.1250806E-009  0.9118800E+02  0.7561462E-02  0.1125453E+00
         25   -1    0    0    0    0  0.00000000000E+00  0.00000000000E+00  0.99999998245E-14  0.12509000000E+03  0.12509000000E+03 0.  0.
        -13    1    3    3    0    0 -0.29855367977E+02  0.23629457052E+02  0.39917258757E+02  0.55164236134E+02  0.10566000000E+00 0. -1.
         23    2    1    0    0    0 -0.17527702677E+02  0.25373628840E+02  0.30224823641E+01  0.94103280243E+02  0.88855222419E+02 0.  0.
         13    1    3    3    0    0  0.12327665300E+02  0.17441717888E+01 -0.36894776393E+02  0.38939044108E+02  0.10566000000E+00 0.  1.
         22    1    1    0    0    0  0.17527702677E+02 -0.25373628840E+02 -0.30224823641E+01  0.30986719757E+02  0.00000000000E+00 0. -1.
</event>
<event>
 5    1  0.1250806E-009  0.9118800E+02  0.7561462E-02  0.1125453E+00
         25   -1    0    0    0    0  0.00000000000E+00  0.00000000000E+00  0.99999998245E-14  0.12509000000E+03  0.12509000000E+03 0.  0.
        -13    1    3    3    0    0 -0.35940133154E+02  0.16115839453E+02  0.17794418920E+02  0.43221128643E+02  0.10566000000E+00 0.  1.
         23    2    1    0    0    0 -0.11187532015E+02 -0.27441862874E+02  0.39896104283E+01  0.95187931477E+02  0.90369290120E+02 0.  0.
         13    1    3    3    0    0  0.24752601140E+02 -0.43557702328E+02 -0.13804808492E+02  0.51966802834E+02  0.10566000000E+00 0. -1.
         22    1    1    0    0    0  0.11187532015E+02  0.27441862874E+02 -0.39896104283E+01  0.29902068523E+02  0.00000000000E+00 0. -1.
</event>
<event>
 5    1  0.1250806E-009  0.9118800E+02  0.7561462E-02  0.1125453E+00
         25   -1    0    0    0    0  0.00000000000E+00  0.00000000000E+00  0.99999998245E-14  0.12509000000E+03  0.12509000000E+03 0.  0.
        -13    1    3    3    0    0 -0.31490461055E+02 -0.58853485535E+01 -0.16393065143E+02  0.35986528227E+02  0.10566000000E+00 0. -1.
         23    2    1    0    0    0  0.10903518174E+02 -0.94930664054E+01  0.25551046816E+02  0.95732530563E+02  0.91120010954E+02 0.  0.
         13    1    3    3    0    0  0.42393979229E+02 -0.36077178519E+01  0.41944111959E+02  0.59746002335E+02  0.10566000000E+00 0.  1.
         22    1    1    0    0    0 -0.10903518174E+02  0.94930664054E+01 -0.25551046816E+02  0.29357469437E+02  0.00000000000E+00 0.  1.
</event>
<event>
 5    1  0.1250806E-009  0.9118800E+02  0.7561462E-02  0.1125453E+00
         25   -1    0    0    0    0  0.00000000000E+00  0.00000000000E+00  0.99999998245E-14  0.12509000000E+03  0.12509000000E+03 0.  0.
        -13    1    3    3    0    0  0.23730031195E+02 -0.51892292243E+02  0.16605013702E+02  0.59427788272E+02  0.10566000000E+00 0.  1.
         23    2    1    0    0    0 -0.13381550029E+01 -0.28638478305E+02  0.12308793987E+02  0.93889687376E+02  0.88554016779E+02 0.  0.
         13    1    3    3    0    0 -0.25068186198E+02  0.23253813939E+02 -0.42962197148E+01  0.34461899104E+02  0.10566000000E+00 0. -1.
         22    1    1    0    0    0  0.13381550029E+01  0.28638478305E+02 -0.12308793987E+02  0.31200312624E+02  0.00000000000E+00 0.  1.
</event>
<event>
 5    1  0.1250806E-009  0.9118800E+02  0.7561462E-02  0.1125453E+00
         25   -1    0    0    0    0  0.00000000000E+00  0.00000000000E+00  0.99999998245E-14  0.12509000000E+03  0.12509000000E+03 0.  0.
        -13    1    3    3    0    0  0.18401450970E+02  0.24460312542E+02 -0.46980253009E+02  0.56072057429E+02  0.10566000000E+00 0.  1.
         23    2    1    0    0    0 -0.12957396571E+01 -0.47195920001E+01 -0.29143146664E+02  0.95538748124E+02  0.90853595998E+02 0.  0.
         13    1    3    3    0    0 -0.19697190627E+02 -0.29179904543E+02  0.17837106344E+02  0.39466690696E+02  0.10566000000E+00 0. -1.
         22    1    1    0    0    0  0.12957396571E+01  0.47195920001E+01  0.29143146664E+02  0.29551251876E+02  0.00000000000E+00 0.  1.
</event>
<event>
 5    1  0.1250806E-009  0.9118800E+02  0.7561462E-02  0.1125453E+00
         25   -1    0    0    0    0  0.00000000000E+00  0.00000000000E+00  0.99999998245E-14  0.12509000000E+03  0.12509000000E+03 0.  0.
        -13    1    3    3    0    0  0.40204777068E+02 -0.47274786077E+01  0.26569500689E+02  0.48422336623E+02  0.10566000000E+00 0.  1.
         23    2    1    0    0    0  0.39625338314E+02  0.20721327246E+02  0.86703512034E+01  0.79540951389E+02  0.65207722845E+02 0.  0.
         13    1    3    3    0    0 -0.57943875449E+00  0.25448805854E+02 -0.17899149485E+02  0.31118614767E+02  0.10566000000E+00 0. -1.
         22    1    1    0    0    0 -0.39625338314E+02 -0.20721327246E+02 -0.86703512034E+01  0.45549048611E+02  0.00000000000E+00 0.  1.
</event>
<event>
 5    1  0.1250806E-009  0.9118800E+02  0.7561462E-02  0.1125453E+00
         25   -1    0    0    0    0  0.00000000000E+00  0.00000000000E+00  0.99999998245E-14  0.12509000000E+03  0.12509000000E+03 0.  0.
        -13    1    3    3    0    0 -0.52454522354E+02 -0.14777324854E+02 -0.30092071666E+02  0.62252631963E+02  0.10566000000E+00 0. -1.
         23    2    1    0    0    0 -0.25195866624E+02 -0.90302338216E+01 -0.10365997936E+02  0.96387548345E+02  0.92014828940E+02 0.  0.
         13    1    3    3    0    0  0.27258655729E+02  0.57470910319E+01  0.19726073730E+02  0.34134916381E+02  0.10566000000E+00 0.  1.
         22    1    1    0    0    0  0.25195866624E+02  0.90302338216E+01  0.10365997936E+02  0.28702451655E+02  0.00000000000E+00 0. -1.
</event>
<event>
 5    1  0.1250806E-009  0.9118800E+02  0.7561462E-02  0.1125453E+00
         25   -1    0    0    0    0  0.00000000000E+00  0.00000000000E+00  0.99999998245E-14  0.12509000000E+03  0.12509000000E+03 0.  0.
        -13    1    3    3    0    0  0.35600835635E+02  0.21658081829E+02  0.35865698033E+02  0.54980464402E+02  0.10566000000E+00 0. -1.
         23    2    1    0    0    0  0.19444429117E+02 -0.11589742167E+02  0.18659028461E+02  0.95754572778E+02  0.91150265593E+02 0.  0.
         13    1    3    3    0    0 -0.16156406518E+02 -0.33247823996E+02 -0.17206669572E+02  0.40774108376E+02  0.10566000000E+00 0.  1.
         22    1    1    0    0    0 -0.19444429117E+02  0.11589742167E+02 -0.18659028461E+02  0.29335427222E+02  0.00000000000E+00 0. -1.
</event>
<event>
 5    1  0.1250806E-009  0.9118800E+02  0.7561462E-02  0.1125453E+00
         25   -1    0    0    0    0  0.00000000000E+00  0.00000000000E+00  0.99999998245E-14  0.12509000000E+03  0.12509000000E+03 0.  0.
        -13    1    3    3    0    0 -0.11019775243E+02 -0.10407492752E+02  0.94094460920E+01  0.17840969469E+02  0.10566000000E+00 0.  1.
         23    2    1    0    0    0  0.32167253160E+02 -0.22386227140E+02 -0.28573766168E+02  0.76589119034E+02  0.59275270561E+02 0.  0.
         13    1    3    3    0    0  0.43187028403E+02 -0.11978734388E+02 -0.37983212260E+02  0.58748149566E+02  0.10566000000E+00 0. -1.
         22    1    1    0    0    0 -0.32167253160E+02  0.22386227140E+02  0.28573766168E+02  0.48500880966E+02  0.00000000000E+00 0. -1.
</event>
<event>
 5    1  0.1250806E-009  0.9118800E+02  0.7561462E-02  0.1125453E+00
         25   -1    0    0    0    0  0.00000000000E+00  0.00000000000E+00  0.99999998245E-14  0.12509000000E+03  0.12509000000E+03 0.  0.
        -13    1    3    3    0    0 -0.78371290205E+01 -0.52826594412E+02 -0.16239337153E+02  0.55819323748E+02  0.10566000000E+00 0.  1.
         23    2    1    0    0    0  0.99788710302E+01 -0.25492016247E+02  0.81177134374E+01  0.96536225629E+02  0.92216727484E+02 0.  0.
         13    1    3    3    0    0  0.17816000051E+02  0.27334578165E+02  0.24357050591E+02  0.40716901881E+02  0.10566000000E+00 0. -1.
         22    1    1    0    0    0 -0.99788710302E+01  0.25492016247E+02 -0.81177134374E+01  0.28553774371E+02  0.00000000000E+00 0.  1.
</event>
<event>
 5    1  0.1250806E-009  0.9118800E+02  0.7561462E-02  0.1125453E+00
         25   -1    0    0    0    0  0.00000000000E+00  0.00000000000E+00  0.99999998245E-14  0.12509000000E+03  0.12509000000E+03 0.  0.
        -13    1    3    3    0    0 -0.28641360070E+01 -0.36892462397E+02 -0.25980978364E+02  0.45213708735E+02  0.10566000000E+00 0. -1.
         23    2    1    0    0    0  0.15867375544E+02  0.10573798126E+02 -0.21369388844E+02  0.96450349286E+02  0.92100164410E+02 0.  0.
         13    1    3    3    0    0  0.18731511551E+02  0.47466260523E+02  0.46115895199E+01  0.51236640551E+02  0.10566000000E+00 0.  1.
         22    1    1    0    0    0 -0.15867375544E+02 -0.10573798126E+02  0.21369388844E+02  0.28639650714E+02  0.00000000000E+00 0.  1.
</event>
<event>
 5    1  0.1250806E-009  0.9118800E+02  0.7561462E-02  0.1125453E+00
         25   -1    0    0    0    0  0.00000000000E+00  0.00000000000E+00  0.99999998245E-14  0.12509000000E+03  0.12509000000E+03 0.  0.
        -13    1    3    3    0    0  0.25989001712E+02 -0.40308955292E-01 -0.20877656397E+02  0.33336429555E+02  0.10566000000E+00 0. -1.
         23    2    1    0    0    0 -0.10512870053E+02 -0.17164084772E+02  0.24067069010E+02  0.93715646563E+02  0.88307827270E+02 0.  0.
         13    1    3    3    0    0 -0.36501871765E+02 -0.17123775817E+02  0.44944725407E+02  0.60379217009E+02  0.10566000000E+00 0.  1.
         22    1    1    0    0    0  0.10512870053E+02  0.17164084772E+02 -0.24067069010E+02  0.31374353437E+02  0.00000000000E+00 0.  1.
</event>
<event>
 5    1  0.1250806E-009  0.9118800E+02  0.7561462E-02  0.1125453E+00
         25   -1    0    0    0    0  0.00000000000E+00  0.00000000000E+00  0.99999998245E-14  0.12509000000E+03  0.12509000000E+03 0.  0.
        -13    1    3    3    0    0 -0.48313944427E+01  0.50143101434E+02  0.67158064149E+01  0.50821119759E+02  0.10566000000E+00 0. -1.
         23    2    1    0    0    0  0.24740305686E+02  0.24104190702E+02  0.40278226974E+01  0.90314748879E+02  0.83351279382E+02 0.  0.
         13    1    3    3    0    0  0.29571700129E+02 -0.26038910732E+02 -0.26879837175E+01  0.39493629120E+02  0.10566000000E+00 0.  1.
         22    1    1    0    0    0 -0.24740305686E+02 -0.24104190702E+02 -0.40278226974E+01  0.34775251121E+02  0.00000000000E+00 0. -1.
</event>
<event>
 5    1  0.1250806E-009  0.9118800E+02  0.7561462E-02  0.1125453E+00
         25   -1    0    0    0    0  0.00000000000E+00  0.00000000000E+00  0.99999998245E-14  0.12509000000E+03  0.12509000000E+03 0.  0.
        -13    1    3    3    0    0  0.11972482509E+02 -0.54162692072E+02 -0.24970662271E+02  0.60831592847E+02  0.10566000000E+00 0.  1.
         23    2    1    0    0    0  0.32335062482E+01 -0.17630051170E+02 -0.19179332525E+02  0.98838884537E+02  0.95289055161E+02 0.  0.
         13    1    3    3    0    0 -0.87389762608E+01  0.36532640902E+02  0.57913297459E+01  0.38007291691E+02  0.10566000000E+00 0. -1.
         22    1    1    0    0    0 -0.32335062482E+01  0.17630051170E+02  0.19179332525E+02  0.26251115463E+02  0.00000000000E+00 0.  1.
</event>
<event>
 5    1  0.1250806E-009  0.9118800E+02  0.7561462E-02  0.1125453E+00
         25   -1    0    0    0    0  0.00000000000E+00  0.00000000000E+00  0.99999998245E-14  0.12509000000E+03  0.12509000000E+03 0.  0.
        -13    1    3    3    0    0  0.28922769435E+02  0.24763190482E+01 -0.51423078249E+02  0.59050850023E+02  0.10566000000E+00 0.  1.
         23    2    1    0    0    0  0.28221154281E+02  0.30870386840E+01 -0.20296712172E+02  0.90191291116E+02  0.83165792917E+02 0.  0.
         13    1    3    3    0    0 -0.70161515409E+00  0.61071963588E+00  0.31126366077E+02  0.31140441093E+02  0.10566000000E+00 0. -1.
         22    1    1    0    0    0 -0.28221154281E+02 -0.30870386840E+01  0.20296712172E+02  0.34898708884E+02  0.00000000000E+00 0.  1.
</event>
<event>
 5    1  0.1250806E-009  0.9118800E+02  0.7561462E-02  0.1125453E+00
         25   -1    0    0    0    0  0.00000000000E+00  0.00000000000E+00  0.99999998245E-14  0.12509000000E+03  0.12509000000E+03 0.  0.
        -13    1    3    3    0    0 -0.26273973747E+02 -0.22976458737E+01 -0.28249302140E+02  0.38647575712E+02  0.10566000000E+00 0.  1.
         23    2    1    0    0    0  0.20145911071E+02  0.20659721189E+02 -0.35712593555E+01  0.96013622889E+02  0.91505082233E+02 0.  0.
         13    1    3    3    0    0  0.46419884818E+02  0.22957367063E+02  0.24678042785E+02  0.57366047177E+02  0.10566000000E+00 0. -1.
         22    1    1    0    0    0 -0.20145911071E+02 -0.20659721189E+02  0.35712593555E+01  0.29076377111E+02  0.00000000000E+00 0. -1.
</event>
<event>
 5    1  0.1250806E-009  0.9118800E+02  0.7561462E-02  0.1125453E+00
         25   -1    0    0    0    0  0.00000000000E+00  0.00000000000E+00  0.99999998245E-14  0.12509000000E+03  0.12509000000E+03 0.  0.
        -13    1    3    3    0    0  0.91603979247E+01 -0.22204759314E+02 -0.33217174323E+02  0.40992146326E+02  0.10566000000E+00 0.  1.
         23    2    1    0    0    0 -0.19751810563E+02  0.17938656474E+02 -0.18554663584E+02  0.92590692971E+02  0.86699662442E+02 0.  0.
         13    1    3    3    0    0 -0.28912208488E+02  0.40143415788E+02  0.14662510739E+02  0.51598546646E+02  0.10566000000E+00 0. -1.
         22    1    1    0    0    0  0.19751810563E+02 -0.17938656474E+02  0.18554663584E+02  0.32499307029E+02  0.00000000000E+00 0.  1.
</event>
<event>
 5    1  0.1250806E-009  0.9118800E+02  0.7561462E-02  0.1125453E+00
         25   -1    0    0    0    0  0.00000000000E+00  0.00000000000E+00  0.99999998245E-14  0.12509000000E+03  0.12509000000E+03 0.  0.
        -13    1    3    3    0    0  0.28473247799E+02  0.37629919827E+02 -0.19741520033E+01  0.47229706188E+02  0.10566000000E+00 0. -1.
         23    2    1    0    0    0 -0.15402998416E+02  0.24152185089E+02  0.10142293274E+02  0.94701737173E+02  0.89693770720E+02 0.  0.
         13    1    3    3    0    0 -0.43876246216E+02 -0.13477734738E+02  0.12116445278E+02  0.47472030985E+02  0.10566000000E+00 0.  1.
         22    1    1    0    0    0  0.15402998416E+02 -0.24152185089E+02 -0.10142293274E+02  0.30388262827E+02  0.00000000000E+00 0. -1.
</event>
<event>
 5    1  0.1250806E-009  0.9118800E+02  0.7561462E-02  0.1125453E+00
         25   -1    0    0    0    0  0.00000000000E+00  0.00000000000E+00  0.99999998245E-14  0.12509000000E+03  0.12509000000E+03 0.  0.
        -13    1    3    3    0    0 -0.43117949260E+01 -0.16746017734E+02  0.51225964336E+02  0.54065989972E+02  0.10566000000E+00 0.  1.
         23    2    1    0    0    0  0.20127509345E+02 -0.10624217738E+01  0.21309454297E+02  0.95758477454E+02  0.91155624014E+02 0.  0.
         13    1    3    3    0    0  0.24439304271E+02  0.15683595961E+02 -0.29916510039E+02  0.41692487482E+02  0.10566000000E+00 0. -1.
         22    1    1    0    0    0 -0.20127509345E+02  0.10624217738E+01 -0.21309454297E+02  0.29331522546E+02  0.00000000000E+00 0. -1.
</event>
<event>
 5    1  0.1250806E-009  0.9118800E+02  0.7561462E-02  0.1125453E+00
         25   -1    0    0    0    0  0.00000000000E+00  0.00000000000E+00  0.99999998245E-14  0.12509000000E+03  0.12509000000E+03 0.  0.
        -13    1    3    3    0    0  0.28672768687E+02 -0.53692822069E+01 -0.51920313821E+02  0.59554067929E+02  0.10566000000E+00 0. -1.
         23    2    1    0    0    0  0.13325062448E+02 -0.15752956919E+02 -0.20676010700E+02  0.95880235205E+02  0.91322555503E+02 0.  0.
         13    1    3    3    0    0 -0.15347706240E+02 -0.10383674712E+02  0.31244303121E+02  0.36326167275E+02  0.10566000000E+00 0.  1.
         22    1    1    0    0    0 -0.13325062448E+02  0.15752956919E+02  0.20676010700E+02  0.29209764795E+02  0.00000000000E+00 0. -1.
</event>
<event>
 5    1  0.1250806E-009  0.9118800E+02  0.7561462E-02  0.1125453E+00
         25   -1    0    0    0    0  0.00000000000E+00  0.00000000000E+00  0.99999998245E-14  0.12509000000E+03  0.12509000000E+03 0.  0.
        -13    1    3    3    0    0 -0.87787593921E+01 -0.16477145266E+02  0.51809860236E+02  0.55071187696E+02  0.10566000000E+00 0. -1.
         23    2    1    0    0    0  0.14077645883E+02 -0.17940444004E+02  0.17404258283E+02  0.96402932337E+02  0.92035740406E+02 0.  0.
         13    1    3    3    0    0  0.22856405275E+02 -0.14632987387E+01 -0.34405601953E+02  0.41331744641E+02  0.10566000000E+00 0.  1.
         22    1    1    0    0    0 -0.14077645883E+02  0.17940444004E+02 -0.17404258283E+02  0.28687067663E+02  0.00000000000E+00 0. -1.
</event>
<event>
 5    1  0.1250806E-009  0.9118800E+02  0.7561462E-02  0.1125453E+00
         25   -1    0    0    0    0  0.00000000000E+00  0.00000000000E+00  0.99999998245E-14  0.12509000000E+03  0.12509000000E+03 0.  0.
        -13    1    3    3    0    0 -0.40033888452E+02 -0.23880760321E+02  0.12983852670E+02  0.48390025132E+02  0.10566000000E+00 0. -1.
         23    2    1    0    0    0 -0.10330607217E+02  0.10915440699E+02  0.25205142004E+02  0.95744344878E+02  0.91136228260E+02 0.  0.
         13    1    3    3    0    0  0.29703281235E+02  0.34796201020E+02  0.12221289334E+02  0.47354319746E+02  0.10566000000E+00 0.  1.
         22    1    1    0    0    0  0.10330607217E+02 -0.10915440699E+02 -0.25205142004E+02  0.29345655122E+02  0.00000000000E+00 0.  1.
</event>
<event>
 5    1  0.1250806E-009  0.9118800E+02  0.7561462E-02  0.1125453E+00
         25   -1    0    0    0    0  0.00000000000E+00  0.00000000000E+00  0.99999998245E-14  0.12509000000E+03  0.12509000000E+03 0.  0.
        -13    1    3    3    0    0  0.16510449417E+02  0.26291706376E+02 -0.18686010260E+02  0.36235713151E+02  0.10566000000E+00 0.  1.
         23    2    1    0    0    0 -0.13568812945E+02 -0.44358458324E+01  0.24217371225E+02  0.96978250107E+02  0.92814387418E+02 0.  0.
         13    1    3    3    0    0 -0.30079262362E+02 -0.30727552208E+02  0.42903381485E+02  0.60742536956E+02  0.10566000000E+00 0. -1.
         22    1    1    0    0    0  0.13568812945E+02  0.44358458324E+01 -0.24217371225E+02  0.28111749893E+02  0.00000000000E+00 0. -1.
</event>
<event>
 5    1  0.1250806E-009  0.9118800E+02  0.7561462E-02  0.1125453E+00
         25   -1    0    0    0    0  0.00000000000E+00  0.00000000000E+00  0.99999998245E-14  0.12509000000E+03  0.12509000000E+03 0.  0.
        -13    1    3    3    0    0 -0.10306430961E+02 -0.37711596973E+02  0.42195131428E+02  0.57522407336E+02  0.10566000000E+00 0.  1.
         23    2    1    0    0    0 -0.23939251555E+01 -0.34860020918E+01  0.30129411287E+02  0.94665264787E+02  0.89642890652E+02 0.  0.
         13    1    3    3    0    0  0.79125058053E+01  0.34225594882E+02 -0.12065720141E+02  0.37142857452E+02  0.10566000000E+00 0. -1.
         22    1    1    0    0    0  0.23939251555E+01  0.34860020918E+01 -0.30129411287E+02  0.30424735213E+02  0.00000000000E+00 0.  1.
</event>
<event>
 5    1  0.1250806E-009  0.9118800E+02  0.7561462E-02  0.1125453E+00
         25   -1    0    0    0    0  0.00000000000E+00  0.00000000000E+00  0.99999998245E-14  0.12509000000E+03  0.12509000000E+03 0.  0.
        -13    1    3    3    0    0  0.80857323439E+01  0.31166651800E+01 -0.59000177784E+02  0.59633252569E+02  0.10566000000E+00 0.  1.
         23    2    1    0    0    0 -0.54616469653E+01  0.11275383875E+02 -0.25540460853E+02  0.96642170387E+02  0.92360327454E+02 0.  0.
         13    1    3    3    0    0 -0.13547379309E+02  0.81587186955E+01  0.33459716931E+02  0.37008917818E+02  0.10566000000E+00 0. -1.
         22    1    1    0    0    0  0.54616469653E+01 -0.11275383875E+02  0.25540460853E+02  0.28447829613E+02  0.00000000000E+00 0.  1.
</event>
<event>
 5    1  0.1250806E-009  0.9118800E+02  0.7561462E-02  0.1125453E+00
         25   -1    0    0    0    0  0.00000000000E+00  0.00000000000E+00  0.99999998245E-14  0.12509000000E+03  0.12509000000E+03 0.  0.
        -13    1    3    3    0    0 -0.44212933585E+02  0.21655156107E+02  0.23949287780E+02  0.54747683343E+02  0.10566000000E+00 0. -1.
         23    2    1    0    0    0 -0.10354186460E+02 -0.38736998393E+00  0.27886487443E+02  0.95340791361E+02  0.90580633044E+02 0.  0.
         13    1    3    3    0    0  0.33858747125E+02 -0.22042526091E+02  0.39371996635E+01  0.40593108018E+02  0.10566000000E+00 0.  1.
         22    1    1    0    0    0  0.10354186460E+02  0.38736998393E+00 -0.27886487443E+02  0.29749208639E+02  0.00000000000E+00 0. -1.
</event>
<event>
 5    1  0.1250806E-009  0.9118800E+02  0.7561462E-02  0.1125453E+00
         25   -1    0    0    0    0  0.00000000000E+00  0.00000000000E+00  0.99999998245E-14  0.12509000000E+03  0.12509000000E+03 0.  0.
        -13    1    3    3    0    0 -0.32784090682E+01  0.46665759243E+02  0.49271760242E+01  0.47039656455E+02  0.10566000000E+00 0.  1.
         23    2    1    0    0    0 -0.27335132646E+01 -0.26707884407E+01  0.24628107046E+02  0.10016714177E+03  0.97017047101E+02 0.  0.
         13    1    3    3    0    0  0.54489580357E+00 -0.49336547684E+02  0.19700931022E+02  0.53127485316E+02  0.10566000000E+00 0. -1.
         22    1    1    0    0    0  0.27335132646E+01  0.26707884407E+01 -0.24628107046E+02  0.24922858229E+02  0.00000000000E+00 0. -1.
</event>
<event>
 5    1  0.1250806E-009  0.9118800E+02  0.7561462E-02  0.1125453E+00
         25   -1    0    0    0    0  0.00000000000E+00  0.00000000000E+00  0.99999998245E-14  0.12509000000E+03  0.12509000000E+03 0.  0.
        -13    1    3    3    0    0  0.12113683894E+02 -0.18925178329E+02  0.47003777366E+02  0.52098656057E+02  0.10566000000E+00 0.  1.
         23    2    1    0    0    0  0.24923169230E+02 -0.15885889555E+02  0.63109352016E+01  0.94868256924E+02  0.89925704986E+02 0.  0.
         13    1    3    3    0    0  0.12809485336E+02  0.30392887732E+01 -0.40692842165E+02  0.42769600867E+02  0.10566000000E+00 0. -1.
         22    1    1    0    0    0 -0.24923169230E+02  0.15885889555E+02 -0.63109352016E+01  0.30221743076E+02  0.00000000000E+00 0.  1.
</event>
<event>
 5    1  0.1250806E-009  0.9118800E+02  0.7561462E-02  0.1125453E+00
         25   -1    0    0    0    0  0.00000000000E+00  0.00000000000E+00  0.99999998245E-14  0.12509000000E+03  0.12509000000E+03 0.  0.
        -13    1    3    3    0    0 -0.27290195618E+02 -0.60242015430E+01  0.42669683628E+02  0.51007439125E+02  0.10566000000E+00 0.  1.
         23    2    1    0    0    0  0.96731230909E+01 -0.19052029009E+02  0.15253968494E+02  0.98836758781E+02  0.95286264550E+02 0.  0.
         13    1    3    3    0    0  0.36963318709E+02 -0.13027827466E+02 -0.27415715135E+02  0.47829319657E+02  0.10566000000E+00 0. -1.
         22    1    1    0    0    0 -0.96731230909E+01  0.19052029009E+02 -0.15253968494E+02  0.26253241219E+02  0.00000000000E+00 0.  1.
</event>
<event>
 5    1  0.1250806E-009  0.9118800E+02  0.7561462E-02  0.1125453E+00
         25   -1    0    0    0    0  0.00000000000E+00  0.00000000000E+00  0.99999998245E-14  0.12509000000E+03  0.12509000000E+03 0.  0.
        -13    1    3    3    0    0 -0.99543999544E+01 -0.20845754945E+02 -0.33341069628E+02  0.40561973148E+02  0.10566000000E+00 0. -1.
         23    2    1    0    0    0 -0.18485962229E+02  0.22483701999E+02  0.14255997111E+00  0.95982132018E+02  0.91462023202E+02 0.  0.
         13    1    3    3    0    0 -0.85315622748E+01  0.43329456944E+02  0.33483629599E+02  0.55420158869E+02  0.10566000000E+00 0.  1.
         22    1    1    0    0    0  0.18485962229E+02 -0.22483701999E+02 -0.14255997111E+00  0.29107867982E+02  0.00000000000E+00 0.  1.
</event>
<event>
 5    1  0.1250806E-009  0.9118800E+02  0.7561462E-02  0.1125453E+00
         25   -1    0    0    0    0  0.00000000000E+00  0.00000000000E+00  0.99999998245E-14  0.12509000000E+03  0.12509000000E+03 0.  0.
        -13    1    3    3    0    0 -0.61835303589E+02 -0.57502262736E+01 -0.72566544582E+01  0.62524715674E+02  0.10566000000E+00 0.  1.
         23    2    1    0    0    0 -0.29038276721E+02 -0.16596665914E+01 -0.29610419855E+01  0.95853998601E+02  0.91286610574E+02 0.  0.
         13    1    3    3    0    0  0.32797026868E+02  0.40905596822E+01  0.42956124727E+01  0.33329282927E+02  0.10566000000E+00 0. -1.
         22    1    1    0    0    0  0.29038276721E+02  0.16596665914E+01  0.29610419855E+01  0.29236001399E+02  0.00000000000E+00 0.  1.
</event>
<event>
 5    1  0.1250806E-009  0.9118800E+02  0.7561462E-02  0.1125453E+00
         25   -1    0    0    0    0  0.00000000000E+00  0.00000000000E+00  0.99999998245E-14  0.12509000000E+03  0.12509000000E+03 0.  0.
        -13    1    3    3    0    0 -0.44605287582E+02 -0.19685327303E+01  0.30599948896E+02  0.54128318262E+02  0.10566000000E+00 0. -1.
         23    2    1    0    0    0 -0.24558368787E+01 -0.65763781857E+01  0.27573528718E+02  0.96636891721E+02  0.92353177913E+02 0.  0.
         13    1    3    3    0    0  0.42149450704E+02 -0.46078454554E+01 -0.30264201783E+01  0.42508573459E+02  0.10566000000E+00 0.  1.
         22    1    1    0    0    0  0.24558368787E+01  0.65763781857E+01 -0.27573528718E+02  0.28453108279E+02  0.00000000000E+00 0. -1.
</event>
<event>
 5    1  0.1250806E-009  0.9118800E+02  0.7561462E-02  0.1125453E+00
         25   -1    0    0    0    0  0.00000000000E+00  0.00000000000E+00  0.99999998245E-14  0.12509000000E+03  0.12509000000E+03 0.  0.
        -13    1    3    3    0    0  0.30592478777E+02  0.42030676377E+02  0.44925918398E+01  0.52179230158E+02  0.10566000000E+00 0.  1.
         23    2    1    0    0    0 -0.91409417409E+01  0.28190722873E+02 -0.42449700194E+01  0.95151839695E+02  0.90319317728E+02 0.  0.
         13    1    3    3    0    0 -0.39733420518E+02 -0.13839953504E+02 -0.87375618592E+01  0.42972609536E+02  0.10566000000E+00 0. -1.
         22    1    1    0    0    0  0.91409417409E+01 -0.28190722873E+02  0.42449700194E+01  0.29938160305E+02  0.00000000000E+00 0. -1.
</event>
<event>
 5    1  0.1250806E-009  0.9118800E+02  0.7561462E-02  0.1125453E+00
         25   -1    0    0    0    0  0.00000000000E+00  0.00000000000E+00  0.99999998245E-14  0.12509000000E+03  0.12509000000E+03 0.  0.
        -13    1    3    3    0    0  0.98298364136E+01  0.20952053826E+02 -0.56400107671E+02  0.60963903687E+02  0.10566000000E+00 0.  1.
         23    2    1    0    0    0  0.50581909300E+01  0.42324616490E+00 -0.29596035296E+02  0.95061850905E+02  0.90194599392E+02 0.  0.
         13    1    3    3    0    0 -0.47716454837E+01 -0.20528807661E+02  0.26804072375E+02  0.34097947218E+02  0.10566000000E+00 0. -1.
         22    1    1    0    0    0 -0.50581909300E+01 -0.42324616490E+00  0.29596035296E+02  0.30028149095E+02  0.00000000000E+00 0.  1.
</event>
<event>
 5    1  0.1250806E-009  0.9118800E+02  0.7561462E-02  0.1125453E+00
         25   -1    0    0    0    0  0.00000000000E+00  0.00000000000E+00  0.99999998245E-14  0.12509000000E+03  0.12509000000E+03 0.  0.
        -13    1    3    3    0    0  0.82295542898E+01  0.30879323840E+02 -0.35874194214E+02  0.48044012938E+02  0.10566000000E+00 0.  1.
         23    2    1    0    0    0  0.60275564655E+01  0.26202518651E+02  0.11606184852E+02  0.95805073034E+02  0.91219543254E+02 0.  0.
         13    1    3    3    0    0 -0.22019978242E+01 -0.46768051888E+01  0.47480379066E+02  0.47761060096E+02  0.10566000000E+00 0. -1.
         22    1    1    0    0    0 -0.60275564655E+01 -0.26202518651E+02 -0.11606184852E+02  0.29284926966E+02  0.00000000000E+00 0.  1.
</event>
<event>
 5    1  0.1250806E-009  0.9118800E+02  0.7561462E-02  0.1125453E+00
         25   -1    0    0    0    0  0.00000000000E+00  0.00000000000E+00  0.99999998245E-14  0.12509000000E+03  0.12509000000E+03 0.  0.
        -13    1    3    3    0    0  0.28280415012E+02  0.41566585922E+02 -0.26614694887E+02  0.56885113047E+02  0.10566000000E+00 0.  1.
         23    2    1    0    0    0  0.29208482397E+02  0.96479347231E+01 -0.11090131676E+02  0.92391236890E+02  0.86411408652E+02 0.  0.
         13    1    3    3    0    0  0.92806738432E+00 -0.31918651199E+02  0.15524563211E+02  0.35506123843E+02  0.10566000000E+00 0. -1.
         22    1    1    0    0    0 -0.29208482397E+02 -0.96479347231E+01  0.11090131676E+02  0.32698763110E+02  0.00000000000E+00 0.  1.
</event>
<event>
 5    1  0.1250806E-009  0.9118800E+02  0.7561462E-02  0.1125453E+00
         25   -1    0    0    0    0  0.00000000000E+00  0.00000000000E+00  0.99999998245E-14  0.12509000000E+03  0.12509000000E+03 0.  0.
        -13    1    3    3    0    0 -0.38148202398E+02 -0.19609529591E+01  0.43459727747E+02  0.57860952140E+02  0.10566000000E+00 0.  1.
         23    2    1    0    0    0 -0.25270561270E+02  0.87553697983E+01  0.78460230626E+01  0.97218547847E+02  0.93137684105E+02 0.  0.
         13    1    3    3    0    0  0.12877641128E+02  0.10716322757E+02 -0.35613704684E+02  0.39357595707E+02  0.10566000000E+00 0. -1.
         22    1    1    0    0    0  0.25270561270E+02 -0.87553697983E+01 -0.78460230626E+01  0.27871452153E+02  0.00000000000E+00 0.  1.
</event>
<event>
 5    1  0.1250806E-009  0.9118800E+02  0.7561462E-02  0.1125453E+00
         25   -1    0    0    0    0  0.00000000000E+00  0.00000000000E+00  0.99999998245E-14  0.12509000000E+03  0.12509000000E+03 0.  0.
        -13    1    3    3    0    0 -0.39879708250E+02  0.13870946340E+01 -0.90144456954E+01  0.40909492258E+02  0.10566000000E+00 0. -1.
         23    2    1    0    0    0  0.12295617069E+02  0.22776051168E+01 -0.26371902401E+02  0.95903583289E+02  0.91354531181E+02 0.  0.
         13    1    3    3    0    0  0.52175325318E+02  0.89051048280E+00 -0.17357456705E+02  0.54994091031E+02  0.10566000000E+00 0.  1.
         22    1    1    0    0    0 -0.12295617069E+02 -0.22776051168E+01  0.26371902401E+02  0.29186416711E+02  0.00000000000E+00 0.  1.
</event>
<event>
 5    1  0.1250806E-009  0.9118800E+02  0.7561462E-02  0.1125453E+00
         25   -1    0    0    0    0  0.00000000000E+00  0.00000000000E+00  0.99999998245E-14  0.12509000000E+03  0.12509000000E+03 0.  0.
        -13    1    3    3    0    0 -0.42950985792E+01  0.20245886591E+02 -0.38733932532E+02  0.43916653893E+02  0.10566000000E+00 0.  1.
         23    2    1    0    0    0 -0.18031105719E+02  0.21201146255E+02  0.10730044849E+02  0.95261435863E+02  0.90470978353E+02 0.  0.
         13    1    3    3    0    0 -0.13736007140E+02  0.95525966384E+00  0.49463977381E+02  0.51344781971E+02  0.10566000000E+00 0. -1.
         22    1    1    0    0    0  0.18031105719E+02 -0.21201146255E+02 -0.10730044849E+02  0.29828564137E+02  0.00000000000E+00 0. -1.
</event>
<event>
 5    1  0.1250806E-009  0.9118800E+02  0.7561462E-02  0.1125453E+00
         25   -1    0    0    0    0  0.00000000000E+00  0.00000000000E+00  0.99999998245E-14  0.12509000000E+03  0.12509000000E+03 0.  0.
        -13    1    3    3    0    0 -0.27699824908E+02 -0.49245037128E+01 -0.27676341320E+02  0.39465454129E+02  0.10566000000E+00 0.  1.
         23    2    1    0    0    0 -0.47148895194E+01  0.26615056726E+02  0.12353614641E+02  0.95371264791E+02  0.90622706456E+02 0.  0.
         13    1    3    3    0    0  0.22984935389E+02  0.31539560439E+02  0.40029955961E+02  0.55905810662E+02  0.10566000000E+00 0. -1.
         22    1    1    0    0    0  0.47148895194E+01 -0.26615056726E+02 -0.12353614641E+02  0.29718735209E+02  0.00000000000E+00 0. -1.
</event>
<event>
 5    1  0.1250806E-009  0.9118800E+02  0.7561462E-02  0.1125453E+00
         25   -1    0    0    0    0  0.00000000000E+00  0.00000000000E+00  0.99999998245E-14  0.12509000000E+03  0.12509000000E+03 0.  0.
        -13    1    3    3    0    0  0.38676855862E+02 -0.32116544167E+02  0.28094759768E+02  0.57590782934E+02  0.10566000000E+00 0.  1.
         23    2    1    0    0    0  0.14184763956E+02 -0.26376086997E+02  0.21681492300E+00  0.95140834695E+02  0.90304074791E+02 0.  0.
         13    1    3    3    0    0 -0.24492091905E+02  0.57404571695E+01 -0.27877944845E+02  0.37550051760E+02  0.10566000000E+00 0. -1.
         22    1    1    0    0    0 -0.14184763956E+02  0.26376086997E+02 -0.21681492300E+00  0.29949165305E+02  0.00000000000E+00 0.  1.
</event>
<event>
 5    1  0.1250806E-009  0.9118800E+02  0.7561462E-02  0.1125453E+00
         25   -1    0    0    0    0  0.00000000000E+00  0.00000000000E+00  0.99999998245E-14  0.12509000000E+03  0.12509000000E+03 0.  0.
        -13    1    3    3    0    0 -0.45358360993E+02  0.37271589284E+02 -0.14347233236E+02  0.60435143297E+02  0.10566000000E+00 0. -1.
         23    2    1    0    0    0 -0.22877164255E+02  0.10779086041E+02 -0.15903402039E+02  0.95215737889E+02  0.90407771818E+02 0.  0.
         13    1    3    3    0    0  0.22481196738E+02 -0.26492503243E+02 -0.15561688031E+01  0.34780594593E+02  0.10566000000E+00 0.  1.
         22    1    1    0    0    0  0.22877164255E+02 -0.10779086041E+02  0.15903402039E+02  0.29874262111E+02  0.00000000000E+00 0. -1.
</event>
<event>
 5    1  0.1250806E-009  0.9118800E+02  0.7561462E-02  0.1125453E+00
         25   -1    0    0    0    0  0.00000000000E+00  0.00000000000E+00  0.99999998245E-14  0.12509000000E+03  0.12509000000E+03 0.  0.
        -13    1    3    3    0    0 -0.34796704599E+02 -0.47730644787E+02 -0.11104698984E+02  0.60102833596E+02  0.10566000000E+00 0. -1.
         23    2    1    0    0    0 -0.21650636391E+02 -0.13425656000E+02 -0.12171920918E+02  0.96856085040E+02  0.92649593929E+02 0.  0.
         13    1    3    3    0    0  0.13146068208E+02  0.34304988787E+02 -0.10672219337E+01  0.36753251444E+02  0.10566000000E+00 0.  1.
         22    1    1    0    0    0  0.21650636391E+02  0.13425656000E+02  0.12171920918E+02  0.28233914960E+02  0.00000000000E+00 0. -1.
</event>
<event>
 5    1  0.1250806E-009  0.9118800E+02  0.7561462E-02  0.1125453E+00
         25   -1    0    0    0    0  0.00000000000E+00  0.00000000000E+00  0.99999998245E-14  0.12509000000E+03  0.12509000000E+03 0.  0.
        -13    1    3    3    0    0 -0.11377760600E+02 -0.22025280089E+01  0.34471826089E+02  0.36367877637E+02  0.10566000000E+00 0.  1.
         23    2    1    0    0    0 -0.94767986304E+01 -0.32696085050E+02 -0.93484668281E+01  0.89787910516E+02  0.82556837106E+02 0.  0.
         13    1    3    3    0    0  0.19009619701E+01 -0.30493557041E+02 -0.43820292917E+02  0.53420032879E+02  0.10566000000E+00 0. -1.
         22    1    1    0    0    0  0.94767986304E+01  0.32696085050E+02  0.93484668281E+01  0.35302089484E+02  0.00000000000E+00 0. -1.
</event>
<event>
 5    1  0.1250806E-009  0.9118800E+02  0.7561462E-02  0.1125453E+00
         25   -1    0    0    0    0  0.00000000000E+00  0.00000000000E+00  0.99999998245E-14  0.12509000000E+03  0.12509000000E+03 0.  0.
        -13    1    3    3    0    0 -0.17725100370E+02  0.12848768867E+01  0.36761138408E+02  0.40831636666E+02  0.10566000000E+00 0.  1.
         23    2    1    0    0    0 -0.17752648034E+02 -0.17492982048E+02 -0.15073736451E+02  0.95963062919E+02  0.91435939220E+02 0.  0.
         13    1    3    3    0    0 -0.27547664802E-01 -0.18777858934E+02 -0.51834874859E+02  0.55131426253E+02  0.10566000000E+00 0. -1.
         22    1    1    0    0    0  0.17752648034E+02  0.17492982048E+02  0.15073736451E+02  0.29126937081E+02  0.00000000000E+00 0. -1.
</event>
<event>
 5    1  0.1250806E-009  0.9118800E+02  0.7561462E-02  0.1125453E+00
         25   -1    0    0    0    0  0.00000000000E+00  0.00000000000E+00  0.99999998245E-14  0.12509000000E+03  0.12509000000E+03 0.  0.
        -13    1    3    3    0    0  0.25965655202E+02 -0.19800741628E+02  0.11097153355E+01  0.32673035538E+02  0.10566000000E+00 0. -1.
         23    2    1    0    0    0 -0.27548486401E+02  0.11827906287E+02 -0.29327606179E+01  0.94966594565E+02  0.90062392420E+02 0.  0.
         13    1    3    3    0    0 -0.53514141603E+02  0.31628647915E+02 -0.40424759534E+01  0.62293559028E+02  0.10566000000E+00 0.  1.
         22    1    1    0    0    0  0.27548486401E+02 -0.11827906287E+02  0.29327606179E+01  0.30123405435E+02  0.00000000000E+00 0.  1.
</event>
<event>
 5    1  0.1250806E-009  0.9118800E+02  0.7561462E-02  0.1125453E+00
         25   -1    0    0    0    0  0.00000000000E+00  0.00000000000E+00  0.99999998245E-14  0.12509000000E+03  0.12509000000E+03 0.  0.
        -13    1    3    3    0    0  0.17501155286E+02  0.36114041118E+02  0.44899764155E+02  0.60220547884E+02  0.10566000000E+00 0. -1.
         23    2    1    0    0    0  0.18538255437E+02  0.11147212919E+02  0.17865985900E+02  0.97034328155E+02  0.92889935503E+02 0.  0.
         13    1    3    3    0    0  0.10371001509E+01 -0.24966828199E+02 -0.27033778255E+02  0.36813780271E+02  0.10566000000E+00 0.  1.
         22    1    1    0    0    0 -0.18538255437E+02 -0.11147212919E+02 -0.17865985900E+02  0.28055671845E+02  0.00000000000E+00 0. -1.
</event>
<event>
 5    1  0.1250806E-009  0.9118800E+02  0.7561462E-02  0.1125453E+00
         25   -1    0    0    0    0  0.00000000000E+00  0.00000000000E+00  0.99999998245E-14  0.12509000000E+03  0.12509000000E+03 0.  0.
        -13    1    3    3    0    0  0.16143405926E+02  0.41952287376E+02 -0.10673954928E+02  0.46201173673E+02  0.10566000000E+00 0.  1.
         23    2    1    0    0    0  0.79021123757E+01  0.10197115840E+02  0.26399923360E+02  0.95706662803E+02  0.91084492643E+02 0.  0.
         13    1    3    3    0    0 -0.82412935500E+01 -0.31755171536E+02  0.37073878288E+02  0.49505489130E+02  0.10566000000E+00 0. -1.
         22    1    1    0    0    0 -0.79021123757E+01 -0.10197115840E+02 -0.26399923360E+02  0.29383337197E+02  0.00000000000E+00 0. -1.
</event>
<event>
 5    1  0.1250806E-009  0.9118800E+02  0.7561462E-02  0.1125453E+00
         25   -1    0    0    0    0  0.00000000000E+00  0.00000000000E+00  0.99999998245E-14  0.12509000000E+03  0.12509000000E+03 0.  0.
        -13    1    3    3    0    0 -0.28637248204E+01 -0.38112205867E+02  0.97441262087E+01  0.39442367012E+02  0.10566000000E+00 0.  1.
         23    2    1    0    0    0 -0.71792699479E+01  0.42860513272E+01 -0.27689511844E+02  0.96165594749E+02  0.91712596704E+02 0.  0.
         13    1    3    3    0    0 -0.43155451276E+01  0.42398257195E+02 -0.37433638053E+02  0.56723227736E+02  0.10566000000E+00 0. -1.
         22    1    1    0    0    0  0.71792699479E+01 -0.42860513272E+01  0.27689511844E+02  0.28924405251E+02  0.00000000000E+00 0. -1.
</event>
<event>
 5    1  0.1250806E-009  0.9118800E+02  0.7561462E-02  0.1125453E+00
         25   -1    0    0    0    0  0.00000000000E+00  0.00000000000E+00  0.99999998245E-14  0.12509000000E+03  0.12509000000E+03 0.  0.
        -13    1    3    3    0    0 -0.47233734865E+01  0.29696258126E+02 -0.15119213517E+02  0.33656794042E+02  0.10566000000E+00 0. -1.
         23    2    1    0    0    0  0.32868871496E+02 -0.38346791275E+01 -0.23201714819E+02  0.84674816616E+02  0.74407241052E+02 0.  0.
         13    1    3    3    0    0  0.37592244983E+02 -0.33530937254E+02 -0.80825013014E+01  0.51018022573E+02  0.10566000000E+00 0.  1.
         22    1    1    0    0    0 -0.32868871496E+02  0.38346791275E+01  0.23201714819E+02  0.40415183384E+02  0.00000000000E+00 0.  1.
</event>
<event>
 5    1  0.1250806E-009  0.9118800E+02  0.7561462E-02  0.1125453E+00
         25   -1    0    0    0    0  0.00000000000E+00  0.00000000000E+00  0.99999998245E-14  0.12509000000E+03  0.12509000000E+03 0.  0.
        -13    1    3    3    0    0 -0.26916312191E+02  0.24232040075E+02 -0.19567066119E+02  0.41165044258E+02  0.10566000000E+00 0.  1.
         23    2    1    0    0    0  0.13569966324E+02 -0.12478580340E+02 -0.22628513503E+02  0.95902527059E+02  0.91353084893E+02 0.  0.
         13    1    3    3    0    0  0.40486278515E+02 -0.36710620415E+02 -0.30614473839E+01  0.54737482801E+02  0.10566000000E+00 0. -1.
         22    1    1    0    0    0 -0.13569966324E+02  0.12478580340E+02  0.22628513503E+02  0.29187472941E+02  0.00000000000E+00 0. -1.
</event>
<event>
 5    1  0.1250806E-009  0.9118800E+02  0.7561462E-02  0.1125453E+00
         25   -1    0    0    0    0  0.00000000000E+00  0.00000000000E+00  0.99999998245E-14  0.12509000000E+03  0.12509000000E+03 0.  0.
        -13    1    3    3    0    0 -0.35009817826E+02 -0.47256004767E+02 -0.17892874913E+02  0.61473437088E+02  0.10566000000E+00 0. -1.
         23    2    1    0    0    0 -0.15281892843E+02 -0.24702846957E+02 -0.66999974925E+00  0.96034608137E+02  0.91533765157E+02 0.  0.
         13    1    3    3    0    0  0.19727924983E+02  0.22553157810E+02  0.17222875163E+02  0.34561171049E+02  0.10566000000E+00 0.  1.
         22    1    1    0    0    0  0.15281892843E+02  0.24702846957E+02  0.66999974925E+00  0.29055391863E+02  0.00000000000E+00 0. -1.
</event>
<event>
 5    1  0.1250806E-009  0.9118800E+02  0.7561462E-02  0.1125453E+00
         25   -1    0    0    0    0  0.00000000000E+00  0.00000000000E+00  0.99999998245E-14  0.12509000000E+03  0.12509000000E+03 0.  0.
        -13    1    3    3    0    0  0.86222324680E+00 -0.43692718023E+02  0.21775831884E+02  0.48826171828E+02  0.10566000000E+00 0. -1.
         23    2    1    0    0    0 -0.25680732599E+02 -0.14886522746E+02 -0.31264456477E+01  0.95242332609E+02  0.90444561319E+02 0.  0.
         13    1    3    3    0    0 -0.26542955846E+02  0.28806195276E+02 -0.24902277532E+02  0.46416160781E+02  0.10566000000E+00 0.  1.
         22    1    1    0    0    0  0.25680732599E+02  0.14886522746E+02  0.31264456477E+01  0.29847667391E+02  0.00000000000E+00 0. -1.
</event>
<event>
 5    1  0.1250806E-009  0.9118800E+02  0.7561462E-02  0.1125453E+00
         25   -1    0    0    0    0  0.00000000000E+00  0.00000000000E+00  0.99999998245E-14  0.12509000000E+03  0.12509000000E+03 0.  0.
        -13    1    3    3    0    0  0.23594328120E+02  0.23716693935E+02 -0.23806993944E+02  0.41060419083E+02  0.10566000000E+00 0. -1.
         23    2    1    0    0    0 -0.31684332013E+01  0.15568532310E+02  0.23915328362E+02  0.96378310779E+02  0.92002270031E+02 0.  0.
         13    1    3    3    0    0 -0.26762761321E+02 -0.81481616249E+01  0.47722322306E+02  0.55317891696E+02  0.10566000000E+00 0.  1.
         22    1    1    0    0    0  0.31684332013E+01 -0.15568532310E+02 -0.23915328362E+02  0.28711689221E+02  0.00000000000E+00 0. -1.
</event>
<event>
 5    1  0.1250806E-009  0.9118800E+02  0.7561462E-02  0.1125453E+00
         25   -1    0    0    0    0  0.00000000000E+00  0.00000000000E+00  0.99999998245E-14  0.12509000000E+03  0.12509000000E+03 0.  0.
        -13    1    3    3    0    0 -0.39746837839E+01 -0.79667931491E+01  0.44238483041E+02  0.45125629636E+02  0.10566000000E+00 0.  1.
         23    2    1    0    0    0  0.10859037727E+02 -0.27098256262E+02 -0.38666223314E+00  0.95894389021E+02  0.91341940778E+02 0.  0.
         13    1    3    3    0    0  0.14833721511E+02 -0.19131463112E+02 -0.44625145274E+02  0.50768759385E+02  0.10566000000E+00 0. -1.
         22    1    1    0    0    0 -0.10859037727E+02  0.27098256262E+02  0.38666223314E+00  0.29195610979E+02  0.00000000000E+00 0. -1.
</event>
<event>
 5    1  0.1250806E-009  0.9118800E+02  0.7561462E-02  0.1125453E+00
         25   -1    0    0    0    0  0.00000000000E+00  0.00000000000E+00  0.99999998245E-14  0.12509000000E+03  0.12509000000E+03 0.  0.
        -13    1    3    3    0    0 -0.25745207329E+02 -0.38039258078E+02  0.23710664099E+02  0.51691465558E+02  0.10566000000E+00 0.  1.
         23    2    1    0    0    0  0.88765720379E+01 -0.11473894143E+02  0.25919862611E+02  0.95386750082E+02  0.90644078877E+02 0.  0.
         13    1    3    3    0    0  0.34621779367E+02  0.26565363935E+02  0.22091985113E+01  0.43695284523E+02  0.10566000000E+00 0. -1.
         22    1    1    0    0    0 -0.88765720379E+01  0.11473894143E+02 -0.25919862611E+02  0.29703249918E+02  0.00000000000E+00 0.  1.
</event>
<event>
 5    1  0.1250806E-009  0.9118800E+02  0.7561462E-02  0.1125453E+00
         25   -1    0    0    0    0  0.00000000000E+00  0.00000000000E+00  0.99999998245E-14  0.12509000000E+03  0.12509000000E+03 0.  0.
        -13    1    3    3    0    0 -0.30513122388E+02  0.46643739920E+02  0.18138795097E+02  0.58614982413E+02  0.10566000000E+00 0.  1.
         23    2    1    0    0    0 -0.53824932048E+01  0.24482814222E+02  0.21198772146E+02  0.92260632570E+02  0.86222137276E+02 0.  0.
         13    1    3    3    0    0  0.25130629184E+02 -0.22160925698E+02  0.30599770487E+01  0.33645650157E+02  0.10566000000E+00 0. -1.
         22    1    1    0    0    0  0.53824932048E+01 -0.24482814222E+02 -0.21198772146E+02  0.32829367430E+02  0.00000000000E+00 0.  1.
</event>
<event>
 5    1  0.1250806E-009  0.9118800E+02  0.7561462E-02  0.1125453E+00
         25   -1    0    0    0    0  0.00000000000E+00  0.00000000000E+00  0.99999998245E-14  0.12509000000E+03  0.12509000000E+03 0.  0.
        -13    1    3    3    0    0 -0.39353262467E+02  0.22405099948E+02  0.17638269337E+01  0.45318760132E+02  0.10566000000E+00 0.  1.
         23    2    1    0    0    0  0.40059211847E+01  0.11880854214E+02  0.26094410869E+02  0.96139691193E+02  0.91677259136E+02 0.  0.
         13    1    3    3    0    0  0.43359183651E+02 -0.10524245734E+02  0.24330583936E+02  0.50820931061E+02  0.10566000000E+00 0. -1.
         22    1    1    0    0    0 -0.40059211847E+01 -0.11880854214E+02 -0.26094410869E+02  0.28950308807E+02  0.00000000000E+00 0. -1.
</event>
<event>
 5    1  0.1250806E-009  0.9118800E+02  0.7561462E-02  0.1125453E+00
         25   -1    0    0    0    0  0.00000000000E+00  0.00000000000E+00  0.99999998245E-14  0.12509000000E+03  0.12509000000E+03 0.  0.
        -13    1    3    3    0    0 -0.22260722778E+02  0.29054039491E+02  0.11658637078E+02  0.38413695108E+02  0.10566000000E+00 0. -1.
         23    2    1    0    0    0  0.14016845862E+01  0.71210947839E+00 -0.30554432870E+02  0.94495144426E+02  0.89405185154E+02 0.  0.
         13    1    3    3    0    0  0.23662407364E+02 -0.28341930012E+02 -0.42213069948E+02  0.56081449318E+02  0.10566000000E+00 0.  1.
         22    1    1    0    0    0 -0.14016845862E+01 -0.71210947839E+00  0.30554432870E+02  0.30594855574E+02  0.00000000000E+00 0.  1.
</event>
<event>
 5    1  0.1250806E-009  0.9118800E+02  0.7561462E-02  0.1125453E+00
         25   -1    0    0    0    0  0.00000000000E+00  0.00000000000E+00  0.99999998245E-14  0.12509000000E+03  0.12509000000E+03 0.  0.
        -13    1    3    3    0    0  0.44797425695E+02 -0.12631144875E+02  0.13396346474E+02  0.48433753031E+02  0.10566000000E+00 0. -1.
         23    2    1    0    0    0  0.10071214648E+02  0.20281504637E+02  0.17524200107E+02  0.96456691001E+02  0.92108777294E+02 0.  0.
         13    1    3    3    0    0 -0.34726211047E+02  0.32912649513E+02  0.41278536329E+01  0.48022937970E+02  0.10566000000E+00 0.  1.
         22    1    1    0    0    0 -0.10071214648E+02 -0.20281504637E+02 -0.17524200107E+02  0.28633308999E+02  0.00000000000E+00 0.  1.
</event>
<event>
 5    1  0.1250806E-009  0.9118800E+02  0.7561462E-02  0.1125453E+00
         25   -1    0    0    0    0  0.00000000000E+00  0.00000000000E+00  0.99999998245E-14  0.12509000000E+03  0.12509000000E+03 0.  0.
        -13    1    3    3    0    0  0.39993249023E+02  0.37163273273E+02  0.20444412317E+02  0.58297118340E+02  0.10566000000E+00 0. -1.
         23    2    1    0    0    0  0.27378423436E+02  0.94992981509E+01 -0.19288308394E+01  0.96046323862E+02  0.91549774460E+02 0.  0.
         13    1    3    3    0    0 -0.12614825587E+02 -0.27663975122E+02 -0.22373243156E+02  0.37749205521E+02  0.10566000000E+00 0.  1.
         22    1    1    0    0    0 -0.27378423436E+02 -0.94992981509E+01  0.19288308394E+01  0.29043676138E+02  0.00000000000E+00 0. -1.
</event>
<event>
 5    1  0.1250806E-009  0.9118800E+02  0.7561462E-02  0.1125453E+00
         25   -1    0    0    0    0  0.00000000000E+00  0.00000000000E+00  0.99999998245E-14  0.12509000000E+03  0.12509000000E+03 0.  0.
        -13    1    3    3    0    0  0.16321051830E+02 -0.28933323047E+02  0.35035402186E+02  0.48280477273E+02  0.10566000000E+00 0. -1.
         23    2    1    0    0    0 -0.48956075475E+01  0.59424824832E+01  0.35153530342E+02  0.89103186209E+02  0.81512741493E+02 0.  0.
         13    1    3    3    0    0 -0.21216659378E+02  0.34875805530E+02  0.11812815651E+00  0.40822708935E+02  0.10566000000E+00 0.  1.
         22    1    1    0    0    0  0.48956075475E+01 -0.59424824832E+01 -0.35153530342E+02  0.35986813791E+02  0.00000000000E+00 0.  1.
</event>
<event>
 5    1  0.1250806E-009  0.9118800E+02  0.7561462E-02  0.1125453E+00
         25   -1    0    0    0    0  0.00000000000E+00  0.00000000000E+00  0.99999998245E-14  0.12509000000E+03  0.12509000000E+03 0.  0.
        -13    1    3    3    0    0 -0.80220825401E+01 -0.13868918623E+02  0.42516543800E+02  0.45435320763E+02  0.10566000000E+00 0.  1.
         23    2    1    0    0    0  0.17419040447E+02 -0.25691886628E+02  0.29896625650E+01  0.93906124506E+02  0.88577232565E+02 0.  0.
         13    1    3    3    0    0  0.25441122987E+02 -0.11822968005E+02 -0.39526881235E+02  0.48470803743E+02  0.10566000000E+00 0. -1.
         22    1    1    0    0    0 -0.17419040447E+02  0.25691886628E+02 -0.29896625650E+01  0.31183875494E+02  0.00000000000E+00 0. -1.
</event>
<event>
 5    1  0.1250806E-009  0.9118800E+02  0.7561462E-02  0.1125453E+00
         25   -1    0    0    0    0  0.00000000000E+00  0.00000000000E+00  0.99999998245E-14  0.12509000000E+03  0.12509000000E+03 0.  0.
        -13    1    3    3    0    0  0.21931425863E+02 -0.13901113755E+02  0.27065278557E+02  0.37506917648E+02  0.10566000000E+00 0.  1.
         23    2    1    0    0    0  0.56572615723E+01 -0.15732500474E+02 -0.26631447051E+02  0.93645602221E+02  0.88208552101E+02 0.  0.
         13    1    3    3    0    0 -0.16274164291E+02 -0.18313867185E+01 -0.53696725607E+02  0.56138684574E+02  0.10566000000E+00 0. -1.
         22    1    1    0    0    0 -0.56572615723E+01  0.15732500474E+02  0.26631447051E+02  0.31444397779E+02  0.00000000000E+00 0. -1.
</event>
<event>
 5    1  0.1250806E-009  0.9118800E+02  0.7561462E-02  0.1125453E+00
         25   -1    0    0    0    0  0.00000000000E+00  0.00000000000E+00  0.99999998245E-14  0.12509000000E+03  0.12509000000E+03 0.  0.
        -13    1    3    3    0    0  0.11263693971E+02  0.38645226230E+02  0.10503817048E+02  0.41601269798E+02  0.10566000000E+00 0. -1.
         23    2    1    0    0    0 -0.18874206487E+02  0.76105104653E+01 -0.21555119541E+02  0.95445797894E+02  0.90725529027E+02 0.  0.
         13    1    3    3    0    0 -0.30137900458E+02 -0.31034715765E+02 -0.32058936589E+02  0.53844528096E+02  0.10566000000E+00 0.  1.
         22    1    1    0    0    0  0.18874206487E+02 -0.76105104653E+01  0.21555119541E+02  0.29644202106E+02  0.00000000000E+00 0.  1.
</event>
<event>
 5    1  0.1250806E-009  0.9118800E+02  0.7561462E-02  0.1125453E+00
         25   -1    0    0    0    0  0.00000000000E+00  0.00000000000E+00  0.99999998245E-14  0.12509000000E+03  0.12509000000E+03 0.  0.
        -13    1    3    3    0    0  0.43349085514E+01 -0.49102914582E+02  0.16983590199E+02  0.52137713343E+02  0.10566000000E+00 0. -1.
         23    2    1    0    0    0 -0.13288340048E+02 -0.21374363028E+02 -0.13127484206E+02  0.96703837567E+02  0.92443809866E+02 0.  0.
         13    1    3    3    0    0 -0.17623248599E+02  0.27728551554E+02 -0.30111074405E+02  0.44566124224E+02  0.10566000000E+00 0.  1.
         22    1    1    0    0    0  0.13288340048E+02  0.21374363028E+02  0.13127484206E+02  0.28386162433E+02  0.00000000000E+00 0. -1.
</event>
<event>
 5    1  0.1250806E-009  0.9118800E+02  0.7561462E-02  0.1125453E+00
         25   -1    0    0    0    0  0.00000000000E+00  0.00000000000E+00  0.99999998245E-14  0.12509000000E+03  0.12509000000E+03 0.  0.
        -13    1    3    3    0    0 -0.51008107448E+02 -0.34563969963E+02 -0.68883278883E+01  0.61999639275E+02  0.10566000000E+00 0.  1.
         23    2    1    0    0    0 -0.28800410533E+02 -0.18678379308E+02  0.19732273842E+01  0.90706295622E+02  0.83936838984E+02 0.  0.
         13    1    3    3    0    0  0.22207696915E+02  0.15885590655E+02  0.88615552725E+01  0.28706656347E+02  0.10566000000E+00 0. -1.
         22    1    1    0    0    0  0.28800410533E+02  0.18678379308E+02 -0.19732273842E+01  0.34383704378E+02  0.00000000000E+00 0.  1.
</event>
<event>
 5    1  0.1250806E-009  0.9118800E+02  0.7561462E-02  0.1125453E+00
         25   -1    0    0    0    0  0.00000000000E+00  0.00000000000E+00  0.99999998245E-14  0.12509000000E+03  0.12509000000E+03 0.  0.
        -13    1    3    3    0    0 -0.25107589371E+01  0.28404968267E+02 -0.18750980518E+02  0.34128530105E+02  0.10566000000E+00 0.  1.
         23    2    1    0    0    0  0.10437141525E+02 -0.15965225504E+02  0.22157989403E+02  0.95853056880E+02  0.91285320125E+02 0.  0.
         13    1    3    3    0    0  0.12947900462E+02 -0.44370193771E+02  0.40908969921E+02  0.61724526776E+02  0.10566000000E+00 0. -1.
         22    1    1    0    0    0 -0.10437141525E+02  0.15965225504E+02 -0.22157989403E+02  0.29236943120E+02  0.00000000000E+00 0. -1.
</event>
<event>
 5    1  0.1250806E-009  0.9118800E+02  0.7561462E-02  0.1125453E+00
         25   -1    0    0    0    0  0.00000000000E+00  0.00000000000E+00  0.99999998245E-14  0.12509000000E+03  0.12509000000E+03 0.  0.
        -13    1    3    3    0    0  0.16141448194E+02 -0.30421679662E+02  0.27671830044E+02  0.44178799047E+02  0.10566000000E+00 0.  1.
         23    2    1    0    0    0  0.20957790113E+02 -0.76290647337E+01 -0.18642140126E+02  0.96021787402E+02  0.91516242669E+02 0.  0.
         13    1    3    3    0    0  0.48163419190E+01  0.22792614928E+02 -0.46313970169E+02  0.51842988355E+02  0.10566000000E+00 0. -1.
         22    1    1    0    0    0 -0.20957790113E+02  0.76290647337E+01  0.18642140126E+02  0.29068212598E+02  0.00000000000E+00 0. -1.
</event>
<event>
 5    1  0.1250806E-009  0.9118800E+02  0.7561462E-02  0.1125453E+00
         25   -1    0    0    0    0  0.00000000000E+00  0.00000000000E+00  0.99999998245E-14  0.12509000000E+03  0.12509000000E+03 0.  0.
        -13    1    3    3    0    0 -0.51740451005E+02  0.32959301952E+02  0.11582351913E+02  0.62430376382E+02  0.10566000000E+00 0. -1.
         23    2    1    0    0    0 -0.21043273299E+02  0.15149665498E+02  0.26585873778E+01  0.99024701178E+02  0.95532673158E+02 0.  0.
         13    1    3    3    0    0  0.30697177706E+02 -0.17809636455E+02 -0.89237645351E+01  0.36594324796E+02  0.10566000000E+00 0.  1.
         22    1    1    0    0    0  0.21043273299E+02 -0.15149665498E+02 -0.26585873778E+01  0.26065298822E+02  0.00000000000E+00 0. -1.
</event>
<event>
 5    1  0.1250806E-009  0.9118800E+02  0.7561462E-02  0.1125453E+00
         25   -1    0    0    0    0  0.00000000000E+00  0.00000000000E+00  0.99999998245E-14  0.12509000000E+03  0.12509000000E+03 0.  0.
        -13    1    3    3    0    0  0.30238515575E+02  0.34089905212E+01  0.21043945356E+02  0.36997943736E+02  0.10566000000E+00 0.  1.
         23    2    1    0    0    0 -0.24494925385E+02 -0.13733350557E+02  0.48831401104E+01  0.96586467860E+02  0.92284854820E+02 0.  0.
         13    1    3    3    0    0 -0.54733440960E+02 -0.17142341078E+02 -0.16160805245E+02  0.59588524123E+02  0.10566000000E+00 0. -1.
         22    1    1    0    0    0  0.24494925385E+02  0.13733350557E+02 -0.48831401104E+01  0.28503532140E+02  0.00000000000E+00 0. -1.
</event>
<event>
 5    1  0.1250806E-009  0.9118800E+02  0.7561462E-02  0.1125453E+00
         25   -1    0    0    0    0  0.00000000000E+00  0.00000000000E+00  0.99999998245E-14  0.12509000000E+03  0.12509000000E+03 0.  0.
        -13    1    3    3    0    0 -0.26031014188E+02 -0.31236645278E+02 -0.14803997680E+02  0.43272522682E+02  0.10566000000E+00 0. -1.
         23    2    1    0    0    0 -0.19867738533E+02  0.20392710109E+02 -0.51676202672E+01  0.96153967804E+02  0.91696736939E+02 0.  0.
         13    1    3    3    0    0  0.61632756547E+01  0.51629355388E+02  0.96363774133E+01  0.52881445122E+02  0.10566000000E+00 0.  1.
         22    1    1    0    0    0  0.19867738533E+02 -0.20392710109E+02  0.51676202672E+01  0.28936032196E+02  0.00000000000E+00 0. -1.
</event>
<event>
 5    1  0.1250806E-009  0.9118800E+02  0.7561462E-02  0.1125453E+00
         25   -1    0    0    0    0  0.00000000000E+00  0.00000000000E+00  0.99999998245E-14  0.12509000000E+03  0.12509000000E+03 0.  0.
        -13    1    3    3    0    0  0.23689324427E+02 -0.63266532319E+01  0.37666687088E+02  0.44944422492E+02  0.10566000000E+00 0.  1.
         23    2    1    0    0    0  0.76341415737E+01  0.27765168511E+02  0.30165267735E+01  0.96136863145E+02  0.91673400294E+02 0.  0.
         13    1    3    3    0    0 -0.16055182853E+02  0.34091821742E+02 -0.34650160314E+02  0.51192440653E+02  0.10566000000E+00 0. -1.
         22    1    1    0    0    0 -0.76341415737E+01 -0.27765168511E+02 -0.30165267735E+01  0.28953136855E+02  0.00000000000E+00 0. -1.
</event>
<event>
 5    1  0.1250806E-009  0.9118800E+02  0.7561462E-02  0.1125453E+00
         25   -1    0    0    0    0  0.00000000000E+00  0.00000000000E+00  0.99999998245E-14  0.12509000000E+03  0.12509000000E+03 0.  0.
        -13    1    3    3    0    0 -0.59317488056E+02 -0.81164202671E+01  0.14093081288E+01  0.59886876531E+02  0.10566000000E+00 0.  1.
         23    2    1    0    0    0 -0.23946628847E+02 -0.15744066207E+02  0.39517894115E+01  0.96160200599E+02  0.91705239140E+02 0.  0.
         13    1    3    3    0    0  0.35370859209E+02 -0.76276459403E+01  0.25424812827E+01  0.36273324067E+02  0.10566000000E+00 0. -1.
         22    1    1    0    0    0  0.23946628847E+02  0.15744066207E+02 -0.39517894115E+01  0.28929799401E+02  0.00000000000E+00 0.  1.
</event>
<event>
 5    1  0.1250806E-009  0.9118800E+02  0.7561462E-02  0.1125453E+00
         25   -1    0    0    0    0  0.00000000000E+00  0.00000000000E+00  0.99999998245E-14  0.12509000000E+03  0.12509000000E+03 0.  0.
        -13    1    3    3    0    0 -0.18892175505E+02  0.32888318354E+02 -0.14822335604E+02  0.40721843969E+02  0.10566000000E+00 0.  1.
         23    2    1    0    0    0 -0.61158075841E+01  0.83848624575E+01  0.29981747407E+02  0.93362816097E+02  0.87806612685E+02 0.  0.
         13    1    3    3    0    0  0.12776367920E+02 -0.24503455897E+02  0.44804083010E+02  0.52640972128E+02  0.10566000000E+00 0. -1.
         22    1    1    0    0    0  0.61158075841E+01 -0.83848624575E+01 -0.29981747407E+02  0.31727183903E+02  0.00000000000E+00 0. -1.
</event>
<event>
 5    1  0.1250806E-009  0.9118800E+02  0.7561462E-02  0.1125453E+00
         25   -1    0    0    0    0  0.00000000000E+00  0.00000000000E+00  0.99999998245E-14  0.12509000000E+03  0.12509000000E+03 0.  0.
        -13    1    3    3    0    0 -0.24691177191E+01 -0.34724726677E+02  0.16035028423E+02  0.38328011763E+02  0.10566000000E+00 0. -1.
         23    2    1    0    0    0 -0.13266473362E+02  0.29112285519E+01 -0.25989178417E+02  0.95765744478E+02  0.91165595778E+02 0.  0.
         13    1    3    3    0    0 -0.10797355643E+02  0.37635955229E+02 -0.42024206840E+02  0.57437732715E+02  0.10566000000E+00 0.  1.
         22    1    1    0    0    0  0.13266473362E+02 -0.29112285519E+01  0.25989178417E+02  0.29324255522E+02  0.00000000000E+00 0.  1.
</event>
<event>
 5    1  0.1250806E-009  0.9118800E+02  0.7561462E-02  0.1125453E+00
         25   -1    0    0    0    0  0.00000000000E+00  0.00000000000E+00  0.99999998245E-14  0.12509000000E+03  0.12509000000E+03 0.  0.
        -13    1    3    3    0    0 -0.14743167785E+02  0.25686991138E+02 -0.99185067173E+01  0.31234123160E+02  0.10566000000E+00 0.  1.
         23    2    1    0    0    0 -0.67837189699E+01 -0.31678492053E+02  0.77400716925E+01  0.91781526429E+02  0.85524231549E+02 0.  0.
         13    1    3    3    0    0  0.79594488151E+01 -0.57365483191E+02  0.17658578410E+02  0.60547403269E+02  0.10566000000E+00 0. -1.
         22    1    1    0    0    0  0.67837189699E+01  0.31678492053E+02 -0.77400716925E+01  0.33308473571E+02  0.00000000000E+00 0. -1.
</event>
<event>
 5    1  0.1250806E-009  0.9118800E+02  0.7561462E-02  0.1125453E+00
         25   -1    0    0    0    0  0.00000000000E+00  0.00000000000E+00  0.99999998245E-14  0.12509000000E+03  0.12509000000E+03 0.  0.
        -13    1    3    3    0    0  0.46829142315E+02 -0.34008698738E+02 -0.21915139136E+02  0.61885738642E+02  0.10566000000E+00 0. -1.
         23    2    1    0    0    0  0.18837468195E+02 -0.20289115786E+02 -0.14085209314E+02  0.94027296499E+02  0.88748188365E+02 0.  0.
         13    1    3    3    0    0 -0.27991674120E+02  0.13719582952E+02  0.78299298220E+01  0.32141557857E+02  0.10566000000E+00 0.  1.
         22    1    1    0    0    0 -0.18837468195E+02  0.20289115786E+02  0.14085209314E+02  0.31062703501E+02  0.00000000000E+00 0. -1.
</event>
<event>
 5    1  0.1250806E-009  0.9118800E+02  0.7561462E-02  0.1125453E+00
         25   -1    0    0    0    0  0.00000000000E+00  0.00000000000E+00  0.99999998245E-14  0.12509000000E+03  0.12509000000E+03 0.  0.
        -13    1    3    3    0    0  0.28032907848E+02 -0.24354694173E+02 -0.22221979159E+01  0.37201402907E+02  0.10566000000E+00 0.  1.
         23    2    1    0    0    0 -0.26536548576E+02 -0.76972663554E+01  0.10277943387E+02  0.95609965401E+02  0.90951597259E+02 0.  0.
         13    1    3    3    0    0 -0.54569456424E+02  0.16657427818E+02  0.12500141303E+02  0.58408562493E+02  0.10566000000E+00 0. -1.
         22    1    1    0    0    0  0.26536548576E+02  0.76972663554E+01 -0.10277943387E+02  0.29480034599E+02  0.00000000000E+00 0. -1.
</event>
<event>
 5    1  0.1250806E-009  0.9118800E+02  0.7561462E-02  0.1125453E+00
         25   -1    0    0    0    0  0.00000000000E+00  0.00000000000E+00  0.99999998245E-14  0.12509000000E+03  0.12509000000E+03 0.  0.
        -13    1    3    3    0    0 -0.36985591316E+01 -0.51684326019E+02  0.33640809604E+02  0.61779156117E+02  0.10566000000E+00 0.  1.
         23    2    1    0    0    0 -0.27905291920E+01 -0.27894964152E+02  0.10011713557E+02  0.95321720127E+02  0.90554292231E+02 0.  0.
         13    1    3    3    0    0  0.90802993956E+00  0.23789361866E+02 -0.23629096047E+02  0.33542564011E+02  0.10566000000E+00 0. -1.
         22    1    1    0    0    0  0.27905291920E+01  0.27894964152E+02 -0.10011713557E+02  0.29768279873E+02  0.00000000000E+00 0.  1.
</event>
<event>
 5    1  0.1250806E-009  0.9118800E+02  0.7561462E-02  0.1125453E+00
         25   -1    0    0    0    0  0.00000000000E+00  0.00000000000E+00  0.99999998245E-14  0.12509000000E+03  0.12509000000E+03 0.  0.
        -13    1    3    3    0    0 -0.48344845356E+01 -0.14417594220E+02  0.33156419066E+02  0.36477370425E+02  0.10566000000E+00 0. -1.
         23    2    1    0    0    0  0.26250120949E+02  0.12503961786E+02 -0.82824573203E+01  0.94857285774E+02  0.89910442414E+02 0.  0.
         13    1    3    3    0    0  0.31084605485E+02  0.26921556006E+02 -0.41438876387E+02  0.58379915349E+02  0.10566000000E+00 0.  1.
         22    1    1    0    0    0 -0.26250120949E+02 -0.12503961786E+02  0.82824573203E+01  0.30232714226E+02  0.00000000000E+00 0.  1.
</event>
<event>
 5    1  0.1250806E-009  0.9118800E+02  0.7561462E-02  0.1125453E+00
         25   -1    0    0    0    0  0.00000000000E+00  0.00000000000E+00  0.99999998245E-14  0.12509000000E+03  0.12509000000E+03 0.  0.
        -13    1    3    3    0    0 -0.25553461147E+02 -0.32527095596E+02 -0.40495207105E+02  0.57886650335E+02  0.10566000000E+00 0.  1.
         23    2    1    0    0    0 -0.91186416589E+01 -0.26291350991E+02 -0.59702906177E+01  0.96628989254E+02  0.92342473605E+02 0.  0.
         13    1    3    3    0    0  0.16434819488E+02  0.62357446053E+01  0.34524916487E+02  0.38742338919E+02  0.10566000000E+00 0. -1.
         22    1    1    0    0    0  0.91186416589E+01  0.26291350991E+02  0.59702906177E+01  0.28461010746E+02  0.00000000000E+00 0. -1.
</event>
<event>
 5    1  0.1250806E-009  0.9118800E+02  0.7561462E-02  0.1125453E+00
         25   -1    0    0    0    0  0.00000000000E+00  0.00000000000E+00  0.99999998245E-14  0.12509000000E+03  0.12509000000E+03 0.  0.
        -13    1    3    3    0    0 -0.14345620912E+02  0.37268436287E+02  0.41896582219E+02  0.57879771495E+02  0.10566000000E+00 0. -1.
         23    2    1    0    0    0  0.70159433533E+01  0.12460426070E+02  0.28404907512E+02  0.93288672201E+02  0.87700923093E+02 0.  0.
         13    1    3    3    0    0  0.21361564265E+02 -0.24808010217E+02 -0.13491674707E+02  0.35408900706E+02  0.10566000000E+00 0.  1.
         22    1    1    0    0    0 -0.70159433533E+01 -0.12460426070E+02 -0.28404907512E+02  0.31801327799E+02  0.00000000000E+00 0. -1.
</event>
<event>
 5    1  0.1250806E-009  0.9118800E+02  0.7561462E-02  0.1125453E+00
         25   -1    0    0    0    0  0.00000000000E+00  0.00000000000E+00  0.99999998245E-14  0.12509000000E+03  0.12509000000E+03 0.  0.
        -13    1    3    3    0    0  0.54560742248E+02 -0.19902027938E+02  0.86254328926E+01  0.58714347201E+02  0.10566000000E+00 0. -1.
         23    2    1    0    0    0  0.24415201669E+02  0.11858906903E+01  0.15507420979E+02  0.96141968725E+02  0.91680366686E+02 0.  0.
         13    1    3    3    0    0 -0.30145540578E+02  0.21087918629E+02  0.68819880863E+01  0.37427621523E+02  0.10566000000E+00 0.  1.
         22    1    1    0    0    0 -0.24415201669E+02 -0.11858906903E+01 -0.15507420979E+02  0.28948031275E+02  0.00000000000E+00 0. -1.
</event>
<event>
 5    1  0.1250806E-009  0.9118800E+02  0.7561462E-02  0.1125453E+00
         25   -1    0    0    0    0  0.00000000000E+00  0.00000000000E+00  0.99999998245E-14  0.12509000000E+03  0.12509000000E+03 0.  0.
        -13    1    3    3    0    0  0.32570146537E+02  0.87915137361E+01  0.82383350331E+01  0.34727316156E+02  0.10566000000E+00 0. -1.
         23    2    1    0    0    0  0.37114624980E+02 -0.29716447920E+02 -0.81991422314E+01  0.76842838449E+02  0.59808303966E+02 0.  0.
         13    1    3    3    0    0  0.45444784428E+01 -0.38507961656E+02 -0.16437477265E+02  0.42115522294E+02  0.10566000000E+00 0.  1.
         22    1    1    0    0    0 -0.37114624980E+02  0.29716447920E+02  0.81991422314E+01  0.48247161551E+02  0.00000000000E+00 0.  1.
</event>
<event>
 5    1  0.1250806E-009  0.9118800E+02  0.7561462E-02  0.1125453E+00
         25   -1    0    0    0    0  0.00000000000E+00  0.00000000000E+00  0.99999998245E-14  0.12509000000E+03  0.12509000000E+03 0.  0.
        -13    1    3    3    0    0 -0.31237461659E+02 -0.11806553677E+01  0.15929020804E+02  0.35084438513E+02  0.10566000000E+00 0. -1.
         23    2    1    0    0    0  0.18325706445E+02 -0.67119880882E+01 -0.20455972116E+02  0.96817591259E+02  0.92597607319E+02 0.  0.
         13    1    3    3    0    0  0.49563168104E+02 -0.55313327205E+01 -0.36384992920E+02  0.61733152746E+02  0.10566000000E+00 0.  1.
         22    1    1    0    0    0 -0.18325706445E+02  0.67119880882E+01  0.20455972116E+02  0.28272408741E+02  0.00000000000E+00 0.  1.
</event>
<event>
 5    1  0.1250806E-009  0.9118800E+02  0.7561462E-02  0.1125453E+00
         25   -1    0    0    0    0  0.00000000000E+00  0.00000000000E+00  0.99999998245E-14  0.12509000000E+03  0.12509000000E+03 0.  0.
        -13    1    3    3    0    0  0.13966304152E+02  0.51192096293E+02 -0.23909799361E+02  0.58201185933E+02  0.10566000000E+00 0. -1.
         23    2    1    0    0    0  0.98288880311E+01  0.15233089821E+02 -0.24754106909E+02  0.94407433708E+02  0.89282381604E+02 0.  0.
         13    1    3    3    0    0 -0.41374161210E+01 -0.35959006472E+02 -0.84430754834E+00  0.36206247774E+02  0.10566000000E+00 0.  1.
         22    1    1    0    0    0 -0.98288880311E+01 -0.15233089821E+02  0.24754106909E+02  0.30682566292E+02  0.00000000000E+00 0. -1.
</event>
<event>
 5    1  0.1250806E-009  0.9118800E+02  0.7561462E-02  0.1125453E+00
         25   -1    0    0    0    0  0.00000000000E+00  0.00000000000E+00  0.99999998245E-14  0.12509000000E+03  0.12509000000E+03 0.  0.
        -13    1    3    3    0    0 -0.38184971772E+02  0.18656540368E+02 -0.82485511853E+01  0.43292127788E+02  0.10566000000E+00 0.  1.
         23    2    1    0    0    0  0.59580026739E+01  0.20441916410E+02  0.20119992690E+02  0.95795224899E+02  0.91206037439E+02 0.  0.
         13    1    3    3    0    0  0.44142974446E+02  0.17853760423E+01  0.28368543875E+02  0.52503097111E+02  0.10566000000E+00 0. -1.
         22    1    1    0    0    0 -0.59580026739E+01 -0.20441916410E+02 -0.20119992690E+02  0.29294775101E+02  0.00000000000E+00 0. -1.
</event>
<event>
 5    1  0.1250806E-009  0.9118800E+02  0.7561462E-02  0.1125453E+00
         25   -1    0    0    0    0  0.00000000000E+00  0.00000000000E+00  0.99999998245E-14  0.12509000000E+03  0.12509000000E+03 0.  0.
        -13    1    3    3    0    0  0.15985619725E+01  0.56443978595E+02  0.63153702216E+01  0.56818774935E+02  0.10566000000E+00 0. -1.
         23    2    1    0    0    0  0.13292138749E+02  0.24056658518E+02 -0.11151317140E+02  0.95429324931E+02  0.90702813690E+02 0.  0.
         13    1    3    3    0    0  0.11693576777E+02 -0.32387320077E+02 -0.17466687362E+02  0.38610549996E+02  0.10566000000E+00 0.  1.
         22    1    1    0    0    0 -0.13292138749E+02 -0.24056658518E+02  0.11151317140E+02  0.29660675069E+02  0.00000000000E+00 0. -1.
</event>
<event>
 5    1  0.1250806E-009  0.9118800E+02  0.7561462E-02  0.1125453E+00
         25   -1    0    0    0    0  0.00000000000E+00  0.00000000000E+00  0.99999998245E-14  0.12509000000E+03  0.12509000000E+03 0.  0.
        -13    1    3    3    0    0 -0.33672347998E+02 -0.23022223928E+02  0.18525035350E+01  0.40832496221E+02  0.10566000000E+00 0. -1.
         23    2    1    0    0    0  0.18336362120E+02 -0.63305273942E+01  0.18853760616E+02  0.98038899426E+02  0.94233029021E+02 0.  0.
         13    1    3    3    0    0  0.52008710118E+02  0.16691696533E+02  0.17001257081E+02  0.57206403205E+02  0.10566000000E+00 0.  1.
         22    1    1    0    0    0 -0.18336362120E+02  0.63305273942E+01 -0.18853760616E+02  0.27051100574E+02  0.00000000000E+00 0.  1.
</event>
<event>
 5    1  0.1250806E-009  0.9118800E+02  0.7561462E-02  0.1125453E+00
         25   -1    0    0    0    0  0.00000000000E+00  0.00000000000E+00  0.99999998245E-14  0.12509000000E+03  0.12509000000E+03 0.  0.
        -13    1    3    3    0    0 -0.46233180964E+01 -0.73856266430E+01 -0.46238528793E+02  0.47052473475E+02  0.10566000000E+00 0. -1.
         23    2    1    0    0    0  0.58045454031E+01  0.25366958159E+02 -0.94381741803E+01  0.97408698632E+02  0.93392719864E+02 0.  0.
         13    1    3    3    0    0  0.10427863500E+02  0.32752584802E+02  0.36800354612E+02  0.50356225157E+02  0.10566000000E+00 0.  1.
         22    1    1    0    0    0 -0.58045454031E+01 -0.25366958159E+02  0.94381741803E+01  0.27681301368E+02  0.00000000000E+00 0.  1.
</event>
<event>
 5    1  0.1250806E-009  0.9118800E+02  0.7561462E-02  0.1125453E+00
         25   -1    0    0    0    0  0.00000000000E+00  0.00000000000E+00  0.99999998245E-14  0.12509000000E+03  0.12509000000E+03 0.  0.
        -13    1    3    3    0    0  0.57184296813E+02  0.98702425476E+01  0.12872770067E+02  0.59440599452E+02  0.10566000000E+00 0. -1.
         23    2    1    0    0    0  0.21201268145E+02  0.15340918081E+02  0.13071072053E+02  0.95837812678E+02  0.91264428316E+02 0.  0.
         13    1    3    3    0    0 -0.35983028668E+02  0.54706755329E+01  0.19830198603E+00  0.36397213226E+02  0.10566000000E+00 0.  1.
         22    1    1    0    0    0 -0.21201268145E+02 -0.15340918081E+02 -0.13071072053E+02  0.29252187322E+02  0.00000000000E+00 0. -1.
</event>
<event>
 5    1  0.1250806E-009  0.9118800E+02  0.7561462E-02  0.1125453E+00
         25   -1    0    0    0    0  0.00000000000E+00  0.00000000000E+00  0.99999998245E-14  0.12509000000E+03  0.12509000000E+03 0.  0.
        -13    1    3    3    0    0 -0.30363151142E+02 -0.10847398738E+02  0.50886133237E+02  0.60241154757E+02  0.10566000000E+00 0.  1.
         23    2    1    0    0    0 -0.23181253818E+02 -0.83425212279E+01  0.16548302961E+02  0.95411480497E+02  0.90678200747E+02 0.  0.
         13    1    3    3    0    0  0.71818973243E+01  0.25048775097E+01 -0.34337830276E+02  0.35170325739E+02  0.10566000000E+00 0. -1.
         22    1    1    0    0    0  0.23181253818E+02  0.83425212279E+01 -0.16548302961E+02  0.29678519503E+02  0.00000000000E+00 0.  1.
</event>
<event>
 5    1  0.1250806E-009  0.9118800E+02  0.7561462E-02  0.1125453E+00
         25   -1    0    0    0    0  0.00000000000E+00  0.00000000000E+00  0.99999998245E-14  0.12509000000E+03  0.12509000000E+03 0.  0.
        -13    1    3    3    0    0  0.28120005301E+02  0.18676687669E+02 -0.14741477169E+02  0.36835793375E+02  0.10566000000E+00 0.  1.
         23    2    1    0    0    0 -0.41441525078E+01 -0.28394058022E+02  0.20502480706E+01  0.96321961344E+02  0.91925623136E+02 0.  0.
         13    1    3    3    0    0 -0.32264157809E+02 -0.47070745691E+02  0.16791725239E+02  0.59486167969E+02  0.10566000000E+00 0. -1.
         22    1    1    0    0    0  0.41441525078E+01  0.28394058022E+02 -0.20502480706E+01  0.28768038656E+02  0.00000000000E+00 0. -1.
</event>
<event>
 5    1  0.1250806E-009  0.9118800E+02  0.7561462E-02  0.1125453E+00
         25   -1    0    0    0    0  0.00000000000E+00  0.00000000000E+00  0.99999998245E-14  0.12509000000E+03  0.12509000000E+03 0.  0.
        -13    1    3    3    0    0  0.37262402511E+02  0.44328509637E+02  0.20372680045E+02  0.61388603696E+02  0.10566000000E+00 0.  1.
         23    2    1    0    0    0  0.16904808409E+02  0.13208550509E+02  0.14885117915E+02  0.98978602311E+02  0.95472292453E+02 0.  0.
         13    1    3    3    0    0 -0.20357594102E+02 -0.31119959128E+02 -0.54875621295E+01  0.37589998615E+02  0.10566000000E+00 0. -1.
         22    1    1    0    0    0 -0.16904808409E+02 -0.13208550509E+02 -0.14885117915E+02  0.26111397689E+02  0.00000000000E+00 0.  1.
</event>
<event>
 5    1  0.1250806E-009  0.9118800E+02  0.7561462E-02  0.1125453E+00
         25   -1    0    0    0    0  0.00000000000E+00  0.00000000000E+00  0.99999998245E-14  0.12509000000E+03  0.12509000000E+03 0.  0.
        -13    1    3    3    0    0 -0.30413758888E+01 -0.18598278010E+02 -0.25929546488E+02  0.32054616787E+02  0.10566000000E+00 0. -1.
         23    2    1    0    0    0 -0.29770256911E+02 -0.16497998616E+02  0.20273502148E+02  0.85473500354E+02  0.75738050004E+02 0.  0.
         13    1    3    3    0    0 -0.26728881022E+02  0.21002793943E+01  0.46203048636E+02  0.53418883567E+02  0.10566000000E+00 0.  1.
         22    1    1    0    0    0  0.29770256911E+02  0.16497998616E+02 -0.20273502148E+02  0.39616499646E+02  0.00000000000E+00 0.  1.
</event>
<event>
 5    1  0.1250806E-009  0.9118800E+02  0.7561462E-02  0.1125453E+00
         25   -1    0    0    0    0  0.00000000000E+00  0.00000000000E+00  0.99999998245E-14  0.12509000000E+03  0.12509000000E+03 0.  0.
        -13    1    3    3    0    0 -0.65378443702E+01  0.54705324845E+02  0.24796003807E+02  0.60417455625E+02  0.10566000000E+00 0. -1.
         23    2    1    0    0    0  0.86678241687E+00  0.21282743373E+02  0.21526522230E+02  0.94806380062E+02  0.89839590738E+02 0.  0.
         13    1    3    3    0    0  0.74046267871E+01 -0.33422581472E+02 -0.32694815768E+01  0.34388924437E+02  0.10566000000E+00 0.  1.
         22    1    1    0    0    0 -0.86678241687E+00 -0.21282743373E+02 -0.21526522230E+02  0.30283619938E+02  0.00000000000E+00 0. -1.
</event>
<event>
 5    1  0.1250806E-009  0.9118800E+02  0.7561462E-02  0.1125453E+00
         25   -1    0    0    0    0  0.00000000000E+00  0.00000000000E+00  0.99999998245E-14  0.12509000000E+03  0.12509000000E+03 0.  0.
        -13    1    3    3    0    0 -0.32119088522E+02  0.20534885142E+01 -0.47080939393E+02  0.57030506580E+02  0.10566000000E+00 0.  1.
         23    2    1    0    0    0 -0.20191111886E+02  0.16934737765E+02 -0.13914962128E+02  0.95289118916E+02  0.90509246326E+02 0.  0.
         13    1    3    3    0    0  0.11927976636E+02  0.14881249251E+02  0.33165977265E+02  0.38258612336E+02  0.10566000000E+00 0. -1.
         22    1    1    0    0    0  0.20191111886E+02 -0.16934737765E+02  0.13914962128E+02  0.29800881084E+02  0.00000000000E+00 0.  1.
</event>
<event>
 5    1  0.1250806E-009  0.9118800E+02  0.7561462E-02  0.1125453E+00
         25   -1    0    0    0    0  0.00000000000E+00  0.00000000000E+00  0.99999998245E-14  0.12509000000E+03  0.12509000000E+03 0.  0.
        -13    1    3    3    0    0  0.10281449707E+02  0.28061861488E+02  0.13324107531E+02  0.32721847193E+02  0.10566000000E+00 0.  1.
         23    2    1    0    0    0 -0.13370704521E+02 -0.26520803054E+02 -0.50093092098E+01  0.94969875286E+02  0.90066948983E+02 0.  0.
         13    1    3    3    0    0 -0.23652154228E+02 -0.54582664541E+02 -0.18333416740E+02  0.62248028093E+02  0.10566000000E+00 0. -1.
         22    1    1    0    0    0  0.13370704521E+02  0.26520803054E+02  0.50093092098E+01  0.30120124714E+02  0.00000000000E+00 0. -1.
</event>
<event>
 5    1  0.1250806E-009  0.9118800E+02  0.7561462E-02  0.1125453E+00
         25   -1    0    0    0    0  0.00000000000E+00  0.00000000000E+00  0.99999998245E-14  0.12509000000E+03  0.12509000000E+03 0.  0.
        -13    1    3    3    0    0 -0.22498760157E+02 -0.50100801132E+02  0.60063736442E+01  0.55248277539E+02  0.10566000000E+00 0.  1.
         23    2    1    0    0    0 -0.18409854544E+02 -0.16996068588E+02  0.21543629968E+02  0.92045831317E+02  0.85909941094E+02 0.  0.
         13    1    3    3    0    0  0.40889056130E+01  0.33104732544E+02  0.15537256324E+02  0.36797553778E+02  0.10566000000E+00 0. -1.
         22    1    1    0    0    0  0.18409854544E+02  0.16996068588E+02 -0.21543629968E+02  0.33044168683E+02  0.00000000000E+00 0.  1.
</event>
<event>
 5    1  0.1250806E-009  0.9118800E+02  0.7561462E-02  0.1125453E+00
         25   -1    0    0    0    0  0.00000000000E+00  0.00000000000E+00  0.99999998245E-14  0.12509000000E+03  0.12509000000E+03 0.  0.
        -13    1    3    3    0    0  0.42468721379E+01  0.30989085660E+02  0.28087467987E+02  0.42038986370E+02  0.10566000000E+00 0. -1.
         23    2    1    0    0    0 -0.22464392373E+02 -0.13493849765E+02  0.11031924505E+02  0.96656986364E+02  0.92380391580E+02 0.  0.
         13    1    3    3    0    0 -0.26711264511E+02 -0.44482935426E+02 -0.17055543482E+02  0.54617999994E+02  0.10566000000E+00 0.  1.
         22    1    1    0    0    0  0.22464392373E+02  0.13493849765E+02 -0.11031924505E+02  0.28433013636E+02  0.00000000000E+00 0.  1.
</event>
<event>
 5    1  0.1250806E-009  0.9118800E+02  0.7561462E-02  0.1125453E+00
         25   -1    0    0    0    0  0.00000000000E+00  0.00000000000E+00  0.99999998245E-14  0.12509000000E+03  0.12509000000E+03 0.  0.
        -13    1    3    3    0    0 -0.48321920749E+02 -0.29293666318E+02  0.10587070061E+02  0.57491078679E+02  0.10566000000E+00 0.  1.
         23    2    1    0    0    0 -0.90086115114E+01 -0.25502260061E+02  0.70169336575E+01  0.97147958065E+02  0.93042829109E+02 0.  0.
         13    1    3    3    0    0  0.39313309237E+02  0.37914062575E+01 -0.35701364036E+01  0.39656879385E+02  0.10566000000E+00 0. -1.
         22    1    1    0    0    0  0.90086115114E+01  0.25502260061E+02 -0.70169336575E+01  0.27942041935E+02  0.00000000000E+00 0.  1.
</event>
<event>
 5    1  0.1250806E-009  0.9118800E+02  0.7561462E-02  0.1125453E+00
         25   -1    0    0    0    0  0.00000000000E+00  0.00000000000E+00  0.99999998245E-14  0.12509000000E+03  0.12509000000E+03 0.  0.
        -13    1    3    3    0    0 -0.17159174873E+02  0.10047065822E+02  0.24277041957E+02  0.31380993358E+02  0.10566000000E+00 0.  1.
         23    2    1    0    0    0  0.84864573656E+01 -0.16405037208E+02 -0.25681882785E+02  0.93456089274E+02  0.87939390006E+02 0.  0.
         13    1    3    3    0    0  0.25645632239E+02 -0.26452103031E+02 -0.49958924741E+02  0.62075095916E+02  0.10566000000E+00 0. -1.
         22    1    1    0    0    0 -0.84864573656E+01  0.16405037208E+02  0.25681882785E+02  0.31633910726E+02  0.00000000000E+00 0. -1.
</event>
<event>
 5    1  0.1250806E-009  0.9118800E+02  0.7561462E-02  0.1125453E+00
         25   -1    0    0    0    0  0.00000000000E+00  0.00000000000E+00  0.99999998245E-14  0.12509000000E+03  0.12509000000E+03 0.  0.
        -13    1    3    3    0    0 -0.17218606749E+02 -0.52824094829E+02 -0.14429211768E+02  0.57402776319E+02  0.10566000000E+00 0.  1.
         23    2    1    0    0    0 -0.92646153862E+01 -0.21275554602E+02 -0.24385440751E+02  0.91427973286E+02  0.85005542506E+02 0.  0.
         13    1    3    3    0    0  0.79539913629E+01  0.31548540227E+02 -0.99562289825E+01  0.34025196967E+02  0.10566000000E+00 0. -1.
         22    1    1    0    0    0  0.92646153862E+01  0.21275554602E+02  0.24385440751E+02  0.33662026714E+02  0.00000000000E+00 0.  1.
</event>
<event>
 5    1  0.1250806E-009  0.9118800E+02  0.7561462E-02  0.1125453E+00
         25   -1    0    0    0    0  0.00000000000E+00  0.00000000000E+00  0.99999998245E-14  0.12509000000E+03  0.12509000000E+03 0.  0.
        -13    1    3    3    0    0  0.19854664523E+02  0.72794577783E+01 -0.83325979558E+01  0.22729750584E+02  0.10566000000E+00 0. -1.
         23    2    1    0    0    0 -0.36475333455E+02 -0.17528826653E+02 -0.30996134222E+01  0.84502842945E+02  0.74117563019E+02 0.  0.
         13    1    3    3    0    0 -0.56329997978E+02 -0.24808284431E+02  0.52329845336E+01  0.61773092361E+02  0.10566000000E+00 0.  1.
         22    1    1    0    0    0  0.36475333455E+02  0.17528826653E+02  0.30996134222E+01  0.40587157055E+02  0.00000000000E+00 0.  1.
</event>
<event>
 5    1  0.1250806E-009  0.9118800E+02  0.7561462E-02  0.1125453E+00
         25   -1    0    0    0    0  0.00000000000E+00  0.00000000000E+00  0.99999998245E-14  0.12509000000E+03  0.12509000000E+03 0.  0.
        -13    1    3    3    0    0  0.32363126316E+02 -0.34317816317E+02 -0.32167925206E+02  0.57095280346E+02  0.10566000000E+00 0. -1.
         23    2    1    0    0    0  0.24235851342E+02 -0.17921533115E+02  0.94962848057E+00  0.94932751557E+02  0.90015374711E+02 0.  0.
         13    1    3    3    0    0 -0.81272749745E+01  0.16396283202E+02  0.33117553687E+02  0.37837471210E+02  0.10566000000E+00 0.  1.
         22    1    1    0    0    0 -0.24235851342E+02  0.17921533115E+02 -0.94962848057E+00  0.30157248443E+02  0.00000000000E+00 0. -1.
</event>
<event>
 5    1  0.1250806E-009  0.9118800E+02  0.7561462E-02  0.1125453E+00
         25   -1    0    0    0    0  0.00000000000E+00  0.00000000000E+00  0.99999998245E-14  0.12509000000E+03  0.12509000000E+03 0.  0.
        -13    1    3    3    0    0  0.18873868061E+01  0.30866459746E+01  0.48113160806E+02  0.48249114180E+02  0.10566000000E+00 0.  1.
         23    2    1    0    0    0 -0.26667630321E+02 -0.37132188342E+01  0.99724086937E+01  0.96377643144E+02  0.92001362282E+02 0.  0.
         13    1    3    3    0    0 -0.28555017127E+02 -0.67998648087E+01 -0.38140752112E+02  0.48128528965E+02  0.10566000000E+00 0. -1.
         22    1    1    0    0    0  0.26667630321E+02  0.37132188342E+01 -0.99724086937E+01  0.28712356856E+02  0.00000000000E+00 0.  1.
</event>
<event>
 5    1  0.1250806E-009  0.9118800E+02  0.7561462E-02  0.1125453E+00
         25   -1    0    0    0    0  0.00000000000E+00  0.00000000000E+00  0.99999998245E-14  0.12509000000E+03  0.12509000000E+03 0.  0.
        -13    1    3    3    0    0 -0.31954601619E+02  0.30550411934E+02 -0.44502300088E+01  0.44432419978E+02  0.10566000000E+00 0.  1.
         23    2    1    0    0    0  0.17615645822E+02  0.24959219933E+02 -0.36468019853E+01  0.94323576710E+02  0.89164815489E+02 0.  0.
         13    1    3    3    0    0  0.49570247441E+02 -0.55911920012E+01  0.80342802344E+00  0.49891156731E+02  0.10566000000E+00 0. -1.
         22    1    1    0    0    0 -0.17615645822E+02 -0.24959219933E+02  0.36468019853E+01  0.30766423290E+02  0.00000000000E+00 0. -1.
</event>
<event>
 5    1  0.1250806E-009  0.9118800E+02  0.7561462E-02  0.1125453E+00
         25   -1    0    0    0    0  0.00000000000E+00  0.00000000000E+00  0.99999998245E-14  0.12509000000E+03  0.12509000000E+03 0.  0.
        -13    1    3    3    0    0 -0.17197212224E+02 -0.35263874045E+02  0.40738970391E+01  0.39444806022E+02  0.10566000000E+00 0. -1.
         23    2    1    0    0    0 -0.35220930165E+01  0.15625524526E+02  0.24381830640E+02  0.95917481746E+02  0.91373560089E+02 0.  0.
         13    1    3    3    0    0  0.13675119208E+02  0.50889398572E+02  0.20307933600E+02  0.56472675724E+02  0.10566000000E+00 0.  1.
         22    1    1    0    0    0  0.35220930165E+01 -0.15625524526E+02 -0.24381830640E+02  0.29172518254E+02  0.00000000000E+00 0. -1.
</event>
<event>
 5    1  0.1250806E-009  0.9118800E+02  0.7561462E-02  0.1125453E+00
         25   -1    0    0    0    0  0.00000000000E+00  0.00000000000E+00  0.99999998245E-14  0.12509000000E+03  0.12509000000E+03 0.  0.
        -13    1    3    3    0    0  0.50770707186E+01 -0.38512853895E+02  0.16325064480E+02  0.42137103086E+02  0.10566000000E+00 0. -1.
         23    2    1    0    0    0  0.20304964822E+02  0.11634386500E+02  0.19481300097E+02  0.94640507408E+02  0.89608336907E+02 0.  0.
         13    1    3    3    0    0  0.15227894103E+02  0.50147240395E+02  0.31562356171E+01  0.52503404321E+02  0.10566000000E+00 0.  1.
         22    1    1    0    0    0 -0.20304964822E+02 -0.11634386500E+02 -0.19481300097E+02  0.30449492592E+02  0.00000000000E+00 0.  1.
</event>
<event>
 5    1  0.1250806E-009  0.9118800E+02  0.7561462E-02  0.1125453E+00
         25   -1    0    0    0    0  0.00000000000E+00  0.00000000000E+00  0.99999998245E-14  0.12509000000E+03  0.12509000000E+03 0.  0.
        -13    1    3    3    0    0 -0.40459840789E+02  0.28135150528E+02 -0.23346745702E+02  0.54531340629E+02  0.10566000000E+00 0.  1.
         23    2    1    0    0    0 -0.25941160027E+02  0.35842549962E+01  0.87584503739E+01  0.97476577170E+02  0.93483592017E+02 0.  0.
         13    1    3    3    0    0  0.14518680762E+02 -0.24550895532E+02  0.32105196076E+02  0.42945236541E+02  0.10566000000E+00 0. -1.
         22    1    1    0    0    0  0.25941160027E+02 -0.35842549962E+01 -0.87584503739E+01  0.27613422830E+02  0.00000000000E+00 0.  1.
</event>
<event>
 5    1  0.1250806E-009  0.9118800E+02  0.7561462E-02  0.1125453E+00
         25   -1    0    0    0    0  0.00000000000E+00  0.00000000000E+00  0.99999998245E-14  0.12509000000E+03  0.12509000000E+03 0.  0.
        -13    1    3    3    0    0 -0.13497122579E+02  0.51664765703E+02 -0.12349291369E+02  0.54808179083E+02  0.10566000000E+00 0. -1.
         23    2    1    0    0    0  0.10025130244E+02  0.33903510925E+02  0.55649488185E+01  0.89300058050E+02  0.81814304512E+02 0.  0.
         13    1    3    3    0    0  0.23522252823E+02 -0.17761254778E+02  0.17914240188E+02  0.34491878967E+02  0.10566000000E+00 0.  1.
         22    1    1    0    0    0 -0.10025130244E+02 -0.33903510925E+02 -0.55649488185E+01  0.35789941950E+02  0.00000000000E+00 0. -1.
</event>
<event>
 5    1  0.1250806E-009  0.9118800E+02  0.7561462E-02  0.1125453E+00
         25   -1    0    0    0    0  0.00000000000E+00  0.00000000000E+00  0.99999998245E-14  0.12509000000E+03  0.12509000000E+03 0.  0.
        -13    1    3    3    0    0  0.48236732724E+02 -0.19052541839E+02 -0.20078227670E+02  0.55614100054E+02  0.10566000000E+00 0. -1.
         23    2    1    0    0    0  0.21642171526E+02 -0.18400756692E+02  0.92542721942E+01  0.95213370521E+02  0.90404496220E+02 0.  0.
         13    1    3    3    0    0 -0.26594561198E+02  0.65178514769E+00  0.29332499864E+02  0.39599270467E+02  0.10566000000E+00 0.  1.
         22    1    1    0    0    0 -0.21642171526E+02  0.18400756692E+02 -0.92542721942E+01  0.29876629479E+02  0.00000000000E+00 0. -1.
</event>
<event>
 5    1  0.1250806E-009  0.9118800E+02  0.7561462E-02  0.1125453E+00
         25   -1    0    0    0    0  0.00000000000E+00  0.00000000000E+00  0.99999998245E-14  0.12509000000E+03  0.12509000000E+03 0.  0.
        -13    1    3    3    0    0  0.63909239526E+01  0.12909943786E+02  0.27157763904E+02  0.30741923522E+02  0.10566000000E+00 0. -1.
         23    2    1    0    0    0 -0.17133599159E+02  0.12670715907E+02 -0.27530462642E+02  0.90275726562E+02  0.83292695786E+02 0.  0.
         13    1    3    3    0    0 -0.23524523112E+02 -0.23922787947E+00 -0.54688226546E+02  0.59533803040E+02  0.10566000000E+00 0.  1.
         22    1    1    0    0    0  0.17133599159E+02 -0.12670715907E+02  0.27530462642E+02  0.34814273438E+02  0.00000000000E+00 0.  1.
</event>
<event>
 5    1  0.1250806E-009  0.9118800E+02  0.7561462E-02  0.1125453E+00
         25   -1    0    0    0    0  0.00000000000E+00  0.00000000000E+00  0.99999998245E-14  0.12509000000E+03  0.12509000000E+03 0.  0.
        -13    1    3    3    0    0 -0.57566771773E+02 -0.52853098181E+01 -0.17577775612E+02  0.60422322628E+02  0.10566000000E+00 0.  1.
         23    2    1    0    0    0 -0.24195753926E+02 -0.13383877940E+02 -0.10682028436E+02  0.95447658186E+02  0.90728093912E+02 0.  0.
         13    1    3    3    0    0  0.33371017848E+02 -0.80985681215E+01  0.68957471754E+01  0.35025335558E+02  0.10566000000E+00 0. -1.
         22    1    1    0    0    0  0.24195753926E+02  0.13383877940E+02  0.10682028436E+02  0.29642341814E+02  0.00000000000E+00 0.  1.
</event>
<event>
 5    1  0.1250806E-009  0.9118800E+02  0.7561462E-02  0.1125453E+00
         25   -1    0    0    0    0  0.00000000000E+00  0.00000000000E+00  0.99999998245E-14  0.12509000000E+03  0.12509000000E+03 0.  0.
        -13    1    3    3    0    0  0.16064937241E+02  0.49154003153E+02 -0.45121952587E+01  0.51909241033E+02  0.10566000000E+00 0.  1.
         23    2    1    0    0    0 -0.17670277652E+02  0.22579402868E+02  0.52290792064E+01  0.95945336414E+02  0.91411685052E+02 0.  0.
         13    1    3    3    0    0 -0.33735214893E+02 -0.26574600285E+02  0.97412744651E+01  0.44036095381E+02  0.10566000000E+00 0. -1.
         22    1    1    0    0    0  0.17670277652E+02 -0.22579402868E+02 -0.52290792064E+01  0.29144663586E+02  0.00000000000E+00 0.  1.
</event>
<event>
 5    1  0.1250806E-009  0.9118800E+02  0.7561462E-02  0.1125453E+00
         25   -1    0    0    0    0  0.00000000000E+00  0.00000000000E+00  0.99999998245E-14  0.12509000000E+03  0.12509000000E+03 0.  0.
        -13    1    3    3    0    0  0.38271990730E+02  0.20263611180E+02 -0.12501311700E+02  0.45073863500E+02  0.10566000000E+00 0.  1.
         23    2    1    0    0    0  0.30221864528E+02 -0.13396186878E+02 -0.26812815794E+02  0.82525390179E+02  0.70701442806E+02 0.  0.
         13    1    3    3    0    0 -0.80501262020E+01 -0.33659798057E+02 -0.14311504094E+02  0.37451526679E+02  0.10566000000E+00 0. -1.
         22    1    1    0    0    0 -0.30221864528E+02  0.13396186878E+02  0.26812815794E+02  0.42564609821E+02  0.00000000000E+00 0.  1.
</event>
<event>
 5    1  0.1250806E-009  0.9118800E+02  0.7561462E-02  0.1125453E+00
         25   -1    0    0    0    0  0.00000000000E+00  0.00000000000E+00  0.99999998245E-14  0.12509000000E+03  0.12509000000E+03 0.  0.
        -13    1    3    3    0    0  0.28909410811E+01 -0.33148057430E+02 -0.22104848743E+02  0.39947299704E+02  0.10566000000E+00 0.  1.
         23    2    1    0    0    0  0.19203590865E+02 -0.18347029481E+02  0.22879421631E+02  0.90034910112E+02  0.82930246062E+02 0.  0.
         13    1    3    3    0    0  0.16312649784E+02  0.14801027948E+02  0.44984270373E+02  0.50087610408E+02  0.10566000000E+00 0. -1.
         22    1    1    0    0    0 -0.19203590865E+02  0.18347029481E+02 -0.22879421631E+02  0.35055089888E+02  0.00000000000E+00 0. -1.
</event>
<event>
 5    1  0.1250806E-009  0.9118800E+02  0.7561462E-02  0.1125453E+00
         25   -1    0    0    0    0  0.00000000000E+00  0.00000000000E+00  0.99999998245E-14  0.12509000000E+03  0.12509000000E+03 0.  0.
        -13    1    3    3    0    0  0.46211045141E+02  0.40427542150E+02 -0.29054372376E+01  0.61467874430E+02  0.10566000000E+00 0. -1.
         23    2    1    0    0    0  0.21458230228E+02  0.18416203758E+02 -0.95336358666E+01  0.95248712859E+02  0.90453385139E+02 0.  0.
         13    1    3    3    0    0 -0.24752814912E+02 -0.22011338392E+02 -0.66281986290E+01  0.33780838430E+02  0.10566000000E+00 0.  1.
         22    1    1    0    0    0 -0.21458230228E+02 -0.18416203758E+02  0.95336358666E+01  0.29841287141E+02  0.00000000000E+00 0. -1.
</event>
<event>
 5    1  0.1250806E-009  0.9118800E+02  0.7561462E-02  0.1125453E+00
         25   -1    0    0    0    0  0.00000000000E+00  0.00000000000E+00  0.99999998245E-14  0.12509000000E+03  0.12509000000E+03 0.  0.
        -13    1    3    3    0    0 -0.70718920006E+01  0.33310309995E+02 -0.10537031825E+02  0.35645877912E+02  0.10566000000E+00 0.  1.
         23    2    1    0    0    0 -0.33875096103E+01 -0.27077317826E+02 -0.96286258942E+01  0.96152709203E+02  0.91695019977E+02 0.  0.
         13    1    3    3    0    0  0.36843823903E+01 -0.60387627822E+02  0.90840593065E+00  0.60506831291E+02  0.10566000000E+00 0. -1.
         22    1    1    0    0    0  0.33875096103E+01  0.27077317826E+02  0.96286258942E+01  0.28937290797E+02  0.00000000000E+00 0. -1.
</event>
<event>
 5    1  0.1250806E-009  0.9118800E+02  0.7561462E-02  0.1125453E+00
         25   -1    0    0    0    0  0.00000000000E+00  0.00000000000E+00  0.99999998245E-14  0.12509000000E+03  0.12509000000E+03 0.  0.
        -13    1    3    3    0    0  0.15059900695E+02  0.39977556604E+02  0.38504126054E+02  0.57511603423E+02  0.10566000000E+00 0. -1.
         23    2    1    0    0    0  0.89075047047E+01  0.33257040274E+01  0.27074911838E+02  0.96394097882E+02  0.92023732309E+02 0.  0.
         13    1    3    3    0    0 -0.61523959906E+01 -0.36651852577E+02 -0.11429214216E+02  0.38882494459E+02  0.10566000000E+00 0.  1.
         22    1    1    0    0    0 -0.89075047047E+01 -0.33257040274E+01 -0.27074911838E+02  0.28695902118E+02  0.00000000000E+00 0. -1.
</event>
<event>
 5    1  0.1250806E-009  0.9118800E+02  0.7561462E-02  0.1125453E+00
         25   -1    0    0    0    0  0.00000000000E+00  0.00000000000E+00  0.99999998245E-14  0.12509000000E+03  0.12509000000E+03 0.  0.
        -13    1    3    3    0    0 -0.33905071630E+02  0.30117642440E+02 -0.16119404017E+02  0.48129747748E+02  0.10566000000E+00 0. -1.
         23    2    1    0    0    0 -0.33793186737E+02 -0.90208145369E+01 -0.14277060176E+02  0.87311844778E+02  0.78715749545E+02 0.  0.
         13    1    3    3    0    0  0.11188489302E+00 -0.39138456977E+02  0.18423438410E+01  0.39182097030E+02  0.10566000000E+00 0.  1.
         22    1    1    0    0    0  0.33793186737E+02  0.90208145369E+01  0.14277060176E+02  0.37778155222E+02  0.00000000000E+00 0.  1.
</event>
<event>
 5    1  0.1250806E-009  0.9118800E+02  0.7561462E-02  0.1125453E+00
         25   -1    0    0    0    0  0.00000000000E+00  0.00000000000E+00  0.99999998245E-14  0.12509000000E+03  0.12509000000E+03 0.  0.
        -13    1    3    3    0    0  0.49513095957E+02 -0.20038599777E+02  0.27921809142E+02  0.60272139020E+02  0.10566000000E+00 0. -1.
         23    2    1    0    0    0  0.16523202991E+02 -0.19413631111E+02  0.12642668378E+02  0.96634027451E+02  0.92349298252E+02 0.  0.
         13    1    3    3    0    0 -0.32989892966E+02  0.62496866546E+00 -0.15279140764E+02  0.36361888431E+02  0.10566000000E+00 0.  1.
         22    1    1    0    0    0 -0.16523202991E+02  0.19413631111E+02 -0.12642668378E+02  0.28455972549E+02  0.00000000000E+00 0. -1.
</event>
<event>
 5    1  0.1250806E-009  0.9118800E+02  0.7561462E-02  0.1125453E+00
         25   -1    0    0    0    0  0.00000000000E+00  0.00000000000E+00  0.99999998245E-14  0.12509000000E+03  0.12509000000E+03 0.  0.
        -13    1    3    3    0    0  0.50113064800E+02  0.26988214614E+02  0.20139830976E+02  0.60376377396E+02  0.10566000000E+00 0. -1.
         23    2    1    0    0    0  0.15708405260E+02  0.19759553007E+02  0.14491790563E+02  0.95983197968E+02  0.91463481060E+02 0.  0.
         13    1    3    3    0    0 -0.34404659540E+02 -0.72286616077E+01 -0.56480404132E+01  0.35606820572E+02  0.10566000000E+00 0.  1.
         22    1    1    0    0    0 -0.15708405260E+02 -0.19759553007E+02 -0.14491790563E+02  0.29106802032E+02  0.00000000000E+00 0. -1.
</event>
<event>
 5    1  0.1250806E-009  0.9118800E+02  0.7561462E-02  0.1125453E+00
         25   -1    0    0    0    0  0.00000000000E+00  0.00000000000E+00  0.99999998245E-14  0.12509000000E+03  0.12509000000E+03 0.  0.
        -13    1    3    3    0    0 -0.24946412456E+02  0.48212083932E+02 -0.30715041901E+02  0.62371095024E+02  0.10566000000E+00 0. -1.
         23    2    1    0    0    0 -0.11043333116E+02  0.26487133109E+02 -0.18799111052E+02  0.90783586562E+02  0.84051945760E+02 0.  0.
         13    1    3    3    0    0  0.13903079340E+02 -0.21724950823E+02  0.11915930849E+02  0.28412491538E+02  0.10566000000E+00 0.  1.
         22    1    1    0    0    0  0.11043333116E+02 -0.26487133109E+02  0.18799111052E+02  0.34306413438E+02  0.00000000000E+00 0. -1.
</event>
<event>
 5    1  0.1250806E-009  0.9118800E+02  0.7561462E-02  0.1125453E+00
         25   -1    0    0    0    0  0.00000000000E+00  0.00000000000E+00  0.99999998245E-14  0.12509000000E+03  0.12509000000E+03 0.  0.
        -13    1    3    3    0    0  0.34874662076E+02  0.26079138402E+02 -0.44628156297E+02  0.62354206059E+02  0.10566000000E+00 0. -1.
         23    2    1    0    0    0  0.16904731899E+02  0.86404315691E+01 -0.20958389403E+02  0.96811366641E+02  0.92589198108E+02 0.  0.
         13    1    3    3    0    0 -0.17969930177E+02 -0.17438706832E+02  0.23669766894E+02  0.34457160582E+02  0.10566000000E+00 0.  1.
         22    1    1    0    0    0 -0.16904731899E+02 -0.86404315691E+01  0.20958389403E+02  0.28278633359E+02  0.00000000000E+00 0. -1.
</event>
<event>
 5    1  0.1250806E-009  0.9118800E+02  0.7561462E-02  0.1125453E+00
         25   -1    0    0    0    0  0.00000000000E+00  0.00000000000E+00  0.99999998245E-14  0.12509000000E+03  0.12509000000E+03 0.  0.
        -13    1    3    3    0    0  0.11071750553E+02 -0.20942838829E+02  0.29251884776E+02  0.37641334800E+02  0.10566000000E+00 0.  1.
         23    2    1    0    0    0 -0.10707603008E+02 -0.18652200172E+02 -0.22577950684E+02  0.93907934793E+02  0.88579789041E+02 0.  0.
         13    1    3    3    0    0 -0.21779353561E+02  0.22906386567E+01 -0.51829835460E+02  0.56266599994E+02  0.10566000000E+00 0. -1.
         22    1    1    0    0    0  0.10707603008E+02  0.18652200172E+02  0.22577950684E+02  0.31182065207E+02  0.00000000000E+00 0. -1.
</event>
<event>
 5    1  0.1250806E-009  0.9118800E+02  0.7561462E-02  0.1125453E+00
         25   -1    0    0    0    0  0.00000000000E+00  0.00000000000E+00  0.99999998245E-14  0.12509000000E+03  0.12509000000E+03 0.  0.
        -13    1    3    3    0    0  0.84051161854E+01 -0.27948973429E+02 -0.17184426804E+02  0.33868964886E+02  0.10566000000E+00 0.  1.
         23    2    1    0    0    0  0.17933802956E+02  0.78376134872E+01  0.27140528190E+02  0.91628712756E+02  0.85300429408E+02 0.  0.
         13    1    3    3    0    0  0.95286867705E+01  0.35786586916E+02  0.44324954994E+02  0.57759747869E+02  0.10566000000E+00 0. -1.
         22    1    1    0    0    0 -0.17933802956E+02 -0.78376134872E+01 -0.27140528190E+02  0.33461287244E+02  0.00000000000E+00 0. -1.
</event>
<event>
 5    1  0.1250806E-009  0.9118800E+02  0.7561462E-02  0.1125453E+00
         25   -1    0    0    0    0  0.00000000000E+00  0.00000000000E+00  0.99999998245E-14  0.12509000000E+03  0.12509000000E+03 0.  0.
        -13    1    3    3    0    0 -0.34473292316E+02 -0.21990049454E+02  0.45351004257E+02  0.61063040452E+02  0.10566000000E+00 0.  1.
         23    2    1    0    0    0 -0.12520069204E+02 -0.18730210367E+02  0.18222159869E+02  0.96113802465E+02  0.91641928181E+02 0.  0.
         13    1    3    3    0    0  0.21953223112E+02  0.32598390869E+01 -0.27128844388E+02  0.35050762013E+02  0.10566000000E+00 0. -1.
         22    1    1    0    0    0  0.12520069204E+02  0.18730210367E+02 -0.18222159869E+02  0.28976197535E+02  0.00000000000E+00 0.  1.
</event>
<event>
 5    1  0.1250806E-009  0.9118800E+02  0.7561462E-02  0.1125453E+00
         25   -1    0    0    0    0  0.00000000000E+00  0.00000000000E+00  0.99999998245E-14  0.12509000000E+03  0.12509000000E+03 0.  0.
        -13    1    3    3    0    0  0.92578785822E+01  0.22157335926E+01 -0.51421681821E+02  0.52295490403E+02  0.10566000000E+00 0. -1.
         23    2    1    0    0    0 -0.20376522238E+02 -0.50813700072E+01 -0.20466539819E+02  0.95765910384E+02  0.91165823420E+02 0.  0.
         13    1    3    3    0    0 -0.29634400820E+02 -0.72971035998E+01  0.30955142002E+02  0.43470419981E+02  0.10566000000E+00 0.  1.
         22    1    1    0    0    0  0.20376522238E+02  0.50813700072E+01  0.20466539819E+02  0.29324089616E+02  0.00000000000E+00 0. -1.
</event>
<event>
 5    1  0.1250806E-009  0.9118800E+02  0.7561462E-02  0.1125453E+00
         25   -1    0    0    0    0  0.00000000000E+00  0.00000000000E+00  0.99999998245E-14  0.12509000000E+03  0.12509000000E+03 0.  0.
        -13    1    3    3    0    0  0.98979046207E+01 -0.17842175610E+02 -0.28739236989E+02  0.35245803341E+02  0.10566000000E+00 0.  1.
         23    2    1    0    0    0 -0.24681500162E+02  0.12002137695E+02  0.10738459005E+02  0.95618958938E+02  0.90963965652E+02 0.  0.
         13    1    3    3    0    0 -0.34579404783E+02  0.29844313305E+02  0.39477695994E+02  0.60373155597E+02  0.10566000000E+00 0. -1.
         22    1    1    0    0    0  0.24681500162E+02 -0.12002137695E+02 -0.10738459005E+02  0.29471041062E+02  0.00000000000E+00 0. -1.
</event>
<event>
 5    1  0.1250806E-009  0.9118800E+02  0.7561462E-02  0.1125453E+00
         25   -1    0    0    0    0  0.00000000000E+00  0.00000000000E+00  0.99999998245E-14  0.12509000000E+03  0.12509000000E+03 0.  0.
        -13    1    3    3    0    0  0.20954695407E+02  0.26389377146E+02 -0.18720608960E+02  0.38548292435E+02  0.10566000000E+00 0. -1.
         23    2    1    0    0    0 -0.66956171285E+01 -0.15056427169E+02 -0.31107424321E+02  0.89887739622E+02  0.82707959705E+02 0.  0.
         13    1    3    3    0    0 -0.27650312536E+02 -0.41445804316E+02 -0.12386815361E+02  0.51339447187E+02  0.10566000000E+00 0.  1.
         22    1    1    0    0    0  0.66956171285E+01  0.15056427169E+02  0.31107424321E+02  0.35202260378E+02  0.00000000000E+00 0.  1.
</event>
<event>
 5    1  0.1250806E-009  0.9118800E+02  0.7561462E-02  0.1125453E+00
         25   -1    0    0    0    0  0.00000000000E+00  0.00000000000E+00  0.99999998245E-14  0.12509000000E+03  0.12509000000E+03 0.  0.
        -13    1    3    3    0    0  0.63268379984E+01  0.47762623855E+01  0.31242167371E+02  0.32232371112E+02  0.10566000000E+00 0.  1.
         23    2    1    0    0    0 -0.38497246961E+02  0.64648579567E+01  0.27692624712E+02  0.77228597227E+02  0.60609754612E+02 0.  0.
         13    1    3    3    0    0 -0.44824084960E+02  0.16885955712E+01 -0.35495426583E+01  0.44996226115E+02  0.10566000000E+00 0. -1.
         22    1    1    0    0    0  0.38497246961E+02 -0.64648579567E+01 -0.27692624712E+02  0.47861402773E+02  0.00000000000E+00 0. -1.
</event>
<event>
 5    1  0.1250806E-009  0.9118800E+02  0.7561462E-02  0.1125453E+00
         25   -1    0    0    0    0  0.00000000000E+00  0.00000000000E+00  0.99999998245E-14  0.12509000000E+03  0.12509000000E+03 0.  0.
        -13    1    3    3    0    0 -0.17128495233E+02 -0.45029598797E+02  0.75636297095E+01  0.48767507371E+02  0.10566000000E+00 0.  1.
         23    2    1    0    0    0 -0.24766130808E+02 -0.71406741558E+01 -0.16676123139E+02  0.94390756597E+02  0.89259012908E+02 0.  0.
         13    1    3    3    0    0 -0.76376355743E+01  0.37888924642E+02 -0.24239752849E+02  0.45623249225E+02  0.10566000000E+00 0. -1.
         22    1    1    0    0    0  0.24766130808E+02  0.71406741558E+01  0.16676123139E+02  0.30699243403E+02  0.00000000000E+00 0. -1.
</event>
<event>
 5    1  0.1250806E-009  0.9118800E+02  0.7561462E-02  0.1125453E+00
         25   -1    0    0    0    0  0.00000000000E+00  0.00000000000E+00  0.99999998245E-14  0.12509000000E+03  0.12509000000E+03 0.  0.
        -13    1    3    3    0    0 -0.24201129630E+02 -0.48164733700E+02 -0.22685307976E+02  0.58482224733E+02  0.10566000000E+00 0.  1.
         23    2    1    0    0    0  0.24977943484E+01 -0.27753354851E+02 -0.39885673508E+01  0.96940464451E+02  0.92763448062E+02 0.  0.
         13    1    3    3    0    0  0.26698923979E+02  0.20411378848E+02  0.18696740626E+02  0.38458239718E+02  0.10566000000E+00 0. -1.
         22    1    1    0    0    0 -0.24977943484E+01  0.27753354851E+02  0.39885673508E+01  0.28149535549E+02  0.00000000000E+00 0.  1.
</event>
<event>
 5    1  0.1250806E-009  0.9118800E+02  0.7561462E-02  0.1125453E+00
         25   -1    0    0    0    0  0.00000000000E+00  0.00000000000E+00  0.99999998245E-14  0.12509000000E+03  0.12509000000E+03 0.  0.
        -13    1    3    3    0    0 -0.11082075848E+02 -0.45861511138E+02  0.31061249756E+01  0.47283715858E+02  0.10566000000E+00 0.  1.
         23    2    1    0    0    0  0.13299877684E+02 -0.84358744930E+01  0.23831005042E+02  0.96524854697E+02  0.92201301770E+02 0.  0.
         13    1    3    3    0    0  0.24381953532E+02  0.37425636645E+02  0.20724880067E+02  0.49241138839E+02  0.10566000000E+00 0. -1.
         22    1    1    0    0    0 -0.13299877684E+02  0.84358744930E+01 -0.23831005042E+02  0.28565145303E+02  0.00000000000E+00 0. -1.
</event>
<event>
 5    1  0.1250806E-009  0.9118800E+02  0.7561462E-02  0.1125453E+00
         25   -1    0    0    0    0  0.00000000000E+00  0.00000000000E+00  0.99999998245E-14  0.12509000000E+03  0.12509000000E+03 0.  0.
        -13    1    3    3    0    0 -0.27458288759E+02  0.21604612220E+02  0.44404222276E+01  0.35219957473E+02  0.10566000000E+00 0. -1.
         23    2    1    0    0    0  0.51079681249E+01 -0.28375310263E+02 -0.56197653934E+01  0.95716009227E+02  0.91097327559E+02 0.  0.
         13    1    3    3    0    0  0.32566256884E+02 -0.49979922483E+02 -0.10060187621E+02  0.60496051754E+02  0.10566000000E+00 0.  1.
         22    1    1    0    0    0 -0.51079681249E+01  0.28375310263E+02  0.56197653934E+01  0.29373990773E+02  0.00000000000E+00 0.  1.
</event>
<event>
 5    1  0.1250806E-009  0.9118800E+02  0.7561462E-02  0.1125453E+00
         25   -1    0    0    0    0  0.00000000000E+00  0.00000000000E+00  0.99999998245E-14  0.12509000000E+03  0.12509000000E+03 0.  0.
        -13    1    3    3    0    0 -0.44229278133E+02  0.24851153091E+02  0.39590654287E+01  0.50887073184E+02  0.10566000000E+00 0.  1.
         23    2    1    0    0    0 -0.21467703289E+01  0.26203477485E+02  0.15532773451E+02  0.94553171313E+02  0.89486335823E+02 0.  0.
         13    1    3    3    0    0  0.42082507804E+02  0.13523243949E+01  0.11573708023E+02  0.43666098129E+02  0.10566000000E+00 0. -1.
         22    1    1    0    0    0  0.21467703289E+01 -0.26203477485E+02 -0.15532773451E+02  0.30536828687E+02  0.00000000000E+00 0.  1.
</event>
<event>
 5    1  0.1250806E-009  0.9118800E+02  0.7561462E-02  0.1125453E+00
         25   -1    0    0    0    0  0.00000000000E+00  0.00000000000E+00  0.99999998245E-14  0.12509000000E+03  0.12509000000E+03 0.  0.
        -13    1    3    3    0    0 -0.13685368258E+02 -0.50897872697E+02 -0.10864658443E+02  0.53813889625E+02  0.10566000000E+00 0.  1.
         23    2    1    0    0    0  0.16976882481E+02 -0.25012617086E+02 -0.29307753182E+01  0.94718385024E+02  0.89716985379E+02 0.  0.
         13    1    3    3    0    0  0.30662250739E+02  0.25885255611E+02  0.79338831248E+01  0.40904495400E+02  0.10566000000E+00 0. -1.
         22    1    1    0    0    0 -0.16976882481E+02  0.25012617086E+02  0.29307753182E+01  0.30371614976E+02  0.00000000000E+00 0. -1.
</event>
<event>
 5    1  0.1250806E-009  0.9118800E+02  0.7561462E-02  0.1125453E+00
         25   -1    0    0    0    0  0.00000000000E+00  0.00000000000E+00  0.99999998245E-14  0.12509000000E+03  0.12509000000E+03 0.  0.
        -13    1    3    3    0    0  0.83295705828E+01 -0.23274861024E+02 -0.50139652516E+02  0.55902565417E+02  0.10566000000E+00 0.  1.
         23    2    1    0    0    0  0.21626978105E+02 -0.13926342531E+02 -0.13381221609E+02  0.96094719522E+02  0.91615876517E+02 0.  0.
         13    1    3    3    0    0  0.13297407523E+02  0.93485184926E+01  0.36758430907E+02  0.40192154105E+02  0.10566000000E+00 0. -1.
         22    1    1    0    0    0 -0.21626978105E+02  0.13926342531E+02  0.13381221609E+02  0.28995280478E+02  0.00000000000E+00 0.  1.
</event>
<event>
 5    1  0.1250806E-009  0.9118800E+02  0.7561462E-02  0.1125453E+00
         25   -1    0    0    0    0  0.00000000000E+00  0.00000000000E+00  0.99999998245E-14  0.12509000000E+03  0.12509000000E+03 0.  0.
        -13    1    3    3    0    0 -0.32561133069E+02 -0.88982383962E+01 -0.32753072409E+02  0.47033827716E+02  0.10566000000E+00 0.  1.
         23    2    1    0    0    0 -0.17578487065E+02  0.26845490876E+02 -0.14317587572E+02  0.89952030483E+02  0.82805138043E+02 0.  0.
         13    1    3    3    0    0  0.14982646004E+02  0.35743729272E+02  0.18435484837E+02  0.42918202767E+02  0.10566000000E+00 0. -1.
         22    1    1    0    0    0  0.17578487065E+02 -0.26845490876E+02  0.14317587572E+02  0.35137969517E+02  0.00000000000E+00 0.  1.
</event>
<event>
 5    1  0.1250806E-009  0.9118800E+02  0.7561462E-02  0.1125453E+00
         25   -1    0    0    0    0  0.00000000000E+00  0.00000000000E+00  0.99999998245E-14  0.12509000000E+03  0.12509000000E+03 0.  0.
        -13    1    3    3    0    0  0.26512899686E+02  0.10924821566E+02  0.32156776557E+02  0.43085438591E+02  0.10566000000E+00 0. -1.
         23    2    1    0    0    0  0.11509827171E+01 -0.24707312103E+02 -0.42519280117E+01  0.99993089346E+02  0.96792370529E+02 0.  0.
         13    1    3    3    0    0 -0.25361916969E+02 -0.35632133669E+02 -0.36408704568E+02  0.56907650755E+02  0.10566000000E+00 0.  1.
         22    1    1    0    0    0 -0.11509827171E+01  0.24707312103E+02  0.42519280117E+01  0.25096910654E+02  0.00000000000E+00 0.  1.
</event>
<event>
 5    1  0.1250806E-009  0.9118800E+02  0.7561462E-02  0.1125453E+00
         25   -1    0    0    0    0  0.00000000000E+00  0.00000000000E+00  0.99999998245E-14  0.12509000000E+03  0.12509000000E+03 0.  0.
        -13    1    3    3    0    0  0.27607599071E+02  0.19658655820E+02 -0.29671580788E+02  0.45045045739E+02  0.10566000000E+00 0.  1.
         23    2    1    0    0    0 -0.22356305861E+01  0.25302380041E+02  0.12311555398E+02  0.96862657295E+02  0.92658466975E+02 0.  0.
         13    1    3    3    0    0 -0.29843229657E+02  0.56437242208E+01  0.41983136185E+02  0.51817611557E+02  0.10566000000E+00 0. -1.
         22    1    1    0    0    0  0.22356305861E+01 -0.25302380041E+02 -0.12311555398E+02  0.28227342705E+02  0.00000000000E+00 0. -1.
</event>
<event>
 5    1  0.1250806E-009  0.9118800E+02  0.7561462E-02  0.1125453E+00
         25   -1    0    0    0    0  0.00000000000E+00  0.00000000000E+00  0.99999998245E-14  0.12509000000E+03  0.12509000000E+03 0.  0.
        -13    1    3    3    0    0 -0.53836276513E+02 -0.20530977482E+02 -0.19900399306E+02  0.60958205040E+02  0.10566000000E+00 0. -1.
         23    2    1    0    0    0 -0.27357212655E+02 -0.60366881373E+00 -0.12938526490E+02  0.94821419458E+02  0.89860528710E+02 0.  0.
         13    1    3    3    0    0  0.26479063858E+02  0.19927308668E+02  0.69618728167E+01  0.33863214418E+02  0.10566000000E+00 0.  1.
         22    1    1    0    0    0  0.27357212655E+02  0.60366881373E+00  0.12938526490E+02  0.30268580542E+02  0.00000000000E+00 0. -1.
</event>
<event>
 5    1  0.1250806E-009  0.9118800E+02  0.7561462E-02  0.1125453E+00
         25   -1    0    0    0    0  0.00000000000E+00  0.00000000000E+00  0.99999998245E-14  0.12509000000E+03  0.12509000000E+03 0.  0.
        -13    1    3    3    0    0 -0.92964496632E+01 -0.22475501640E+02 -0.26499079253E+02  0.35969216222E+02  0.10566000000E+00 0.  1.
         23    2    1    0    0    0  0.26465915876E+02  0.16508647859E+02 -0.16476390050E+02  0.89813214625E+02  0.82595168956E+02 0.  0.
         13    1    3    3    0    0  0.35762365540E+02  0.38984149499E+02  0.10022689203E+02  0.53843998403E+02  0.10566000000E+00 0. -1.
         22    1    1    0    0    0 -0.26465915876E+02 -0.16508647859E+02  0.16476390050E+02  0.35276785375E+02  0.00000000000E+00 0. -1.
</event>
<event>
 5    1  0.1250806E-009  0.9118800E+02  0.7561462E-02  0.1125453E+00
         25   -1    0    0    0    0  0.00000000000E+00  0.00000000000E+00  0.99999998245E-14  0.12509000000E+03  0.12509000000E+03 0.  0.
        -13    1    3    3    0    0  0.80229628751E+01 -0.39718610238E+02  0.68272701834E+01  0.41092076057E+02  0.10566000000E+00 0. -1.
         23    2    1    0    0    0 -0.26407875067E+02 -0.23626904626E+01 -0.12917543849E+02  0.95597270203E+02  0.90934135281E+02 0.  0.
         13    1    3    3    0    0 -0.34430837942E+02  0.37355919775E+02 -0.19744814032E+02  0.54505194146E+02  0.10566000000E+00 0.  1.
         22    1    1    0    0    0  0.26407875067E+02  0.23626904626E+01  0.12917543849E+02  0.29492729797E+02  0.00000000000E+00 0.  1.
</event>
<event>
 5    1  0.1250806E-009  0.9118800E+02  0.7561462E-02  0.1125453E+00
         25   -1    0    0    0    0  0.00000000000E+00  0.00000000000E+00  0.99999998245E-14  0.12509000000E+03  0.12509000000E+03 0.  0.
        -13    1    3    3    0    0 -0.31293552517E+02 -0.10460419554E+02 -0.22691816416E+02  0.40045430485E+02  0.10566000000E+00 0. -1.
         23    2    1    0    0    0  0.20878724953E+02 -0.13623172250E+02  0.56850642316E+01  0.99519862473E+02  0.96178849513E+02 0.  0.
         13    1    3    3    0    0  0.52172277471E+02 -0.31627526954E+01  0.28376880647E+02  0.59474431989E+02  0.10566000000E+00 0.  1.
         22    1    1    0    0    0 -0.20878724953E+02  0.13623172250E+02 -0.56850642316E+01  0.25570137527E+02  0.00000000000E+00 0.  1.
</event>
<event>
 5    1  0.1250806E-009  0.9118800E+02  0.7561462E-02  0.1125453E+00
         25   -1    0    0    0    0  0.00000000000E+00  0.00000000000E+00  0.99999998245E-14  0.12509000000E+03  0.12509000000E+03 0.  0.
        -13    1    3    3    0    0  0.72605482512E+01 -0.19849671131E+02  0.58035560554E+02  0.61764572837E+02  0.10566000000E+00 0.  1.
         23    2    1    0    0    0  0.77382422612E+00 -0.15104599345E+02  0.24113836233E+02  0.96625551592E+02  0.92337816723E+02 0.  0.
         13    1    3    3    0    0 -0.64867240251E+01  0.47450717854E+01 -0.33921724321E+02  0.34860978755E+02  0.10566000000E+00 0. -1.
         22    1    1    0    0    0 -0.77382422612E+00  0.15104599345E+02 -0.24113836233E+02  0.28464448408E+02  0.00000000000E+00 0.  1.
</event>
<event>
 5    1  0.1250806E-009  0.9118800E+02  0.7561462E-02  0.1125453E+00
         25   -1    0    0    0    0  0.00000000000E+00  0.00000000000E+00  0.99999998245E-14  0.12509000000E+03  0.12509000000E+03 0.  0.
        -13    1    3    3    0    0 -0.80496728360E+01 -0.14638824828E+02  0.48988328178E+02  0.51758669678E+02  0.10566000000E+00 0.  1.
         23    2    1    0    0    0 -0.24586239319E+02 -0.10898428509E+02  0.66196210569E+01  0.97393821730E+02  0.93372791650E+02 0.  0.
         13    1    3    3    0    0 -0.16536566483E+02  0.37403963187E+01 -0.42368707121E+02  0.45635152052E+02  0.10566000000E+00 0. -1.
         22    1    1    0    0    0  0.24586239319E+02  0.10898428509E+02 -0.66196210569E+01  0.27696178270E+02  0.00000000000E+00 0.  1.
</event>
<event>
 5    1  0.1250806E-009  0.9118800E+02  0.7561462E-02  0.1125453E+00
         25   -1    0    0    0    0  0.00000000000E+00  0.00000000000E+00  0.99999998245E-14  0.12509000000E+03  0.12509000000E+03 0.  0.
        -13    1    3    3    0    0  0.31901782099E+02 -0.42148044057E+02  0.26819693771E+02  0.59274686477E+02  0.10566000000E+00 0. -1.
         23    2    1    0    0    0  0.24410054498E+02 -0.14775611411E+02  0.28642530421E+01  0.96412946478E+02  0.92049350079E+02 0.  0.
         13    1    3    3    0    0 -0.74917276007E+01  0.27372432646E+02 -0.23955440729E+02  0.37138260002E+02  0.10566000000E+00 0.  1.
         22    1    1    0    0    0 -0.24410054498E+02  0.14775611411E+02 -0.28642530421E+01  0.28677053522E+02  0.00000000000E+00 0. -1.
</event>
<event>
 5    1  0.1250806E-009  0.9118800E+02  0.7561462E-02  0.1125453E+00
         25   -1    0    0    0    0  0.00000000000E+00  0.00000000000E+00  0.99999998245E-14  0.12509000000E+03  0.12509000000E+03 0.  0.
        -13    1    3    3    0    0 -0.50701821908E+00  0.28997318567E+02 -0.44598884178E+02  0.53199372041E+02  0.10566000000E+00 0. -1.
         23    2    1    0    0    0  0.77638470299E+01 -0.96891108023E+01 -0.24614627446E+02  0.97521248248E+02  0.93543347100E+02 0.  0.
         13    1    3    3    0    0  0.82708652490E+01 -0.38686429370E+02  0.19984256732E+02  0.44321876207E+02  0.10566000000E+00 0.  1.
         22    1    1    0    0    0 -0.77638470299E+01  0.96891108023E+01  0.24614627446E+02  0.27568751752E+02  0.00000000000E+00 0. -1.
</event>
<event>
 5    1  0.1250806E-009  0.9118800E+02  0.7561462E-02  0.1125453E+00
         25   -1    0    0    0    0  0.00000000000E+00  0.00000000000E+00  0.99999998245E-14  0.12509000000E+03  0.12509000000E+03 0.  0.
        -13    1    3    3    0    0 -0.75601224572E+01  0.20376708853E+02 -0.15196710198E+02  0.26520122174E+02  0.10566000000E+00 0. -1.
         23    2    1    0    0    0  0.37602741417E+02 -0.60517044236E+01  0.11554870818E+02  0.85289191866E+02  0.75433029377E+02 0.  0.
         13    1    3    3    0    0  0.45162863874E+02 -0.26428413276E+02  0.26751581016E+02  0.58769069692E+02  0.10566000000E+00 0.  1.
         22    1    1    0    0    0 -0.37602741417E+02  0.60517044236E+01 -0.11554870818E+02  0.39800808134E+02  0.00000000000E+00 0.  1.
</event>
<event>
 5    1  0.1250806E-009  0.9118800E+02  0.7561462E-02  0.1125453E+00
         25   -1    0    0    0    0  0.00000000000E+00  0.00000000000E+00  0.99999998245E-14  0.12509000000E+03  0.12509000000E+03 0.  0.
        -13    1    3    3    0    0 -0.25534355747E+02 -0.44888405518E+02 -0.87354443909E+01  0.52376439609E+02  0.10566000000E+00 0.  1.
         23    2    1    0    0    0  0.47035883851E+01 -0.28017327660E+02  0.13612003590E+02  0.93587920154E+02  0.88126714247E+02 0.  0.
         13    1    3    3    0    0  0.30237944132E+02  0.16871077857E+02  0.22347447981E+02  0.41211480545E+02  0.10566000000E+00 0. -1.
         22    1    1    0    0    0 -0.47035883851E+01  0.28017327660E+02 -0.13612003590E+02  0.31502079846E+02  0.00000000000E+00 0.  1.
</event>
<event>
 5    1  0.1250806E-009  0.9118800E+02  0.7561462E-02  0.1125453E+00
         25   -1    0    0    0    0  0.00000000000E+00  0.00000000000E+00  0.99999998245E-14  0.12509000000E+03  0.12509000000E+03 0.  0.
        -13    1    3    3    0    0 -0.28012504308E+02 -0.16273265194E+02 -0.10010106221E+02  0.33907712224E+02  0.10566000000E+00 0. -1.
         23    2    1    0    0    0  0.24211198593E+02 -0.41642744134E+00  0.17679464176E+02  0.95108022035E+02  0.90258610962E+02 0.  0.
         13    1    3    3    0    0  0.52223702900E+02  0.15856837753E+02  0.27689570398E+02  0.61200309811E+02  0.10566000000E+00 0.  1.
         22    1    1    0    0    0 -0.24211198593E+02  0.41642744134E+00 -0.17679464176E+02  0.29981977965E+02  0.00000000000E+00 0.  1.
</event>
<event>
 5    1  0.1250806E-009  0.9118800E+02  0.7561462E-02  0.1125453E+00
         25   -1    0    0    0    0  0.00000000000E+00  0.00000000000E+00  0.99999998245E-14  0.12509000000E+03  0.12509000000E+03 0.  0.
        -13    1    3    3    0    0  0.25327922195E+01  0.28053861977E+02  0.37773780670E+02  0.47120100577E+02  0.10566000000E+00 0.  1.
         23    2    1    0    0    0 -0.16292476734E+02  0.24403000585E+02 -0.62061301673E+01  0.95098879859E+02  0.90245939870E+02 0.  0.
         13    1    3    3    0    0 -0.18825268954E+02 -0.36508613921E+01 -0.43979910837E+02  0.47978779282E+02  0.10566000000E+00 0. -1.
         22    1    1    0    0    0  0.16292476734E+02 -0.24403000585E+02  0.62061301673E+01  0.29991120141E+02  0.00000000000E+00 0.  1.
</event>
<event>
 5    1  0.1250806E-009  0.9118800E+02  0.7561462E-02  0.1125453E+00
         25   -1    0    0    0    0  0.00000000000E+00  0.00000000000E+00  0.99999998245E-14  0.12509000000E+03  0.12509000000E+03 0.  0.
        -13    1    3    3    0    0 -0.23564067652E+02 -0.14711871352E+02  0.26407445263E+02  0.38328432949E+02  0.10566000000E+00 0. -1.
         23    2    1    0    0    0  0.39512074510E+01 -0.11033555598E+02 -0.25406678789E+02  0.97110530446E+02  0.92992496509E+02 0.  0.
         13    1    3    3    0    0  0.27515275103E+02  0.36783157544E+01 -0.51814124052E+02  0.58782097497E+02  0.10566000000E+00 0.  1.
         22    1    1    0    0    0 -0.39512074510E+01  0.11033555598E+02  0.25406678789E+02  0.27979469554E+02  0.00000000000E+00 0.  1.
</event>
<event>
 5    1  0.1250806E-009  0.9118800E+02  0.7561462E-02  0.1125453E+00
         25   -1    0    0    0    0  0.00000000000E+00  0.00000000000E+00  0.99999998245E-14  0.12509000000E+03  0.12509000000E+03 0.  0.
        -13    1    3    3    0    0 -0.11999002323E+02 -0.17367343706E+02  0.27983099791E+02  0.35052328341E+02  0.10566000000E+00 0.  1.
         23    2    1    0    0    0 -0.38199247435E+01 -0.37954087115E+01 -0.29717113753E+02  0.94888943692E+02  0.89954476447E+02 0.  0.
         13    1    3    3    0    0  0.81790775798E+01  0.13571934994E+02 -0.57700213544E+02  0.59836615351E+02  0.10566000000E+00 0. -1.
         22    1    1    0    0    0  0.38199247435E+01  0.37954087115E+01  0.29717113753E+02  0.30201056308E+02  0.00000000000E+00 0. -1.
</event>
<event>
 5    1  0.1250806E-009  0.9118800E+02  0.7561462E-02  0.1125453E+00
         25   -1    0    0    0    0  0.00000000000E+00  0.00000000000E+00  0.99999998245E-14  0.12509000000E+03  0.12509000000E+03 0.  0.
        -13    1    3    3    0    0 -0.25043653202E+02 -0.29065833031E+02 -0.39852517898E+02  0.55319450127E+02  0.10566000000E+00 0. -1.
         23    2    1    0    0    0 -0.17957299569E+02  0.53369762138E+01 -0.25924264292E+02  0.93105388044E+02  0.87439109561E+02 0.  0.
         13    1    3    3    0    0  0.70863536333E+01  0.34402809245E+02  0.13928253606E+02  0.37785937917E+02  0.10566000000E+00 0.  1.
         22    1    1    0    0    0  0.17957299569E+02 -0.53369762138E+01  0.25924264292E+02  0.31984611956E+02  0.00000000000E+00 0. -1.
</event>
<event>
 5    1  0.1250806E-009  0.9118800E+02  0.7561462E-02  0.1125453E+00
         25   -1    0    0    0    0  0.00000000000E+00  0.00000000000E+00  0.99999998245E-14  0.12509000000E+03  0.12509000000E+03 0.  0.
        -13    1    3    3    0    0  0.73989601520E+01  0.11181101606E+02 -0.32293696010E+02  0.34966492682E+02  0.10566000000E+00 0.  1.
         23    2    1    0    0    0 -0.95706258950E+01  0.66299656499E+01  0.26401728221E+02  0.96235111721E+02  0.91807364358E+02 0.  0.
         13    1    3    3    0    0 -0.16969586047E+02 -0.45511359564E+01  0.58695424232E+02  0.61268619038E+02  0.10566000000E+00 0. -1.
         22    1    1    0    0    0  0.95706258950E+01 -0.66299656499E+01 -0.26401728221E+02  0.28854888279E+02  0.00000000000E+00 0. -1.
</event>
<event>
 5    1  0.1250806E-009  0.9118800E+02  0.7561462E-02  0.1125453E+00
         25   -1    0    0    0    0  0.00000000000E+00  0.00000000000E+00  0.99999998245E-14  0.12509000000E+03  0.12509000000E+03 0.  0.
        -13    1    3    3    0    0 -0.22507529144E+02  0.18273907066E+02 -0.36790854177E+02  0.46841249585E+02  0.10566000000E+00 0.  1.
         23    2    1    0    0    0 -0.38738442047E+01 -0.22828661558E+02 -0.18152245982E+02  0.95667925096E+02  0.91031277045E+02 0.  0.
         13    1    3    3    0    0  0.18633684939E+02 -0.41102568625E+02  0.18638608195E+02  0.48826675510E+02  0.10566000000E+00 0. -1.
         22    1    1    0    0    0  0.38738442047E+01  0.22828661558E+02  0.18152245982E+02  0.29422074904E+02  0.00000000000E+00 0.  1.
</event>
<event>
 5    1  0.1250806E-009  0.9118800E+02  0.7561462E-02  0.1125453E+00
         25   -1    0    0    0    0  0.00000000000E+00  0.00000000000E+00  0.99999998245E-14  0.12509000000E+03  0.12509000000E+03 0.  0.
        -13    1    3    3    0    0  0.23891632813E+02  0.30137137367E+02  0.32520994600E+02  0.50365498319E+02  0.10566000000E+00 0. -1.
         23    2    1    0    0    0 -0.91791914972E+01  0.30813136880E+02  0.68971449960E+01  0.92207214685E+02  0.86144604416E+02 0.  0.
         13    1    3    3    0    0 -0.33070824310E+02  0.67599951347E+00 -0.25623849604E+02  0.41841716366E+02  0.10566000000E+00 0.  1.
         22    1    1    0    0    0  0.91791914972E+01 -0.30813136880E+02 -0.68971449960E+01  0.32882785315E+02  0.00000000000E+00 0. -1.
</event>
<event>
 5    1  0.1250806E-009  0.9118800E+02  0.7561462E-02  0.1125453E+00
         25   -1    0    0    0    0  0.00000000000E+00  0.00000000000E+00  0.99999998245E-14  0.12509000000E+03  0.12509000000E+03 0.  0.
        -13    1    3    3    0    0 -0.42227639651E+01 -0.32763131581E+02 -0.17074553534E+02  0.37186100480E+02  0.10566000000E+00 0. -1.
         23    2    1    0    0    0  0.95193333078E+01  0.23608855963E+02 -0.15613429732E+02  0.95227398397E+02  0.90423904090E+02 0.  0.
         13    1    3    3    0    0  0.13742097273E+02  0.56371987544E+02  0.14611238017E+01  0.58041297917E+02  0.10566000000E+00 0.  1.
         22    1    1    0    0    0 -0.95193333078E+01 -0.23608855963E+02  0.15613429732E+02  0.29862601603E+02  0.00000000000E+00 0. -1.
</event>
<event>
 5    1  0.1250806E-009  0.9118800E+02  0.7561462E-02  0.1125453E+00
         25   -1    0    0    0    0  0.00000000000E+00  0.00000000000E+00  0.99999998245E-14  0.12509000000E+03  0.12509000000E+03 0.  0.
        -13    1    3    3    0    0 -0.14115852529E+02 -0.16849447353E+02 -0.50128590048E+02  0.54736166042E+02  0.10566000000E+00 0.  1.
         23    2    1    0    0    0 -0.15357743989E+02 -0.23528080916E+02 -0.10261550178E+02  0.95177957207E+02  0.90355482590E+02 0.  0.
         13    1    3    3    0    0 -0.12418914600E+01 -0.66786335625E+01  0.39867039869E+02  0.40441791165E+02  0.10566000000E+00 0. -1.
         22    1    1    0    0    0  0.15357743989E+02  0.23528080916E+02  0.10261550178E+02  0.29912042793E+02  0.00000000000E+00 0. -1.
</event>
<event>
 5    1  0.1250806E-009  0.9118800E+02  0.7561462E-02  0.1125453E+00
         25   -1    0    0    0    0  0.00000000000E+00  0.00000000000E+00  0.99999998245E-14  0.12509000000E+03  0.12509000000E+03 0.  0.
        -13    1    3    3    0    0  0.54993748867E+02  0.57126298461E+01  0.42126043400E+01  0.55450011303E+02  0.10566000000E+00 0. -1.
         23    2    1    0    0    0  0.21405139137E+02 -0.15638971722E+02  0.11975975160E+02  0.96000802709E+02  0.91487555010E+02 0.  0.
         13    1    3    3    0    0 -0.33588609730E+02 -0.21351601568E+02  0.77633708203E+01  0.40550791406E+02  0.10566000000E+00 0.  1.
         22    1    1    0    0    0 -0.21405139137E+02  0.15638971722E+02 -0.11975975160E+02  0.29089197291E+02  0.00000000000E+00 0. -1.
</event>
<event>
 5    1  0.1250806E-009  0.9118800E+02  0.7561462E-02  0.1125453E+00
         25   -1    0    0    0    0  0.00000000000E+00  0.00000000000E+00  0.99999998245E-14  0.12509000000E+03  0.12509000000E+03 0.  0.
        -13    1    3    3    0    0 -0.82926808958E+01  0.37449162945E+02 -0.49705862623E+01  0.38677205865E+02  0.10566000000E+00 0.  1.
         23    2    1    0    0    0  0.14215650278E+02 -0.37691382846E+01  0.26200521001E+02  0.95044061557E+02  0.90169924145E+02 0.  0.
         13    1    3    3    0    0  0.22508331174E+02 -0.41218301230E+02  0.31171107263E+02  0.56366855691E+02  0.10566000000E+00 0. -1.
         22    1    1    0    0    0 -0.14215650278E+02  0.37691382846E+01 -0.26200521001E+02  0.30045938443E+02  0.00000000000E+00 0.  1.
</event>
<event>
 5    1  0.1250806E-009  0.9118800E+02  0.7561462E-02  0.1125453E+00
         25   -1    0    0    0    0  0.00000000000E+00  0.00000000000E+00  0.99999998245E-14  0.12509000000E+03  0.12509000000E+03 0.  0.
        -13    1    3    3    0    0 -0.97698741678E+01 -0.36116908046E+01 -0.36538525772E+02  0.37994338807E+02  0.10566000000E+00 0.  1.
         23    2    1    0    0    0 -0.19710592363E+02  0.12474319068E+01  0.20809601521E+02  0.96400227378E+02  0.92032063898E+02 0.  0.
         13    1    3    3    0    0 -0.99407181952E+01  0.48591227114E+01  0.57348127293E+02  0.58405888571E+02  0.10566000000E+00 0. -1.
         22    1    1    0    0    0  0.19710592363E+02 -0.12474319068E+01 -0.20809601521E+02  0.28689772622E+02  0.00000000000E+00 0. -1.
</event>
<event>
 5    1  0.1250806E-009  0.9118800E+02  0.7561462E-02  0.1125453E+00
         25   -1    0    0    0    0  0.00000000000E+00  0.00000000000E+00  0.99999998245E-14  0.12509000000E+03  0.12509000000E+03 0.  0.
        -13    1    3    3    0    0  0.39799209139E+02  0.16710927794E+02 -0.91543163671E+01  0.44125330911E+02  0.10566000000E+00 0.  1.
         23    2    1    0    0    0 -0.10442651677E+02  0.19096680634E+02 -0.19944834459E+02  0.95568336651E+02  0.90894325254E+02 0.  0.
         13    1    3    3    0    0 -0.50241860816E+02  0.23857528407E+01 -0.10790518092E+02  0.51443005740E+02  0.10566000000E+00 0. -1.
         22    1    1    0    0    0  0.10442651677E+02 -0.19096680634E+02  0.19944834459E+02  0.29521663349E+02  0.00000000000E+00 0. -1.
</event>
<event>
 5    1  0.1250806E-009  0.9118800E+02  0.7561462E-02  0.1125453E+00
         25   -1    0    0    0    0  0.00000000000E+00  0.00000000000E+00  0.99999998245E-14  0.12509000000E+03  0.12509000000E+03 0.  0.
        -13    1    3    3    0    0 -0.27954928515E+02 -0.42973715281E+02  0.30651708934E+02  0.59730701134E+02  0.10566000000E+00 0.  1.
         23    2    1    0    0    0 -0.23224004442E+02 -0.11560698457E+02  0.14554809343E+02  0.95343628689E+02  0.90584551251E+02 0.  0.
         13    1    3    3    0    0  0.47309240731E+01  0.31413016824E+02 -0.16096899591E+02  0.35612927555E+02  0.10566000000E+00 0. -1.
         22    1    1    0    0    0  0.23224004442E+02  0.11560698457E+02 -0.14554809343E+02  0.29746371311E+02  0.00000000000E+00 0.  1.
</event>
<event>
 5    1  0.1250806E-009  0.9118800E+02  0.7561462E-02  0.1125453E+00
         25   -1    0    0    0    0  0.00000000000E+00  0.00000000000E+00  0.99999998245E-14  0.12509000000E+03  0.12509000000E+03 0.  0.
        -13    1    3    3    0    0  0.26673309836E+02  0.24674300387E+02 -0.27473809616E+02  0.45553352632E+02  0.10566000000E+00 0. -1.
         23    2    1    0    0    0  0.15035216906E+02 -0.21540353499E+02 -0.15097666379E+02  0.94791747470E+02  0.89819214437E+02 0.  0.
         13    1    3    3    0    0 -0.11638092929E+02 -0.46214653885E+02  0.12376143237E+02  0.49238394838E+02  0.10566000000E+00 0.  1.
         22    1    1    0    0    0 -0.15035216906E+02  0.21540353499E+02  0.15097666379E+02  0.30298252530E+02  0.00000000000E+00 0.  1.
</event>
<event>
 5    1  0.1250806E-009  0.9118800E+02  0.7561462E-02  0.1125453E+00
         25   -1    0    0    0    0  0.00000000000E+00  0.00000000000E+00  0.99999998245E-14  0.12509000000E+03  0.12509000000E+03 0.  0.
        -13    1    3    3    0    0  0.39063981848E+02 -0.69548981687E+01 -0.39056995699E+02  0.55676075323E+02  0.10566000000E+00 0.  1.
         23    2    1    0    0    0  0.15722716715E+02  0.17377571323E+02 -0.19102162504E+02  0.94856303264E+02  0.89909075462E+02 0.  0.
         13    1    3    3    0    0 -0.23341265133E+02  0.24332469492E+02  0.19954833194E+02  0.39180227940E+02  0.10566000000E+00 0. -1.
         22    1    1    0    0    0 -0.15722716715E+02 -0.17377571323E+02  0.19102162504E+02  0.30233696736E+02  0.00000000000E+00 0.  1.
</event>
<event>
 4    1  0.1250806E-009  0.9118800E+02  0.7561462E-02  0.1125453E+00
         25   -1    0    0    0    0  0.00000000000E+00  0.00000000000E+00  0.99999998245E-14  0.12509000000E+03  0.12509000000E+03 0.  0.
        -13    1    1    0    0    0 -0.10409493549E+02  0.31314768173E+01 -0.55826658588E+01  0.12220516565E+02  0.10566000000E+00 0. -1.
         13    1    1    0    0    0 -0.40816664444E+01 -0.18624439307E+02  0.55471926298E+02  0.58657271602E+02  0.10566000000E+00 0.  1.
         22    1    1    0    0    0  0.14491159993E+02  0.15492962490E+02 -0.49889260439E+02  0.54212211833E+02  0.00000000000E+00 0.  1.
</event>
<event>
 5    1  0.1250806E-009  0.9118800E+02  0.7561462E-02  0.1125453E+00
         25   -1    0    0    0    0  0.00000000000E+00  0.00000000000E+00  0.99999998245E-14  0.12509000000E+03  0.12509000000E+03 0.  0.
        -13    1    3    3    0    0 -0.10065439456E+02  0.12694524289E+01  0.38772637469E+02  0.40078088294E+02  0.10566000000E+00 0.  1.
         23    2    1    0    0    0 -0.98290083694E+01  0.23862181449E+02 -0.12726349131E+02  0.96315478784E+02  0.91916801414E+02 0.  0.
         13    1    3    3    0    0  0.23643108624E+00  0.22592729020E+02 -0.51498986600E+02  0.56237390490E+02  0.10566000000E+00 0. -1.
         22    1    1    0    0    0  0.98290083694E+01 -0.23862181449E+02  0.12726349131E+02  0.28774521216E+02  0.00000000000E+00 0. -1.
</event>
<event>
 5    1  0.1250806E-009  0.9118800E+02  0.7561462E-02  0.1125453E+00
         25   -1    0    0    0    0  0.00000000000E+00  0.00000000000E+00  0.99999998245E-14  0.12509000000E+03  0.12509000000E+03 0.  0.
        -13    1    3    3    0    0 -0.16442827485E+02 -0.33908898755E+02  0.28463648249E+02  0.47226797754E+02  0.10566000000E+00 0.  1.
         23    2    1    0    0    0 -0.73894506248E+01  0.14750413934E+02  0.22660137910E+02  0.97060363152E+02  0.92924988853E+02 0.  0.
         13    1    3    3    0    0  0.90533768597E+01  0.48659312689E+02 -0.58035103388E+01  0.49833565397E+02  0.10566000000E+00 0. -1.
         22    1    1    0    0    0  0.73894506248E+01 -0.14750413934E+02 -0.22660137910E+02  0.28029636848E+02  0.00000000000E+00 0.  1.
</event>
<event>
 5    1  0.1250806E-009  0.9118800E+02  0.7561462E-02  0.1125453E+00
         25   -1    0    0    0    0  0.00000000000E+00  0.00000000000E+00  0.99999998245E-14  0.12509000000E+03  0.12509000000E+03 0.  0.
        -13    1    3    3    0    0 -0.14107736542E+02  0.48870200820E+01  0.60467379321E+02  0.62283435371E+02  0.10566000000E+00 0.  1.
         23    2    1    0    0    0 -0.32871635998E+01  0.54258618788E+00  0.29992933208E+02  0.94912593108E+02  0.89987357133E+02 0.  0.
         13    1    3    3    0    0  0.10820572942E+02 -0.43444338941E+01 -0.30474446113E+02  0.32629157737E+02  0.10566000000E+00 0. -1.
         22    1    1    0    0    0  0.32871635998E+01 -0.54258618788E+00 -0.29992933208E+02  0.30177406892E+02  0.00000000000E+00 0.  1.
</event>
<event>
 5    1  0.1250806E-009  0.9118800E+02  0.7561462E-02  0.1125453E+00
         25   -1    0    0    0    0  0.00000000000E+00  0.00000000000E+00  0.99999998245E-14  0.12509000000E+03  0.12509000000E+03 0.  0.
        -13    1    3    3    0    0 -0.28042390820E+02 -0.49952756169E+01  0.23253044133E+02  0.36770146680E+02  0.10566000000E+00 0.  1.
         23    2    1    0    0    0  0.21021701286E+02 -0.14414777039E+02 -0.10983054801E+02  0.97335266804E+02  0.93294313594E+02 0.  0.
         13    1    3    3    0    0  0.49064092106E+02 -0.94195014218E+01 -0.34236098934E+02  0.60565120123E+02  0.10566000000E+00 0. -1.
         22    1    1    0    0    0 -0.21021701286E+02  0.14414777039E+02  0.10983054801E+02  0.27754733196E+02  0.00000000000E+00 0. -1.
</event>
<event>
 5    1  0.1250806E-009  0.9118800E+02  0.7561462E-02  0.1125453E+00
         25   -1    0    0    0    0  0.00000000000E+00  0.00000000000E+00  0.99999998245E-14  0.12509000000E+03  0.12509000000E+03 0.  0.
        -13    1    3    3    0    0  0.76488123495E+01  0.36582590490E+02 -0.16259173134E+01  0.37409157014E+02  0.10566000000E+00 0.  1.
         23    2    1    0    0    0  0.13338155810E+00 -0.18009520810E+02 -0.22440432074E+02  0.96316164279E+02  0.91917734302E+02 0.  0.
         13    1    3    3    0    0 -0.75154307913E+01 -0.54592111300E+02 -0.20814514761E+02  0.58907007265E+02  0.10566000000E+00 0. -1.
         22    1    1    0    0    0 -0.13338155810E+00  0.18009520810E+02  0.22440432074E+02  0.28773835721E+02  0.00000000000E+00 0. -1.
</event>
<event>
 5    1  0.1250806E-009  0.9118800E+02  0.7561462E-02  0.1125453E+00
         25   -1    0    0    0    0  0.00000000000E+00  0.00000000000E+00  0.99999998245E-14  0.12509000000E+03  0.12509000000E+03 0.  0.
        -13    1    3    3    0    0 -0.43720952460E+02  0.26023619540E+02  0.12620456769E+02  0.52421727853E+02  0.10566000000E+00 0.  1.
         23    2    1    0    0    0 -0.27207263664E+02 -0.11995554810E+02  0.15992556808E+01  0.95312724268E+02  0.90541864667E+02 0.  0.
         13    1    3    3    0    0  0.16513688797E+02 -0.38019174351E+02 -0.11021201089E+02  0.42890996415E+02  0.10566000000E+00 0. -1.
         22    1    1    0    0    0  0.27207263664E+02  0.11995554810E+02 -0.15992556808E+01  0.29777275732E+02  0.00000000000E+00 0.  1.
</event>
<event>
 5    1  0.1250806E-009  0.9118800E+02  0.7561462E-02  0.1125453E+00
         25   -1    0    0    0    0  0.00000000000E+00  0.00000000000E+00  0.99999998245E-14  0.12509000000E+03  0.12509000000E+03 0.  0.
        -13    1    3    3    0    0 -0.40847109660E+01 -0.60486586424E+02  0.12577419587E+02  0.61915382970E+02  0.10566000000E+00 0.  1.
         23    2    1    0    0    0  0.15144167358E+00 -0.29731504417E+02  0.14516073781E+00  0.95357755532E+02  0.90604057188E+02 0.  0.
         13    1    3    3    0    0  0.42361526396E+01  0.30755082007E+02 -0.12432258849E+02  0.33442372562E+02  0.10566000000E+00 0. -1.
         22    1    1    0    0    0 -0.15144167358E+00  0.29731504417E+02 -0.14516073781E+00  0.29732244468E+02  0.00000000000E+00 0.  1.
</event>
<event>
 5    1  0.1250806E-009  0.9118800E+02  0.7561462E-02  0.1125453E+00
         25   -1    0    0    0    0  0.00000000000E+00  0.00000000000E+00  0.99999998245E-14  0.12509000000E+03  0.12509000000E+03 0.  0.
        -13    1    3    3    0    0  0.43844273168E+02  0.14381237369E+02 -0.25683096540E+02  0.52808833445E+02  0.10566000000E+00 0. -1.
         23    2    1    0    0    0  0.13619627514E+02  0.20780994548E+02  0.84485394794E+01  0.98846490186E+02  0.95299038897E+02 0.  0.
         13    1    3    3    0    0 -0.30224645653E+02  0.63997571792E+01  0.34131636020E+02  0.46037656741E+02  0.10566000000E+00 0.  1.
         22    1    1    0    0    0 -0.13619627514E+02 -0.20780994548E+02 -0.84485394794E+01  0.26243509814E+02  0.00000000000E+00 0.  1.
</event>
<event>
 5    1  0.1250806E-009  0.9118800E+02  0.7561462E-02  0.1125453E+00
         25   -1    0    0    0    0  0.00000000000E+00  0.00000000000E+00  0.99999998245E-14  0.12509000000E+03  0.12509000000E+03 0.  0.
        -13    1    3    3    0    0  0.73435936044E+01 -0.43591749267E+02 -0.39967867648E+02  0.59595390590E+02  0.10566000000E+00 0.  1.
         23    2    1    0    0    0 -0.90757772598E+01 -0.15958438585E+02 -0.22057642134E+02  0.96391897773E+02  0.92020741601E+02 0.  0.
         13    1    3    3    0    0 -0.16419370864E+02  0.27633310682E+02  0.17910225514E+02  0.36796507183E+02  0.10566000000E+00 0. -1.
         22    1    1    0    0    0  0.90757772598E+01  0.15958438585E+02  0.22057642134E+02  0.28698102227E+02  0.00000000000E+00 0.  1.
</event>
<event>
 5    1  0.1250806E-009  0.9118800E+02  0.7561462E-02  0.1125453E+00
         25   -1    0    0    0    0  0.00000000000E+00  0.00000000000E+00  0.99999998245E-14  0.12509000000E+03  0.12509000000E+03 0.  0.
        -13    1    3    3    0    0 -0.22237669492E+02  0.14207121936E+02  0.56702644400E+02  0.62542444021E+02  0.10566000000E+00 0.  1.
         23    2    1    0    0    0 -0.11751732490E+02  0.79251063409E+01  0.30020442140E+02  0.91891544112E+02  0.85684995221E+02 0.  0.
         13    1    3    3    0    0  0.10485937002E+02 -0.62820155954E+01 -0.26682202259E+02  0.29349100092E+02  0.10566000000E+00 0. -1.
         22    1    1    0    0    0  0.11751732490E+02 -0.79251063409E+01 -0.30020442140E+02  0.33198455888E+02  0.00000000000E+00 0.  1.
</event>
<event>
 5    1  0.1250806E-009  0.9118800E+02  0.7561462E-02  0.1125453E+00
         25   -1    0    0    0    0  0.00000000000E+00  0.00000000000E+00  0.99999998245E-14  0.12509000000E+03  0.12509000000E+03 0.  0.
        -13    1    3    3    0    0 -0.55358642085E+01  0.37205671673E+01  0.35706043162E+02  0.36323836456E+02  0.10566000000E+00 0.  1.
         23    2    1    0    0    0 -0.19959485414E+02 -0.68468440797E+01 -0.20720905210E+02  0.95516088447E+02  0.90822392105E+02 0.  0.
         13    1    3    3    0    0 -0.14423621205E+02 -0.10567411247E+02 -0.56426948372E+02  0.59192251991E+02  0.10566000000E+00 0. -1.
         22    1    1    0    0    0  0.19959485414E+02  0.68468440797E+01  0.20720905210E+02  0.29573911553E+02  0.00000000000E+00 0. -1.
</event>
<event>
 5    1  0.1250806E-009  0.9118800E+02  0.7561462E-02  0.1125453E+00
         25   -1    0    0    0    0  0.00000000000E+00  0.00000000000E+00  0.99999998245E-14  0.12509000000E+03  0.12509000000E+03 0.  0.
        -13    1    3    3    0    0  0.20714693906E+02 -0.29403835219E+02 -0.48852889229E+02  0.60665476337E+02  0.10566000000E+00 0. -1.
         23    2    1    0    0    0  0.19516780649E+01 -0.20961865717E+02 -0.20427039099E+02  0.95756183543E+02  0.91152476098E+02 0.  0.
         13    1    3    3    0    0 -0.18763015841E+02  0.84419695023E+01  0.28425850130E+02  0.35090707206E+02  0.10566000000E+00 0.  1.
         22    1    1    0    0    0 -0.19516780649E+01  0.20961865717E+02  0.20427039099E+02  0.29333816457E+02  0.00000000000E+00 0. -1.
</event>
<event>
 5    1  0.1250806E-009  0.9118800E+02  0.7561462E-02  0.1125453E+00
         25   -1    0    0    0    0  0.00000000000E+00  0.00000000000E+00  0.99999998245E-14  0.12509000000E+03  0.12509000000E+03 0.  0.
        -13    1    3    3    0    0 -0.13653455052E+02 -0.21313671001E+02  0.47682054998E+02  0.53984061900E+02  0.10566000000E+00 0.  1.
         23    2    1    0    0    0 -0.25860782946E+02 -0.92653930023E+01  0.91926729093E+01  0.96122210348E+02  0.91653404110E+02 0.  0.
         13    1    3    3    0    0 -0.12207327895E+02  0.12048277999E+02 -0.38489382088E+02  0.42138148448E+02  0.10566000000E+00 0. -1.
         22    1    1    0    0    0  0.25860782946E+02  0.92653930023E+01 -0.91926729093E+01  0.28967789652E+02  0.00000000000E+00 0.  1.
</event>
<event>
 5    1  0.1250806E-009  0.9118800E+02  0.7561462E-02  0.1125453E+00
         25   -1    0    0    0    0  0.00000000000E+00  0.00000000000E+00  0.99999998245E-14  0.12509000000E+03  0.12509000000E+03 0.  0.
        -13    1    3    3    0    0  0.15010073561E+02  0.55911346137E+02 -0.38872156576E+01  0.58021569651E+02  0.10566000000E+00 0. -1.
         23    2    1    0    0    0  0.13785039609E+01  0.24282850469E+02 -0.17574714018E+02  0.95082872965E+02  0.90223749969E+02 0.  0.
         13    1    3    3    0    0 -0.13631569600E+02 -0.31628495668E+02 -0.13687498360E+02  0.37061303314E+02  0.10566000000E+00 0.  1.
         22    1    1    0    0    0 -0.13785039609E+01 -0.24282850469E+02  0.17574714018E+02  0.30007127035E+02  0.00000000000E+00 0.  1.
</event>
<event>
 5    1  0.1250806E-009  0.9118800E+02  0.7561462E-02  0.1125453E+00
         25   -1    0    0    0    0  0.00000000000E+00  0.00000000000E+00  0.99999998245E-14  0.12509000000E+03  0.12509000000E+03 0.  0.
        -13    1    3    3    0    0  0.17884274549E+02 -0.19077325893E+02  0.22861078282E+02  0.34733725738E+02  0.10566000000E+00 0.  1.
         23    2    1    0    0    0  0.35023042547E+01  0.88435797545E+00 -0.30964368148E+02  0.93915646455E+02  0.88590678574E+02 0.  0.
         13    1    3    3    0    0 -0.14381970294E+02  0.19961683868E+02 -0.53825446430E+02  0.59181920718E+02  0.10566000000E+00 0. -1.
         22    1    1    0    0    0 -0.35023042547E+01 -0.88435797545E+00  0.30964368148E+02  0.31174353545E+02  0.00000000000E+00 0. -1.
</event>
<event>
 5    1  0.1250806E-009  0.9118800E+02  0.7561462E-02  0.1125453E+00
         25   -1    0    0    0    0  0.00000000000E+00  0.00000000000E+00  0.99999998245E-14  0.12509000000E+03  0.12509000000E+03 0.  0.
        -13    1    3    3    0    0 -0.53766346702E+02 -0.18809449396E+02 -0.15014865277E+02  0.58907323548E+02  0.10566000000E+00 0.  1.
         23    2    1    0    0    0 -0.18142292161E+02 -0.12913428723E+02 -0.19749480899E+02  0.95325232203E+02  0.90559143616E+02 0.  0.
         13    1    3    3    0    0  0.35624054541E+02  0.58960206733E+01 -0.47346156215E+01  0.36417908655E+02  0.10566000000E+00 0. -1.
         22    1    1    0    0    0  0.18142292161E+02  0.12913428723E+02  0.19749480899E+02  0.29764767797E+02  0.00000000000E+00 0.  1.
</event>
<event>
 5    1  0.1250806E-009  0.9118800E+02  0.7561462E-02  0.1125453E+00
         25   -1    0    0    0    0  0.00000000000E+00  0.00000000000E+00  0.99999998245E-14  0.12509000000E+03  0.12509000000E+03 0.  0.
        -13    1    3    3    0    0 -0.20371471967E+02 -0.13474911571E+02 -0.45173791337E+02  0.51354188726E+02  0.10566000000E+00 0.  1.
         23    2    1    0    0    0 -0.28704217774E+02 -0.54470411663E+01 -0.22761940988E+01  0.95784993004E+02  0.91192003211E+02 0.  0.
         13    1    3    3    0    0 -0.83327458064E+01  0.80278704048E+01  0.42897597238E+02  0.44430804277E+02  0.10566000000E+00 0. -1.
         22    1    1    0    0    0  0.28704217774E+02  0.54470411663E+01  0.22761940988E+01  0.29305006996E+02  0.00000000000E+00 0. -1.
</event>
<event>
 5    1  0.1250806E-009  0.9118800E+02  0.7561462E-02  0.1125453E+00
         25   -1    0    0    0    0  0.00000000000E+00  0.00000000000E+00  0.99999998245E-14  0.12509000000E+03  0.12509000000E+03 0.  0.
        -13    1    3    3    0    0  0.31651833000E+02  0.29074769154E+02  0.71983120069E+01  0.43577604264E+02  0.10566000000E+00 0. -1.
         23    2    1    0    0    0  0.15776555612E+02 -0.14965838050E+02  0.23427550030E+02  0.93125549185E+02  0.87467947244E+02 0.  0.
         13    1    3    3    0    0 -0.15875277388E+02 -0.44040607204E+02  0.16229238023E+02  0.49547944921E+02  0.10566000000E+00 0.  1.
         22    1    1    0    0    0 -0.15776555612E+02  0.14965838050E+02 -0.23427550030E+02  0.31964450815E+02  0.00000000000E+00 0. -1.
</event>
<event>
 5    1  0.1250806E-009  0.9118800E+02  0.7561462E-02  0.1125453E+00
         25   -1    0    0    0    0  0.00000000000E+00  0.00000000000E+00  0.99999998245E-14  0.12509000000E+03  0.12509000000E+03 0.  0.
        -13    1    3    3    0    0 -0.58806178406E+02 -0.12273774008E+02 -0.13480677467E+02  0.61567458743E+02  0.10566000000E+00 0.  1.
         23    2    1    0    0    0 -0.25512976760E+02 -0.13281548972E+02 -0.66061239511E+01  0.95578097318E+02  0.90907757023E+02 0.  0.
         13    1    3    3    0    0  0.33293201646E+02 -0.10077749647E+01  0.68745535156E+01  0.34010638575E+02  0.10566000000E+00 0. -1.
         22    1    1    0    0    0  0.25512976760E+02  0.13281548972E+02  0.66061239511E+01  0.29511902682E+02  0.00000000000E+00 0.  1.
</event>
<event>
 5    1  0.1250806E-009  0.9118800E+02  0.7561462E-02  0.1125453E+00
         25   -1    0    0    0    0  0.00000000000E+00  0.00000000000E+00  0.99999998245E-14  0.12509000000E+03  0.12509000000E+03 0.  0.
        -13    1    3    3    0    0 -0.10277627833E+02  0.75690532399E+01 -0.55739350636E+02  0.57182222537E+02  0.10566000000E+00 0. -1.
         23    2    1    0    0    0 -0.22131810682E+02  0.26306725162E+01 -0.20052782126E+02  0.95109146894E+02  0.90260169898E+02 0.  0.
         13    1    3    3    0    0 -0.11854182848E+02 -0.49383807237E+01  0.35686568510E+02  0.37926924358E+02  0.10566000000E+00 0.  1.
         22    1    1    0    0    0  0.22131810682E+02 -0.26306725162E+01  0.20052782126E+02  0.29980853106E+02  0.00000000000E+00 0. -1.
</event>
<event>
 5    1  0.1250806E-009  0.9118800E+02  0.7561462E-02  0.1125453E+00
         25   -1    0    0    0    0  0.00000000000E+00  0.00000000000E+00  0.99999998245E-14  0.12509000000E+03  0.12509000000E+03 0.  0.
        -13    1    3    3    0    0 -0.17766397216E+02  0.12203927393E+02 -0.53249153267E+02  0.57446185266E+02  0.10566000000E+00 0. -1.
         23    2    1    0    0    0 -0.99735406319E+01  0.21376921870E+02 -0.16013480855E+02  0.96579021931E+02  0.92274761482E+02 0.  0.
         13    1    3    3    0    0  0.77928565845E+01  0.91729944767E+01  0.37235672412E+02  0.39132836665E+02  0.10566000000E+00 0.  1.
         22    1    1    0    0    0  0.99735406319E+01 -0.21376921870E+02  0.16013480855E+02  0.28510978069E+02  0.00000000000E+00 0. -1.
</event>
<event>
 5    1  0.1250806E-009  0.9118800E+02  0.7561462E-02  0.1125453E+00
         25   -1    0    0    0    0  0.00000000000E+00  0.00000000000E+00  0.99999998245E-14  0.12509000000E+03  0.12509000000E+03 0.  0.
        -13    1    3    3    0    0 -0.24469393102E+02 -0.38556611884E+02 -0.12778043011E+02  0.47419964846E+02  0.10566000000E+00 0. -1.
         23    2    1    0    0    0  0.16251140118E+01 -0.16672257877E+02  0.22883012274E+02  0.96730919814E+02  0.92480448847E+02 0.  0.
         13    1    3    3    0    0  0.26094507114E+02  0.21884354007E+02  0.35661055285E+02  0.49310954968E+02  0.10566000000E+00 0.  1.
         22    1    1    0    0    0 -0.16251140118E+01  0.16672257877E+02 -0.22883012274E+02  0.28359080186E+02  0.00000000000E+00 0. -1.
</event>
<event>
 5    1  0.1250806E-009  0.9118800E+02  0.7561462E-02  0.1125453E+00
         25   -1    0    0    0    0  0.00000000000E+00  0.00000000000E+00  0.99999998245E-14  0.12509000000E+03  0.12509000000E+03 0.  0.
        -13    1    3    3    0    0  0.59822704042E+02 -0.15526236302E+02  0.84738966890E+01  0.62382994652E+02  0.10566000000E+00 0.  1.
         23    2    1    0    0    0  0.28311703484E+02 -0.98228076045E+01  0.62094055566E+01  0.94486130624E+02  0.89392572731E+02 0.  0.
         13    1    3    3    0    0 -0.31511000558E+02  0.57034286977E+01 -0.22644911324E+01  0.32103135972E+02  0.10566000000E+00 0. -1.
         22    1    1    0    0    0 -0.28311703484E+02  0.98228076045E+01 -0.62094055566E+01  0.30603869376E+02  0.00000000000E+00 0.  1.
</event>
<event>
 5    1  0.1250806E-009  0.9118800E+02  0.7561462E-02  0.1125453E+00
         25   -1    0    0    0    0  0.00000000000E+00  0.00000000000E+00  0.99999998245E-14  0.12509000000E+03  0.12509000000E+03 0.  0.
        -13    1    3    3    0    0  0.21539065116E+02 -0.30834247824E+02  0.50345308762E+01  0.37947856727E+02  0.10566000000E+00 0.  1.
         23    2    1    0    0    0 -0.63468434752E+01  0.70007775401E+01 -0.28092869224E+02  0.95450455309E+02  0.90731950322E+02 0.  0.
         13    1    3    3    0    0 -0.27885908592E+02  0.37835025364E+02 -0.33127400100E+02  0.57502598582E+02  0.10566000000E+00 0. -1.
         22    1    1    0    0    0  0.63468434752E+01 -0.70007775401E+01  0.28092869224E+02  0.29639544691E+02  0.00000000000E+00 0. -1.
</event>
<event>
 5    1  0.1250806E-009  0.9118800E+02  0.7561462E-02  0.1125453E+00
         25   -1    0    0    0    0  0.00000000000E+00  0.00000000000E+00  0.99999998245E-14  0.12509000000E+03  0.12509000000E+03 0.  0.
        -13    1    3    3    0    0  0.94416528577E+00  0.42141230003E+01  0.27377119736E+02  0.27715846186E+02  0.10566000000E+00 0.  1.
         23    2    1    0    0    0 -0.88794339725E+01  0.53566530588E+01 -0.33824537847E+02  0.89711511617E+02  0.82440996333E+02 0.  0.
         13    1    3    3    0    0 -0.98235992582E+01  0.11425300584E+01 -0.61201657583E+02  0.61995665431E+02  0.10566000000E+00 0. -1.
         22    1    1    0    0    0  0.88794339725E+01 -0.53566530588E+01  0.33824537847E+02  0.35378488383E+02  0.00000000000E+00 0. -1.
</event>
<event>
 5    1  0.1250806E-009  0.9118800E+02  0.7561462E-02  0.1125453E+00
         25   -1    0    0    0    0  0.00000000000E+00  0.00000000000E+00  0.99999998245E-14  0.12509000000E+03  0.12509000000E+03 0.  0.
        -13    1    3    3    0    0 -0.34036357312E+02 -0.38307400988E+01 -0.12230452011E+02  0.36369538204E+02  0.10566000000E+00 0. -1.
         23    2    1    0    0    0  0.23374289300E+02  0.59379424254E+01 -0.18151497121E+02  0.94905676118E+02  0.89977741421E+02 0.  0.
         13    1    3    3    0    0  0.57410646611E+02  0.97686825242E+01 -0.59210451092E+01  0.58536137913E+02  0.10566000000E+00 0.  1.
         22    1    1    0    0    0 -0.23374289300E+02 -0.59379424254E+01  0.18151497121E+02  0.30184323882E+02  0.00000000000E+00 0.  1.
</event>
<event>
 5    1  0.1250806E-009  0.9118800E+02  0.7561462E-02  0.1125453E+00
         25   -1    0    0    0    0  0.00000000000E+00  0.00000000000E+00  0.99999998245E-14  0.12509000000E+03  0.12509000000E+03 0.  0.
        -13    1    3    3    0    0 -0.11674638855E+02 -0.13332542587E+02  0.41910975759E+02  0.45503790362E+02  0.10566000000E+00 0.  1.
         23    2    1    0    0    0  0.26124975875E+02  0.32795976099E+01  0.15029838173E+02  0.94772246777E+02  0.89792051980E+02 0.  0.
         13    1    3    3    0    0  0.37799614730E+02  0.16612140197E+02 -0.26881137585E+02  0.49268456415E+02  0.10566000000E+00 0. -1.
         22    1    1    0    0    0 -0.26124975875E+02 -0.32795976099E+01 -0.15029838173E+02  0.30317753223E+02  0.00000000000E+00 0.  1.
</event>
<event>
 5    1  0.1250806E-009  0.9118800E+02  0.7561462E-02  0.1125453E+00
         25   -1    0    0    0    0  0.00000000000E+00  0.00000000000E+00  0.99999998245E-14  0.12509000000E+03  0.12509000000E+03 0.  0.
        -13    1    3    3    0    0  0.20078502874E+01  0.32401957160E+02 -0.50142158781E+02  0.59734123764E+02  0.10566000000E+00 0.  1.
         23    2    1    0    0    0  0.44283139667E+01  0.24899208548E+02 -0.15137126346E+02  0.95616059901E+02  0.90959978926E+02 0.  0.
         13    1    3    3    0    0  0.24204636793E+01 -0.75027486111E+01  0.35005032436E+02  0.35881936138E+02  0.10566000000E+00 0. -1.
         22    1    1    0    0    0 -0.44283139667E+01 -0.24899208548E+02  0.15137126346E+02  0.29473940099E+02  0.00000000000E+00 0.  1.
</event>
<event>
 5    1  0.1250806E-009  0.9118800E+02  0.7561462E-02  0.1125453E+00
         25   -1    0    0    0    0  0.00000000000E+00  0.00000000000E+00  0.99999998245E-14  0.12509000000E+03  0.12509000000E+03 0.  0.
        -13    1    3    3    0    0 -0.27677774017E+02 -0.17534150911E+02  0.14473696320E+02  0.35819054592E+02  0.10566000000E+00 0. -1.
         23    2    1    0    0    0  0.71522711920E+01 -0.71710161383E+01 -0.30101787931E+02  0.93330023736E+02  0.87759883992E+02 0.  0.
         13    1    3    3    0    0  0.34830045209E+02  0.10363134773E+02 -0.44575484251E+02  0.57510969143E+02  0.10566000000E+00 0.  1.
         22    1    1    0    0    0 -0.71522711920E+01  0.71710161383E+01  0.30101787931E+02  0.31759976264E+02  0.00000000000E+00 0.  1.
</event>
<event>
 5    1  0.1250806E-009  0.9118800E+02  0.7561462E-02  0.1125453E+00
         25   -1    0    0    0    0  0.00000000000E+00  0.00000000000E+00  0.99999998245E-14  0.12509000000E+03  0.12509000000E+03 0.  0.
        -13    1    3    3    0    0  0.35145700645E+02 -0.51931218913E+01  0.50899140522E+02  0.62071913606E+02  0.10566000000E+00 0.  1.
         23    2    1    0    0    0  0.20789497690E+02 -0.11658028872E+01  0.20817163282E+02  0.95646552551E+02  0.91001903371E+02 0.  0.
         13    1    3    3    0    0 -0.14356202955E+02  0.40273190041E+01 -0.30081977239E+02  0.33574638945E+02  0.10566000000E+00 0. -1.
         22    1    1    0    0    0 -0.20789497690E+02  0.11658028872E+01 -0.20817163282E+02  0.29443447449E+02  0.00000000000E+00 0.  1.
</event>
<event>
 5    1  0.1250806E-009  0.9118800E+02  0.7561462E-02  0.1125453E+00
         25   -1    0    0    0    0  0.00000000000E+00  0.00000000000E+00  0.99999998245E-14  0.12509000000E+03  0.12509000000E+03 0.  0.
        -13    1    3    3    0    0 -0.43310396989E+02  0.92436934446E+01 -0.38358305045E+01  0.44451784166E+02  0.10566000000E+00 0.  1.
         23    2    1    0    0    0  0.61704836316E+01  0.82668699513E+01 -0.24823252925E+02  0.98208595780E+02  0.94458024499E+02 0.  0.
         13    1    3    3    0    0  0.49480880620E+02 -0.97682349336E+00 -0.20987422421E+02  0.53756811615E+02  0.10566000000E+00 0. -1.
         22    1    1    0    0    0 -0.61704836316E+01 -0.82668699513E+01  0.24823252925E+02  0.26881404220E+02  0.00000000000E+00 0. -1.
</event>
<event>
 5    1  0.1250806E-009  0.9118800E+02  0.7561462E-02  0.1125453E+00
         25   -1    0    0    0    0  0.00000000000E+00  0.00000000000E+00  0.99999998245E-14  0.12509000000E+03  0.12509000000E+03 0.  0.
        -13    1    3    3    0    0  0.51969856743E+02 -0.11160260148E+02  0.14022614485E+02  0.54973287127E+02  0.10566000000E+00 0.  1.
         23    2    1    0    0    0  0.26756962294E+02  0.58465862987E+01 -0.12178671926E+02  0.95116050437E+02  0.90269736890E+02 0.  0.
         13    1    3    3    0    0 -0.25212894449E+02  0.17006846447E+02 -0.26201286411E+02  0.40142763310E+02  0.10566000000E+00 0. -1.
         22    1    1    0    0    0 -0.26756962294E+02 -0.58465862987E+01  0.12178671926E+02  0.29973949563E+02  0.00000000000E+00 0.  1.
</event>
<event>
 5    1  0.1250806E-009  0.9118800E+02  0.7561462E-02  0.1125453E+00
         25   -1    0    0    0    0  0.00000000000E+00  0.00000000000E+00  0.99999998245E-14  0.12509000000E+03  0.12509000000E+03 0.  0.
        -13    1    3    3    0    0 -0.13042120824E+02 -0.42399105109E+02  0.13295446853E+02  0.46309406179E+02  0.10566000000E+00 0. -1.
         23    2    1    0    0    0 -0.28269348584E+02  0.41725342218E+01  0.65934505639E+01  0.95763566505E+02  0.91162607291E+02 0.  0.
         13    1    3    3    0    0 -0.15227227760E+02  0.46571639331E+02 -0.67019962894E+01  0.49454160325E+02  0.10566000000E+00 0.  1.
         22    1    1    0    0    0  0.28269348584E+02 -0.41725342218E+01 -0.65934505639E+01  0.29326433495E+02  0.00000000000E+00 0.  1.
</event>
<event>
 5    1  0.1250806E-009  0.9118800E+02  0.7561462E-02  0.1125453E+00
         25   -1    0    0    0    0  0.00000000000E+00  0.00000000000E+00  0.99999998245E-14  0.12509000000E+03  0.12509000000E+03 0.  0.
        -13    1    3    3    0    0  0.16735177215E+01 -0.14668922626E+02 -0.33430846987E+02  0.36546007263E+02  0.10566000000E+00 0.  1.
         23    2    1    0    0    0  0.31831969201E+01 -0.75653296655E+01  0.26722074608E+02  0.97135819151E+02  0.93026507702E+02 0.  0.
         13    1    3    3    0    0  0.15096791986E+01  0.71035929609E+01  0.60152921595E+02  0.60589811888E+02  0.10566000000E+00 0. -1.
         22    1    1    0    0    0 -0.31831969201E+01  0.75653296655E+01 -0.26722074608E+02  0.27954180849E+02  0.00000000000E+00 0. -1.
</event>
<event>
 5    1  0.1250806E-009  0.9118800E+02  0.7561462E-02  0.1125453E+00
         25   -1    0    0    0    0  0.00000000000E+00  0.00000000000E+00  0.99999998245E-14  0.12509000000E+03  0.12509000000E+03 0.  0.
        -13    1    3    3    0    0 -0.33781172690E+02  0.33563686025E+02 -0.75800331932E+01  0.48219878838E+02  0.10566000000E+00 0.  1.
         23    2    1    0    0    0 -0.22531157530E+02 -0.12856696189E+02 -0.12606337703E+02  0.96247887615E+02  0.91824770207E+02 0.  0.
         13    1    3    3    0    0  0.11250015161E+02 -0.46420382214E+02 -0.50263045099E+01  0.48028008777E+02  0.10566000000E+00 0. -1.
         22    1    1    0    0    0  0.22531157530E+02  0.12856696189E+02  0.12606337703E+02  0.28842112385E+02  0.00000000000E+00 0.  1.
</event>
<event>
 5    1  0.1250806E-009  0.9118800E+02  0.7561462E-02  0.1125453E+00
         25   -1    0    0    0    0  0.00000000000E+00  0.00000000000E+00  0.99999998245E-14  0.12509000000E+03  0.12509000000E+03 0.  0.
        -13    1    3    3    0    0  0.44856719255E+02  0.10508887444E+02  0.25296219207E+02  0.52559222291E+02  0.10566000000E+00 0. -1.
         23    2    1    0    0    0  0.86170396944E+01  0.26593792641E+02  0.67494607200E+01  0.96331724667E+02  0.91938907853E+02 0.  0.
         13    1    3    3    0    0 -0.36239679561E+02  0.16084905197E+02 -0.18546758486E+02  0.43772502376E+02  0.10566000000E+00 0.  1.
         22    1    1    0    0    0 -0.86170396944E+01 -0.26593792641E+02 -0.67494607200E+01  0.28758275333E+02  0.00000000000E+00 0. -1.
</event>
<event>
 5    1  0.1250806E-009  0.9118800E+02  0.7561462E-02  0.1125453E+00
         25   -1    0    0    0    0  0.00000000000E+00  0.00000000000E+00  0.99999998245E-14  0.12509000000E+03  0.12509000000E+03 0.  0.
        -13    1    3    3    0    0  0.60693782998E+01  0.34439710772E+02 -0.16157894357E+02  0.38522976846E+02  0.10566000000E+00 0. -1.
         23    2    1    0    0    0  0.41514188395E+02  0.24617902399E+02 -0.90202526655E+01  0.75989756470E+02  0.57996630709E+02 0.  0.
         13    1    3    3    0    0  0.35444810095E+02 -0.98218083729E+01  0.71376416918E+01  0.37466779623E+02  0.10566000000E+00 0.  1.
         22    1    1    0    0    0 -0.41514188395E+02 -0.24617902399E+02  0.90202526655E+01  0.49100243530E+02  0.00000000000E+00 0. -1.
</event>
<event>
 5    1  0.1250806E-009  0.9118800E+02  0.7561462E-02  0.1125453E+00
         25   -1    0    0    0    0  0.00000000000E+00  0.00000000000E+00  0.99999998245E-14  0.12509000000E+03  0.12509000000E+03 0.  0.
        -13    1    3    3    0    0  0.27098907676E+02  0.20981590073E+02 -0.37334472996E+01  0.34475030268E+02  0.10566000000E+00 0.  1.
         23    2    1    0    0    0 -0.19271379356E+02 -0.14096768593E+02  0.16531014761E+02  0.96049004906E+02  0.91553437660E+02 0.  0.
         13    1    3    3    0    0 -0.46370287031E+02 -0.35078358666E+02  0.20264462060E+02  0.61573974638E+02  0.10566000000E+00 0. -1.
         22    1    1    0    0    0  0.19271379356E+02  0.14096768593E+02 -0.16531014761E+02  0.29040995094E+02  0.00000000000E+00 0. -1.
</event>
<event>
 5    1  0.1250806E-009  0.9118800E+02  0.7561462E-02  0.1125453E+00
         25   -1    0    0    0    0  0.00000000000E+00  0.00000000000E+00  0.99999998245E-14  0.12509000000E+03  0.12509000000E+03 0.  0.
        -13    1    3    3    0    0  0.24222125626E+02 -0.16295352316E+02  0.17767080720E+02  0.34174993757E+02  0.10566000000E+00 0.  1.
         23    2    1    0    0    0 -0.14646056203E+01  0.10037839578E+02 -0.29398759278E+02  0.93990316077E+02  0.88696049383E+02 0.  0.
         13    1    3    3    0    0 -0.25686731246E+02  0.26333191894E+02 -0.47165839998E+02  0.59815322320E+02  0.10566000000E+00 0. -1.
         22    1    1    0    0    0  0.14646056203E+01 -0.10037839578E+02  0.29398759278E+02  0.31099683923E+02  0.00000000000E+00 0. -1.
</event>
<event>
 5    1  0.1250806E-009  0.9118800E+02  0.7561462E-02  0.1125453E+00
         25   -1    0    0    0    0  0.00000000000E+00  0.00000000000E+00  0.99999998245E-14  0.12509000000E+03  0.12509000000E+03 0.  0.
        -13    1    3    3    0    0 -0.30520820055E+01 -0.35545126106E+02  0.82589305713E+01  0.36619561612E+02  0.10566000000E+00 0. -1.
         23    2    1    0    0    0 -0.18609333860E+02  0.15056542631E+02 -0.17446101466E+02  0.95469513186E+02  0.90758221164E+02 0.  0.
         13    1    3    3    0    0 -0.15557251855E+02  0.50601668737E+02 -0.25705032037E+02  0.58849951574E+02  0.10566000000E+00 0.  1.
         22    1    1    0    0    0  0.18609333860E+02 -0.15056542631E+02  0.17446101466E+02  0.29620486814E+02  0.00000000000E+00 0.  1.
</event>
<event>
 5    1  0.1250806E-009  0.9118800E+02  0.7561462E-02  0.1125453E+00
         25   -1    0    0    0    0  0.00000000000E+00  0.00000000000E+00  0.99999998245E-14  0.12509000000E+03  0.12509000000E+03 0.  0.
        -13    1    3    3    0    0  0.22333859887E+02 -0.27043464419E+02  0.23752218078E+02  0.42359524229E+02  0.10566000000E+00 0. -1.
         23    2    1    0    0    0 -0.12417393533E+02 -0.21143547372E+02 -0.16248424679E+02  0.95674824288E+02  0.91040757029E+02 0.  0.
         13    1    3    3    0    0 -0.34751253420E+02  0.58999170470E+01 -0.40000642757E+02  0.53315300059E+02  0.10566000000E+00 0.  1.
         22    1    1    0    0    0  0.12417393533E+02  0.21143547372E+02  0.16248424679E+02  0.29415175712E+02  0.00000000000E+00 0.  1.
</event>
<event>
 5    1  0.1250806E-009  0.9118800E+02  0.7561462E-02  0.1125453E+00
         25   -1    0    0    0    0  0.00000000000E+00  0.00000000000E+00  0.99999998245E-14  0.12509000000E+03  0.12509000000E+03 0.  0.
        -13    1    3    3    0    0 -0.75741653990E+01  0.51170376496E+01  0.45091226096E+02  0.46008498027E+02  0.10566000000E+00 0.  1.
         23    2    1    0    0    0  0.23414224660E+02  0.17451674086E+02  0.10508547642E+02  0.94054271905E+02  0.88786201886E+02 0.  0.
         13    1    3    3    0    0  0.30988390059E+02  0.12334636436E+02 -0.34582678454E+02  0.48045773878E+02  0.10566000000E+00 0. -1.
         22    1    1    0    0    0 -0.23414224660E+02 -0.17451674086E+02 -0.10508547642E+02  0.31035728095E+02  0.00000000000E+00 0.  1.
</event>
<event>
 5    1  0.1250806E-009  0.9118800E+02  0.7561462E-02  0.1125453E+00
         25   -1    0    0    0    0  0.00000000000E+00  0.00000000000E+00  0.99999998245E-14  0.12509000000E+03  0.12509000000E+03 0.  0.
        -13    1    3    3    0    0 -0.14179952053E+02  0.56383277919E+02 -0.10266572151E+02  0.59038620724E+02  0.10566000000E+00 0.  1.
         23    2    1    0    0    0 -0.17188446979E+02  0.17580322337E+02 -0.11431535306E+02  0.97975604516E+02  0.94148970455E+02 0.  0.
         13    1    3    3    0    0 -0.30084949260E+01 -0.38802955583E+02 -0.11649631546E+01  0.38936983792E+02  0.10566000000E+00 0. -1.
         22    1    1    0    0    0  0.17188446979E+02 -0.17580322337E+02  0.11431535306E+02  0.27114395484E+02  0.00000000000E+00 0.  1.
</event>
<event>
 5    1  0.1250806E-009  0.9118800E+02  0.7561462E-02  0.1125453E+00
         25   -1    0    0    0    0  0.00000000000E+00  0.00000000000E+00  0.99999998245E-14  0.12509000000E+03  0.12509000000E+03 0.  0.
        -13    1    3    3    0    0 -0.41331158486E+02  0.31869174567E+02  0.31390018953E+02  0.60903640312E+02  0.10566000000E+00 0.  1.
         23    2    1    0    0    0 -0.13168401109E+02  0.10845999554E+02  0.21942759642E+02  0.97295626563E+02  0.93241148392E+02 0.  0.
         13    1    3    3    0    0  0.28162757377E+02 -0.21023175013E+02 -0.94472593117E+01  0.36391986250E+02  0.10566000000E+00 0. -1.
         22    1    1    0    0    0  0.13168401109E+02 -0.10845999554E+02 -0.21942759642E+02  0.27794373437E+02  0.00000000000E+00 0.  1.
</event>
<event>
 5    1  0.1250806E-009  0.9118800E+02  0.7561462E-02  0.1125453E+00
         25   -1    0    0    0    0  0.00000000000E+00  0.00000000000E+00  0.99999998245E-14  0.12509000000E+03  0.12509000000E+03 0.  0.
        -13    1    3    3    0    0 -0.66167209045E+01 -0.36386889080E+02 -0.73236121794E+01  0.37701898518E+02  0.10566000000E+00 0.  1.
         23    2    1    0    0    0  0.24281156583E+02  0.11433380277E+02 -0.13638784989E+02  0.94984963784E+02  0.90087902293E+02 0.  0.
         13    1    3    3    0    0  0.30897877488E+02  0.47820269357E+02 -0.63151728096E+01  0.57283065266E+02  0.10566000000E+00 0. -1.
         22    1    1    0    0    0 -0.24281156583E+02 -0.11433380277E+02  0.13638784989E+02  0.30105036216E+02  0.00000000000E+00 0. -1.
</event>
<event>
 5    1  0.1250806E-009  0.9118800E+02  0.7561462E-02  0.1125453E+00
         25   -1    0    0    0    0  0.00000000000E+00  0.00000000000E+00  0.99999998245E-14  0.12509000000E+03  0.12509000000E+03 0.  0.
        -13    1    3    3    0    0  0.29517998270E+02  0.25592764417E+01  0.25453014178E+02  0.39060583874E+02  0.10566000000E+00 0. -1.
         23    2    1    0    0    0 -0.23003301687E+02 -0.13942608599E+02  0.11375011560E+02  0.95884878685E+02  0.91328915735E+02 0.  0.
         13    1    3    3    0    0 -0.52521299957E+02 -0.16501885041E+02 -0.14078002618E+02  0.56824294811E+02  0.10566000000E+00 0.  1.
         22    1    1    0    0    0  0.23003301687E+02  0.13942608599E+02 -0.11375011560E+02  0.29205121315E+02  0.00000000000E+00 0.  1.
</event>
<event>
 5    1  0.1250806E-009  0.9118800E+02  0.7561462E-02  0.1125453E+00
         25   -1    0    0    0    0  0.00000000000E+00  0.00000000000E+00  0.99999998245E-14  0.12509000000E+03  0.12509000000E+03 0.  0.
        -13    1    3    3    0    0  0.84597773446E+01 -0.30779476891E+02  0.18393195906E+02  0.36841075583E+02  0.10566000000E+00 0.  1.
         23    2    1    0    0    0  0.78752443666E+01  0.50500049596E+01 -0.28061070992E+02  0.95510518444E+02  0.90814720196E+02 0.  0.
         13    1    3    3    0    0 -0.58453297808E+00  0.35829481851E+02 -0.46454266898E+02  0.58669442861E+02  0.10566000000E+00 0. -1.
         22    1    1    0    0    0 -0.78752443666E+01 -0.50500049596E+01  0.28061070992E+02  0.29579481556E+02  0.00000000000E+00 0. -1.
</event>
<event>
 5    1  0.1250806E-009  0.9118800E+02  0.7561462E-02  0.1125453E+00
         25   -1    0    0    0    0  0.00000000000E+00  0.00000000000E+00  0.99999998245E-14  0.12509000000E+03  0.12509000000E+03 0.  0.
        -13    1    3    3    0    0  0.15099702430E+01  0.17018734737E+02  0.39827989829E+02  0.43338173474E+02  0.10566000000E+00 0.  1.
         23    2    1    0    0    0 -0.27169092802E+02  0.91648848049E+01 -0.38316184137E+01  0.96161881899E+02  0.91707532480E+02 0.  0.
         13    1    3    3    0    0 -0.28679063045E+02 -0.78538499316E+01 -0.43659608243E+02  0.52823708426E+02  0.10566000000E+00 0. -1.
         22    1    1    0    0    0  0.27169092802E+02 -0.91648848049E+01  0.38316184137E+01  0.28928118101E+02  0.00000000000E+00 0. -1.
</event>
<event>
 5    1  0.1250806E-009  0.9118800E+02  0.7561462E-02  0.1125453E+00
         25   -1    0    0    0    0  0.00000000000E+00  0.00000000000E+00  0.99999998245E-14  0.12509000000E+03  0.12509000000E+03 0.  0.
        -13    1    3    3    0    0  0.16907533839E+00  0.27761745103E+02  0.17208343468E+02  0.32663149368E+02  0.10566000000E+00 0.  1.
         23    2    1    0    0    0  0.17011000782E+02 -0.23723378720E+02 -0.11191433298E+02  0.93826266621E+02  0.88464384264E+02 0.  0.
         13    1    3    3    0    0  0.16841925444E+02 -0.51485123824E+02 -0.28399776766E+02  0.61163117254E+02  0.10566000000E+00 0. -1.
         22    1    1    0    0    0 -0.17011000782E+02  0.23723378720E+02  0.11191433298E+02  0.31263733379E+02  0.00000000000E+00 0. -1.
</event>
<event>
 5    1  0.1250806E-009  0.9118800E+02  0.7561462E-02  0.1125453E+00
         25   -1    0    0    0    0  0.00000000000E+00  0.00000000000E+00  0.99999998245E-14  0.12509000000E+03  0.12509000000E+03 0.  0.
        -13    1    3    3    0    0  0.18886297202E+02  0.21106950995E+02 -0.53117498527E+02  0.60196971819E+02  0.10566000000E+00 0.  1.
         23    2    1    0    0    0 -0.31603518861E+01  0.10804198898E+02 -0.26695217638E+02  0.96118407317E+02  0.91648213526E+02 0.  0.
         13    1    3    3    0    0 -0.22046649088E+02 -0.10302752097E+02  0.26422280889E+02  0.35921435498E+02  0.10566000000E+00 0. -1.
         22    1    1    0    0    0  0.31603518861E+01 -0.10804198898E+02  0.26695217638E+02  0.28971592683E+02  0.00000000000E+00 0.  1.
</event>
<event>
 5    1  0.1250806E-009  0.9118800E+02  0.7561462E-02  0.1125453E+00
         25   -1    0    0    0    0  0.00000000000E+00  0.00000000000E+00  0.99999998245E-14  0.12509000000E+03  0.12509000000E+03 0.  0.
        -13    1    3    3    0    0  0.27663877898E+02 -0.40083927168E+02 -0.17095908780E+02  0.51616786210E+02  0.10566000000E+00 0.  1.
         23    2    1    0    0    0  0.24412476795E+02  0.33711386959E+01 -0.16924836670E+02  0.95193784592E+02  0.90377391693E+02 0.  0.
         13    1    3    3    0    0 -0.32514011025E+01  0.43455065864E+02  0.17107210994E+00  0.43576998383E+02  0.10566000000E+00 0. -1.
         22    1    1    0    0    0 -0.24412476795E+02 -0.33711386959E+01  0.16924836670E+02  0.29896215408E+02  0.00000000000E+00 0. -1.
</event>
<event>
 5    1  0.1250806E-009  0.9118800E+02  0.7561462E-02  0.1125453E+00
         25   -1    0    0    0    0  0.00000000000E+00  0.00000000000E+00  0.99999998245E-14  0.12509000000E+03  0.12509000000E+03 0.  0.
        -13    1    3    3    0    0 -0.12583251993E+02 -0.37158100186E+02 -0.34425154385E+01  0.39381781534E+02  0.10566000000E+00 0.  1.
         23    2    1    0    0    0  0.23672620618E+02  0.11021301054E+01  0.17008184124E+02  0.95920049967E+02  0.91377075904E+02 0.  0.
         13    1    3    3    0    0  0.36255872612E+02  0.38260230292E+02  0.20450699563E+02  0.56538268433E+02  0.10566000000E+00 0. -1.
         22    1    1    0    0    0 -0.23672620618E+02 -0.11021301054E+01 -0.17008184124E+02  0.29169950033E+02  0.00000000000E+00 0.  1.
</event>
<event>
 5    1  0.1250806E-009  0.9118800E+02  0.7561462E-02  0.1125453E+00
         25   -1    0    0    0    0  0.00000000000E+00  0.00000000000E+00  0.99999998245E-14  0.12509000000E+03  0.12509000000E+03 0.  0.
        -13    1    3    3    0    0  0.21640500805E+02  0.33427211692E+02  0.41892152088E+02  0.57798385161E+02  0.10566000000E+00 0.  1.
         23    2    1    0    0    0  0.22071355446E+02  0.30994261468E+01  0.19082298426E+02  0.95749153269E+02  0.91142827830E+02 0.  0.
         13    1    3    3    0    0  0.43085464085E+00 -0.30327785546E+02 -0.22809853663E+02  0.37950768108E+02  0.10566000000E+00 0. -1.
         22    1    1    0    0    0 -0.22071355446E+02 -0.30994261468E+01 -0.19082298426E+02  0.29340846731E+02  0.00000000000E+00 0.  1.
</event>
<event>
 5    1  0.1250806E-009  0.9118800E+02  0.7561462E-02  0.1125453E+00
         25   -1    0    0    0    0  0.00000000000E+00  0.00000000000E+00  0.99999998245E-14  0.12509000000E+03  0.12509000000E+03 0.  0.
        -13    1    3    3    0    0 -0.41688593022E+02  0.17735655723E+02  0.36928707827E+02  0.58448549151E+02  0.10566000000E+00 0. -1.
         23    2    1    0    0    0 -0.30911826761E+02  0.70743550778E+01  0.61074684186E+01  0.92796212611E+02  0.86995680186E+02 0.  0.
         13    1    3    3    0    0  0.10776766261E+02 -0.10661300645E+02 -0.30821239408E+02  0.34347663460E+02  0.10566000000E+00 0.  1.
         22    1    1    0    0    0  0.30911826761E+02 -0.70743550778E+01 -0.61074684186E+01  0.32293787389E+02  0.00000000000E+00 0. -1.
</event>
<event>
 5    1  0.1250806E-009  0.9118800E+02  0.7561462E-02  0.1125453E+00
         25   -1    0    0    0    0  0.00000000000E+00  0.00000000000E+00  0.99999998245E-14  0.12509000000E+03  0.12509000000E+03 0.  0.
        -13    1    3    3    0    0  0.24490726790E+02 -0.28520509187E+02 -0.24688851188E+01  0.37673886191E+02  0.10566000000E+00 0. -1.
         23    2    1    0    0    0 -0.28452055264E+02 -0.60629294432E+01 -0.63513936586E+01  0.95313855797E+02  0.90543427941E+02 0.  0.
         13    1    3    3    0    0 -0.52942782054E+02  0.22457579744E+02 -0.38825085398E+01  0.57639969606E+02  0.10566000000E+00 0.  1.
         22    1    1    0    0    0  0.28452055264E+02  0.60629294432E+01  0.63513936586E+01  0.29776144203E+02  0.00000000000E+00 0.  1.
</event>
<event>
 5    1  0.1250806E-009  0.9118800E+02  0.7561462E-02  0.1125453E+00
         25   -1    0    0    0    0  0.00000000000E+00  0.00000000000E+00  0.99999998245E-14  0.12509000000E+03  0.12509000000E+03 0.  0.
        -13    1    3    3    0    0 -0.55581557152E+02 -0.17404347922E+02  0.18239712963E+01  0.58271424020E+02  0.10566000000E+00 0.  1.
         23    2    1    0    0    0 -0.20398506157E+02  0.29377260112E+01 -0.12052197162E+02  0.10121564673E+03  0.98359658394E+02 0.  0.
         13    1    3    3    0    0  0.35183050995E+02  0.20342073933E+02 -0.13876168458E+02  0.42944222712E+02  0.10566000000E+00 0. -1.
         22    1    1    0    0    0  0.20398506157E+02 -0.29377260112E+01  0.12052197162E+02  0.23874353268E+02  0.00000000000E+00 0.  1.
</event>
<event>
 5    1  0.1250806E-009  0.9118800E+02  0.7561462E-02  0.1125453E+00
         25   -1    0    0    0    0  0.00000000000E+00  0.00000000000E+00  0.99999998245E-14  0.12509000000E+03  0.12509000000E+03 0.  0.
        -13    1    3    3    0    0  0.65405541565E+01  0.51384304361E+02  0.11190353773E+02  0.52993969137E+02  0.10566000000E+00 0. -1.
         23    2    1    0    0    0  0.21605933019E+02  0.12198838635E+02 -0.78137604149E+01  0.99076871440E+02  0.95600960229E+02 0.  0.
         13    1    3    3    0    0  0.15065378863E+02 -0.39185465726E+02 -0.19004114188E+02  0.46082902302E+02  0.10566000000E+00 0.  1.
         22    1    1    0    0    0 -0.21605933019E+02 -0.12198838635E+02  0.78137604149E+01  0.26013128560E+02  0.00000000000E+00 0. -1.
</event>
<event>
 5    1  0.1250806E-009  0.9118800E+02  0.7561462E-02  0.1125453E+00
         25   -1    0    0    0    0  0.00000000000E+00  0.00000000000E+00  0.99999998245E-14  0.12509000000E+03  0.12509000000E+03 0.  0.
        -13    1    3    3    0    0  0.27513231329E+02 -0.33034351007E+02  0.13272285001E+02  0.44993454611E+02  0.10566000000E+00 0.  1.
         23    2    1    0    0    0 -0.19808468862E+02 -0.23405000427E+02  0.39858774615E+01  0.94169833397E+02  0.88948866318E+02 0.  0.
         13    1    3    3    0    0 -0.47321700190E+02  0.96293505796E+01 -0.92864075399E+01  0.49176378786E+02  0.10566000000E+00 0. -1.
         22    1    1    0    0    0  0.19808468862E+02  0.23405000427E+02 -0.39858774615E+01  0.30920166603E+02  0.00000000000E+00 0. -1.
</event>
<event>
 5    1  0.1250806E-009  0.9118800E+02  0.7561462E-02  0.1125453E+00
         25   -1    0    0    0    0  0.00000000000E+00  0.00000000000E+00  0.99999998245E-14  0.12509000000E+03  0.12509000000E+03 0.  0.
        -13    1    3    3    0    0  0.44953211737E+02 -0.17284537818E+02 -0.83852421396E+00  0.48169085313E+02  0.10566000000E+00 0. -1.
         23    2    1    0    0    0  0.23803261722E+02 -0.36328373097E+02  0.12914751266E+02  0.79778447823E+02  0.65661739060E+02 0.  0.
         13    1    3    3    0    0 -0.21149950015E+02 -0.19043835279E+02  0.13753275480E+02  0.31609362509E+02  0.10566000000E+00 0.  1.
         22    1    1    0    0    0 -0.23803261722E+02  0.36328373097E+02 -0.12914751266E+02  0.45311552177E+02  0.00000000000E+00 0. -1.
</event>
<event>
 5    1  0.1250806E-009  0.9118800E+02  0.7561462E-02  0.1125453E+00
         25   -1    0    0    0    0  0.00000000000E+00  0.00000000000E+00  0.99999998245E-14  0.12509000000E+03  0.12509000000E+03 0.  0.
        -13    1    3    3    0    0 -0.29077059728E+02 -0.80090341521E+01 -0.49300919522E+02  0.57794566010E+02  0.10566000000E+00 0.  1.
         23    2    1    0    0    0 -0.18562015707E+02  0.12453945850E+02 -0.28982268094E+02  0.88489165880E+02  0.80564951560E+02 0.  0.
         13    1    3    3    0    0  0.10515044021E+02  0.20462980002E+02  0.20318651428E+02  0.30694599871E+02  0.10566000000E+00 0. -1.
         22    1    1    0    0    0  0.18562015707E+02 -0.12453945850E+02  0.28982268094E+02  0.36600834120E+02  0.00000000000E+00 0.  1.
</event>
<event>
 5    1  0.1250806E-009  0.9118800E+02  0.7561462E-02  0.1125453E+00
         25   -1    0    0    0    0  0.00000000000E+00  0.00000000000E+00  0.99999998245E-14  0.12509000000E+03  0.12509000000E+03 0.  0.
        -13    1    3    3    0    0  0.25980830731E+02 -0.25241817231E+02 -0.12156885281E+02  0.38209343443E+02  0.10566000000E+00 0. -1.
         23    2    1    0    0    0 -0.10646754687E+02  0.21169766558E+02 -0.14374402919E+02  0.97374735961E+02  0.93347219255E+02 0.  0.
         13    1    3    3    0    0 -0.36627585418E+02  0.46411583788E+02 -0.22175176378E+01  0.59165392518E+02  0.10566000000E+00 0.  1.
         22    1    1    0    0    0  0.10646754687E+02 -0.21169766558E+02  0.14374402919E+02  0.27715264039E+02  0.00000000000E+00 0.  1.
</event>
<event>
 5    1  0.1250806E-009  0.9118800E+02  0.7561462E-02  0.1125453E+00
         25   -1    0    0    0    0  0.00000000000E+00  0.00000000000E+00  0.99999998245E-14  0.12509000000E+03  0.12509000000E+03 0.  0.
        -13    1    3    3    0    0  0.23288221610E+02  0.42280571411E+02 -0.31432438034E+01  0.48372297136E+02  0.10566000000E+00 0.  1.
         23    2    1    0    0    0  0.32025682120E+02 -0.14497630952E+01 -0.13178620704E+01  0.93004444236E+02  0.87294580352E+02 0.  0.
         13    1    3    3    0    0  0.87374605094E+01 -0.43730334506E+02  0.18253817330E+01  0.44632147099E+02  0.10566000000E+00 0. -1.
         22    1    1    0    0    0 -0.32025682120E+02  0.14497630952E+01  0.13178620704E+01  0.32085555764E+02  0.00000000000E+00 0.  1.
</event>
<event>
 5    1  0.1250806E-009  0.9118800E+02  0.7561462E-02  0.1125453E+00
         25   -1    0    0    0    0  0.00000000000E+00  0.00000000000E+00  0.99999998245E-14  0.12509000000E+03  0.12509000000E+03 0.  0.
        -13    1    3    3    0    0  0.57922116278E+02  0.18734599746E+02 -0.12476745966E+02  0.62142072187E+02  0.10566000000E+00 0.  1.
         23    2    1    0    0    0  0.25326293913E+02  0.12945070299E+02 -0.79553700550E+01  0.95555546879E+02  0.90876722093E+02 0.  0.
         13    1    3    3    0    0 -0.32595822365E+02 -0.57895294472E+01  0.45213759113E+01  0.33413474692E+02  0.10566000000E+00 0. -1.
         22    1    1    0    0    0 -0.25326293913E+02 -0.12945070299E+02  0.79553700550E+01  0.29534453121E+02  0.00000000000E+00 0.  1.
</event>
<event>
 5    1  0.1250806E-009  0.9118800E+02  0.7561462E-02  0.1125453E+00
         25   -1    0    0    0    0  0.00000000000E+00  0.00000000000E+00  0.99999998245E-14  0.12509000000E+03  0.12509000000E+03 0.  0.
        -13    1    3    3    0    0  0.35141066203E+02 -0.38314866827E+01  0.18856543632E+01  0.35399741249E+02  0.10566000000E+00 0.  1.
         23    2    1    0    0    0 -0.21167384978E+02 -0.16638024205E+01 -0.20066977848E+02  0.95875106106E+02  0.91315529597E+02 0.  0.
         13    1    3    3    0    0 -0.56308451181E+02  0.21676842623E+01 -0.21952632212E+02  0.60475364856E+02  0.10566000000E+00 0. -1.
         22    1    1    0    0    0  0.21167384978E+02  0.16638024205E+01  0.20066977848E+02  0.29214893894E+02  0.00000000000E+00 0. -1.
</event>
<event>
 5    1  0.1250806E-009  0.9118800E+02  0.7561462E-02  0.1125453E+00
         25   -1    0    0    0    0  0.00000000000E+00  0.00000000000E+00  0.99999998245E-14  0.12509000000E+03  0.12509000000E+03 0.  0.
        -13    1    3    3    0    0  0.46538999348E+02  0.30295209892E+02  0.22276592771E+02  0.59832565984E+02  0.10566000000E+00 0.  1.
         23    2    1    0    0    0  0.14600321449E+02  0.10110198178E+02  0.20932465396E+02  0.97639069211E+02  0.93700769662E+02 0.  0.
         13    1    3    3    0    0 -0.31938677899E+02 -0.20185011714E+02 -0.13441273752E+01  0.37806503227E+02  0.10566000000E+00 0. -1.
         22    1    1    0    0    0 -0.14600321449E+02 -0.10110198178E+02 -0.20932465396E+02  0.27450930789E+02  0.00000000000E+00 0.  1.
</event>
<event>
 5    1  0.1250806E-009  0.9118800E+02  0.7561462E-02  0.1125453E+00
         25   -1    0    0    0    0  0.00000000000E+00  0.00000000000E+00  0.99999998245E-14  0.12509000000E+03  0.12509000000E+03 0.  0.
        -13    1    3    3    0    0  0.17951941794E+02 -0.30197537314E+02 -0.37888213776E+01  0.35334541252E+02  0.10566000000E+00 0. -1.
         23    2    1    0    0    0 -0.65186722776E+01  0.25653824519E+02 -0.10362293250E+02  0.96664854053E+02  0.92391044409E+02 0.  0.
         13    1    3    3    0    0 -0.24470614072E+02  0.55851361833E+02 -0.65734718727E+01  0.61330312800E+02  0.10566000000E+00 0.  1.
         22    1    1    0    0    0  0.65186722776E+01 -0.25653824519E+02  0.10362293250E+02  0.28425145947E+02  0.00000000000E+00 0.  1.
</event>
<event>
 5    1  0.1250806E-009  0.9118800E+02  0.7561462E-02  0.1125453E+00
         25   -1    0    0    0    0  0.00000000000E+00  0.00000000000E+00  0.99999998245E-14  0.12509000000E+03  0.12509000000E+03 0.  0.
        -13    1    3    3    0    0  0.28851011335E+02 -0.12816038648E+02 -0.17015473067E+02  0.35863201048E+02  0.10566000000E+00 0.  1.
         23    2    1    0    0    0 -0.74396553302E+01  0.16860196354E+02  0.21669857902E+02  0.96643604199E+02  0.92362269345E+02 0.  0.
         13    1    3    3    0    0 -0.36290666666E+02  0.29676235003E+02  0.38685330969E+02  0.60780403151E+02  0.10566000000E+00 0. -1.
         22    1    1    0    0    0  0.74396553302E+01 -0.16860196354E+02 -0.21669857902E+02  0.28446395801E+02  0.00000000000E+00 0. -1.
</event>
<event>
 5    1  0.1250806E-009  0.9118800E+02  0.7561462E-02  0.1125453E+00
         25   -1    0    0    0    0  0.00000000000E+00  0.00000000000E+00  0.99999998245E-14  0.12509000000E+03  0.12509000000E+03 0.  0.
        -13    1    3    3    0    0  0.30641440870E+02 -0.40371757768E+02 -0.21636163189E+02  0.55108179479E+02  0.10566000000E+00 0. -1.
         23    2    1    0    0    0 -0.61396379980E+01 -0.26032771057E+02 -0.53490041630E+01  0.97813413534E+02  0.93933229999E+02 0.  0.
         13    1    3    3    0    0 -0.36781078868E+02  0.14338986711E+02  0.16287159026E+02  0.42705234056E+02  0.10566000000E+00 0.  1.
         22    1    1    0    0    0  0.61396379980E+01  0.26032771057E+02  0.53490041630E+01  0.27276586466E+02  0.00000000000E+00 0. -1.
</event>
<event>
 5    1  0.1250806E-009  0.9118800E+02  0.7561462E-02  0.1125453E+00
         25   -1    0    0    0    0  0.00000000000E+00  0.00000000000E+00  0.99999998245E-14  0.12509000000E+03  0.12509000000E+03 0.  0.
        -13    1    3    3    0    0  0.33036451686E+02 -0.34425688203E+01 -0.31173746288E+02  0.45552958649E+02  0.10566000000E+00 0.  1.
         23    2    1    0    0    0  0.23527816603E+02 -0.37227908252E+01  0.17743899644E+02  0.95387082631E+02  0.90644537798E+02 0.  0.
         13    1    3    3    0    0 -0.95086350823E+01 -0.28022200484E+00  0.48917645932E+02  0.49834123982E+02  0.10566000000E+00 0. -1.
         22    1    1    0    0    0 -0.23527816603E+02  0.37227908252E+01 -0.17743899644E+02  0.29702917369E+02  0.00000000000E+00 0. -1.
</event>
<event>
 5    1  0.1250806E-009  0.9118800E+02  0.7561462E-02  0.1125453E+00
         25   -1    0    0    0    0  0.00000000000E+00  0.00000000000E+00  0.99999998245E-14  0.12509000000E+03  0.12509000000E+03 0.  0.
        -13    1    3    3    0    0 -0.32041331500E+01 -0.25647506051E+02 -0.34584063039E+02  0.43175567352E+02  0.10566000000E+00 0.  1.
         23    2    1    0    0    0  0.22196960604E+02 -0.15376491404E+02  0.10651891128E+02  0.96062352273E+02  0.91571672431E+02 0.  0.
         13    1    3    3    0    0  0.25401093754E+02  0.10271014647E+02  0.45235954168E+02  0.52886784921E+02  0.10566000000E+00 0. -1.
         22    1    1    0    0    0 -0.22196960604E+02  0.15376491404E+02 -0.10651891128E+02  0.29027647727E+02  0.00000000000E+00 0.  1.
</event>
<event>
 5    1  0.1250806E-009  0.9118800E+02  0.7561462E-02  0.1125453E+00
         25   -1    0    0    0    0  0.00000000000E+00  0.00000000000E+00  0.99999998245E-14  0.12509000000E+03  0.12509000000E+03 0.  0.
        -13    1    3    3    0    0  0.26011507354E+02  0.24453362758E+02 -0.50661919483E+02  0.61977469412E+02  0.10566000000E+00 0. -1.
         23    2    1    0    0    0  0.12755981504E+02  0.16872891403E+02 -0.21306740203E+02  0.95066897121E+02  0.90201597667E+02 0.  0.
         13    1    3    3    0    0 -0.13255525850E+02 -0.75804713551E+01  0.29355179280E+02  0.33089427709E+02  0.10566000000E+00 0.  1.
         22    1    1    0    0    0 -0.12755981504E+02 -0.16872891403E+02  0.21306740203E+02  0.30023102879E+02  0.00000000000E+00 0. -1.
</event>
<event>
 5    1  0.1250806E-009  0.9118800E+02  0.7561462E-02  0.1125453E+00
         25   -1    0    0    0    0  0.00000000000E+00  0.00000000000E+00  0.99999998245E-14  0.12509000000E+03  0.12509000000E+03 0.  0.
        -13    1    3    3    0    0 -0.39506770795E+02 -0.31884337657E+01 -0.19631146943E+02  0.44230579273E+02  0.10566000000E+00 0. -1.
         23    2    1    0    0    0 -0.14978424269E+02  0.43554812870E+01  0.24946981663E+02  0.95667639372E+02  0.91030884420E+02 0.  0.
         13    1    3    3    0    0  0.24528346526E+02  0.75439150527E+01  0.44578128606E+02  0.51437060099E+02  0.10566000000E+00 0.  1.
         22    1    1    0    0    0  0.14978424269E+02 -0.43554812870E+01 -0.24946981663E+02  0.29422360628E+02  0.00000000000E+00 0.  1.
</event>
<event>
 5    1  0.1250806E-009  0.9118800E+02  0.7561462E-02  0.1125453E+00
         25   -1    0    0    0    0  0.00000000000E+00  0.00000000000E+00  0.99999998245E-14  0.12509000000E+03  0.12509000000E+03 0.  0.
        -13    1    3    3    0    0  0.79775822950E+01 -0.32328365172E+02  0.77494860285E+01  0.34188166253E+02  0.10566000000E+00 0.  1.
         23    2    1    0    0    0 -0.19919144540E+02  0.19456422485E+02 -0.97997220422E+01  0.95571205187E+02  0.90898272886E+02 0.  0.
         13    1    3    3    0    0 -0.27896726835E+02  0.51784787657E+02 -0.17549208071E+02  0.61383038934E+02  0.10566000000E+00 0. -1.
         22    1    1    0    0    0  0.19919144540E+02 -0.19456422485E+02  0.97997220422E+01  0.29518794813E+02  0.00000000000E+00 0. -1.
</event>
<event>
 5    1  0.1250806E-009  0.9118800E+02  0.7561462E-02  0.1125453E+00
         25   -1    0    0    0    0  0.00000000000E+00  0.00000000000E+00  0.99999998245E-14  0.12509000000E+03  0.12509000000E+03 0.  0.
        -13    1    3    3    0    0  0.39240100988E+02 -0.19566816132E+02  0.10385625899E+02  0.45061271713E+02  0.10566000000E+00 0. -1.
         23    2    1    0    0    0  0.15340583486E+02  0.24235323671E+02 -0.15451336897E+01  0.96365935990E+02  0.91985443229E+02 0.  0.
         13    1    3    3    0    0 -0.23899517502E+02  0.43802139803E+02 -0.11930759588E+02  0.51304664277E+02  0.10566000000E+00 0.  1.
         22    1    1    0    0    0 -0.15340583486E+02 -0.24235323671E+02  0.15451336897E+01  0.28724064010E+02  0.00000000000E+00 0.  1.
</event>
<event>
 5    1  0.1250806E-009  0.9118800E+02  0.7561462E-02  0.1125453E+00
         25   -1    0    0    0    0  0.00000000000E+00  0.00000000000E+00  0.99999998245E-14  0.12509000000E+03  0.12509000000E+03 0.  0.
        -13    1    3    3    0    0  0.53811624556E+02 -0.68681447901E-01 -0.10050354593E+02  0.54742272934E+02  0.10566000000E+00 0. -1.
         23    2    1    0    0    0  0.22303255426E+02 -0.21567857213E+02 -0.51824179504E+00  0.94059752790E+02  0.88793923514E+02 0.  0.
         13    1    3    3    0    0 -0.31508369130E+02 -0.21499175765E+02  0.95321127978E+01  0.39317479856E+02  0.10566000000E+00 0.  1.
         22    1    1    0    0    0 -0.22303255426E+02  0.21567857213E+02  0.51824179504E+00  0.31030247210E+02  0.00000000000E+00 0. -1.
</event>
<event>
 5    1  0.1250806E-009  0.9118800E+02  0.7561462E-02  0.1125453E+00
         25   -1    0    0    0    0  0.00000000000E+00  0.00000000000E+00  0.99999998245E-14  0.12509000000E+03  0.12509000000E+03 0.  0.
        -13    1    3    3    0    0 -0.19087212717E+02 -0.36238825110E+02  0.11732372229E+02  0.42605561337E+02  0.10566000000E+00 0.  1.
         23    2    1    0    0    0 -0.63091327809E+01  0.19342211445E+02 -0.83904650648E+01  0.10308258752E+03  0.10070597622E+03 0.  0.
         13    1    3    3    0    0  0.12778079936E+02  0.55581036555E+02 -0.20122837294E+02  0.60477026185E+02  0.10566000000E+00 0. -1.
         22    1    1    0    0    0  0.63091327809E+01 -0.19342211445E+02  0.83904650648E+01  0.22007412479E+02  0.00000000000E+00 0. -1.
</event>
<event>
 5    1  0.1250806E-009  0.9118800E+02  0.7561462E-02  0.1125453E+00
         25   -1    0    0    0    0  0.00000000000E+00  0.00000000000E+00  0.99999998245E-14  0.12509000000E+03  0.12509000000E+03 0.  0.
        -13    1    3    3    0    0  0.73761926782E+01 -0.47713840302E+02  0.17723412056E+02  0.51431014707E+02  0.10566000000E+00 0. -1.
         23    2    1    0    0    0 -0.65680298351E+01 -0.27969599006E+02 -0.15443730420E+02  0.92471810385E+02  0.86527969017E+02 0.  0.
         13    1    3    3    0    0 -0.13944222513E+02  0.19744241296E+02 -0.33167142476E+02  0.41040795678E+02  0.10566000000E+00 0.  1.
         22    1    1    0    0    0  0.65680298351E+01  0.27969599006E+02  0.15443730420E+02  0.32618189615E+02  0.00000000000E+00 0. -1.
</event>
<event>
 5    1  0.1250806E-009  0.9118800E+02  0.7561462E-02  0.1125453E+00
         25   -1    0    0    0    0  0.00000000000E+00  0.00000000000E+00  0.99999998245E-14  0.12509000000E+03  0.12509000000E+03 0.  0.
        -13    1    3    3    0    0  0.16695747788E+02  0.50685389010E+02  0.13367701804E+02  0.55013300836E+02  0.10566000000E+00 0.  1.
         23    2    1    0    0    0 -0.64992514658E+01  0.93626234261E+01  0.19203558470E+02  0.10275895334E+03  0.10030317466E+03 0.  0.
         13    1    3    3    0    0 -0.23194999254E+02 -0.41322765584E+02  0.58358566657E+01  0.47745652503E+02  0.10566000000E+00 0. -1.
         22    1    1    0    0    0  0.64992514658E+01 -0.93626234261E+01 -0.19203558470E+02  0.22331046660E+02  0.00000000000E+00 0.  1.
</event>
<event>
 5    1  0.1250806E-009  0.9118800E+02  0.7561462E-02  0.1125453E+00
         25   -1    0    0    0    0  0.00000000000E+00  0.00000000000E+00  0.99999998245E-14  0.12509000000E+03  0.12509000000E+03 0.  0.
        -13    1    3    3    0    0  0.45881423115E+02 -0.68574948432E+01  0.41787091350E+02  0.62436386748E+02  0.10566000000E+00 0. -1.
         23    2    1    0    0    0  0.24437559142E+02 -0.22943478738E+01  0.19070787153E+02  0.94006994166E+02  0.88719567743E+02 0.  0.
         13    1    3    3    0    0 -0.21443863973E+02  0.45631469694E+01 -0.22716304197E+02  0.31570607418E+02  0.10566000000E+00 0.  1.
         22    1    1    0    0    0 -0.24437559142E+02  0.22943478738E+01 -0.19070787153E+02  0.31083005834E+02  0.00000000000E+00 0. -1.
</event>
<event>
 5    1  0.1250806E-009  0.9118800E+02  0.7561462E-02  0.1125453E+00
         25   -1    0    0    0    0  0.00000000000E+00  0.00000000000E+00  0.99999998245E-14  0.12509000000E+03  0.12509000000E+03 0.  0.
        -13    1    3    3    0    0 -0.52330231344E+02  0.28210796997E+02  0.73656676634E+01  0.59904644260E+02  0.10566000000E+00 0. -1.
         23    2    1    0    0    0 -0.18427516718E+02  0.19404049566E+02  0.12926884545E+02  0.95371405552E+02  0.90622900753E+02 0.  0.
         13    1    3    3    0    0  0.33902714626E+02 -0.88067474309E+01  0.55612168813E+01  0.35466761292E+02  0.10566000000E+00 0.  1.
         22    1    1    0    0    0  0.18427516718E+02 -0.19404049566E+02 -0.12926884545E+02  0.29718594448E+02  0.00000000000E+00 0. -1.
</event>
<event>
 5    1  0.1250806E-009  0.9118800E+02  0.7561462E-02  0.1125453E+00
         25   -1    0    0    0    0  0.00000000000E+00  0.00000000000E+00  0.99999998245E-14  0.12509000000E+03  0.12509000000E+03 0.  0.
        -13    1    3    3    0    0 -0.49851591934E+02  0.19414627035E+02 -0.14527683200E+02  0.55436212934E+02  0.10566000000E+00 0. -1.
         23    2    1    0    0    0 -0.25945442897E+02  0.10208997261E+01  0.12802514667E+02  0.96139825127E+02  0.91677441883E+02 0.  0.
         13    1    3    3    0    0  0.23906149037E+02 -0.18393727308E+02  0.27330197867E+02  0.40703612193E+02  0.10566000000E+00 0.  1.
         22    1    1    0    0    0  0.25945442897E+02 -0.10208997261E+01 -0.12802514667E+02  0.28950174873E+02  0.00000000000E+00 0.  1.
</event>
<event>
 5    1  0.1250806E-009  0.9118800E+02  0.7561462E-02  0.1125453E+00
         25   -1    0    0    0    0  0.00000000000E+00  0.00000000000E+00  0.99999998245E-14  0.12509000000E+03  0.12509000000E+03 0.  0.
        -13    1    3    3    0    0 -0.19251207059E+02  0.35151665397E+02 -0.12730192437E+02  0.42051367599E+02  0.10566000000E+00 0.  1.
         23    2    1    0    0    0 -0.17403223172E+02 -0.14416400058E+02  0.14107913864E+02  0.98449091589E+02  0.94775976036E+02 0.  0.
         13    1    3    3    0    0  0.18479838871E+01 -0.49568065455E+02  0.26838106300E+02  0.56397723990E+02  0.10566000000E+00 0. -1.
         22    1    1    0    0    0  0.17403223172E+02  0.14416400058E+02 -0.14107913864E+02  0.26640908411E+02  0.00000000000E+00 0. -1.
</event>
<event>
 5    1  0.1250806E-009  0.9118800E+02  0.7561462E-02  0.1125453E+00
         25   -1    0    0    0    0  0.00000000000E+00  0.00000000000E+00  0.99999998245E-14  0.12509000000E+03  0.12509000000E+03 0.  0.
        -13    1    3    3    0    0  0.19393039266E+02  0.68984059100E+01 -0.12890618834E+02  0.24286975811E+02  0.10566000000E+00 0. -1.
         23    2    1    0    0    0 -0.25080980059E+01 -0.25891233227E+02  0.31878564684E+02  0.83945262792E+02  0.73170470446E+02 0.  0.
         13    1    3    3    0    0 -0.21901137272E+02 -0.32789639137E+02  0.44769183518E+02  0.59658286981E+02  0.10566000000E+00 0.  1.
         22    1    1    0    0    0  0.25080980059E+01  0.25891233227E+02 -0.31878564684E+02  0.41144737208E+02  0.00000000000E+00 0.  1.
</event>
<event>
 5    1  0.1250806E-009  0.9118800E+02  0.7561462E-02  0.1125453E+00
         25   -1    0    0    0    0  0.00000000000E+00  0.00000000000E+00  0.99999998245E-14  0.12509000000E+03  0.12509000000E+03 0.  0.
        -13    1    3    3    0    0  0.34575322155E+02 -0.17032114539E+02  0.45764698074E-01  0.38542951187E+02  0.10566000000E+00 0.  1.
         23    2    1    0    0    0 -0.16420791568E+02 -0.13026422365E+02 -0.22407654702E+02  0.94407218760E+02  0.89282080450E+02 0.  0.
         13    1    3    3    0    0 -0.50996113723E+02  0.40056921734E+01 -0.22453419400E+02  0.55864267573E+02  0.10566000000E+00 0. -1.
         22    1    1    0    0    0  0.16420791568E+02  0.13026422365E+02  0.22407654702E+02  0.30682781240E+02  0.00000000000E+00 0. -1.
</event>
<event>
 5    1  0.1250806E-009  0.9118800E+02  0.7561462E-02  0.1125453E+00
         25   -1    0    0    0    0  0.00000000000E+00  0.00000000000E+00  0.99999998245E-14  0.12509000000E+03  0.12509000000E+03 0.  0.
        -13    1    3    3    0    0  0.31825623159E+02  0.35378477779E+01  0.43225914095E+02  0.53794771770E+02  0.10566000000E+00 0. -1.
         23    2    1    0    0    0  0.55086398850E+01 -0.20076524908E+02  0.20775251333E+02  0.95678726078E+02  0.91046117930E+02 0.  0.
         13    1    3    3    0    0 -0.26316983274E+02 -0.23614372686E+02 -0.22450662763E+02  0.41883954308E+02  0.10566000000E+00 0.  1.
         22    1    1    0    0    0 -0.55086398850E+01  0.20076524908E+02 -0.20775251333E+02  0.29411273922E+02  0.00000000000E+00 0. -1.
</event>
<event>
 5    1  0.1250806E-009  0.9118800E+02  0.7561462E-02  0.1125453E+00
         25   -1    0    0    0    0  0.00000000000E+00  0.00000000000E+00  0.99999998245E-14  0.12509000000E+03  0.12509000000E+03 0.  0.
        -13    1    3    3    0    0 -0.23525282734E+02 -0.19147890043E+02 -0.32858831752E+02  0.44719063149E+02  0.10566000000E+00 0. -1.
         23    2    1    0    0    0  0.13134257596E+02  0.12483643860E+02 -0.25668464298E+02  0.93669940388E+02  0.88243059705E+02 0.  0.
         13    1    3    3    0    0  0.36659540330E+02  0.31631533903E+02  0.71903674538E+01  0.48950877238E+02  0.10566000000E+00 0.  1.
         22    1    1    0    0    0 -0.13134257596E+02 -0.12483643860E+02  0.25668464298E+02  0.31420059612E+02  0.00000000000E+00 0. -1.
</event>
<event>
 5    1  0.1250806E-009  0.9118800E+02  0.7561462E-02  0.1125453E+00
         25   -1    0    0    0    0  0.00000000000E+00  0.00000000000E+00  0.99999998245E-14  0.12509000000E+03  0.12509000000E+03 0.  0.
        -13    1    3    3    0    0 -0.39992041290E+02  0.49685752778E+01 -0.43639841727E+02  0.59401153666E+02  0.10566000000E+00 0. -1.
         23    2    1    0    0    0 -0.79720598161E+01  0.72774018595E+01 -0.27939251752E+02  0.95138103499E+02  0.90300291436E+02 0.  0.
         13    1    3    3    0    0  0.32019981474E+02  0.23088265817E+01  0.15700589975E+02  0.35736949833E+02  0.10566000000E+00 0.  1.
         22    1    1    0    0    0  0.79720598161E+01 -0.72774018595E+01  0.27939251752E+02  0.29951896501E+02  0.00000000000E+00 0. -1.
</event>
<event>
 5    1  0.1250806E-009  0.9118800E+02  0.7561462E-02  0.1125453E+00
         25   -1    0    0    0    0  0.00000000000E+00  0.00000000000E+00  0.99999998245E-14  0.12509000000E+03  0.12509000000E+03 0.  0.
        -13    1    3    3    0    0  0.31371737413E+01  0.37417764646E+02  0.52574529113E+00  0.37552876618E+02  0.10566000000E+00 0. -1.
         23    2    1    0    0    0 -0.17805420309E+02 -0.10912137544E+02  0.22290953360E+02  0.94545043953E+02  0.89474974134E+02 0.  0.
         13    1    3    3    0    0 -0.20942594051E+02 -0.48329902190E+02  0.21765208069E+02  0.56992167335E+02  0.10566000000E+00 0.  1.
         22    1    1    0    0    0  0.17805420309E+02  0.10912137544E+02 -0.22290953360E+02  0.30544956047E+02  0.00000000000E+00 0.  1.
</event>
<event>
 5    1  0.1250806E-009  0.9118800E+02  0.7561462E-02  0.1125453E+00
         25   -1    0    0    0    0  0.00000000000E+00  0.00000000000E+00  0.99999998245E-14  0.12509000000E+03  0.12509000000E+03 0.  0.
        -13    1    3    3    0    0 -0.43777963011E+02 -0.37651389257E+02  0.23727504009E+01  0.57790814727E+02  0.10566000000E+00 0. -1.
         23    2    1    0    0    0 -0.18962189645E+02 -0.10534740855E+02 -0.15268806247E+02  0.98562997809E+02  0.94926196025E+02 0.  0.
         13    1    3    3    0    0  0.24815773366E+02  0.27116648401E+02 -0.17641556648E+02  0.40772183082E+02  0.10566000000E+00 0.  1.
         22    1    1    0    0    0  0.18962189645E+02  0.10534740855E+02  0.15268806247E+02  0.26527002191E+02  0.00000000000E+00 0. -1.
</event>
<event>
 5    1  0.1250806E-009  0.9118800E+02  0.7561462E-02  0.1125453E+00
         25   -1    0    0    0    0  0.00000000000E+00  0.00000000000E+00  0.99999998245E-14  0.12509000000E+03  0.12509000000E+03 0.  0.
        -13    1    3    3    0    0 -0.14514395169E+02  0.41219139971E+02  0.93579935384E+01  0.44690808610E+02  0.10566000000E+00 0.  1.
         23    2    1    0    0    0 -0.11685197784E+02  0.47892983711E+01 -0.26405622322E+02  0.95819910893E+02  0.91239888246E+02 0.  0.
         13    1    3    3    0    0  0.28291973849E+01 -0.36429841600E+02 -0.35763615860E+02  0.51129102283E+02  0.10566000000E+00 0. -1.
         22    1    1    0    0    0  0.11685197784E+02 -0.47892983711E+01  0.26405622322E+02  0.29270089107E+02  0.00000000000E+00 0. -1.
</event>
<event>
 5    1  0.1250806E-009  0.9118800E+02  0.7561462E-02  0.1125453E+00
         25   -1    0    0    0    0  0.00000000000E+00  0.00000000000E+00  0.99999998245E-14  0.12509000000E+03  0.12509000000E+03 0.  0.
        -13    1    3    3    0    0 -0.43635488383E+02 -0.55434292618E+01 -0.11363696617E+02  0.45430498778E+02  0.10566000000E+00 0. -1.
         23    2    1    0    0    0  0.11490595202E+02  0.13111045607E+02  0.67711912369E+01  0.10638753156E+03  0.10473072398E+03 0.  0.
         13    1    3    3    0    0  0.55126083585E+02  0.18654474869E+02  0.18134887854E+02  0.60957032782E+02  0.10566000000E+00 0.  1.
         22    1    1    0    0    0 -0.11490595202E+02 -0.13111045607E+02 -0.67711912369E+01  0.18702468441E+02  0.00000000000E+00 0.  1.
</event>
<event>
 5    1  0.1250806E-009  0.9118800E+02  0.7561462E-02  0.1125453E+00
         25   -1    0    0    0    0  0.00000000000E+00  0.00000000000E+00  0.99999998245E-14  0.12509000000E+03  0.12509000000E+03 0.  0.
        -13    1    3    3    0    0  0.39397199642E+02  0.35368871979E+02 -0.22437162512E+02  0.57502468385E+02  0.10566000000E+00 0. -1.
         23    2    1    0    0    0  0.12668420914E+02  0.29450798311E+02  0.20576058460E+00  0.93029420669E+02  0.87330363351E+02 0.  0.
         13    1    3    3    0    0 -0.26728778728E+02 -0.59180736681E+01  0.22642923097E+02  0.35526952285E+02  0.10566000000E+00 0.  1.
         22    1    1    0    0    0 -0.12668420914E+02 -0.29450798311E+02 -0.20576058460E+00  0.32060579331E+02  0.00000000000E+00 0. -1.
</event>
<event>
 5    1  0.1250806E-009  0.9118800E+02  0.7561462E-02  0.1125453E+00
         25   -1    0    0    0    0  0.00000000000E+00  0.00000000000E+00  0.99999998245E-14  0.12509000000E+03  0.12509000000E+03 0.  0.
        -13    1    3    3    0    0 -0.26811757806E+02  0.37906866653E+02  0.15374129692E+02  0.48909875525E+02  0.10566000000E+00 0. -1.
         23    2    1    0    0    0 -0.14872408884E+02  0.93881241750E+01 -0.21683098479E+02  0.97170791896E+02  0.93073522639E+02 0.  0.
         13    1    3    3    0    0  0.11939348922E+02 -0.28518742478E+02 -0.37057228170E+02  0.48260916370E+02  0.10566000000E+00 0.  1.
         22    1    1    0    0    0  0.14872408884E+02 -0.93881241750E+01  0.21683098479E+02  0.27919208104E+02  0.00000000000E+00 0.  1.
</event>
<event>
 5    1  0.1250806E-009  0.9118800E+02  0.7561462E-02  0.1125453E+00
         25   -1    0    0    0    0  0.00000000000E+00  0.00000000000E+00  0.99999998245E-14  0.12509000000E+03  0.12509000000E+03 0.  0.
        -13    1    3    3    0    0 -0.11482392910E+02 -0.24974133715E+02 -0.29214396924E+01  0.27642334844E+02  0.10566000000E+00 0.  1.
         23    2    1    0    0    0  0.18022707903E+02  0.28778513651E+02  0.86654620128E+01  0.90045584182E+02  0.82946345011E+02 0.  0.
         13    1    3    3    0    0  0.29505100813E+02  0.53752647366E+02  0.11586901705E+02  0.62403249338E+02  0.10566000000E+00 0. -1.
         22    1    1    0    0    0 -0.18022707903E+02 -0.28778513651E+02 -0.86654620128E+01  0.35044415818E+02  0.00000000000E+00 0. -1.
</event>
<event>
 5    1  0.1250806E-009  0.9118800E+02  0.7561462E-02  0.1125453E+00
         25   -1    0    0    0    0  0.00000000000E+00  0.00000000000E+00  0.99999998245E-14  0.12509000000E+03  0.12509000000E+03 0.  0.
        -13    1    3    3    0    0 -0.20625431799E+02  0.18718929041E+01  0.32420821569E+02  0.38471200335E+02  0.10566000000E+00 0.  1.
         23    2    1    0    0    0 -0.93642430398E+01 -0.22096484432E+02 -0.17775655529E+02  0.95225010440E+02  0.90420600595E+02 0.  0.
         13    1    3    3    0    0  0.11261188759E+02 -0.23968377336E+02 -0.50196477098E+02  0.56753810105E+02  0.10566000000E+00 0. -1.
         22    1    1    0    0    0  0.93642430398E+01  0.22096484432E+02  0.17775655529E+02  0.29864989560E+02  0.00000000000E+00 0. -1.
</event>
<event>
 5    1  0.1250806E-009  0.9118800E+02  0.7561462E-02  0.1125453E+00
         25   -1    0    0    0    0  0.00000000000E+00  0.00000000000E+00  0.99999998245E-14  0.12509000000E+03  0.12509000000E+03 0.  0.
        -13    1    3    3    0    0 -0.14700088429E+02 -0.23355757736E+02 -0.25552386199E+02  0.37610100023E+02  0.10566000000E+00 0.  1.
         23    2    1    0    0    0 -0.61958725557E+01  0.19263321979E+02  0.17169854041E+02  0.98551946225E+02  0.94911631566E+02 0.  0.
         13    1    3    3    0    0  0.85042158734E+01  0.42619079715E+02  0.42722240240E+02  0.60941846202E+02  0.10566000000E+00 0. -1.
         22    1    1    0    0    0  0.61958725557E+01 -0.19263321979E+02 -0.17169854041E+02  0.26538053775E+02  0.00000000000E+00 0. -1.
</event>
<event>
 5    1  0.1250806E-009  0.9118800E+02  0.7561462E-02  0.1125453E+00
         25   -1    0    0    0    0  0.00000000000E+00  0.00000000000E+00  0.99999998245E-14  0.12509000000E+03  0.12509000000E+03 0.  0.
        -13    1    3    3    0    0  0.43690772851E+01 -0.38338078579E+02 -0.11653966470E+02  0.40307855363E+02  0.10566000000E+00 0. -1.
         23    2    1    0    0    0 -0.28027578047E+02  0.29353088021E+01  0.71004833897E+01  0.96028375247E+02  0.91525246895E+02 0.  0.
         13    1    3    3    0    0 -0.32396655332E+02  0.41273387381E+02  0.18754449860E+02  0.55720519884E+02  0.10566000000E+00 0.  1.
         22    1    1    0    0    0  0.28027578047E+02 -0.29353088021E+01 -0.71004833897E+01  0.29061624753E+02  0.00000000000E+00 0.  1.
</event>
<event>
 5    1  0.1250806E-009  0.9118800E+02  0.7561462E-02  0.1125453E+00
         25   -1    0    0    0    0  0.00000000000E+00  0.00000000000E+00  0.99999998245E-14  0.12509000000E+03  0.12509000000E+03 0.  0.
        -13    1    3    3    0    0 -0.12540556967E+02 -0.35190310308E+02 -0.15678212694E+02  0.40514701356E+02  0.10566000000E+00 0. -1.
         23    2    1    0    0    0  0.28822871209E+02 -0.87834958548E+01  0.63347726977E+01  0.94299789716E+02  0.89131438288E+02 0.  0.
         13    1    3    3    0    0  0.41363428177E+02  0.26406814453E+02  0.22012985392E+02  0.53785088361E+02  0.10566000000E+00 0.  1.
         22    1    1    0    0    0 -0.28822871209E+02  0.87834958548E+01 -0.63347726977E+01  0.30790210284E+02  0.00000000000E+00 0.  1.
</event>
<event>
 5    1  0.1250806E-009  0.9118800E+02  0.7561462E-02  0.1125453E+00
         25   -1    0    0    0    0  0.00000000000E+00  0.00000000000E+00  0.99999998245E-14  0.12509000000E+03  0.12509000000E+03 0.  0.
        -13    1    3    3    0    0 -0.37694065452E+02 -0.19581274812E+02 -0.29263517962E+02  0.51581329385E+02  0.10566000000E+00 0.  1.
         23    2    1    0    0    0  0.63508782343E+01 -0.20432239637E+02 -0.18193427042E+02  0.97004223200E+02  0.92849385890E+02 0.  0.
         13    1    3    3    0    0  0.44044943687E+02 -0.85096482422E+00  0.11070090919E+02  0.45422893815E+02  0.10566000000E+00 0. -1.
         22    1    1    0    0    0 -0.63508782343E+01  0.20432239637E+02  0.18193427042E+02  0.28085776800E+02  0.00000000000E+00 0.  1.
</event>
<event>
 5    1  0.1250806E-009  0.9118800E+02  0.7561462E-02  0.1125453E+00
         25   -1    0    0    0    0  0.00000000000E+00  0.00000000000E+00  0.99999998245E-14  0.12509000000E+03  0.12509000000E+03 0.  0.
        -13    1    3    3    0    0 -0.15422613189E+02 -0.13615759543E+02 -0.30742515274E+02  0.36991341080E+02  0.10566000000E+00 0. -1.
         23    2    1    0    0    0  0.25351963019E+02 -0.97642134220E+01  0.11282731761E+02  0.95672965332E+02  0.91038202788E+02 0.  0.
         13    1    3    3    0    0  0.40774576207E+02  0.38515461209E+01  0.42025247035E+02  0.58681624252E+02  0.10566000000E+00 0.  1.
         22    1    1    0    0    0 -0.25351963019E+02  0.97642134220E+01 -0.11282731761E+02  0.29417034668E+02  0.00000000000E+00 0.  1.
</event>
<event>
 5    1  0.1250806E-009  0.9118800E+02  0.7561462E-02  0.1125453E+00
         25   -1    0    0    0    0  0.00000000000E+00  0.00000000000E+00  0.99999998245E-14  0.12509000000E+03  0.12509000000E+03 0.  0.
        -13    1    3    3    0    0 -0.24476453409E+02  0.24100310926E+02 -0.43807630208E+02  0.55669034361E+02  0.10566000000E+00 0.  1.
         23    2    1    0    0    0 -0.12826480183E+02 -0.88834778614E+01 -0.25613441003E+02  0.95098615690E+02  0.90245573705E+02 0.  0.
         13    1    3    3    0    0  0.11649973226E+02 -0.32983788788E+02  0.18194189205E+02  0.39429581329E+02  0.10566000000E+00 0. -1.
         22    1    1    0    0    0  0.12826480183E+02  0.88834778614E+01  0.25613441003E+02  0.29991384310E+02  0.00000000000E+00 0.  1.
</event>
<event>
 5    1  0.1250806E-009  0.9118800E+02  0.7561462E-02  0.1125453E+00
         25   -1    0    0    0    0  0.00000000000E+00  0.00000000000E+00  0.99999998245E-14  0.12509000000E+03  0.12509000000E+03 0.  0.
        -13    1    3    3    0    0 -0.12925611970E+02  0.20339055548E+02  0.60525647577E+01  0.24847400861E+02  0.10566000000E+00 0. -1.
         23    2    1    0    0    0  0.11512889143E+02 -0.45394057219E+01 -0.40344883022E+02  0.82889734517E+02  0.71343154413E+02 0.  0.
         13    1    3    3    0    0  0.24438501112E+02 -0.24878461270E+02 -0.46397447780E+02  0.58042333656E+02  0.10566000000E+00 0.  1.
         22    1    1    0    0    0 -0.11512889143E+02  0.45394057219E+01  0.40344883022E+02  0.42200265483E+02  0.00000000000E+00 0.  1.
</event>
<event>
 5    1  0.1250806E-009  0.9118800E+02  0.7561462E-02  0.1125453E+00
         25   -1    0    0    0    0  0.00000000000E+00  0.00000000000E+00  0.99999998245E-14  0.12509000000E+03  0.12509000000E+03 0.  0.
        -13    1    3    3    0    0 -0.50891891867E+02  0.10414284642E+01 -0.31867606257E+02  0.60055180656E+02  0.10566000000E+00 0.  1.
         23    2    1    0    0    0 -0.15445913343E+02 -0.24041660970E+00 -0.24256946708E+02  0.96331809814E+02  0.91939023702E+02 0.  0.
         13    1    3    3    0    0  0.35445978524E+02 -0.12818450739E+01  0.76106595483E+01  0.36276629158E+02  0.10566000000E+00 0. -1.
         22    1    1    0    0    0  0.15445913343E+02  0.24041660970E+00  0.24256946708E+02  0.28758190186E+02  0.00000000000E+00 0.  1.
</event>
<event>
 5    1  0.1250806E-009  0.9118800E+02  0.7561462E-02  0.1125453E+00
         25   -1    0    0    0    0  0.00000000000E+00  0.00000000000E+00  0.99999998245E-14  0.12509000000E+03  0.12509000000E+03 0.  0.
        -13    1    3    3    0    0 -0.38394697689E+02 -0.43824455995E+02  0.22146726141E+02  0.62331568219E+02  0.10566000000E+00 0. -1.
         23    2    1    0    0    0 -0.21374983543E+02 -0.20457501830E+02  0.84547042543E+01  0.94318563137E+02  0.89157781632E+02 0.  0.
         13    1    3    3    0    0  0.17019714145E+02  0.23366954164E+02 -0.13692021886E+02  0.31986994918E+02  0.10566000000E+00 0.  1.
         22    1    1    0    0    0  0.21374983543E+02  0.20457501830E+02 -0.84547042543E+01  0.30771436863E+02  0.00000000000E+00 0. -1.
</event>
<event>
 5    1  0.1250806E-009  0.9118800E+02  0.7561462E-02  0.1125453E+00
         25   -1    0    0    0    0  0.00000000000E+00  0.00000000000E+00  0.99999998245E-14  0.12509000000E+03  0.12509000000E+03 0.  0.
        -13    1    3    3    0    0 -0.34568379077E+02  0.37427195988E-01 -0.45659749383E+01  0.34868804453E+02  0.10566000000E+00 0.  1.
         23    2    1    0    0    0  0.20846563196E+02 -0.93255399731E+01  0.18580219231E+02  0.95649051654E+02  0.91005338540E+02 0.  0.
         13    1    3    3    0    0  0.55414942272E+02 -0.93629671691E+01  0.23146194169E+02  0.60780247201E+02  0.10566000000E+00 0. -1.
         22    1    1    0    0    0 -0.20846563196E+02  0.93255399731E+01 -0.18580219231E+02  0.29440948346E+02  0.00000000000E+00 0. -1.
</event>
<event>
 5    1  0.1250806E-009  0.9118800E+02  0.7561462E-02  0.1125453E+00
         25   -1    0    0    0    0  0.00000000000E+00  0.00000000000E+00  0.99999998245E-14  0.12509000000E+03  0.12509000000E+03 0.  0.
        -13    1    3    3    0    0  0.72158492309E+00  0.19899082173E+02  0.27074991907E+02  0.33608934927E+02  0.10566000000E+00 0. -1.
         23    2    1    0    0    0 -0.94951275143E+01 -0.14960888719E+02 -0.23363363476E+02  0.95767101257E+02  0.91167457420E+02 0.  0.
         13    1    3    3    0    0 -0.10216712437E+02 -0.34859970892E+02 -0.50438355383E+02  0.62158166330E+02  0.10566000000E+00 0.  1.
         22    1    1    0    0    0  0.94951275143E+01  0.14960888719E+02  0.23363363476E+02  0.29322898743E+02  0.00000000000E+00 0.  1.
</event>
<event>
 5    1  0.1250806E-009  0.9118800E+02  0.7561462E-02  0.1125453E+00
         25   -1    0    0    0    0  0.00000000000E+00  0.00000000000E+00  0.99999998245E-14  0.12509000000E+03  0.12509000000E+03 0.  0.
        -13    1    3    3    0    0  0.33885892165E+02  0.27862500440E+02  0.32491902347E+02  0.54592192671E+02  0.10566000000E+00 0.  1.
         23    2    1    0    0    0  0.26936303352E+02 -0.61680243920E+01  0.11629931793E+02  0.95108934697E+02  0.90259875818E+02 0.  0.
         13    1    3    3    0    0 -0.69495888127E+01 -0.34030524832E+02 -0.20861970553E+02  0.40516742026E+02  0.10566000000E+00 0. -1.
         22    1    1    0    0    0 -0.26936303352E+02  0.61680243920E+01 -0.11629931793E+02  0.29981065303E+02  0.00000000000E+00 0.  1.
</event>
<event>
 5    1  0.1250806E-009  0.9118800E+02  0.7561462E-02  0.1125453E+00
         25   -1    0    0    0    0  0.00000000000E+00  0.00000000000E+00  0.99999998245E-14  0.12509000000E+03  0.12509000000E+03 0.  0.
        -13    1    3    3    0    0 -0.35795596966E+02 -0.35587478183E+02 -0.70936839938E+01  0.50971804777E+02  0.10566000000E+00 0.  1.
         23    2    1    0    0    0 -0.76916651654E+01 -0.80045636701E+01 -0.27579482356E+02  0.95360173233E+02  0.90607395059E+02 0.  0.
         13    1    3    3    0    0  0.28103931800E+02  0.27582914513E+02 -0.20485798362E+02  0.44388368456E+02  0.10566000000E+00 0. -1.
         22    1    1    0    0    0  0.76916651654E+01  0.80045636701E+01  0.27579482356E+02  0.29729826767E+02  0.00000000000E+00 0.  1.
</event>
<event>
 5    1  0.1250806E-009  0.9118800E+02  0.7561462E-02  0.1125453E+00
         25   -1    0    0    0    0  0.00000000000E+00  0.00000000000E+00  0.99999998245E-14  0.12509000000E+03  0.12509000000E+03 0.  0.
        -13    1    3    3    0    0  0.28037055781E+02  0.54363237556E+02  0.98829215847E+01  0.61960643941E+02  0.10566000000E+00 0.  1.
         23    2    1    0    0    0  0.16679112287E+02  0.28849736638E+02  0.11240178180E+02  0.89921239767E+02  0.82758610821E+02 0.  0.
         13    1    3    3    0    0 -0.11357943494E+02 -0.25513500918E+02  0.13572565952E+01  0.27960595827E+02  0.10566000000E+00 0. -1.
         22    1    1    0    0    0 -0.16679112287E+02 -0.28849736638E+02 -0.11240178180E+02  0.35168760233E+02  0.00000000000E+00 0.  1.
</event>
<event>
 5    1  0.1250806E-009  0.9118800E+02  0.7561462E-02  0.1125453E+00
         25   -1    0    0    0    0  0.00000000000E+00  0.00000000000E+00  0.99999998245E-14  0.12509000000E+03  0.12509000000E+03 0.  0.
        -13    1    3    3    0    0 -0.27511449521E+02 -0.76834914334E+01  0.20291898730E+02  0.35038382004E+02  0.10566000000E+00 0.  1.
         23    2    1    0    0    0  0.10934282138E+02 -0.10553713338E+02 -0.25811579276E+02  0.95137086689E+02  0.90298882872E+02 0.  0.
         13    1    3    3    0    0  0.38445731659E+02 -0.28702219048E+01 -0.46103478005E+02  0.60098704685E+02  0.10566000000E+00 0. -1.
         22    1    1    0    0    0 -0.10934282138E+02  0.10553713338E+02  0.25811579276E+02  0.29952913311E+02  0.00000000000E+00 0. -1.
</event>
<event>
 5    1  0.1250806E-009  0.9118800E+02  0.7561462E-02  0.1125453E+00
         25   -1    0    0    0    0  0.00000000000E+00  0.00000000000E+00  0.99999998245E-14  0.12509000000E+03  0.12509000000E+03 0.  0.
        -13    1    3    3    0    0 -0.38829049662E+02  0.96894763070E+00 -0.10453700885E+01  0.38855346091E+02  0.10566000000E+00 0.  1.
         23    2    1    0    0    0  0.15093209673E+02 -0.20766008031E+02 -0.97257589539E+01  0.97637815114E+02  0.93699095434E+02 0.  0.
         13    1    3    3    0    0  0.53922259336E+02 -0.21734955662E+02 -0.86803888654E+01  0.58782469023E+02  0.10566000000E+00 0. -1.
         22    1    1    0    0    0 -0.15093209673E+02  0.20766008031E+02  0.97257589539E+01  0.27452184886E+02  0.00000000000E+00 0. -1.
</event>
<event>
 5    1  0.1250806E-009  0.9118800E+02  0.7561462E-02  0.1125453E+00
         25   -1    0    0    0    0  0.00000000000E+00  0.00000000000E+00  0.99999998245E-14  0.12509000000E+03  0.12509000000E+03 0.  0.
        -13    1    3    3    0    0  0.16057933893E+02  0.35686257095E+02 -0.26590919128E+02  0.47312306332E+02  0.10566000000E+00 0.  1.
         23    2    1    0    0    0 -0.14805289303E+02  0.19549025995E+02  0.10697423117E+02  0.98335638299E+02  0.94626116319E+02 0.  0.
         13    1    3    3    0    0 -0.30863223195E+02 -0.16137231100E+02  0.37288342245E+02  0.51023331967E+02  0.10566000000E+00 0. -1.
         22    1    1    0    0    0  0.14805289303E+02 -0.19549025995E+02 -0.10697423117E+02  0.26754361701E+02  0.00000000000E+00 0. -1.
</event>
<event>
 5    1  0.1250806E-009  0.9118800E+02  0.7561462E-02  0.1125453E+00
         25   -1    0    0    0    0  0.00000000000E+00  0.00000000000E+00  0.99999998245E-14  0.12509000000E+03  0.12509000000E+03 0.  0.
        -13    1    3    3    0    0 -0.14765009390E+01  0.40958286927E+02 -0.13816763472E+02  0.43251305644E+02  0.10566000000E+00 0.  1.
         23    2    1    0    0    0  0.11346283192E+02  0.85734391678E+01  0.25570783110E+02  0.95830694638E+02  0.91254671576E+02 0.  0.
         13    1    3    3    0    0  0.12822784131E+02 -0.32384847759E+02  0.39387546581E+02  0.52579388994E+02  0.10566000000E+00 0. -1.
         22    1    1    0    0    0 -0.11346283192E+02 -0.85734391678E+01 -0.25570783110E+02  0.29259305362E+02  0.00000000000E+00 0. -1.
</event>
<event>
 5    1  0.1250806E-009  0.9118800E+02  0.7561462E-02  0.1125453E+00
         25   -1    0    0    0    0  0.00000000000E+00  0.00000000000E+00  0.99999998245E-14  0.12509000000E+03  0.12509000000E+03 0.  0.
        -13    1    3    3    0    0 -0.12324366652E+02  0.60009836105E+02  0.10130728307E+02  0.62094389946E+02  0.10566000000E+00 0. -1.
         23    2    1    0    0    0 -0.10222108505E+02  0.26167997091E+02  0.69426106125E+01  0.96151178044E+02  0.91692931151E+02 0.  0.
         13    1    3    3    0    0  0.21022581464E+01 -0.33841839013E+02 -0.31881176944E+01  0.34056788098E+02  0.10566000000E+00 0.  1.
         22    1    1    0    0    0  0.10222108505E+02 -0.26167997091E+02 -0.69426106125E+01  0.28938821956E+02  0.00000000000E+00 0. -1.
</event>
<event>
 5    1  0.1250806E-009  0.9118800E+02  0.7561462E-02  0.1125453E+00
         25   -1    0    0    0    0  0.00000000000E+00  0.00000000000E+00  0.99999998245E-14  0.12509000000E+03  0.12509000000E+03 0.  0.
        -13    1    3    3    0    0  0.76203427177E+01  0.39706395685E+02  0.30366366153E+02  0.50564758862E+02  0.10566000000E+00 0.  1.
         23    2    1    0    0    0  0.22038474124E+02 -0.16271586656E+01  0.19377241110E+02  0.95699194294E+02  0.91074235261E+02 0.  0.
         13    1    3    3    0    0  0.14418131407E+02 -0.41333554350E+02 -0.10989125043E+02  0.45134435432E+02  0.10566000000E+00 0. -1.
         22    1    1    0    0    0 -0.22038474124E+02  0.16271586656E+01 -0.19377241110E+02  0.29390805706E+02  0.00000000000E+00 0.  1.
</event>
<event>
 5    1  0.1250806E-009  0.9118800E+02  0.7561462E-02  0.1125453E+00
         25   -1    0    0    0    0  0.00000000000E+00  0.00000000000E+00  0.99999998245E-14  0.12509000000E+03  0.12509000000E+03 0.  0.
        -13    1    3    3    0    0  0.26459683219E+02  0.33101906287E+02  0.85591951721E+01  0.43233343867E+02  0.10566000000E+00 0.  1.
         23    2    1    0    0    0  0.52009427988E+01 -0.17859652089E+02  0.17945227814E+02  0.99243371979E+02  0.95818571800E+02 0.  0.
         13    1    3    3    0    0 -0.21258740420E+02 -0.50961558376E+02  0.93860326419E+01  0.56010028112E+02  0.10566000000E+00 0. -1.
         22    1    1    0    0    0 -0.52009427988E+01  0.17859652089E+02 -0.17945227814E+02  0.25846628021E+02  0.00000000000E+00 0. -1.
</event>
<event>
 5    1  0.1250806E-009  0.9118800E+02  0.7561462E-02  0.1125453E+00
         25   -1    0    0    0    0  0.00000000000E+00  0.00000000000E+00  0.99999998245E-14  0.12509000000E+03  0.12509000000E+03 0.  0.
        -13    1    3    3    0    0  0.22661848748E+02  0.46013847819E+01 -0.28596246829E+02  0.36776196477E+02  0.10566000000E+00 0.  1.
         23    2    1    0    0    0  0.11880981451E+02 -0.12110433147E+02  0.25528063244E+02  0.94438697838E+02  0.89326173796E+02 0.  0.
         13    1    3    3    0    0 -0.10780867297E+02 -0.16711817929E+02  0.54124310074E+02  0.57662501360E+02  0.10566000000E+00 0. -1.
         22    1    1    0    0    0 -0.11880981451E+02  0.12110433147E+02 -0.25528063244E+02  0.30651302162E+02  0.00000000000E+00 0. -1.
</event>
<event>
 5    1  0.1250806E-009  0.9118800E+02  0.7561462E-02  0.1125453E+00
         25   -1    0    0    0    0  0.00000000000E+00  0.00000000000E+00  0.99999998245E-14  0.12509000000E+03  0.12509000000E+03 0.  0.
        -13    1    3    3    0    0  0.54590543262E+02 -0.96513122405E+01  0.23340202622E+02  0.60150240765E+02  0.10566000000E+00 0.  1.
         23    2    1    0    0    0  0.26274598052E+02  0.37983767743E+01  0.12250196223E+01  0.98514017572E+02  0.94861629842E+02 0.  0.
         13    1    3    3    0    0 -0.28315945210E+02  0.13449689015E+02 -0.22115183000E+02  0.38363776807E+02  0.10566000000E+00 0. -1.
         22    1    1    0    0    0 -0.26274598052E+02 -0.37983767743E+01 -0.12250196223E+01  0.26575982428E+02  0.00000000000E+00 0. -1.
</event>
<event>
 5    1  0.1250806E-009  0.9118800E+02  0.7561462E-02  0.1125453E+00
         25   -1    0    0    0    0  0.00000000000E+00  0.00000000000E+00  0.99999998245E-14  0.12509000000E+03  0.12509000000E+03 0.  0.
        -13    1    3    3    0    0 -0.17159595635E+02  0.51911058240E+02  0.25590468347E+01  0.54733623804E+02  0.10566000000E+00 0. -1.
         23    2    1    0    0    0 -0.22568615693E+02  0.13702282421E+02  0.14291555311E+02  0.95067616500E+02  0.90202595283E+02 0.  0.
         13    1    3    3    0    0 -0.54090200582E+01 -0.38208775819E+02  0.11732508476E+02  0.40333992696E+02  0.10566000000E+00 0.  1.
         22    1    1    0    0    0  0.22568615693E+02 -0.13702282421E+02 -0.14291555311E+02  0.30022383500E+02  0.00000000000E+00 0.  1.
</event>
<event>
 5    1  0.1250806E-009  0.9118800E+02  0.7561462E-02  0.1125453E+00
         25   -1    0    0    0    0  0.00000000000E+00  0.00000000000E+00  0.99999998245E-14  0.12509000000E+03  0.12509000000E+03 0.  0.
        -13    1    3    3    0    0  0.44245095723E+02 -0.14867794515E+02 -0.31270108969E+02  0.56182832682E+02  0.10566000000E+00 0. -1.
         23    2    1    0    0    0  0.10866184622E+02 -0.24211128019E+02 -0.16351618315E+02  0.93919050228E+02  0.88595484569E+02 0.  0.
         13    1    3    3    0    0 -0.33378911101E+02 -0.93433335033E+01  0.14918490653E+02  0.37736217545E+02  0.10566000000E+00 0.  1.
         22    1    1    0    0    0 -0.10866184622E+02  0.24211128019E+02  0.16351618315E+02  0.31170949772E+02  0.00000000000E+00 0. -1.
</event>
<event>
 5    1  0.1250806E-009  0.9118800E+02  0.7561462E-02  0.1125453E+00
         25   -1    0    0    0    0  0.00000000000E+00  0.00000000000E+00  0.99999998245E-14  0.12509000000E+03  0.12509000000E+03 0.  0.
        -13    1    3    3    0    0  0.24919198145E+02  0.30948135900E+02 -0.81811977198E+01  0.40567187628E+02  0.10566000000E+00 0. -1.
         23    2    1    0    0    0 -0.22345115682E+02  0.64197995694E+01 -0.19190999082E+02  0.94943483334E+02  0.90030286907E+02 0.  0.
         13    1    3    3    0    0 -0.47264313826E+02 -0.24528336331E+02 -0.11009801362E+02  0.54376295706E+02  0.10566000000E+00 0.  1.
         22    1    1    0    0    0  0.22345115682E+02 -0.64197995694E+01  0.19190999082E+02  0.30146516666E+02  0.00000000000E+00 0.  1.
</event>
<event>
 5    1  0.1250806E-009  0.9118800E+02  0.7561462E-02  0.1125453E+00
         25   -1    0    0    0    0  0.00000000000E+00  0.00000000000E+00  0.99999998245E-14  0.12509000000E+03  0.12509000000E+03 0.  0.
        -13    1    3    3    0    0 -0.14827264484E+02  0.25324253107E+01 -0.55613162703E+02  0.57611595881E+02  0.10566000000E+00 0. -1.
         23    2    1    0    0    0  0.46962473220E+01 -0.12513904866E+02 -0.22947010816E+02  0.98534061694E+02  0.94888057492E+02 0.  0.
         13    1    3    3    0    0  0.19523511806E+02 -0.15046330177E+02  0.32666151888E+02  0.40922465813E+02  0.10566000000E+00 0.  1.
         22    1    1    0    0    0 -0.46962473220E+01  0.12513904866E+02  0.22947010816E+02  0.26555938306E+02  0.00000000000E+00 0. -1.
</event>
<event>
 5    1  0.1250806E-009  0.9118800E+02  0.7561462E-02  0.1125453E+00
         25   -1    0    0    0    0  0.00000000000E+00  0.00000000000E+00  0.99999998245E-14  0.12509000000E+03  0.12509000000E+03 0.  0.
        -13    1    3    3    0    0 -0.45995611069E+02 -0.45184361962E+00  0.31067318927E+02  0.55506665092E+02  0.10566000000E+00 0. -1.
         23    2    1    0    0    0 -0.18309400640E+02  0.19271078354E+02  0.57465598121E+01  0.97893831844E+02  0.94040261328E+02 0.  0.
         13    1    3    3    0    0  0.27686210429E+02  0.19722921973E+02 -0.25320759115E+02  0.42387166752E+02  0.10566000000E+00 0.  1.
         22    1    1    0    0    0  0.18309400640E+02 -0.19271078354E+02 -0.57465598121E+01  0.27196168156E+02  0.00000000000E+00 0. -1.
</event>
<event>
 5    1  0.1250806E-009  0.9118800E+02  0.7561462E-02  0.1125453E+00
         25   -1    0    0    0    0  0.00000000000E+00  0.00000000000E+00  0.99999998245E-14  0.12509000000E+03  0.12509000000E+03 0.  0.
        -13    1    3    3    0    0 -0.22848190356E+02  0.80487052265E+01  0.26188563361E+02  0.35674549377E+02  0.10566000000E+00 0.  1.
         23    2    1    0    0    0  0.19906908809E+02 -0.11884849574E+02 -0.14307455111E+02  0.97845955889E+02  0.93976556355E+02 0.  0.
         13    1    3    3    0    0  0.42755099165E+02 -0.19933554801E+02 -0.40496018472E+02  0.62171406512E+02  0.10566000000E+00 0. -1.
         22    1    1    0    0    0 -0.19906908809E+02  0.11884849574E+02  0.14307455111E+02  0.27244044111E+02  0.00000000000E+00 0. -1.
</event>
<event>
 5    1  0.1250806E-009  0.9118800E+02  0.7561462E-02  0.1125453E+00
         25   -1    0    0    0    0  0.00000000000E+00  0.00000000000E+00  0.99999998245E-14  0.12509000000E+03  0.12509000000E+03 0.  0.
        -13    1    3    3    0    0  0.27631431332E+02  0.22013743819E+02 -0.27853326795E+02  0.44987997199E+02  0.10566000000E+00 0.  1.
         23    2    1    0    0    0 -0.18231844058E+02  0.18055924815E+02 -0.21803948204E+02  0.91417626814E+02  0.84990315780E+02 0.  0.
         13    1    3    3    0    0 -0.45863275391E+02 -0.39578190041E+01  0.60493785903E+01  0.46429629615E+02  0.10566000000E+00 0. -1.
         22    1    1    0    0    0  0.18231844058E+02 -0.18055924815E+02  0.21803948204E+02  0.33672373186E+02  0.00000000000E+00 0.  1.
</event>
<event>
 5    1  0.1250806E-009  0.9118800E+02  0.7561462E-02  0.1125453E+00
         25   -1    0    0    0    0  0.00000000000E+00  0.00000000000E+00  0.99999998245E-14  0.12509000000E+03  0.12509000000E+03 0.  0.
        -13    1    3    3    0    0 -0.37373900246E+02  0.30942722378E+02 -0.97338640063E+01  0.49487571776E+02  0.10566000000E+00 0. -1.
         23    2    1    0    0    0  0.82589191134E+00  0.29215811631E+02  0.12026938931E+02  0.93484731345E+02  0.87980122686E+02 0.  0.
         13    1    3    3    0    0  0.38199792158E+02 -0.17269107471E+01  0.21760802937E+02  0.43997159569E+02  0.10566000000E+00 0.  1.
         22    1    1    0    0    0 -0.82589191134E+00 -0.29215811631E+02 -0.12026938931E+02  0.31605268655E+02  0.00000000000E+00 0. -1.
</event>
<event>
 5    1  0.1250806E-009  0.9118800E+02  0.7561462E-02  0.1125453E+00
         25   -1    0    0    0    0  0.00000000000E+00  0.00000000000E+00  0.99999998245E-14  0.12509000000E+03  0.12509000000E+03 0.  0.
        -13    1    3    3    0    0  0.37678121760E+02 -0.33316970216E+02  0.26090036812E+02  0.56660061319E+02  0.10566000000E+00 0.  1.
         23    2    1    0    0    0  0.24833086408E+02  0.18038278105E+01  0.16347418476E+02  0.95304532635E+02  0.90530546638E+02 0.  0.
         13    1    3    3    0    0 -0.12845035352E+02  0.35120798027E+02 -0.97426183358E+01  0.38644471316E+02  0.10566000000E+00 0. -1.
         22    1    1    0    0    0 -0.24833086408E+02 -0.18038278105E+01 -0.16347418476E+02  0.29785467365E+02  0.00000000000E+00 0.  1.
</event>
<event>
 5    1  0.1250806E-009  0.9118800E+02  0.7561462E-02  0.1125453E+00
         25   -1    0    0    0    0  0.00000000000E+00  0.00000000000E+00  0.99999998245E-14  0.12509000000E+03  0.12509000000E+03 0.  0.
        -13    1    3    3    0    0  0.43178836658E+02 -0.33504397159E+02 -0.27693191324E+02  0.61268920130E+02  0.10566000000E+00 0.  1.
         23    2    1    0    0    0  0.14253329190E+02 -0.22309887418E+02 -0.12187668949E+02  0.95945056287E+02  0.91411301719E+02 0.  0.
         13    1    3    3    0    0 -0.28925507468E+02  0.11194509741E+02  0.15505522375E+02  0.34676136157E+02  0.10566000000E+00 0. -1.
         22    1    1    0    0    0 -0.14253329190E+02  0.22309887418E+02  0.12187668949E+02  0.29144943713E+02  0.00000000000E+00 0.  1.
</event>
<event>
 5    1  0.1250806E-009  0.9118800E+02  0.7561462E-02  0.1125453E+00
         25   -1    0    0    0    0  0.00000000000E+00  0.00000000000E+00  0.99999998245E-14  0.12509000000E+03  0.12509000000E+03 0.  0.
        -13    1    3    3    0    0  0.16435617617E+02  0.15966738037E+02 -0.57149108381E+02  0.61571892961E+02  0.10566000000E+00 0.  1.
         23    2    1    0    0    0  0.93672498892E+01  0.15362296846E+02 -0.26315206119E+02  0.93211549474E+02  0.87590851961E+02 0.  0.
         13    1    3    3    0    0 -0.70683677277E+01 -0.60444119065E+00  0.30833902262E+02  0.31639656513E+02  0.10566000000E+00 0. -1.
         22    1    1    0    0    0 -0.93672498892E+01 -0.15362296846E+02  0.26315206119E+02  0.31878450526E+02  0.00000000000E+00 0.  1.
</event>
<event>
 5    1  0.1250806E-009  0.9118800E+02  0.7561462E-02  0.1125453E+00
         25   -1    0    0    0    0  0.00000000000E+00  0.00000000000E+00  0.99999998245E-14  0.12509000000E+03  0.12509000000E+03 0.  0.
        -13    1    3    3    0    0  0.13544135610E+01  0.28463187652E+02 -0.19487589597E+02  0.34521946640E+02  0.10566000000E+00 0.  1.
         23    2    1    0    0    0  0.47521750662E+01 -0.19766238434E+01  0.31049809793E+02  0.93616504835E+02  0.88167278963E+02 0.  0.
         13    1    3    3    0    0  0.33977615052E+01 -0.30439811496E+02  0.50537399391E+02  0.59094558196E+02  0.10566000000E+00 0. -1.
         22    1    1    0    0    0 -0.47521750662E+01  0.19766238434E+01 -0.31049809793E+02  0.31473495165E+02  0.00000000000E+00 0. -1.
</event>
<event>
 5    1  0.1250806E-009  0.9118800E+02  0.7561462E-02  0.1125453E+00
         25   -1    0    0    0    0  0.00000000000E+00  0.00000000000E+00  0.99999998245E-14  0.12509000000E+03  0.12509000000E+03 0.  0.
        -13    1    3    3    0    0  0.52282112842E+02 -0.16860851929E+00  0.33199031706E+02  0.61932500533E+02  0.10566000000E+00 0. -1.
         23    2    1    0    0    0  0.20131538502E+02 -0.23695857318E+01  0.19544195488E+02  0.96932064062E+02  0.92752119582E+02 0.  0.
         13    1    3    3    0    0 -0.32150574339E+02 -0.22009772125E+01 -0.13654836218E+02  0.34999563529E+02  0.10566000000E+00 0.  1.
         22    1    1    0    0    0 -0.20131538502E+02  0.23695857318E+01 -0.19544195488E+02  0.28157935938E+02  0.00000000000E+00 0. -1.
</event>
<event>
 5    1  0.1250806E-009  0.9118800E+02  0.7561462E-02  0.1125453E+00
         25   -1    0    0    0    0  0.00000000000E+00  0.00000000000E+00  0.99999998245E-14  0.12509000000E+03  0.12509000000E+03 0.  0.
        -13    1    3    3    0    0  0.11272512018E+02  0.16811486555E+02 -0.29060782648E+02  0.35415192496E+02  0.10566000000E+00 0.  1.
         23    2    1    0    0    0  0.12531573861E+02 -0.25591775280E+02  0.11737441863E+02  0.94272036944E+02  0.89092480617E+02 0.  0.
         13    1    3    3    0    0  0.12590618437E+01 -0.42403261835E+02  0.40798224512E+02  0.58856844448E+02  0.10566000000E+00 0. -1.
         22    1    1    0    0    0 -0.12531573861E+02  0.25591775280E+02 -0.11737441863E+02  0.30817963056E+02  0.00000000000E+00 0. -1.
</event>
<event>
 5    1  0.1250806E-009  0.9118800E+02  0.7561462E-02  0.1125453E+00
         25   -1    0    0    0    0  0.00000000000E+00  0.00000000000E+00  0.99999998245E-14  0.12509000000E+03  0.12509000000E+03 0.  0.
        -13    1    3    3    0    0 -0.71890950322E+01 -0.29001243543E+02 -0.23048194810E+02  0.37735734556E+02  0.10566000000E+00 0.  1.
         23    2    1    0    0    0  0.97403253384E+01  0.25381290037E+02 -0.96005978846E+01  0.96258501576E+02  0.91839228134E+02 0.  0.
         13    1    3    3    0    0  0.16929420371E+02  0.54382533580E+02  0.13447596926E+02  0.58522767020E+02  0.10566000000E+00 0. -1.
         22    1    1    0    0    0 -0.97403253384E+01 -0.25381290037E+02  0.96005978846E+01  0.28831498424E+02  0.00000000000E+00 0. -1.
</event>
<event>
 5    1  0.1250806E-009  0.9118800E+02  0.7561462E-02  0.1125453E+00
         25   -1    0    0    0    0  0.00000000000E+00  0.00000000000E+00  0.99999998245E-14  0.12509000000E+03  0.12509000000E+03 0.  0.
        -13    1    3    3    0    0 -0.33199389519E+02  0.47445504691E+02  0.16748589770E+02  0.60281023574E+02  0.10566000000E+00 0. -1.
         23    2    1    0    0    0 -0.20267369000E+02  0.24147868811E+02 -0.29620271860E+01  0.93425202205E+02  0.87895443498E+02 0.  0.
         13    1    3    3    0    0  0.12932020518E+02 -0.23297635880E+02 -0.19710616956E+02  0.33144178631E+02  0.10566000000E+00 0.  1.
         22    1    1    0    0    0  0.20267369000E+02 -0.24147868811E+02  0.29620271860E+01  0.31664797795E+02  0.00000000000E+00 0. -1.
</event>
<event>
 5    1  0.1250806E-009  0.9118800E+02  0.7561462E-02  0.1125453E+00
         25   -1    0    0    0    0  0.00000000000E+00  0.00000000000E+00  0.99999998245E-14  0.12509000000E+03  0.12509000000E+03 0.  0.
        -13    1    3    3    0    0  0.54512921862E+02 -0.79671053424E+01 -0.15934981424E+01  0.55115186817E+02  0.10566000000E+00 0.  1.
         23    2    1    0    0    0  0.21381212237E+02 -0.10825175378E+02  0.19239935109E+02  0.94357024849E+02  0.89211727798E+02 0.  0.
         13    1    3    3    0    0 -0.33131709626E+02 -0.28580700354E+01  0.20833433251E+02  0.39241838032E+02  0.10566000000E+00 0. -1.
         22    1    1    0    0    0 -0.21381212237E+02  0.10825175378E+02 -0.19239935109E+02  0.30732975151E+02  0.00000000000E+00 0.  1.
</event>
<event>
 5    1  0.1250806E-009  0.9118800E+02  0.7561462E-02  0.1125453E+00
         25   -1    0    0    0    0  0.00000000000E+00  0.00000000000E+00  0.99999998245E-14  0.12509000000E+03  0.12509000000E+03 0.  0.
        -13    1    3    3    0    0  0.71498673493E+00  0.31539782544E+02  0.13611237009E+02  0.34359074870E+02  0.10566000000E+00 0.  1.
         23    2    1    0    0    0  0.75957375684E+01 -0.23127010322E+02 -0.15054815674E+02  0.96468306992E+02  0.92124551251E+02 0.  0.
         13    1    3    3    0    0  0.68807508334E+01 -0.54666792866E+02 -0.28666052684E+02  0.62109232122E+02  0.10566000000E+00 0. -1.
         22    1    1    0    0    0 -0.75957375684E+01  0.23127010322E+02  0.15054815674E+02  0.28621693008E+02  0.00000000000E+00 0. -1.
</event>
<event>
 5    1  0.1250806E-009  0.9118800E+02  0.7561462E-02  0.1125453E+00
         25   -1    0    0    0    0  0.00000000000E+00  0.00000000000E+00  0.99999998245E-14  0.12509000000E+03  0.12509000000E+03 0.  0.
        -13    1    3    3    0    0 -0.49623567855E+02 -0.51065103472E+01  0.21083657653E+02  0.54158163914E+02  0.10566000000E+00 0.  1.
         23    2    1    0    0    0 -0.22751344255E+02 -0.14955149452E+02 -0.96964965227E+01  0.96188404795E+02  0.91743702845E+02 0.  0.
         13    1    3    3    0    0  0.26872223599E+02 -0.98486391053E+01 -0.30780154175E+02  0.42030240881E+02  0.10566000000E+00 0. -1.
         22    1    1    0    0    0  0.22751344255E+02  0.14955149452E+02  0.96964965227E+01  0.28901595205E+02  0.00000000000E+00 0.  1.
</event>
<event>
 5    1  0.1250806E-009  0.9118800E+02  0.7561462E-02  0.1125453E+00
         25   -1    0    0    0    0  0.00000000000E+00  0.00000000000E+00  0.99999998245E-14  0.12509000000E+03  0.12509000000E+03 0.  0.
        -13    1    3    3    0    0  0.24497865447E+02 -0.64874909360E+01  0.21172252076E+02  0.33022846214E+02  0.10566000000E+00 0.  1.
         23    2    1    0    0    0 -0.31321064205E+02  0.54216071060E+01  0.19683620555E+01  0.93242278955E+02  0.87634726273E+02 0.  0.
         13    1    3    3    0    0 -0.55818929652E+02  0.11909098042E+02 -0.19203890020E+02  0.60219432741E+02  0.10566000000E+00 0. -1.
         22    1    1    0    0    0  0.31321064205E+02 -0.54216071060E+01 -0.19683620555E+01  0.31847721045E+02  0.00000000000E+00 0. -1.
</event>
<event>
 5    1  0.1250806E-009  0.9118800E+02  0.7561462E-02  0.1125453E+00
         25   -1    0    0    0    0  0.00000000000E+00  0.00000000000E+00  0.99999998245E-14  0.12509000000E+03  0.12509000000E+03 0.  0.
        -13    1    3    3    0    0  0.48500626014E+01 -0.27678189370E+02 -0.56458304364E+01  0.28661678936E+02  0.10566000000E+00 0.  1.
         23    2    1    0    0    0 -0.95499881966E+01  0.20100769705E+02 -0.32784596962E+02  0.85465853129E+02  0.75725418691E+02 0.  0.
         13    1    3    3    0    0 -0.14400050798E+02  0.47778959075E+02 -0.27138766525E+02  0.56804174194E+02  0.10566000000E+00 0. -1.
         22    1    1    0    0    0  0.95499881966E+01 -0.20100769705E+02  0.32784596962E+02  0.39624146871E+02  0.00000000000E+00 0. -1.
</event>
<event>
 5    1  0.1250806E-009  0.9118800E+02  0.7561462E-02  0.1125453E+00
         25   -1    0    0    0    0  0.00000000000E+00  0.00000000000E+00  0.99999998245E-14  0.12509000000E+03  0.12509000000E+03 0.  0.
        -13    1    3    3    0    0  0.18828783764E+02 -0.22944487394E+02  0.14860982881E+02  0.33193863530E+02  0.10566000000E+00 0.  1.
         23    2    1    0    0    0 -0.22606073321E+02  0.60949068508E+01 -0.19718808504E+02  0.94479318052E+02  0.89383039164E+02 0.  0.
         13    1    3    3    0    0 -0.41434857085E+02  0.29039394245E+02 -0.34579791384E+02  0.61285454522E+02  0.10566000000E+00 0. -1.
         22    1    1    0    0    0  0.22606073321E+02 -0.60949068508E+01  0.19718808504E+02  0.30610681948E+02  0.00000000000E+00 0. -1.
</event>
<event>
 5    1  0.1250806E-009  0.9118800E+02  0.7561462E-02  0.1125453E+00
         25   -1    0    0    0    0  0.00000000000E+00  0.00000000000E+00  0.99999998245E-14  0.12509000000E+03  0.12509000000E+03 0.  0.
        -13    1    3    3    0    0 -0.16910460394E+02  0.15408108638E+02 -0.26603122152E+02  0.35087187901E+02  0.10566000000E+00 0. -1.
         23    2    1    0    0    0  0.72340998504E+01 -0.27469709322E+02  0.83915246683E+01  0.95470161764E+02  0.90759115080E+02 0.  0.
         13    1    3    3    0    0  0.24144560244E+02 -0.42877817960E+02  0.34994646820E+02  0.60382973863E+02  0.10566000000E+00 0.  1.
         22    1    1    0    0    0 -0.72340998504E+01  0.27469709322E+02 -0.83915246683E+01  0.29619838236E+02  0.00000000000E+00 0.  1.
</event>
<event>
 5    1  0.1250806E-009  0.9118800E+02  0.7561462E-02  0.1125453E+00
         25   -1    0    0    0    0  0.00000000000E+00  0.00000000000E+00  0.99999998245E-14  0.12509000000E+03  0.12509000000E+03 0.  0.
        -13    1    3    3    0    0 -0.62137284714E+02  0.30927995279E+01  0.19687983594E+01  0.62245440729E+02  0.10566000000E+00 0.  1.
         23    2    1    0    0    0 -0.25520874104E+02 -0.21629468857E+01  0.33285324724E+01  0.99262253627E+02  0.95843218396E+02 0.  0.
         13    1    3    3    0    0  0.36616410609E+02 -0.52557464136E+01  0.13597341130E+01  0.37016812898E+02  0.10566000000E+00 0. -1.
         22    1    1    0    0    0  0.25520874104E+02  0.21629468857E+01 -0.33285324724E+01  0.25827746373E+02  0.00000000000E+00 0.  1.
</event>
<event>
 5    1  0.1250806E-009  0.9118800E+02  0.7561462E-02  0.1125453E+00
         25   -1    0    0    0    0  0.00000000000E+00  0.00000000000E+00  0.99999998245E-14  0.12509000000E+03  0.12509000000E+03 0.  0.
        -13    1    3    3    0    0 -0.22657291225E+02  0.48937619576E+02 -0.24575416762E+02  0.59263865285E+02  0.10566000000E+00 0. -1.
         23    2    1    0    0    0  0.92592849250E+00  0.28524928330E+02 -0.49255739923E+01  0.96128125769E+02  0.91661477213E+02 0.  0.
         13    1    3    3    0    0  0.23583219717E+02 -0.20412691246E+02  0.19649842770E+02  0.36864260484E+02  0.10566000000E+00 0.  1.
         22    1    1    0    0    0 -0.92592849250E+00 -0.28524928330E+02  0.49255739923E+01  0.28961874231E+02  0.00000000000E+00 0. -1.
</event>
<event>
 5    1  0.1250806E-009  0.9118800E+02  0.7561462E-02  0.1125453E+00
         25   -1    0    0    0    0  0.00000000000E+00  0.00000000000E+00  0.99999998245E-14  0.12509000000E+03  0.12509000000E+03 0.  0.
        -13    1    3    3    0    0  0.41742432095E+02 -0.23717566769E+02 -0.29628765790E+02  0.56416562611E+02  0.10566000000E+00 0.  1.
         23    2    1    0    0    0  0.41295372994E+01 -0.79317057252E+01 -0.26262781783E+02  0.97346554990E+02  0.93309447686E+02 0.  0.
         13    1    3    3    0    0 -0.37612894795E+02  0.15785861043E+02  0.33659840071E+01  0.40929992379E+02  0.10566000000E+00 0. -1.
         22    1    1    0    0    0 -0.41295372994E+01  0.79317057252E+01  0.26262781783E+02  0.27743445010E+02  0.00000000000E+00 0.  1.
</event>
<event>
 5    1  0.1250806E-009  0.9118800E+02  0.7561462E-02  0.1125453E+00
         25   -1    0    0    0    0  0.00000000000E+00  0.00000000000E+00  0.99999998245E-14  0.12509000000E+03  0.12509000000E+03 0.  0.
        -13    1    3    3    0    0 -0.35315153450E+02  0.19257064890E+02  0.24557709416E+02  0.47128408282E+02  0.10566000000E+00 0.  1.
         23    2    1    0    0    0 -0.31099903691E+01  0.24317587994E+02 -0.13389492455E+02  0.97156227713E+02  0.93053946447E+02 0.  0.
         13    1    3    3    0    0  0.32205163081E+02  0.50605231040E+01 -0.37947201872E+02  0.50027819431E+02  0.10566000000E+00 0. -1.
         22    1    1    0    0    0  0.31099903691E+01 -0.24317587994E+02  0.13389492455E+02  0.27933772287E+02  0.00000000000E+00 0. -1.
</event>
<event>
 5    1  0.1250806E-009  0.9118800E+02  0.7561462E-02  0.1125453E+00
         25   -1    0    0    0    0  0.00000000000E+00  0.00000000000E+00  0.99999998245E-14  0.12509000000E+03  0.12509000000E+03 0.  0.
        -13    1    3    3    0    0  0.29216023733E+02 -0.36570955276E+01 -0.22066871359E+02  0.36795493828E+02  0.10566000000E+00 0.  1.
         23    2    1    0    0    0 -0.27180411109E+02  0.70259963139E+01 -0.81297080712E+01  0.95862760555E+02  0.91298616286E+02 0.  0.
         13    1    3    3    0    0 -0.56396434841E+02  0.10683091841E+02  0.13937163287E+02  0.59067266727E+02  0.10566000000E+00 0. -1.
         22    1    1    0    0    0  0.27180411109E+02 -0.70259963139E+01  0.81297080712E+01  0.29227239445E+02  0.00000000000E+00 0. -1.
</event>
<event>
 5    1  0.1250806E-009  0.9118800E+02  0.7561462E-02  0.1125453E+00
         25   -1    0    0    0    0  0.00000000000E+00  0.00000000000E+00  0.99999998245E-14  0.12509000000E+03  0.12509000000E+03 0.  0.
        -13    1    3    3    0    0 -0.77747440980E+01 -0.16379022478E+02 -0.29264633089E+02  0.34425992172E+02  0.10566000000E+00 0.  1.
         23    2    1    0    0    0  0.20200734614E+02  0.30691441833E+01  0.21413204170E+02  0.95492455545E+02  0.90789836591E+02 0.  0.
         13    1    3    3    0    0  0.27975478712E+02  0.19448166661E+02  0.50677837259E+02  0.61066463373E+02  0.10566000000E+00 0. -1.
         22    1    1    0    0    0 -0.20200734614E+02 -0.30691441833E+01 -0.21413204170E+02  0.29597544455E+02  0.00000000000E+00 0. -1.
</event>
<event>
 5    1  0.1250806E-009  0.9118800E+02  0.7561462E-02  0.1125453E+00
         25   -1    0    0    0    0  0.00000000000E+00  0.00000000000E+00  0.99999998245E-14  0.12509000000E+03  0.12509000000E+03 0.  0.
        -13    1    3    3    0    0 -0.14808293539E+02  0.67095859718E+01  0.42149074219E+02  0.45175875454E+02  0.10566000000E+00 0.  1.
         23    2    1    0    0    0  0.23758402929E+02 -0.10092666292E+02  0.15251031378E+02  0.95108045749E+02  0.90258643826E+02 0.  0.
         13    1    3    3    0    0  0.38566696469E+02 -0.16802252264E+02 -0.26898042841E+02  0.49932170295E+02  0.10566000000E+00 0. -1.
         22    1    1    0    0    0 -0.23758402929E+02  0.10092666292E+02 -0.15251031378E+02  0.29981954251E+02  0.00000000000E+00 0. -1.
</event>
<event>
 5    1  0.1250806E-009  0.9118800E+02  0.7561462E-02  0.1125453E+00
         25   -1    0    0    0    0  0.00000000000E+00  0.00000000000E+00  0.99999998245E-14  0.12509000000E+03  0.12509000000E+03 0.  0.
        -13    1    3    3    0    0  0.61540146315E+01  0.14671252672E+01  0.34287680398E+02  0.34866610729E+02  0.10566000000E+00 0.  1.
         23    2    1    0    0    0 -0.56462296079E+01  0.85933545368E+01 -0.26220597657E+02  0.96925387585E+02  0.92743114926E+02 0.  0.
         13    1    3    3    0    0 -0.11800244239E+02  0.71262292696E+01 -0.60508278055E+02  0.62058776856E+02  0.10566000000E+00 0. -1.
         22    1    1    0    0    0  0.56462296079E+01 -0.85933545368E+01  0.26220597657E+02  0.28164612415E+02  0.00000000000E+00 0. -1.
</event>
<event>
 5    1  0.1250806E-009  0.9118800E+02  0.7561462E-02  0.1125453E+00
         25   -1    0    0    0    0  0.00000000000E+00  0.00000000000E+00  0.99999998245E-14  0.12509000000E+03  0.12509000000E+03 0.  0.
        -13    1    3    3    0    0  0.28852662261E+02  0.36571516568E+01  0.48678980000E+02  0.56705424217E+02  0.10566000000E+00 0.  1.
         23    2    1    0    0    0  0.76566393476E+01 -0.16573981244E+02  0.23444140352E+02  0.95375547334E+02  0.90628617622E+02 0.  0.
         13    1    3    3    0    0 -0.21196022913E+02 -0.20231132901E+02 -0.25234839648E+02  0.38670123117E+02  0.10566000000E+00 0. -1.
         22    1    1    0    0    0 -0.76566393476E+01  0.16573981244E+02 -0.23444140352E+02  0.29714452666E+02  0.00000000000E+00 0.  1.
</event>
<event>
 5    1  0.1250806E-009  0.9118800E+02  0.7561462E-02  0.1125453E+00
         25   -1    0    0    0    0  0.00000000000E+00  0.00000000000E+00  0.99999998245E-14  0.12509000000E+03  0.12509000000E+03 0.  0.
        -13    1    3    3    0    0 -0.21140688205E+02  0.37911473559E+02 -0.59839777489E+01  0.43818120441E+02  0.10566000000E+00 0.  1.
         23    2    1    0    0    0 -0.18563236230E+02 -0.17388973057E+02 -0.48846553453E+01  0.99189614266E+02  0.95748366028E+02 0.  0.
         13    1    3    3    0    0  0.25774519749E+01 -0.55300446616E+02  0.10993224037E+01  0.55371493825E+02  0.10566000000E+00 0. -1.
         22    1    1    0    0    0  0.18563236230E+02  0.17388973057E+02  0.48846553453E+01  0.25900385734E+02  0.00000000000E+00 0. -1.
</event>
<event>
 5    1  0.1250806E-009  0.9118800E+02  0.7561462E-02  0.1125453E+00
         25   -1    0    0    0    0  0.00000000000E+00  0.00000000000E+00  0.99999998245E-14  0.12509000000E+03  0.12509000000E+03 0.  0.
        -13    1    3    3    0    0 -0.27979356242E+02 -0.16449097417E+02 -0.12182673099E+02  0.34667648744E+02  0.10566000000E+00 0.  1.
         23    2    1    0    0    0  0.11082093019E+02  0.16165658446E+02  0.21735316402E+02  0.95822863519E+02  0.91243936211E+02 0.  0.
         13    1    3    3    0    0  0.39061449261E+02  0.32614755863E+02  0.33917989501E+02  0.61155214775E+02  0.10566000000E+00 0. -1.
         22    1    1    0    0    0 -0.11082093019E+02 -0.16165658446E+02 -0.21735316402E+02  0.29267136481E+02  0.00000000000E+00 0. -1.
</event>
<event>
 5    1  0.1250806E-009  0.9118800E+02  0.7561462E-02  0.1125453E+00
         25   -1    0    0    0    0  0.00000000000E+00  0.00000000000E+00  0.99999998245E-14  0.12509000000E+03  0.12509000000E+03 0.  0.
        -13    1    3    3    0    0 -0.46388612162E+02  0.23423984415E+02  0.21664461582E+02  0.56302277430E+02  0.10566000000E+00 0.  1.
         23    2    1    0    0    0 -0.26504225409E+02 -0.83439788654E+01  0.10116076162E+02  0.95519221438E+02  0.90826707083E+02 0.  0.
         13    1    3    3    0    0  0.19884386753E+02 -0.31767963280E+02 -0.11548385420E+02  0.39216944008E+02  0.10566000000E+00 0. -1.
         22    1    1    0    0    0  0.26504225409E+02  0.83439788654E+01 -0.10116076162E+02  0.29570778562E+02  0.00000000000E+00 0.  1.
</event>
<event>
 5    1  0.1250806E-009  0.9118800E+02  0.7561462E-02  0.1125453E+00
         25   -1    0    0    0    0  0.00000000000E+00  0.00000000000E+00  0.99999998245E-14  0.12509000000E+03  0.12509000000E+03 0.  0.
        -13    1    3    3    0    0  0.32286039611E+02  0.35132147183E+02  0.86918670161E+01  0.48499647789E+02  0.10566000000E+00 0.  1.
         23    2    1    0    0    0  0.29145000020E+02 -0.83635535256E+01 -0.53221625090E+01  0.94305174720E+02  0.89138995459E+02 0.  0.
         13    1    3    3    0    0 -0.31410395905E+01 -0.43495700709E+02 -0.14014029525E+02  0.45805526931E+02  0.10566000000E+00 0. -1.
         22    1    1    0    0    0 -0.29145000020E+02  0.83635535256E+01  0.53221625090E+01  0.30784825280E+02  0.00000000000E+00 0. -1.
</event>
<event>
 5    1  0.1250806E-009  0.9118800E+02  0.7561462E-02  0.1125453E+00
         25   -1    0    0    0    0  0.00000000000E+00  0.00000000000E+00  0.99999998245E-14  0.12509000000E+03  0.12509000000E+03 0.  0.
        -13    1    3    3    0    0 -0.37075035933E+01  0.29710409648E+02  0.16433944854E+02  0.34154644367E+02  0.10566000000E+00 0.  1.
         23    2    1    0    0    0  0.25479348807E+02 -0.18666879191E+02 -0.16028562376E+01  0.93463764965E+02  0.87950307668E+02 0.  0.
         13    1    3    3    0    0  0.29186852401E+02 -0.48377288839E+02 -0.18036801092E+02  0.59309120598E+02  0.10566000000E+00 0. -1.
         22    1    1    0    0    0 -0.25479348807E+02  0.18666879191E+02  0.16028562376E+01  0.31626235035E+02  0.00000000000E+00 0. -1.
</event>
<event>
 5    1  0.1250806E-009  0.9118800E+02  0.7561462E-02  0.1125453E+00
         25   -1    0    0    0    0  0.00000000000E+00  0.00000000000E+00  0.99999998245E-14  0.12509000000E+03  0.12509000000E+03 0.  0.
        -13    1    3    3    0    0 -0.21670918476E+02 -0.53290790961E+02  0.12164101263E+02  0.58800626122E+02  0.10566000000E+00 0.  1.
         23    2    1    0    0    0 -0.26672229713E+00 -0.22933646235E+02  0.17385419598E+02  0.96310213952E+02  0.91909636200E+02 0.  0.
         13    1    3    3    0    0  0.21404196178E+02  0.30357144726E+02  0.52213183349E+01  0.37509587829E+02  0.10566000000E+00 0. -1.
         22    1    1    0    0    0  0.26672229713E+00  0.22933646235E+02 -0.17385419598E+02  0.28779786048E+02  0.00000000000E+00 0.  1.
</event>
<event>
 5    1  0.1250806E-009  0.9118800E+02  0.7561462E-02  0.1125453E+00
         25   -1    0    0    0    0  0.00000000000E+00  0.00000000000E+00  0.99999998245E-14  0.12509000000E+03  0.12509000000E+03 0.  0.
        -13    1    3    3    0    0  0.18627832315E+02 -0.23494455237E+02 -0.17818480172E+02  0.34878287849E+02  0.10566000000E+00 0.  1.
         23    2    1    0    0    0 -0.22067961701E+02  0.53012511744E+01  0.17881892307E+02  0.96196051323E+02  0.91754128082E+02 0.  0.
         13    1    3    3    0    0 -0.40695794015E+02  0.28795706411E+02  0.35700372479E+02  0.61317763474E+02  0.10566000000E+00 0. -1.
         22    1    1    0    0    0  0.22067961701E+02 -0.53012511744E+01 -0.17881892307E+02  0.28893948677E+02  0.00000000000E+00 0. -1.
</event>
<event>
 5    1  0.1250806E-009  0.9118800E+02  0.7561462E-02  0.1125453E+00
         25   -1    0    0    0    0  0.00000000000E+00  0.00000000000E+00  0.99999998245E-14  0.12509000000E+03  0.12509000000E+03 0.  0.
        -13    1    3    3    0    0  0.50865960911E+02 -0.13169480521E+02  0.33176092766E+02  0.62140530186E+02  0.10566000000E+00 0.  1.
         23    2    1    0    0    0  0.20648879070E+02 -0.10346340255E+02  0.15725026257E+02  0.97149001194E+02  0.93044231517E+02 0.  0.
         13    1    3    3    0    0 -0.30217081841E+02  0.28231402666E+01 -0.17451066509E+02  0.35008471007E+02  0.10566000000E+00 0. -1.
         22    1    1    0    0    0 -0.20648879070E+02  0.10346340255E+02 -0.15725026257E+02  0.27940998806E+02  0.00000000000E+00 0.  1.
</event>
<event>
 5    1  0.1250806E-009  0.9118800E+02  0.7561462E-02  0.1125453E+00
         25   -1    0    0    0    0  0.00000000000E+00  0.00000000000E+00  0.99999998245E-14  0.12509000000E+03  0.12509000000E+03 0.  0.
        -13    1    3    3    0    0 -0.32916304545E+02 -0.14667793929E+02  0.80768983526E+01  0.36930674712E+02  0.10566000000E+00 0.  1.
         23    2    1    0    0    0  0.74960166864E+01  0.10104186600E+02 -0.26602206831E+02  0.95662763275E+02  0.91024183688E+02 0.  0.
         13    1    3    3    0    0  0.40412321231E+02  0.24771980529E+02 -0.34679105183E+02  0.58732088563E+02  0.10566000000E+00 0. -1.
         22    1    1    0    0    0 -0.74960166864E+01 -0.10104186600E+02  0.26602206831E+02  0.29427236725E+02  0.00000000000E+00 0. -1.
</event>
<event>
 5    1  0.1250806E-009  0.9118800E+02  0.7561462E-02  0.1125453E+00
         25   -1    0    0    0    0  0.00000000000E+00  0.00000000000E+00  0.99999998245E-14  0.12509000000E+03  0.12509000000E+03 0.  0.
        -13    1    3    3    0    0  0.49576974988E+02 -0.12090103389E+01  0.16202493396E+02  0.52171545034E+02  0.10566000000E+00 0.  1.
         23    2    1    0    0    0  0.22919094147E+02 -0.64976135123E+00 -0.18284171609E+02  0.95763936545E+02  0.91163115046E+02 0.  0.
         13    1    3    3    0    0 -0.26657880841E+02  0.55924898765E+00 -0.34486665006E+02  0.43592391511E+02  0.10566000000E+00 0. -1.
         22    1    1    0    0    0 -0.22919094147E+02  0.64976135123E+00  0.18284171609E+02  0.29326063455E+02  0.00000000000E+00 0.  1.
</event>
<event>
 5    1  0.1250806E-009  0.9118800E+02  0.7561462E-02  0.1125453E+00
         25   -1    0    0    0    0  0.00000000000E+00  0.00000000000E+00  0.99999998245E-14  0.12509000000E+03  0.12509000000E+03 0.  0.
        -13    1    3    3    0    0 -0.12990029929E+02  0.34112731780E+02 -0.48087295980E+02  0.60372332618E+02  0.10566000000E+00 0.  1.
         23    2    1    0    0    0 -0.53606886156E+01  0.44867442639E+01 -0.26160953648E+02  0.98011164126E+02  0.94196204493E+02 0.  0.
         13    1    3    3    0    0  0.76293413136E+01 -0.29625987516E+02  0.21926342331E+02  0.37638831508E+02  0.10566000000E+00 0. -1.
         22    1    1    0    0    0  0.53606886156E+01 -0.44867442639E+01  0.26160953648E+02  0.27078835874E+02  0.00000000000E+00 0.  1.
</event>
<event>
 5    1  0.1250806E-009  0.9118800E+02  0.7561462E-02  0.1125453E+00
         25   -1    0    0    0    0  0.00000000000E+00  0.00000000000E+00  0.99999998245E-14  0.12509000000E+03  0.12509000000E+03 0.  0.
        -13    1    3    3    0    0 -0.17759635868E+02 -0.12917830397E+02  0.30468479745E+02  0.37558147323E+02  0.10566000000E+00 0.  1.
         23    2    1    0    0    0  0.14028617232E+02 -0.20269531415E+02 -0.16990816021E+02  0.95150998109E+02  0.90318152145E+02 0.  0.
         13    1    3    3    0    0  0.31788253100E+02 -0.73517010175E+01 -0.47459295766E+02  0.57592850786E+02  0.10566000000E+00 0. -1.
         22    1    1    0    0    0 -0.14028617232E+02  0.20269531415E+02  0.16990816021E+02  0.29939001891E+02  0.00000000000E+00 0. -1.
</event>
<event>
 5    1  0.1250806E-009  0.9118800E+02  0.7561462E-02  0.1125453E+00
         25   -1    0    0    0    0  0.00000000000E+00  0.00000000000E+00  0.99999998245E-14  0.12509000000E+03  0.12509000000E+03 0.  0.
        -13    1    3    3    0    0 -0.12683572639E+02  0.69458731578E+01  0.59362458383E+02  0.61098533518E+02  0.10566000000E+00 0. -1.
         23    2    1    0    0    0 -0.15850588937E+01  0.74590390537E+01  0.45932408875E+02  0.78528901856E+02  0.63236481293E+02 0.  0.
         13    1    3    3    0    0  0.11098513745E+02  0.51316589585E+00 -0.13430049508E+02  0.17430368338E+02  0.10566000000E+00 0.  1.
         22    1    1    0    0    0  0.15850588937E+01 -0.74590390537E+01 -0.45932408875E+02  0.46561098144E+02  0.00000000000E+00 0. -1.
</event>
<event>
 5    1  0.1250806E-009  0.9118800E+02  0.7561462E-02  0.1125453E+00
         25   -1    0    0    0    0  0.00000000000E+00  0.00000000000E+00  0.99999998245E-14  0.12509000000E+03  0.12509000000E+03 0.  0.
        -13    1    3    3    0    0 -0.48038171432E+01 -0.26543165371E+02  0.20561558643E+02  0.33917622926E+02  0.10566000000E+00 0. -1.
         23    2    1    0    0    0 -0.11041229808E+02  0.14004081699E+02 -0.24455113276E+02  0.94823258760E+02  0.89863089067E+02 0.  0.
         13    1    3    3    0    0 -0.62374126648E+01  0.40547247070E+02 -0.45016671920E+02  0.60905635835E+02  0.10566000000E+00 0.  1.
         22    1    1    0    0    0  0.11041229808E+02 -0.14004081699E+02  0.24455113276E+02  0.30266741240E+02  0.00000000000E+00 0.  1.
</event>
<event>
 5    1  0.1250806E-009  0.9118800E+02  0.7561462E-02  0.1125453E+00
         25   -1    0    0    0    0  0.00000000000E+00  0.00000000000E+00  0.99999998245E-14  0.12509000000E+03  0.12509000000E+03 0.  0.
        -13    1    3    3    0    0 -0.24172487621E+01  0.16490358260E+02 -0.55622669779E+02  0.58066062072E+02  0.10566000000E+00 0. -1.
         23    2    1    0    0    0 -0.72332424927E+01 -0.78574381953E+01 -0.27577621009E+02  0.95516628321E+02  0.90823135672E+02 0.  0.
         13    1    3    3    0    0 -0.48159937307E+01 -0.24347796456E+02  0.28045048770E+02  0.37450566249E+02  0.10566000000E+00 0.  1.
         22    1    1    0    0    0  0.72332424927E+01  0.78574381953E+01  0.27577621009E+02  0.29573371679E+02  0.00000000000E+00 0. -1.
</event>
<event>
 5    1  0.1250806E-009  0.9118800E+02  0.7561462E-02  0.1125453E+00
         25   -1    0    0    0    0  0.00000000000E+00  0.00000000000E+00  0.99999998245E-14  0.12509000000E+03  0.12509000000E+03 0.  0.
        -13    1    3    3    0    0  0.58742863452E+02 -0.20149847489E+02  0.79396137525E+00  0.62107824781E+02  0.10566000000E+00 0. -1.
         23    2    1    0    0    0  0.27948231671E+02 -0.45570427567E+01 -0.17481052292E+01  0.96718779298E+02  0.92464026003E+02 0.  0.
         13    1    3    3    0    0 -0.30794631780E+02  0.15592804732E+02 -0.25420666045E+01  0.34610954517E+02  0.10566000000E+00 0.  1.
         22    1    1    0    0    0 -0.27948231671E+02  0.45570427567E+01  0.17481052292E+01  0.28371220702E+02  0.00000000000E+00 0. -1.
</event>
<event>
 5    1  0.1250806E-009  0.9118800E+02  0.7561462E-02  0.1125453E+00
         25   -1    0    0    0    0  0.00000000000E+00  0.00000000000E+00  0.99999998245E-14  0.12509000000E+03  0.12509000000E+03 0.  0.
        -13    1    3    3    0    0 -0.33311833367E+02  0.27720987523E+02 -0.35055030723E+02  0.55740449716E+02  0.10566000000E+00 0. -1.
         23    2    1    0    0    0  0.68416376381E+00  0.70440645825E+01 -0.28072880101E+02  0.96138773375E+02  0.91676006801E+02 0.  0.
         13    1    3    3    0    0  0.33995997131E+02 -0.20676922940E+02  0.69821506216E+01  0.40398323660E+02  0.10566000000E+00 0.  1.
         22    1    1    0    0    0 -0.68416376381E+00 -0.70440645825E+01  0.28072880101E+02  0.28951226625E+02  0.00000000000E+00 0. -1.
</event>
<event>
 5    1  0.1250806E-009  0.9118800E+02  0.7561462E-02  0.1125453E+00
         25   -1    0    0    0    0  0.00000000000E+00  0.00000000000E+00  0.99999998245E-14  0.12509000000E+03  0.12509000000E+03 0.  0.
        -13    1    3    3    0    0 -0.11735373290E+02  0.57881624401E+02  0.21149219683E+01  0.59097254492E+02  0.10566000000E+00 0.  1.
         23    2    1    0    0    0 -0.14278504605E+02  0.22687844622E+02  0.11967938707E+02  0.95732793998E+02  0.91120372598E+02 0.  0.
         13    1    3    3    0    0 -0.25431313147E+01 -0.35193779778E+02  0.98530167390E+01  0.36635539506E+02  0.10566000000E+00 0. -1.
         22    1    1    0    0    0  0.14278504605E+02 -0.22687844622E+02 -0.11967938707E+02  0.29357206002E+02  0.00000000000E+00 0.  1.
</event>
<event>
 5    1  0.1250806E-009  0.9118800E+02  0.7561462E-02  0.1125453E+00
         25   -1    0    0    0    0  0.00000000000E+00  0.00000000000E+00  0.99999998245E-14  0.12509000000E+03  0.12509000000E+03 0.  0.
        -13    1    3    3    0    0 -0.58340503564E+01  0.19008778044E+02 -0.44027588741E+02  0.48309517910E+02  0.10566000000E+00 0.  1.
         23    2    1    0    0    0 -0.25946343497E+02  0.12102265473E+02 -0.84121752691E+00  0.96447632476E+02  0.92096474378E+02 0.  0.
         13    1    3    3    0    0 -0.20112293141E+02 -0.69065125715E+01  0.43186371214E+02  0.48138114566E+02  0.10566000000E+00 0. -1.
         22    1    1    0    0    0  0.25946343497E+02 -0.12102265473E+02  0.84121752691E+00  0.28642367524E+02  0.00000000000E+00 0. -1.
</event>
<event>
 5    1  0.1250806E-009  0.9118800E+02  0.7561462E-02  0.1125453E+00
         25   -1    0    0    0    0  0.00000000000E+00  0.00000000000E+00  0.99999998245E-14  0.12509000000E+03  0.12509000000E+03 0.  0.
        -13    1    3    3    0    0  0.14072284127E+02  0.53076941624E+02  0.26872042487E+02  0.61133532077E+02  0.10566000000E+00 0.  1.
         23    2    1    0    0    0  0.15460695544E+02  0.24520830793E+02  0.95127203718E+01  0.94581048882E+02  0.89525296476E+02 0.  0.
         13    1    3    3    0    0  0.13884114165E+01 -0.28556110831E+02 -0.17359322116E+02  0.33447516805E+02  0.10566000000E+00 0. -1.
         22    1    1    0    0    0 -0.15460695544E+02 -0.24520830793E+02 -0.95127203718E+01  0.30508951118E+02  0.00000000000E+00 0.  1.
</event>
<event>
 5    1  0.1250806E-009  0.9118800E+02  0.7561462E-02  0.1125453E+00
         25   -1    0    0    0    0  0.00000000000E+00  0.00000000000E+00  0.99999998245E-14  0.12509000000E+03  0.12509000000E+03 0.  0.
        -13    1    3    3    0    0 -0.15917085286E+01  0.52127414959E+02 -0.92681802587E+01  0.52968965024E+02  0.10566000000E+00 0.  1.
         23    2    1    0    0    0  0.14914489136E+02  0.31626952706E+02  0.13338878028E+02  0.87664984426E+02  0.79274950039E+02 0.  0.
         13    1    3    3    0    0  0.16506197664E+02 -0.20500462253E+02  0.22607058287E+02  0.34696019402E+02  0.10566000000E+00 0. -1.
         22    1    1    0    0    0 -0.14914489136E+02 -0.31626952706E+02 -0.13338878028E+02  0.37425015574E+02  0.00000000000E+00 0.  1.
</event>
<event>
 5    1  0.1250806E-009  0.9118800E+02  0.7561462E-02  0.1125453E+00
         25   -1    0    0    0    0  0.00000000000E+00  0.00000000000E+00  0.99999998245E-14  0.12509000000E+03  0.12509000000E+03 0.  0.
        -13    1    3    3    0    0  0.27368769270E+02 -0.17189524932E+02 -0.27004040780E+02  0.42116014546E+02  0.10566000000E+00 0.  1.
         23    2    1    0    0    0 -0.11324607990E+02 -0.25075855822E+02  0.95883844933E+01  0.95952697302E+02  0.91421757317E+02 0.  0.
         13    1    3    3    0    0 -0.38693377260E+02 -0.78863308906E+01  0.36592425273E+02  0.53836682756E+02  0.10566000000E+00 0. -1.
         22    1    1    0    0    0  0.11324607990E+02  0.25075855822E+02 -0.95883844933E+01  0.29137302698E+02  0.00000000000E+00 0. -1.
</event>
<event>
 5    1  0.1250806E-009  0.9118800E+02  0.7561462E-02  0.1125453E+00
         25   -1    0    0    0    0  0.00000000000E+00  0.00000000000E+00  0.99999998245E-14  0.12509000000E+03  0.12509000000E+03 0.  0.
        -13    1    3    3    0    0  0.49743853889E+00  0.53467377072E+02 -0.18208354561E+01  0.53500789358E+02  0.10566000000E+00 0. -1.
         23    2    1    0    0    0 -0.22509465540E+02  0.19639019261E+02  0.44451128963E+01  0.94888573791E+02  0.89953962064E+02 0.  0.
         13    1    3    3    0    0 -0.23006904079E+02 -0.33828357812E+02  0.62659483524E+01  0.41387784433E+02  0.10566000000E+00 0.  1.
         22    1    1    0    0    0  0.22509465540E+02 -0.19639019261E+02 -0.44451128963E+01  0.30201426209E+02  0.00000000000E+00 0.  1.
</event>
<event>
 5    1  0.1250806E-009  0.9118800E+02  0.7561462E-02  0.1125453E+00
         25   -1    0    0    0    0  0.00000000000E+00  0.00000000000E+00  0.99999998245E-14  0.12509000000E+03  0.12509000000E+03 0.  0.
        -13    1    3    3    0    0  0.29623552301E+02 -0.20799946386E+02 -0.37725928198E+02  0.52282400892E+02  0.10566000000E+00 0. -1.
         23    2    1    0    0    0  0.17299560782E+02  0.14243741302E+02 -0.24922129972E+02  0.91574756723E+02  0.85221268102E+02 0.  0.
         13    1    3    3    0    0 -0.12323991518E+02  0.35043687689E+02  0.12803798225E+02  0.39292355831E+02  0.10566000000E+00 0.  1.
         22    1    1    0    0    0 -0.17299560782E+02 -0.14243741302E+02  0.24922129972E+02  0.33515243277E+02  0.00000000000E+00 0. -1.
</event>
<event>
 5    1  0.1250806E-009  0.9118800E+02  0.7561462E-02  0.1125453E+00
         25   -1    0    0    0    0  0.00000000000E+00  0.00000000000E+00  0.99999998245E-14  0.12509000000E+03  0.12509000000E+03 0.  0.
        -13    1    3    3    0    0 -0.71365446457E+01 -0.20874568679E+02  0.49869197566E+02  0.54530962920E+02  0.10566000000E+00 0.  1.
         23    2    1    0    0    0 -0.24298851361E+02 -0.43808871608E+01  0.17004454129E+02  0.95110376754E+02  0.90261874323E+02 0.  0.
         13    1    3    3    0    0 -0.17162306715E+02  0.16493681519E+02 -0.32864743438E+02  0.40579413834E+02  0.10566000000E+00 0. -1.
         22    1    1    0    0    0  0.24298851361E+02  0.43808871608E+01 -0.17004454129E+02  0.29979623246E+02  0.00000000000E+00 0.  1.
</event>
<event>
 5    1  0.1250806E-009  0.9118800E+02  0.7561462E-02  0.1125453E+00
         25   -1    0    0    0    0  0.00000000000E+00  0.00000000000E+00  0.99999998245E-14  0.12509000000E+03  0.12509000000E+03 0.  0.
        -13    1    3    3    0    0 -0.22016587411E+01  0.31820836017E+02 -0.42257657659E+02  0.52944628631E+02  0.10566000000E+00 0. -1.
         23    2    1    0    0    0 -0.95398484494E+01  0.25933112114E+02  0.12222005788E+01  0.97430846242E+02  0.93422379615E+02 0.  0.
         13    1    3    3    0    0 -0.73381897083E+01 -0.58877239037E+01  0.43479858237E+02  0.44486217611E+02  0.10566000000E+00 0.  1.
         22    1    1    0    0    0  0.95398484494E+01 -0.25933112114E+02 -0.12222005788E+01  0.27659153758E+02  0.00000000000E+00 0. -1.
</event>
<event>
 5    1  0.1250806E-009  0.9118800E+02  0.7561462E-02  0.1125453E+00
         25   -1    0    0    0    0  0.00000000000E+00  0.00000000000E+00  0.99999998245E-14  0.12509000000E+03  0.12509000000E+03 0.  0.
        -13    1    3    3    0    0 -0.21214931518E+02  0.76519656193E+00 -0.11660504765E+02  0.24220598269E+02  0.10566000000E+00 0.  1.
         23    2    1    0    0    0 -0.34183786209E+01  0.24899190318E+01  0.43077758248E+02  0.81805149707E+02  0.69415446795E+02 0.  0.
         13    1    3    3    0    0  0.17796552897E+02  0.17247224699E+01  0.54738263013E+02  0.57584551438E+02  0.10566000000E+00 0. -1.
         22    1    1    0    0    0  0.34183786209E+01 -0.24899190318E+01 -0.43077758248E+02  0.43284850293E+02  0.00000000000E+00 0. -1.
</event>
<event>
 5    1  0.1250806E-009  0.9118800E+02  0.7561462E-02  0.1125453E+00
         25   -1    0    0    0    0  0.00000000000E+00  0.00000000000E+00  0.99999998245E-14  0.12509000000E+03  0.12509000000E+03 0.  0.
        -13    1    3    3    0    0 -0.30628401184E+02 -0.30207356402E+01  0.19879313388E+02  0.36639078423E+02  0.10566000000E+00 0. -1.
         23    2    1    0    0    0  0.25736040328E+02 -0.78309227923E+01 -0.37186154939E+01  0.97933136692E+02  0.94092529127E+02 0.  0.
         13    1    3    3    0    0  0.56364441513E+02 -0.48101871521E+01 -0.23597928882E+02  0.61294058268E+02  0.10566000000E+00 0.  1.
         22    1    1    0    0    0 -0.25736040328E+02  0.78309227923E+01  0.37186154939E+01  0.27156863308E+02  0.00000000000E+00 0.  1.
</event>
<event>
 5    1  0.1250806E-009  0.9118800E+02  0.7561462E-02  0.1125453E+00
         25   -1    0    0    0    0  0.00000000000E+00  0.00000000000E+00  0.99999998245E-14  0.12509000000E+03  0.12509000000E+03 0.  0.
        -13    1    3    3    0    0 -0.27287882028E+02  0.51479596055E+02  0.99772254167E+01  0.59112887822E+02  0.10566000000E+00 0.  1.
         23    2    1    0    0    0 -0.19453129777E+01  0.25629509654E+02  0.14473891343E+02  0.95591702790E+02  0.90926476364E+02 0.  0.
         13    1    3    3    0    0  0.25342569051E+02 -0.25850086401E+02  0.44966659262E+01  0.36478814969E+02  0.10566000000E+00 0. -1.
         22    1    1    0    0    0  0.19453129777E+01 -0.25629509654E+02 -0.14473891343E+02  0.29498297210E+02  0.00000000000E+00 0.  1.
</event>
<event>
 5    1  0.1250806E-009  0.9118800E+02  0.7561462E-02  0.1125453E+00
         25   -1    0    0    0    0  0.00000000000E+00  0.00000000000E+00  0.99999998245E-14  0.12509000000E+03  0.12509000000E+03 0.  0.
        -13    1    3    3    0    0  0.32557221966E+02 -0.25179523664E+02  0.66107093282E+01  0.41685654079E+02  0.10566000000E+00 0. -1.
         23    2    1    0    0    0 -0.16193144619E+02 -0.50688252005E+01  0.22634167747E+02  0.96801902306E+02  0.92576410704E+02 0.  0.
         13    1    3    3    0    0 -0.48750366585E+02  0.20110698464E+02  0.16023458419E+02  0.55116248227E+02  0.10566000000E+00 0.  1.
         22    1    1    0    0    0  0.16193144619E+02  0.50688252005E+01 -0.22634167747E+02  0.28288097694E+02  0.00000000000E+00 0. -1.
</event>
<event>
 5    1  0.1250806E-009  0.9118800E+02  0.7561462E-02  0.1125453E+00
         25   -1    0    0    0    0  0.00000000000E+00  0.00000000000E+00  0.99999998245E-14  0.12509000000E+03  0.12509000000E+03 0.  0.
        -13    1    3    3    0    0 -0.28453776910E+02  0.15266963996E+02  0.16887826644E+02  0.36440464636E+02  0.10566000000E+00 0. -1.
         23    2    1    0    0    0  0.28519582962E+02  0.27991831460E+01  0.41866043770E+01  0.96129169645E+02  0.91662901775E+02 0.  0.
         13    1    3    3    0    0  0.56973359873E+02 -0.12467780850E+02 -0.12701222267E+02  0.59688705009E+02  0.10566000000E+00 0.  1.
         22    1    1    0    0    0 -0.28519582962E+02 -0.27991831460E+01 -0.41866043770E+01  0.28960830355E+02  0.00000000000E+00 0.  1.
</event>
<event>
 5    1  0.1250806E-009  0.9118800E+02  0.7561462E-02  0.1125453E+00
         25   -1    0    0    0    0  0.00000000000E+00  0.00000000000E+00  0.99999998245E-14  0.12509000000E+03  0.12509000000E+03 0.  0.
        -13    1    3    3    0    0 -0.38357995409E+01  0.32970728026E+02  0.94655893110E+01  0.34516529515E+02  0.10566000000E+00 0. -1.
         23    2    1    0    0    0  0.56245276004E+01 -0.19023549024E+02 -0.21554744844E+02  0.95796011650E+02  0.91207116469E+02 0.  0.
         13    1    3    3    0    0  0.94603271413E+01 -0.51994277050E+02 -0.31020334155E+02  0.61279482135E+02  0.10566000000E+00 0.  1.
         22    1    1    0    0    0 -0.56245276004E+01  0.19023549024E+02  0.21554744844E+02  0.29293988350E+02  0.00000000000E+00 0.  1.
</event>
<event>
 5    1  0.1250806E-009  0.9118800E+02  0.7561462E-02  0.1125453E+00
         25   -1    0    0    0    0  0.00000000000E+00  0.00000000000E+00  0.99999998245E-14  0.12509000000E+03  0.12509000000E+03 0.  0.
        -13    1    3    3    0    0  0.36661838678E+02 -0.41752556064E+02 -0.18596739244E+02  0.58593653476E+02  0.10566000000E+00 0.  1.
         23    2    1    0    0    0  0.65707041976E+01 -0.24608865350E+02 -0.19138428503E+02  0.93230152965E+02  0.87617415900E+02 0.  0.
         13    1    3    3    0    0 -0.30091134481E+02  0.17143690713E+02 -0.54168925968E+00  0.34636499490E+02  0.10566000000E+00 0. -1.
         22    1    1    0    0    0 -0.65707041976E+01  0.24608865350E+02  0.19138428503E+02  0.31859847035E+02  0.00000000000E+00 0.  1.
</event>
<event>
 5    1  0.1250806E-009  0.9118800E+02  0.7561462E-02  0.1125453E+00
         25   -1    0    0    0    0  0.00000000000E+00  0.00000000000E+00  0.99999998245E-14  0.12509000000E+03  0.12509000000E+03 0.  0.
        -13    1    3    3    0    0  0.81442873354E+01  0.23705175349E+02 -0.28977916879E+02  0.38314430509E+02  0.10566000000E+00 0. -1.
         23    2    1    0    0    0  0.59460551604E+01 -0.28622493005E+02 -0.13208764436E+02  0.93010814603E+02  0.87303708383E+02 0.  0.
         13    1    3    3    0    0 -0.21982321750E+01 -0.52327668355E+02  0.15769152444E+02  0.54696384094E+02  0.10566000000E+00 0.  1.
         22    1    1    0    0    0 -0.59460551604E+01  0.28622493005E+02  0.13208764436E+02  0.32079185397E+02  0.00000000000E+00 0.  1.
</event>
<event>
 5    1  0.1250806E-009  0.9118800E+02  0.7561462E-02  0.1125453E+00
         25   -1    0    0    0    0  0.00000000000E+00  0.00000000000E+00  0.99999998245E-14  0.12509000000E+03  0.12509000000E+03 0.  0.
        -13    1    3    3    0    0 -0.15663298722E+01 -0.54283948674E+02 -0.23715916821E+02  0.59259230063E+02  0.10566000000E+00 0.  1.
         23    2    1    0    0    0  0.10776499749E+02 -0.16863581838E+02 -0.34121485192E+00  0.10507426202E+03  0.10315023399E+03 0.  0.
         13    1    3    3    0    0  0.12342829622E+02  0.37420366836E+02  0.23374701969E+02  0.45815031958E+02  0.10566000000E+00 0. -1.
         22    1    1    0    0    0 -0.10776499749E+02  0.16863581838E+02  0.34121485192E+00  0.20015737979E+02  0.00000000000E+00 0.  1.
</event>
<event>
 5    1  0.1250806E-009  0.9118800E+02  0.7561462E-02  0.1125453E+00
         25   -1    0    0    0    0  0.00000000000E+00  0.00000000000E+00  0.99999998245E-14  0.12509000000E+03  0.12509000000E+03 0.  0.
        -13    1    3    3    0    0  0.25900999889E+02  0.19460431910E+02  0.47237076150E+02  0.57279339492E+02  0.10566000000E+00 0.  1.
         23    2    1    0    0    0 -0.33052703797E+01  0.69907953261E+01  0.31372498959E+02  0.92778551216E+02  0.86970281380E+02 0.  0.
         13    1    3    3    0    0 -0.29206270269E+02 -0.12469636584E+02 -0.15864577191E+02  0.35499211724E+02  0.10566000000E+00 0. -1.
         22    1    1    0    0    0  0.33052703797E+01 -0.69907953261E+01 -0.31372498959E+02  0.32311448784E+02  0.00000000000E+00 0.  1.
</event>
<event>
 5    1  0.1250806E-009  0.9118800E+02  0.7561462E-02  0.1125453E+00
         25   -1    0    0    0    0  0.00000000000E+00  0.00000000000E+00  0.99999998245E-14  0.12509000000E+03  0.12509000000E+03 0.  0.
        -13    1    3    3    0    0 -0.49761720336E+02  0.24983136423E+02 -0.79437211762E+01  0.56244997879E+02  0.10566000000E+00 0. -1.
         23    2    1    0    0    0 -0.16862996113E+02  0.18888764417E+02  0.13901914440E+02  0.96203856536E+02  0.91764768447E+02 0.  0.
         13    1    3    3    0    0  0.32898724222E+02 -0.60943720061E+01  0.21845635617E+02  0.39958858657E+02  0.10566000000E+00 0.  1.
         22    1    1    0    0    0  0.16862996113E+02 -0.18888764417E+02 -0.13901914440E+02  0.28886143464E+02  0.00000000000E+00 0. -1.
</event>
<event>
 5    1  0.1250806E-009  0.9118800E+02  0.7561462E-02  0.1125453E+00
         25   -1    0    0    0    0  0.00000000000E+00  0.00000000000E+00  0.99999998245E-14  0.12509000000E+03  0.12509000000E+03 0.  0.
        -13    1    3    3    0    0  0.18145817976E+02  0.29369216670E+02 -0.26902806021E+01  0.34627595521E+02  0.10566000000E+00 0.  1.
         23    2    1    0    0    0 -0.15553521277E+02 -0.19288990100E+02 -0.16390504654E+02  0.95380981067E+02  0.90636117212E+02 0.  0.
         13    1    3    3    0    0 -0.33699339252E+02 -0.48658206770E+02 -0.13700224052E+02  0.60753385545E+02  0.10566000000E+00 0. -1.
         22    1    1    0    0    0  0.15553521277E+02  0.19288990100E+02  0.16390504654E+02  0.29709018933E+02  0.00000000000E+00 0. -1.
</event>
<event>
 5    1  0.1250806E-009  0.9118800E+02  0.7561462E-02  0.1125453E+00
         25   -1    0    0    0    0  0.00000000000E+00  0.00000000000E+00  0.99999998245E-14  0.12509000000E+03  0.12509000000E+03 0.  0.
        -13    1    3    3    0    0 -0.13217113043E+02  0.34797437389E+02 -0.29956777595E+02  0.47780471052E+02  0.10566000000E+00 0. -1.
         23    2    1    0    0    0 -0.20654074141E+02 -0.18592757261E+01 -0.33856861409E+02  0.85386917635E+02  0.75594913545E+02 0.  0.
         13    1    3    3    0    0 -0.74369610982E+01 -0.36656713115E+02 -0.39000838131E+01  0.37606446583E+02  0.10566000000E+00 0.  1.
         22    1    1    0    0    0  0.20654074141E+02  0.18592757261E+01  0.33856861409E+02  0.39703082365E+02  0.00000000000E+00 0. -1.
</event>
<event>
 5    1  0.1250806E-009  0.9118800E+02  0.7561462E-02  0.1125453E+00
         25   -1    0    0    0    0  0.00000000000E+00  0.00000000000E+00  0.99999998245E-14  0.12509000000E+03  0.12509000000E+03 0.  0.
        -13    1    3    3    0    0 -0.57495528349E+01  0.17981826913E+02 -0.37640237887E+02  0.42109406659E+02  0.10566000000E+00 0.  1.
         23    2    1    0    0    0  0.14809838341E+01  0.18754063654E+02  0.18492006444E+02  0.98710793814E+02  0.95120756391E+02 0.  0.
         13    1    3    3    0    0  0.72305366689E+01  0.77223674115E+00  0.56132244332E+02  0.56601387155E+02  0.10566000000E+00 0. -1.
         22    1    1    0    0    0 -0.14809838341E+01 -0.18754063654E+02 -0.18492006444E+02  0.26379206186E+02  0.00000000000E+00 0. -1.
</event>
<event>
 5    1  0.1250806E-009  0.9118800E+02  0.7561462E-02  0.1125453E+00
         25   -1    0    0    0    0  0.00000000000E+00  0.00000000000E+00  0.99999998245E-14  0.12509000000E+03  0.12509000000E+03 0.  0.
        -13    1    3    3    0    0 -0.48113043790E+01 -0.42400604033E+02  0.25422036769E+02  0.49671430317E+02  0.10566000000E+00 0.  1.
         23    2    1    0    0    0 -0.26693287700E+02 -0.42692203756E+01  0.10238377360E+02  0.96183560893E+02  0.91737098081E+02 0.  0.
         13    1    3    3    0    0 -0.21881983321E+02  0.38131383657E+02 -0.15183659409E+02  0.46512130576E+02  0.10566000000E+00 0. -1.
         22    1    1    0    0    0  0.26693287700E+02  0.42692203756E+01 -0.10238377360E+02  0.28906439107E+02  0.00000000000E+00 0.  1.
</event>
<event>
 5    1  0.1250806E-009  0.9118800E+02  0.7561462E-02  0.1125453E+00
         25   -1    0    0    0    0  0.00000000000E+00  0.00000000000E+00  0.99999998245E-14  0.12509000000E+03  0.12509000000E+03 0.  0.
        -13    1    3    3    0    0  0.24782844830E+02 -0.57527119526E+01  0.40885730703E+02  0.48155344790E+02  0.10566000000E+00 0. -1.
         23    2    1    0    0    0  0.15227062726E+02 -0.25270671857E+02 -0.12441944173E+01  0.95560043767E+02  0.90882911758E+02 0.  0.
         13    1    3    3    0    0 -0.95557821044E+01 -0.19517959904E+02 -0.42129925120E+02  0.47404698977E+02  0.10566000000E+00 0.  1.
         22    1    1    0    0    0 -0.15227062726E+02  0.25270671857E+02  0.12441944173E+01  0.29529956233E+02  0.00000000000E+00 0. -1.
</event>
<event>
 5    1  0.1250806E-009  0.9118800E+02  0.7561462E-02  0.1125453E+00
         25   -1    0    0    0    0  0.00000000000E+00  0.00000000000E+00  0.99999998245E-14  0.12509000000E+03  0.12509000000E+03 0.  0.
        -13    1    3    3    0    0  0.30680494860E+02  0.14965774228E+02  0.34761111884E+02  0.48719741651E+02  0.10566000000E+00 0.  1.
         23    2    1    0    0    0 -0.13239669791E+02  0.19598820526E+02  0.14835106583E+02  0.97170777061E+02  0.93073502701E+02 0.  0.
         13    1    3    3    0    0 -0.43920164652E+02  0.46330462975E+01 -0.19926005300E+02  0.48451035410E+02  0.10566000000E+00 0. -1.
         22    1    1    0    0    0  0.13239669791E+02 -0.19598820526E+02 -0.14835106583E+02  0.27919222939E+02  0.00000000000E+00 0.  1.
</event>
<event>
 5    1  0.1250806E-009  0.9118800E+02  0.7561462E-02  0.1125453E+00
         25   -1    0    0    0    0  0.00000000000E+00  0.00000000000E+00  0.99999998245E-14  0.12509000000E+03  0.12509000000E+03 0.  0.
        -13    1    3    3    0    0  0.31694889055E+01  0.31647969351E+02 -0.77656919298E+01  0.32740750742E+02  0.10566000000E+00 0.  1.
         23    2    1    0    0    0 -0.13267847378E+01 -0.24338907617E+02  0.18249502044E+02  0.94640252767E+02  0.89607981437E+02 0.  0.
         13    1    3    3    0    0 -0.44962736433E+01 -0.55986876968E+02  0.26015193974E+02  0.61899502024E+02  0.10566000000E+00 0. -1.
         22    1    1    0    0    0  0.13267847378E+01  0.24338907617E+02 -0.18249502044E+02  0.30449747233E+02  0.00000000000E+00 0. -1.
</event>
<event>
 5    1  0.1250806E-009  0.9118800E+02  0.7561462E-02  0.1125453E+00
         25   -1    0    0    0    0  0.00000000000E+00  0.00000000000E+00  0.99999998245E-14  0.12509000000E+03  0.12509000000E+03 0.  0.
        -13    1    3    3    0    0 -0.47538280577E+02  0.17965483215E+02 -0.30095320679E+02  0.59062561731E+02  0.10566000000E+00 0.  1.
         23    2    1    0    0    0 -0.28173821059E+02  0.78180061292E+01 -0.51261859974E+00  0.95847083068E+02  0.91277133730E+02 0.  0.
         13    1    3    3    0    0  0.19364459519E+02 -0.10147477085E+02  0.29582702079E+02  0.36784521337E+02  0.10566000000E+00 0. -1.
         22    1    1    0    0    0  0.28173821059E+02 -0.78180061292E+01  0.51261859974E+00  0.29242916932E+02  0.00000000000E+00 0.  1.
</event>
<event>
 5    1  0.1250806E-009  0.9118800E+02  0.7561462E-02  0.1125453E+00
         25   -1    0    0    0    0  0.00000000000E+00  0.00000000000E+00  0.99999998245E-14  0.12509000000E+03  0.12509000000E+03 0.  0.
        -13    1    3    3    0    0 -0.29627795343E+02 -0.49027370740E+02 -0.13046385642E+02  0.58751244080E+02  0.10566000000E+00 0. -1.
         23    2    1    0    0    0 -0.23522252855E+01 -0.22787039840E+02 -0.16648858512E+02  0.96770984512E+02  0.92534624899E+02 0.  0.
         13    1    3    3    0    0  0.27275570057E+02  0.26240330900E+02 -0.36024728699E+01  0.38019740432E+02  0.10566000000E+00 0.  1.
         22    1    1    0    0    0  0.23522252855E+01  0.22787039840E+02  0.16648858512E+02  0.28319015488E+02  0.00000000000E+00 0. -1.
</event>
<event>
 5    1  0.1250806E-009  0.9118800E+02  0.7561462E-02  0.1125453E+00
         25   -1    0    0    0    0  0.00000000000E+00  0.00000000000E+00  0.99999998245E-14  0.12509000000E+03  0.12509000000E+03 0.  0.
        -13    1    3    3    0    0 -0.21063202634E+01  0.27753211632E+02  0.23786356369E+02  0.36612555965E+02  0.10566000000E+00 0.  1.
         23    2    1    0    0    0  0.14373472371E+02 -0.18551154784E+02 -0.13236925190E+02  0.98146387765E+02  0.94375606970E+02 0.  0.
         13    1    3    3    0    0  0.16479792634E+02 -0.46304366416E+02 -0.37023281559E+02  0.61533831799E+02  0.10566000000E+00 0. -1.
         22    1    1    0    0    0 -0.14373472371E+02  0.18551154784E+02  0.13236925190E+02  0.26943612235E+02  0.00000000000E+00 0. -1.
</event>
<event>
 5    1  0.1250806E-009  0.9118800E+02  0.7561462E-02  0.1125453E+00
         25   -1    0    0    0    0  0.00000000000E+00  0.00000000000E+00  0.99999998245E-14  0.12509000000E+03  0.12509000000E+03 0.  0.
        -13    1    3    3    0    0 -0.14431960486E+02 -0.12481944837E+02 -0.43552608588E+02  0.47549146252E+02  0.10566000000E+00 0. -1.
         23    2    1    0    0    0  0.14603637539E+01 -0.24955952283E+02  0.45121434999E+01  0.99687408486E+02  0.96396513190E+02 0.  0.
         13    1    3    3    0    0  0.15892324239E+02 -0.12474007447E+02  0.48064752088E+02  0.52138262235E+02  0.10566000000E+00 0.  1.
         22    1    1    0    0    0 -0.14603637539E+01  0.24955952283E+02 -0.45121434999E+01  0.25402591514E+02  0.00000000000E+00 0.  1.
</event>
<event>
 5    1  0.1250806E-009  0.9118800E+02  0.7561462E-02  0.1125453E+00
         25   -1    0    0    0    0  0.00000000000E+00  0.00000000000E+00  0.99999998245E-14  0.12509000000E+03  0.12509000000E+03 0.  0.
        -13    1    3    3    0    0  0.22859237124E+02  0.17422784378E+02  0.28968753682E+02  0.40808062822E+02  0.10566000000E+00 0.  1.
         23    2    1    0    0    0  0.99565408425E+01 -0.27153348306E+02 -0.11749928791E+01  0.96144920314E+02  0.91684393787E+02 0.  0.
         13    1    3    3    0    0 -0.12902696281E+02 -0.44576132683E+02 -0.30143746561E+02  0.55336857492E+02  0.10566000000E+00 0. -1.
         22    1    1    0    0    0 -0.99565408425E+01  0.27153348306E+02  0.11749928791E+01  0.28945079686E+02  0.00000000000E+00 0. -1.
</event>
<event>
 5    1  0.1250806E-009  0.9118800E+02  0.7561462E-02  0.1125453E+00
         25   -1    0    0    0    0  0.00000000000E+00  0.00000000000E+00  0.99999998245E-14  0.12509000000E+03  0.12509000000E+03 0.  0.
        -13    1    3    3    0    0  0.38165565424E+02 -0.20303886917E+02 -0.24066967807E+02  0.49478159945E+02  0.10566000000E+00 0. -1.
         23    2    1    0    0    0  0.28712340792E+02  0.11656527991E+02  0.49989312863E+01  0.93701109090E+02  0.88287232215E+02 0.  0.
         13    1    3    3    0    0 -0.94532246328E+01  0.31960414907E+02  0.29065899093E+02  0.44222949146E+02  0.10566000000E+00 0.  1.
         22    1    1    0    0    0 -0.28712340792E+02 -0.11656527991E+02 -0.49989312863E+01  0.31388890910E+02  0.00000000000E+00 0.  1.
</event>
<event>
 5    1  0.1250806E-009  0.9118800E+02  0.7561462E-02  0.1125453E+00
         25   -1    0    0    0    0  0.00000000000E+00  0.00000000000E+00  0.99999998245E-14  0.12509000000E+03  0.12509000000E+03 0.  0.
        -13    1    3    3    0    0  0.90655631594E+00  0.28128173769E+02 -0.37997912428E+02  0.47284971363E+02  0.10566000000E+00 0.  1.
         23    2    1    0    0    0 -0.11072416481E+02 -0.74628039789E+01 -0.37972841233E+02  0.84837937677E+02  0.74680969115E+02 0.  0.
         13    1    3    3    0    0 -0.11978972797E+02 -0.35590977748E+02  0.25071194829E-01  0.37552966313E+02  0.10566000000E+00 0. -1.
         22    1    1    0    0    0  0.11072416481E+02  0.74628039789E+01  0.37972841233E+02  0.40252062323E+02  0.00000000000E+00 0.  1.
</event>
<event>
 5    1  0.1250806E-009  0.9118800E+02  0.7561462E-02  0.1125453E+00
         25   -1    0    0    0    0  0.00000000000E+00  0.00000000000E+00  0.99999998245E-14  0.12509000000E+03  0.12509000000E+03 0.  0.
        -13    1    3    3    0    0  0.28678188099E+02 -0.32007858805E+01  0.44410303727E+02  0.52961965070E+02  0.10566000000E+00 0. -1.
         23    2    1    0    0    0 -0.58230979923E+01 -0.17144422032E+02  0.22731326903E+02  0.96028807668E+02  0.91525837894E+02 0.  0.
         13    1    3    3    0    0 -0.34501286092E+02 -0.13943636151E+02 -0.21678976825E+02  0.43066842597E+02  0.10566000000E+00 0.  1.
         22    1    1    0    0    0  0.58230979923E+01  0.17144422032E+02 -0.22731326903E+02  0.29061192332E+02  0.00000000000E+00 0. -1.
</event>
<event>
 5    1  0.1250806E-009  0.9118800E+02  0.7561462E-02  0.1125453E+00
         25   -1    0    0    0    0  0.00000000000E+00  0.00000000000E+00  0.99999998245E-14  0.12509000000E+03  0.12509000000E+03 0.  0.
        -13    1    3    3    0    0  0.30451647736E+02  0.37702428011E+02 -0.20546277018E+02  0.52639686465E+02  0.10566000000E+00 0. -1.
         23    2    1    0    0    0  0.29919890149E+02 -0.79426349713E+00 -0.28136212161E+01  0.95027612447E+02  0.90147101906E+02 0.  0.
         13    1    3    3    0    0 -0.53175758706E+00 -0.38496691508E+02  0.17732655802E+02  0.42387925982E+02  0.10566000000E+00 0.  1.
         22    1    1    0    0    0 -0.29919890149E+02  0.79426349713E+00  0.28136212161E+01  0.30062387553E+02  0.00000000000E+00 0.  1.
</event>
<event>
 5    1  0.1250806E-009  0.9118800E+02  0.7561462E-02  0.1125453E+00
         25   -1    0    0    0    0  0.00000000000E+00  0.00000000000E+00  0.99999998245E-14  0.12509000000E+03  0.12509000000E+03 0.  0.
        -13    1    3    3    0    0 -0.30137309566E+02 -0.68496793902E+01 -0.33279240218E+02  0.45416896957E+02  0.10566000000E+00 0.  1.
         23    2    1    0    0    0 -0.25369377966E+02 -0.11272699719E+02  0.14591662986E+02  0.93727670271E+02  0.88324857477E+02 0.  0.
         13    1    3    3    0    0  0.47679315998E+01 -0.44230203286E+01  0.47870903204E+02  0.48310773314E+02  0.10566000000E+00 0. -1.
         22    1    1    0    0    0  0.25369377966E+02  0.11272699719E+02 -0.14591662986E+02  0.31362329729E+02  0.00000000000E+00 0. -1.
</event>
<event>
 5    1  0.1250806E-009  0.9118800E+02  0.7561462E-02  0.1125453E+00
         25   -1    0    0    0    0  0.00000000000E+00  0.00000000000E+00  0.99999998245E-14  0.12509000000E+03  0.12509000000E+03 0.  0.
        -13    1    3    3    0    0 -0.59431292961E+01  0.59869037608E+01  0.33693823382E+02  0.34733970412E+02  0.10566000000E+00 0.  1.
         23    2    1    0    0    0  0.18264313192E+02 -0.64103503458E+01 -0.21436171063E+02  0.96207701654E+02  0.91770009806E+02 0.  0.
         13    1    3    3    0    0  0.24207442488E+02 -0.12397254107E+02 -0.55129994445E+02  0.61473731241E+02  0.10566000000E+00 0. -1.
         22    1    1    0    0    0 -0.18264313192E+02  0.64103503458E+01  0.21436171063E+02  0.28882298346E+02  0.00000000000E+00 0. -1.
</event>
<event>
 5    1  0.1250806E-009  0.9118800E+02  0.7561462E-02  0.1125453E+00
         25   -1    0    0    0    0  0.00000000000E+00  0.00000000000E+00  0.99999998245E-14  0.12509000000E+03  0.12509000000E+03 0.  0.
        -13    1    3    3    0    0  0.72746632625E+01 -0.31113861105E+02  0.27633633667E+02  0.42244786094E+02  0.10566000000E+00 0.  1.
         23    2    1    0    0    0  0.33359060648E+02  0.15609802207E+01  0.12743334653E+01  0.91670132969E+02  0.85361149045E+02 0.  0.
         13    1    3    3    0    0  0.26084397385E+02  0.32674841326E+02 -0.26359300202E+02  0.49425346876E+02  0.10566000000E+00 0. -1.
         22    1    1    0    0    0 -0.33359060648E+02 -0.15609802207E+01 -0.12743334653E+01  0.33419867031E+02  0.00000000000E+00 0.  1.
</event>
<event>
 5    1  0.1250806E-009  0.9118800E+02  0.7561462E-02  0.1125453E+00
         25   -1    0    0    0    0  0.00000000000E+00  0.00000000000E+00  0.99999998245E-14  0.12509000000E+03  0.12509000000E+03 0.  0.
        -13    1    3    3    0    0 -0.17095832920E+02 -0.29057596628E+02  0.21479666650E+02  0.39974975528E+02  0.10566000000E+00 0.  1.
         23    2    1    0    0    0 -0.11275493381E+02  0.25295076271E+02  0.69259384646E+01  0.96542736415E+02  0.92225558802E+02 0.  0.
         13    1    3    3    0    0  0.58203395390E+01  0.54352672900E+02 -0.14553728186E+02  0.56567760887E+02  0.10566000000E+00 0. -1.
         22    1    1    0    0    0  0.11275493381E+02 -0.25295076271E+02 -0.69259384646E+01  0.28547263585E+02  0.00000000000E+00 0. -1.
</event>
<event>
 5    1  0.1250806E-009  0.9118800E+02  0.7561462E-02  0.1125453E+00
         25   -1    0    0    0    0  0.00000000000E+00  0.00000000000E+00  0.99999998245E-14  0.12509000000E+03  0.12509000000E+03 0.  0.
        -13    1    3    3    0    0 -0.31600887812E+02 -0.40755334710E+02  0.16621712195E+01  0.51598327444E+02  0.10566000000E+00 0.  1.
         23    2    1    0    0    0 -0.70184801957E+01 -0.66998937830E+01  0.24023521653E+02  0.99180981617E+02  0.95737087280E+02 0.  0.
         13    1    3    3    0    0  0.24582407616E+02  0.34055440927E+02  0.22361350433E+02  0.47582654173E+02  0.10566000000E+00 0. -1.
         22    1    1    0    0    0  0.70184801957E+01  0.66998937830E+01 -0.24023521653E+02  0.25909018383E+02  0.00000000000E+00 0.  1.
</event>
<event>
 5    1  0.1250806E-009  0.9118800E+02  0.7561462E-02  0.1125453E+00
         25   -1    0    0    0    0  0.00000000000E+00  0.00000000000E+00  0.99999998245E-14  0.12509000000E+03  0.12509000000E+03 0.  0.
        -13    1    3    3    0    0 -0.69989982943E+01  0.38059708480E+02  0.13107401558E+02  0.40857588357E+02  0.10566000000E+00 0.  1.
         23    2    1    0    0    0 -0.26972071838E+02 -0.10901238361E+02 -0.22234339476E+01  0.95913411516E+02  0.91367987792E+02 0.  0.
         13    1    3    3    0    0 -0.19973073543E+02 -0.48960946842E+02 -0.15330835506E+02  0.55055823159E+02  0.10566000000E+00 0. -1.
         22    1    1    0    0    0  0.26972071838E+02  0.10901238361E+02  0.22234339476E+01  0.29176588484E+02  0.00000000000E+00 0. -1.
</event>
<event>
 5    1  0.1250806E-009  0.9118800E+02  0.7561462E-02  0.1125453E+00
         25   -1    0    0    0    0  0.00000000000E+00  0.00000000000E+00  0.99999998245E-14  0.12509000000E+03  0.12509000000E+03 0.  0.
        -13    1    3    3    0    0  0.12531632059E+02  0.11511015294E+02 -0.37696346737E+02  0.41359049753E+02  0.10566000000E+00 0. -1.
         23    2    1    0    0    0 -0.27458107031E+02 -0.55981708506E+01 -0.31785947019E+01  0.96887329508E+02  0.92691768763E+02 0.  0.
         13    1    3    3    0    0 -0.39989739090E+02 -0.17109186145E+02  0.34517752035E+02  0.55528279755E+02  0.10566000000E+00 0.  1.
         22    1    1    0    0    0  0.27458107031E+02  0.55981708506E+01  0.31785947019E+01  0.28202670492E+02  0.00000000000E+00 0.  1.
</event>
<event>
 5    1  0.1250806E-009  0.9118800E+02  0.7561462E-02  0.1125453E+00
         25   -1    0    0    0    0  0.00000000000E+00  0.00000000000E+00  0.99999998245E-14  0.12509000000E+03  0.12509000000E+03 0.  0.
        -13    1    3    3    0    0 -0.69819211473E+01 -0.29893280879E+02  0.20102468095E+02  0.36694357226E+02  0.10566000000E+00 0.  1.
         23    2    1    0    0    0  0.18228065647E+02  0.64806337215E+01 -0.20605928517E+02  0.96825795063E+02  0.92608689165E+02 0.  0.
         13    1    3    3    0    0  0.25209986795E+02  0.36373914601E+02 -0.40708396613E+02  0.60131437837E+02  0.10566000000E+00 0. -1.
         22    1    1    0    0    0 -0.18228065647E+02 -0.64806337215E+01  0.20605928517E+02  0.28264204937E+02  0.00000000000E+00 0. -1.
</event>
<event>
 5    1  0.1250806E-009  0.9118800E+02  0.7561462E-02  0.1125453E+00
         25   -1    0    0    0    0  0.00000000000E+00  0.00000000000E+00  0.99999998245E-14  0.12509000000E+03  0.12509000000E+03 0.  0.
        -13    1    3    3    0    0 -0.38497829962E+01  0.24775901280E+01  0.42131860796E+02  0.42379996934E+02  0.10566000000E+00 0. -1.
         23    2    1    0    0    0 -0.30759555797E+02 -0.83576832424E+01  0.38945348667E+00  0.93212848057E+02  0.87592706470E+02 0.  0.
         13    1    3    3    0    0 -0.26909772801E+02 -0.10835273370E+02 -0.41742407310E+02  0.50832851122E+02  0.10566000000E+00 0.  1.
         22    1    1    0    0    0  0.30759555797E+02  0.83576832424E+01 -0.38945348667E+00  0.31877151943E+02  0.00000000000E+00 0.  1.
</event>
<event>
 5    1  0.1250806E-009  0.9118800E+02  0.7561462E-02  0.1125453E+00
         25   -1    0    0    0    0  0.00000000000E+00  0.00000000000E+00  0.99999998245E-14  0.12509000000E+03  0.12509000000E+03 0.  0.
        -13    1    3    3    0    0  0.33610644495E+02 -0.14757000443E+02  0.25838108668E+02  0.44889458774E+02  0.10566000000E+00 0.  1.
         23    2    1    0    0    0  0.20377278245E+02 -0.15960883830E+02 -0.19850051265E+02  0.92470867324E+02  0.86526605660E+02 0.  0.
         13    1    3    3    0    0 -0.13233366249E+02 -0.12038833878E+01 -0.45688159933E+02  0.47581408550E+02  0.10566000000E+00 0. -1.
         22    1    1    0    0    0 -0.20377278245E+02  0.15960883830E+02  0.19850051265E+02  0.32619132676E+02  0.00000000000E+00 0. -1.
</event>
<event>
 5    1  0.1250806E-009  0.9118800E+02  0.7561462E-02  0.1125453E+00
         25   -1    0    0    0    0  0.00000000000E+00  0.00000000000E+00  0.99999998245E-14  0.12509000000E+03  0.12509000000E+03 0.  0.
        -13    1    3    3    0    0  0.40607194703E+02 -0.37454291455E+02  0.16442210793E+02  0.57637883981E+02  0.10566000000E+00 0.  1.
         23    2    1    0    0    0  0.27219817328E+02 -0.31227340181E+01  0.13336789264E+02  0.94618047798E+02  0.89576978617E+02 0.  0.
         13    1    3    3    0    0 -0.13387377376E+02  0.34331557437E+02 -0.31054215287E+01  0.36980163817E+02  0.10566000000E+00 0. -1.
         22    1    1    0    0    0 -0.27219817328E+02  0.31227340181E+01 -0.13336789264E+02  0.30471952202E+02  0.00000000000E+00 0.  1.
</event>
<event>
 5    1  0.1250806E-009  0.9118800E+02  0.7561462E-02  0.1125453E+00
         25   -1    0    0    0    0  0.00000000000E+00  0.00000000000E+00  0.99999998245E-14  0.12509000000E+03  0.12509000000E+03 0.  0.
        -13    1    3    3    0    0  0.38701545538E+02 -0.21431732172E+02 -0.25685205057E+02  0.51155348634E+02  0.10566000000E+00 0. -1.
         23    2    1    0    0    0  0.36321874879E+00 -0.43108837342E+01 -0.31278357388E+02  0.93513881059E+02  0.88021557947E+02 0.  0.
         13    1    3    3    0    0 -0.38338326789E+02  0.17120848438E+02 -0.55931523310E+01  0.42358532426E+02  0.10566000000E+00 0.  1.
         22    1    1    0    0    0 -0.36321874879E+00  0.43108837342E+01  0.31278357388E+02  0.31576118941E+02  0.00000000000E+00 0. -1.
</event>
<event>
 5    1  0.1250806E-009  0.9118800E+02  0.7561462E-02  0.1125453E+00
         25   -1    0    0    0    0  0.00000000000E+00  0.00000000000E+00  0.99999998245E-14  0.12509000000E+03  0.12509000000E+03 0.  0.
        -13    1    3    3    0    0  0.35693848073E+02 -0.35432364991E+02  0.10909402430E+02  0.51463866008E+02  0.10566000000E+00 0.  1.
         23    2    1    0    0    0 -0.46237719667E+01 -0.31550055697E+02  0.88263717029E+00  0.93190715838E+02  0.87561094034E+02 0.  0.
         13    1    3    3    0    0 -0.40317620040E+02  0.38823092944E+01 -0.10026765260E+02  0.41726849830E+02  0.10566000000E+00 0. -1.
         22    1    1    0    0    0  0.46237719667E+01  0.31550055697E+02 -0.88263717029E+00  0.31899284162E+02  0.00000000000E+00 0.  1.
</event>
<event>
 5    1  0.1250806E-009  0.9118800E+02  0.7561462E-02  0.1125453E+00
         25   -1    0    0    0    0  0.00000000000E+00  0.00000000000E+00  0.99999998245E-14  0.12509000000E+03  0.12509000000E+03 0.  0.
        -13    1    3    3    0    0 -0.58743139482E+01  0.39986339777E+02  0.29343495832E+02  0.49944637798E+02  0.10566000000E+00 0. -1.
         23    2    1    0    0    0  0.22609930088E+02  0.80751938423E+01  0.20264541594E+02  0.93672340313E+02  0.88246461683E+02 0.  0.
         13    1    3    3    0    0  0.28484244036E+02 -0.31911145935E+02 -0.90789542374E+01  0.43727702515E+02  0.10566000000E+00 0.  1.
         22    1    1    0    0    0 -0.22609930088E+02 -0.80751938423E+01 -0.20264541594E+02  0.31417659687E+02  0.00000000000E+00 0. -1.
</event>
<event>
 5    1  0.1250806E-009  0.9118800E+02  0.7561462E-02  0.1125453E+00
         25   -1    0    0    0    0  0.00000000000E+00  0.00000000000E+00  0.99999998245E-14  0.12509000000E+03  0.12509000000E+03 0.  0.
        -13    1    3    3    0    0 -0.57364422415E+02 -0.15536382661E+02  0.12857465483E+02  0.60806099430E+02  0.10566000000E+00 0. -1.
         23    2    1    0    0    0 -0.24211915895E+02 -0.56697726819E+01  0.15971581238E+02  0.95535734643E+02  0.90849446850E+02 0.  0.
         13    1    3    3    0    0  0.33152506520E+02  0.98666099789E+01  0.31141157545E+01  0.34729635213E+02  0.10566000000E+00 0.  1.
         22    1    1    0    0    0  0.24211915895E+02  0.56697726819E+01 -0.15971581238E+02  0.29554265357E+02  0.00000000000E+00 0. -1.
</event>
<event>
 5    1  0.1250806E-009  0.9118800E+02  0.7561462E-02  0.1125453E+00
         25   -1    0    0    0    0  0.00000000000E+00  0.00000000000E+00  0.99999998245E-14  0.12509000000E+03  0.12509000000E+03 0.  0.
        -13    1    3    3    0    0 -0.27749053922E+02  0.44981016956E+02 -0.11111961958E+02  0.54007302678E+02  0.10566000000E+00 0. -1.
         23    2    1    0    0    0 -0.12957104139E+02  0.19013464525E+02  0.18113098927E+02  0.95807193891E+02  0.91222451555E+02 0.  0.
         13    1    3    3    0    0  0.14791949784E+02 -0.25967552432E+02  0.29225060884E+02  0.41799891213E+02  0.10566000000E+00 0.  1.
         22    1    1    0    0    0  0.12957104139E+02 -0.19013464525E+02 -0.18113098927E+02  0.29282806109E+02  0.00000000000E+00 0.  1.
</event>
<event>
 5    1  0.1250806E-009  0.9118800E+02  0.7561462E-02  0.1125453E+00
         25   -1    0    0    0    0  0.00000000000E+00  0.00000000000E+00  0.99999998245E-14  0.12509000000E+03  0.12509000000E+03 0.  0.
        -13    1    3    3    0    0 -0.39252944309E+02 -0.15853664205E+02 -0.30903854644E+02  0.52413659494E+02  0.10566000000E+00 0.  1.
         23    2    1    0    0    0 -0.22954274495E+02  0.17070545807E+02 -0.17693128250E+02  0.91454467612E+02  0.85044521324E+02 0.  0.
         13    1    3    3    0    0  0.16298669814E+02  0.32924210012E+02  0.13210726394E+02  0.39040808118E+02  0.10566000000E+00 0. -1.
         22    1    1    0    0    0  0.22954274495E+02 -0.17070545807E+02  0.17693128250E+02  0.33635532388E+02  0.00000000000E+00 0.  1.
</event>
<event>
 5    1  0.1250806E-009  0.9118800E+02  0.7561462E-02  0.1125453E+00
         25   -1    0    0    0    0  0.00000000000E+00  0.00000000000E+00  0.99999998245E-14  0.12509000000E+03  0.12509000000E+03 0.  0.
        -13    1    3    3    0    0  0.18965036392E+02  0.37717378950E+02  0.66357634832E+01  0.42735439640E+02  0.10566000000E+00 0. -1.
         23    2    1    0    0    0 -0.83811649466E+01  0.18072332709E+02  0.33704710221E+02  0.85938235973E+02  0.76501763219E+02 0.  0.
         13    1    3    3    0    0 -0.27346201338E+02 -0.19645046241E+02  0.27068946737E+02  0.43202796333E+02  0.10566000000E+00 0.  1.
         22    1    1    0    0    0  0.83811649466E+01 -0.18072332709E+02 -0.33704710221E+02  0.39151764027E+02  0.00000000000E+00 0. -1.
</event>
<event>
 5    1  0.1250806E-009  0.9118800E+02  0.7561462E-02  0.1125453E+00
         25   -1    0    0    0    0  0.00000000000E+00  0.00000000000E+00  0.99999998245E-14  0.12509000000E+03  0.12509000000E+03 0.  0.
        -13    1    3    3    0    0  0.17467748256E+02 -0.17926393386E+02 -0.16499552744E+02  0.29978729356E+02  0.10566000000E+00 0. -1.
         23    2    1    0    0    0 -0.24702663342E+02 -0.30980703948E+02  0.13361098838E+02  0.83274398181E+02  0.72014448807E+02 0.  0.
         13    1    3    3    0    0 -0.42170411598E+02 -0.13054310562E+02  0.29860651582E+02  0.53295668825E+02  0.10566000000E+00 0.  1.
         22    1    1    0    0    0  0.24702663342E+02  0.30980703948E+02 -0.13361098838E+02  0.41815601819E+02  0.00000000000E+00 0.  1.
</event>
<event>
 5    1  0.1250806E-009  0.9118800E+02  0.7561462E-02  0.1125453E+00
         25   -1    0    0    0    0  0.00000000000E+00  0.00000000000E+00  0.99999998245E-14  0.12509000000E+03  0.12509000000E+03 0.  0.
        -13    1    3    3    0    0  0.55537352849E+02 -0.12363323543E+00 -0.16648168458E+02  0.57979181813E+02  0.10566000000E+00 0.  1.
         23    2    1    0    0    0  0.19203097536E+02 -0.98741790889E+01 -0.19881866908E+02  0.95737879133E+02  0.91127353201E+02 0.  0.
         13    1    3    3    0    0 -0.36334255313E+02 -0.97505458535E+01 -0.32336984501E+01  0.37758697320E+02  0.10566000000E+00 0. -1.
         22    1    1    0    0    0 -0.19203097536E+02  0.98741790889E+01  0.19881866908E+02  0.29352120867E+02  0.00000000000E+00 0.  1.
</event>
<event>
 5    1  0.1250806E-009  0.9118800E+02  0.7561462E-02  0.1125453E+00
         25   -1    0    0    0    0  0.00000000000E+00  0.00000000000E+00  0.99999998245E-14  0.12509000000E+03  0.12509000000E+03 0.  0.
        -13    1    3    3    0    0 -0.24636499927E+02  0.35693144280E+02  0.31038541984E+02  0.53332541002E+02  0.10566000000E+00 0.  1.
         23    2    1    0    0    0 -0.24609434270E+02  0.24981792775E+01 -0.21347898770E+01  0.10026214301E+03  0.97139460770E+02 0.  0.
         13    1    3    3    0    0  0.27065656189E-01 -0.33194965002E+02 -0.33173331861E+02  0.46929602010E+02  0.10566000000E+00 0. -1.
         22    1    1    0    0    0  0.24609434270E+02 -0.24981792775E+01  0.21347898770E+01  0.24827856988E+02  0.00000000000E+00 0.  1.
</event>
<event>
 5    1  0.1250806E-009  0.9118800E+02  0.7561462E-02  0.1125453E+00
         25   -1    0    0    0    0  0.00000000000E+00  0.00000000000E+00  0.99999998245E-14  0.12509000000E+03  0.12509000000E+03 0.  0.
        -13    1    3    3    0    0 -0.25500615262E+02 -0.31944876286E+02  0.43225590755E+02  0.59491338528E+02  0.10566000000E+00 0.  1.
         23    2    1    0    0    0 -0.87061401184E+01 -0.36506054311E+01  0.27606987643E+02  0.95913475832E+02  0.91368075845E+02 0.  0.
         13    1    3    3    0    0  0.16794475144E+02  0.28294270855E+02 -0.15618603112E+02  0.36422137304E+02  0.10566000000E+00 0. -1.
         22    1    1    0    0    0  0.87061401184E+01  0.36506054311E+01 -0.27606987643E+02  0.29176524168E+02  0.00000000000E+00 0.  1.
</event>
<event>
 5    1  0.1250806E-009  0.9118800E+02  0.7561462E-02  0.1125453E+00
         25   -1    0    0    0    0  0.00000000000E+00  0.00000000000E+00  0.99999998245E-14  0.12509000000E+03  0.12509000000E+03 0.  0.
        -13    1    3    3    0    0  0.31575331426E+02 -0.21547919700E+02  0.11277934952E+02  0.39856208787E+02  0.10566000000E+00 0. -1.
         23    2    1    0    0    0 -0.85323961860E+01 -0.74663068561E+00 -0.25548226526E+02  0.98144293094E+02  0.94372830551E+02 0.  0.
         13    1    3    3    0    0 -0.40107727612E+02  0.20801289015E+02 -0.36826161478E+02  0.58288084306E+02  0.10566000000E+00 0.  1.
         22    1    1    0    0    0  0.85323961860E+01  0.74663068561E+00  0.25548226526E+02  0.26945706906E+02  0.00000000000E+00 0.  1.
</event>
<event>
 5    1  0.1250806E-009  0.9118800E+02  0.7561462E-02  0.1125453E+00
         25   -1    0    0    0    0  0.00000000000E+00  0.00000000000E+00  0.99999998245E-14  0.12509000000E+03  0.12509000000E+03 0.  0.
        -13    1    3    3    0    0 -0.15255486462E+02  0.62463013411E+01  0.34695245812E+02  0.38412464040E+02  0.10566000000E+00 0. -1.
         23    2    1    0    0    0  0.21652619077E+02 -0.18392577942E+02 -0.28451588197E+01  0.96537981421E+02  0.92219109147E+02 0.  0.
         13    1    3    3    0    0  0.36908105539E+02 -0.24638879284E+02 -0.37540404631E+02  0.58125517381E+02  0.10566000000E+00 0.  1.
         22    1    1    0    0    0 -0.21652619077E+02  0.18392577942E+02  0.28451588197E+01  0.28552018579E+02  0.00000000000E+00 0.  1.
</event>
<event>
 5    1  0.1250806E-009  0.9118800E+02  0.7561462E-02  0.1125453E+00
         25   -1    0    0    0    0  0.00000000000E+00  0.00000000000E+00  0.99999998245E-14  0.12509000000E+03  0.12509000000E+03 0.  0.
        -13    1    3    3    0    0  0.15302729143E+02 -0.26863562313E+02  0.10834018714E+02  0.32759908805E+02  0.10566000000E+00 0. -1.
         23    2    1    0    0    0 -0.54170314825E+01  0.30315989160E+02  0.18441429303E+01  0.94238674389E+02  0.89045625713E+02 0.  0.
         13    1    3    3    0    0 -0.20719760626E+02  0.57179551473E+02 -0.89898757836E+01  0.61478765584E+02  0.10566000000E+00 0.  1.
         22    1    1    0    0    0  0.54170314825E+01 -0.30315989160E+02 -0.18441429303E+01  0.30851325611E+02  0.00000000000E+00 0.  1.
</event>
<event>
 5    1  0.1250806E-009  0.9118800E+02  0.7561462E-02  0.1125453E+00
         25   -1    0    0    0    0  0.00000000000E+00  0.00000000000E+00  0.99999998245E-14  0.12509000000E+03  0.12509000000E+03 0.  0.
        -13    1    3    3    0    0 -0.19704519708E+01  0.11372530804E+02 -0.35515314310E+02  0.37343886413E+02  0.10566000000E+00 0.  1.
         23    2    1    0    0    0 -0.99707765933E+01 -0.26642068401E+02  0.78650405552E+01  0.95576019287E+02  0.90904897587E+02 0.  0.
         13    1    3    3    0    0 -0.80003246225E+01 -0.38014599205E+02  0.43380354865E+02  0.58232132874E+02  0.10566000000E+00 0. -1.
         22    1    1    0    0    0  0.99707765933E+01  0.26642068401E+02 -0.78650405552E+01  0.29513980713E+02  0.00000000000E+00 0. -1.
</event>
<event>
 5    1  0.1250806E-009  0.9118800E+02  0.7561462E-02  0.1125453E+00
         25   -1    0    0    0    0  0.00000000000E+00  0.00000000000E+00  0.99999998245E-14  0.12509000000E+03  0.12509000000E+03 0.  0.
        -13    1    3    3    0    0  0.60337496288E+02 -0.55138194227E+01 -0.92272822173E+01  0.61287597147E+02  0.10566000000E+00 0.  1.
         23    2    1    0    0    0  0.31902738187E+02  0.47132867618E+01 -0.14686046471E+00  0.92840638085E+02  0.87059535584E+02 0.  0.
         13    1    3    3    0    0 -0.28434758101E+02  0.10227106184E+02  0.90804217526E+01  0.31553040938E+02  0.10566000000E+00 0. -1.
         22    1    1    0    0    0 -0.31902738187E+02 -0.47132867618E+01  0.14686046471E+00  0.32249361915E+02  0.00000000000E+00 0.  1.
</event>
<event>
 5    1  0.1250806E-009  0.9118800E+02  0.7561462E-02  0.1125453E+00
         25   -1    0    0    0    0  0.00000000000E+00  0.00000000000E+00  0.99999998245E-14  0.12509000000E+03  0.12509000000E+03 0.  0.
        -13    1    3    3    0    0 -0.32419768572E+02  0.37307161362E+02  0.23698133907E+02  0.54813122497E+02  0.10566000000E+00 0. -1.
         23    2    1    0    0    0 -0.21084636185E+01  0.28117165723E+02 -0.36482150046E+01  0.96658853350E+02  0.92382919586E+02 0.  0.
         13    1    3    3    0    0  0.30311304953E+02 -0.91899956394E+01 -0.27346348912E+02  0.41845730853E+02  0.10566000000E+00 0.  1.
         22    1    1    0    0    0  0.21084636185E+01 -0.28117165723E+02  0.36482150046E+01  0.28431146650E+02  0.00000000000E+00 0. -1.
</event>
<event>
 5    1  0.1250806E-009  0.9118800E+02  0.7561462E-02  0.1125453E+00
         25   -1    0    0    0    0  0.00000000000E+00  0.00000000000E+00  0.99999998245E-14  0.12509000000E+03  0.12509000000E+03 0.  0.
        -13    1    3    3    0    0 -0.21562732116E+02  0.45819641254E+02  0.28699193411E+02  0.58206922333E+02  0.10566000000E+00 0.  1.
         23    2    1    0    0    0 -0.26142983628E+02  0.16986956543E+02  0.13585366277E+02  0.91081553072E+02  0.84494229670E+02 0.  0.
         13    1    3    3    0    0 -0.45802515125E+01 -0.28832684711E+02 -0.15113827134E+02  0.32874630739E+02  0.10566000000E+00 0. -1.
         22    1    1    0    0    0  0.26142983628E+02 -0.16986956543E+02 -0.13585366277E+02  0.34008446928E+02  0.00000000000E+00 0.  1.
</event>
<event>
 5    1  0.1250806E-009  0.9118800E+02  0.7561462E-02  0.1125453E+00
         25   -1    0    0    0    0  0.00000000000E+00  0.00000000000E+00  0.99999998245E-14  0.12509000000E+03  0.12509000000E+03 0.  0.
        -13    1    3    3    0    0 -0.18113278383E+02  0.12837925958E+02  0.57627893473E+02  0.61756687628E+02  0.10566000000E+00 0.  1.
         23    2    1    0    0    0 -0.37891121967E+01  0.14808164672E+01  0.29551232060E+02  0.95260056908E+02  0.90469071716E+02 0.  0.
         13    1    3    3    0    0  0.14324166186E+02 -0.11357109491E+02 -0.28076661413E+02  0.33503369279E+02  0.10566000000E+00 0. -1.
         22    1    1    0    0    0  0.37891121967E+01 -0.14808164672E+01 -0.29551232060E+02  0.29829943092E+02  0.00000000000E+00 0.  1.
</event>
<event>
 5    1  0.1250806E-009  0.9118800E+02  0.7561462E-02  0.1125453E+00
         25   -1    0    0    0    0  0.00000000000E+00  0.00000000000E+00  0.99999998245E-14  0.12509000000E+03  0.12509000000E+03 0.  0.
        -13    1    3    3    0    0  0.27517947984E+02 -0.29254922065E+02  0.43378453080E+02  0.59116742822E+02  0.10566000000E+00 0. -1.
         23    2    1    0    0    0  0.22126100477E+02 -0.16242655938E+02  0.91056432152E+01  0.96171131892E+02  0.91720148696E+02 0.  0.
         13    1    3    3    0    0 -0.53918475067E+01  0.13012266127E+02 -0.34272809865E+02  0.37054389070E+02  0.10566000000E+00 0.  1.
         22    1    1    0    0    0 -0.22126100477E+02  0.16242655938E+02 -0.91056432152E+01  0.28918868108E+02  0.00000000000E+00 0. -1.
</event>
<event>
 5    1  0.1250806E-009  0.9118800E+02  0.7561462E-02  0.1125453E+00
         25   -1    0    0    0    0  0.00000000000E+00  0.00000000000E+00  0.99999998245E-14  0.12509000000E+03  0.12509000000E+03 0.  0.
        -13    1    3    3    0    0  0.17707931187E+02 -0.43412116734E+02  0.25357379934E+02  0.53302819695E+02  0.10566000000E+00 0.  1.
         23    2    1    0    0    0  0.81939725648E+01 -0.23597758779E+02 -0.12559812691E+02  0.97130309361E+02  0.93019098555E+02 0.  0.
         13    1    3    3    0    0 -0.95139586222E+01  0.19814357955E+02 -0.37917192625E+02  0.43827489666E+02  0.10566000000E+00 0. -1.
         22    1    1    0    0    0 -0.81939725648E+01  0.23597758779E+02  0.12559812691E+02  0.27959690639E+02  0.00000000000E+00 0.  1.
</event>
<event>
 5    1  0.1250806E-009  0.9118800E+02  0.7561462E-02  0.1125453E+00
         25   -1    0    0    0    0  0.00000000000E+00  0.00000000000E+00  0.99999998245E-14  0.12509000000E+03  0.12509000000E+03 0.  0.
        -13    1    3    3    0    0  0.94068969695E+01 -0.39355562671E+02  0.20367293721E+01  0.40515545835E+02  0.10566000000E+00 0.  1.
         23    2    1    0    0    0  0.98146159156E+01  0.81284948933E+01 -0.26336468389E+02  0.95832373951E+02  0.91256973515E+02 0.  0.
         13    1    3    3    0    0  0.40771894606E+00  0.47484057565E+02 -0.28373197761E+02  0.55316828116E+02  0.10566000000E+00 0. -1.
         22    1    1    0    0    0 -0.98146159156E+01 -0.81284948933E+01  0.26336468389E+02  0.29257626049E+02  0.00000000000E+00 0. -1.
</event>
<event>
 5    1  0.1250806E-009  0.9118800E+02  0.7561462E-02  0.1125453E+00
         25   -1    0    0    0    0  0.00000000000E+00  0.00000000000E+00  0.99999998245E-14  0.12509000000E+03  0.12509000000E+03 0.  0.
        -13    1    3    3    0    0 -0.33222795323E+02  0.46442381311E+02  0.16998584287E+02  0.59578619846E+02  0.10566000000E+00 0. -1.
         23    2    1    0    0    0 -0.16382994850E+02  0.22104481053E+02 -0.58413620824E+01  0.96962929163E+02  0.92793736416E+02 0.  0.
         13    1    3    3    0    0  0.16839800473E+02 -0.24337900258E+02 -0.22839946369E+02  0.37384309317E+02  0.10566000000E+00 0.  1.
         22    1    1    0    0    0  0.16382994850E+02 -0.22104481053E+02  0.58413620824E+01  0.28127070837E+02  0.00000000000E+00 0. -1.
</event>
<event>
 5    1  0.1250806E-009  0.9118800E+02  0.7561462E-02  0.1125453E+00
         25   -1    0    0    0    0  0.00000000000E+00  0.00000000000E+00  0.99999998245E-14  0.12509000000E+03  0.12509000000E+03 0.  0.
        -13    1    3    3    0    0  0.18625470658E+02  0.38130760107E+02 -0.80884250696E+01  0.43200657492E+02  0.10566000000E+00 0.  1.
         23    2    1    0    0    0  0.16927744958E+02 -0.56599935542E+01  0.22297671062E+02  0.96528308677E+02  0.92205987685E+02 0.  0.
         13    1    3    3    0    0 -0.16977257004E+01 -0.43790753661E+02  0.30386096132E+02  0.53327651185E+02  0.10566000000E+00 0. -1.
         22    1    1    0    0    0 -0.16927744958E+02  0.56599935542E+01 -0.22297671062E+02  0.28561691323E+02  0.00000000000E+00 0. -1.
</event>
<event>
 5    1  0.1250806E-009  0.9118800E+02  0.7561462E-02  0.1125453E+00
         25   -1    0    0    0    0  0.00000000000E+00  0.00000000000E+00  0.99999998245E-14  0.12509000000E+03  0.12509000000E+03 0.  0.
        -13    1    3    3    0    0 -0.31603961350E+02 -0.25531077907E+02  0.33354501107E+00  0.40629653314E+02  0.10566000000E+00 0.  1.
         23    2    1    0    0    0  0.62901064779E+01  0.75810217233E+00 -0.29077838160E+02  0.95329945725E+02  0.90565654204E+02 0.  0.
         13    1    3    3    0    0  0.37894067828E+02  0.26289180079E+02 -0.29411383171E+02  0.54700292411E+02  0.10566000000E+00 0. -1.
         22    1    1    0    0    0 -0.62901064779E+01 -0.75810217233E+00  0.29077838160E+02  0.29760054275E+02  0.00000000000E+00 0. -1.
</event>
<event>
 5    1  0.1250806E-009  0.9118800E+02  0.7561462E-02  0.1125453E+00
         25   -1    0    0    0    0  0.00000000000E+00  0.00000000000E+00  0.99999998245E-14  0.12509000000E+03  0.12509000000E+03 0.  0.
        -13    1    3    3    0    0  0.17264524266E+02  0.15847451360E+02  0.51409312277E+02  0.56498974022E+02  0.10566000000E+00 0.  1.
         23    2    1    0    0    0  0.18797305599E+02  0.18710369133E+02  0.12107091289E+02  0.95935270189E+02  0.91397909145E+02 0.  0.
         13    1    3    3    0    0  0.15327813333E+01  0.28629177729E+01 -0.39302220988E+02  0.39436296168E+02  0.10566000000E+00 0. -1.
         22    1    1    0    0    0 -0.18797305599E+02 -0.18710369133E+02 -0.12107091289E+02  0.29154729811E+02  0.00000000000E+00 0.  1.
</event>
<event>
 5    1  0.1250806E-009  0.9118800E+02  0.7561462E-02  0.1125453E+00
         25   -1    0    0    0    0  0.00000000000E+00  0.00000000000E+00  0.99999998245E-14  0.12509000000E+03  0.12509000000E+03 0.  0.
        -13    1    3    3    0    0 -0.10654286122E+02 -0.41693696707E+02  0.12621515324E+02  0.44846315021E+02  0.10566000000E+00 0. -1.
         23    2    1    0    0    0 -0.54006071593E+01  0.13744365337E+02  0.19142503664E+02  0.10091336701E+03  0.97974476567E+02 0.  0.
         13    1    3    3    0    0  0.52536789624E+01  0.55438062044E+02  0.65209883408E+01  0.56067051989E+02  0.10566000000E+00 0.  1.
         22    1    1    0    0    0  0.54006071593E+01 -0.13744365337E+02 -0.19142503664E+02  0.24176632990E+02  0.00000000000E+00 0.  1.
</event>
<event>
 5    1  0.1250806E-009  0.9118800E+02  0.7561462E-02  0.1125453E+00
         25   -1    0    0    0    0  0.00000000000E+00  0.00000000000E+00  0.99999998245E-14  0.12509000000E+03  0.12509000000E+03 0.  0.
        -13    1    3    3    0    0 -0.12248316693E+02  0.26913451629E+02 -0.33025311182E+02  0.44328743306E+02  0.10566000000E+00 0.  1.
         23    2    1    0    0    0  0.18698059500E+02  0.23393654516E+02  0.62924277093E+01  0.94488118568E+02  0.89395354484E+02 0.  0.
         13    1    3    3    0    0  0.30946376193E+02 -0.35197971125E+01  0.39317738891E+02  0.50159375262E+02  0.10566000000E+00 0. -1.
         22    1    1    0    0    0 -0.18698059500E+02 -0.23393654516E+02 -0.62924277093E+01  0.30601881432E+02  0.00000000000E+00 0. -1.
</event>
<event>
 5    1  0.1250806E-009  0.9118800E+02  0.7561462E-02  0.1125453E+00
         25   -1    0    0    0    0  0.00000000000E+00  0.00000000000E+00  0.99999998245E-14  0.12509000000E+03  0.12509000000E+03 0.  0.
        -13    1    3    3    0    0  0.10629331690E+02 -0.36387136839E+02 -0.59352302731E+01  0.38369838962E+02  0.10566000000E+00 0. -1.
         23    2    1    0    0    0 -0.21981172128E+02  0.13468956783E+02 -0.83469303624E+01  0.97992842005E+02  0.94171870071E+02 0.  0.
         13    1    3    3    0    0 -0.32610503818E+02  0.49856093622E+02 -0.24117000892E+01  0.59623003043E+02  0.10566000000E+00 0.  1.
         22    1    1    0    0    0  0.21981172128E+02 -0.13468956783E+02  0.83469303624E+01  0.27097157995E+02  0.00000000000E+00 0.  1.
</event>
<event>
 5    1  0.1250806E-009  0.9118800E+02  0.7561462E-02  0.1125453E+00
         25   -1    0    0    0    0  0.00000000000E+00  0.00000000000E+00  0.99999998245E-14  0.12509000000E+03  0.12509000000E+03 0.  0.
        -13    1    3    3    0    0 -0.29759547132E+02 -0.39240446176E+01  0.99231902162E+01  0.31615022375E+02  0.10566000000E+00 0.  1.
         23    2    1    0    0    0  0.25723915188E+02  0.78505554982E+01  0.22861606840E+02  0.89791216713E+02  0.82561846499E+02 0.  0.
         13    1    3    3    0    0  0.55483462320E+02  0.11774600116E+02  0.12938416624E+02  0.58176194338E+02  0.10566000000E+00 0. -1.
         22    1    1    0    0    0 -0.25723915188E+02 -0.78505554982E+01 -0.22861606840E+02  0.35298783287E+02  0.00000000000E+00 0. -1.
</event>
<event>
 5    1  0.1250806E-009  0.9118800E+02  0.7561462E-02  0.1125453E+00
         25   -1    0    0    0    0  0.00000000000E+00  0.00000000000E+00  0.99999998245E-14  0.12509000000E+03  0.12509000000E+03 0.  0.
        -13    1    3    3    0    0  0.26985614305E+02 -0.29012617957E+02 -0.46481343939E+02  0.61077670867E+02  0.10566000000E+00 0.  1.
         23    2    1    0    0    0  0.70259819695E+01 -0.18917095161E+02 -0.13945869008E+02  0.10056025939E+03  0.97522600429E+02 0.  0.
         13    1    3    3    0    0 -0.19959632336E+02  0.10095522796E+02  0.32535474931E+02  0.39482588523E+02  0.10566000000E+00 0. -1.
         22    1    1    0    0    0 -0.70259819695E+01  0.18917095161E+02  0.13945869008E+02  0.24529740609E+02  0.00000000000E+00 0.  1.
</event>
<event>
 5    1  0.1250806E-009  0.9118800E+02  0.7561462E-02  0.1125453E+00
         25   -1    0    0    0    0  0.00000000000E+00  0.00000000000E+00  0.99999998245E-14  0.12509000000E+03  0.12509000000E+03 0.  0.
        -13    1    3    3    0    0  0.20473005549E+02  0.27320891588E+02 -0.13232291567E+02  0.36615294312E+02  0.10566000000E+00 0. -1.
         23    2    1    0    0    0 -0.18147087500E+02 -0.17136955914E+02 -0.15780079153E+02  0.95560304086E+02  0.90883270056E+02 0.  0.
         13    1    3    3    0    0 -0.38620093048E+02 -0.44457847503E+02 -0.25477875859E+01  0.58945009774E+02  0.10566000000E+00 0.  1.
         22    1    1    0    0    0  0.18147087500E+02  0.17136955914E+02  0.15780079153E+02  0.29529695914E+02  0.00000000000E+00 0.  1.
</event>
<event>
 5    1  0.1250806E-009  0.9118800E+02  0.7561462E-02  0.1125453E+00
         25   -1    0    0    0    0  0.00000000000E+00  0.00000000000E+00  0.99999998245E-14  0.12509000000E+03  0.12509000000E+03 0.  0.
        -13    1    3    3    0    0 -0.55424256821E+02 -0.25497990123E+02 -0.59847477600E+01  0.61301093907E+02  0.10566000000E+00 0. -1.
         23    2    1    0    0    0 -0.28721655723E+02 -0.42925564996E+01 -0.61746925619E+01  0.95400163743E+02  0.90662588013E+02 0.  0.
         13    1    3    3    0    0  0.26702601099E+02  0.21205433623E+02 -0.18994480183E+00  0.34099069835E+02  0.10566000000E+00 0.  1.
         22    1    1    0    0    0  0.28721655723E+02  0.42925564996E+01  0.61746925619E+01  0.29689836257E+02  0.00000000000E+00 0. -1.
</event>
<event>
 5    1  0.1250806E-009  0.9118800E+02  0.7561462E-02  0.1125453E+00
         25   -1    0    0    0    0  0.00000000000E+00  0.00000000000E+00  0.99999998245E-14  0.12509000000E+03  0.12509000000E+03 0.  0.
        -13    1    3    3    0    0  0.24040626760E+02  0.46147862542E+02 -0.17720407546E+02  0.54969090950E+02  0.10566000000E+00 0. -1.
         23    2    1    0    0    0  0.12814577543E+02  0.75608976497E+01 -0.25180063712E+02  0.95842501313E+02  0.91270854486E+02 0.  0.
         13    1    3    3    0    0 -0.11226049218E+02 -0.38586964892E+02 -0.74596561666E+01  0.40873410364E+02  0.10566000000E+00 0.  1.
         22    1    1    0    0    0 -0.12814577543E+02 -0.75608976497E+01  0.25180063712E+02  0.29247498687E+02  0.00000000000E+00 0. -1.
</event>
<event>
 5    1  0.1250806E-009  0.9118800E+02  0.7561462E-02  0.1125453E+00
         25   -1    0    0    0    0  0.00000000000E+00  0.00000000000E+00  0.99999998245E-14  0.12509000000E+03  0.12509000000E+03 0.  0.
        -13    1    3    3    0    0 -0.26299861447E+02  0.79299777565E+01  0.58883123183E+01  0.28093605062E+02  0.10566000000E+00 0. -1.
         23    2    1    0    0    0  0.27995026299E+02  0.22467563001E+02 -0.12259721472E+02  0.87158302764E+02  0.78471371120E+02 0.  0.
         13    1    3    3    0    0  0.54294887746E+02  0.14537585244E+02 -0.18148033790E+02  0.59064697702E+02  0.10566000000E+00 0.  1.
         22    1    1    0    0    0 -0.27995026299E+02 -0.22467563001E+02  0.12259721472E+02  0.37931697236E+02  0.00000000000E+00 0.  1.
</event>
<event>
 5    1  0.1250806E-009  0.9118800E+02  0.7561462E-02  0.1125453E+00
         25   -1    0    0    0    0  0.00000000000E+00  0.00000000000E+00  0.99999998245E-14  0.12509000000E+03  0.12509000000E+03 0.  0.
        -13    1    3    3    0    0 -0.10459539308E+01 -0.28826005512E+02  0.22160563962E+02  0.36374914056E+02  0.10566000000E+00 0. -1.
         23    2    1    0    0    0  0.22097858728E+02  0.19301661661E+02 -0.33503637770E+01  0.95558754840E+02  0.90881137680E+02 0.  0.
         13    1    3    3    0    0  0.23143812659E+02  0.48127667173E+02 -0.25510927739E+02  0.59183840785E+02  0.10566000000E+00 0.  1.
         22    1    1    0    0    0 -0.22097858728E+02 -0.19301661661E+02  0.33503637770E+01  0.29531245160E+02  0.00000000000E+00 0.  1.
</event>
<event>
 5    1  0.1250806E-009  0.9118800E+02  0.7561462E-02  0.1125453E+00
         25   -1    0    0    0    0  0.00000000000E+00  0.00000000000E+00  0.99999998245E-14  0.12509000000E+03  0.12509000000E+03 0.  0.
        -13    1    3    3    0    0  0.28278038569E+02  0.41827140576E+02  0.17464289909E+02  0.53424430180E+02  0.10566000000E+00 0.  1.
         23    2    1    0    0    0 -0.29845367975E+00  0.13255176906E+02  0.27058343987E+02  0.94957911311E+02  0.90050331215E+02 0.  0.
         13    1    3    3    0    0 -0.28576492248E+02 -0.28571963670E+02  0.95940540780E+01  0.41533481131E+02  0.10566000000E+00 0. -1.
         22    1    1    0    0    0  0.29845367975E+00 -0.13255176906E+02 -0.27058343987E+02  0.30132088689E+02  0.00000000000E+00 0.  1.
</event>
<event>
 5    1  0.1250806E-009  0.9118800E+02  0.7561462E-02  0.1125453E+00
         25   -1    0    0    0    0  0.00000000000E+00  0.00000000000E+00  0.99999998245E-14  0.12509000000E+03  0.12509000000E+03 0.  0.
        -13    1    3    3    0    0 -0.12974984458E+02  0.18384219240E+02 -0.14048507683E+02  0.26527372107E+02  0.10566000000E+00 0.  1.
         23    2    1    0    0    0  0.75607147966E+01 -0.36122397240E+02  0.50845997794E+01  0.87836206293E+02  0.79544666637E+02 0.  0.
         13    1    3    3    0    0  0.20535699254E+02 -0.54506616481E+02  0.19133107463E+02  0.61308834186E+02  0.10566000000E+00 0. -1.
         22    1    1    0    0    0 -0.75607147966E+01  0.36122397240E+02 -0.50845997794E+01  0.37253793707E+02  0.00000000000E+00 0. -1.
</event>
<event>
 5    1  0.1250806E-009  0.9118800E+02  0.7561462E-02  0.1125453E+00
         25   -1    0    0    0    0  0.00000000000E+00  0.00000000000E+00  0.99999998245E-14  0.12509000000E+03  0.12509000000E+03 0.  0.
        -13    1    3    3    0    0  0.29093410296E+02 -0.24823086234E+01 -0.31552125618E+02  0.42989954336E+02  0.10566000000E+00 0.  1.
         23    2    1    0    0    0 -0.19317496064E+02  0.72151167745E+01 -0.24823078433E+02  0.92819134081E+02  0.87028632440E+02 0.  0.
         13    1    3    3    0    0 -0.48410906361E+02  0.96974253978E+01  0.67290471851E+01  0.49829179745E+02  0.10566000000E+00 0. -1.
         22    1    1    0    0    0  0.19317496064E+02 -0.72151167745E+01  0.24823078433E+02  0.32270865919E+02  0.00000000000E+00 0. -1.
</event>
<event>
 5    1  0.1250806E-009  0.9118800E+02  0.7561462E-02  0.1125453E+00
         25   -1    0    0    0    0  0.00000000000E+00  0.00000000000E+00  0.99999998245E-14  0.12509000000E+03  0.12509000000E+03 0.  0.
        -13    1    3    3    0    0  0.25572800992E+02 -0.28789267526E+02  0.12133484876E+02  0.40373539535E+02  0.10566000000E+00 0. -1.
         23    2    1    0    0    0 -0.15444857972E+02 -0.10159549417E+02 -0.21603807121E+02  0.96656137015E+02  0.92379241490E+02 0.  0.
         13    1    3    3    0    0 -0.41017658965E+02  0.18629718109E+02 -0.33737291997E+02  0.56282597480E+02  0.10566000000E+00 0.  1.
         22    1    1    0    0    0  0.15444857972E+02  0.10159549417E+02  0.21603807121E+02  0.28433862985E+02  0.00000000000E+00 0.  1.
</event>
<event>
 5    1  0.1250806E-009  0.9118800E+02  0.7561462E-02  0.1125453E+00
         25   -1    0    0    0    0  0.00000000000E+00  0.00000000000E+00  0.99999998245E-14  0.12509000000E+03  0.12509000000E+03 0.  0.
        -13    1    3    3    0    0 -0.30145837275E+02  0.11603862740E+02 -0.26158795759E+02  0.41565789961E+02  0.10566000000E+00 0.  1.
         23    2    1    0    0    0  0.50863131593E+01  0.25747935601E+02  0.12735498028E+02  0.95917758412E+02  0.91373938842E+02 0.  0.
         13    1    3    3    0    0  0.35232150434E+02  0.14144072861E+02  0.38894293787E+02  0.54351968451E+02  0.10566000000E+00 0. -1.
         22    1    1    0    0    0 -0.50863131593E+01 -0.25747935601E+02 -0.12735498028E+02  0.29172241588E+02  0.00000000000E+00 0. -1.
</event>
<event>
 5    1  0.1250806E-009  0.9118800E+02  0.7561462E-02  0.1125453E+00
         25   -1    0    0    0    0  0.00000000000E+00  0.00000000000E+00  0.99999998245E-14  0.12509000000E+03  0.12509000000E+03 0.  0.
        -13    1    3    3    0    0  0.34587903049E+01  0.43714933269E+02  0.31101036789E+02  0.53760992127E+02  0.10566000000E+00 0.  1.
         23    2    1    0    0    0 -0.60749116420E+00  0.34388036704E+01  0.30647143102E+02  0.94244549825E+02  0.89053879058E+02 0.  0.
         13    1    3    3    0    0 -0.40662814691E+01 -0.40276129598E+02 -0.45389368740E+00  0.40483557698E+02  0.10566000000E+00 0. -1.
         22    1    1    0    0    0  0.60749116420E+00 -0.34388036704E+01 -0.30647143102E+02  0.30845450175E+02  0.00000000000E+00 0.  1.
</event>
<event>
 5    1  0.1250806E-009  0.9118800E+02  0.7561462E-02  0.1125453E+00
         25   -1    0    0    0    0  0.00000000000E+00  0.00000000000E+00  0.99999998245E-14  0.12509000000E+03  0.12509000000E+03 0.  0.
        -13    1    3    3    0    0 -0.15130444522E+01 -0.15700197076E+02  0.39420315201E+01  0.16258421457E+02  0.10566000000E+00 0.  1.
         23    2    1    0    0    0 -0.75262735795E+01  0.44331136433E+02  0.15186622514E+02  0.77629195594E+02  0.61430969826E+02 0.  0.
         13    1    3    3    0    0 -0.60132291273E+01  0.60031333510E+02  0.11244590994E+02  0.61370774137E+02  0.10566000000E+00 0. -1.
         22    1    1    0    0    0  0.75262735795E+01 -0.44331136433E+02 -0.15186622514E+02  0.47460804406E+02  0.00000000000E+00 0. -1.
</event>
<event>
 5    1  0.1250806E-009  0.9118800E+02  0.7561462E-02  0.1125453E+00
         25   -1    0    0    0    0  0.00000000000E+00  0.00000000000E+00  0.99999998245E-14  0.12509000000E+03  0.12509000000E+03 0.  0.
        -13    1    3    3    0    0  0.33879331302E+02  0.24285660194E+02  0.26473007080E+01  0.41768669426E+02  0.10566000000E+00 0.  1.
         23    2    1    0    0    0 -0.18864529826E+01 -0.76875201350E+01  0.27974153477E+02  0.96017505552E+02  0.91510389787E+02 0.  0.
         13    1    3    3    0    0 -0.35765784284E+02 -0.31973180329E+02  0.25326852769E+02  0.54248836126E+02  0.10566000000E+00 0. -1.
         22    1    1    0    0    0  0.18864529826E+01  0.76875201350E+01 -0.27974153477E+02  0.29072494448E+02  0.00000000000E+00 0. -1.
</event>
<event>
 5    1  0.1250806E-009  0.9118800E+02  0.7561462E-02  0.1125453E+00
         25   -1    0    0    0    0  0.00000000000E+00  0.00000000000E+00  0.99999998245E-14  0.12509000000E+03  0.12509000000E+03 0.  0.
        -13    1    3    3    0    0  0.42214791274E+02 -0.12520865721E+02  0.24754177094E+02  0.50513771670E+02  0.10566000000E+00 0.  1.
         23    2    1    0    0    0  0.46443780422E+00 -0.25894610416E+02  0.13982044081E+02  0.95657974794E+02  0.91017602880E+02 0.  0.
         13    1    3    3    0    0 -0.41750353470E+02 -0.13373744694E+02 -0.10772133013E+02  0.45144203124E+02  0.10566000000E+00 0. -1.
         22    1    1    0    0    0 -0.46443780422E+00  0.25894610416E+02 -0.13982044081E+02  0.29432025206E+02  0.00000000000E+00 0.  1.
</event>
<event>
 5    1  0.1250806E-009  0.9118800E+02  0.7561462E-02  0.1125453E+00
         25   -1    0    0    0    0  0.00000000000E+00  0.00000000000E+00  0.99999998245E-14  0.12509000000E+03  0.12509000000E+03 0.  0.
        -13    1    3    3    0    0 -0.31792896866E+02  0.96614585653E+01 -0.20923105110E+02  0.39267283637E+02  0.10566000000E+00 0.  1.
         23    2    1    0    0    0  0.58435168428E+01 -0.28182882427E+02 -0.83528831497E+00  0.96295568984E+02  0.91889702080E+02 0.  0.
         13    1    3    3    0    0  0.37636413709E+02 -0.37844340992E+02  0.20087816795E+02  0.57028285347E+02  0.10566000000E+00 0. -1.
         22    1    1    0    0    0 -0.58435168428E+01  0.28182882427E+02  0.83528831497E+00  0.28794431016E+02  0.00000000000E+00 0. -1.
</event>
<event>
 5    1  0.1250806E-009  0.9118800E+02  0.7561462E-02  0.1125453E+00
         25   -1    0    0    0    0  0.00000000000E+00  0.00000000000E+00  0.99999998245E-14  0.12509000000E+03  0.12509000000E+03 0.  0.
        -13    1    3    3    0    0 -0.32495434722E+02 -0.26195075950E+02  0.27406187601E+02  0.49932409963E+02  0.10566000000E+00 0.  1.
         23    2    1    0    0    0 -0.24571056992E+02  0.14336087754E+02  0.81615197322E+01  0.95494887935E+02  0.90793187870E+02 0.  0.
         13    1    3    3    0    0  0.79243777301E+01  0.40531163704E+02 -0.19244667869E+02  0.45562477972E+02  0.10566000000E+00 0. -1.
         22    1    1    0    0    0  0.24571056992E+02 -0.14336087754E+02 -0.81615197322E+01  0.29595112065E+02  0.00000000000E+00 0.  1.
</event>
<event>
 5    1  0.1250806E-009  0.9118800E+02  0.7561462E-02  0.1125453E+00
         25   -1    0    0    0    0  0.00000000000E+00  0.00000000000E+00  0.99999998245E-14  0.12509000000E+03  0.12509000000E+03 0.  0.
        -13    1    3    3    0    0 -0.41584566648E+02  0.15316574032E+00 -0.43472513548E+02  0.60159539903E+02  0.10566000000E+00 0.  1.
         23    2    1    0    0    0 -0.10073575062E+02  0.58325272188E+01 -0.25925388264E+02  0.96671325771E+02  0.92399806177E+02 0.  0.
         13    1    3    3    0    0  0.31510991586E+02  0.56793614784E+01  0.17547125285E+02  0.36511785869E+02  0.10566000000E+00 0. -1.
         22    1    1    0    0    0  0.10073575062E+02 -0.58325272188E+01  0.25925388264E+02  0.28418674229E+02  0.00000000000E+00 0.  1.
</event>
<event>
 5    1  0.1250806E-009  0.9118800E+02  0.7561462E-02  0.1125453E+00
         25   -1    0    0    0    0  0.00000000000E+00  0.00000000000E+00  0.99999998245E-14  0.12509000000E+03  0.12509000000E+03 0.  0.
        -13    1    3    3    0    0 -0.31082946150E+02  0.67200543276E+01 -0.53757427994E+02  0.62459434036E+02  0.10566000000E+00 0.  1.
         23    2    1    0    0    0 -0.14755322346E+02  0.54176402152E+01 -0.24808775556E+02  0.95720871520E+02  0.91104003957E+02 0.  0.
         13    1    3    3    0    0  0.16327623803E+02 -0.13024141124E+01  0.28948652437E+02  0.33261437485E+02  0.10566000000E+00 0. -1.
         22    1    1    0    0    0  0.14755322346E+02 -0.54176402152E+01  0.24808775556E+02  0.29369128480E+02  0.00000000000E+00 0.  1.
</event>
<event>
 5    1  0.1250806E-009  0.9118800E+02  0.7561462E-02  0.1125453E+00
         25   -1    0    0    0    0  0.00000000000E+00  0.00000000000E+00  0.99999998245E-14  0.12509000000E+03  0.12509000000E+03 0.  0.
        -13    1    3    3    0    0  0.25864046311E+02  0.20103739847E+02 -0.12784984453E+02  0.35164985979E+02  0.10566000000E+00 0.  1.
         23    2    1    0    0    0 -0.40556234914E+01 -0.26235622861E+02  0.12385447245E+02  0.95795712292E+02  0.91206705901E+02 0.  0.
         13    1    3    3    0    0 -0.29919669802E+02 -0.46339362709E+02  0.25170431699E+02  0.60630726313E+02  0.10566000000E+00 0. -1.
         22    1    1    0    0    0  0.40556234914E+01  0.26235622861E+02 -0.12385447245E+02  0.29294287708E+02  0.00000000000E+00 0. -1.
</event>
<event>
 5    1  0.1250806E-009  0.9118800E+02  0.7561462E-02  0.1125453E+00
         25   -1    0    0    0    0  0.00000000000E+00  0.00000000000E+00  0.99999998245E-14  0.12509000000E+03  0.12509000000E+03 0.  0.
        -13    1    3    3    0    0 -0.41565162066E+02  0.30275485185E+02  0.32558361198E+02  0.60863172352E+02  0.10566000000E+00 0.  1.
         23    2    1    0    0    0 -0.24103975774E+02  0.16103793441E+02  0.63194762487E+01  0.95420662439E+02  0.90690866292E+02 0.  0.
         13    1    3    3    0    0  0.17461186292E+02 -0.14171691745E+02 -0.26238884950E+02  0.34557490087E+02  0.10566000000E+00 0. -1.
         22    1    1    0    0    0  0.24103975774E+02 -0.16103793441E+02 -0.63194762487E+01  0.29669337561E+02  0.00000000000E+00 0.  1.
</event>
<event>
 5    1  0.1250806E-009  0.9118800E+02  0.7561462E-02  0.1125453E+00
         25   -1    0    0    0    0  0.00000000000E+00  0.00000000000E+00  0.99999998245E-14  0.12509000000E+03  0.12509000000E+03 0.  0.
        -13    1    3    3    0    0  0.25999484057E+02  0.42389012093E+02 -0.17723021191E+02  0.52791269748E+02  0.10566000000E+00 0.  1.
         23    2    1    0    0    0  0.29240033159E+02  0.24963362614E+01 -0.24100333594E+01  0.95644805237E+02  0.90999501505E+02 0.  0.
         13    1    3    3    0    0  0.32405491019E+01 -0.39892675832E+02  0.15312987831E+02  0.42853535488E+02  0.10566000000E+00 0. -1.
         22    1    1    0    0    0 -0.29240033159E+02 -0.24963362614E+01  0.24100333594E+01  0.29445194763E+02  0.00000000000E+00 0.  1.
</event>
<event>
 5    1  0.1250806E-009  0.9118800E+02  0.7561462E-02  0.1125453E+00
         25   -1    0    0    0    0  0.00000000000E+00  0.00000000000E+00  0.99999998245E-14  0.12509000000E+03  0.12509000000E+03 0.  0.
        -13    1    3    3    0    0 -0.31601336748E+02  0.49113852116E+01 -0.51623620894E+02  0.60727058114E+02  0.10566000000E+00 0.  1.
         23    2    1    0    0    0 -0.21267817112E+02 -0.36358109973E+01 -0.17777260980E+02  0.97133423417E+02  0.93023286173E+02 0.  0.
         13    1    3    3    0    0  0.10333519636E+02 -0.85471962089E+01  0.33846359914E+02  0.36406365303E+02  0.10566000000E+00 0. -1.
         22    1    1    0    0    0  0.21267817112E+02  0.36358109973E+01  0.17777260980E+02  0.27956576583E+02  0.00000000000E+00 0.  1.
</event>
<event>
 5    1  0.1250806E-009  0.9118800E+02  0.7561462E-02  0.1125453E+00
         25   -1    0    0    0    0  0.00000000000E+00  0.00000000000E+00  0.99999998245E-14  0.12509000000E+03  0.12509000000E+03 0.  0.
        -13    1    3    3    0    0  0.18041542816E+02 -0.45938563527E+02 -0.15768890377E+02  0.51812333994E+02  0.10566000000E+00 0. -1.
         23    2    1    0    0    0  0.83958218754E+00 -0.45663981787E+02  0.54104642784E+01  0.79098943755E+02  0.64354220130E+02 0.  0.
         13    1    3    3    0    0 -0.17201960628E+02  0.27458174074E+00  0.21179354655E+02  0.27286609761E+02  0.10566000000E+00 0.  1.
         22    1    1    0    0    0 -0.83958218754E+00  0.45663981787E+02 -0.54104642784E+01  0.45991056245E+02  0.00000000000E+00 0. -1.
</event>
<event>
 5    1  0.1250806E-009  0.9118800E+02  0.7561462E-02  0.1125453E+00
         25   -1    0    0    0    0  0.00000000000E+00  0.00000000000E+00  0.99999998245E-14  0.12509000000E+03  0.12509000000E+03 0.  0.
        -13    1    3    3    0    0  0.16755152712E+02 -0.26273931187E+02 -0.32459704746E+02  0.44996646527E+02  0.10566000000E+00 0.  1.
         23    2    1    0    0    0  0.27796805065E+02 -0.15201579401E+01  0.10118127036E+02  0.95469909746E+02  0.90758767731E+02 0.  0.
         13    1    3    3    0    0  0.11041652353E+02  0.24753773247E+02  0.42577831782E+02  0.50473263219E+02  0.10566000000E+00 0. -1.
         22    1    1    0    0    0 -0.27796805065E+02  0.15201579401E+01 -0.10118127036E+02  0.29620090254E+02  0.00000000000E+00 0. -1.
</event>
<event>
 5    1  0.1250806E-009  0.9118800E+02  0.7561462E-02  0.1125453E+00
         25   -1    0    0    0    0  0.00000000000E+00  0.00000000000E+00  0.99999998245E-14  0.12509000000E+03  0.12509000000E+03 0.  0.
        -13    1    3    3    0    0  0.44510264054E+02  0.33983584791E+02  0.20355925228E+02  0.59585421852E+02  0.10566000000E+00 0.  1.
         23    2    1    0    0    0  0.12250883625E+02  0.26042542928E+02  0.64798063726E+01  0.95589388440E+02  0.90923292395E+02 0.  0.
         13    1    3    3    0    0 -0.32259380429E+02 -0.79410418625E+01 -0.13876118855E+02  0.36003966588E+02  0.10566000000E+00 0. -1.
         22    1    1    0    0    0 -0.12250883625E+02 -0.26042542928E+02 -0.64798063726E+01  0.29500611560E+02  0.00000000000E+00 0.  1.
</event>
<event>
 5    1  0.1250806E-009  0.9118800E+02  0.7561462E-02  0.1125453E+00
         25   -1    0    0    0    0  0.00000000000E+00  0.00000000000E+00  0.99999998245E-14  0.12509000000E+03  0.12509000000E+03 0.  0.
        -13    1    3    3    0    0 -0.31575389776E+02  0.27316401853E+02  0.45099759867E+01  0.41994548422E+02  0.10566000000E+00 0.  1.
         23    2    1    0    0    0  0.21218373653E+02  0.19621232417E+02 -0.36270896459E+01  0.95963243893E+02  0.91436186803E+02 0.  0.
         13    1    3    3    0    0  0.52793763429E+02 -0.76951694360E+01 -0.81370656326E+01  0.53968695471E+02  0.10566000000E+00 0. -1.
         22    1    1    0    0    0 -0.21218373653E+02 -0.19621232417E+02  0.36270896459E+01  0.29126756107E+02  0.00000000000E+00 0. -1.
</event>
<event>
 5    1  0.1250806E-009  0.9118800E+02  0.7561462E-02  0.1125453E+00
         25   -1    0    0    0    0  0.00000000000E+00  0.00000000000E+00  0.99999998245E-14  0.12509000000E+03  0.12509000000E+03 0.  0.
        -13    1    3    3    0    0 -0.70270751603E+01 -0.48960231195E+02 -0.27286046204E+02  0.56489145024E+02  0.10566000000E+00 0.  1.
         23    2    1    0    0    0 -0.12980573775E+02 -0.22517126793E+02  0.49770900389E+01  0.98627050056E+02  0.95010564059E+02 0.  0.
         13    1    3    3    0    0 -0.59534986142E+01  0.26443104403E+02  0.32263136243E+02  0.42137905032E+02  0.10566000000E+00 0. -1.
         22    1    1    0    0    0  0.12980573775E+02  0.22517126793E+02 -0.49770900389E+01  0.26462949944E+02  0.00000000000E+00 0.  1.
</event>
<event>
 5    1  0.1250806E-009  0.9118800E+02  0.7561462E-02  0.1125453E+00
         25   -1    0    0    0    0  0.00000000000E+00  0.00000000000E+00  0.99999998245E-14  0.12509000000E+03  0.12509000000E+03 0.  0.
        -13    1    3    3    0    0  0.38336154123E+01  0.68646695346E+01  0.40975366898E+02  0.41723041013E+02  0.10566000000E+00 0. -1.
         23    2    1    0    0    0 -0.24012625649E+02 -0.16998237939E+02  0.14596681823E+01  0.95633643898E+02  0.90984157579E+02 0.  0.
         13    1    3    3    0    0 -0.27846241062E+02 -0.23862907474E+02 -0.39515698716E+02  0.53910602885E+02  0.10566000000E+00 0.  1.
         22    1    1    0    0    0  0.24012625649E+02  0.16998237939E+02 -0.14596681823E+01  0.29456356102E+02  0.00000000000E+00 0.  1.
</event>
<event>
 5    1  0.1250806E-009  0.9118800E+02  0.7561462E-02  0.1125453E+00
         25   -1    0    0    0    0  0.00000000000E+00  0.00000000000E+00  0.99999998245E-14  0.12509000000E+03  0.12509000000E+03 0.  0.
        -13    1    3    3    0    0  0.13279671170E+02  0.56828531678E+02 -0.22443442217E+02  0.62526401957E+02  0.10566000000E+00 0.  1.
         23    2    1    0    0    0  0.69200176211E+01  0.30513874399E+02 -0.10901685134E+02  0.91956483533E+02  0.85779746737E+02 0.  0.
         13    1    3    3    0    0 -0.63596535487E+01 -0.26314657279E+02  0.11541757083E+02  0.29430081576E+02  0.10566000000E+00 0. -1.
         22    1    1    0    0    0 -0.69200176211E+01 -0.30513874399E+02  0.10901685134E+02  0.33133516467E+02  0.00000000000E+00 0.  1.
</event>
<event>
 5    1  0.1250806E-009  0.9118800E+02  0.7561462E-02  0.1125453E+00
         25   -1    0    0    0    0  0.00000000000E+00  0.00000000000E+00  0.99999998245E-14  0.12509000000E+03  0.12509000000E+03 0.  0.
        -13    1    3    3    0    0 -0.22561292680E+02  0.56335828418E+02  0.78069612097E+01  0.61185760585E+02  0.10566000000E+00 0. -1.
         23    2    1    0    0    0 -0.13742430664E+02  0.23236879512E+02  0.11714046062E+02  0.95661682937E+02  0.91022699022E+02 0.  0.
         13    1    3    3    0    0  0.88188620156E+01 -0.33098948906E+02  0.39070848526E+01  0.34475922352E+02  0.10566000000E+00 0.  1.
         22    1    1    0    0    0  0.13742430664E+02 -0.23236879512E+02 -0.11714046062E+02  0.29428317063E+02  0.00000000000E+00 0. -1.
</event>
<event>
 5    1  0.1250806E-009  0.9118800E+02  0.7561462E-02  0.1125453E+00
         25   -1    0    0    0    0  0.00000000000E+00  0.00000000000E+00  0.99999998245E-14  0.12509000000E+03  0.12509000000E+03 0.  0.
        -13    1    3    3    0    0  0.45278039578E+02  0.62804253187E+01  0.17580291217E+02  0.48975732904E+02  0.10566000000E+00 0. -1.
         23    2    1    0    0    0  0.18665806257E+02  0.13082475477E+02 -0.19480418778E+02  0.95105834119E+02  0.90255578663E+02 0.  0.
         13    1    3    3    0    0 -0.26612233321E+02  0.68020501584E+01 -0.37060709995E+02  0.46130101214E+02  0.10566000000E+00 0.  1.
         22    1    1    0    0    0 -0.18665806257E+02 -0.13082475477E+02  0.19480418778E+02  0.29984165881E+02  0.00000000000E+00 0.  1.
</event>
<event>
 5    1  0.1250806E-009  0.9118800E+02  0.7561462E-02  0.1125453E+00
         25   -1    0    0    0    0  0.00000000000E+00  0.00000000000E+00  0.99999998245E-14  0.12509000000E+03  0.12509000000E+03 0.  0.
        -13    1    3    3    0    0  0.31890541498E+02  0.76660365814E+01  0.37373635965E+01  0.33011419306E+02  0.10566000000E+00 0. -1.
         23    2    1    0    0    0 -0.27775174024E+02  0.13492372402E+02  0.82422375661E+01  0.93130042472E+02  0.87474372965E+02 0.  0.
         13    1    3    3    0    0 -0.59665715522E+02  0.58263358206E+01  0.45048739697E+01  0.60118623166E+02  0.10566000000E+00 0.  1.
         22    1    1    0    0    0  0.27775174024E+02 -0.13492372402E+02 -0.82422375661E+01  0.31959957528E+02  0.00000000000E+00 0.  1.
</event>
<event>
 5    1  0.1250806E-009  0.9118800E+02  0.7561462E-02  0.1125453E+00
         25   -1    0    0    0    0  0.00000000000E+00  0.00000000000E+00  0.99999998245E-14  0.12509000000E+03  0.12509000000E+03 0.  0.
        -13    1    3    3    0    0  0.54295128106E+01 -0.43227862348E+02  0.18247470881E+02  0.47234617074E+02  0.10566000000E+00 0.  1.
         23    2    1    0    0    0  0.27537036714E+02 -0.16223983516E+01  0.12855985479E+02  0.94656516302E+02  0.89630681959E+02 0.  0.
         13    1    3    3    0    0  0.22107523903E+02  0.41605463997E+02 -0.53914854018E+01  0.47421899228E+02  0.10566000000E+00 0. -1.
         22    1    1    0    0    0 -0.27537036714E+02  0.16223983516E+01 -0.12855985479E+02  0.30433483698E+02  0.00000000000E+00 0.  1.
</event>
<event>
 5    1  0.1250806E-009  0.9118800E+02  0.7561462E-02  0.1125453E+00
         25   -1    0    0    0    0  0.00000000000E+00  0.00000000000E+00  0.99999998245E-14  0.12509000000E+03  0.12509000000E+03 0.  0.
        -13    1    3    3    0    0 -0.27842656457E+02 -0.25513142542E+01  0.27670623629E+02  0.39336971147E+02  0.10566000000E+00 0.  1.
         23    2    1    0    0    0  0.22479448255E+02 -0.17698666016E+02  0.94118514142E+01  0.94971047169E+02  0.90068576544E+02 0.  0.
         13    1    3    3    0    0  0.50322104711E+02 -0.15147351762E+02 -0.18258772215E+02  0.55634076022E+02  0.10566000000E+00 0. -1.
         22    1    1    0    0    0 -0.22479448255E+02  0.17698666016E+02 -0.94118514142E+01  0.30118952831E+02  0.00000000000E+00 0. -1.
</event>
<event>
 5    1  0.1250806E-009  0.9118800E+02  0.7561462E-02  0.1125453E+00
         25   -1    0    0    0    0  0.00000000000E+00  0.00000000000E+00  0.99999998245E-14  0.12509000000E+03  0.12509000000E+03 0.  0.
        -13    1    3    3    0    0  0.28574731567E+02  0.24360783851E+02 -0.37341904632E+02  0.52956511210E+02  0.10566000000E+00 0. -1.
         23    2    1    0    0    0 -0.12443168139E+01 -0.44093697203E+01 -0.29635236849E+02  0.95102700543E+02  0.90251235569E+02 0.  0.
         13    1    3    3    0    0 -0.29819048381E+02 -0.28770153571E+02  0.77066677836E+01  0.42146189332E+02  0.10566000000E+00 0.  1.
         22    1    1    0    0    0  0.12443168139E+01  0.44093697203E+01  0.29635236849E+02  0.29987299457E+02  0.00000000000E+00 0. -1.
</event>
<event>
 5    1  0.1250806E-009  0.9118800E+02  0.7561462E-02  0.1125453E+00
         25   -1    0    0    0    0  0.00000000000E+00  0.00000000000E+00  0.99999998245E-14  0.12509000000E+03  0.12509000000E+03 0.  0.
        -13    1    3    3    0    0 -0.11646576419E+02 -0.17808465918E+01 -0.44519153986E+02  0.46051931475E+02  0.10566000000E+00 0.  1.
         23    2    1    0    0    0 -0.35294524152E+01  0.27276931268E+02 -0.29327686651E+01  0.97429755138E+02  0.93420918645E+02 0.  0.
         13    1    3    3    0    0  0.81171240040E+01  0.29057777860E+02  0.41586385321E+02  0.51377823663E+02  0.10566000000E+00 0. -1.
         22    1    1    0    0    0  0.35294524152E+01 -0.27276931268E+02  0.29327686651E+01  0.27660244862E+02  0.00000000000E+00 0.  1.
</event>
<event>
 5    1  0.1250806E-009  0.9118800E+02  0.7561462E-02  0.1125453E+00
         25   -1    0    0    0    0  0.00000000000E+00  0.00000000000E+00  0.99999998245E-14  0.12509000000E+03  0.12509000000E+03 0.  0.
        -13    1    3    3    0    0  0.20274608050E+02 -0.39739733647E+02 -0.27967336565E+02  0.52654432297E+02  0.10566000000E+00 0.  1.
         23    2    1    0    0    0  0.35432358976E+02 -0.25528074223E+02 -0.96235674053E+01  0.80371461498E+02  0.66781914749E+02 0.  0.
         13    1    3    3    0    0  0.15157750926E+02  0.14211659423E+02  0.18343769160E+02  0.27717029201E+02  0.10566000000E+00 0. -1.
         22    1    1    0    0    0 -0.35432358976E+02  0.25528074223E+02  0.96235674053E+01  0.44718538502E+02  0.00000000000E+00 0.  1.
</event>
<event>
 5    1  0.1250806E-009  0.9118800E+02  0.7561462E-02  0.1125453E+00
         25   -1    0    0    0    0  0.00000000000E+00  0.00000000000E+00  0.99999998245E-14  0.12509000000E+03  0.12509000000E+03 0.  0.
        -13    1    3    3    0    0  0.24012570892E+02  0.11177741181E+02 -0.18893726551E+02  0.32535050726E+02  0.10566000000E+00 0. -1.
         23    2    1    0    0    0 -0.24644753123E+02 -0.16405145448E+02  0.77472891237E+01  0.94487497775E+02  0.89394485810E+02 0.  0.
         13    1    3    3    0    0 -0.48657324015E+02 -0.27582886629E+02  0.26641015675E+02  0.61952447049E+02  0.10566000000E+00 0.  1.
         22    1    1    0    0    0  0.24644753123E+02  0.16405145448E+02 -0.77472891237E+01  0.30602502225E+02  0.00000000000E+00 0.  1.
</event>
<event>
 5    1  0.1250806E-009  0.9118800E+02  0.7561462E-02  0.1125453E+00
         25   -1    0    0    0    0  0.00000000000E+00  0.00000000000E+00  0.99999998245E-14  0.12509000000E+03  0.12509000000E+03 0.  0.
        -13    1    3    3    0    0 -0.15126159626E+02 -0.40759296674E+01  0.32132146018E+02  0.35747725514E+02  0.10566000000E+00 0. -1.
         23    2    1    0    0    0 -0.29149599741E+01  0.17239125555E+02 -0.23054983410E+02  0.96155302808E+02  0.91698558094E+02 0.  0.
         13    1    3    3    0    0  0.12211199651E+02  0.21315055222E+02 -0.55187129428E+02  0.60407577294E+02  0.10566000000E+00 0.  1.
         22    1    1    0    0    0  0.29149599741E+01 -0.17239125555E+02  0.23054983410E+02  0.28934697192E+02  0.00000000000E+00 0.  1.
</event>
<event>
 5    1  0.1250806E-009  0.9118800E+02  0.7561462E-02  0.1125453E+00
         25   -1    0    0    0    0  0.00000000000E+00  0.00000000000E+00  0.99999998245E-14  0.12509000000E+03  0.12509000000E+03 0.  0.
        -13    1    3    3    0    0 -0.83922842638E+01  0.59394972720E+02  0.91274142409E+01  0.60675481658E+02  0.10566000000E+00 0.  1.
         23    2    1    0    0    0 -0.11954728086E+02  0.24303180892E+02  0.10665610594E+02  0.95981317886E+02  0.91460909731E+02 0.  0.
         13    1    3    3    0    0 -0.35624438222E+01 -0.35091791829E+02  0.15381963530E+01  0.35305836229E+02  0.10566000000E+00 0. -1.
         22    1    1    0    0    0  0.11954728086E+02 -0.24303180892E+02 -0.10665610594E+02  0.29108682114E+02  0.00000000000E+00 0.  1.
</event>
<event>
 5    1  0.1250806E-009  0.9118800E+02  0.7561462E-02  0.1125453E+00
         25   -1    0    0    0    0  0.00000000000E+00  0.00000000000E+00  0.99999998245E-14  0.12509000000E+03  0.12509000000E+03 0.  0.
        -13    1    3    3    0    0  0.25571061258E+02 -0.18175518476E+02 -0.53575892410E+02  0.62085554337E+02  0.10566000000E+00 0. -1.
         23    2    1    0    0    0  0.15962337892E+02 -0.10480240389E+02 -0.22101033198E+02  0.95882341106E+02  0.91325440037E+02 0.  0.
         13    1    3    3    0    0 -0.96087233662E+01  0.76952780862E+01  0.31474859211E+02  0.33796786770E+02  0.10566000000E+00 0.  1.
         22    1    1    0    0    0 -0.15962337892E+02  0.10480240389E+02  0.22101033198E+02  0.29207658894E+02  0.00000000000E+00 0. -1.
</event>
<event>
 5    1  0.1250806E-009  0.9118800E+02  0.7561462E-02  0.1125453E+00
         25   -1    0    0    0    0  0.00000000000E+00  0.00000000000E+00  0.99999998245E-14  0.12509000000E+03  0.12509000000E+03 0.  0.
        -13    1    3    3    0    0 -0.58964086445E+02 -0.11832706566E+01  0.89854091244E+01  0.59656620428E+02  0.10566000000E+00 0.  1.
         23    2    1    0    0    0 -0.24533339250E+02  0.12657835563E+02  0.56179328017E+01  0.96917909115E+02  0.92733027571E+02 0.  0.
         13    1    3    3    0    0  0.34430747195E+02  0.13841106219E+02 -0.33674763227E+01  0.37261288687E+02  0.10566000000E+00 0. -1.
         22    1    1    0    0    0  0.24533339250E+02 -0.12657835563E+02 -0.56179328017E+01  0.28172090885E+02  0.00000000000E+00 0.  1.
</event>
<event>
 5    1  0.1250806E-009  0.9118800E+02  0.7561462E-02  0.1125453E+00
         25   -1    0    0    0    0  0.00000000000E+00  0.00000000000E+00  0.99999998245E-14  0.12509000000E+03  0.12509000000E+03 0.  0.
        -13    1    3    3    0    0  0.30959047170E+02  0.56020864380E+01  0.11969727978E+02  0.33662019043E+02  0.10566000000E+00 0.  1.
         23    2    1    0    0    0 -0.24705760136E+02 -0.11050210925E+02 -0.10641030596E+02  0.96008850134E+02  0.91498557511E+02 0.  0.
         13    1    3    3    0    0 -0.55664807305E+02 -0.16652297363E+02 -0.22610758575E+02  0.62346831092E+02  0.10566000000E+00 0. -1.
         22    1    1    0    0    0  0.24705760136E+02  0.11050210925E+02  0.10641030596E+02  0.29081149866E+02  0.00000000000E+00 0. -1.
</event>
<event>
 5    1  0.1250806E-009  0.9118800E+02  0.7561462E-02  0.1125453E+00
         25   -1    0    0    0    0  0.00000000000E+00  0.00000000000E+00  0.99999998245E-14  0.12509000000E+03  0.12509000000E+03 0.  0.
        -13    1    3    3    0    0 -0.35921991688E+02  0.30732787855E+02 -0.32314439073E+02  0.57263669746E+02  0.10566000000E+00 0.  1.
         23    2    1    0    0    0 -0.20821719256E+02  0.15273468197E+02  0.34372790328E+01  0.99039324179E+02  0.95551818524E+02 0.  0.
         13    1    3    3    0    0  0.15100272431E+02 -0.15459319657E+02  0.35751718106E+02  0.41775654433E+02  0.10566000000E+00 0. -1.
         22    1    1    0    0    0  0.20821719256E+02 -0.15273468197E+02 -0.34372790328E+01  0.26050675821E+02  0.00000000000E+00 0.  1.
</event>
<event>
 5    1  0.1250806E-009  0.9118800E+02  0.7561462E-02  0.1125453E+00
         25   -1    0    0    0    0  0.00000000000E+00  0.00000000000E+00  0.99999998245E-14  0.12509000000E+03  0.12509000000E+03 0.  0.
        -13    1    3    3    0    0 -0.41302563815E+02 -0.12772382916E+02 -0.31903316519E+02  0.53729585072E+02  0.10566000000E+00 0.  1.
         23    2    1    0    0    0  0.17726331875E+01 -0.15249358869E+02 -0.22438984046E+02  0.97901892685E+02  0.94050983047E+02 0.  0.
         13    1    3    3    0    0  0.43075197003E+02 -0.24769759523E+01  0.94643324729E+01  0.44172307613E+02  0.10566000000E+00 0. -1.
         22    1    1    0    0    0 -0.17726331875E+01  0.15249358869E+02  0.22438984046E+02  0.27188107315E+02  0.00000000000E+00 0.  1.
</event>
<event>
 5    1  0.1250806E-009  0.9118800E+02  0.7561462E-02  0.1125453E+00
         25   -1    0    0    0    0  0.00000000000E+00  0.00000000000E+00  0.99999998245E-14  0.12509000000E+03  0.12509000000E+03 0.  0.
        -13    1    3    3    0    0 -0.39492456985E+01  0.31325364777E+02  0.19912761107E+02  0.37328330246E+02  0.10566000000E+00 0. -1.
         23    2    1    0    0    0 -0.19010695423E+02 -0.40187589235E+01 -0.23035930089E+02  0.94953460072E+02  0.90044147732E+02 0.  0.
         13    1    3    3    0    0 -0.15061449725E+02 -0.35344123700E+02 -0.42948691196E+02  0.57625129826E+02  0.10566000000E+00 0.  1.
         22    1    1    0    0    0  0.19010695423E+02  0.40187589235E+01  0.23035930089E+02  0.30136539928E+02  0.00000000000E+00 0.  1.
</event>
<event>
 5    1  0.1250806E-009  0.9118800E+02  0.7561462E-02  0.1125453E+00
         25   -1    0    0    0    0  0.00000000000E+00  0.00000000000E+00  0.99999998245E-14  0.12509000000E+03  0.12509000000E+03 0.  0.
        -13    1    3    3    0    0  0.33449860347E+02 -0.26081636967E+02 -0.29604921200E+02  0.51726274440E+02  0.10566000000E+00 0. -1.
         23    2    1    0    0    0  0.16808909552E+02  0.13630806960E+02 -0.19511651157E+02  0.95951659801E+02  0.91420337721E+02 0.  0.
         13    1    3    3    0    0 -0.16640950796E+02  0.39712443928E+02  0.10093270043E+02  0.44225385361E+02  0.10566000000E+00 0.  1.
         22    1    1    0    0    0 -0.16808909552E+02 -0.13630806960E+02  0.19511651157E+02  0.29138340199E+02  0.00000000000E+00 0. -1.
</event>
<event>
 5    1  0.1250806E-009  0.9118800E+02  0.7561462E-02  0.1125453E+00
         25   -1    0    0    0    0  0.00000000000E+00  0.00000000000E+00  0.99999998245E-14  0.12509000000E+03  0.12509000000E+03 0.  0.
        -13    1    3    3    0    0  0.14860709551E+02  0.34227473621E+02  0.25658378916E+02  0.45284922562E+02  0.10566000000E+00 0.  1.
         23    2    1    0    0    0 -0.22317202150E+02  0.21034190546E+02 -0.33332521344E+01  0.94241900326E+02  0.89050157347E+02 0.  0.
         13    1    3    3    0    0 -0.37177911701E+02 -0.13193283075E+02 -0.28991631050E+02  0.48956977763E+02  0.10566000000E+00 0. -1.
         22    1    1    0    0    0  0.22317202150E+02 -0.21034190546E+02  0.33332521344E+01  0.30848099674E+02  0.00000000000E+00 0.  1.
</event>
<event>
 5    1  0.1250806E-009  0.9118800E+02  0.7561462E-02  0.1125453E+00
         25   -1    0    0    0    0  0.00000000000E+00  0.00000000000E+00  0.99999998245E-14  0.12509000000E+03  0.12509000000E+03 0.  0.
        -13    1    3    3    0    0 -0.31636533363E+02  0.17603199830E+02 -0.39728391474E+02  0.53750340842E+02  0.10566000000E+00 0.  1.
         23    2    1    0    0    0 -0.22302256220E+02  0.19041388048E+02  0.11860993220E+01  0.95740861632E+02  0.91131447170E+02 0.  0.
         13    1    3    3    0    0  0.93342771428E+01  0.14381882185E+01  0.40914490796E+02  0.41990520791E+02  0.10566000000E+00 0. -1.
         22    1    1    0    0    0  0.22302256220E+02 -0.19041388048E+02 -0.11860993220E+01  0.29349138368E+02  0.00000000000E+00 0.  1.
</event>
<event>
 5    1  0.1250806E-009  0.9118800E+02  0.7561462E-02  0.1125453E+00
         25   -1    0    0    0    0  0.00000000000E+00  0.00000000000E+00  0.99999998245E-14  0.12509000000E+03  0.12509000000E+03 0.  0.
        -13    1    3    3    0    0 -0.71762755503E+00  0.56012798328E+02 -0.83164983291E+01  0.56631474237E+02  0.10566000000E+00 0.  1.
         23    2    1    0    0    0  0.10455546442E+02  0.24029546643E+02  0.12141698336E+02  0.96208199472E+02  0.91770688370E+02 0.  0.
         13    1    3    3    0    0  0.11173173997E+02 -0.31983251685E+02  0.20458196665E+02  0.39576725235E+02  0.10566000000E+00 0. -1.
         22    1    1    0    0    0 -0.10455546442E+02 -0.24029546643E+02 -0.12141698336E+02  0.28881800528E+02  0.00000000000E+00 0.  1.
</event>
<event>
 5    1  0.1250806E-009  0.9118800E+02  0.7561462E-02  0.1125453E+00
         25   -1    0    0    0    0  0.00000000000E+00  0.00000000000E+00  0.99999998245E-14  0.12509000000E+03  0.12509000000E+03 0.  0.
        -13    1    3    3    0    0  0.30617942248E+01  0.24827505136E+02  0.22552463130E+02  0.33680919709E+02  0.10566000000E+00 0.  1.
         23    2    1    0    0    0  0.86713165368E+01 -0.14160617636E+02 -0.24781040848E+02  0.95260236209E+02  0.90469319633E+02 0.  0.
         13    1    3    3    0    0  0.56095223121E+01 -0.38988122772E+02 -0.47333503978E+02  0.61579316501E+02  0.10566000000E+00 0. -1.
         22    1    1    0    0    0 -0.86713165368E+01  0.14160617636E+02  0.24781040848E+02  0.29829763791E+02  0.00000000000E+00 0. -1.
</event>
<event>
 5    1  0.1250806E-009  0.9118800E+02  0.7561462E-02  0.1125453E+00
         25   -1    0    0    0    0  0.00000000000E+00  0.00000000000E+00  0.99999998245E-14  0.12509000000E+03  0.12509000000E+03 0.  0.
        -13    1    3    3    0    0  0.14679502559E+02  0.24047577951E+02  0.54857105763E+02  0.61669173964E+02  0.10566000000E+00 0. -1.
         23    2    1    0    0    0  0.58846818387E+01  0.17412655295E+02  0.21470044253E+02  0.96827076496E+02  0.92610420029E+02 0.  0.
         13    1    3    3    0    0 -0.87948207204E+01 -0.66349226561E+01 -0.33387061510E+02  0.35157902532E+02  0.10566000000E+00 0.  1.
         22    1    1    0    0    0 -0.58846818387E+01 -0.17412655295E+02 -0.21470044253E+02  0.28262923504E+02  0.00000000000E+00 0. -1.
</event>
<event>
 5    1  0.1250806E-009  0.9118800E+02  0.7561462E-02  0.1125453E+00
         25   -1    0    0    0    0  0.00000000000E+00  0.00000000000E+00  0.99999998245E-14  0.12509000000E+03  0.12509000000E+03 0.  0.
        -13    1    3    3    0    0  0.32733401469E+02 -0.85511523275E+01 -0.75002497312E+01  0.34653465742E+02  0.10566000000E+00 0.  1.
         23    2    1    0    0    0 -0.25792984981E+02  0.11515976628E+02 -0.28660911115E+01  0.96697918883E+02  0.92435800673E+02 0.  0.
         13    1    3    3    0    0 -0.58526386450E+02  0.20067128955E+02  0.46341586197E+01  0.62044453141E+02  0.10566000000E+00 0. -1.
         22    1    1    0    0    0  0.25792984981E+02 -0.11515976628E+02  0.28660911115E+01  0.28392081117E+02  0.00000000000E+00 0. -1.
</event>
<event>
 5    1  0.1250806E-009  0.9118800E+02  0.7561462E-02  0.1125453E+00
         25   -1    0    0    0    0  0.00000000000E+00  0.00000000000E+00  0.99999998245E-14  0.12509000000E+03  0.12509000000E+03 0.  0.
        -13    1    3    3    0    0 -0.54138051771E+01 -0.52859072892E+02 -0.25693622640E+02  0.59021727202E+02  0.10566000000E+00 0. -1.
         23    2    1    0    0    0 -0.16370260782E+02 -0.20203570031E+02 -0.72428774392E+01  0.98096872103E+02  0.94309953677E+02 0.  0.
         13    1    3    3    0    0 -0.10956455605E+02  0.32655502861E+02  0.18450745201E+02  0.39075144901E+02  0.10566000000E+00 0.  1.
         22    1    1    0    0    0  0.16370260782E+02  0.20203570031E+02  0.72428774392E+01  0.26993127897E+02  0.00000000000E+00 0. -1.
</event>
<event>
 5    1  0.1250806E-009  0.9118800E+02  0.7561462E-02  0.1125453E+00
         25   -1    0    0    0    0  0.00000000000E+00  0.00000000000E+00  0.99999998245E-14  0.12509000000E+03  0.12509000000E+03 0.  0.
        -13    1    3    3    0    0  0.26255953811E+02 -0.36645904235E+02 -0.40821284252E+02  0.60816821849E+02  0.10566000000E+00 0. -1.
         23    2    1    0    0    0  0.80643539022E+01 -0.99810841166E+01 -0.25490708338E+02  0.96551743999E+02  0.92237775415E+02 0.  0.
         13    1    3    3    0    0 -0.18191599909E+02  0.26664820118E+02  0.15330575914E+02  0.35734922150E+02  0.10566000000E+00 0.  1.
         22    1    1    0    0    0 -0.80643539022E+01  0.99810841166E+01  0.25490708338E+02  0.28538256001E+02  0.00000000000E+00 0. -1.
</event>
<event>
 5    1  0.1250806E-009  0.9118800E+02  0.7561462E-02  0.1125453E+00
         25   -1    0    0    0    0  0.00000000000E+00  0.00000000000E+00  0.99999998245E-14  0.12509000000E+03  0.12509000000E+03 0.  0.
        -13    1    3    3    0    0 -0.28411613012E+02  0.31755607064E+02  0.74286185268E+01  0.43253137126E+02  0.10566000000E+00 0. -1.
         23    2    1    0    0    0  0.20900573610E+02  0.17018313051E+02 -0.79853137304E+01  0.96979109020E+02  0.92815545005E+02 0.  0.
         13    1    3    3    0    0  0.49312186622E+02 -0.14737294013E+02 -0.15413932257E+02  0.53725971894E+02  0.10566000000E+00 0.  1.
         22    1    1    0    0    0 -0.20900573610E+02 -0.17018313051E+02  0.79853137304E+01  0.28110890980E+02  0.00000000000E+00 0.  1.
</event>
<event>
 5    1  0.1250806E-009  0.9118800E+02  0.7561462E-02  0.1125453E+00
         25   -1    0    0    0    0  0.00000000000E+00  0.00000000000E+00  0.99999998245E-14  0.12509000000E+03  0.12509000000E+03 0.  0.
        -13    1    3    3    0    0 -0.42867053656E+02  0.12430472526E+02  0.39841518612E+02  0.59828577667E+02  0.10566000000E+00 0.  1.
         23    2    1    0    0    0 -0.19071660583E+02  0.17214489387E+02  0.12093282521E+02  0.96694324900E+02  0.92430936939E+02 0.  0.
         13    1    3    3    0    0  0.23795393073E+02  0.47840168614E+01 -0.27748236091E+02  0.36865747233E+02  0.10566000000E+00 0. -1.
         22    1    1    0    0    0  0.19071660583E+02 -0.17214489387E+02 -0.12093282521E+02  0.28395675100E+02  0.00000000000E+00 0.  1.
</event>
<event>
 5    1  0.1250806E-009  0.9118800E+02  0.7561462E-02  0.1125453E+00
         25   -1    0    0    0    0  0.00000000000E+00  0.00000000000E+00  0.99999998245E-14  0.12509000000E+03  0.12509000000E+03 0.  0.
        -13    1    3    3    0    0 -0.37776901530E+02 -0.21736971288E+02  0.11036145643E+02  0.44959958682E+02  0.10566000000E+00 0. -1.
         23    2    1    0    0    0 -0.79845714452E+01  0.19767128590E+02  0.18836156822E+02  0.96641914692E+02  0.92359981148E+02 0.  0.
         13    1    3    3    0    0  0.29792330085E+02  0.41504099878E+02  0.78000111789E+01  0.51681956010E+02  0.10566000000E+00 0.  1.
         22    1    1    0    0    0  0.79845714452E+01 -0.19767128590E+02 -0.18836156822E+02  0.28448085308E+02  0.00000000000E+00 0. -1.
</event>
<event>
 5    1  0.1250806E-009  0.9118800E+02  0.7561462E-02  0.1125453E+00
         25   -1    0    0    0    0  0.00000000000E+00  0.00000000000E+00  0.99999998245E-14  0.12509000000E+03  0.12509000000E+03 0.  0.
        -13    1    3    3    0    0 -0.63645864477E+00  0.23689238613E+02 -0.46136395666E+02  0.51866783926E+02  0.10566000000E+00 0.  1.
         23    2    1    0    0    0  0.19033180300E+02 -0.64884261903E+01 -0.22305915638E+02  0.95058091982E+02  0.90189386028E+02 0.  0.
         13    1    3    3    0    0  0.19669638945E+02 -0.30177664803E+02  0.23830480029E+02  0.43191308057E+02  0.10566000000E+00 0. -1.
         22    1    1    0    0    0 -0.19033180300E+02  0.64884261903E+01  0.22305915638E+02  0.30031908018E+02  0.00000000000E+00 0.  1.
</event>
<event>
 5    1  0.1250806E-009  0.9118800E+02  0.7561462E-02  0.1125453E+00
         25   -1    0    0    0    0  0.00000000000E+00  0.00000000000E+00  0.99999998245E-14  0.12509000000E+03  0.12509000000E+03 0.  0.
        -13    1    3    3    0    0 -0.43866820033E+02 -0.17839354006E+02  0.39162505721E+02  0.61451228381E+02  0.10566000000E+00 0. -1.
         23    2    1    0    0    0 -0.21679697689E+02 -0.87412766712E-01  0.18582351487E+02  0.96536178545E+02  0.92216663616E+02 0.  0.
         13    1    3    3    0    0  0.22187122344E+02  0.17751941240E+02 -0.20580154234E+02  0.35084950164E+02  0.10566000000E+00 0.  1.
         22    1    1    0    0    0  0.21679697689E+02  0.87412766712E-01 -0.18582351487E+02  0.28553821455E+02  0.00000000000E+00 0. -1.
</event>
<event>
 5    1  0.1250806E-009  0.9118800E+02  0.7561462E-02  0.1125453E+00
         25   -1    0    0    0    0  0.00000000000E+00  0.00000000000E+00  0.99999998245E-14  0.12509000000E+03  0.12509000000E+03 0.  0.
        -13    1    3    3    0    0  0.35675906784E+02  0.13396460260E+01  0.37717185623E+02  0.51934210610E+02  0.10566000000E+00 0.  1.
         23    2    1    0    0    0  0.33886175554E+01 -0.21508688274E+02  0.20878904628E+02  0.94923212656E+02  0.90002117988E+02 0.  0.
         13    1    3    3    0    0 -0.32287289229E+02 -0.22848334300E+02 -0.16838280995E+02  0.42989002046E+02  0.10566000000E+00 0. -1.
         22    1    1    0    0    0 -0.33886175554E+01  0.21508688274E+02 -0.20878904628E+02  0.30166787344E+02  0.00000000000E+00 0. -1.
</event>
<event>
 5    1  0.1250806E-009  0.9118800E+02  0.7561462E-02  0.1125453E+00
         25   -1    0    0    0    0  0.00000000000E+00  0.00000000000E+00  0.99999998245E-14  0.12509000000E+03  0.12509000000E+03 0.  0.
        -13    1    3    3    0    0 -0.12264620494E+02 -0.22922246881E+02  0.43769384956E+02  0.50907961474E+02  0.10566000000E+00 0. -1.
         23    2    1    0    0    0  0.56829419060E+01 -0.27130167587E+02  0.11456283951E+01  0.97347356174E+02  0.93310521741E+02 0.  0.
         13    1    3    3    0    0  0.17947562400E+02 -0.42079207059E+01 -0.42623756561E+02  0.46439394701E+02  0.10566000000E+00 0.  1.
         22    1    1    0    0    0 -0.56829419060E+01  0.27130167587E+02 -0.11456283951E+01  0.27742643826E+02  0.00000000000E+00 0. -1.
</event>
<event>
 5    1  0.1250806E-009  0.9118800E+02  0.7561462E-02  0.1125453E+00
         25   -1    0    0    0    0  0.00000000000E+00  0.00000000000E+00  0.99999998245E-14  0.12509000000E+03  0.12509000000E+03 0.  0.
        -13    1    3    3    0    0  0.27173676754E+02  0.11953959378E+02  0.47507336259E+02  0.56020210778E+02  0.10566000000E+00 0. -1.
         23    2    1    0    0    0  0.13132605134E+02  0.21997833841E+02  0.94982559202E+01  0.97766258001E+02  0.93870412413E+02 0.  0.
         13    1    3    3    0    0 -0.14041071620E+02  0.10043874463E+02 -0.38009080339E+02  0.41746047223E+02  0.10566000000E+00 0.  1.
         22    1    1    0    0    0 -0.13132605134E+02 -0.21997833841E+02 -0.94982559202E+01  0.27323741999E+02  0.00000000000E+00 0. -1.
</event>
<event>
 5    1  0.1250806E-009  0.9118800E+02  0.7561462E-02  0.1125453E+00
         25   -1    0    0    0    0  0.00000000000E+00  0.00000000000E+00  0.99999998245E-14  0.12509000000E+03  0.12509000000E+03 0.  0.
        -13    1    3    3    0    0 -0.32054787052E+02  0.12532333403E+02 -0.98466533166E+01  0.35798554426E+02  0.10566000000E+00 0.  1.
         23    2    1    0    0    0  0.26507865903E+02 -0.57562080422E+01 -0.62364653102E+01  0.97256667729E+02  0.93188867535E+02 0.  0.
         13    1    3    3    0    0  0.58562652954E+02 -0.18288541445E+02  0.36101880065E+01  0.61458113303E+02  0.10566000000E+00 0. -1.
         22    1    1    0    0    0 -0.26507865903E+02  0.57562080422E+01  0.62364653102E+01  0.27833332271E+02  0.00000000000E+00 0. -1.
</event>
<event>
 5    1  0.1250806E-009  0.9118800E+02  0.7561462E-02  0.1125453E+00
         25   -1    0    0    0    0  0.00000000000E+00  0.00000000000E+00  0.99999998245E-14  0.12509000000E+03  0.12509000000E+03 0.  0.
        -13    1    3    3    0    0  0.31789149614E+02  0.36251386743E+01  0.11866544174E+02  0.34125030378E+02  0.10566000000E+00 0.  1.
         23    2    1    0    0    0 -0.18286467716E+02 -0.45611018461E+01 -0.22748888287E+02  0.95548326556E+02  0.90866782917E+02 0.  0.
         13    1    3    3    0    0 -0.50075617331E+02 -0.81862405204E+01 -0.34615432461E+02  0.61423296178E+02  0.10566000000E+00 0. -1.
         22    1    1    0    0    0  0.18286467716E+02  0.45611018461E+01  0.22748888287E+02  0.29541673444E+02  0.00000000000E+00 0. -1.
</event>
<event>
 5    1  0.1250806E-009  0.9118800E+02  0.7561462E-02  0.1125453E+00
         25   -1    0    0    0    0  0.00000000000E+00  0.00000000000E+00  0.99999998245E-14  0.12509000000E+03  0.12509000000E+03 0.  0.
        -13    1    3    3    0    0  0.42705280554E+02  0.25255463412E+02 -0.26107582354E+02  0.56064217107E+02  0.10566000000E+00 0. -1.
         23    2    1    0    0    0  0.22462842132E+02 -0.74605861977E+01 -0.17930673739E+02  0.95395746620E+02  0.90656493366E+02 0.  0.
         13    1    3    3    0    0 -0.20242438422E+02 -0.32716049610E+02  0.81769086155E+01  0.39331529514E+02  0.10566000000E+00 0.  1.
         22    1    1    0    0    0 -0.22462842132E+02  0.74605861977E+01  0.17930673739E+02  0.29694253380E+02  0.00000000000E+00 0. -1.
</event>
<event>
 5    1  0.1250806E-009  0.9118800E+02  0.7561462E-02  0.1125453E+00
         25   -1    0    0    0    0  0.00000000000E+00  0.00000000000E+00  0.99999998245E-14  0.12509000000E+03  0.12509000000E+03 0.  0.
        -13    1    3    3    0    0 -0.29612752221E+02 -0.11492364375E+01  0.15170232737E+02  0.33292385974E+02  0.10566000000E+00 0.  1.
         23    2    1    0    0    0  0.27502924583E+02  0.11365976645E+02 -0.45202391720E+01  0.94989686914E+02  0.90094460274E+02 0.  0.
         13    1    3    3    0    0  0.57115676804E+02  0.12515213082E+02 -0.19690471909E+02  0.61697300940E+02  0.10566000000E+00 0. -1.
         22    1    1    0    0    0 -0.27502924583E+02 -0.11365976645E+02  0.45202391720E+01  0.30100313086E+02  0.00000000000E+00 0. -1.
</event>
<event>
 5    1  0.1250806E-009  0.9118800E+02  0.7561462E-02  0.1125453E+00
         25   -1    0    0    0    0  0.00000000000E+00  0.00000000000E+00  0.99999998245E-14  0.12509000000E+03  0.12509000000E+03 0.  0.
        -13    1    3    3    0    0  0.26233024842E+02 -0.20633538555E+02 -0.29992771600E+02  0.44871951350E+02  0.10566000000E+00 0. -1.
         23    2    1    0    0    0 -0.12330927791E+02  0.10607613904E+02 -0.25683210276E+02  0.94689333182E+02  0.89676470021E+02 0.  0.
         13    1    3    3    0    0 -0.38563952634E+02  0.31241152459E+02  0.43095613244E+01  0.49817381831E+02  0.10566000000E+00 0.  1.
         22    1    1    0    0    0  0.12330927791E+02 -0.10607613904E+02  0.25683210276E+02  0.30400666818E+02  0.00000000000E+00 0.  1.
</event>
<event>
 5    1  0.1250806E-009  0.9118800E+02  0.7561462E-02  0.1125453E+00
         25   -1    0    0    0    0  0.00000000000E+00  0.00000000000E+00  0.99999998245E-14  0.12509000000E+03  0.12509000000E+03 0.  0.
        -13    1    3    3    0    0 -0.43746567727E+02 -0.99882135085E+01 -0.20551957650E+02  0.49355047607E+02  0.10566000000E+00 0. -1.
         23    2    1    0    0    0 -0.18770363242E+02 -0.12943092733E+02  0.18447856399E+02  0.95761283843E+02  0.91159475052E+02 0.  0.
         13    1    3    3    0    0  0.24976204485E+02 -0.29548792242E+01  0.38999814048E+02  0.46406236236E+02  0.10566000000E+00 0.  1.
         22    1    1    0    0    0  0.18770363242E+02  0.12943092733E+02 -0.18447856399E+02  0.29328716157E+02  0.00000000000E+00 0. -1.
</event>
<event>
 5    1  0.1250806E-009  0.9118800E+02  0.7561462E-02  0.1125453E+00
         25   -1    0    0    0    0  0.00000000000E+00  0.00000000000E+00  0.99999998245E-14  0.12509000000E+03  0.12509000000E+03 0.  0.
        -13    1    3    3    0    0  0.63664272522E+01  0.12629696101E+02  0.36871523295E+02  0.39491277691E+02  0.10566000000E+00 0. -1.
         23    2    1    0    0    0 -0.27444449389E+02 -0.86589725326E+01 -0.32683184291E+01  0.96126962988E+02  0.91659890358E+02 0.  0.
         13    1    3    3    0    0 -0.33810876641E+02 -0.21288668634E+02 -0.40139841724E+02  0.56635685297E+02  0.10566000000E+00 0.  1.
         22    1    1    0    0    0  0.27444449389E+02  0.86589725326E+01  0.32683184291E+01  0.28963037012E+02  0.00000000000E+00 0.  1.
</event>
<event>
 5    1  0.1250806E-009  0.9118800E+02  0.7561462E-02  0.1125453E+00
         25   -1    0    0    0    0  0.00000000000E+00  0.00000000000E+00  0.99999998245E-14  0.12509000000E+03  0.12509000000E+03 0.  0.
        -13    1    3    3    0    0 -0.16530074055E+02 -0.41198712494E+01 -0.28771318266E+02  0.33436755318E+02  0.10566000000E+00 0.  1.
         23    2    1    0    0    0  0.17250422809E+01  0.22144302340E+01  0.29823077361E+02  0.95135110326E+02  0.90296144997E+02 0.  0.
         13    1    3    3    0    0  0.18255116336E+02  0.63343014834E+01  0.58594395627E+02  0.61698355008E+02  0.10566000000E+00 0. -1.
         22    1    1    0    0    0 -0.17250422809E+01 -0.22144302340E+01 -0.29823077361E+02  0.29954889674E+02  0.00000000000E+00 0. -1.
</event>
<event>
 5    1  0.1250806E-009  0.9118800E+02  0.7561462E-02  0.1125453E+00
         25   -1    0    0    0    0  0.00000000000E+00  0.00000000000E+00  0.99999998245E-14  0.12509000000E+03  0.12509000000E+03 0.  0.
        -13    1    3    3    0    0 -0.15396240424E+02 -0.19341119019E+02 -0.24205378573E+02  0.34598188103E+02  0.10566000000E+00 0. -1.
         23    2    1    0    0    0  0.14653612648E+02  0.40251073676E+01  0.24405784624E+02  0.96339831721E+02  0.91949937466E+02 0.  0.
         13    1    3    3    0    0  0.30049853071E+02  0.23366226387E+02  0.48611163198E+02  0.61741643618E+02  0.10566000000E+00 0.  1.
         22    1    1    0    0    0 -0.14653612648E+02 -0.40251073676E+01 -0.24405784624E+02  0.28750168279E+02  0.00000000000E+00 0.  1.
</event>
<event>
 5    1  0.1250806E-009  0.9118800E+02  0.7561462E-02  0.1125453E+00
         25   -1    0    0    0    0  0.00000000000E+00  0.00000000000E+00  0.99999998245E-14  0.12509000000E+03  0.12509000000E+03 0.  0.
        -13    1    3    3    0    0 -0.16927981176E+02  0.39982360164E+02  0.28187852947E+02  0.51765933670E+02  0.10566000000E+00 0. -1.
         23    2    1    0    0    0 -0.27950826800E+02  0.10016238298E+02 -0.14947199111E+01  0.95361092585E+02  0.90608664282E+02 0.  0.
         13    1    3    3    0    0 -0.11022845624E+02 -0.29966121866E+02 -0.29682572858E+02  0.43595158915E+02  0.10566000000E+00 0.  1.
         22    1    1    0    0    0  0.27950826800E+02 -0.10016238298E+02  0.14947199111E+01  0.29728907415E+02  0.00000000000E+00 0. -1.
</event>
<event>
 5    1  0.1250806E-009  0.9118800E+02  0.7561462E-02  0.1125453E+00
         25   -1    0    0    0    0  0.00000000000E+00  0.00000000000E+00  0.99999998245E-14  0.12509000000E+03  0.12509000000E+03 0.  0.
        -13    1    3    3    0    0 -0.55071617339E+02 -0.12550176976E+02  0.77653291301E+01  0.57014923301E+02  0.10566000000E+00 0.  1.
         23    2    1    0    0    0 -0.23629354338E+02  0.94783918733E+01  0.14194743852E+02  0.95940779565E+02  0.91405449135E+02 0.  0.
         13    1    3    3    0    0  0.31442263001E+02  0.22028568850E+02  0.64294147214E+01  0.38925856264E+02  0.10566000000E+00 0. -1.
         22    1    1    0    0    0  0.23629354338E+02 -0.94783918733E+01 -0.14194743852E+02  0.29149220435E+02  0.00000000000E+00 0.  1.
</event>
<event>
 5    1  0.1250806E-009  0.9118800E+02  0.7561462E-02  0.1125453E+00
         25   -1    0    0    0    0  0.00000000000E+00  0.00000000000E+00  0.99999998245E-14  0.12509000000E+03  0.12509000000E+03 0.  0.
        -13    1    3    3    0    0  0.48325777998E+02  0.83688867965E+01  0.33551179853E+02  0.59423159786E+02  0.10566000000E+00 0. -1.
         23    2    1    0    0    0  0.16038243381E+02 -0.56017745322E+01  0.23650541774E+02  0.95970363071E+02  0.91445925732E+02 0.  0.
         13    1    3    3    0    0 -0.32287534616E+02 -0.13970661329E+02 -0.99006380792E+01  0.36547203285E+02  0.10566000000E+00 0.  1.
         22    1    1    0    0    0 -0.16038243381E+02  0.56017745322E+01 -0.23650541774E+02  0.29119636929E+02  0.00000000000E+00 0. -1.
</event>
<event>
 5    1  0.1250806E-009  0.9118800E+02  0.7561462E-02  0.1125453E+00
         25   -1    0    0    0    0  0.00000000000E+00  0.00000000000E+00  0.99999998245E-14  0.12509000000E+03  0.12509000000E+03 0.  0.
        -13    1    3    3    0    0  0.23854528096E+02  0.39064712658E+02  0.19071669902E+02  0.49586591359E+02  0.10566000000E+00 0. -1.
         23    2    1    0    0    0  0.13906617933E+02  0.17968540330E+02 -0.19821748551E+02  0.94937650514E+02  0.90022182297E+02 0.  0.
         13    1    3    3    0    0 -0.99479101634E+01 -0.21096172327E+02 -0.38893418453E+02  0.45351059155E+02  0.10566000000E+00 0.  1.
         22    1    1    0    0    0 -0.13906617933E+02 -0.17968540330E+02  0.19821748551E+02  0.30152349486E+02  0.00000000000E+00 0. -1.
</event>
<event>
 5    1  0.1250806E-009  0.9118800E+02  0.7561462E-02  0.1125453E+00
         25   -1    0    0    0    0  0.00000000000E+00  0.00000000000E+00  0.99999998245E-14  0.12509000000E+03  0.12509000000E+03 0.  0.
        -13    1    3    3    0    0  0.52815256388E+01  0.17742548119E+02 -0.11098573814E+02  0.21584300581E+02  0.10566000000E+00 0.  1.
         23    2    1    0    0    0 -0.32057101214E+02 -0.24216180307E+02  0.13227626681E+02  0.82792822381E+02  0.71173030027E+02 0.  0.
         13    1    3    3    0    0 -0.37338626853E+02 -0.41958728426E+02  0.24326200495E+02  0.61208521800E+02  0.10566000000E+00 0. -1.
         22    1    1    0    0    0  0.32057101214E+02  0.24216180307E+02 -0.13227626681E+02  0.42297177619E+02  0.00000000000E+00 0. -1.
</event>
<event>
 5    1  0.1250806E-009  0.9118800E+02  0.7561462E-02  0.1125453E+00
         25   -1    0    0    0    0  0.00000000000E+00  0.00000000000E+00  0.99999998245E-14  0.12509000000E+03  0.12509000000E+03 0.  0.
        -13    1    3    3    0    0 -0.28296406182E+01 -0.27560474304E+02 -0.21609586998E+02  0.35136477117E+02  0.10566000000E+00 0.  1.
         23    2    1    0    0    0  0.13261487561E+02  0.27185776427E+02 -0.68622916095E+01  0.94073479590E+02  0.88813259279E+02 0.  0.
         13    1    3    3    0    0  0.16091128179E+02  0.54746250731E+02  0.14747295389E+02  0.58937002473E+02  0.10566000000E+00 0. -1.
         22    1    1    0    0    0 -0.13261487561E+02 -0.27185776427E+02  0.68622916095E+01  0.31016520410E+02  0.00000000000E+00 0. -1.
</event>
<event>
 5    1  0.1250806E-009  0.9118800E+02  0.7561462E-02  0.1125453E+00
         25   -1    0    0    0    0  0.00000000000E+00  0.00000000000E+00  0.99999998245E-14  0.12509000000E+03  0.12509000000E+03 0.  0.
        -13    1    3    3    0    0 -0.27215403364E+02  0.13672583068E+02  0.84878344398E+01  0.31617593291E+02  0.10566000000E+00 0.  1.
         23    2    1    0    0    0  0.31120211406E+02 -0.33632964193E+01 -0.36058574086E+01  0.93581564170E+02  0.88117691891E+02 0.  0.
         13    1    3    3    0    0  0.58335614771E+02 -0.17035879487E+02 -0.12093691848E+02  0.61963970879E+02  0.10566000000E+00 0. -1.
         22    1    1    0    0    0 -0.31120211406E+02  0.33632964193E+01  0.36058574086E+01  0.31508435830E+02  0.00000000000E+00 0. -1.
</event>
<event>
 5    1  0.1250806E-009  0.9118800E+02  0.7561462E-02  0.1125453E+00
         25   -1    0    0    0    0  0.00000000000E+00  0.00000000000E+00  0.99999998245E-14  0.12509000000E+03  0.12509000000E+03 0.  0.
        -13    1    3    3    0    0  0.33065017034E+02 -0.39387812686E+02  0.29782171239E+02  0.59427973441E+02  0.10566000000E+00 0.  1.
         23    2    1    0    0    0  0.56793686753E+01 -0.17445874798E+02  0.23821047108E+02  0.95022474972E+02  0.90139972756E+02 0.  0.
         13    1    3    3    0    0 -0.27385648358E+02  0.21941937888E+02 -0.59611241316E+01  0.35594501531E+02  0.10566000000E+00 0. -1.
         22    1    1    0    0    0 -0.56793686753E+01  0.17445874798E+02 -0.23821047108E+02  0.30067525028E+02  0.00000000000E+00 0.  1.
</event>
<event>
 5    1  0.1250806E-009  0.9118800E+02  0.7561462E-02  0.1125453E+00
         25   -1    0    0    0    0  0.00000000000E+00  0.00000000000E+00  0.99999998245E-14  0.12509000000E+03  0.12509000000E+03 0.  0.
        -13    1    3    3    0    0 -0.81415958039E+01 -0.11298651627E+02 -0.59219367819E+02  0.60834938972E+02  0.10566000000E+00 0. -1.
         23    2    1    0    0    0 -0.40374073362E+01  0.50924274725E+01 -0.28124863283E+02  0.96224078739E+02  0.91792330393E+02 0.  0.
         13    1    3    3    0    0  0.41041884676E+01  0.16391079099E+02  0.31094504537E+02  0.35389139767E+02  0.10566000000E+00 0.  1.
         22    1    1    0    0    0  0.40374073362E+01 -0.50924274725E+01  0.28124863283E+02  0.28865921261E+02  0.00000000000E+00 0. -1.
</event>
<event>
 5    1  0.1250806E-009  0.9118800E+02  0.7561462E-02  0.1125453E+00
         25   -1    0    0    0    0  0.00000000000E+00  0.00000000000E+00  0.99999998245E-14  0.12509000000E+03  0.12509000000E+03 0.  0.
        -13    1    3    3    0    0 -0.21143142545E+02  0.54158853737E+02 -0.30393760484E+01  0.58219093823E+02  0.10566000000E+00 0. -1.
         23    2    1    0    0    0 -0.40715705633E+01  0.23353716122E+02 -0.16803575579E+02  0.96032575892E+02  0.91530987849E+02 0.  0.
         13    1    3    3    0    0  0.17071571982E+02 -0.30805137615E+02 -0.13764199531E+02  0.37813482069E+02  0.10566000000E+00 0.  1.
         22    1    1    0    0    0  0.40715705633E+01 -0.23353716122E+02  0.16803575579E+02  0.29057424108E+02  0.00000000000E+00 0. -1.
</event>
<event>
 5    1  0.1250806E-009  0.9118800E+02  0.7561462E-02  0.1125453E+00
         25   -1    0    0    0    0  0.00000000000E+00  0.00000000000E+00  0.99999998245E-14  0.12509000000E+03  0.12509000000E+03 0.  0.
        -13    1    3    3    0    0  0.10060799542E+02 -0.26409373663E+01 -0.50829547652E+02  0.51883025318E+02  0.10566000000E+00 0.  1.
         23    2    1    0    0    0  0.65596950914E+01 -0.26097901488E+02 -0.16784094492E+02  0.93375084114E+02  0.87824088060E+02 0.  0.
         13    1    3    3    0    0 -0.35011044510E+01 -0.23456964121E+02  0.34045453160E+02  0.41492058795E+02  0.10566000000E+00 0. -1.
         22    1    1    0    0    0 -0.65596950914E+01  0.26097901488E+02  0.16784094492E+02  0.31714915886E+02  0.00000000000E+00 0.  1.
</event>
<event>
 5    1  0.1250806E-009  0.9118800E+02  0.7561462E-02  0.1125453E+00
         25   -1    0    0    0    0  0.00000000000E+00  0.00000000000E+00  0.99999998245E-14  0.12509000000E+03  0.12509000000E+03 0.  0.
        -13    1    3    3    0    0  0.10815386304E+02  0.19027429246E+02  0.29096547900E+02  0.36409283271E+02  0.10566000000E+00 0. -1.
         23    2    1    0    0    0 -0.20350478826E+02  0.71148197727E+00 -0.19445952342E+02  0.96933415379E+02  0.92753942016E+02 0.  0.
         13    1    3    3    0    0 -0.31165865130E+02 -0.18315947268E+02 -0.48542500241E+02  0.60524132108E+02  0.10566000000E+00 0.  1.
         22    1    1    0    0    0  0.20350478826E+02 -0.71148197727E+00  0.19445952342E+02  0.28156584621E+02  0.00000000000E+00 0.  1.
</event>
<event>
 5    1  0.1250806E-009  0.9118800E+02  0.7561462E-02  0.1125453E+00
         25   -1    0    0    0    0  0.00000000000E+00  0.00000000000E+00  0.99999998245E-14  0.12509000000E+03  0.12509000000E+03 0.  0.
        -13    1    3    3    0    0 -0.34562005578E+02 -0.11055709909E+02 -0.32843797126E+02  0.48943713844E+02  0.10566000000E+00 0.  1.
         23    2    1    0    0    0  0.56696647809E+01  0.12196922832E+02 -0.25870249332E+02  0.95932156702E+02  0.91393647830E+02 0.  0.
         13    1    3    3    0    0  0.40231670359E+02  0.23252632741E+02  0.69735477934E+01  0.46988442857E+02  0.10566000000E+00 0. -1.
         22    1    1    0    0    0 -0.56696647809E+01 -0.12196922832E+02  0.25870249332E+02  0.29157843298E+02  0.00000000000E+00 0.  1.
</event>
<event>
 5    1  0.1250806E-009  0.9118800E+02  0.7561462E-02  0.1125453E+00
         25   -1    0    0    0    0  0.00000000000E+00  0.00000000000E+00  0.99999998245E-14  0.12509000000E+03  0.12509000000E+03 0.  0.
        -13    1    3    3    0    0 -0.16150567247E+02 -0.27719146403E+02  0.53659380590E+02  0.62518254847E+02  0.10566000000E+00 0. -1.
         23    2    1    0    0    0 -0.88547034992E+01 -0.13366239550E+02  0.25012361600E+02  0.95380062831E+02  0.90634849915E+02 0.  0.
         13    1    3    3    0    0  0.72958637474E+01  0.14352906853E+02 -0.28647018990E+02  0.32861807985E+02  0.10566000000E+00 0.  1.
         22    1    1    0    0    0  0.88547034992E+01  0.13366239550E+02 -0.25012361600E+02  0.29709937169E+02  0.00000000000E+00 0. -1.
</event>
<event>
 5    1  0.1250806E-009  0.9118800E+02  0.7561462E-02  0.1125453E+00
         25   -1    0    0    0    0  0.00000000000E+00  0.00000000000E+00  0.99999998245E-14  0.12509000000E+03  0.12509000000E+03 0.  0.
        -13    1    3    3    0    0  0.53800403807E+02 -0.13055082139E+02 -0.39756929512E+01  0.55504377466E+02  0.10566000000E+00 0. -1.
         23    2    1    0    0    0  0.28140538256E+02  0.14631175732E+02 -0.13482253591E+01  0.93344466326E+02  0.87780467562E+02 0.  0.
         13    1    3    3    0    0 -0.25659865550E+02  0.27686257871E+02  0.26274675921E+01  0.37840088860E+02  0.10566000000E+00 0.  1.
         22    1    1    0    0    0 -0.28140538256E+02 -0.14631175732E+02  0.13482253591E+01  0.31745533674E+02  0.00000000000E+00 0. -1.
</event>
<event>
 5    1  0.1250806E-009  0.9118800E+02  0.7561462E-02  0.1125453E+00
         25   -1    0    0    0    0  0.00000000000E+00  0.00000000000E+00  0.99999998245E-14  0.12509000000E+03  0.12509000000E+03 0.  0.
        -13    1    3    3    0    0  0.22100447014E+02 -0.10054861174E+02  0.23316146461E+01  0.24392162314E+02  0.10566000000E+00 0. -1.
         23    2    1    0    0    0 -0.37210377269E+02  0.51856926914E+00  0.13187556737E+02  0.85608450597E+02  0.75960608675E+02 0.  0.
         13    1    3    3    0    0 -0.59310824283E+02  0.10573430444E+02  0.10855942091E+02  0.61216288283E+02  0.10566000000E+00 0.  1.
         22    1    1    0    0    0  0.37210377269E+02 -0.51856926914E+00 -0.13187556737E+02  0.39481549403E+02  0.00000000000E+00 0.  1.
</event>
<event>
 5    1  0.1250806E-009  0.9118800E+02  0.7561462E-02  0.1125453E+00
         25   -1    0    0    0    0  0.00000000000E+00  0.00000000000E+00  0.99999998245E-14  0.12509000000E+03  0.12509000000E+03 0.  0.
        -13    1    3    3    0    0  0.47072578039E+02 -0.29720350027E+02  0.14391139241E+02  0.57499937927E+02  0.10566000000E+00 0. -1.
         23    2    1    0    0    0  0.11581864771E+02 -0.28220750733E+02  0.73115046235E+01  0.93721090817E+02  0.88315538840E+02 0.  0.
         13    1    3    3    0    0 -0.35490713268E+02  0.14995992938E+01 -0.70796346172E+01  0.36221152890E+02  0.10566000000E+00 0.  1.
         22    1    1    0    0    0 -0.11581864771E+02  0.28220750733E+02 -0.73115046235E+01  0.31368909183E+02  0.00000000000E+00 0. -1.
</event>
<event>
 5    1  0.1250806E-009  0.9118800E+02  0.7561462E-02  0.1125453E+00
         25   -1    0    0    0    0  0.00000000000E+00  0.00000000000E+00  0.99999998245E-14  0.12509000000E+03  0.12509000000E+03 0.  0.
        -13    1    3    3    0    0 -0.28858136458E+02 -0.49099748928E+02 -0.54394029915E+01  0.57211674102E+02  0.10566000000E+00 0.  1.
         23    2    1    0    0    0 -0.20813544361E+02 -0.17374864932E+02  0.13262769720E+02  0.94907378826E+02  0.89980108550E+02 0.  0.
         13    1    3    3    0    0  0.80445920969E+01  0.31724883995E+02  0.18702172712E+02  0.37695704725E+02  0.10566000000E+00 0. -1.
         22    1    1    0    0    0  0.20813544361E+02  0.17374864932E+02 -0.13262769720E+02  0.30182621174E+02  0.00000000000E+00 0.  1.
</event>
<event>
 5    1  0.1250806E-009  0.9118800E+02  0.7561462E-02  0.1125453E+00
         25   -1    0    0    0    0  0.00000000000E+00  0.00000000000E+00  0.99999998245E-14  0.12509000000E+03  0.12509000000E+03 0.  0.
        -13    1    3    3    0    0  0.19603779413E+02  0.13197069658E+02 -0.54153963440E+02  0.59085816700E+02  0.10566000000E+00 0.  1.
         23    2    1    0    0    0 -0.40174863654E+01  0.12352321568E+02 -0.27279970186E+02  0.94875486631E+02  0.89935761215E+02 0.  0.
         13    1    3    3    0    0 -0.23621265779E+02 -0.84474808978E+00  0.26873993254E+02  0.35789669931E+02  0.10566000000E+00 0. -1.
         22    1    1    0    0    0  0.40174863654E+01 -0.12352321568E+02  0.27279970186E+02  0.30214513369E+02  0.00000000000E+00 0.  1.
</event>
<event>
 5    1  0.1250806E-009  0.9118800E+02  0.7561462E-02  0.1125453E+00
         25   -1    0    0    0    0  0.00000000000E+00  0.00000000000E+00  0.99999998245E-14  0.12509000000E+03  0.12509000000E+03 0.  0.
        -13    1    3    3    0    0 -0.74924360913E+01  0.33260024087E+02  0.11980774916E+02  0.36137458854E+02  0.10566000000E+00 0.  1.
         23    2    1    0    0    0 -0.51008058543E+01 -0.19610597603E+02 -0.18873028226E+02  0.97399117870E+02  0.93379886532E+02 0.  0.
         13    1    3    3    0    0  0.23916302370E+01 -0.52870621690E+02 -0.30853803141E+02  0.61261659016E+02  0.10566000000E+00 0. -1.
         22    1    1    0    0    0  0.51008058543E+01  0.19610597603E+02  0.18873028226E+02  0.27690882130E+02  0.00000000000E+00 0. -1.
</event>
<event>
 5    1  0.1250806E-009  0.9118800E+02  0.7561462E-02  0.1125453E+00
         25   -1    0    0    0    0  0.00000000000E+00  0.00000000000E+00  0.99999998245E-14  0.12509000000E+03  0.12509000000E+03 0.  0.
        -13    1    3    3    0    0  0.14422222131E+02  0.34043074928E+02 -0.49314928927E+02  0.61635256314E+02  0.10566000000E+00 0.  1.
         23    2    1    0    0    0  0.31676170981E+00  0.12216651434E+02 -0.25177576694E+02  0.97103266028E+02  0.92982724174E+02 0.  0.
         13    1    3    3    0    0 -0.14105460421E+02 -0.21826423493E+02  0.24137352234E+02  0.35468009714E+02  0.10566000000E+00 0. -1.
         22    1    1    0    0    0 -0.31676170981E+00 -0.12216651434E+02  0.25177576694E+02  0.27986733972E+02  0.00000000000E+00 0.  1.
</event>
<event>
 5    1  0.1250806E-009  0.9118800E+02  0.7561462E-02  0.1125453E+00
         25   -1    0    0    0    0  0.00000000000E+00  0.00000000000E+00  0.99999998245E-14  0.12509000000E+03  0.12509000000E+03 0.  0.
        -13    1    3    3    0    0 -0.59456218698E+02  0.40224252917E+01  0.12479853462E+02  0.60884971492E+02  0.10566000000E+00 0.  1.
         23    2    1    0    0    0 -0.28214312850E+02  0.47324766785E+01 -0.39818241747E+01  0.96205770585E+02  0.91767377564E+02 0.  0.
         13    1    3    3    0    0  0.31241905847E+02  0.71005138682E+00 -0.16461677637E+02  0.35320799093E+02  0.10566000000E+00 0. -1.
         22    1    1    0    0    0  0.28214312850E+02 -0.47324766785E+01  0.39818241747E+01  0.28884229415E+02  0.00000000000E+00 0.  1.
</event>
<event>
 5    1  0.1250806E-009  0.9118800E+02  0.7561462E-02  0.1125453E+00
         25   -1    0    0    0    0  0.00000000000E+00  0.00000000000E+00  0.99999998245E-14  0.12509000000E+03  0.12509000000E+03 0.  0.
        -13    1    3    3    0    0 -0.31346648170E+02  0.27840084070E+02 -0.18962279683E+02  0.46013713688E+02  0.10566000000E+00 0. -1.
         23    2    1    0    0    0  0.13144917859E+02  0.95708067206E+01 -0.25799747057E+02  0.94593833766E+02  0.89543158485E+02 0.  0.
         13    1    3    3    0    0  0.44491566029E+02 -0.18269277350E+02 -0.68374673736E+01  0.48580120077E+02  0.10566000000E+00 0.  1.
         22    1    1    0    0    0 -0.13144917859E+02 -0.95708067206E+01  0.25799747057E+02  0.30496166234E+02  0.00000000000E+00 0. -1.
</event>
<event>
 5    1  0.1250806E-009  0.9118800E+02  0.7561462E-02  0.1125453E+00
         25   -1    0    0    0    0  0.00000000000E+00  0.00000000000E+00  0.99999998245E-14  0.12509000000E+03  0.12509000000E+03 0.  0.
        -13    1    3    3    0    0 -0.12351774169E+02 -0.33035179900E+02  0.14713752741E+02  0.38215116379E+02  0.10566000000E+00 0. -1.
         23    2    1    0    0    0 -0.85519374149E+01  0.19917309294E+02 -0.14692515370E+02  0.98904033320E+02  0.95374540397E+02 0.  0.
         13    1    3    3    0    0  0.37998367543E+01  0.52952489194E+02 -0.29406268111E+02  0.60688916941E+02  0.10566000000E+00 0.  1.
         22    1    1    0    0    0  0.85519374149E+01 -0.19917309294E+02  0.14692515370E+02  0.26185966680E+02  0.00000000000E+00 0.  1.
</event>
<event>
 5    1  0.1250806E-009  0.9118800E+02  0.7561462E-02  0.1125453E+00
         25   -1    0    0    0    0  0.00000000000E+00  0.00000000000E+00  0.99999998245E-14  0.12509000000E+03  0.12509000000E+03 0.  0.
        -13    1    3    3    0    0  0.30016354639E+02 -0.20061974370E+02 -0.33541127629E+02  0.49279638474E+02  0.10566000000E+00 0.  1.
         23    2    1    0    0    0  0.19192487037E+02 -0.25200520526E+02  0.79205672287E+01  0.92437998857E+02  0.86479075238E+02 0.  0.
         13    1    3    3    0    0 -0.10823867602E+02 -0.51385461562E+01  0.41461694858E+02  0.43158360383E+02  0.10566000000E+00 0. -1.
         22    1    1    0    0    0 -0.19192487037E+02  0.25200520526E+02 -0.79205672287E+01  0.32652001143E+02  0.00000000000E+00 0. -1.
</event>
<event>
 5    1  0.1250806E-009  0.9118800E+02  0.7561462E-02  0.1125453E+00
         25   -1    0    0    0    0  0.00000000000E+00  0.00000000000E+00  0.99999998245E-14  0.12509000000E+03  0.12509000000E+03 0.  0.
        -13    1    3    3    0    0 -0.44012225186E+02  0.55464804685E+01  0.42029630179E+02  0.61109249615E+02  0.10566000000E+00 0.  1.
         23    2    1    0    0    0 -0.17809092433E+02 -0.66888299452E+01  0.20196788961E+02  0.97344468762E+02  0.93306650861E+02 0.  0.
         13    1    3    3    0    0  0.26203132754E+02 -0.12235310414E+02 -0.21832841217E+02  0.36235219148E+02  0.10566000000E+00 0. -1.
         22    1    1    0    0    0  0.17809092433E+02  0.66888299452E+01 -0.20196788961E+02  0.27745531238E+02  0.00000000000E+00 0.  1.
</event>
<event>
 5    1  0.1250806E-009  0.9118800E+02  0.7561462E-02  0.1125453E+00
         25   -1    0    0    0    0  0.00000000000E+00  0.00000000000E+00  0.99999998245E-14  0.12509000000E+03  0.12509000000E+03 0.  0.
        -13    1    3    3    0    0 -0.25541480968E+02 -0.24104658447E+02 -0.87791059154E+01  0.36200630845E+02  0.10566000000E+00 0. -1.
         23    2    1    0    0    0  0.14067663757E+02 -0.48840298576E+01  0.27874095157E+02  0.93487498643E+02  0.87984057138E+02 0.  0.
         13    1    3    3    0    0  0.39609144725E+02  0.19220628590E+02  0.36653201072E+02  0.57286867798E+02  0.10566000000E+00 0.  1.
         22    1    1    0    0    0 -0.14067663757E+02  0.48840298576E+01 -0.27874095157E+02  0.31602501357E+02  0.00000000000E+00 0.  1.
</event>
<event>
 5    1  0.1250806E-009  0.9118800E+02  0.7561462E-02  0.1125453E+00
         25   -1    0    0    0    0  0.00000000000E+00  0.00000000000E+00  0.99999998245E-14  0.12509000000E+03  0.12509000000E+03 0.  0.
        -13    1    3    3    0    0 -0.15030073510E+02 -0.30015388931E+02 -0.49035721956E+02  0.59425077823E+02  0.10566000000E+00 0.  1.
         23    2    1    0    0    0 -0.10238934024E+02 -0.18797038916E+02 -0.79944165468E+01  0.10224103639E+03  0.99655177412E+02 0.  0.
         13    1    3    3    0    0  0.47911394854E+01  0.11218350016E+02  0.41041305409E+02  0.42815958571E+02  0.10566000000E+00 0. -1.
         22    1    1    0    0    0  0.10238934024E+02  0.18797038916E+02  0.79944165468E+01  0.22848963606E+02  0.00000000000E+00 0.  1.
</event>
<event>
 5    1  0.1250806E-009  0.9118800E+02  0.7561462E-02  0.1125453E+00
         25   -1    0    0    0    0  0.00000000000E+00  0.00000000000E+00  0.99999998245E-14  0.12509000000E+03  0.12509000000E+03 0.  0.
        -13    1    3    3    0    0 -0.17438706058E+01 -0.45708232034E+02  0.25487043688E+02  0.52363003355E+02  0.10566000000E+00 0. -1.
         23    2    1    0    0    0 -0.23520613940E+02 -0.13210733372E+02  0.19185665262E+02  0.91986639024E+02  0.85823710308E+02 0.  0.
         13    1    3    3    0    0 -0.21776743334E+02  0.32497498662E+02 -0.63013784254E+01  0.39623635669E+02  0.10566000000E+00 0.  1.
         22    1    1    0    0    0  0.23520613940E+02  0.13210733372E+02 -0.19185665262E+02  0.33103360976E+02  0.00000000000E+00 0.  1.
</event>
<event>
 5    1  0.1250806E-009  0.9118800E+02  0.7561462E-02  0.1125453E+00
         25   -1    0    0    0    0  0.00000000000E+00  0.00000000000E+00  0.99999998245E-14  0.12509000000E+03  0.12509000000E+03 0.  0.
        -13    1    3    3    0    0  0.12696053415E+02 -0.35254282032E+02 -0.22661897122E+02  0.43790717271E+02  0.10566000000E+00 0.  1.
         23    2    1    0    0    0 -0.25560456106E+02 -0.42454324062E+00 -0.12957594125E+02  0.96429637148E+02  0.92072028986E+02 0.  0.
         13    1    3    3    0    0 -0.38256509521E+02  0.34829738792E+02  0.97043029965E+01  0.52638919876E+02  0.10566000000E+00 0. -1.
         22    1    1    0    0    0  0.25560456106E+02  0.42454324062E+00  0.12957594125E+02  0.28660362852E+02  0.00000000000E+00 0. -1.
</event>
<event>
 5    1  0.1250806E-009  0.9118800E+02  0.7561462E-02  0.1125453E+00
         25   -1    0    0    0    0  0.00000000000E+00  0.00000000000E+00  0.99999998245E-14  0.12509000000E+03  0.12509000000E+03 0.  0.
        -13    1    3    3    0    0  0.33076836969E+02  0.18374371593E+02 -0.19417560268E+02  0.42529372040E+02  0.10566000000E+00 0. -1.
         23    2    1    0    0    0  0.96256986571E+01 -0.23920802368E+02  0.79623821796E+01  0.98103737003E+02  0.94319058643E+02 0.  0.
         13    1    3    3    0    0 -0.23451138312E+02 -0.42295173962E+02  0.27379942448E+02  0.55574364963E+02  0.10566000000E+00 0.  1.
         22    1    1    0    0    0 -0.96256986571E+01  0.23920802368E+02 -0.79623821796E+01  0.26986262997E+02  0.00000000000E+00 0.  1.
</event>
<event>
 5    1  0.1250806E-009  0.9118800E+02  0.7561462E-02  0.1125453E+00
         25   -1    0    0    0    0  0.00000000000E+00  0.00000000000E+00  0.99999998245E-14  0.12509000000E+03  0.12509000000E+03 0.  0.
        -13    1    3    3    0    0  0.22953582802E+02 -0.39917042952E+02  0.14390699024E+02  0.48242519254E+02  0.10566000000E+00 0.  1.
         23    2    1    0    0    0 -0.87556315017E+01 -0.25689717130E+02 -0.15283186864E+02  0.93941991237E+02  0.88627869587E+02 0.  0.
         13    1    3    3    0    0 -0.31709214303E+02  0.14227325822E+02 -0.29673885888E+02  0.45699471983E+02  0.10566000000E+00 0. -1.
         22    1    1    0    0    0  0.87556315017E+01  0.25689717130E+02  0.15283186864E+02  0.31148008763E+02  0.00000000000E+00 0. -1.
</event>
<event>
 5    1  0.1250806E-009  0.9118800E+02  0.7561462E-02  0.1125453E+00
         25   -1    0    0    0    0  0.00000000000E+00  0.00000000000E+00  0.99999998245E-14  0.12509000000E+03  0.12509000000E+03 0.  0.
        -13    1    3    3    0    0  0.46974991609E+02 -0.62389557420E+01 -0.24173763540E+02  0.53197334643E+02  0.10566000000E+00 0.  1.
         23    2    1    0    0    0  0.49619367715E+01 -0.49725104753E+01 -0.28765046384E+02  0.95479620562E+02  0.90772150863E+02 0.  0.
         13    1    3    3    0    0 -0.42013054837E+02  0.12664452667E+01 -0.45912828445E+01  0.42282285919E+02  0.10566000000E+00 0. -1.
         22    1    1    0    0    0 -0.49619367715E+01  0.49725104753E+01  0.28765046384E+02  0.29610379438E+02  0.00000000000E+00 0.  1.
</event>
<event>
 4    1  0.1250806E-009  0.9118800E+02  0.7561462E-02  0.1125453E+00
         25   -1    0    0    0    0  0.00000000000E+00  0.00000000000E+00  0.99999998245E-14  0.12509000000E+03  0.12509000000E+03 0.  0.
        -13    1    1    0    0    0 -0.31372980167E+02  0.43447293020E+02 -0.55303015608E+01  0.53875101436E+02  0.10566000000E+00 0. -1.
         13    1    1    0    0    0  0.76932955357E+01  0.29927340070E+01  0.16037654897E+02  0.18037760163E+02  0.10566000000E+00 0.  1.
         22    1    1    0    0    0  0.23679684631E+02 -0.46440027027E+02 -0.10507353337E+02  0.53177138402E+02  0.00000000000E+00 0. -1.
</event>
<event>
 5    1  0.1250806E-009  0.9118800E+02  0.7561462E-02  0.1125453E+00
         25   -1    0    0    0    0  0.00000000000E+00  0.00000000000E+00  0.99999998245E-14  0.12509000000E+03  0.12509000000E+03 0.  0.
        -13    1    3    3    0    0 -0.23076067592E+02 -0.14986000524E+02  0.55945340911E+02  0.62345628883E+02  0.10566000000E+00 0. -1.
         23    2    1    0    0    0 -0.75668634722E+01 -0.75660571296E+01  0.27476706541E+02  0.95603188616E+02  0.90942276351E+02 0.  0.
         13    1    3    3    0    0  0.15509204119E+02  0.74199433940E+01 -0.28468634370E+02  0.33257559732E+02  0.10566000000E+00 0.  1.
         22    1    1    0    0    0  0.75668634722E+01  0.75660571296E+01 -0.27476706541E+02  0.29486811384E+02  0.00000000000E+00 0. -1.
</event>
<event>
 5    1  0.1250806E-009  0.9118800E+02  0.7561462E-02  0.1125453E+00
         25   -1    0    0    0    0  0.00000000000E+00  0.00000000000E+00  0.99999998245E-14  0.12509000000E+03  0.12509000000E+03 0.  0.
        -13    1    3    3    0    0  0.24518180967E+02  0.19065049960E+02 -0.16328953300E+02  0.35089360322E+02  0.10566000000E+00 0.  1.
         23    2    1    0    0    0 -0.13067460572E+01 -0.13881774381E+02  0.26604222969E+02  0.95053423547E+02  0.90182910815E+02 0.  0.
         13    1    3    3    0    0 -0.25824927024E+02 -0.32946824341E+02  0.42933176269E+02  0.59964063226E+02  0.10566000000E+00 0. -1.
         22    1    1    0    0    0  0.13067460572E+01  0.13881774381E+02 -0.26604222969E+02  0.30036576453E+02  0.00000000000E+00 0. -1.
</event>
<event>
 5    1  0.1250806E-009  0.9118800E+02  0.7561462E-02  0.1125453E+00
         25   -1    0    0    0    0  0.00000000000E+00  0.00000000000E+00  0.99999998245E-14  0.12509000000E+03  0.12509000000E+03 0.  0.
        -13    1    3    3    0    0  0.16594723575E+02 -0.21598413655E+02 -0.30513622376E+02  0.40901939288E+02  0.10566000000E+00 0.  1.
         23    2    1    0    0    0  0.19003221111E+02  0.89603804593E+01  0.17419101061E+02  0.97798317891E+02  0.93913125121E+02 0.  0.
         13    1    3    3    0    0  0.24084975359E+01  0.30558794114E+02  0.47932723437E+02  0.56896378603E+02  0.10566000000E+00 0. -1.
         22    1    1    0    0    0 -0.19003221111E+02 -0.89603804593E+01 -0.17419101061E+02  0.27291682109E+02  0.00000000000E+00 0. -1.
</event>
<event>
 5    1  0.1250806E-009  0.9118800E+02  0.7561462E-02  0.1125453E+00
         25   -1    0    0    0    0  0.00000000000E+00  0.00000000000E+00  0.99999998245E-14  0.12509000000E+03  0.12509000000E+03 0.  0.
        -13    1    3    3    0    0 -0.26248708537E+02 -0.18655261149E+02 -0.18551236096E+02  0.37164135845E+02  0.10566000000E+00 0. -1.
         23    2    1    0    0    0 -0.23689007784E+01  0.28649451901E+02  0.62497850660E+01  0.95671254301E+02  0.91035851735E+02 0.  0.
         13    1    3    3    0    0  0.23879807758E+02  0.47304713050E+02  0.24801021162E+02  0.58507118456E+02  0.10566000000E+00 0.  1.
         22    1    1    0    0    0  0.23689007784E+01 -0.28649451901E+02 -0.62497850660E+01  0.29418745699E+02  0.00000000000E+00 0.  1.
</event>
<event>
 5    1  0.1250806E-009  0.9118800E+02  0.7561462E-02  0.1125453E+00
         25   -1    0    0    0    0  0.00000000000E+00  0.00000000000E+00  0.99999998245E-14  0.12509000000E+03  0.12509000000E+03 0.  0.
        -13    1    3    3    0    0 -0.77973154557E+00  0.38908251821E+02  0.23249014445E+02  0.45331974122E+02  0.10566000000E+00 0.  1.
         23    2    1    0    0    0 -0.28954304359E+02  0.26882157704E+01  0.18830979612E+01  0.95950262477E+02  0.91418425750E+02 0.  0.
         13    1    3    3    0    0 -0.28174572814E+02 -0.36220036051E+02 -0.21365916484E+02  0.50618288355E+02  0.10566000000E+00 0. -1.
         22    1    1    0    0    0  0.28954304359E+02 -0.26882157704E+01 -0.18830979612E+01  0.29139737523E+02  0.00000000000E+00 0. -1.
</event>
<event>
 5    1  0.1250806E-009  0.9118800E+02  0.7561462E-02  0.1125453E+00
         25   -1    0    0    0    0  0.00000000000E+00  0.00000000000E+00  0.99999998245E-14  0.12509000000E+03  0.12509000000E+03 0.  0.
        -13    1    3    3    0    0 -0.14328941524E+02 -0.92535367354E+01 -0.28731030884E+02  0.33413018526E+02  0.10566000000E+00 0. -1.
         23    2    1    0    0    0  0.28309029557E+02 -0.46478034260E+01  0.13306554477E+02  0.93466154200E+02  0.87953705764E+02 0.  0.
         13    1    3    3    0    0  0.42637971081E+02  0.46057333095E+01  0.42037585361E+02  0.60053135674E+02  0.10566000000E+00 0.  1.
         22    1    1    0    0    0 -0.28309029557E+02  0.46478034260E+01 -0.13306554477E+02  0.31623845800E+02  0.00000000000E+00 0.  1.
</event>
<event>
 5    1  0.1250806E-009  0.9118800E+02  0.7561462E-02  0.1125453E+00
         25   -1    0    0    0    0  0.00000000000E+00  0.00000000000E+00  0.99999998245E-14  0.12509000000E+03  0.12509000000E+03 0.  0.
        -13    1    3    3    0    0  0.36757703662E+02  0.30507739489E+02 -0.28874405655E+02  0.55817500958E+02  0.10566000000E+00 0.  1.
         23    2    1    0    0    0 -0.94182920811E+00  0.20989094891E+02 -0.20791083074E+02  0.95531612324E+02  0.90843770680E+02 0.  0.
         13    1    3    3    0    0 -0.37699532870E+02 -0.95186445975E+01  0.80833225813E+01  0.39714111366E+02  0.10566000000E+00 0. -1.
         22    1    1    0    0    0  0.94182920811E+00 -0.20989094891E+02  0.20791083074E+02  0.29558387676E+02  0.00000000000E+00 0.  1.
</event>
<event>
 5    1  0.1250806E-009  0.9118800E+02  0.7561462E-02  0.1125453E+00
         25   -1    0    0    0    0  0.00000000000E+00  0.00000000000E+00  0.99999998245E-14  0.12509000000E+03  0.12509000000E+03 0.  0.
        -13    1    3    3    0    0  0.28787929589E+02  0.16336969057E+02  0.50971144842E+01  0.33490792587E+02  0.10566000000E+00 0. -1.
         23    2    1    0    0    0 -0.18968780655E+02 -0.18604054608E+02 -0.13190750822E+02  0.95426530974E+02  0.90698960408E+02 0.  0.
         13    1    3    3    0    0 -0.47756710244E+02 -0.34941023665E+02 -0.18287865306E+02  0.61935738387E+02  0.10566000000E+00 0.  1.
         22    1    1    0    0    0  0.18968780655E+02  0.18604054608E+02  0.13190750822E+02  0.29663469026E+02  0.00000000000E+00 0.  1.
</event>
<event>
 5    1  0.1250806E-009  0.9118800E+02  0.7561462E-02  0.1125453E+00
         25   -1    0    0    0    0  0.00000000000E+00  0.00000000000E+00  0.99999998245E-14  0.12509000000E+03  0.12509000000E+03 0.  0.
        -13    1    3    3    0    0 -0.29086656118E+02 -0.50574444509E+02 -0.14017874605E+02  0.60002666391E+02  0.10566000000E+00 0. -1.
         23    2    1    0    0    0 -0.23534114159E+02 -0.21451779988E+02  0.98675781466E+00  0.93230824165E+02  0.87618374155E+02 0.  0.
         13    1    3    3    0    0  0.55525419595E+01  0.29122664521E+02  0.15004632420E+02  0.33228157774E+02  0.10566000000E+00 0.  1.
         22    1    1    0    0    0  0.23534114159E+02  0.21451779988E+02 -0.98675781466E+00  0.31859175835E+02  0.00000000000E+00 0. -1.
</event>
<event>
 5    1  0.1250806E-009  0.9118800E+02  0.7561462E-02  0.1125453E+00
         25   -1    0    0    0    0  0.00000000000E+00  0.00000000000E+00  0.99999998245E-14  0.12509000000E+03  0.12509000000E+03 0.  0.
        -13    1    3    3    0    0  0.14210708658E+02 -0.15333352924E+02  0.30066819844E+02  0.36620769681E+02  0.10566000000E+00 0. -1.
         23    2    1    0    0    0 -0.99087415662E+01 -0.15187650801E+02 -0.23522982146E+02  0.95388508702E+02  0.90646505763E+02 0.  0.
         13    1    3    3    0    0 -0.24119450224E+02  0.14570212268E+00 -0.53589801990E+02  0.58767739021E+02  0.10566000000E+00 0.  1.
         22    1    1    0    0    0  0.99087415662E+01  0.15187650801E+02  0.23522982146E+02  0.29701491298E+02  0.00000000000E+00 0.  1.
</event>
<event>
 5    1  0.1250806E-009  0.9118800E+02  0.7561462E-02  0.1125453E+00
         25   -1    0    0    0    0  0.00000000000E+00  0.00000000000E+00  0.99999998245E-14  0.12509000000E+03  0.12509000000E+03 0.  0.
        -13    1    3    3    0    0 -0.49127109030E+02 -0.21308283449E+01 -0.89638021323E+01  0.49983739194E+02  0.10566000000E+00 0. -1.
         23    2    1    0    0    0 -0.11481821659E+02 -0.26449228374E+02  0.22064145567E+01  0.96171802004E+02  0.91721062604E+02 0.  0.
         13    1    3    3    0    0  0.37645287371E+02 -0.24318400029E+02  0.11170216689E+02  0.46188062810E+02  0.10566000000E+00 0.  1.
         22    1    1    0    0    0  0.11481821659E+02  0.26449228374E+02 -0.22064145567E+01  0.28918197996E+02  0.00000000000E+00 0. -1.
</event>
<event>
 5    1  0.1250806E-009  0.9118800E+02  0.7561462E-02  0.1125453E+00
         25   -1    0    0    0    0  0.00000000000E+00  0.00000000000E+00  0.99999998245E-14  0.12509000000E+03  0.12509000000E+03 0.  0.
        -13    1    3    3    0    0 -0.29149231328E+02  0.40015678271E+02  0.36816973764E+02  0.61696295802E+02  0.10566000000E+00 0.  1.
         23    2    1    0    0    0 -0.10135601465E+02  0.25004275103E+02  0.15445360269E+02  0.94001363099E+02  0.88711627875E+02 0.  0.
         13    1    3    3    0    0  0.19013629864E+02 -0.15011403168E+02 -0.21371613495E+02  0.32305067297E+02  0.10566000000E+00 0. -1.
         22    1    1    0    0    0  0.10135601465E+02 -0.25004275103E+02 -0.15445360269E+02  0.31088636901E+02  0.00000000000E+00 0.  1.
</event>
<event>
 5    1  0.1250806E-009  0.9118800E+02  0.7561462E-02  0.1125453E+00
         25   -1    0    0    0    0  0.00000000000E+00  0.00000000000E+00  0.99999998245E-14  0.12509000000E+03  0.12509000000E+03 0.  0.
        -13    1    3    3    0    0  0.39823457163E+02 -0.26063031502E+01  0.41557634714E+02  0.57617260639E+02  0.10566000000E+00 0.  1.
         23    2    1    0    0    0  0.10769484526E+02 -0.17429337747E+02  0.17475571483E+02  0.98161219673E+02  0.94395263853E+02 0.  0.
         13    1    3    3    0    0 -0.29053972637E+02 -0.14823034596E+02 -0.24082063231E+02  0.40543959034E+02  0.10566000000E+00 0. -1.
         22    1    1    0    0    0 -0.10769484526E+02  0.17429337747E+02 -0.17475571483E+02  0.26928780327E+02  0.00000000000E+00 0.  1.
</event>
<event>
 5    1  0.1250806E-009  0.9118800E+02  0.7561462E-02  0.1125453E+00
         25   -1    0    0    0    0  0.00000000000E+00  0.00000000000E+00  0.99999998245E-14  0.12509000000E+03  0.12509000000E+03 0.  0.
        -13    1    3    3    0    0  0.14858445992E+02  0.20948207769E+02  0.25334341831E+02  0.36075488439E+02  0.10566000000E+00 0.  1.
         23    2    1    0    0    0 -0.67889309425E+01  0.43192896896E+01 -0.27982293694E+02  0.95973774161E+02  0.91450591685E+02 0.  0.
         13    1    3    3    0    0 -0.21647376935E+02 -0.16628918080E+02 -0.53316635525E+02  0.59898285722E+02  0.10566000000E+00 0. -1.
         22    1    1    0    0    0  0.67889309425E+01 -0.43192896896E+01  0.27982293694E+02  0.29116225839E+02  0.00000000000E+00 0. -1.
</event>
<event>
 5    1  0.1250806E-009  0.9118800E+02  0.7561462E-02  0.1125453E+00
         25   -1    0    0    0    0  0.00000000000E+00  0.00000000000E+00  0.99999998245E-14  0.12509000000E+03  0.12509000000E+03 0.  0.
        -13    1    3    3    0    0  0.48704117883E+02  0.10409379159E+02  0.28426944531E+00  0.49805002222E+02  0.10566000000E+00 0.  1.
         23    2    1    0    0    0  0.13406939110E+02 -0.52222022534E+01 -0.25206989172E+02  0.96065704732E+02  0.91576251888E+02 0.  0.
         13    1    3    3    0    0 -0.35297178773E+02 -0.15631581413E+02 -0.25491258617E+02  0.46260702510E+02  0.10566000000E+00 0. -1.
         22    1    1    0    0    0 -0.13406939110E+02  0.52222022534E+01  0.25206989172E+02  0.29024295268E+02  0.00000000000E+00 0.  1.
</event>
<event>
 5    1  0.1250806E-009  0.9118800E+02  0.7561462E-02  0.1125453E+00
         25   -1    0    0    0    0  0.00000000000E+00  0.00000000000E+00  0.99999998245E-14  0.12509000000E+03  0.12509000000E+03 0.  0.
        -13    1    3    3    0    0  0.19583650745E+02 -0.26166595193E+01  0.52885998200E+02  0.56456233077E+02  0.10566000000E+00 0.  1.
         23    2    1    0    0    0 -0.32226853882E+01 -0.16620523277E+02  0.22145281781E+02  0.97214544842E+02  0.93132307652E+02 0.  0.
         13    1    3    3    0    0 -0.22806336133E+02 -0.14003863757E+02 -0.30740716419E+02  0.40758311765E+02  0.10566000000E+00 0. -1.
         22    1    1    0    0    0  0.32226853882E+01  0.16620523277E+02 -0.22145281781E+02  0.27875455158E+02  0.00000000000E+00 0. -1.
</event>
<event>
 5    1  0.1250806E-009  0.9118800E+02  0.7561462E-02  0.1125453E+00
         25   -1    0    0    0    0  0.00000000000E+00  0.00000000000E+00  0.99999998245E-14  0.12509000000E+03  0.12509000000E+03 0.  0.
        -13    1    3    3    0    0  0.51817041316E+02  0.13255417308E+01  0.22374652139E+02  0.56457054953E+02  0.10566000000E+00 0. -1.
         23    2    1    0    0    0  0.26082590755E+02  0.10499174221E+02 -0.65247220196E+01  0.96226420921E+02  0.91795522146E+02 0.  0.
         13    1    3    3    0    0 -0.25734450561E+02  0.91736324902E+01 -0.28899374158E+02  0.39769365968E+02  0.10566000000E+00 0.  1.
         22    1    1    0    0    0 -0.26082590755E+02 -0.10499174221E+02  0.65247220196E+01  0.28863579079E+02  0.00000000000E+00 0. -1.
</event>
<event>
 5    1  0.1250806E-009  0.9118800E+02  0.7561462E-02  0.1125453E+00
         25   -1    0    0    0    0  0.00000000000E+00  0.00000000000E+00  0.99999998245E-14  0.12509000000E+03  0.12509000000E+03 0.  0.
        -13    1    3    3    0    0 -0.15114621632E+02  0.33787039997E+02  0.37730986756E+02  0.52855031780E+02  0.10566000000E+00 0. -1.
         23    2    1    0    0    0  0.13402087615E+02  0.24522398470E+02  0.60082484024E+01  0.96505685630E+02  0.92175291325E+02 0.  0.
         13    1    3    3    0    0  0.28516709247E+02 -0.92646415266E+01 -0.31722738353E+02  0.43650653850E+02  0.10566000000E+00 0.  1.
         22    1    1    0    0    0 -0.13402087615E+02 -0.24522398470E+02 -0.60082484024E+01  0.28584314370E+02  0.00000000000E+00 0. -1.
</event>
<event>
 5    1  0.1250806E-009  0.9118800E+02  0.7561462E-02  0.1125453E+00
         25   -1    0    0    0    0  0.00000000000E+00  0.00000000000E+00  0.99999998245E-14  0.12509000000E+03  0.12509000000E+03 0.  0.
        -13    1    3    3    0    0  0.29403565367E+02 -0.34089056105E+02 -0.12792997846E+02  0.46800698289E+02  0.10566000000E+00 0.  1.
         23    2    1    0    0    0  0.15415114017E+02 -0.11832133211E+01  0.22989153755E+02  0.97385723719E+02  0.93361942246E+02 0.  0.
         13    1    3    3    0    0 -0.13988451350E+02  0.32905842784E+02  0.35782151601E+02  0.50585025430E+02  0.10566000000E+00 0. -1.
         22    1    1    0    0    0 -0.15415114017E+02  0.11832133211E+01 -0.22989153755E+02  0.27704276281E+02  0.00000000000E+00 0. -1.
</event>
<event>
 5    1  0.1250806E-009  0.9118800E+02  0.7561462E-02  0.1125453E+00
         25   -1    0    0    0    0  0.00000000000E+00  0.00000000000E+00  0.99999998245E-14  0.12509000000E+03  0.12509000000E+03 0.  0.
        -13    1    3    3    0    0 -0.21251975870E+02  0.40113957259E+02  0.60823092813E+01  0.45801546869E+02  0.10566000000E+00 0.  1.
         23    2    1    0    0    0  0.20704105572E+01  0.10903815587E+02 -0.27113459986E+02  0.95792909587E+02  0.91202861910E+02 0.  0.
         13    1    3    3    0    0  0.23322386427E+02 -0.29210141672E+02 -0.33195769268E+02  0.49991362718E+02  0.10566000000E+00 0. -1.
         22    1    1    0    0    0 -0.20704105572E+01 -0.10903815587E+02  0.27113459986E+02  0.29297090413E+02  0.00000000000E+00 0.  1.
</event>
<event>
 5    1  0.1250806E-009  0.9118800E+02  0.7561462E-02  0.1125453E+00
         25   -1    0    0    0    0  0.00000000000E+00  0.00000000000E+00  0.99999998245E-14  0.12509000000E+03  0.12509000000E+03 0.  0.
        -13    1    3    3    0    0  0.51980522478E+02  0.32965874464E+02  0.63412285430E+01  0.61878477193E+02  0.10566000000E+00 0.  1.
         23    2    1    0    0    0  0.28810940274E+02  0.10884521862E+02  0.14429646847E+01  0.94257788877E+02  0.89072473420E+02 0.  0.
         13    1    3    3    0    0 -0.23169582204E+02 -0.22081352602E+02 -0.48982638582E+01  0.32379311684E+02  0.10566000000E+00 0. -1.
         22    1    1    0    0    0 -0.28810940274E+02 -0.10884521862E+02 -0.14429646847E+01  0.30832211123E+02  0.00000000000E+00 0.  1.
</event>
<event>
 5    1  0.1250806E-009  0.9118800E+02  0.7561462E-02  0.1125453E+00
         25   -1    0    0    0    0  0.00000000000E+00  0.00000000000E+00  0.99999998245E-14  0.12509000000E+03  0.12509000000E+03 0.  0.
        -13    1    3    3    0    0 -0.14001284365E+02  0.24351447005E+02  0.31345639878E+02  0.42090251110E+02  0.10566000000E+00 0. -1.
         23    2    1    0    0    0  0.28270494180E+02  0.16755809591E+01  0.68468051721E+01  0.95953988711E+02  0.91423524302E+02 0.  0.
         13    1    3    3    0    0  0.42271778546E+02 -0.22675866046E+02 -0.24498834706E+02  0.53863737601E+02  0.10566000000E+00 0.  1.
         22    1    1    0    0    0 -0.28270494180E+02 -0.16755809591E+01 -0.68468051721E+01  0.29136011289E+02  0.00000000000E+00 0. -1.
</event>
<event>
 5    1  0.1250806E-009  0.9118800E+02  0.7561462E-02  0.1125453E+00
         25   -1    0    0    0    0  0.00000000000E+00  0.00000000000E+00  0.99999998245E-14  0.12509000000E+03  0.12509000000E+03 0.  0.
        -13    1    3    3    0    0 -0.41181458280E+02 -0.26638510600E+02 -0.42659350188E+01  0.49231413942E+02  0.10566000000E+00 0.  1.
         23    2    1    0    0    0 -0.17889029807E+01 -0.30471371311E+02  0.12357707691E+02  0.92159503757E+02  0.86075295817E+02 0.  0.
         13    1    3    3    0    0  0.39392555299E+02 -0.38328607104E+01  0.16623642710E+02  0.42928089816E+02  0.10566000000E+00 0. -1.
         22    1    1    0    0    0  0.17889029807E+01  0.30471371311E+02 -0.12357707691E+02  0.32930496243E+02  0.00000000000E+00 0. -1.
</event>
<event>
 5    1  0.1250806E-009  0.9118800E+02  0.7561462E-02  0.1125453E+00
         25   -1    0    0    0    0  0.00000000000E+00  0.00000000000E+00  0.99999998245E-14  0.12509000000E+03  0.12509000000E+03 0.  0.
        -13    1    3    3    0    0 -0.18362955249E+02 -0.46989402489E+01  0.34672666457E+02  0.39515606135E+02  0.10566000000E+00 0. -1.
         23    2    1    0    0    0 -0.18880415311E+02 -0.86444827180E+01 -0.21132547847E+02  0.95462618369E+02  0.90748717696E+02 0.  0.
         13    1    3    3    0    0 -0.51746006263E+00 -0.39455424691E+01 -0.55805214304E+02  0.55947012234E+02  0.10566000000E+00 0.  1.
         22    1    1    0    0    0  0.18880415311E+02  0.86444827180E+01  0.21132547847E+02  0.29627381631E+02  0.00000000000E+00 0.  1.
</event>
<event>
 5    1  0.1250806E-009  0.9118800E+02  0.7561462E-02  0.1125453E+00
         25   -1    0    0    0    0  0.00000000000E+00  0.00000000000E+00  0.99999998245E-14  0.12509000000E+03  0.12509000000E+03 0.  0.
        -13    1    3    3    0    0  0.30902820255E+02 -0.19114490221E+01  0.51037925623E+02  0.59695217170E+02  0.10566000000E+00 0. -1.
         23    2    1    0    0    0  0.40051939544E+01 -0.66245035784E+01  0.29832666830E+02  0.94269331018E+02  0.89088681291E+02 0.  0.
         13    1    3    3    0    0 -0.26897626301E+02 -0.47130545563E+01 -0.21205258793E+02  0.34574113848E+02  0.10566000000E+00 0.  1.
         22    1    1    0    0    0 -0.40051939544E+01  0.66245035784E+01 -0.29832666830E+02  0.30820668982E+02  0.00000000000E+00 0. -1.
</event>
<event>
 5    1  0.1250806E-009  0.9118800E+02  0.7561462E-02  0.1125453E+00
         25   -1    0    0    0    0  0.00000000000E+00  0.00000000000E+00  0.99999998245E-14  0.12509000000E+03  0.12509000000E+03 0.  0.
        -13    1    3    3    0    0 -0.30927789189E+02 -0.17686963522E+02  0.89189262608E+01  0.36727581358E+02  0.10566000000E+00 0.  1.
         23    2    1    0    0    0  0.26469507594E+02 -0.15594754973E+00  0.10111703363E+02  0.96754409362E+02  0.92512215595E+02 0.  0.
         13    1    3    3    0    0  0.57397296782E+02  0.17531015973E+02  0.11927771020E+01  0.60026828004E+02  0.10566000000E+00 0. -1.
         22    1    1    0    0    0 -0.26469507594E+02  0.15594754973E+00 -0.10111703363E+02  0.28335590638E+02  0.00000000000E+00 0. -1.
</event>
<event>
 5    1  0.1250806E-009  0.9118800E+02  0.7561462E-02  0.1125453E+00
         25   -1    0    0    0    0  0.00000000000E+00  0.00000000000E+00  0.99999998245E-14  0.12509000000E+03  0.12509000000E+03 0.  0.
        -13    1    3    3    0    0 -0.11812864195E+02 -0.41932978837E+02  0.37047644922E+02  0.57187915095E+02  0.10566000000E+00 0.  1.
         23    2    1    0    0    0  0.46195182563E+01 -0.27785105301E+02  0.41060493616E+01  0.96625782694E+02  0.92338129797E+02 0.  0.
         13    1    3    3    0    0  0.16432382452E+02  0.14147873536E+02 -0.32941595561E+02  0.39437867599E+02  0.10566000000E+00 0. -1.
         22    1    1    0    0    0 -0.46195182563E+01  0.27785105301E+02 -0.41060493616E+01  0.28464217306E+02  0.00000000000E+00 0.  1.
</event>
<event>
 5    1  0.1250806E-009  0.9118800E+02  0.7561462E-02  0.1125453E+00
         25   -1    0    0    0    0  0.00000000000E+00  0.00000000000E+00  0.99999998245E-14  0.12509000000E+03  0.12509000000E+03 0.  0.
        -13    1    3    3    0    0  0.10611066646E+02  0.32899275582E+02  0.31012726082E+02  0.46440902363E+02  0.10566000000E+00 0.  1.
         23    2    1    0    0    0  0.17012707519E+02  0.20102453404E+02 -0.15107035499E+02  0.94729443820E+02  0.89732403038E+02 0.  0.
         13    1    3    3    0    0  0.64016408728E+01 -0.12796822178E+02 -0.46119761581E+02  0.48288541458E+02  0.10566000000E+00 0. -1.
         22    1    1    0    0    0 -0.17012707519E+02 -0.20102453404E+02  0.15107035499E+02  0.30360556180E+02  0.00000000000E+00 0. -1.
</event>
<event>
 5    1  0.1250806E-009  0.9118800E+02  0.7561462E-02  0.1125453E+00
         25   -1    0    0    0    0  0.00000000000E+00  0.00000000000E+00  0.99999998245E-14  0.12509000000E+03  0.12509000000E+03 0.  0.
        -13    1    3    3    0    0 -0.43959228476E+02 -0.23706198855E+02 -0.29668921567E+02  0.58091769670E+02  0.10566000000E+00 0. -1.
         23    2    1    0    0    0 -0.74137786493E+01 -0.19101245651E+02 -0.20618816443E+02  0.96021850922E+02  0.91516329492E+02 0.  0.
         13    1    3    3    0    0  0.36545449827E+02  0.46049532040E+01  0.90501051236E+01  0.37930081253E+02  0.10566000000E+00 0.  1.
         22    1    1    0    0    0  0.74137786493E+01  0.19101245651E+02  0.20618816443E+02  0.29068149078E+02  0.00000000000E+00 0. -1.
</event>
<event>
 5    1  0.1250806E-009  0.9118800E+02  0.7561462E-02  0.1125453E+00
         25   -1    0    0    0    0  0.00000000000E+00  0.00000000000E+00  0.99999998245E-14  0.12509000000E+03  0.12509000000E+03 0.  0.
        -13    1    3    3    0    0 -0.22484007002E+02  0.24318426678E+02  0.33279977591E+02  0.46951938400E+02  0.10566000000E+00 0.  1.
         23    2    1    0    0    0  0.14552834500E+02  0.29465764051E+02  0.11237549669E+02  0.90358187987E+02  0.83416445445E+02 0.  0.
         13    1    3    3    0    0  0.37036841503E+02  0.51473373734E+01 -0.22042427922E+02  0.43406249588E+02  0.10566000000E+00 0. -1.
         22    1    1    0    0    0 -0.14552834500E+02 -0.29465764051E+02 -0.11237549669E+02  0.34731812013E+02  0.00000000000E+00 0.  1.
</event>
<event>
 5    1  0.1250806E-009  0.9118800E+02  0.7561462E-02  0.1125453E+00
         25   -1    0    0    0    0  0.00000000000E+00  0.00000000000E+00  0.99999998245E-14  0.12509000000E+03  0.12509000000E+03 0.  0.
        -13    1    3    3    0    0 -0.50599302321E+02  0.23453542631E+02  0.97312815707E+01  0.56613311706E+02  0.10566000000E+00 0. -1.
         23    2    1    0    0    0 -0.11261600068E+02  0.22774408675E+02  0.13818218387E+02  0.96168719151E+02  0.91716858086E+02 0.  0.
         13    1    3    3    0    0  0.39337702253E+02 -0.67913395641E+00  0.40869368163E+01  0.39555407444E+02  0.10566000000E+00 0.  1.
         22    1    1    0    0    0  0.11261600068E+02 -0.22774408675E+02 -0.13818218387E+02  0.28921280849E+02  0.00000000000E+00 0. -1.
</event>
<event>
 5    1  0.1250806E-009  0.9118800E+02  0.7561462E-02  0.1125453E+00
         25   -1    0    0    0    0  0.00000000000E+00  0.00000000000E+00  0.99999998245E-14  0.12509000000E+03  0.12509000000E+03 0.  0.
        -13    1    3    3    0    0  0.21902839153E+02 -0.55410177711E+01 -0.25933045589E+02  0.34394349223E+02  0.10566000000E+00 0. -1.
         23    2    1    0    0    0 -0.18456496638E+02  0.28287826677E+02 -0.14764909264E+02  0.88227472254E+02  0.80157600441E+02 0.  0.
         13    1    3    3    0    0 -0.40359335791E+02  0.33828844448E+02  0.11168136325E+02  0.53833123031E+02  0.10566000000E+00 0.  1.
         22    1    1    0    0    0  0.18456496638E+02 -0.28287826677E+02  0.14764909264E+02  0.36862527746E+02  0.00000000000E+00 0.  1.
</event>
<event>
 5    1  0.1250806E-009  0.9118800E+02  0.7561462E-02  0.1125453E+00
         25   -1    0    0    0    0  0.00000000000E+00  0.00000000000E+00  0.99999998245E-14  0.12509000000E+03  0.12509000000E+03 0.  0.
        -13    1    3    3    0    0  0.20036063842E+01  0.25647928320E+02 -0.36390621473E+02  0.44565896837E+02  0.10566000000E+00 0.  1.
         23    2    1    0    0    0 -0.13474980195E+01 -0.22867964598E+02 -0.15097134610E+02  0.97654930669E+02  0.93721942227E+02 0.  0.
         13    1    3    3    0    0 -0.33511044036E+01 -0.48515892918E+02  0.21293486863E+02  0.53089033832E+02  0.10566000000E+00 0. -1.
         22    1    1    0    0    0  0.13474980195E+01  0.22867964598E+02  0.15097134610E+02  0.27435069331E+02  0.00000000000E+00 0.  1.
</event>
<event>
 5    1  0.1250806E-009  0.9118800E+02  0.7561462E-02  0.1125453E+00
         25   -1    0    0    0    0  0.00000000000E+00  0.00000000000E+00  0.99999998245E-14  0.12509000000E+03  0.12509000000E+03 0.  0.
        -13    1    3    3    0    0  0.56278208486E+02  0.27635989900E+01 -0.15730475385E+02  0.58500711531E+02  0.10566000000E+00 0. -1.
         23    2    1    0    0    0  0.30211663056E+02 -0.14422861133E+02 -0.85185490346E+01  0.90545402948E+02  0.83696719228E+02 0.  0.
         13    1    3    3    0    0 -0.26066545431E+02 -0.17186460123E+02  0.72119263504E+01  0.32044691416E+02  0.10566000000E+00 0.  1.
         22    1    1    0    0    0 -0.30211663056E+02  0.14422861133E+02  0.85185490346E+01  0.34544597052E+02  0.00000000000E+00 0. -1.
</event>
<event>
 5    1  0.1250806E-009  0.9118800E+02  0.7561462E-02  0.1125453E+00
         25   -1    0    0    0    0  0.00000000000E+00  0.00000000000E+00  0.99999998245E-14  0.12509000000E+03  0.12509000000E+03 0.  0.
        -13    1    3    3    0    0 -0.42841074102E+02 -0.16665601285E+02 -0.37637847145E+02  0.59411434910E+02  0.10566000000E+00 0.  1.
         23    2    1    0    0    0 -0.98180980278E+01 -0.16168500752E+02 -0.22363507287E+02  0.95799354332E+02  0.91211700822E+02 0.  0.
         13    1    3    3    0    0  0.33022976074E+02  0.49710053328E+00  0.15274339858E+02  0.36387919422E+02  0.10566000000E+00 0. -1.
         22    1    1    0    0    0  0.98180980278E+01  0.16168500752E+02  0.22363507287E+02  0.29290645668E+02  0.00000000000E+00 0.  1.
</event>
<event>
 5    1  0.1250806E-009  0.9118800E+02  0.7561462E-02  0.1125453E+00
         25   -1    0    0    0    0  0.00000000000E+00  0.00000000000E+00  0.99999998245E-14  0.12509000000E+03  0.12509000000E+03 0.  0.
        -13    1    3    3    0    0  0.51088060593E+01 -0.98807461650E+01 -0.51908557476E+02  0.53087084563E+02  0.10566000000E+00 0.  1.
         23    2    1    0    0    0  0.24177076022E+02  0.26387427900E+01 -0.14878699161E+02  0.96579130893E+02  0.92274909195E+02 0.  0.
         13    1    3    3    0    0  0.19068269963E+02  0.12519488955E+02  0.37029858316E+02  0.43492046330E+02  0.10566000000E+00 0. -1.
         22    1    1    0    0    0 -0.24177076022E+02 -0.26387427900E+01  0.14878699161E+02  0.28510869107E+02  0.00000000000E+00 0.  1.
</event>
<event>
 5    1  0.1250806E-009  0.9118800E+02  0.7561462E-02  0.1125453E+00
         25   -1    0    0    0    0  0.00000000000E+00  0.00000000000E+00  0.99999998245E-14  0.12509000000E+03  0.12509000000E+03 0.  0.
        -13    1    3    3    0    0  0.27460616824E+02  0.88021026575E+01 -0.17624230621E+02  0.33796259505E+02  0.10566000000E+00 0.  1.
         23    2    1    0    0    0 -0.48937084228E+01 -0.23052974857E+02  0.21089620773E+02  0.93464691523E+02  0.87951625484E+02 0.  0.
         13    1    3    3    0    0 -0.32354325247E+02 -0.31855077515E+02  0.38713851394E+02  0.59668432018E+02  0.10566000000E+00 0. -1.
         22    1    1    0    0    0  0.48937084228E+01  0.23052974857E+02 -0.21089620773E+02  0.31625308477E+02  0.00000000000E+00 0. -1.
</event>
<event>
 5    1  0.1250806E-009  0.9118800E+02  0.7561462E-02  0.1125453E+00
         25   -1    0    0    0    0  0.00000000000E+00  0.00000000000E+00  0.99999998245E-14  0.12509000000E+03  0.12509000000E+03 0.  0.
        -13    1    3    3    0    0 -0.12305891206E+02  0.41447443269E+02  0.41428805891E+02  0.59880569749E+02  0.10566000000E+00 0. -1.
         23    2    1    0    0    0 -0.10356249398E+02  0.25301016930E+02  0.87459026402E+01  0.96386617407E+02  0.92013563364E+02 0.  0.
         13    1    3    3    0    0  0.19496418076E+01 -0.16146426339E+02 -0.32682903251E+02  0.36506047658E+02  0.10566000000E+00 0.  1.
         22    1    1    0    0    0  0.10356249398E+02 -0.25301016930E+02 -0.87459026402E+01  0.28703382593E+02  0.00000000000E+00 0. -1.
</event>
<event>
 5    1  0.1250806E-009  0.9118800E+02  0.7561462E-02  0.1125453E+00
         25   -1    0    0    0    0  0.00000000000E+00  0.00000000000E+00  0.99999998245E-14  0.12509000000E+03  0.12509000000E+03 0.  0.
        -13    1    3    3    0    0 -0.36001014303E+02  0.22837078768E+02  0.20477609460E+02  0.47296393634E+02  0.10566000000E+00 0.  1.
         23    2    1    0    0    0  0.75289545855E+01  0.29976073264E+02  0.73318173894E+01  0.93325150375E+02  0.87752937391E+02 0.  0.
         13    1    3    3    0    0  0.43529968889E+02  0.71389944957E+01 -0.13145792071E+02  0.46028756741E+02  0.10566000000E+00 0. -1.
         22    1    1    0    0    0 -0.75289545855E+01 -0.29976073264E+02 -0.73318173894E+01  0.31764849625E+02  0.00000000000E+00 0. -1.
</event>
<event>
 5    1  0.1250806E-009  0.9118800E+02  0.7561462E-02  0.1125453E+00
         25   -1    0    0    0    0  0.00000000000E+00  0.00000000000E+00  0.99999998245E-14  0.12509000000E+03  0.12509000000E+03 0.  0.
        -13    1    3    3    0    0 -0.29066263015E+02  0.26930142207E+02  0.20908977671E+00  0.39624930126E+02  0.10566000000E+00 0.  1.
         23    2    1    0    0    0 -0.27251540676E+01 -0.12705321193E+02  0.27635074540E+02  0.94552334796E+02  0.89485166476E+02 0.  0.
         13    1    3    3    0    0  0.26341108947E+02 -0.39635463400E+02  0.27425984763E+02  0.54927404670E+02  0.10566000000E+00 0. -1.
         22    1    1    0    0    0  0.27251540676E+01  0.12705321193E+02 -0.27635074540E+02  0.30537665204E+02  0.00000000000E+00 0. -1.
</event>
<event>
 5    1  0.1250806E-009  0.9118800E+02  0.7561462E-02  0.1125453E+00
         25   -1    0    0    0    0  0.00000000000E+00  0.00000000000E+00  0.99999998245E-14  0.12509000000E+03  0.12509000000E+03 0.  0.
        -13    1    3    3    0    0 -0.57239208724E+01 -0.12694161233E+02  0.41027187481E+02  0.43326046164E+02  0.10566000000E+00 0.  1.
         23    2    1    0    0    0 -0.70153391621E+01  0.27028403164E+02  0.55095778301E+01  0.96627656298E+02  0.92340667923E+02 0.  0.
         13    1    3    3    0    0 -0.12914182896E+01  0.39722564397E+02 -0.35517609651E+02  0.53301610134E+02  0.10566000000E+00 0. -1.
         22    1    1    0    0    0  0.70153391621E+01 -0.27028403164E+02 -0.55095778301E+01  0.28462343702E+02  0.00000000000E+00 0.  1.
</event>
<event>
 5    1  0.1250806E-009  0.9118800E+02  0.7561462E-02  0.1125453E+00
         25   -1    0    0    0    0  0.00000000000E+00  0.00000000000E+00  0.99999998245E-14  0.12509000000E+03  0.12509000000E+03 0.  0.
        -13    1    3    3    0    0 -0.12307489897E+02 -0.16964391423E+02  0.26927052698E+02  0.34122459098E+02  0.10566000000E+00 0. -1.
         23    2    1    0    0    0 -0.58235143288E+01  0.95019050369E+01 -0.27734874224E+02  0.95199821568E+02  0.90385746995E+02 0.  0.
         13    1    3    3    0    0  0.64839755682E+01  0.26466296459E+02 -0.54661926922E+02  0.61077362470E+02  0.10566000000E+00 0.  1.
         22    1    1    0    0    0  0.58235143288E+01 -0.95019050369E+01  0.27734874224E+02  0.29890178432E+02  0.00000000000E+00 0.  1.
</event>
<event>
 5    1  0.1250806E-009  0.9118800E+02  0.7561462E-02  0.1125453E+00
         25   -1    0    0    0    0  0.00000000000E+00  0.00000000000E+00  0.99999998245E-14  0.12509000000E+03  0.12509000000E+03 0.  0.
        -13    1    3    3    0    0 -0.47657395771E+02 -0.11296393868E+02  0.33185499986E+02  0.59161849696E+02  0.10566000000E+00 0.  1.
         23    2    1    0    0    0 -0.13206303320E+02 -0.11262931860E+02  0.25140470351E+02  0.94539986400E+02  0.89467903170E+02 0.  0.
         13    1    3    3    0    0  0.34451092451E+02  0.33462007370E-01 -0.80450296357E+01  0.35378136704E+02  0.10566000000E+00 0. -1.
         22    1    1    0    0    0  0.13206303320E+02  0.11262931860E+02 -0.25140470351E+02  0.30550013600E+02  0.00000000000E+00 0.  1.
</event>
<event>
 5    1  0.1250806E-009  0.9118800E+02  0.7561462E-02  0.1125453E+00
         25   -1    0    0    0    0  0.00000000000E+00  0.00000000000E+00  0.99999998245E-14  0.12509000000E+03  0.12509000000E+03 0.  0.
        -13    1    3    3    0    0 -0.40164651890E+02  0.19042620043E+02  0.29877375367E+02  0.53558280055E+02  0.10566000000E+00 0.  1.
         23    2    1    0    0    0  0.17032247853E+01  0.17728848658E+02  0.22988134636E+02  0.96009639214E+02  0.91499636275E+02 0.  0.
         13    1    3    3    0    0  0.41867876676E+02 -0.13137713849E+01 -0.68892407309E+01  0.42451359159E+02  0.10566000000E+00 0. -1.
         22    1    1    0    0    0 -0.17032247853E+01 -0.17728848658E+02 -0.22988134636E+02  0.29080360786E+02  0.00000000000E+00 0.  1.
</event>
<event>
 5    1  0.1250806E-009  0.9118800E+02  0.7561462E-02  0.1125453E+00
         25   -1    0    0    0    0  0.00000000000E+00  0.00000000000E+00  0.99999998245E-14  0.12509000000E+03  0.12509000000E+03 0.  0.
        -13    1    3    3    0    0  0.55711815636E+01  0.34281550196E+02 -0.68561101675E+01  0.35401697114E+02  0.10566000000E+00 0.  1.
         23    2    1    0    0    0  0.40477452583E+01 -0.21508629469E+02 -0.22840109700E+02  0.93456536794E+02  0.87940026581E+02 0.  0.
         13    1    3    3    0    0 -0.15234363053E+01 -0.55790179665E+02 -0.15983999532E+02  0.58054839680E+02  0.10566000000E+00 0. -1.
         22    1    1    0    0    0 -0.40477452583E+01  0.21508629469E+02  0.22840109700E+02  0.31633463206E+02  0.00000000000E+00 0. -1.
</event>
<event>
 5    1  0.1250806E-009  0.9118800E+02  0.7561462E-02  0.1125453E+00
         25   -1    0    0    0    0  0.00000000000E+00  0.00000000000E+00  0.99999998245E-14  0.12509000000E+03  0.12509000000E+03 0.  0.
        -13    1    3    3    0    0  0.33496936511E+02 -0.13328715727E+02 -0.24123932193E+02  0.43378274367E+02  0.10566000000E+00 0.  1.
         23    2    1    0    0    0  0.18244809007E+02  0.89766006897E+01  0.20926850201E+02  0.95911489500E+02  0.91365356362E+02 0.  0.
         13    1    3    3    0    0 -0.15252127504E+02  0.22305316417E+02  0.45050782394E+02  0.52533215133E+02  0.10566000000E+00 0. -1.
         22    1    1    0    0    0 -0.18244809007E+02 -0.89766006897E+01 -0.20926850201E+02  0.29178510500E+02  0.00000000000E+00 0. -1.
</event>
<event>
 5    1  0.1250806E-009  0.9118800E+02  0.7561462E-02  0.1125453E+00
         25   -1    0    0    0    0  0.00000000000E+00  0.00000000000E+00  0.99999998245E-14  0.12509000000E+03  0.12509000000E+03 0.  0.
        -13    1    3    3    0    0  0.12719211598E+00 -0.13287372137E+02 -0.31361219259E+02  0.34060353398E+02  0.10566000000E+00 0.  1.
         23    2    1    0    0    0 -0.48743755386E+00  0.17990743686E+02  0.22457260986E+02  0.96310962061E+02  0.91910654379E+02 0.  0.
         13    1    3    3    0    0 -0.61462966984E+00  0.31278115823E+02  0.53818480245E+02  0.62250608663E+02  0.10566000000E+00 0. -1.
         22    1    1    0    0    0  0.48743755386E+00 -0.17990743686E+02 -0.22457260986E+02  0.28779037939E+02  0.00000000000E+00 0. -1.
</event>
<event>
 5    1  0.1250806E-009  0.9118800E+02  0.7561462E-02  0.1125453E+00
         25   -1    0    0    0    0  0.00000000000E+00  0.00000000000E+00  0.99999998245E-14  0.12509000000E+03  0.12509000000E+03 0.  0.
        -13    1    3    3    0    0 -0.46887724201E+02  0.22633690681E+02 -0.26405514062E+02  0.58378120658E+02  0.10566000000E+00 0.  1.
         23    2    1    0    0    0 -0.14960970106E+02  0.40329277993E+01 -0.25393664626E+02  0.95342170898E+02  0.90582538136E+02 0.  0.
         13    1    3    3    0    0  0.31926754095E+02 -0.18600762881E+02  0.10118494359E+01  0.36964050240E+02  0.10566000000E+00 0. -1.
         22    1    1    0    0    0  0.14960970106E+02 -0.40329277993E+01  0.25393664626E+02  0.29747829102E+02  0.00000000000E+00 0.  1.
</event>
<event>
 5    1  0.1250806E-009  0.9118800E+02  0.7561462E-02  0.1125453E+00
         25   -1    0    0    0    0  0.00000000000E+00  0.00000000000E+00  0.99999998245E-14  0.12509000000E+03  0.12509000000E+03 0.  0.
        -13    1    3    3    0    0  0.33670989741E+02 -0.15548716023E+01  0.14868957857E+02  0.36840877401E+02  0.10566000000E+00 0.  1.
         23    2    1    0    0    0 -0.10068469798E+02  0.16151430757E+02 -0.21469522612E+02  0.96398830613E+02  0.92030165396E+02 0.  0.
         13    1    3    3    0    0 -0.43739459539E+02  0.17706302359E+02 -0.36338480469E+02  0.59557953213E+02  0.10566000000E+00 0. -1.
         22    1    1    0    0    0  0.10068469798E+02 -0.16151430757E+02  0.21469522612E+02  0.28691169387E+02  0.00000000000E+00 0. -1.
</event>
<event>
 5    1  0.1250806E-009  0.9118800E+02  0.7561462E-02  0.1125453E+00
         25   -1    0    0    0    0  0.00000000000E+00  0.00000000000E+00  0.99999998245E-14  0.12509000000E+03  0.12509000000E+03 0.  0.
        -13    1    3    3    0    0 -0.25223137352E+02  0.20935418505E+02  0.30329875404E+00  0.32781115906E+02  0.10566000000E+00 0.  1.
         23    2    1    0    0    0  0.58940101593E+01 -0.25734590795E+02 -0.19501691337E+02  0.92267378469E+02  0.86231923587E+02 0.  0.
         13    1    3    3    0    0  0.31117147511E+02 -0.46670009300E+02 -0.19804990091E+02  0.59486262564E+02  0.10566000000E+00 0. -1.
         22    1    1    0    0    0 -0.58940101593E+01  0.25734590795E+02  0.19501691337E+02  0.32822621531E+02  0.00000000000E+00 0. -1.
</event>
<event>
 5    1  0.1250806E-009  0.9118800E+02  0.7561462E-02  0.1125453E+00
         25   -1    0    0    0    0  0.00000000000E+00  0.00000000000E+00  0.99999998245E-14  0.12509000000E+03  0.12509000000E+03 0.  0.
        -13    1    3    3    0    0  0.23841086783E+02 -0.42218929228E+02 -0.82185184212E+01  0.49177135065E+02  0.10566000000E+00 0. -1.
         23    2    1    0    0    0  0.34877155237E+01 -0.15784946283E+01 -0.26607534550E+02  0.98208469171E+02  0.94457856832E+02 0.  0.
         13    1    3    3    0    0 -0.20353371259E+02  0.40640434599E+02 -0.18389016129E+02  0.49031334106E+02  0.10566000000E+00 0.  1.
         22    1    1    0    0    0 -0.34877155237E+01  0.15784946283E+01  0.26607534550E+02  0.26881530829E+02  0.00000000000E+00 0. -1.
</event>
<event>
 5    1  0.1250806E-009  0.9118800E+02  0.7561462E-02  0.1125453E+00
         25   -1    0    0    0    0  0.00000000000E+00  0.00000000000E+00  0.99999998245E-14  0.12509000000E+03  0.12509000000E+03 0.  0.
        -13    1    3    3    0    0 -0.22820446869E+02  0.48656637408E+02  0.29206676635E+01  0.53821767184E+02  0.10566000000E+00 0.  1.
         23    2    1    0    0    0  0.65797296363E+01  0.23697633633E+02  0.17342715871E+02  0.94996138904E+02  0.90103417976E+02 0.  0.
         13    1    3    3    0    0  0.29400176505E+02 -0.24959003775E+02  0.14422048208E+02  0.41174371720E+02  0.10566000000E+00 0. -1.
         22    1    1    0    0    0 -0.65797296363E+01 -0.23697633633E+02 -0.17342715871E+02  0.30093861096E+02  0.00000000000E+00 0.  1.
</event>
<event>
 5    1  0.1250806E-009  0.9118800E+02  0.7561462E-02  0.1125453E+00
         25   -1    0    0    0    0  0.00000000000E+00  0.00000000000E+00  0.99999998245E-14  0.12509000000E+03  0.12509000000E+03 0.  0.
        -13    1    3    3    0    0  0.12140530472E+01  0.77564032463E+01 -0.53025752081E+02  0.53603892246E+02  0.10566000000E+00 0.  1.
         23    2    1    0    0    0 -0.17615040235E+02  0.17029750835E+02 -0.17099580562E+02  0.95211952684E+02  0.90402534381E+02 0.  0.
         13    1    3    3    0    0 -0.18829093283E+02  0.92733475890E+01  0.35926171519E+02  0.41608060438E+02  0.10566000000E+00 0. -1.
         22    1    1    0    0    0  0.17615040235E+02 -0.17029750835E+02  0.17099580562E+02  0.29878047316E+02  0.00000000000E+00 0.  1.
</event>
<event>
 5    1  0.1250806E-009  0.9118800E+02  0.7561462E-02  0.1125453E+00
         25   -1    0    0    0    0  0.00000000000E+00  0.00000000000E+00  0.99999998245E-14  0.12509000000E+03  0.12509000000E+03 0.  0.
        -13    1    3    3    0    0 -0.23727026338E+02 -0.55836061631E+02  0.17770410165E+01  0.60694370383E+02  0.10566000000E+00 0. -1.
         23    2    1    0    0    0 -0.20360733235E+02 -0.22606462586E+02  0.50333964991E+01  0.94252576489E+02  0.89065153040E+02 0.  0.
         13    1    3    3    0    0  0.33662931035E+01  0.33229599046E+02  0.32563554826E+01  0.33558206106E+02  0.10566000000E+00 0.  1.
         22    1    1    0    0    0  0.20360733235E+02  0.22606462586E+02 -0.50333964991E+01  0.30837423511E+02  0.00000000000E+00 0. -1.
</event>
<event>
 5    1  0.1250806E-009  0.9118800E+02  0.7561462E-02  0.1125453E+00
         25   -1    0    0    0    0  0.00000000000E+00  0.00000000000E+00  0.99999998245E-14  0.12509000000E+03  0.12509000000E+03 0.  0.
        -13    1    3    3    0    0  0.15747232111E+02  0.14059405433E+02 -0.41124850772E+02  0.46226688345E+02  0.10566000000E+00 0.  1.
         23    2    1    0    0    0 -0.21816307845E+02 -0.83925904060E+01 -0.16893077548E+02  0.96249699538E+02  0.91827238499E+02 0.  0.
         13    1    3    3    0    0 -0.37563539956E+02 -0.22451995839E+02  0.24231773224E+02  0.50023011193E+02  0.10566000000E+00 0. -1.
         22    1    1    0    0    0  0.21816307845E+02  0.83925904060E+01  0.16893077548E+02  0.28840300462E+02  0.00000000000E+00 0. -1.
</event>
<event>
 5    1  0.1250806E-009  0.9118800E+02  0.7561462E-02  0.1125453E+00
         25   -1    0    0    0    0  0.00000000000E+00  0.00000000000E+00  0.99999998245E-14  0.12509000000E+03  0.12509000000E+03 0.  0.
        -13    1    3    3    0    0  0.40352664231E+02  0.21067609949E+01 -0.17184410379E+02  0.43910033894E+02  0.10566000000E+00 0.  1.
         23    2    1    0    0    0 -0.85767200027E+01  0.86109948840E+01 -0.28110439188E+02  0.94464746528E+02  0.89362644244E+02 0.  0.
         13    1    3    3    0    0 -0.48929384234E+02  0.65042338891E+01 -0.10926028808E+02  0.50554712634E+02  0.10566000000E+00 0. -1.
         22    1    1    0    0    0  0.85767200027E+01 -0.86109948840E+01  0.28110439188E+02  0.30625253472E+02  0.00000000000E+00 0.  1.
</event>
<event>
 5    1  0.1250806E-009  0.9118800E+02  0.7561462E-02  0.1125453E+00
         25   -1    0    0    0    0  0.00000000000E+00  0.00000000000E+00  0.99999998245E-14  0.12509000000E+03  0.12509000000E+03 0.  0.
        -13    1    3    3    0    0  0.34436445454E+02  0.44769046681E+02 -0.19694324190E+02  0.59816501783E+02  0.10566000000E+00 0. -1.
         23    2    1    0    0    0  0.87606250682E+01  0.28256512588E+02 -0.12564372801E+01  0.95479905609E+02  0.90772543675E+02 0.  0.
         13    1    3    3    0    0 -0.25675820386E+02 -0.16512534093E+02  0.18437886910E+02  0.35663403825E+02  0.10566000000E+00 0.  1.
         22    1    1    0    0    0 -0.87606250682E+01 -0.28256512588E+02  0.12564372801E+01  0.29610094391E+02  0.00000000000E+00 0. -1.
</event>
<event>
 5    1  0.1250806E-009  0.9118800E+02  0.7561462E-02  0.1125453E+00
         25   -1    0    0    0    0  0.00000000000E+00  0.00000000000E+00  0.99999998245E-14  0.12509000000E+03  0.12509000000E+03 0.  0.
        -13    1    3    3    0    0  0.50658305577E+02  0.24777020475E+02  0.11885130389E+02  0.57631867538E+02  0.10566000000E+00 0. -1.
         23    2    1    0    0    0  0.12373009113E+02  0.24503095547E+02  0.96859508022E+01  0.95981398370E+02  0.91461019807E+02 0.  0.
         13    1    3    3    0    0 -0.38285296463E+02 -0.27392492755E+00 -0.21991795863E+01  0.38349530832E+02  0.10566000000E+00 0.  1.
         22    1    1    0    0    0 -0.12373009113E+02 -0.24503095547E+02 -0.96859508022E+01  0.29108601630E+02  0.00000000000E+00 0. -1.
</event>
<event>
 5    1  0.1250806E-009  0.9118800E+02  0.7561462E-02  0.1125453E+00
         25   -1    0    0    0    0  0.00000000000E+00  0.00000000000E+00  0.99999998245E-14  0.12509000000E+03  0.12509000000E+03 0.  0.
        -13    1    3    3    0    0 -0.14031841310E+01 -0.72179486467E+01  0.34471109203E+02  0.35246790522E+02  0.10566000000E+00 0.  1.
         23    2    1    0    0    0 -0.16376915207E+02  0.42275587541E+01 -0.23461073111E+02  0.96167732519E+02  0.91715512437E+02 0.  0.
         13    1    3    3    0    0 -0.14973731076E+02  0.11445507401E+02 -0.57932182315E+02  0.60920941997E+02  0.10566000000E+00 0. -1.
         22    1    1    0    0    0  0.16376915207E+02 -0.42275587541E+01  0.23461073111E+02  0.28922267481E+02  0.00000000000E+00 0. -1.
</event>
<event>
 5    1  0.1250806E-009  0.9118800E+02  0.7561462E-02  0.1125453E+00
         25   -1    0    0    0    0  0.00000000000E+00  0.00000000000E+00  0.99999998245E-14  0.12509000000E+03  0.12509000000E+03 0.  0.
        -13    1    3    3    0    0  0.14979804937E+01  0.10201333534E+02  0.14668095223E+02  0.17929733209E+02  0.10566000000E+00 0. -1.
         23    2    1    0    0    0 -0.45106796921E+02 -0.87050727693E+01 -0.15534500437E+02  0.76595442323E+02  0.59288613245E+02 0.  0.
         13    1    3    3    0    0 -0.46604777415E+02 -0.18906406304E+02 -0.30202595660E+02  0.58665709114E+02  0.10566000000E+00 0.  1.
         22    1    1    0    0    0  0.45106796921E+02  0.87050727693E+01  0.15534500437E+02  0.48494557677E+02  0.00000000000E+00 0.  1.
</event>
<event>
 5    1  0.1250806E-009  0.9118800E+02  0.7561462E-02  0.1125453E+00
         25   -1    0    0    0    0  0.00000000000E+00  0.00000000000E+00  0.99999998245E-14  0.12509000000E+03  0.12509000000E+03 0.  0.
        -13    1    3    3    0    0  0.49751527361E+02  0.91461708741E+01  0.76756240616E+01  0.51164375157E+02  0.10566000000E+00 0.  1.
         23    2    1    0    0    0  0.11352008329E+02  0.25653934139E+02 -0.81800718497E+01  0.95868329867E+02  0.91306246589E+02 0.  0.
         13    1    3    3    0    0 -0.38399519032E+02  0.16507763264E+02 -0.15855695911E+02  0.44703954710E+02  0.10566000000E+00 0. -1.
         22    1    1    0    0    0 -0.11352008329E+02 -0.25653934139E+02  0.81800718497E+01  0.29221670133E+02  0.00000000000E+00 0.  1.
</event>
<event>
 5    1  0.1250806E-009  0.9118800E+02  0.7561462E-02  0.1125453E+00
         25   -1    0    0    0    0  0.00000000000E+00  0.00000000000E+00  0.99999998245E-14  0.12509000000E+03  0.12509000000E+03 0.  0.
        -13    1    3    3    0    0 -0.13288581818E+02  0.26130572349E+02  0.44944353225E+02  0.53660034186E+02  0.10566000000E+00 0. -1.
         23    2    1    0    0    0 -0.28322951674E+01  0.29171750616E+02  0.46321383188E+01  0.95417291405E+02  0.90686216504E+02 0.  0.
         13    1    3    3    0    0  0.10456286651E+02  0.30411782668E+01 -0.40312214906E+02  0.41757257219E+02  0.10566000000E+00 0.  1.
         22    1    1    0    0    0  0.28322951674E+01 -0.29171750616E+02 -0.46321383188E+01  0.29672708595E+02  0.00000000000E+00 0. -1.
</event>
<event>
 5    1  0.1250806E-009  0.9118800E+02  0.7561462E-02  0.1125453E+00
         25   -1    0    0    0    0  0.00000000000E+00  0.00000000000E+00  0.99999998245E-14  0.12509000000E+03  0.12509000000E+03 0.  0.
        -13    1    3    3    0    0 -0.26456397614E+02  0.35205386134E+02  0.13352816209E+02  0.46018138297E+02  0.10566000000E+00 0. -1.
         23    2    1    0    0    0 -0.31370041196E+02 -0.95407613139E+01  0.79042215272E+01  0.91361935587E+02  0.84908309047E+02 0.  0.
         13    1    3    3    0    0 -0.49136435812E+01 -0.44746147448E+02 -0.54485946819E+01  0.45343797290E+02  0.10566000000E+00 0.  1.
         22    1    1    0    0    0  0.31370041196E+02  0.95407613139E+01 -0.79042215272E+01  0.33728064413E+02  0.00000000000E+00 0. -1.
</event>
<event>
 5    1  0.1250806E-009  0.9118800E+02  0.7561462E-02  0.1125453E+00
         25   -1    0    0    0    0  0.00000000000E+00  0.00000000000E+00  0.99999998245E-14  0.12509000000E+03  0.12509000000E+03 0.  0.
        -13    1    3    3    0    0  0.35207232061E+02  0.23485939456E+02  0.15133353078E+02  0.44946279945E+02  0.10566000000E+00 0.  1.
         23    2    1    0    0    0 -0.14567751352E+02  0.25327126945E+00  0.20281997422E+02  0.10011715584E+03  0.96952575773E+02 0.  0.
         13    1    3    3    0    0 -0.49774983413E+02 -0.23232668186E+02  0.51486443440E+01  0.55170875899E+02  0.10566000000E+00 0. -1.
         22    1    1    0    0    0  0.14567751352E+02 -0.25327126945E+00 -0.20281997422E+02  0.24972844156E+02  0.00000000000E+00 0. -1.
</event>
<event>
 5    1  0.1250806E-009  0.9118800E+02  0.7561462E-02  0.1125453E+00
         25   -1    0    0    0    0  0.00000000000E+00  0.00000000000E+00  0.99999998245E-14  0.12509000000E+03  0.12509000000E+03 0.  0.
        -13    1    3    3    0    0 -0.42684937462E+02 -0.57578196842E+01  0.38040489043E+02  0.57465175056E+02  0.10566000000E+00 0.  1.
         23    2    1    0    0    0 -0.89414341461E+01 -0.15826241499E+02  0.23044988748E+02  0.95738838678E+02  0.91128670353E+02 0.  0.
         13    1    3    3    0    0  0.33743503316E+02 -0.10068421815E+02 -0.14995500295E+02  0.38273663621E+02  0.10566000000E+00 0. -1.
         22    1    1    0    0    0  0.89414341461E+01  0.15826241499E+02 -0.23044988748E+02  0.29351161322E+02  0.00000000000E+00 0.  1.
</event>
<event>
 5    1  0.1250806E-009  0.9118800E+02  0.7561462E-02  0.1125453E+00
         25   -1    0    0    0    0  0.00000000000E+00  0.00000000000E+00  0.99999998245E-14  0.12509000000E+03  0.12509000000E+03 0.  0.
        -13    1    3    3    0    0 -0.19845087676E+02 -0.19752809161E+02  0.19776349418E+02  0.34279966963E+02  0.10566000000E+00 0.  1.
         23    2    1    0    0    0  0.10601212830E+02  0.23825013845E+02 -0.12182809863E+02  0.96307403621E+02  0.91905811230E+02 0.  0.
         13    1    3    3    0    0  0.30446300506E+02  0.43577823006E+02 -0.31959159281E+02  0.62027436658E+02  0.10566000000E+00 0. -1.
         22    1    1    0    0    0 -0.10601212830E+02 -0.23825013845E+02  0.12182809863E+02  0.28782596379E+02  0.00000000000E+00 0. -1.
</event>
<event>
 5    1  0.1250806E-009  0.9118800E+02  0.7561462E-02  0.1125453E+00
         25   -1    0    0    0    0  0.00000000000E+00  0.00000000000E+00  0.99999998245E-14  0.12509000000E+03  0.12509000000E+03 0.  0.
        -13    1    3    3    0    0 -0.34229669759E+02  0.44228654163E+01 -0.14979440572E+02  0.37624816733E+02  0.10566000000E+00 0.  1.
         23    2    1    0    0    0  0.14632096317E+02  0.19738442800E+02  0.14350508931E+02  0.96635800427E+02  0.92351699772E+02 0.  0.
         13    1    3    3    0    0  0.48861766076E+02  0.15315577383E+02  0.29329949503E+02  0.59010983694E+02  0.10566000000E+00 0. -1.
         22    1    1    0    0    0 -0.14632096317E+02 -0.19738442800E+02 -0.14350508931E+02  0.28454199573E+02  0.00000000000E+00 0. -1.
</event>
<event>
 5    1  0.1250806E-009  0.9118800E+02  0.7561462E-02  0.1125453E+00
         25   -1    0    0    0    0  0.00000000000E+00  0.00000000000E+00  0.99999998245E-14  0.12509000000E+03  0.12509000000E+03 0.  0.
        -13    1    3    3    0    0 -0.34486229795E+02  0.28330777880E+02  0.30643102420E+02  0.54138192718E+02  0.10566000000E+00 0. -1.
         23    2    1    0    0    0 -0.15030627512E+02 -0.80885771557E+01  0.23505236647E+02  0.96041058649E+02  0.91542579999E+02 0.  0.
         13    1    3    3    0    0  0.19455602283E+02 -0.36419355035E+02 -0.71378657737E+01  0.41902865931E+02  0.10566000000E+00 0.  1.
         22    1    1    0    0    0  0.15030627512E+02  0.80885771557E+01 -0.23505236647E+02  0.29048941351E+02  0.00000000000E+00 0. -1.
</event>
<event>
 5    1  0.1250806E-009  0.9118800E+02  0.7561462E-02  0.1125453E+00
         25   -1    0    0    0    0  0.00000000000E+00  0.00000000000E+00  0.99999998245E-14  0.12509000000E+03  0.12509000000E+03 0.  0.
        -13    1    3    3    0    0 -0.15581977074E+02 -0.29762645463E+02 -0.35599343948E+02  0.48948314864E+02  0.10566000000E+00 0. -1.
         23    2    1    0    0    0 -0.30456384665E+02  0.26306488490E+01 -0.96685724300E+01  0.93027670498E+02  0.87327856410E+02 0.  0.
         13    1    3    3    0    0 -0.14874407591E+02  0.32393294312E+02  0.25930771518E+02  0.44079355634E+02  0.10566000000E+00 0.  1.
         22    1    1    0    0    0  0.30456384665E+02 -0.26306488490E+01  0.96685724300E+01  0.32062329502E+02  0.00000000000E+00 0. -1.
</event>
<event>
 5    1  0.1250806E-009  0.9118800E+02  0.7561462E-02  0.1125453E+00
         25   -1    0    0    0    0  0.00000000000E+00  0.00000000000E+00  0.99999998245E-14  0.12509000000E+03  0.12509000000E+03 0.  0.
        -13    1    3    3    0    0  0.17325741869E+02 -0.10493807174E+02 -0.33260172869E+02  0.38942927261E+02  0.10566000000E+00 0.  1.
         23    2    1    0    0    0 -0.85430779617E+01  0.28281253736E+02 -0.11890939353E+01  0.95522662644E+02  0.90831446318E+02 0.  0.
         13    1    3    3    0    0 -0.25868819831E+02  0.38775060910E+02  0.32071078934E+02  0.56579735383E+02  0.10566000000E+00 0. -1.
         22    1    1    0    0    0  0.85430779617E+01 -0.28281253736E+02  0.11890939353E+01  0.29567337356E+02  0.00000000000E+00 0. -1.
</event>
<event>
 5    1  0.1250806E-009  0.9118800E+02  0.7561462E-02  0.1125453E+00
         25   -1    0    0    0    0  0.00000000000E+00  0.00000000000E+00  0.99999998245E-14  0.12509000000E+03  0.12509000000E+03 0.  0.
        -13    1    3    3    0    0  0.56500517062E+02  0.18088335628E+02  0.15166791380E+02  0.61233479722E+02  0.10566000000E+00 0.  1.
         23    2    1    0    0    0  0.28383910486E+02 -0.21438739753E+00  0.87165954700E+01  0.95397048429E+02  0.90658289615E+02 0.  0.
         13    1    3    3    0    0 -0.28116606576E+02 -0.18302723025E+02 -0.64501959100E+01  0.34163568707E+02  0.10566000000E+00 0. -1.
         22    1    1    0    0    0 -0.28383910486E+02  0.21438739753E+00 -0.87165954700E+01  0.29692951571E+02  0.00000000000E+00 0.  1.
</event>
<event>
 5    1  0.1250806E-009  0.9118800E+02  0.7561462E-02  0.1125453E+00
         25   -1    0    0    0    0  0.00000000000E+00  0.00000000000E+00  0.99999998245E-14  0.12509000000E+03  0.12509000000E+03 0.  0.
        -13    1    3    3    0    0 -0.12645450784E+02  0.39244471881E+02 -0.42592641225E+02  0.59280521668E+02  0.10566000000E+00 0.  1.
         23    2    1    0    0    0 -0.51536104786E+01  0.62245229699E+01 -0.27637022673E+02  0.96295739992E+02  0.91889934874E+02 0.  0.
         13    1    3    3    0    0  0.74918403058E+01 -0.33019948911E+02  0.14955618551E+02  0.37015218323E+02  0.10566000000E+00 0. -1.
         22    1    1    0    0    0  0.51536104786E+01 -0.62245229699E+01  0.27637022673E+02  0.28794260008E+02  0.00000000000E+00 0.  1.
</event>
<event>
 5    1  0.1250806E-009  0.9118800E+02  0.7561462E-02  0.1125453E+00
         25   -1    0    0    0    0  0.00000000000E+00  0.00000000000E+00  0.99999998245E-14  0.12509000000E+03  0.12509000000E+03 0.  0.
        -13    1    3    3    0    0  0.43363991577E+02 -0.40774608206E+01  0.21800962952E+02  0.48706822951E+02  0.10566000000E+00 0.  1.
         23    2    1    0    0    0  0.21111054209E+01 -0.23926826081E+02  0.18804762816E+02  0.94584772957E+02  0.89530499822E+02 0.  0.
         13    1    3    3    0    0 -0.41252886157E+02 -0.19849365260E+02 -0.29962001362E+01  0.45877950006E+02  0.10566000000E+00 0. -1.
         22    1    1    0    0    0 -0.21111054209E+01  0.23926826081E+02 -0.18804762816E+02  0.30505227043E+02  0.00000000000E+00 0. -1.
</event>
<event>
 5    1  0.1250806E-009  0.9118800E+02  0.7561462E-02  0.1125453E+00
         25   -1    0    0    0    0  0.00000000000E+00  0.00000000000E+00  0.99999998245E-14  0.12509000000E+03  0.12509000000E+03 0.  0.
        -13    1    3    3    0    0  0.28978993071E+02  0.18488078344E+02 -0.35248007182E+02  0.49234380819E+02  0.10566000000E+00 0.  1.
         23    2    1    0    0    0  0.24928636777E+02 -0.16109726397E+02 -0.58009704005E+01  0.94847455899E+02  0.89896765330E+02 0.  0.
         13    1    3    3    0    0 -0.40503562943E+01 -0.34597804741E+02  0.29447036781E+02  0.45613075080E+02  0.10566000000E+00 0. -1.
         22    1    1    0    0    0 -0.24928636777E+02  0.16109726397E+02  0.58009704005E+01  0.30242544101E+02  0.00000000000E+00 0.  1.
</event>
<event>
 5    1  0.1250806E-009  0.9118800E+02  0.7561462E-02  0.1125453E+00
         25   -1    0    0    0    0  0.00000000000E+00  0.00000000000E+00  0.99999998245E-14  0.12509000000E+03  0.12509000000E+03 0.  0.
        -13    1    3    3    0    0  0.16323137017E+02  0.45918037687E+02 -0.21565672638E+02  0.53291654014E+02  0.10566000000E+00 0. -1.
         23    2    1    0    0    0 -0.14999288698E+02  0.26489003354E+02 -0.31749818705E+01  0.94484012514E+02  0.89389608740E+02 0.  0.
         13    1    3    3    0    0 -0.31322425716E+02 -0.19429034333E+02  0.18390690767E+02  0.41192358500E+02  0.10566000000E+00 0.  1.
         22    1    1    0    0    0  0.14999288698E+02 -0.26489003354E+02  0.31749818705E+01  0.30605987486E+02  0.00000000000E+00 0. -1.
</event>
<event>
 5    1  0.1250806E-009  0.9118800E+02  0.7561462E-02  0.1125453E+00
         25   -1    0    0    0    0  0.00000000000E+00  0.00000000000E+00  0.99999998245E-14  0.12509000000E+03  0.12509000000E+03 0.  0.
        -13    1    3    3    0    0 -0.55827979560E+01  0.29795871022E+02 -0.30180686797E+02  0.42776706074E+02  0.10566000000E+00 0. -1.
         23    2    1    0    0    0  0.22538013413E+02  0.66548936697E+01  0.12164375170E+02  0.98628297832E+02  0.95012206856E+02 0.  0.
         13    1    3    3    0    0  0.28120811369E+02 -0.23140977352E+02  0.42345061967E+02  0.55851591758E+02  0.10566000000E+00 0.  1.
         22    1    1    0    0    0 -0.22538013413E+02 -0.66548936697E+01 -0.12164375170E+02  0.26461702168E+02  0.00000000000E+00 0.  1.
</event>
<event>
 5    1  0.1250806E-009  0.9118800E+02  0.7561462E-02  0.1125453E+00
         25   -1    0    0    0    0  0.00000000000E+00  0.00000000000E+00  0.99999998245E-14  0.12509000000E+03  0.12509000000E+03 0.  0.
        -13    1    3    3    0    0 -0.21445830232E+02 -0.34006065694E+02  0.43000400113E+02  0.58867492831E+02  0.10566000000E+00 0.  1.
         23    2    1    0    0    0  0.35203233431E+01 -0.10954241864E+02  0.25553245357E+02  0.97065788334E+02  0.92932291618E+02 0.  0.
         13    1    3    3    0    0  0.24966153575E+02  0.23051823830E+02 -0.17447154756E+02  0.38198295503E+02  0.10566000000E+00 0. -1.
         22    1    1    0    0    0 -0.35203233431E+01  0.10954241864E+02 -0.25553245357E+02  0.28024211666E+02  0.00000000000E+00 0.  1.
</event>
<event>
 5    1  0.1250806E-009  0.9118800E+02  0.7561462E-02  0.1125453E+00
         25   -1    0    0    0    0  0.00000000000E+00  0.00000000000E+00  0.99999998245E-14  0.12509000000E+03  0.12509000000E+03 0.  0.
        -13    1    3    3    0    0 -0.26672510682E+02  0.17118184634E+02  0.11845854665E+02  0.33834752963E+02  0.10566000000E+00 0. -1.
         23    2    1    0    0    0  0.12617254769E+02 -0.23811961876E+02 -0.12265740342E+02  0.95481672921E+02  0.90774979104E+02 0.  0.
         13    1    3    3    0    0  0.39289765451E+02 -0.40930146510E+02 -0.24111595007E+02  0.61646919958E+02  0.10566000000E+00 0.  1.
         22    1    1    0    0    0 -0.12617254769E+02  0.23811961876E+02  0.12265740342E+02  0.29608327079E+02  0.00000000000E+00 0.  1.
</event>
<event>
 5    1  0.1250806E-009  0.9118800E+02  0.7561462E-02  0.1125453E+00
         25   -1    0    0    0    0  0.00000000000E+00  0.00000000000E+00  0.99999998245E-14  0.12509000000E+03  0.12509000000E+03 0.  0.
        -13    1    3    3    0    0  0.40049625023E+02  0.21697705143E+02  0.42813403857E+02  0.62512091525E+02  0.10566000000E+00 0.  1.
         23    2    1    0    0    0  0.25244004360E+02  0.15138931601E+02  0.26963919290E+02  0.85171333319E+02  0.75237331622E+02 0.  0.
         13    1    3    3    0    0 -0.14805620663E+02 -0.65587735417E+01 -0.15849484567E+02  0.22659241794E+02  0.10566000000E+00 0. -1.
         22    1    1    0    0    0 -0.25244004360E+02 -0.15138931601E+02 -0.26963919290E+02  0.39918666681E+02  0.00000000000E+00 0.  1.
</event>
<event>
 5    1  0.1250806E-009  0.9118800E+02  0.7561462E-02  0.1125453E+00
         25   -1    0    0    0    0  0.00000000000E+00  0.00000000000E+00  0.99999998245E-14  0.12509000000E+03  0.12509000000E+03 0.  0.
        -13    1    3    3    0    0 -0.12692689149E+02 -0.23791405584E+02 -0.22524127505E+02  0.35135207718E+02  0.10566000000E+00 0.  1.
         23    2    1    0    0    0 -0.11497205753E+02  0.24380711561E+02  0.13157142837E+02  0.95094746309E+02  0.90240210170E+02 0.  0.
         13    1    3    3    0    0  0.11954833961E+01  0.48172117145E+02  0.35681270342E+02  0.59959538591E+02  0.10566000000E+00 0. -1.
         22    1    1    0    0    0  0.11497205753E+02 -0.24380711561E+02 -0.13157142837E+02  0.29995253691E+02  0.00000000000E+00 0. -1.
</event>
<event>
 5    1  0.1250806E-009  0.9118800E+02  0.7561462E-02  0.1125453E+00
         25   -1    0    0    0    0  0.00000000000E+00  0.00000000000E+00  0.99999998245E-14  0.12509000000E+03  0.12509000000E+03 0.  0.
        -13    1    3    3    0    0 -0.84132089619E+01 -0.35560194598E+02  0.74273986255E+01  0.37289233557E+02  0.10566000000E+00 0. -1.
         23    2    1    0    0    0 -0.23396940965E+02  0.15865770799E+02 -0.12151635367E+02  0.94319855840E+02  0.89159595299E+02 0.  0.
         13    1    3    3    0    0 -0.14983732003E+02  0.51425965398E+02 -0.19579033992E+02  0.57030622282E+02  0.10566000000E+00 0.  1.
         22    1    1    0    0    0  0.23396940965E+02 -0.15865770799E+02  0.12151635367E+02  0.30770144160E+02  0.00000000000E+00 0.  1.
</event>
<event>
 5    1  0.1250806E-009  0.9118800E+02  0.7561462E-02  0.1125453E+00
         25   -1    0    0    0    0  0.00000000000E+00  0.00000000000E+00  0.99999998245E-14  0.12509000000E+03  0.12509000000E+03 0.  0.
        -13    1    3    3    0    0 -0.17224799218E+02  0.28029161767E+02 -0.23726997970E+02  0.40562411345E+02  0.10566000000E+00 0.  1.
         23    2    1    0    0    0  0.27565329980E+02  0.77864422838E+01  0.26125468716E+01  0.96327150672E+02  0.91932684368E+02 0.  0.
         13    1    3    3    0    0  0.44790129198E+02 -0.20242719483E+02  0.26339544842E+02  0.55764739326E+02  0.10566000000E+00 0. -1.
         22    1    1    0    0    0 -0.27565329980E+02 -0.77864422838E+01 -0.26125468716E+01  0.28762849328E+02  0.00000000000E+00 0. -1.
</event>
<event>
 5    1  0.1250806E-009  0.9118800E+02  0.7561462E-02  0.1125453E+00
         25   -1    0    0    0    0  0.00000000000E+00  0.00000000000E+00  0.99999998245E-14  0.12509000000E+03  0.12509000000E+03 0.  0.
        -13    1    3    3    0    0  0.22578531891E+02 -0.20036090484E+02 -0.49258321546E+02  0.57772211571E+02  0.10566000000E+00 0. -1.
         23    2    1    0    0    0 -0.46316469580E+01 -0.17842675175E+02 -0.22562715180E+02  0.95954294633E+02  0.91423942877E+02 0.  0.
         13    1    3    3    0    0 -0.27210178849E+02  0.21934153095E+01  0.26695606365E+02  0.38182083062E+02  0.10566000000E+00 0.  1.
         22    1    1    0    0    0  0.46316469580E+01  0.17842675175E+02  0.22562715180E+02  0.29135705367E+02  0.00000000000E+00 0. -1.
</event>
<event>
 5    1  0.1250806E-009  0.9118800E+02  0.7561462E-02  0.1125453E+00
         25   -1    0    0    0    0  0.00000000000E+00  0.00000000000E+00  0.99999998245E-14  0.12509000000E+03  0.12509000000E+03 0.  0.
        -13    1    3    3    0    0 -0.17292447899E+02 -0.57097298650E+02  0.81668061283E-01  0.59658596205E+02  0.10566000000E+00 0.  1.
         23    2    1    0    0    0 -0.18098901383E+02 -0.21513605484E+02 -0.73757592011E+01  0.96024431435E+02  0.91519856624E+02 0.  0.
         13    1    3    3    0    0 -0.80645348402E+00  0.35583693166E+02 -0.74574272624E+01  0.36365835230E+02  0.10566000000E+00 0. -1.
         22    1    1    0    0    0  0.18098901383E+02  0.21513605484E+02  0.73757592011E+01  0.29065568565E+02  0.00000000000E+00 0.  1.
</event>
<event>
 5    1  0.1250806E-009  0.9118800E+02  0.7561462E-02  0.1125453E+00
         25   -1    0    0    0    0  0.00000000000E+00  0.00000000000E+00  0.99999998245E-14  0.12509000000E+03  0.12509000000E+03 0.  0.
        -13    1    3    3    0    0  0.32580560493E+02  0.19806479450E+02 -0.22265563262E+02  0.44153776980E+02  0.10566000000E+00 0.  1.
         23    2    1    0    0    0  0.10118856366E+02  0.27853102029E+02  0.17606880705E+02  0.90619885481E+02  0.83807964118E+02 0.  0.
         13    1    3    3    0    0 -0.22461704127E+02  0.80466225790E+01  0.39872443968E+02  0.46466108501E+02  0.10566000000E+00 0. -1.
         22    1    1    0    0    0 -0.10118856366E+02 -0.27853102029E+02 -0.17606880705E+02  0.34470114519E+02  0.00000000000E+00 0.  1.
</event>
<event>
 5    1  0.1250806E-009  0.9118800E+02  0.7561462E-02  0.1125453E+00
         25   -1    0    0    0    0  0.00000000000E+00  0.00000000000E+00  0.99999998245E-14  0.12509000000E+03  0.12509000000E+03 0.  0.
        -13    1    3    3    0    0  0.31503943600E+01 -0.34277227572E+02 -0.49274569572E+02  0.60106968691E+02  0.10566000000E+00 0. -1.
         23    2    1    0    0    0  0.11829970434E+02 -0.98329867950E+01 -0.25586960270E+02  0.95234877062E+02  0.90434249282E+02 0.  0.
         13    1    3    3    0    0  0.86795760741E+01  0.24444240777E+02  0.23687609302E+02  0.35127908370E+02  0.10566000000E+00 0.  1.
         22    1    1    0    0    0 -0.11829970434E+02  0.98329867950E+01  0.25586960270E+02  0.29855122938E+02  0.00000000000E+00 0. -1.
</event>
<event>
 5    1  0.1250806E-009  0.9118800E+02  0.7561462E-02  0.1125453E+00
         25   -1    0    0    0    0  0.00000000000E+00  0.00000000000E+00  0.99999998245E-14  0.12509000000E+03  0.12509000000E+03 0.  0.
        -13    1    3    3    0    0 -0.25532003246E+02 -0.32355051782E+02  0.42548591531E+02  0.59237879527E+02  0.10566000000E+00 0.  1.
         23    2    1    0    0    0 -0.22307058672E+02 -0.52013592489E+01  0.18730277665E+02  0.95501449747E+02  0.90802227934E+02 0.  0.
         13    1    3    3    0    0  0.32249445736E+01  0.27153692533E+02 -0.23818313866E+02  0.36263570220E+02  0.10566000000E+00 0. -1.
         22    1    1    0    0    0  0.22307058672E+02  0.52013592489E+01 -0.18730277665E+02  0.29588550253E+02  0.00000000000E+00 0.  1.
</event>
<event>
 5    1  0.1250806E-009  0.9118800E+02  0.7561462E-02  0.1125453E+00
         25   -1    0    0    0    0  0.00000000000E+00  0.00000000000E+00  0.99999998245E-14  0.12509000000E+03  0.12509000000E+03 0.  0.
        -13    1    3    3    0    0  0.48756873273E+02 -0.26694774822E+02  0.22968872262E+02  0.60145024326E+02  0.10566000000E+00 0. -1.
         23    2    1    0    0    0  0.17210346185E+02 -0.21579776388E+02  0.17047784351E+02  0.92647593862E+02  0.86781720036E+02 0.  0.
         13    1    3    3    0    0 -0.31546527089E+02  0.51149984348E+01 -0.59210879111E+01  0.32502569536E+02  0.10566000000E+00 0.  1.
         22    1    1    0    0    0 -0.17210346185E+02  0.21579776388E+02 -0.17047784351E+02  0.32442406138E+02  0.00000000000E+00 0. -1.
</event>
<event>
 5    1  0.1250806E-009  0.9118800E+02  0.7561462E-02  0.1125453E+00
         25   -1    0    0    0    0  0.00000000000E+00  0.00000000000E+00  0.99999998245E-14  0.12509000000E+03  0.12509000000E+03 0.  0.
        -13    1    3    3    0    0 -0.21621655178E+02 -0.33634674386E+02  0.27595739376E+02  0.48583158496E+02  0.10566000000E+00 0.  1.
         23    2    1    0    0    0  0.86295165233E+01 -0.25157349789E+02 -0.91826249205E+01  0.96953166414E+02  0.92780574871E+02 0.  0.
         13    1    3    3    0    0  0.30251171702E+02  0.84773245967E+01 -0.36778364296E+02  0.48370007918E+02  0.10566000000E+00 0. -1.
         22    1    1    0    0    0 -0.86295165233E+01  0.25157349789E+02  0.91826249205E+01  0.28136833586E+02  0.00000000000E+00 0. -1.
</event>
<event>
 5    1  0.1250806E-009  0.9118800E+02  0.7561462E-02  0.1125453E+00
         25   -1    0    0    0    0  0.00000000000E+00  0.00000000000E+00  0.99999998245E-14  0.12509000000E+03  0.12509000000E+03 0.  0.
        -13    1    3    3    0    0  0.33412506980E+02 -0.17179965656E+02 -0.16560132397E+02  0.41058446045E+02  0.10566000000E+00 0.  1.
         23    2    1    0    0    0  0.32475301207E+02  0.23305190068E+02  0.77830499702E+00  0.85110219720E+02  0.75135655115E+02 0.  0.
         13    1    3    3    0    0 -0.93720577279E+00  0.40485155723E+02  0.17338437394E+02  0.44051773675E+02  0.10566000000E+00 0. -1.
         22    1    1    0    0    0 -0.32475301207E+02 -0.23305190068E+02 -0.77830499702E+00  0.39979780280E+02  0.00000000000E+00 0. -1.
</event>
<event>
 5    1  0.1250806E-009  0.9118800E+02  0.7561462E-02  0.1125453E+00
         25   -1    0    0    0    0  0.00000000000E+00  0.00000000000E+00  0.99999998245E-14  0.12509000000E+03  0.12509000000E+03 0.  0.
        -13    1    3    3    0    0 -0.30586171795E+02 -0.19929046681E+02 -0.97553450492E+01  0.37787017979E+02  0.10566000000E+00 0.  1.
         23    2    1    0    0    0  0.13440762519E+02 -0.72359025641E+01  0.25342753820E+02  0.95505078939E+02  0.90807227404E+02 0.  0.
         13    1    3    3    0    0  0.44026934314E+02  0.12693144117E+02  0.35098098870E+02  0.57718060960E+02  0.10566000000E+00 0. -1.
         22    1    1    0    0    0 -0.13440762519E+02  0.72359025641E+01 -0.25342753820E+02  0.29584921061E+02  0.00000000000E+00 0. -1.
</event>
<event>
 5    1  0.1250806E-009  0.9118800E+02  0.7561462E-02  0.1125453E+00
         25   -1    0    0    0    0  0.00000000000E+00  0.00000000000E+00  0.99999998245E-14  0.12509000000E+03  0.12509000000E+03 0.  0.
        -13    1    3    3    0    0 -0.29345295758E+02 -0.31483719248E+02  0.44365856333E+00  0.43041595669E+02  0.10566000000E+00 0. -1.
         23    2    1    0    0    0 -0.13376658606E+02  0.19210215271E+02  0.13896330445E+02  0.97867300537E+02  0.94004963424E+02 0.  0.
         13    1    3    3    0    0  0.15968637152E+02  0.50693934519E+02  0.13452671881E+02  0.54825704868E+02  0.10566000000E+00 0.  1.
         22    1    1    0    0    0  0.13376658606E+02 -0.19210215271E+02 -0.13896330445E+02  0.27222699463E+02  0.00000000000E+00 0. -1.
</event>
<event>
 5    1  0.1250806E-009  0.9118800E+02  0.7561462E-02  0.1125453E+00
         25   -1    0    0    0    0  0.00000000000E+00  0.00000000000E+00  0.99999998245E-14  0.12509000000E+03  0.12509000000E+03 0.  0.
        -13    1    3    3    0    0  0.53301174401E+02 -0.18118369137E+02  0.21200752987E+01  0.56336456900E+02  0.10566000000E+00 0.  1.
         23    2    1    0    0    0  0.13929629146E+02 -0.24783999919E+02 -0.25743555792E+01  0.96543397281E+02  0.92226455162E+02 0.  0.
         13    1    3    3    0    0 -0.39371545255E+02 -0.66656307826E+01 -0.46944308778E+01  0.40206940381E+02  0.10566000000E+00 0. -1.
         22    1    1    0    0    0 -0.13929629146E+02  0.24783999919E+02  0.25743555792E+01  0.28546602719E+02  0.00000000000E+00 0.  1.
</event>
<event>
 5    1  0.1250806E-009  0.9118800E+02  0.7561462E-02  0.1125453E+00
         25   -1    0    0    0    0  0.00000000000E+00  0.00000000000E+00  0.99999998245E-14  0.12509000000E+03  0.12509000000E+03 0.  0.
        -13    1    3    3    0    0 -0.10037495866E+02  0.11296499150E+02 -0.46100220473E+02  0.48513953745E+02  0.10566000000E+00 0.  1.
         23    2    1    0    0    0  0.93136559686E+01  0.21043228840E+02  0.27114539096E+01  0.10191860277E+03  0.99249624381E+02 0.  0.
         13    1    3    3    0    0  0.19351151834E+02  0.97467296897E+01  0.48811674382E+02  0.53404649020E+02  0.10566000000E+00 0. -1.
         22    1    1    0    0    0 -0.93136559686E+01 -0.21043228840E+02 -0.27114539096E+01  0.23171397235E+02  0.00000000000E+00 0. -1.
</event>
<event>
 5    1  0.1250806E-009  0.9118800E+02  0.7561462E-02  0.1125453E+00
         25   -1    0    0    0    0  0.00000000000E+00  0.00000000000E+00  0.99999998245E-14  0.12509000000E+03  0.12509000000E+03 0.  0.
        -13    1    3    3    0    0  0.27101245974E+02  0.24382827139E+02 -0.13495638400E+02  0.38873425531E+02  0.10566000000E+00 0. -1.
         23    2    1    0    0    0 -0.23814693926E+02  0.14827109386E+01 -0.18459180971E+02  0.94922477055E+02  0.90001095602E+02 0.  0.
         13    1    3    3    0    0 -0.50915939900E+02 -0.22900116201E+02 -0.49635425714E+01  0.56049051524E+02  0.10566000000E+00 0.  1.
         22    1    1    0    0    0  0.23814693926E+02 -0.14827109386E+01  0.18459180971E+02  0.30167522945E+02  0.00000000000E+00 0.  1.
</event>
<event>
 5    1  0.1250806E-009  0.9118800E+02  0.7561462E-02  0.1125453E+00
         25   -1    0    0    0    0  0.00000000000E+00  0.00000000000E+00  0.99999998245E-14  0.12509000000E+03  0.12509000000E+03 0.  0.
        -13    1    3    3    0    0 -0.91277542736E+01 -0.41767248742E+02  0.94039975907E-01  0.42753233481E+02  0.10566000000E+00 0.  1.
         23    2    1    0    0    0 -0.21418159732E+02  0.55046120822E+01  0.19785443122E+02  0.95416744701E+02  0.90685462392E+02 0.  0.
         13    1    3    3    0    0 -0.12290405459E+02  0.47271860824E+02  0.19691403146E+02  0.52663511220E+02  0.10566000000E+00 0. -1.
         22    1    1    0    0    0  0.21418159732E+02 -0.55046120822E+01 -0.19785443122E+02  0.29673255299E+02  0.00000000000E+00 0. -1.
</event>
<event>
 5    1  0.1250806E-009  0.9118800E+02  0.7561462E-02  0.1125453E+00
         25   -1    0    0    0    0  0.00000000000E+00  0.00000000000E+00  0.99999998245E-14  0.12509000000E+03  0.12509000000E+03 0.  0.
        -13    1    3    3    0    0 -0.17439939301E+02  0.85460019540E+01 -0.26648232984E+02  0.32974613226E+02  0.10566000000E+00 0.  1.
         23    2    1    0    0    0  0.18673659403E+02 -0.12952438256E+02  0.19321180733E+02  0.95260832442E+02  0.90470144028E+02 0.  0.
         13    1    3    3    0    0  0.36113598704E+02 -0.21498440210E+02  0.45969413716E+02  0.62286219216E+02  0.10566000000E+00 0. -1.
         22    1    1    0    0    0 -0.18673659403E+02  0.12952438256E+02 -0.19321180733E+02  0.29829167558E+02  0.00000000000E+00 0. -1.
</event>
<event>
 5    1  0.1250806E-009  0.9118800E+02  0.7561462E-02  0.1125453E+00
         25   -1    0    0    0    0  0.00000000000E+00  0.00000000000E+00  0.99999998245E-14  0.12509000000E+03  0.12509000000E+03 0.  0.
        -13    1    3    3    0    0 -0.39253281472E+02  0.64525162203E+01 -0.43346695147E+02  0.58833682666E+02  0.10566000000E+00 0. -1.
         23    2    1    0    0    0 -0.58702139549E+01  0.10602949816E+02 -0.25365225025E+02  0.96978141342E+02  0.92814240830E+02 0.  0.
         13    1    3    3    0    0  0.33383067517E+02  0.41504335956E+01  0.17981470122E+02  0.38144458676E+02  0.10566000000E+00 0.  1.
         22    1    1    0    0    0  0.58702139549E+01 -0.10602949816E+02  0.25365225025E+02  0.28111858658E+02  0.00000000000E+00 0. -1.
</event>
<event>
 5    1  0.1250806E-009  0.9118800E+02  0.7561462E-02  0.1125453E+00
         25   -1    0    0    0    0  0.00000000000E+00  0.00000000000E+00  0.99999998245E-14  0.12509000000E+03  0.12509000000E+03 0.  0.
        -13    1    3    3    0    0 -0.77600974148E+01 -0.25619489646E+02 -0.26574744778E+02  0.37720095250E+02  0.10566000000E+00 0.  1.
         23    2    1    0    0    0  0.18362665126E+02  0.22115452711E+02 -0.74909689973E+01  0.95384860113E+02  0.90641470659E+02 0.  0.
         13    1    3    3    0    0  0.26122762541E+02  0.47734942357E+02  0.19083775781E+02  0.57664764863E+02  0.10566000000E+00 0. -1.
         22    1    1    0    0    0 -0.18362665126E+02 -0.22115452711E+02  0.74909689973E+01  0.29705139887E+02  0.00000000000E+00 0. -1.
</event>
<event>
 5    1  0.1250806E-009  0.9118800E+02  0.7561462E-02  0.1125453E+00
         25   -1    0    0    0    0  0.00000000000E+00  0.00000000000E+00  0.99999998245E-14  0.12509000000E+03  0.12509000000E+03 0.  0.
        -13    1    3    3    0    0  0.35377457861E+02  0.28936042619E+02 -0.89185369294E+01  0.46566195380E+02  0.10566000000E+00 0.  1.
         23    2    1    0    0    0 -0.77437851679E-01  0.34197344997E+00 -0.28816453693E+02  0.96271413187E+02  0.91856812763E+02 0.  0.
         13    1    3    3    0    0 -0.35454895713E+02 -0.28594069169E+02 -0.19897916764E+02  0.49705217807E+02  0.10566000000E+00 0. -1.
         22    1    1    0    0    0  0.77437851679E-01 -0.34197344997E+00  0.28816453693E+02  0.28818586813E+02  0.00000000000E+00 0. -1.
</event>
<event>
 5    1  0.1250806E-009  0.9118800E+02  0.7561462E-02  0.1125453E+00
         25   -1    0    0    0    0  0.00000000000E+00  0.00000000000E+00  0.99999998245E-14  0.12509000000E+03  0.12509000000E+03 0.  0.
        -13    1    3    3    0    0 -0.28934066182E+02 -0.32672957037E+02 -0.19062679865E+02  0.47624565458E+02  0.10566000000E+00 0. -1.
         23    2    1    0    0    0 -0.26259909952E+02  0.12942432919E+02 -0.95270061667E+01  0.94302773963E+02  0.89135626380E+02 0.  0.
         13    1    3    3    0    0  0.26741562293E+01  0.45615389956E+02  0.95356736983E+01  0.46678208505E+02  0.10566000000E+00 0.  1.
         22    1    1    0    0    0  0.26259909952E+02 -0.12942432919E+02  0.95270061667E+01  0.30787226037E+02  0.00000000000E+00 0.  1.
</event>
<event>
 5    1  0.1250806E-009  0.9118800E+02  0.7561462E-02  0.1125453E+00
         25   -1    0    0    0    0  0.00000000000E+00  0.00000000000E+00  0.99999998245E-14  0.12509000000E+03  0.12509000000E+03 0.  0.
        -13    1    3    3    0    0 -0.21400421116E+01 -0.40407254756E+02  0.38681247136E+02  0.55978353506E+02  0.10566000000E+00 0. -1.
         23    2    1    0    0    0  0.86119837430E+01 -0.47094043619E+01  0.28966910819E+02  0.94505254197E+02  0.89419328979E+02 0.  0.
         13    1    3    3    0    0  0.10752025855E+02  0.35697850395E+02 -0.97143363172E+01  0.38526900691E+02  0.10566000000E+00 0.  1.
         22    1    1    0    0    0 -0.86119837430E+01  0.47094043619E+01 -0.28966910819E+02  0.30584745803E+02  0.00000000000E+00 0. -1.
</event>
<event>
 5    1  0.1250806E-009  0.9118800E+02  0.7561462E-02  0.1125453E+00
         25   -1    0    0    0    0  0.00000000000E+00  0.00000000000E+00  0.99999998245E-14  0.12509000000E+03  0.12509000000E+03 0.  0.
        -13    1    3    3    0    0 -0.20537916031E+01 -0.89605638076E+01 -0.35874376580E+02  0.37033657971E+02  0.10566000000E+00 0.  1.
         23    2    1    0    0    0  0.23181528076E+02  0.14375548311E+02  0.11436786446E+02  0.95512310479E+02  0.90817188547E+02 0.  0.
         13    1    3    3    0    0  0.25235319679E+02  0.23336112119E+02  0.47311163026E+02  0.58478652507E+02  0.10566000000E+00 0. -1.
         22    1    1    0    0    0 -0.23181528076E+02 -0.14375548311E+02 -0.11436786446E+02  0.29577689521E+02  0.00000000000E+00 0.  1.
</event>
<event>
 5    1  0.1250806E-009  0.9118800E+02  0.7561462E-02  0.1125453E+00
         25   -1    0    0    0    0  0.00000000000E+00  0.00000000000E+00  0.99999998245E-14  0.12509000000E+03  0.12509000000E+03 0.  0.
        -13    1    3    3    0    0  0.15521745780E+02  0.56196639341E+02 -0.20578052810E+02  0.61826000087E+02  0.10566000000E+00 0.  1.
         23    2    1    0    0    0  0.13887763941E+02  0.25213303166E+02 -0.92686353695E+01  0.94849493301E+02  0.89899600299E+02 0.  0.
         13    1    3    3    0    0 -0.16339818385E+01 -0.30983336175E+02  0.11309417440E+02  0.33023493214E+02  0.10566000000E+00 0. -1.
         22    1    1    0    0    0 -0.13887763941E+02 -0.25213303166E+02  0.92686353695E+01  0.30240506699E+02  0.00000000000E+00 0.  1.
</event>
<event>
 5    1  0.1250806E-009  0.9118800E+02  0.7561462E-02  0.1125453E+00
         25   -1    0    0    0    0  0.00000000000E+00  0.00000000000E+00  0.99999998245E-14  0.12509000000E+03  0.12509000000E+03 0.  0.
        -13    1    3    3    0    0 -0.98367392709E+01 -0.47829499978E+02  0.25040968213E+02  0.54876987533E+02  0.10566000000E+00 0.  1.
         23    2    1    0    0    0  0.16783102451E+02 -0.24681130676E+02  0.73021058513E+01  0.94362951831E+02  0.89220038047E+02 0.  0.
         13    1    3    3    0    0  0.26619841722E+02  0.23148369302E+02 -0.17738862362E+02  0.39485964298E+02  0.10566000000E+00 0. -1.
         22    1    1    0    0    0 -0.16783102451E+02  0.24681130676E+02 -0.73021058513E+01  0.30727048169E+02  0.00000000000E+00 0.  1.
</event>
<event>
 5    1  0.1250806E-009  0.9118800E+02  0.7561462E-02  0.1125453E+00
         25   -1    0    0    0    0  0.00000000000E+00  0.00000000000E+00  0.99999998245E-14  0.12509000000E+03  0.12509000000E+03 0.  0.
        -13    1    3    3    0    0  0.31977905019E+02 -0.13478444183E+02  0.49488626867E+02  0.60443281018E+02  0.10566000000E+00 0. -1.
         23    2    1    0    0    0  0.47779931669E+01 -0.49223877315E+01  0.28306305754E+02  0.95964305757E+02  0.91437639484E+02 0.  0.
         13    1    3    3    0    0 -0.27199911852E+02  0.85560564514E+01 -0.21182321113E+02  0.35521024739E+02  0.10566000000E+00 0.  1.
         22    1    1    0    0    0 -0.47779931669E+01  0.49223877315E+01 -0.28306305754E+02  0.29125694243E+02  0.00000000000E+00 0. -1.
</event>
<event>
 5    1  0.1250806E-009  0.9118800E+02  0.7561462E-02  0.1125453E+00
         25   -1    0    0    0    0  0.00000000000E+00  0.00000000000E+00  0.99999998245E-14  0.12509000000E+03  0.12509000000E+03 0.  0.
        -13    1    3    3    0    0 -0.43022710008E+02 -0.15444325847E+02 -0.13923371490E+02  0.47784434861E+02  0.10566000000E+00 0. -1.
         23    2    1    0    0    0  0.48864760584E+00 -0.15811628220E+02 -0.27498577444E+02  0.93365906240E+02  0.87811014817E+02 0.  0.
         13    1    3    3    0    0  0.43511357614E+02 -0.36730237305E+00 -0.13575205954E+02  0.45581471380E+02  0.10566000000E+00 0.  1.
         22    1    1    0    0    0 -0.48864760584E+00  0.15811628220E+02  0.27498577444E+02  0.31724093760E+02  0.00000000000E+00 0.  1.
</event>
<event>
 5    1  0.1250806E-009  0.9118800E+02  0.7561462E-02  0.1125453E+00
         25   -1    0    0    0    0  0.00000000000E+00  0.00000000000E+00  0.99999998245E-14  0.12509000000E+03  0.12509000000E+03 0.  0.
        -13    1    3    3    0    0  0.22016664329E+02  0.44303972182E+01 -0.27172258809E+02  0.35252017539E+02  0.10566000000E+00 0. -1.
         23    2    1    0    0    0 -0.22753821192E+02 -0.21384599075E+02  0.47143597389E+00  0.93860851623E+02  0.88513274480E+02 0.  0.
         13    1    3    3    0    0 -0.44770485521E+02 -0.25814996294E+02  0.27643694783E+02  0.58608834085E+02  0.10566000000E+00 0.  1.
         22    1    1    0    0    0  0.22753821192E+02  0.21384599075E+02 -0.47143597389E+00  0.31229148377E+02  0.00000000000E+00 0.  1.
</event>
<event>
 5    1  0.1250806E-009  0.9118800E+02  0.7561462E-02  0.1125453E+00
         25   -1    0    0    0    0  0.00000000000E+00  0.00000000000E+00  0.99999998245E-14  0.12509000000E+03  0.12509000000E+03 0.  0.
        -13    1    3    3    0    0 -0.36933515229E+02  0.99368166440E+01  0.17995091424E+02  0.42268893427E+02  0.10566000000E+00 0.  1.
         23    2    1    0    0    0 -0.38841731322E+01 -0.21230628637E+02 -0.15336325270E+02  0.98613042735E+02  0.94992120365E+02 0.  0.
         13    1    3    3    0    0  0.33049342097E+02 -0.31167445281E+02 -0.33331416694E+02  0.56344149308E+02  0.10566000000E+00 0. -1.
         22    1    1    0    0    0  0.38841731322E+01  0.21230628637E+02  0.15336325270E+02  0.26476957265E+02  0.00000000000E+00 0. -1.
</event>
<event>
 5    1  0.1250806E-009  0.9118800E+02  0.7561462E-02  0.1125453E+00
         25   -1    0    0    0    0  0.00000000000E+00  0.00000000000E+00  0.99999998245E-14  0.12509000000E+03  0.12509000000E+03 0.  0.
        -13    1    3    3    0    0  0.54991130870E+02  0.18321399997E+02 -0.23277669632E+02  0.62462462645E+02  0.10566000000E+00 0.  1.
         23    2    1    0    0    0  0.22470691034E+02  0.96315927298E+01 -0.87800104399E+01  0.99113315889E+02  0.95648634434E+02 0.  0.
         13    1    3    3    0    0 -0.32520439835E+02 -0.86898072676E+01  0.14497659192E+02  0.36650853244E+02  0.10566000000E+00 0. -1.
         22    1    1    0    0    0 -0.22470691034E+02 -0.96315927298E+01  0.87800104399E+01  0.25976684111E+02  0.00000000000E+00 0.  1.
</event>
<event>
 5    1  0.1250806E-009  0.9118800E+02  0.7561462E-02  0.1125453E+00
         25   -1    0    0    0    0  0.00000000000E+00  0.00000000000E+00  0.99999998245E-14  0.12509000000E+03  0.12509000000E+03 0.  0.
        -13    1    3    3    0    0  0.76241627995E+01  0.38903982990E+02  0.30921322184E+02  0.50277102945E+02  0.10566000000E+00 0.  1.
         23    2    1    0    0    0 -0.13952505354E+02  0.33133280711E+01  0.29921458015E+02  0.91909520825E+02  0.85711235085E+02 0.  0.
         13    1    3    3    0    0 -0.21576668153E+02 -0.35590654918E+02 -0.99986416925E+00  0.41632417880E+02  0.10566000000E+00 0. -1.
         22    1    1    0    0    0  0.13952505354E+02 -0.33133280711E+01 -0.29921458015E+02  0.33180479175E+02  0.00000000000E+00 0.  1.
</event>
<event>
 5    1  0.1250806E-009  0.9118800E+02  0.7561462E-02  0.1125453E+00
         25   -1    0    0    0    0  0.00000000000E+00  0.00000000000E+00  0.99999998245E-14  0.12509000000E+03  0.12509000000E+03 0.  0.
        -13    1    3    3    0    0  0.20229668012E+01  0.47313371541E+02 -0.39709448454E+02  0.61802095286E+02  0.10566000000E+00 0.  1.
         23    2    1    0    0    0  0.29918280758E+01  0.20069638277E+02 -0.25366424968E+02  0.92606205094E+02  0.86722040396E+02 0.  0.
         13    1    3    3    0    0  0.96886127456E+00 -0.27243733263E+02  0.14343023486E+02  0.30804109808E+02  0.10566000000E+00 0. -1.
         22    1    1    0    0    0 -0.29918280758E+01 -0.20069638277E+02  0.25366424968E+02  0.32483794906E+02  0.00000000000E+00 0.  1.
</event>
<event>
 5    1  0.1250806E-009  0.9118800E+02  0.7561462E-02  0.1125453E+00
         25   -1    0    0    0    0  0.00000000000E+00  0.00000000000E+00  0.99999998245E-14  0.12509000000E+03  0.12509000000E+03 0.  0.
        -13    1    3    3    0    0  0.32901928577E+02 -0.70585628885E+01 -0.26305643064E+02  0.42712506777E+02  0.10566000000E+00 0. -1.
         23    2    1    0    0    0 -0.15540638807E+02 -0.22357285268E+02 -0.10367614490E+02  0.95955019490E+02  0.91424934652E+02 0.  0.
         13    1    3    3    0    0 -0.48442567384E+02 -0.15298722379E+02  0.15938028574E+02  0.53242512713E+02  0.10566000000E+00 0.  1.
         22    1    1    0    0    0  0.15540638807E+02  0.22357285268E+02  0.10367614490E+02  0.29134980510E+02  0.00000000000E+00 0. -1.
</event>
<event>
 5    1  0.1250806E-009  0.9118800E+02  0.7561462E-02  0.1125453E+00
         25   -1    0    0    0    0  0.00000000000E+00  0.00000000000E+00  0.99999998245E-14  0.12509000000E+03  0.12509000000E+03 0.  0.
        -13    1    3    3    0    0 -0.28829285108E+02  0.10988023382E+02 -0.14448293756E+02  0.34068001030E+02  0.10566000000E+00 0. -1.
         23    2    1    0    0    0  0.19921762397E+02 -0.13409308550E+02  0.15733614236E+02  0.96380545291E+02  0.92005308112E+02 0.  0.
         13    1    3    3    0    0  0.48751047505E+02 -0.24397331932E+02  0.30181907992E+02  0.62312544261E+02  0.10566000000E+00 0.  1.
         22    1    1    0    0    0 -0.19921762397E+02  0.13409308550E+02 -0.15733614236E+02  0.28709454709E+02  0.00000000000E+00 0.  1.
</event>
<event>
 5    1  0.1250806E-009  0.9118800E+02  0.7561462E-02  0.1125453E+00
         25   -1    0    0    0    0  0.00000000000E+00  0.00000000000E+00  0.99999998245E-14  0.12509000000E+03  0.12509000000E+03 0.  0.
        -13    1    3    3    0    0 -0.30049607211E+02  0.14267197903E+02  0.18189171335E+02  0.37912912674E+02  0.10566000000E+00 0.  1.
         23    2    1    0    0    0  0.46814424143E+00 -0.11838191349E+02 -0.25327253844E+02  0.97128746081E+02  0.93016996267E+02 0.  0.
         13    1    3    3    0    0  0.30517751453E+02 -0.26105389252E+02 -0.43516425178E+02  0.59215833407E+02  0.10566000000E+00 0. -1.
         22    1    1    0    0    0 -0.46814424143E+00  0.11838191349E+02  0.25327253844E+02  0.27961253919E+02  0.00000000000E+00 0. -1.
</event>
<event>
 5    1  0.1250806E-009  0.9118800E+02  0.7561462E-02  0.1125453E+00
         25   -1    0    0    0    0  0.00000000000E+00  0.00000000000E+00  0.99999998245E-14  0.12509000000E+03  0.12509000000E+03 0.  0.
        -13    1    3    3    0    0 -0.57902690110E+01 -0.39197693274E+01  0.35072333755E+02  0.35762711948E+02  0.10566000000E+00 0. -1.
         23    2    1    0    0    0  0.23635362333E+02  0.31371635634E+01 -0.16874166169E+02  0.95880247661E+02  0.91322572564E+02 0.  0.
         13    1    3    3    0    0  0.29425631344E+02  0.70569328907E+01 -0.51946499924E+02  0.60117535713E+02  0.10566000000E+00 0.  1.
         22    1    1    0    0    0 -0.23635362333E+02 -0.31371635634E+01  0.16874166169E+02  0.29209752339E+02  0.00000000000E+00 0.  1.
</event>
<event>
 5    1  0.1250806E-009  0.9118800E+02  0.7561462E-02  0.1125453E+00
         25   -1    0    0    0    0  0.00000000000E+00  0.00000000000E+00  0.99999998245E-14  0.12509000000E+03  0.12509000000E+03 0.  0.
        -13    1    3    3    0    0 -0.28648053245E+02 -0.29687491404E+02 -0.95791935488E+01  0.42353632827E+02  0.10566000000E+00 0.  1.
         23    2    1    0    0    0 -0.67664677810E+01 -0.58686946759E+01  0.30180899274E+02  0.93608047322E+02  0.88155278793E+02 0.  0.
         13    1    3    3    0    0  0.21881585464E+02  0.23818796728E+02  0.39760092822E+02  0.51254414495E+02  0.10566000000E+00 0. -1.
         22    1    1    0    0    0  0.67664677810E+01  0.58686946759E+01 -0.30180899274E+02  0.31481952678E+02  0.00000000000E+00 0. -1.
</event>
<event>
 5    1  0.1250806E-009  0.9118800E+02  0.7561462E-02  0.1125453E+00
         25   -1    0    0    0    0  0.00000000000E+00  0.00000000000E+00  0.99999998245E-14  0.12509000000E+03  0.12509000000E+03 0.  0.
        -13    1    3    3    0    0  0.16281007882E+02  0.18426224495E+02 -0.32376080105E+02  0.40654872940E+02  0.10566000000E+00 0. -1.
         23    2    1    0    0    0 -0.28565095103E+02 -0.20076743516E+01 -0.10261803409E+02  0.94671255389E+02  0.89651249702E+02 0.  0.
         13    1    3    3    0    0 -0.44846102985E+02 -0.20433898846E+02  0.22114276696E+02  0.54016382448E+02  0.10566000000E+00 0.  1.
         22    1    1    0    0    0  0.28565095103E+02  0.20076743516E+01  0.10261803409E+02  0.30418744611E+02  0.00000000000E+00 0.  1.
</event>
<event>
 5    1  0.1250806E-009  0.9118800E+02  0.7561462E-02  0.1125453E+00
         25   -1    0    0    0    0  0.00000000000E+00  0.00000000000E+00  0.99999998245E-14  0.12509000000E+03  0.12509000000E+03 0.  0.
        -13    1    3    3    0    0 -0.27112035840E+02  0.22458607133E+02  0.36485067118E+01  0.35394551657E+02  0.10566000000E+00 0.  1.
         23    2    1    0    0    0  0.74184652322E+01 -0.26515199916E+02  0.10315622337E+02  0.95687593344E+02  0.91058300021E+02 0.  0.
         13    1    3    3    0    0  0.34530501072E+02 -0.48973807048E+02  0.66671156257E+01  0.60293041687E+02  0.10566000000E+00 0. -1.
         22    1    1    0    0    0 -0.74184652322E+01  0.26515199916E+02 -0.10315622337E+02  0.29402406656E+02  0.00000000000E+00 0. -1.
</event>
<event>
 5    1  0.1250806E-009  0.9118800E+02  0.7561462E-02  0.1125453E+00
         25   -1    0    0    0    0  0.00000000000E+00  0.00000000000E+00  0.99999998245E-14  0.12509000000E+03  0.12509000000E+03 0.  0.
        -13    1    3    3    0    0 -0.34140987558E+02  0.35498755560E+02 -0.24019414403E+02  0.54797008222E+02  0.10566000000E+00 0. -1.
         23    2    1    0    0    0 -0.82577654113E+01  0.27014058709E+02  0.69083574725E+01  0.96009500340E+02  0.91499446419E+02 0.  0.
         13    1    3    3    0    0  0.25883222146E+02 -0.84846968507E+01  0.30927771876E+02  0.41212492118E+02  0.10566000000E+00 0.  1.
         22    1    1    0    0    0  0.82577654113E+01 -0.27014058709E+02 -0.69083574725E+01  0.29080499660E+02  0.00000000000E+00 0.  1.
</event>
<event>
 5    1  0.1250806E-009  0.9118800E+02  0.7561462E-02  0.1125453E+00
         25   -1    0    0    0    0  0.00000000000E+00  0.00000000000E+00  0.99999998245E-14  0.12509000000E+03  0.12509000000E+03 0.  0.
        -13    1    3    3    0    0 -0.14828069468E+02 -0.23295345050E+02  0.22521658629E+02  0.35633986819E+02  0.10566000000E+00 0. -1.
         23    2    1    0    0    0 -0.13549283706E+01  0.30789474837E+02  0.71600386355E+01  0.93449934499E+02  0.87930634667E+02 0.  0.
         13    1    3    3    0    0  0.13473141097E+02  0.54084819887E+02 -0.15361619994E+02  0.57815947680E+02  0.10566000000E+00 0.  1.
         22    1    1    0    0    0  0.13549283706E+01 -0.30789474837E+02 -0.71600386355E+01  0.31640065501E+02  0.00000000000E+00 0.  1.
</event>
<event>
 5    1  0.1250806E-009  0.9118800E+02  0.7561462E-02  0.1125453E+00
         25   -1    0    0    0    0  0.00000000000E+00  0.00000000000E+00  0.99999998245E-14  0.12509000000E+03  0.12509000000E+03 0.  0.
        -13    1    3    3    0    0  0.31349910162E+02 -0.46735591712E+02 -0.23410527970E+02  0.60951590494E+02  0.10566000000E+00 0. -1.
         23    2    1    0    0    0  0.21150477072E+02 -0.19159053925E+02 -0.37850601886E+01  0.96302177778E+02  0.91898698231E+02 0.  0.
         13    1    3    3    0    0 -0.10199433091E+02  0.27576537787E+02  0.19625467781E+02  0.35350587284E+02  0.10566000000E+00 0.  1.
         22    1    1    0    0    0 -0.21150477072E+02  0.19159053925E+02  0.37850601886E+01  0.28787822222E+02  0.00000000000E+00 0. -1.
</event>
<event>
 5    1  0.1250806E-009  0.9118800E+02  0.7561462E-02  0.1125453E+00
         25   -1    0    0    0    0  0.00000000000E+00  0.00000000000E+00  0.99999998245E-14  0.12509000000E+03  0.12509000000E+03 0.  0.
        -13    1    3    3    0    0 -0.23744568997E+02  0.48233205796E+02 -0.40364200820E+01  0.53912434088E+02  0.10566000000E+00 0. -1.
         23    2    1    0    0    0  0.81479770422E+01  0.34247676677E+02  0.40229714281E+01  0.89657286489E+02  0.82358677951E+02 0.  0.
         13    1    3    3    0    0  0.31892546039E+02 -0.13985529120E+02  0.80593915100E+01  0.35744852401E+02  0.10566000000E+00 0.  1.
         22    1    1    0    0    0 -0.81479770422E+01 -0.34247676677E+02 -0.40229714281E+01  0.35432713511E+02  0.00000000000E+00 0. -1.
</event>
<event>
 5    1  0.1250806E-009  0.9118800E+02  0.7561462E-02  0.1125453E+00
         25   -1    0    0    0    0  0.00000000000E+00  0.00000000000E+00  0.99999998245E-14  0.12509000000E+03  0.12509000000E+03 0.  0.
        -13    1    3    3    0    0  0.17279038376E+02  0.50033832882E+02 -0.10113802548E+02  0.53891091714E+02  0.10566000000E+00 0. -1.
         23    2    1    0    0    0 -0.15377000440E+02  0.24739920337E+02 -0.53842755534E+01  0.95467268457E+02  0.90755127253E+02 0.  0.
         13    1    3    3    0    0 -0.32656038816E+02 -0.25293912545E+02  0.47295269946E+01  0.41576176744E+02  0.10566000000E+00 0.  1.
         22    1    1    0    0    0  0.15377000440E+02 -0.24739920337E+02  0.53842755534E+01  0.29622731543E+02  0.00000000000E+00 0. -1.
</event>
<event>
 5    1  0.1250806E-009  0.9118800E+02  0.7561462E-02  0.1125453E+00
         25   -1    0    0    0    0  0.00000000000E+00  0.00000000000E+00  0.99999998245E-14  0.12509000000E+03  0.12509000000E+03 0.  0.
        -13    1    3    3    0    0  0.15468847725E+01 -0.46062013501E+02  0.27250740971E+02  0.53541721935E+02  0.10566000000E+00 0.  1.
         23    2    1    0    0    0 -0.22431491563E+02 -0.19914817231E+02  0.74026164537E+01  0.94193875819E+02  0.88982671079E+02 0.  0.
         13    1    3    3    0    0 -0.23978376335E+02  0.26147196270E+02 -0.19848124517E+02  0.40652153883E+02  0.10566000000E+00 0. -1.
         22    1    1    0    0    0  0.22431491563E+02  0.19914817231E+02 -0.74026164537E+01  0.30896124181E+02  0.00000000000E+00 0.  1.
</event>
<event>
 5    1  0.1250806E-009  0.9118800E+02  0.7561462E-02  0.1125453E+00
         25   -1    0    0    0    0  0.00000000000E+00  0.00000000000E+00  0.99999998245E-14  0.12509000000E+03  0.12509000000E+03 0.  0.
        -13    1    3    3    0    0 -0.52697193390E+02 -0.53970849055E+01  0.62703365563E+01  0.53342768969E+02  0.10566000000E+00 0. -1.
         23    2    1    0    0    0 -0.19955312960E+02  0.12552519702E+02 -0.15793432868E+02  0.96713728434E+02  0.92457192688E+02 0.  0.
         13    1    3    3    0    0  0.32741880430E+02  0.17949604608E+02 -0.22063769424E+02  0.43370959465E+02  0.10566000000E+00 0.  1.
         22    1    1    0    0    0  0.19955312960E+02 -0.12552519702E+02  0.15793432868E+02  0.28376271566E+02  0.00000000000E+00 0.  1.
</event>
<event>
 5    1  0.1250806E-009  0.9118800E+02  0.7561462E-02  0.1125453E+00
         25   -1    0    0    0    0  0.00000000000E+00  0.00000000000E+00  0.99999998245E-14  0.12509000000E+03  0.12509000000E+03 0.  0.
        -13    1    3    3    0    0 -0.23041926276E+02  0.34125491797E+02 -0.13443572516E+02  0.43315359434E+02  0.10566000000E+00 0.  1.
         23    2    1    0    0    0 -0.19802352980E+02 -0.18816988655E+02 -0.79448280808E+01  0.96641229573E+02  0.92359053235E+02 0.  0.
         13    1    3    3    0    0  0.32395732968E+01 -0.52942480453E+02  0.54987444348E+01  0.53325870138E+02  0.10566000000E+00 0. -1.
         22    1    1    0    0    0  0.19802352980E+02  0.18816988655E+02  0.79448280808E+01  0.28448770427E+02  0.00000000000E+00 0.  1.
</event>
<event>
 5    1  0.1250806E-009  0.9118800E+02  0.7561462E-02  0.1125453E+00
         25   -1    0    0    0    0  0.00000000000E+00  0.00000000000E+00  0.99999998245E-14  0.12509000000E+03  0.12509000000E+03 0.  0.
        -13    1    3    3    0    0  0.86132469981E+00  0.33495285814E+02 -0.52239972087E+02  0.62062081013E+02  0.10566000000E+00 0.  1.
         23    2    1    0    0    0  0.26281727114E+01  0.12454092854E+02 -0.28754823835E+02  0.93643988895E+02  0.88206264187E+02 0.  0.
         13    1    3    3    0    0  0.17668480116E+01 -0.21041192959E+02  0.23485148252E+02  0.31581907882E+02  0.10566000000E+00 0. -1.
         22    1    1    0    0    0 -0.26281727114E+01 -0.12454092854E+02  0.28754823835E+02  0.31446011105E+02  0.00000000000E+00 0.  1.
</event>
<event>
 5    1  0.1250806E-009  0.9118800E+02  0.7561462E-02  0.1125453E+00
         25   -1    0    0    0    0  0.00000000000E+00  0.00000000000E+00  0.99999998245E-14  0.12509000000E+03  0.12509000000E+03 0.  0.
        -13    1    3    3    0    0 -0.37738892560E+02  0.45742854124E+00  0.46157548726E+01  0.38023014210E+02  0.10566000000E+00 0. -1.
         23    2    1    0    0    0  0.14040270252E+02 -0.20271397115E+02 -0.13891153232E+02  0.96787652609E+02  0.92557154395E+02 0.  0.
         13    1    3    3    0    0  0.51779162812E+02 -0.20728825656E+02 -0.18506908105E+02  0.58764638399E+02  0.10566000000E+00 0.  1.
         22    1    1    0    0    0 -0.14040270252E+02  0.20271397115E+02  0.13891153232E+02  0.28302347391E+02  0.00000000000E+00 0.  1.
</event>
<event>
 5    1  0.1250806E-009  0.9118800E+02  0.7561462E-02  0.1125453E+00
         25   -1    0    0    0    0  0.00000000000E+00  0.00000000000E+00  0.99999998245E-14  0.12509000000E+03  0.12509000000E+03 0.  0.
        -13    1    3    3    0    0  0.31731583242E+02  0.62152571164E+01  0.22725956359E+02  0.39522184309E+02  0.10566000000E+00 0.  1.
         23    2    1    0    0    0 -0.23895056244E+02  0.56357595917E+01  0.16523688533E+02  0.95496626049E+02  0.90795582518E+02 0.  0.
         13    1    3    3    0    0 -0.55626639486E+02 -0.57949752468E+00 -0.62022678261E+01  0.55974441740E+02  0.10566000000E+00 0. -1.
         22    1    1    0    0    0  0.23895056244E+02 -0.56357595917E+01 -0.16523688533E+02  0.29593373951E+02  0.00000000000E+00 0. -1.
</event>
<event>
 5    1  0.1250806E-009  0.9118800E+02  0.7561462E-02  0.1125453E+00
         25   -1    0    0    0    0  0.00000000000E+00  0.00000000000E+00  0.99999998245E-14  0.12509000000E+03  0.12509000000E+03 0.  0.
        -13    1    3    3    0    0  0.46249731468E+02  0.19025371593E+00 -0.37563179154E+02  0.59582526378E+02  0.10566000000E+00 0. -1.
         23    2    1    0    0    0  0.34534747797E+02  0.12439835965E+02 -0.26306905003E+02  0.79929712411E+02  0.65949278624E+02 0.  0.
         13    1    3    3    0    0 -0.11714983671E+02  0.12249582249E+02  0.11256274151E+02  0.20347186034E+02  0.10566000000E+00 0.  1.
         22    1    1    0    0    0 -0.34534747797E+02 -0.12439835965E+02  0.26306905003E+02  0.45160287589E+02  0.00000000000E+00 0. -1.
</event>
<event>
 5    1  0.1250806E-009  0.9118800E+02  0.7561462E-02  0.1125453E+00
         25   -1    0    0    0    0  0.00000000000E+00  0.00000000000E+00  0.99999998245E-14  0.12509000000E+03  0.12509000000E+03 0.  0.
        -13    1    3    3    0    0  0.52573186409E+02  0.28928126127E+02 -0.24110832196E+00  0.60007047150E+02  0.10566000000E+00 0.  1.
         23    2    1    0    0    0  0.18229065460E+02  0.22804352086E+02  0.55554834840E+01  0.95371307257E+02  0.90622765073E+02 0.  0.
         13    1    3    3    0    0 -0.34344120950E+02 -0.61237740404E+01  0.57965918060E+01  0.35364260107E+02  0.10566000000E+00 0. -1.
         22    1    1    0    0    0 -0.18229065460E+02 -0.22804352086E+02 -0.55554834840E+01  0.29718692743E+02  0.00000000000E+00 0.  1.
</event>
<event>
 5    1  0.1250806E-009  0.9118800E+02  0.7561462E-02  0.1125453E+00
         25   -1    0    0    0    0  0.00000000000E+00  0.00000000000E+00  0.99999998245E-14  0.12509000000E+03  0.12509000000E+03 0.  0.
        -13    1    3    3    0    0  0.59236772494E+02  0.42139242110E+00 -0.15250601397E+02  0.61169966439E+02  0.10566000000E+00 0.  1.
         23    2    1    0    0    0  0.28839192121E+02 -0.18137209798E+01  0.18778901794E+01  0.96132875531E+02  0.91667958962E+02 0.  0.
         13    1    3    3    0    0 -0.30397580373E+02 -0.22351134009E+01  0.17128491576E+02  0.34962909092E+02  0.10566000000E+00 0. -1.
         22    1    1    0    0    0 -0.28839192121E+02  0.18137209798E+01 -0.18778901794E+01  0.28957124469E+02  0.00000000000E+00 0.  1.
</event>
<event>
 5    1  0.1250806E-009  0.9118800E+02  0.7561462E-02  0.1125453E+00
         25   -1    0    0    0    0  0.00000000000E+00  0.00000000000E+00  0.99999998245E-14  0.12509000000E+03  0.12509000000E+03 0.  0.
        -13    1    3    3    0    0 -0.67886645522E+01 -0.36076607568E+02 -0.18769927013E+01  0.36757881409E+02  0.10566000000E+00 0.  1.
         23    2    1    0    0    0  0.38812240351E+01  0.24549186991E+02 -0.88456391384E+01  0.98708722288E+02  0.95118032160E+02 0.  0.
         13    1    3    3    0    0  0.10669888587E+02  0.60625794560E+02 -0.69686464371E+01  0.61950840879E+02  0.10566000000E+00 0. -1.
         22    1    1    0    0    0 -0.38812240351E+01 -0.24549186991E+02  0.88456391384E+01  0.26381277712E+02  0.00000000000E+00 0. -1.
</event>
<event>
 5    1  0.1250806E-009  0.9118800E+02  0.7561462E-02  0.1125453E+00
         25   -1    0    0    0    0  0.00000000000E+00  0.00000000000E+00  0.99999998245E-14  0.12509000000E+03  0.12509000000E+03 0.  0.
        -13    1    3    3    0    0 -0.35343050225E+02  0.33216255874E+02 -0.33274472944E+02  0.58818811338E+02  0.10566000000E+00 0. -1.
         23    2    1    0    0    0 -0.75473892216E+01  0.26779126900E+02 -0.22468323656E+02  0.89328144770E+02  0.81857236446E+02 0.  0.
         13    1    3    3    0    0  0.27795661003E+02 -0.64371289741E+01  0.10806149288E+02  0.30509333433E+02  0.10566000000E+00 0.  1.
         22    1    1    0    0    0  0.75473892216E+01 -0.26779126900E+02  0.22468323656E+02  0.35761855230E+02  0.00000000000E+00 0. -1.
</event>
<event>
 5    1  0.1250806E-009  0.9118800E+02  0.7561462E-02  0.1125453E+00
         25   -1    0    0    0    0  0.00000000000E+00  0.00000000000E+00  0.99999998245E-14  0.12509000000E+03  0.12509000000E+03 0.  0.
        -13    1    3    3    0    0  0.42892585642E+02  0.16150475983E+02 -0.17961121270E+01  0.45867733325E+02  0.10566000000E+00 0.  1.
         23    2    1    0    0    0  0.83706852569E+01  0.20098134763E+02  0.26581631380E+02  0.90730335865E+02  0.83972658209E+02 0.  0.
         13    1    3    3    0    0 -0.34521900385E+02  0.39476587806E+01  0.28377743507E+02  0.44862602540E+02  0.10566000000E+00 0. -1.
         22    1    1    0    0    0 -0.83706852569E+01 -0.20098134763E+02 -0.26581631380E+02  0.34359664135E+02  0.00000000000E+00 0.  1.
</event>
<event>
 5    1  0.1250806E-009  0.9118800E+02  0.7561462E-02  0.1125453E+00
         25   -1    0    0    0    0  0.00000000000E+00  0.00000000000E+00  0.99999998245E-14  0.12509000000E+03  0.12509000000E+03 0.  0.
        -13    1    3    3    0    0  0.15516732916E+01  0.12664596679E+02  0.45138547876E+02  0.46907348757E+02  0.10566000000E+00 0. -1.
         23    2    1    0    0    0  0.23892868579E+02 -0.14813425500E+02  0.16182475968E+02  0.92652687034E+02  0.86789061190E+02 0.  0.
         13    1    3    3    0    0  0.22341195288E+02 -0.27478022178E+02 -0.28956071908E+02  0.45745338277E+02  0.10566000000E+00 0.  1.
         22    1    1    0    0    0 -0.23892868579E+02  0.14813425500E+02 -0.16182475968E+02  0.32437312966E+02  0.00000000000E+00 0. -1.
</event>
<event>
 5    1  0.1250806E-009  0.9118800E+02  0.7561462E-02  0.1125453E+00
         25   -1    0    0    0    0  0.00000000000E+00  0.00000000000E+00  0.99999998245E-14  0.12509000000E+03  0.12509000000E+03 0.  0.
        -13    1    3    3    0    0  0.34245111021E+02  0.39521218582E+02  0.13851749563E+02  0.54097472003E+02  0.10566000000E+00 0.  1.
         23    2    1    0    0    0  0.22067403797E+02  0.11646186380E+02 -0.14961233096E+02  0.95996315749E+02  0.91481419830E+02 0.  0.
         13    1    3    3    0    0 -0.12177707225E+02 -0.27875032202E+02 -0.28812982659E+02  0.41898843746E+02  0.10566000000E+00 0. -1.
         22    1    1    0    0    0 -0.22067403797E+02 -0.11646186380E+02  0.14961233096E+02  0.29093684251E+02  0.00000000000E+00 0.  1.
</event>
<event>
 5    1  0.1250806E-009  0.9118800E+02  0.7561462E-02  0.1125453E+00
         25   -1    0    0    0    0  0.00000000000E+00  0.00000000000E+00  0.99999998245E-14  0.12509000000E+03  0.12509000000E+03 0.  0.
        -13    1    3    3    0    0 -0.13839242038E+02  0.24246940762E+02  0.23074845475E+02  0.36220138242E+02  0.10566000000E+00 0. -1.
         23    2    1    0    0    0 -0.14489258760E+02 -0.16649522428E+02 -0.19773664225E+02  0.95456522085E+02  0.90740314057E+02 0.  0.
         13    1    3    3    0    0 -0.65001672162E+00 -0.40896463190E+02 -0.42848509700E+02  0.59236383843E+02  0.10566000000E+00 0.  1.
         22    1    1    0    0    0  0.14489258760E+02  0.16649522428E+02  0.19773664225E+02  0.29633477915E+02  0.00000000000E+00 0.  1.
</event>
<event>
 5    1  0.1250806E-009  0.9118800E+02  0.7561462E-02  0.1125453E+00
         25   -1    0    0    0    0  0.00000000000E+00  0.00000000000E+00  0.99999998245E-14  0.12509000000E+03  0.12509000000E+03 0.  0.
        -13    1    3    3    0    0 -0.14810182495E+02 -0.36385504663E+02  0.27724688705E+02  0.48082387451E+02  0.10566000000E+00 0.  1.
         23    2    1    0    0    0 -0.23873380039E+02  0.86101320902E+01  0.14555194063E+02  0.95833781459E+02  0.91258902829E+02 0.  0.
         13    1    3    3    0    0 -0.90631975443E+01  0.44995636753E+02 -0.13169494643E+02  0.47751394009E+02  0.10566000000E+00 0. -1.
         22    1    1    0    0    0  0.23873380039E+02 -0.86101320902E+01 -0.14555194063E+02  0.29256218541E+02  0.00000000000E+00 0.  1.
</event>
<event>
 5    1  0.1250806E-009  0.9118800E+02  0.7561462E-02  0.1125453E+00
         25   -1    0    0    0    0  0.00000000000E+00  0.00000000000E+00  0.99999998245E-14  0.12509000000E+03  0.12509000000E+03 0.  0.
        -13    1    3    3    0    0  0.25621767356E+02 -0.40659444859E+01  0.28105233930E+02  0.38248166038E+02  0.10566000000E+00 0.  1.
         23    2    1    0    0    0  0.90147625652E+01  0.70592308067E+00 -0.27324212878E+02  0.96308462847E+02  0.91907252897E+02 0.  0.
         13    1    3    3    0    0 -0.16607004790E+02  0.47718675665E+01 -0.55429446807E+02  0.58060296809E+02  0.10566000000E+00 0. -1.
         22    1    1    0    0    0 -0.90147625652E+01 -0.70592308067E+00  0.27324212878E+02  0.28781537153E+02  0.00000000000E+00 0. -1.
</event>
<event>
 5    1  0.1250806E-009  0.9118800E+02  0.7561462E-02  0.1125453E+00
         25   -1    0    0    0    0  0.00000000000E+00  0.00000000000E+00  0.99999998245E-14  0.12509000000E+03  0.12509000000E+03 0.  0.
        -13    1    3    3    0    0 -0.37022156361E+02 -0.30118922793E+02  0.11458040130E+02  0.49082455312E+02  0.10566000000E+00 0.  1.
         23    2    1    0    0    0 -0.87769407768E+01 -0.19452883875E+02 -0.22198531282E+02  0.94296751202E+02  0.89127173835E+02 0.  0.
         13    1    3    3    0    0  0.28245215584E+02  0.10666038918E+02 -0.33656571412E+02  0.45214295890E+02  0.10566000000E+00 0. -1.
         22    1    1    0    0    0  0.87769407768E+01  0.19452883875E+02  0.22198531282E+02  0.30793248798E+02  0.00000000000E+00 0.  1.
</event>
<event>
 5    1  0.1250806E-009  0.9118800E+02  0.7561462E-02  0.1125453E+00
         25   -1    0    0    0    0  0.00000000000E+00  0.00000000000E+00  0.99999998245E-14  0.12509000000E+03  0.12509000000E+03 0.  0.
        -13    1    3    3    0    0 -0.49044697976E+01 -0.51326347059E+02 -0.28578047521E+02  0.58950519002E+02  0.10566000000E+00 0.  1.
         23    2    1    0    0    0 -0.16965496504E+02 -0.21647207278E+02 -0.11230694047E+02  0.95382119844E+02  0.90637688864E+02 0.  0.
         13    1    3    3    0    0 -0.12061026706E+02  0.29679139781E+02  0.17347353474E+02  0.36431600842E+02  0.10566000000E+00 0. -1.
         22    1    1    0    0    0  0.16965496504E+02  0.21647207278E+02  0.11230694047E+02  0.29707880156E+02  0.00000000000E+00 0.  1.
</event>
<event>
 5    1  0.1250806E-009  0.9118800E+02  0.7561462E-02  0.1125453E+00
         25   -1    0    0    0    0  0.00000000000E+00  0.00000000000E+00  0.99999998245E-14  0.12509000000E+03  0.12509000000E+03 0.  0.
        -13    1    3    3    0    0 -0.43083749467E+02  0.24408554702E+02  0.33755192217E+02  0.59928383730E+02  0.10566000000E+00 0.  1.
         23    2    1    0    0    0 -0.17787891294E+02  0.22536447180E+02  0.99795918378E+01  0.94694395360E+02  0.89683530992E+02 0.  0.
         13    1    3    3    0    0  0.25295858173E+02 -0.18721075228E+01 -0.23775600379E+02  0.34766011631E+02  0.10566000000E+00 0. -1.
         22    1    1    0    0    0  0.17787891294E+02 -0.22536447180E+02 -0.99795918378E+01  0.30395604640E+02  0.00000000000E+00 0.  1.
</event>
<event>
 5    1  0.1250806E-009  0.9118800E+02  0.7561462E-02  0.1125453E+00
         25   -1    0    0    0    0  0.00000000000E+00  0.00000000000E+00  0.99999998245E-14  0.12509000000E+03  0.12509000000E+03 0.  0.
        -13    1    3    3    0    0 -0.25286311487E+02 -0.37944416149E+02 -0.12710963446E+02  0.47336624523E+02  0.10566000000E+00 0.  1.
         23    2    1    0    0    0 -0.11168118581E+02 -0.22193432847E+01  0.22771582515E+02  0.99630280295E+02  0.96322351633E+02 0.  0.
         13    1    3    3    0    0  0.14118192906E+02  0.35725072864E+02  0.35482545961E+02  0.52293655772E+02  0.10566000000E+00 0. -1.
         22    1    1    0    0    0  0.11168118581E+02  0.22193432847E+01 -0.22771582515E+02  0.25459719705E+02  0.00000000000E+00 0. -1.
</event>
<event>
 5    1  0.1250806E-009  0.9118800E+02  0.7561462E-02  0.1125453E+00
         25   -1    0    0    0    0  0.00000000000E+00  0.00000000000E+00  0.99999998245E-14  0.12509000000E+03  0.12509000000E+03 0.  0.
        -13    1    3    3    0    0 -0.34304382985E+01  0.87237082975E+01 -0.59178280202E+02  0.59916199855E+02  0.10566000000E+00 0.  1.
         23    2    1    0    0    0  0.11177188043E+02  0.36734067644E+01 -0.28119196992E+02  0.94608650140E+02  0.89563854272E+02 0.  0.
         13    1    3    3    0    0  0.14607626342E+02 -0.50503015331E+01  0.31059083210E+02  0.34692450285E+02  0.10566000000E+00 0. -1.
         22    1    1    0    0    0 -0.11177188043E+02 -0.36734067644E+01  0.28119196992E+02  0.30481349860E+02  0.00000000000E+00 0.  1.
</event>
<event>
 5    1  0.1250806E-009  0.9118800E+02  0.7561462E-02  0.1125453E+00
         25   -1    0    0    0    0  0.00000000000E+00  0.00000000000E+00  0.99999998245E-14  0.12509000000E+03  0.12509000000E+03 0.  0.
        -13    1    3    3    0    0 -0.28423482731E+02 -0.45819602942E+01  0.16597747333E+02  0.33232290190E+02  0.10566000000E+00 0.  1.
         23    2    1    0    0    0  0.20967102642E+02  0.21359368899E+02 -0.78565791896E+01  0.94145406458E+02  0.88914507745E+02 0.  0.
         13    1    3    3    0    0  0.49390585372E+02  0.25941329193E+02 -0.24454326523E+02  0.60913116268E+02  0.10566000000E+00 0. -1.
         22    1    1    0    0    0 -0.20967102642E+02 -0.21359368899E+02  0.78565791896E+01  0.30944593542E+02  0.00000000000E+00 0. -1.
</event>
<event>
 5    1  0.1250806E-009  0.9118800E+02  0.7561462E-02  0.1125453E+00
         25   -1    0    0    0    0  0.00000000000E+00  0.00000000000E+00  0.99999998245E-14  0.12509000000E+03  0.12509000000E+03 0.  0.
        -13    1    3    3    0    0 -0.63988786055E+01 -0.37026386380E+01 -0.36764835091E+02  0.37500925903E+02  0.10566000000E+00 0.  1.
         23    2    1    0    0    0  0.19730102181E+02  0.14153863835E+02  0.13805560423E+02  0.97157898537E+02  0.93056192465E+02 0.  0.
         13    1    3    3    0    0  0.26128980786E+02  0.17856502473E+02  0.50570395514E+02  0.59656972635E+02  0.10566000000E+00 0. -1.
         22    1    1    0    0    0 -0.19730102181E+02 -0.14153863835E+02 -0.13805560423E+02  0.27932101463E+02  0.00000000000E+00 0. -1.
</event>
<event>
 5    1  0.1250806E-009  0.9118800E+02  0.7561462E-02  0.1125453E+00
         25   -1    0    0    0    0  0.00000000000E+00  0.00000000000E+00  0.99999998245E-14  0.12509000000E+03  0.12509000000E+03 0.  0.
        -13    1    3    3    0    0 -0.23852662356E+02 -0.25378916127E+02  0.13922093227E+02  0.37508328797E+02  0.10566000000E+00 0.  1.
         23    2    1    0    0    0  0.84251709755E+01 -0.30767896201E+01 -0.28452877055E+02  0.95256858144E+02  0.90464648733E+02 0.  0.
         13    1    3    3    0    0  0.32277833332E+02  0.22302126506E+02 -0.42374970282E+02  0.57748529347E+02  0.10566000000E+00 0. -1.
         22    1    1    0    0    0 -0.84251709755E+01  0.30767896201E+01  0.28452877055E+02  0.29833141856E+02  0.00000000000E+00 0. -1.
</event>
<event>
 5    1  0.1250806E-009  0.9118800E+02  0.7561462E-02  0.1125453E+00
         25   -1    0    0    0    0  0.00000000000E+00  0.00000000000E+00  0.99999998245E-14  0.12509000000E+03  0.12509000000E+03 0.  0.
        -13    1    3    3    0    0  0.48934737697E+02 -0.43600379552E+01  0.27716253793E+02  0.56407626903E+02  0.10566000000E+00 0. -1.
         23    2    1    0    0    0  0.27644849516E+02  0.13596350907E+01 -0.60738933362E+01  0.96753124862E+02  0.92510478747E+02 0.  0.
         13    1    3    3    0    0 -0.21289888181E+02  0.57196730459E+01 -0.33790147129E+02  0.40345497959E+02  0.10566000000E+00 0.  1.
         22    1    1    0    0    0 -0.27644849516E+02 -0.13596350907E+01  0.60738933362E+01  0.28336875138E+02  0.00000000000E+00 0. -1.
</event>
<event>
 5    1  0.1250806E-009  0.9118800E+02  0.7561462E-02  0.1125453E+00
         25   -1    0    0    0    0  0.00000000000E+00  0.00000000000E+00  0.99999998245E-14  0.12509000000E+03  0.12509000000E+03 0.  0.
        -13    1    3    3    0    0  0.12286487725E+02 -0.43555522821E+02 -0.99464882525E+00  0.45266343337E+02  0.10566000000E+00 0. -1.
         23    2    1    0    0    0 -0.42661315563E+01 -0.67657649840E+01  0.28659787965E+02  0.95335018896E+02  0.90572661037E+02 0.  0.
         13    1    3    3    0    0 -0.16552619281E+02  0.36789757837E+02  0.29654436791E+02  0.50068675559E+02  0.10566000000E+00 0.  1.
         22    1    1    0    0    0  0.42661315563E+01  0.67657649840E+01 -0.28659787965E+02  0.29754981104E+02  0.00000000000E+00 0. -1.
</event>
<event>
 5    1  0.1250806E-009  0.9118800E+02  0.7561462E-02  0.1125453E+00
         25   -1    0    0    0    0  0.00000000000E+00  0.00000000000E+00  0.99999998245E-14  0.12509000000E+03  0.12509000000E+03 0.  0.
        -13    1    3    3    0    0  0.45911814563E+01  0.56773741846E+01  0.34991789798E+02  0.35745601716E+02  0.10566000000E+00 0. -1.
         23    2    1    0    0    0 -0.16968125847E+02 -0.62511372347E+00 -0.22171468455E+02  0.97163631181E+02  0.93063898204E+02 0.  0.
         13    1    3    3    0    0 -0.21559307304E+02 -0.63024879081E+01 -0.57163258253E+02  0.61418029465E+02  0.10566000000E+00 0.  1.
         22    1    1    0    0    0  0.16968125847E+02  0.62511372347E+00  0.22171468455E+02  0.27926368819E+02  0.00000000000E+00 0.  1.
</event>
<event>
 5    1  0.1250806E-009  0.9118800E+02  0.7561462E-02  0.1125453E+00
         25   -1    0    0    0    0  0.00000000000E+00  0.00000000000E+00  0.99999998245E-14  0.12509000000E+03  0.12509000000E+03 0.  0.
        -13    1    3    3    0    0  0.10944920144E+02  0.22124800205E+02 -0.27535695449E+02  0.36980045281E+02  0.10566000000E+00 0.  1.
         23    2    1    0    0    0  0.47685525463E+01 -0.63280201119E+01  0.25993733499E+02  0.97915432604E+02  0.94068989730E+02 0.  0.
         13    1    3    3    0    0 -0.61763675974E+01 -0.28452820317E+02  0.53529428948E+02  0.60935387323E+02  0.10566000000E+00 0. -1.
         22    1    1    0    0    0 -0.47685525463E+01  0.63280201119E+01 -0.25993733499E+02  0.27174567396E+02  0.00000000000E+00 0. -1.
</event>
<event>
 5    1  0.1250806E-009  0.9118800E+02  0.7561462E-02  0.1125453E+00
         25   -1    0    0    0    0  0.00000000000E+00  0.00000000000E+00  0.99999998245E-14  0.12509000000E+03  0.12509000000E+03 0.  0.
        -13    1    3    3    0    0  0.49833989015E+02 -0.19035339935E+02  0.21523973881E+02  0.57524457784E+02  0.10566000000E+00 0.  1.
         23    2    1    0    0    0  0.30376773814E+02 -0.26707595317E+02  0.23119606096E+02  0.78500728477E+02  0.63180726100E+02 0.  0.
         13    1    3    3    0    0 -0.19457215201E+02 -0.76722553818E+01  0.15956322150E+01  0.20976270694E+02  0.10566000000E+00 0. -1.
         22    1    1    0    0    0 -0.30376773814E+02  0.26707595317E+02 -0.23119606096E+02  0.46589271523E+02  0.00000000000E+00 0.  1.
</event>
<event>
 5    1  0.1250806E-009  0.9118800E+02  0.7561462E-02  0.1125453E+00
         25   -1    0    0    0    0  0.00000000000E+00  0.00000000000E+00  0.99999998245E-14  0.12509000000E+03  0.12509000000E+03 0.  0.
        -13    1    3    3    0    0  0.17134192664E+02  0.26351183154E+02 -0.18098912330E+02  0.36270472887E+02  0.10566000000E+00 0. -1.
         23    2    1    0    0    0 -0.28507332615E+02 -0.69543628254E+01  0.46349376242E+00  0.95743006941E+02  0.91134391843E+02 0.  0.
         13    1    3    3    0    0 -0.45641525279E+02 -0.33305545980E+02  0.18562406092E+02  0.59472534054E+02  0.10566000000E+00 0.  1.
         22    1    1    0    0    0  0.28507332615E+02  0.69543628254E+01 -0.46349376242E+00  0.29346993059E+02  0.00000000000E+00 0.  1.
</event>
<event>
 5    1  0.1250806E-009  0.9118800E+02  0.7561462E-02  0.1125453E+00
         25   -1    0    0    0    0  0.00000000000E+00  0.00000000000E+00  0.99999998245E-14  0.12509000000E+03  0.12509000000E+03 0.  0.
        -13    1    3    3    0    0  0.13999213344E+02  0.58882405470E+02 -0.89852372384E+01  0.61187100769E+02  0.10566000000E+00 0.  1.
         23    2    1    0    0    0  0.63494408283E+00  0.28525655959E+02 -0.11219399192E+02  0.94430725382E+02  0.89315008684E+02 0.  0.
         13    1    3    3    0    0 -0.13364269261E+02 -0.30356749511E+02 -0.22341619531E+01  0.33243624614E+02  0.10566000000E+00 0. -1.
         22    1    1    0    0    0 -0.63494408283E+00 -0.28525655959E+02  0.11219399192E+02  0.30659274618E+02  0.00000000000E+00 0.  1.
</event>
<event>
 5    1  0.1250806E-009  0.9118800E+02  0.7561462E-02  0.1125453E+00
         25   -1    0    0    0    0  0.00000000000E+00  0.00000000000E+00  0.99999998245E-14  0.12509000000E+03  0.12509000000E+03 0.  0.
        -13    1    3    3    0    0 -0.28887478432E+02 -0.28270465653E+02  0.24266477074E+02  0.47144233072E+02  0.10566000000E+00 0.  1.
         23    2    1    0    0    0 -0.16980161730E+02 -0.10723841706E+02 -0.20322260845E+02  0.96518668929E+02  0.92192909123E+02 0.  0.
         13    1    3    3    0    0  0.11907316702E+02  0.17546623946E+02 -0.44588737919E+02  0.49374435857E+02  0.10566000000E+00 0. -1.
         22    1    1    0    0    0  0.16980161730E+02  0.10723841706E+02  0.20322260845E+02  0.28571331071E+02  0.00000000000E+00 0.  1.
</event>
<event>
 5    1  0.1250806E-009  0.9118800E+02  0.7561462E-02  0.1125453E+00
         25   -1    0    0    0    0  0.00000000000E+00  0.00000000000E+00  0.99999998245E-14  0.12509000000E+03  0.12509000000E+03 0.  0.
        -13    1    3    3    0    0 -0.68342932079E+00  0.35985854430E+02 -0.19839951242E+01  0.36047138519E+02  0.10566000000E+00 0.  1.
         23    2    1    0    0    0  0.51083820627E+01 -0.15560381249E+02  0.25526291646E+02  0.94761587627E+02  0.89777201407E+02 0.  0.
         13    1    3    3    0    0  0.57918113835E+01 -0.51546235679E+02  0.27510286770E+02  0.58714449108E+02  0.10566000000E+00 0. -1.
         22    1    1    0    0    0 -0.51083820627E+01  0.15560381249E+02 -0.25526291646E+02  0.30328412373E+02  0.00000000000E+00 0. -1.
</event>
<event>
 4    1  0.1250806E-009  0.9118800E+02  0.7561462E-02  0.1125453E+00
         25   -1    0    0    0    0  0.00000000000E+00  0.00000000000E+00  0.99999998245E-14  0.12509000000E+03  0.12509000000E+03 0.  0.
        -13    1    1    0    0    0 -0.57982022142E+01 -0.61410386115E+01  0.14499627025E+02  0.16780400830E+02  0.10566000000E+00 0.  1.
         13    1    1    0    0    0  0.54259082035E+02 -0.91153101184E+01  0.15129562890E+01  0.55040322152E+02  0.10566000000E+00 0. -1.
         22    1    1    0    0    0 -0.48460879821E+02  0.15256348730E+02 -0.16012583314E+02  0.53269277017E+02  0.00000000000E+00 0. -1.
</event>
<event>
 5    1  0.1250806E-009  0.9118800E+02  0.7561462E-02  0.1125453E+00
         25   -1    0    0    0    0  0.00000000000E+00  0.00000000000E+00  0.99999998245E-14  0.12509000000E+03  0.12509000000E+03 0.  0.
        -13    1    3    3    0    0  0.25435595569E+02 -0.16303726578E+02  0.16556292362E+02  0.34451458650E+02  0.10566000000E+00 0.  1.
         23    2    1    0    0    0 -0.22044865280E+02 -0.34229460454E+01 -0.19510852256E+02  0.95452759902E+02  0.90735127555E+02 0.  0.
         13    1    3    3    0    0 -0.47480460849E+02  0.12880780532E+02 -0.36067144618E+02  0.61001301253E+02  0.10566000000E+00 0. -1.
         22    1    1    0    0    0  0.22044865280E+02  0.34229460454E+01  0.19510852256E+02  0.29637240098E+02  0.00000000000E+00 0. -1.
</event>
<event>
 5    1  0.1250806E-009  0.9118800E+02  0.7561462E-02  0.1125453E+00
         25   -1    0    0    0    0  0.00000000000E+00  0.00000000000E+00  0.99999998245E-14  0.12509000000E+03  0.12509000000E+03 0.  0.
        -13    1    3    3    0    0  0.10011002748E+02  0.18002827165E+01 -0.35799519670E+02  0.37216635615E+02  0.10566000000E+00 0.  1.
         23    2    1    0    0    0 -0.22498406652E+02  0.17584276563E+02  0.93454869780E+01  0.95044647431E+02  0.90170736907E+02 0.  0.
         13    1    3    3    0    0 -0.32509409400E+02  0.15783993846E+02  0.45145006648E+02  0.57828011816E+02  0.10566000000E+00 0. -1.
         22    1    1    0    0    0  0.22498406652E+02 -0.17584276563E+02 -0.93454869780E+01  0.30045352569E+02  0.00000000000E+00 0. -1.
</event>
<event>
 5    1  0.1250806E-009  0.9118800E+02  0.7561462E-02  0.1125453E+00
         25   -1    0    0    0    0  0.00000000000E+00  0.00000000000E+00  0.99999998245E-14  0.12509000000E+03  0.12509000000E+03 0.  0.
        -13    1    3    3    0    0 -0.22172864781E+02 -0.24119435787E+02 -0.20621321788E+02  0.38712184020E+02  0.10566000000E+00 0.  1.
         23    2    1    0    0    0  0.17890812400E+01 -0.31494642969E+01  0.28013287880E+02  0.96843509335E+02  0.92632613401E+02 0.  0.
         13    1    3    3    0    0  0.23961946021E+02  0.20969971490E+02  0.48634609667E+02  0.58131325315E+02  0.10566000000E+00 0. -1.
         22    1    1    0    0    0 -0.17890812400E+01  0.31494642969E+01 -0.28013287880E+02  0.28246490665E+02  0.00000000000E+00 0. -1.
</event>
<event>
 5    1  0.1250806E-009  0.9118800E+02  0.7561462E-02  0.1125453E+00
         25   -1    0    0    0    0  0.00000000000E+00  0.00000000000E+00  0.99999998245E-14  0.12509000000E+03  0.12509000000E+03 0.  0.
        -13    1    3    3    0    0  0.40435542935E+01  0.35907695222E+02  0.44155199946E+02  0.57056163153E+02  0.10566000000E+00 0. -1.
         23    2    1    0    0    0 -0.15194092227E+02  0.87220014321E+01  0.21595312961E+02  0.97281884467E+02  0.93222710517E+02 0.  0.
         13    1    3    3    0    0 -0.19237646520E+02 -0.27185693790E+02 -0.22559886985E+02  0.40225721314E+02  0.10566000000E+00 0.  1.
         22    1    1    0    0    0  0.15194092227E+02 -0.87220014321E+01 -0.21595312961E+02  0.27808115533E+02  0.00000000000E+00 0. -1.
</event>
<event>
 5    1  0.1250806E-009  0.9118800E+02  0.7561462E-02  0.1125453E+00
         25   -1    0    0    0    0  0.00000000000E+00  0.00000000000E+00  0.99999998245E-14  0.12509000000E+03  0.12509000000E+03 0.  0.
        -13    1    3    3    0    0  0.42199147321E+00 -0.12849942872E+02 -0.27413105067E+02  0.30278517171E+02  0.10566000000E+00 0.  1.
         23    2    1    0    0    0 -0.11018836967E+02 -0.25079304287E+02  0.26647604755E+02  0.86873758547E+02  0.78016465014E+02 0.  0.
         13    1    3    3    0    0 -0.11440828440E+02 -0.12229361415E+02  0.54060709822E+02  0.56595241376E+02  0.10566000000E+00 0. -1.
         22    1    1    0    0    0  0.11018836967E+02  0.25079304287E+02 -0.26647604755E+02  0.38216241453E+02  0.00000000000E+00 0. -1.
</event>
<event>
 5    1  0.1250806E-009  0.9118800E+02  0.7561462E-02  0.1125453E+00
         25   -1    0    0    0    0  0.00000000000E+00  0.00000000000E+00  0.99999998245E-14  0.12509000000E+03  0.12509000000E+03 0.  0.
        -13    1    3    3    0    0 -0.35684405013E+01  0.11501061378E+02 -0.35469019064E+02  0.37457584783E+02  0.10566000000E+00 0. -1.
         23    2    1    0    0    0  0.16646243815E+02 -0.24431618579E+02  0.48583716569E+01  0.95129940009E+02  0.90288982115E+02 0.  0.
         13    1    3    3    0    0  0.20214684316E+02 -0.35932679957E+02  0.40327390721E+02  0.57672355225E+02  0.10566000000E+00 0.  1.
         22    1    1    0    0    0 -0.16646243815E+02  0.24431618579E+02 -0.48583716569E+01  0.29960059991E+02  0.00000000000E+00 0.  1.
</event>
<event>
 5    1  0.1250806E-009  0.9118800E+02  0.7561462E-02  0.1125453E+00
         25   -1    0    0    0    0  0.00000000000E+00  0.00000000000E+00  0.99999998245E-14  0.12509000000E+03  0.12509000000E+03 0.  0.
        -13    1    3    3    0    0 -0.21669318298E+02  0.32436357139E+02 -0.15484235258E+01  0.39039536363E+02  0.10566000000E+00 0. -1.
         23    2    1    0    0    0  0.15443720889E+02 -0.26992271028E+01 -0.25245175798E+02  0.95372778681E+02  0.90624796112E+02 0.  0.
         13    1    3    3    0    0  0.37113039187E+02 -0.35135584242E+02 -0.23696752272E+02  0.56333242318E+02  0.10566000000E+00 0.  1.
         22    1    1    0    0    0 -0.15443720889E+02  0.26992271028E+01  0.25245175798E+02  0.29717221319E+02  0.00000000000E+00 0.  1.
</event>
<event>
 5    1  0.1250806E-009  0.9118800E+02  0.7561462E-02  0.1125453E+00
         25   -1    0    0    0    0  0.00000000000E+00  0.00000000000E+00  0.99999998245E-14  0.12509000000E+03  0.12509000000E+03 0.  0.
        -13    1    3    3    0    0 -0.68696524810E+01  0.23390754253E+02 -0.47801174506E+02  0.53658950398E+02  0.10566000000E+00 0.  1.
         23    2    1    0    0    0  0.17786379790E+02  0.17475717302E+02 -0.12297128216E+02  0.97287565509E+02  0.93230333256E+02 0.  0.
         13    1    3    3    0    0  0.24656032271E+02 -0.59150369506E+01  0.35504046290E+02  0.43628615111E+02  0.10566000000E+00 0. -1.
         22    1    1    0    0    0 -0.17786379790E+02 -0.17475717302E+02  0.12297128216E+02  0.27802434491E+02  0.00000000000E+00 0. -1.
</event>
<event>
 5    1  0.1250806E-009  0.9118800E+02  0.7561462E-02  0.1125453E+00
         25   -1    0    0    0    0  0.00000000000E+00  0.00000000000E+00  0.99999998245E-14  0.12509000000E+03  0.12509000000E+03 0.  0.
        -13    1    3    3    0    0 -0.23481719165E+02  0.14189739782E+02  0.26344246770E+02  0.38036434532E+02  0.10566000000E+00 0.  1.
         23    2    1    0    0    0 -0.15779048799E+02 -0.26164043394E+02 -0.10054922707E+02  0.92924225979E+02  0.87179554688E+02 0.  0.
         13    1    3    3    0    0  0.77026703663E+01 -0.40353783175E+02 -0.36399169477E+02  0.54887791447E+02  0.10566000000E+00 0. -1.
         22    1    1    0    0    0  0.15779048799E+02  0.26164043394E+02  0.10054922707E+02  0.32165774021E+02  0.00000000000E+00 0. -1.
</event>
<event>
 5    1  0.1250806E-009  0.9118800E+02  0.7561462E-02  0.1125453E+00
         25   -1    0    0    0    0  0.00000000000E+00  0.00000000000E+00  0.99999998245E-14  0.12509000000E+03  0.12509000000E+03 0.  0.
        -13    1    3    3    0    0  0.29803810431E+02  0.19610127276E+02  0.46100393847E+02  0.58293067211E+02  0.10566000000E+00 0.  1.
         23    2    1    0    0    0  0.59083015489E+01  0.22803492250E+02  0.17235014322E+02  0.95901765989E+02  0.91352042753E+02 0.  0.
         13    1    3    3    0    0 -0.23895508882E+02  0.31933649748E+01 -0.28865379525E+02  0.37608698778E+02  0.10566000000E+00 0. -1.
         22    1    1    0    0    0 -0.59083015489E+01 -0.22803492250E+02 -0.17235014322E+02  0.29188234011E+02  0.00000000000E+00 0.  1.
</event>
<event>
 5    1  0.1250806E-009  0.9118800E+02  0.7561462E-02  0.1125453E+00
         25   -1    0    0    0    0  0.00000000000E+00  0.00000000000E+00  0.99999998245E-14  0.12509000000E+03  0.12509000000E+03 0.  0.
        -13    1    3    3    0    0  0.47836669636E+02 -0.10979937672E+02  0.11441301647E+02  0.50396632235E+02  0.10566000000E+00 0.  1.
         23    2    1    0    0    0  0.19350682186E+02  0.21162843408E+02 -0.42058398421E+01  0.96107178692E+02  0.91632886374E+02 0.  0.
         13    1    3    3    0    0 -0.28485987450E+02  0.32142781081E+02 -0.15647141490E+02  0.45710546458E+02  0.10566000000E+00 0. -1.
         22    1    1    0    0    0 -0.19350682186E+02 -0.21162843408E+02  0.42058398421E+01  0.28982821308E+02  0.00000000000E+00 0.  1.
</event>
<event>
 5    1  0.1250806E-009  0.9118800E+02  0.7561462E-02  0.1125453E+00
         25   -1    0    0    0    0  0.00000000000E+00  0.00000000000E+00  0.99999998245E-14  0.12509000000E+03  0.12509000000E+03 0.  0.
        -13    1    3    3    0    0  0.28468097744E+00 -0.22942827940E+02  0.28571234844E+02  0.36643976609E+02  0.10566000000E+00 0.  1.
         23    2    1    0    0    0 -0.34125060884E+01  0.28909310244E+02 -0.37043689694E-01  0.95979953816E+02  0.91459044090E+02 0.  0.
         13    1    3    3    0    0 -0.36971870658E+01  0.51852138184E+02 -0.28608278534E+02  0.59335977207E+02  0.10566000000E+00 0. -1.
         22    1    1    0    0    0  0.34125060884E+01 -0.28909310244E+02  0.37043689694E-01  0.29110046184E+02  0.00000000000E+00 0. -1.
</event>
<event>
 5    1  0.1250806E-009  0.9118800E+02  0.7561462E-02  0.1125453E+00
         25   -1    0    0    0    0  0.00000000000E+00  0.00000000000E+00  0.99999998245E-14  0.12509000000E+03  0.12509000000E+03 0.  0.
        -13    1    3    3    0    0  0.26955517005E+02  0.67805784537E+01 -0.20909265955E+02  0.34781959519E+02  0.10566000000E+00 0. -1.
         23    2    1    0    0    0 -0.40507884319E+01 -0.26365788950E+02  0.16606893318E+02  0.93667832354E+02  0.88240071386E+02 0.  0.
         13    1    3    3    0    0 -0.31006305437E+02 -0.33146367404E+02  0.37516159273E+02  0.58885872835E+02  0.10566000000E+00 0.  1.
         22    1    1    0    0    0  0.40507884319E+01  0.26365788950E+02 -0.16606893318E+02  0.31422167646E+02  0.00000000000E+00 0.  1.
</event>
<event>
 5    1  0.1250806E-009  0.9118800E+02  0.7561462E-02  0.1125453E+00
         25   -1    0    0    0    0  0.00000000000E+00  0.00000000000E+00  0.99999998245E-14  0.12509000000E+03  0.12509000000E+03 0.  0.
        -13    1    3    3    0    0 -0.31584927782E+02  0.24638964560E+02 -0.33695281657E+02  0.52345672291E+02  0.10566000000E+00 0. -1.
         23    2    1    0    0    0 -0.11950870002E+00  0.28904961110E+02 -0.38390371350E+01  0.95930965976E+02  0.91392018075E+02 0.  0.
         13    1    3    3    0    0  0.31465419082E+02  0.42659965499E+01  0.29856244522E+02  0.43585293685E+02  0.10566000000E+00 0.  1.
         22    1    1    0    0    0  0.11950870002E+00 -0.28904961110E+02  0.38390371350E+01  0.29159034024E+02  0.00000000000E+00 0. -1.
</event>
<event>
 5    1  0.1250806E-009  0.9118800E+02  0.7561462E-02  0.1125453E+00
         25   -1    0    0    0    0  0.00000000000E+00  0.00000000000E+00  0.99999998245E-14  0.12509000000E+03  0.12509000000E+03 0.  0.
        -13    1    3    3    0    0  0.44894033267E+02 -0.12485350648E+02 -0.46223707254E+01  0.46826655645E+02  0.10566000000E+00 0.  1.
         23    2    1    0    0    0  0.91953942164E+01  0.24819096561E+02 -0.62274158294E+00  0.98614905364E+02  0.94994573129E+02 0.  0.
         13    1    3    3    0    0 -0.35698639051E+02  0.37304447209E+02  0.39996291425E+01  0.51788249719E+02  0.10566000000E+00 0. -1.
         22    1    1    0    0    0 -0.91953942164E+01 -0.24819096561E+02  0.62274158294E+00  0.26475094636E+02  0.00000000000E+00 0. -1.
</event>
<event>
 5    1  0.1250806E-009  0.9118800E+02  0.7561462E-02  0.1125453E+00
         25   -1    0    0    0    0  0.00000000000E+00  0.00000000000E+00  0.99999998245E-14  0.12509000000E+03  0.12509000000E+03 0.  0.
        -13    1    3    3    0    0  0.30103156581E+02  0.12836686416E+02  0.43701002839E+02  0.54596422662E+02  0.10566000000E+00 0.  1.
         23    2    1    0    0    0  0.22855422198E+02 -0.13281934145E+02  0.12741660544E+02  0.95744983185E+02  0.91137104371E+02 0.  0.
         13    1    3    3    0    0 -0.72477343824E+01 -0.26118620561E+02 -0.30959342295E+02  0.41148560523E+02  0.10566000000E+00 0. -1.
         22    1    1    0    0    0 -0.22855422198E+02  0.13281934145E+02 -0.12741660544E+02  0.29345016815E+02  0.00000000000E+00 0.  1.
</event>
<event>
 5    1  0.1250806E-009  0.9118800E+02  0.7561462E-02  0.1125453E+00
         25   -1    0    0    0    0  0.00000000000E+00  0.00000000000E+00  0.99999998245E-14  0.12509000000E+03  0.12509000000E+03 0.  0.
        -13    1    3    3    0    0 -0.47601543173E+02 -0.35649302958E+02 -0.34054249290E+01  0.59568345594E+02  0.10566000000E+00 0.  1.
         23    2    1    0    0    0 -0.13540008901E+02 -0.21484039130E+02 -0.11301935037E+02  0.97293785978E+02  0.93238679077E+02 0.  0.
         13    1    3    3    0    0  0.34061534272E+02  0.14165263828E+02 -0.78965101078E+01  0.37725440384E+02  0.10566000000E+00 0. -1.
         22    1    1    0    0    0  0.13540008901E+02  0.21484039130E+02  0.11301935037E+02  0.27796214022E+02  0.00000000000E+00 0.  1.
</event>
<event>
 5    1  0.1250806E-009  0.9118800E+02  0.7561462E-02  0.1125453E+00
         25   -1    0    0    0    0  0.00000000000E+00  0.00000000000E+00  0.99999998245E-14  0.12509000000E+03  0.12509000000E+03 0.  0.
        -13    1    3    3    0    0 -0.34709980650E+01  0.22993496057E+02  0.34210922905E+02  0.41366013810E+02  0.10566000000E+00 0. -1.
         23    2    1    0    0    0  0.33906328999E+01  0.19470278373E+02 -0.20498068032E+02  0.96616171237E+02  0.92325108286E+02 0.  0.
         13    1    3    3    0    0  0.68616309650E+01 -0.35232176838E+01 -0.54708990937E+02  0.55250157427E+02  0.10566000000E+00 0.  1.
         22    1    1    0    0    0 -0.33906328999E+01 -0.19470278373E+02  0.20498068032E+02  0.28473828763E+02  0.00000000000E+00 0.  1.
</event>
<event>
 5    1  0.1250806E-009  0.9118800E+02  0.7561462E-02  0.1125453E+00
         25   -1    0    0    0    0  0.00000000000E+00  0.00000000000E+00  0.99999998245E-14  0.12509000000E+03  0.12509000000E+03 0.  0.
        -13    1    3    3    0    0  0.41655762039E+02 -0.35894357436E+02 -0.15122807582E+02  0.57029096784E+02  0.10566000000E+00 0. -1.
         23    2    1    0    0    0  0.60050113918E+01 -0.28426482463E+02 -0.12399868456E+01  0.96009720867E+02  0.91499747905E+02 0.  0.
         13    1    3    3    0    0 -0.35650750647E+02  0.74678749725E+01  0.13882820736E+02  0.38980624084E+02  0.10566000000E+00 0.  1.
         22    1    1    0    0    0 -0.60050113918E+01  0.28426482463E+02  0.12399868456E+01  0.29080279133E+02  0.00000000000E+00 0. -1.
</event>
<event>
 5    1  0.1250806E-009  0.9118800E+02  0.7561462E-02  0.1125453E+00
         25   -1    0    0    0    0  0.00000000000E+00  0.00000000000E+00  0.99999998245E-14  0.12509000000E+03  0.12509000000E+03 0.  0.
        -13    1    3    3    0    0  0.38087405166E+02 -0.22918291383E+02  0.44259222647E+00  0.44453408915E+02  0.10566000000E+00 0. -1.
         23    2    1    0    0    0  0.13667518796E+02  0.15858570139E+02 -0.21342369318E+02  0.95193644954E+02  0.90377198423E+02 0.  0.
         13    1    3    3    0    0 -0.24419886370E+02  0.38776861522E+02 -0.21784961544E+02  0.50740236040E+02  0.10566000000E+00 0.  1.
         22    1    1    0    0    0 -0.13667518796E+02 -0.15858570139E+02  0.21342369318E+02  0.29896355046E+02  0.00000000000E+00 0.  1.
</event>
<event>
 5    1  0.1250806E-009  0.9118800E+02  0.7561462E-02  0.1125453E+00
         25   -1    0    0    0    0  0.00000000000E+00  0.00000000000E+00  0.99999998245E-14  0.12509000000E+03  0.12509000000E+03 0.  0.
        -13    1    3    3    0    0  0.94284057024E-02  0.39827430229E+02  0.27324882658E+02  0.48299944760E+02  0.10566000000E+00 0.  1.
         23    2    1    0    0    0 -0.16348979488E+02  0.20424881809E+02 -0.12945520081E+02  0.95900080209E+02  0.91349734355E+02 0.  0.
         13    1    3    3    0    0 -0.16358407894E+02 -0.19402548420E+02 -0.40270402739E+02  0.47600135449E+02  0.10566000000E+00 0. -1.
         22    1    1    0    0    0  0.16348979488E+02 -0.20424881809E+02  0.12945520081E+02  0.29189919791E+02  0.00000000000E+00 0.  1.
</event>
<event>
 5    1  0.1250806E-009  0.9118800E+02  0.7561462E-02  0.1125453E+00
         25   -1    0    0    0    0  0.00000000000E+00  0.00000000000E+00  0.99999998245E-14  0.12509000000E+03  0.12509000000E+03 0.  0.
        -13    1    3    3    0    0  0.47315120383E+02 -0.32007230223E+00 -0.31073736681E+02  0.56607520159E+02  0.10566000000E+00 0.  1.
         23    2    1    0    0    0  0.29742570204E+02  0.16856848338E+02 -0.87647671928E+01  0.89797012564E+02  0.82570627364E+02 0.  0.
         13    1    3    3    0    0 -0.17572550180E+02  0.17176920640E+02  0.22308969488E+02  0.33189492406E+02  0.10566000000E+00 0. -1.
         22    1    1    0    0    0 -0.29742570204E+02 -0.16856848338E+02  0.87647671928E+01  0.35292987436E+02  0.00000000000E+00 0.  1.
</event>
<event>
 5    1  0.1250806E-009  0.9118800E+02  0.7561462E-02  0.1125453E+00
         25   -1    0    0    0    0  0.00000000000E+00  0.00000000000E+00  0.99999998245E-14  0.12509000000E+03  0.12509000000E+03 0.  0.
        -13    1    3    3    0    0  0.25432905966E+02 -0.32852616269E+02  0.29151546551E-01  0.41546830390E+02  0.10566000000E+00 0. -1.
         23    2    1    0    0    0  0.31176217761E+01  0.15918675324E+02  0.20494528057E+02  0.98952871813E+02  0.95438573806E+02 0.  0.
         13    1    3    3    0    0 -0.22315284190E+02  0.48771291593E+02  0.20465376510E+02  0.57406041423E+02  0.10566000000E+00 0.  1.
         22    1    1    0    0    0 -0.31176217761E+01 -0.15918675324E+02 -0.20494528057E+02  0.26137128187E+02  0.00000000000E+00 0.  1.
</event>
<event>
 5    1  0.1250806E-009  0.9118800E+02  0.7561462E-02  0.1125453E+00
         25   -1    0    0    0    0  0.00000000000E+00  0.00000000000E+00  0.99999998245E-14  0.12509000000E+03  0.12509000000E+03 0.  0.
        -13    1    3    3    0    0 -0.17193530835E+02 -0.18394656744E+02  0.27732410284E+02  0.37457691380E+02  0.10566000000E+00 0.  1.
         23    2    1    0    0    0 -0.49562247980E+01  0.27944554832E+02 -0.60201825624E+01  0.96077848975E+02  0.91592839003E+02 0.  0.
         13    1    3    3    0    0  0.12237306037E+02  0.46339211576E+02 -0.33752592846E+02  0.58620157595E+02  0.10566000000E+00 0. -1.
         22    1    1    0    0    0  0.49562247980E+01 -0.27944554832E+02  0.60201825624E+01  0.29012151025E+02  0.00000000000E+00 0. -1.
</event>
<event>
 5    1  0.1250806E-009  0.9118800E+02  0.7561462E-02  0.1125453E+00
         25   -1    0    0    0    0  0.00000000000E+00  0.00000000000E+00  0.99999998245E-14  0.12509000000E+03  0.12509000000E+03 0.  0.
        -13    1    3    3    0    0  0.40964105472E+02  0.84138378700E+01  0.39266392370E+02  0.57364722074E+02  0.10566000000E+00 0.  1.
         23    2    1    0    0    0  0.13360125654E+02  0.20954338054E+02  0.17047673786E+02  0.94953636214E+02  0.90044392429E+02 0.  0.
         13    1    3    3    0    0 -0.27603979817E+02  0.12540500184E+02 -0.22218718585E+02  0.37588914140E+02  0.10566000000E+00 0. -1.
         22    1    1    0    0    0 -0.13360125654E+02 -0.20954338054E+02 -0.17047673786E+02  0.30136363786E+02  0.00000000000E+00 0.  1.
</event>
<event>
 5    1  0.1250806E-009  0.9118800E+02  0.7561462E-02  0.1125453E+00
         25   -1    0    0    0    0  0.00000000000E+00  0.00000000000E+00  0.99999998245E-14  0.12509000000E+03  0.12509000000E+03 0.  0.
        -13    1    3    3    0    0  0.12236019255E+02  0.94297159464E+01  0.26444338767E+02  0.30626033483E+02  0.10566000000E+00 0.  1.
         23    2    1    0    0    0 -0.24462353200E+02  0.44577719584E+01 -0.22195339965E+02  0.91759659901E+02  0.85492243005E+02 0.  0.
         13    1    3    3    0    0 -0.36698372455E+02 -0.49719439879E+01 -0.48639678732E+02  0.61133626419E+02  0.10566000000E+00 0. -1.
         22    1    1    0    0    0  0.24462353200E+02 -0.44577719584E+01  0.22195339965E+02  0.33330340099E+02  0.00000000000E+00 0. -1.
</event>
<event>
 5    1  0.1250806E-009  0.9118800E+02  0.7561462E-02  0.1125453E+00
         25   -1    0    0    0    0  0.00000000000E+00  0.00000000000E+00  0.99999998245E-14  0.12509000000E+03  0.12509000000E+03 0.  0.
        -13    1    3    3    0    0 -0.11794071822E+00 -0.62743616725E+01  0.45178776472E+02  0.45612657585E+02  0.10566000000E+00 0. -1.
         23    2    1    0    0    0  0.10468692086E+02 -0.28222960162E+02  0.23402901121E+01  0.94897187079E+02  0.89965938907E+02 0.  0.
         13    1    3    3    0    0  0.10586632804E+02 -0.21948598489E+02 -0.42838486360E+02  0.49284529494E+02  0.10566000000E+00 0.  1.
         22    1    1    0    0    0 -0.10468692086E+02  0.28222960162E+02 -0.23402901121E+01  0.30192812921E+02  0.00000000000E+00 0.  1.
</event>
<event>
 5    1  0.1250806E-009  0.9118800E+02  0.7561462E-02  0.1125453E+00
         25   -1    0    0    0    0  0.00000000000E+00  0.00000000000E+00  0.99999998245E-14  0.12509000000E+03  0.12509000000E+03 0.  0.
        -13    1    3    3    0    0  0.27795684747E+02  0.33447182098E+01 -0.53515452055E+01  0.28503288066E+02  0.10566000000E+00 0.  1.
         23    2    1    0    0    0 -0.16588611423E+02 -0.16034959242E+02  0.29111612588E+02  0.87944503176E+02  0.79714789748E+02 0.  0.
         13    1    3    3    0    0 -0.44384296170E+02 -0.19379677452E+02  0.34463157794E+02  0.59441215110E+02  0.10566000000E+00 0. -1.
         22    1    1    0    0    0  0.16588611423E+02  0.16034959242E+02 -0.29111612588E+02  0.37145496824E+02  0.00000000000E+00 0. -1.
</event>
<event>
 5    1  0.1250806E-009  0.9118800E+02  0.7561462E-02  0.1125453E+00
         25   -1    0    0    0    0  0.00000000000E+00  0.00000000000E+00  0.99999998245E-14  0.12509000000E+03  0.12509000000E+03 0.  0.
        -13    1    3    3    0    0  0.63239951494E+01  0.74783290524E+01  0.50652120173E+02  0.51590374704E+02  0.10566000000E+00 0. -1.
         23    2    1    0    0    0 -0.12457610634E+02  0.22305126858E+02  0.12445934256E+02  0.96671484444E+02  0.92400020987E+02 0.  0.
         13    1    3    3    0    0 -0.18781605784E+02  0.14826797806E+02 -0.38206185917E+02  0.45081109740E+02  0.10566000000E+00 0.  1.
         22    1    1    0    0    0  0.12457610634E+02 -0.22305126858E+02 -0.12445934256E+02  0.28418515556E+02  0.00000000000E+00 0. -1.
</event>
<event>
 5    1  0.1250806E-009  0.9118800E+02  0.7561462E-02  0.1125453E+00
         25   -1    0    0    0    0  0.00000000000E+00  0.00000000000E+00  0.99999998245E-14  0.12509000000E+03  0.12509000000E+03 0.  0.
        -13    1    3    3    0    0  0.22862356131E+02  0.38121354563E+02 -0.27419217825E+01  0.44535988825E+02  0.10566000000E+00 0. -1.
         23    2    1    0    0    0  0.27121494305E+02  0.34942254069E+01  0.24166862647E+02  0.88595859173E+02  0.80730440033E+02 0.  0.
         13    1    3    3    0    0  0.42591381738E+01 -0.34627129156E+02  0.26908784429E+02  0.44059870348E+02  0.10566000000E+00 0.  1.
         22    1    1    0    0    0 -0.27121494305E+02 -0.34942254069E+01 -0.24166862647E+02  0.36494140827E+02  0.00000000000E+00 0.  1.
</event>
<event>
 5    1  0.1250806E-009  0.9118800E+02  0.7561462E-02  0.1125453E+00
         25   -1    0    0    0    0  0.00000000000E+00  0.00000000000E+00  0.99999998245E-14  0.12509000000E+03  0.12509000000E+03 0.  0.
        -13    1    3    3    0    0  0.25439478588E+02  0.22748437172E+02 -0.14299009984E+02  0.37001774487E+02  0.10566000000E+00 0.  1.
         23    2    1    0    0    0 -0.73027980046E+00 -0.28743665548E+02 -0.87840974101E+01  0.95025203559E+02  0.90143759221E+02 0.  0.
         13    1    3    3    0    0 -0.26169758388E+02 -0.51492102720E+02  0.55149125742E+01  0.58023429073E+02  0.10566000000E+00 0. -1.
         22    1    1    0    0    0  0.73027980046E+00  0.28743665548E+02  0.87840974101E+01  0.30064796441E+02  0.00000000000E+00 0.  1.
</event>
<event>
 5    1  0.1250806E-009  0.9118800E+02  0.7561462E-02  0.1125453E+00
         25   -1    0    0    0    0  0.00000000000E+00  0.00000000000E+00  0.99999998245E-14  0.12509000000E+03  0.12509000000E+03 0.  0.
        -13    1    3    3    0    0  0.22970937325E+02  0.46096698995E+02  0.17100367032E+02  0.54267884945E+02  0.10566000000E+00 0.  1.
         23    2    1    0    0    0 -0.10009648110E+02  0.23570170164E+02  0.17261556261E+02  0.94207848174E+02  0.89002310960E+02 0.  0.
         13    1    3    3    0    0 -0.32980585434E+02 -0.22526528830E+02  0.16118922907E+00  0.39939963229E+02  0.10566000000E+00 0. -1.
         22    1    1    0    0    0  0.10009648110E+02 -0.23570170164E+02 -0.17261556261E+02  0.30882151826E+02  0.00000000000E+00 0.  1.
</event>
<event>
 5    1  0.1250806E-009  0.9118800E+02  0.7561462E-02  0.1125453E+00
         25   -1    0    0    0    0  0.00000000000E+00  0.00000000000E+00  0.99999998245E-14  0.12509000000E+03  0.12509000000E+03 0.  0.
        -13    1    3    3    0    0 -0.32480402687E+02 -0.24166675961E+01 -0.46430764801E+02  0.56715464602E+02  0.10566000000E+00 0.  1.
         23    2    1    0    0    0  0.10295855462E+01 -0.30731662289E+01 -0.31527925081E+02  0.93395923945E+02  0.87853765727E+02 0.  0.
         13    1    3    3    0    0  0.33509988233E+02 -0.65649863275E+00  0.14902839720E+02  0.36680459343E+02  0.10566000000E+00 0. -1.
         22    1    1    0    0    0 -0.10295855462E+01  0.30731662289E+01  0.31527925081E+02  0.31694076055E+02  0.00000000000E+00 0.  1.
</event>
<event>
 5    1  0.1250806E-009  0.9118800E+02  0.7561462E-02  0.1125453E+00
         25   -1    0    0    0    0  0.00000000000E+00  0.00000000000E+00  0.99999998245E-14  0.12509000000E+03  0.12509000000E+03 0.  0.
        -13    1    3    3    0    0 -0.37740428386E+02  0.64439164392E+01 -0.35398922739E+02  0.52143637090E+02  0.10566000000E+00 0.  1.
         23    2    1    0    0    0 -0.29442885360E+02  0.78154697574E+00  0.62448260158E+01  0.94981991664E+02  0.90083775312E+02 0.  0.
         13    1    3    3    0    0  0.82975430256E+01 -0.56623694635E+01  0.41643748755E+02  0.42838354574E+02  0.10566000000E+00 0. -1.
         22    1    1    0    0    0  0.29442885360E+02 -0.78154697574E+00 -0.62448260158E+01  0.30108008336E+02  0.00000000000E+00 0.  1.
</event>
<event>
 5    1  0.1250806E-009  0.9118800E+02  0.7561462E-02  0.1125453E+00
         25   -1    0    0    0    0  0.00000000000E+00  0.00000000000E+00  0.99999998245E-14  0.12509000000E+03  0.12509000000E+03 0.  0.
        -13    1    3    3    0    0  0.60982078953E+02  0.86769589198E+01 -0.78969002091E+01  0.62100529519E+02  0.10566000000E+00 0. -1.
         23    2    1    0    0    0  0.35006032352E+02  0.14116852675E+01 -0.83368113765E+01  0.89077258085E+02  0.81472942304E+02 0.  0.
         13    1    3    3    0    0 -0.25976046601E+02 -0.72652736523E+01 -0.43991116740E+00  0.26976728566E+02  0.10566000000E+00 0.  1.
         22    1    1    0    0    0 -0.35006032352E+02 -0.14116852675E+01  0.83368113765E+01  0.36012741915E+02  0.00000000000E+00 0. -1.
</event>
<event>
 5    1  0.1250806E-009  0.9118800E+02  0.7561462E-02  0.1125453E+00
         25   -1    0    0    0    0  0.00000000000E+00  0.00000000000E+00  0.99999998245E-14  0.12509000000E+03  0.12509000000E+03 0.  0.
        -13    1    3    3    0    0 -0.80491502850E+01 -0.38544859433E+02  0.41672338743E+02  0.57333149132E+02  0.10566000000E+00 0. -1.
         23    2    1    0    0    0  0.13740708006E+02 -0.21797054100E+02  0.17412461814E+02  0.93991568362E+02  0.88697815490E+02 0.  0.
         13    1    3    3    0    0  0.21789858291E+02  0.16747805333E+02 -0.24259876929E+02  0.36658419230E+02  0.10566000000E+00 0.  1.
         22    1    1    0    0    0 -0.13740708006E+02  0.21797054100E+02 -0.17412461814E+02  0.31098431638E+02  0.00000000000E+00 0. -1.
</event>
<event>
 5    1  0.1250806E-009  0.9118800E+02  0.7561462E-02  0.1125453E+00
         25   -1    0    0    0    0  0.00000000000E+00  0.00000000000E+00  0.99999998245E-14  0.12509000000E+03  0.12509000000E+03 0.  0.
        -13    1    3    3    0    0  0.44088671357E+02  0.24450438745E+02  0.22433693029E+02  0.55180763349E+02  0.10566000000E+00 0.  1.
         23    2    1    0    0    0  0.40364180528E+01  0.23724629086E+02  0.17042905430E+02  0.95600827047E+02  0.90939027984E+02 0.  0.
         13    1    3    3    0    0 -0.40052253304E+02 -0.72580965939E+00 -0.53907875998E+01  0.40420063698E+02  0.10566000000E+00 0. -1.
         22    1    1    0    0    0 -0.40364180528E+01 -0.23724629086E+02 -0.17042905430E+02  0.29489172953E+02  0.00000000000E+00 0.  1.
</event>
<event>
 5    1  0.1250806E-009  0.9118800E+02  0.7561462E-02  0.1125453E+00
         25   -1    0    0    0    0  0.00000000000E+00  0.00000000000E+00  0.99999998245E-14  0.12509000000E+03  0.12509000000E+03 0.  0.
        -13    1    3    3    0    0  0.34530474894E+01  0.11125019582E+02  0.56291404587E+02  0.57484110779E+02  0.10566000000E+00 0.  1.
         23    2    1    0    0    0  0.95889355103E+01  0.19731617318E+02  0.19587183184E+02  0.95680101134E+02  0.91048007126E+02 0.  0.
         13    1    3    3    0    0  0.61358880209E+01  0.86065977361E+01 -0.36704221402E+02  0.38195990355E+02  0.10566000000E+00 0. -1.
         22    1    1    0    0    0 -0.95889355103E+01 -0.19731617318E+02 -0.19587183184E+02  0.29409898866E+02  0.00000000000E+00 0.  1.
</event>
<event>
 5    1  0.1250806E-009  0.9118800E+02  0.7561462E-02  0.1125453E+00
         25   -1    0    0    0    0  0.00000000000E+00  0.00000000000E+00  0.99999998245E-14  0.12509000000E+03  0.12509000000E+03 0.  0.
        -13    1    3    3    0    0 -0.25996564063E+02  0.50511373663E+02 -0.23299867076E+02  0.61401263686E+02  0.10566000000E+00 0. -1.
         23    2    1    0    0    0 -0.77915701634E+01  0.13467257571E+02 -0.14948962016E+02  0.10351346048E+03  0.10123976217E+03 0.  0.
         13    1    3    3    0    0  0.18204993900E+02 -0.37044116092E+02  0.83509050602E+01  0.42112196799E+02  0.10566000000E+00 0.  1.
         22    1    1    0    0    0  0.77915701634E+01 -0.13467257571E+02  0.14948962016E+02  0.21576539515E+02  0.00000000000E+00 0. -1.
</event>
<event>
 5    1  0.1250806E-009  0.9118800E+02  0.7561462E-02  0.1125453E+00
         25   -1    0    0    0    0  0.00000000000E+00  0.00000000000E+00  0.99999998245E-14  0.12509000000E+03  0.12509000000E+03 0.  0.
        -13    1    3    3    0    0  0.26446852380E+02 -0.29448968356E+02 -0.70753470758E+01  0.40208822891E+02  0.10566000000E+00 0.  1.
         23    2    1    0    0    0 -0.22906414631E+02 -0.11658994865E+02  0.12883509084E+02  0.96338986125E+02  0.91948787098E+02 0.  0.
         13    1    3    3    0    0 -0.49353267010E+02  0.17789973491E+02  0.19958856160E+02  0.56130163234E+02  0.10566000000E+00 0. -1.
         22    1    1    0    0    0  0.22906414631E+02  0.11658994865E+02 -0.12883509084E+02  0.28751013875E+02  0.00000000000E+00 0. -1.
</event>
<event>
 5    1  0.1250806E-009  0.9118800E+02  0.7561462E-02  0.1125453E+00
         25   -1    0    0    0    0  0.00000000000E+00  0.00000000000E+00  0.99999998245E-14  0.12509000000E+03  0.12509000000E+03 0.  0.
        -13    1    3    3    0    0 -0.25267273423E+02 -0.40087297328E+02  0.25536659861E+02  0.53828976158E+02  0.10566000000E+00 0.  1.
         23    2    1    0    0    0 -0.59862376303E+01  0.68310680255E-01  0.26033953016E+02  0.98376587321E+02  0.94680232974E+02 0.  0.
         13    1    3    3    0    0  0.19281035793E+02  0.40155608009E+02  0.49729315513E+00  0.44547611163E+02  0.10566000000E+00 0. -1.
         22    1    1    0    0    0  0.59862376303E+01 -0.68310680255E-01 -0.26033953016E+02  0.26713412679E+02  0.00000000000E+00 0.  1.
</event>
<event>
 5    1  0.1250806E-009  0.9118800E+02  0.7561462E-02  0.1125453E+00
         25   -1    0    0    0    0  0.00000000000E+00  0.00000000000E+00  0.99999998245E-14  0.12509000000E+03  0.12509000000E+03 0.  0.
        -13    1    3    3    0    0 -0.63938853379E+00 -0.14290747601E+02 -0.39340854022E+02  0.41861058801E+02  0.10566000000E+00 0. -1.
         23    2    1    0    0    0 -0.27288689507E+02  0.10679656124E+02  0.33246831576E+00  0.95784059218E+02  0.91190722308E+02 0.  0.
         13    1    3    3    0    0 -0.26649300973E+02  0.24970403725E+02  0.39673322338E+02  0.53923000417E+02  0.10566000000E+00 0.  1.
         22    1    1    0    0    0  0.27288689507E+02 -0.10679656124E+02 -0.33246831576E+00  0.29305940782E+02  0.00000000000E+00 0.  1.
</event>
<event>
 5    1  0.1250806E-009  0.9118800E+02  0.7561462E-02  0.1125453E+00
         25   -1    0    0    0    0  0.00000000000E+00  0.00000000000E+00  0.99999998245E-14  0.12509000000E+03  0.12509000000E+03 0.  0.
        -13    1    3    3    0    0  0.11920756868E+01 -0.52374388482E+02  0.27968603591E+02  0.59386459434E+02  0.10566000000E+00 0.  1.
         23    2    1    0    0    0  0.83725613576E+00 -0.35744069823E+02  0.32395436255E+01  0.89189663396E+02  0.81645342111E+02 0.  0.
         13    1    3    3    0    0 -0.35481955108E+00  0.16630318658E+02 -0.24729059965E+02  0.29803203962E+02  0.10566000000E+00 0. -1.
         22    1    1    0    0    0 -0.83725613576E+00  0.35744069823E+02 -0.32395436255E+01  0.35900336604E+02  0.00000000000E+00 0.  1.
</event>
<event>
 5    1  0.1250806E-009  0.9118800E+02  0.7561462E-02  0.1125453E+00
         25   -1    0    0    0    0  0.00000000000E+00  0.00000000000E+00  0.99999998245E-14  0.12509000000E+03  0.12509000000E+03 0.  0.
        -13    1    3    3    0    0 -0.35286400894E+02  0.15645062137E+02  0.28999662207E+02  0.48279287790E+02  0.10566000000E+00 0.  1.
         23    2    1    0    0    0  0.16002410593E+01  0.28373893273E+02  0.38411428413E+00  0.96668421319E+02  0.92395874072E+02 0.  0.
         13    1    3    3    0    0  0.36886641954E+02  0.12728831137E+02 -0.28615547923E+02  0.48389133529E+02  0.10566000000E+00 0. -1.
         22    1    1    0    0    0 -0.16002410593E+01 -0.28373893273E+02 -0.38411428413E+00  0.28421578681E+02  0.00000000000E+00 0.  1.
</event>
<event>
 5    1  0.1250806E-009  0.9118800E+02  0.7561462E-02  0.1125453E+00
         25   -1    0    0    0    0  0.00000000000E+00  0.00000000000E+00  0.99999998245E-14  0.12509000000E+03  0.12509000000E+03 0.  0.
        -13    1    3    3    0    0 -0.13308430452E+02  0.33962587798E+02 -0.10273719824E+02  0.37896334573E+02  0.10566000000E+00 0.  1.
         23    2    1    0    0    0 -0.14317946235E+02 -0.24269053601E+02 -0.59021905527E+01  0.96300654741E+02  0.91896625091E+02 0.  0.
         13    1    3    3    0    0 -0.10095157833E+01 -0.58231641399E+02  0.43715292713E+01  0.58404320168E+02  0.10566000000E+00 0. -1.
         22    1    1    0    0    0  0.14317946235E+02  0.24269053601E+02  0.59021905527E+01  0.28789345259E+02  0.00000000000E+00 0. -1.
</event>
<event>
 5    1  0.1250806E-009  0.9118800E+02  0.7561462E-02  0.1125453E+00
         25   -1    0    0    0    0  0.00000000000E+00  0.00000000000E+00  0.99999998245E-14  0.12509000000E+03  0.12509000000E+03 0.  0.
        -13    1    3    3    0    0 -0.20180072332E+02 -0.21912324753E+02 -0.45847781850E+02  0.54675548100E+02  0.10566000000E+00 0.  1.
         23    2    1    0    0    0  0.47547796842E+01 -0.27449803269E+02 -0.22520797352E+02  0.89267019349E+02  0.81763774380E+02 0.  0.
         13    1    3    3    0    0  0.24934852016E+02 -0.55374785155E+01  0.23326984498E+02  0.34591471249E+02  0.10566000000E+00 0. -1.
         22    1    1    0    0    0 -0.47547796842E+01  0.27449803269E+02  0.22520797352E+02  0.35822980651E+02  0.00000000000E+00 0.  1.
</event>
<event>
 5    1  0.1250806E-009  0.9118800E+02  0.7561462E-02  0.1125453E+00
         25   -1    0    0    0    0  0.00000000000E+00  0.00000000000E+00  0.99999998245E-14  0.12509000000E+03  0.12509000000E+03 0.  0.
        -13    1    3    3    0    0 -0.24232134991E+02 -0.28874987424E+02 -0.22740047787E+02  0.44023655032E+02  0.10566000000E+00 0.  1.
         23    2    1    0    0    0 -0.12227622122E+02 -0.98447644628E+01  0.24295601317E+02  0.96164053629E+02  0.91710494693E+02 0.  0.
         13    1    3    3    0    0  0.12004512869E+02  0.19030222961E+02  0.47035649105E+02  0.52140398597E+02  0.10566000000E+00 0. -1.
         22    1    1    0    0    0  0.12227622122E+02  0.98447644628E+01 -0.24295601317E+02  0.28925946371E+02  0.00000000000E+00 0. -1.
</event>
<event>
 5    1  0.1250806E-009  0.9118800E+02  0.7561462E-02  0.1125453E+00
         25   -1    0    0    0    0  0.00000000000E+00  0.00000000000E+00  0.99999998245E-14  0.12509000000E+03  0.12509000000E+03 0.  0.
        -13    1    3    3    0    0 -0.23939587043E+00  0.42423707986E+02 -0.21832766745E+02  0.47712777926E+02  0.10566000000E+00 0.  1.
         23    2    1    0    0    0  0.23969963184E+02  0.13391182171E+02  0.86809740011E+01  0.96293434153E+02  0.91886795876E+02 0.  0.
         13    1    3    3    0    0  0.24209359055E+02 -0.29032525815E+02  0.30513740746E+02  0.48580656227E+02  0.10566000000E+00 0. -1.
         22    1    1    0    0    0 -0.23969963184E+02 -0.13391182171E+02 -0.86809740011E+01  0.28796565847E+02  0.00000000000E+00 0.  1.
</event>
<event>
 5    1  0.1250806E-009  0.9118800E+02  0.7561462E-02  0.1125453E+00
         25   -1    0    0    0    0  0.00000000000E+00  0.00000000000E+00  0.99999998245E-14  0.12509000000E+03  0.12509000000E+03 0.  0.
        -13    1    3    3    0    0 -0.15944416701E+02 -0.15003709169E+01 -0.16615927221E+02  0.23077602524E+02  0.10566000000E+00 0. -1.
         23    2    1    0    0    0  0.30839656319E+02  0.43623623898E+01  0.24362917210E+02  0.85546778805E+02  0.75858981152E+02 0.  0.
         13    1    3    3    0    0  0.46784073020E+02  0.58627333067E+01  0.40978844431E+02  0.62469176280E+02  0.10566000000E+00 0.  1.
         22    1    1    0    0    0 -0.30839656319E+02 -0.43623623898E+01 -0.24362917210E+02  0.39543221195E+02  0.00000000000E+00 0.  1.
</event>
<event>
 5    1  0.1250806E-009  0.9118800E+02  0.7561462E-02  0.1125453E+00
         25   -1    0    0    0    0  0.00000000000E+00  0.00000000000E+00  0.99999998245E-14  0.12509000000E+03  0.12509000000E+03 0.  0.
        -13    1    3    3    0    0  0.32527472287E+02  0.19021988198E+02  0.13914390149E+02  0.40168319677E+02  0.10566000000E+00 0.  1.
         23    2    1    0    0    0  0.87781090653E+01 -0.28657490097E+02  0.43201124651E+00  0.95115117662E+02  0.90268444302E+02 0.  0.
         13    1    3    3    0    0 -0.23749363222E+02 -0.47679478295E+02 -0.13482378903E+02  0.54946797985E+02  0.10566000000E+00 0. -1.
         22    1    1    0    0    0 -0.87781090653E+01  0.28657490097E+02 -0.43201124651E+00  0.29974882338E+02  0.00000000000E+00 0. -1.
</event>
<event>
 5    1  0.1250806E-009  0.9118800E+02  0.7561462E-02  0.1125453E+00
         25   -1    0    0    0    0  0.00000000000E+00  0.00000000000E+00  0.99999998245E-14  0.12509000000E+03  0.12509000000E+03 0.  0.
        -13    1    3    3    0    0 -0.15421788427E+02 -0.52061451679E+02  0.19855438368E+02  0.57814149704E+02  0.10566000000E+00 0.  1.
         23    2    1    0    0    0 -0.18917645556E+02 -0.16984825986E+02 -0.24808978030E+01  0.99545597852E+02  0.96212315068E+02 0.  0.
         13    1    3    3    0    0 -0.34958571287E+01  0.35076625692E+02 -0.22336336171E+02  0.41731448149E+02  0.10566000000E+00 0. -1.
         22    1    1    0    0    0  0.18917645556E+02  0.16984825986E+02  0.24808978030E+01  0.25544402148E+02  0.00000000000E+00 0.  1.
</event>
<event>
 5    1  0.1250806E-009  0.9118800E+02  0.7561462E-02  0.1125453E+00
         25   -1    0    0    0    0  0.00000000000E+00  0.00000000000E+00  0.99999998245E-14  0.12509000000E+03  0.12509000000E+03 0.  0.
        -13    1    3    3    0    0 -0.45397681418E+02 -0.12991606121E+02 -0.46782067839E+01  0.47451323380E+02  0.10566000000E+00 0. -1.
         23    2    1    0    0    0 -0.15915600365E+02  0.15823174075E+02  0.19599410324E+02  0.95293757656E+02  0.90515657156E+02 0.  0.
         13    1    3    3    0    0  0.29482081054E+02  0.28814780196E+02  0.24277617108E+02  0.47842434276E+02  0.10566000000E+00 0.  1.
         22    1    1    0    0    0  0.15915600365E+02 -0.15823174075E+02 -0.19599410324E+02  0.29796242344E+02  0.00000000000E+00 0.  1.
</event>
<event>
 5    1  0.1250806E-009  0.9118800E+02  0.7561462E-02  0.1125453E+00
         25   -1    0    0    0    0  0.00000000000E+00  0.00000000000E+00  0.99999998245E-14  0.12509000000E+03  0.12509000000E+03 0.  0.
        -13    1    3    3    0    0 -0.10072567873E+02 -0.91300869669E+01  0.40870782937E+02  0.43072580298E+02  0.10566000000E+00 0.  1.
         23    2    1    0    0    0 -0.30341931721E+02  0.93841420881E+01 -0.11994240791E+01  0.93307401594E+02  0.87727633222E+02 0.  0.
         13    1    3    3    0    0 -0.20269363848E+02  0.18514229055E+02 -0.42070207016E+02  0.50234821297E+02  0.10566000000E+00 0. -1.
         22    1    1    0    0    0  0.30341931721E+02 -0.93841420881E+01  0.11994240791E+01  0.31782598406E+02  0.00000000000E+00 0. -1.
</event>
<event>
 5    1  0.1250806E-009  0.9118800E+02  0.7561462E-02  0.1125453E+00
         25   -1    0    0    0    0  0.00000000000E+00  0.00000000000E+00  0.99999998245E-14  0.12509000000E+03  0.12509000000E+03 0.  0.
        -13    1    3    3    0    0  0.28521335194E+02  0.17593875397E+02 -0.46280209795E+01  0.33829584019E+02  0.10566000000E+00 0. -1.
         23    2    1    0    0    0 -0.12444016652E+02 -0.24707516903E+02  0.11875203057E+02  0.94984595343E+02  0.90087390698E+02 0.  0.
         13    1    3    3    0    0 -0.40965351846E+02 -0.42301392299E+02  0.16503224036E+02  0.61155011323E+02  0.10566000000E+00 0.  1.
         22    1    1    0    0    0  0.12444016652E+02  0.24707516903E+02 -0.11875203057E+02  0.30105404657E+02  0.00000000000E+00 0.  1.
</event>
<event>
 5    1  0.1250806E-009  0.9118800E+02  0.7561462E-02  0.1125453E+00
         25   -1    0    0    0    0  0.00000000000E+00  0.00000000000E+00  0.99999998245E-14  0.12509000000E+03  0.12509000000E+03 0.  0.
        -13    1    3    3    0    0  0.57406988541E+01  0.54445604858E+02 -0.84482132169E+01  0.55395514099E+02  0.10566000000E+00 0. -1.
         23    2    1    0    0    0  0.16125207560E+02  0.17085594158E+02 -0.18190872117E+02  0.95377247267E+02  0.90630963921E+02 0.  0.
         13    1    3    3    0    0  0.10384508706E+02 -0.37360010701E+02 -0.97426589004E+01  0.39981733168E+02  0.10566000000E+00 0.  1.
         22    1    1    0    0    0 -0.16125207560E+02 -0.17085594158E+02  0.18190872117E+02  0.29712752733E+02  0.00000000000E+00 0. -1.
</event>
<event>
 5    1  0.1250806E-009  0.9118800E+02  0.7561462E-02  0.1125453E+00
         25   -1    0    0    0    0  0.00000000000E+00  0.00000000000E+00  0.99999998245E-14  0.12509000000E+03  0.12509000000E+03 0.  0.
        -13    1    3    3    0    0 -0.13788248780E+02  0.11323721647E+02  0.38864064221E+02  0.42764110281E+02  0.10566000000E+00 0.  1.
         23    2    1    0    0    0  0.42827261412E+01 -0.28117258316E+02  0.96980739383E+01  0.95040464288E+02  0.90164933625E+02 0.  0.
         13    1    3    3    0    0  0.18070974921E+02 -0.39440979963E+02 -0.29165990282E+02  0.52276354007E+02  0.10566000000E+00 0. -1.
         22    1    1    0    0    0 -0.42827261412E+01  0.28117258316E+02 -0.96980739383E+01  0.30049535712E+02  0.00000000000E+00 0. -1.
</event>
<event>
 5    1  0.1250806E-009  0.9118800E+02  0.7561462E-02  0.1125453E+00
         25   -1    0    0    0    0  0.00000000000E+00  0.00000000000E+00  0.99999998245E-14  0.12509000000E+03  0.12509000000E+03 0.  0.
        -13    1    3    3    0    0  0.49822903151E+02 -0.79916869779E+00 -0.11559638447E+02  0.51152680810E+02  0.10566000000E+00 0. -1.
         23    2    1    0    0    0  0.23134008511E+02  0.12997779680E+02  0.17781695905E+02  0.93147656071E+02  0.87499557118E+02 0.  0.
         13    1    3    3    0    0 -0.26688894639E+02  0.13796948378E+02  0.29341334352E+02  0.41994975261E+02  0.10566000000E+00 0.  1.
         22    1    1    0    0    0 -0.23134008511E+02 -0.12997779680E+02 -0.17781695905E+02  0.31942343929E+02  0.00000000000E+00 0. -1.
</event>
<event>
 5    1  0.1250806E-009  0.9118800E+02  0.7561462E-02  0.1125453E+00
         25   -1    0    0    0    0  0.00000000000E+00  0.00000000000E+00  0.99999998245E-14  0.12509000000E+03  0.12509000000E+03 0.  0.
        -13    1    3    3    0    0 -0.21036543693E+02  0.37992160040E+02 -0.15388645029E+02  0.46073440884E+02  0.10566000000E+00 0. -1.
         23    2    1    0    0    0 -0.22092216029E+02  0.59375605855E+01  0.20618553249E+02  0.94293159694E+02  0.89122133009E+02 0.  0.
         13    1    3    3    0    0 -0.10556723360E+01 -0.32054599454E+02  0.36007198278E+02  0.48219718810E+02  0.10566000000E+00 0.  1.
         22    1    1    0    0    0  0.22092216029E+02 -0.59375605855E+01 -0.20618553249E+02  0.30796840306E+02  0.00000000000E+00 0.  1.
</event>
<event>
 5    1  0.1250806E-009  0.9118800E+02  0.7561462E-02  0.1125453E+00
         25   -1    0    0    0    0  0.00000000000E+00  0.00000000000E+00  0.99999998245E-14  0.12509000000E+03  0.12509000000E+03 0.  0.
        -13    1    3    3    0    0  0.33010061654E+01  0.93814808084E+01  0.43486840564E+02  0.44609699507E+02  0.10566000000E+00 0.  1.
         23    2    1    0    0    0 -0.16520553012E+02  0.22508412488E+02 -0.31854073527E+01  0.96988325236E+02  0.92827965116E+02 0.  0.
         13    1    3    3    0    0 -0.19821559177E+02  0.13126931679E+02 -0.46672247917E+02  0.52378625728E+02  0.10566000000E+00 0. -1.
         22    1    1    0    0    0  0.16520553012E+02 -0.22508412488E+02  0.31854073527E+01  0.28101674764E+02  0.00000000000E+00 0.  1.
</event>
<event>
 5    1  0.1250806E-009  0.9118800E+02  0.7561462E-02  0.1125453E+00
         25   -1    0    0    0    0  0.00000000000E+00  0.00000000000E+00  0.99999998245E-14  0.12509000000E+03  0.12509000000E+03 0.  0.
        -13    1    3    3    0    0 -0.27098731827E+02 -0.29071228576E+02  0.47007042827E+02  0.61556078797E+02  0.10566000000E+00 0.  1.
         23    2    1    0    0    0 -0.94901876942E+01 -0.21326083412E+02  0.22994120832E+02  0.92324239075E+02  0.86314367470E+02 0.  0.
         13    1    3    3    0    0  0.17608544133E+02  0.77451451637E+01 -0.24012921995E+02  0.30768160277E+02  0.10566000000E+00 0. -1.
         22    1    1    0    0    0  0.94901876942E+01  0.21326083412E+02 -0.22994120832E+02  0.32765760925E+02  0.00000000000E+00 0.  1.
</event>
<event>
 5    1  0.1250806E-009  0.9118800E+02  0.7561462E-02  0.1125453E+00
         25   -1    0    0    0    0  0.00000000000E+00  0.00000000000E+00  0.99999998245E-14  0.12509000000E+03  0.12509000000E+03 0.  0.
        -13    1    3    3    0    0  0.29881267222E+02 -0.45817670619E+00  0.15716761464E+02  0.33765778706E+02  0.10566000000E+00 0. -1.
         23    2    1    0    0    0 -0.25147170013E+02 -0.75277423105E+01 -0.12507151163E+02  0.96012931816E+02  0.91504137512E+02 0.  0.
         13    1    3    3    0    0 -0.55028437234E+02 -0.70695656043E+01 -0.28223912628E+02  0.62247153110E+02  0.10566000000E+00 0.  1.
         22    1    1    0    0    0  0.25147170013E+02  0.75277423105E+01  0.12507151163E+02  0.29077068184E+02  0.00000000000E+00 0.  1.
</event>
<event>
 5    1  0.1250806E-009  0.9118800E+02  0.7561462E-02  0.1125453E+00
         25   -1    0    0    0    0  0.00000000000E+00  0.00000000000E+00  0.99999998245E-14  0.12509000000E+03  0.12509000000E+03 0.  0.
        -13    1    3    3    0    0 -0.25295667733E+02 -0.38173804680E+02  0.36040134456E+02  0.58275317463E+02  0.10566000000E+00 0.  1.
         23    2    1    0    0    0  0.39244020357E+01 -0.22354283129E+02  0.18254848100E+02  0.95963476268E+02  0.91436504706E+02 0.  0.
         13    1    3    3    0    0  0.29220069768E+02  0.15819521551E+02 -0.17785286355E+02  0.37688158805E+02  0.10566000000E+00 0. -1.
         22    1    1    0    0    0 -0.39244020357E+01  0.22354283129E+02 -0.18254848100E+02  0.29126523732E+02  0.00000000000E+00 0.  1.
</event>
<event>
 5    1  0.1250806E-009  0.9118800E+02  0.7561462E-02  0.1125453E+00
         25   -1    0    0    0    0  0.00000000000E+00  0.00000000000E+00  0.99999998245E-14  0.12509000000E+03  0.12509000000E+03 0.  0.
        -13    1    3    3    0    0  0.18392163626E+02 -0.22212150728E+01  0.36756833784E+02  0.41161650515E+02  0.10566000000E+00 0.  1.
         23    2    1    0    0    0 -0.38818090029E+01 -0.29983012655E+02 -0.32180773726E+01  0.94685962259E+02  0.89671767786E+02 0.  0.
         13    1    3    3    0    0 -0.22273972629E+02 -0.27761797582E+02 -0.39974911157E+02  0.53524311744E+02  0.10566000000E+00 0. -1.
         22    1    1    0    0    0  0.38818090029E+01  0.29983012655E+02  0.32180773726E+01  0.30404037741E+02  0.00000000000E+00 0. -1.
</event>
<event>
 5    1  0.1250806E-009  0.9118800E+02  0.7561462E-02  0.1125453E+00
         25   -1    0    0    0    0  0.00000000000E+00  0.00000000000E+00  0.99999998245E-14  0.12509000000E+03  0.12509000000E+03 0.  0.
        -13    1    3    3    0    0 -0.10180311853E+02 -0.11408731515E+01 -0.34359512517E+02  0.35854255053E+02  0.10566000000E+00 0. -1.
         23    2    1    0    0    0  0.26403167040E+02 -0.62131109812E+01  0.12253926889E+02  0.95326117491E+02  0.90560366463E+02 0.  0.
         13    1    3    3    0    0  0.36583478894E+02 -0.50722378297E+01  0.46613439406E+02  0.59471862438E+02  0.10566000000E+00 0.  1.
         22    1    1    0    0    0 -0.26403167040E+02  0.62131109812E+01 -0.12253926889E+02  0.29763882509E+02  0.00000000000E+00 0.  1.
</event>
<event>
 5    1  0.1250806E-009  0.9118800E+02  0.7561462E-02  0.1125453E+00
         25   -1    0    0    0    0  0.00000000000E+00  0.00000000000E+00  0.99999998245E-14  0.12509000000E+03  0.12509000000E+03 0.  0.
        -13    1    3    3    0    0 -0.38871322565E+02 -0.24622475177E+02 -0.19817152744E+02  0.50099667751E+02  0.10566000000E+00 0. -1.
         23    2    1    0    0    0  0.93603248850E+01 -0.20411019423E+02 -0.13406127725E+02  0.98937568824E+02  0.95418514285E+02 0.  0.
         13    1    3    3    0    0  0.48231647450E+02  0.42114557538E+01  0.64110250189E+01  0.48837901073E+02  0.10566000000E+00 0.  1.
         22    1    1    0    0    0 -0.93603248850E+01  0.20411019423E+02  0.13406127725E+02  0.26152431176E+02  0.00000000000E+00 0. -1.
</event>
<event>
 5    1  0.1250806E-009  0.9118800E+02  0.7561462E-02  0.1125453E+00
         25   -1    0    0    0    0  0.00000000000E+00  0.00000000000E+00  0.99999998245E-14  0.12509000000E+03  0.12509000000E+03 0.  0.
        -13    1    3    3    0    0  0.54440662554E+00 -0.50099026615E+02  0.36102038158E+02  0.61754167224E+02  0.10566000000E+00 0.  1.
         23    2    1    0    0    0 -0.25097320984E+01 -0.19079811183E+02  0.21688039068E+02  0.96095017872E+02  0.91616283876E+02 0.  0.
         13    1    3    3    0    0 -0.30541387240E+01  0.31019215433E+02 -0.14413999090E+02  0.34340850648E+02  0.10566000000E+00 0. -1.
         22    1    1    0    0    0  0.25097320984E+01  0.19079811183E+02 -0.21688039068E+02  0.28994982128E+02  0.00000000000E+00 0.  1.
</event>
<event>
 5    1  0.1250806E-009  0.9118800E+02  0.7561462E-02  0.1125453E+00
         25   -1    0    0    0    0  0.00000000000E+00  0.00000000000E+00  0.99999998245E-14  0.12509000000E+03  0.12509000000E+03 0.  0.
        -13    1    3    3    0    0 -0.13294445897E+02  0.17595694706E+02 -0.37260522253E+02  0.43297903489E+02  0.10566000000E+00 0.  1.
         23    2    1    0    0    0  0.19690671040E+02 -0.15680510510E+02 -0.18864053313E+02  0.93634421111E+02  0.88192694559E+02 0.  0.
         13    1    3    3    0    0  0.32985116937E+02 -0.33276205215E+02  0.18396468940E+02  0.50336517622E+02  0.10566000000E+00 0. -1.
         22    1    1    0    0    0 -0.19690671040E+02  0.15680510510E+02  0.18864053313E+02  0.31455578889E+02  0.00000000000E+00 0.  1.
</event>
<event>
 5    1  0.1250806E-009  0.9118800E+02  0.7561462E-02  0.1125453E+00
         25   -1    0    0    0    0  0.00000000000E+00  0.00000000000E+00  0.99999998245E-14  0.12509000000E+03  0.12509000000E+03 0.  0.
        -13    1    3    3    0    0  0.14508214663E+02  0.63340267654E+01  0.11684650923E+02  0.19676138315E+02  0.10566000000E+00 0.  1.
         23    2    1    0    0    0  0.37182605067E+01 -0.35771228930E+02 -0.28754111074E+02  0.79044314165E+02  0.64247944853E+02 0.  0.
         13    1    3    3    0    0 -0.10789954156E+02 -0.42105255696E+02 -0.40438761997E+02  0.59368175850E+02  0.10566000000E+00 0. -1.
         22    1    1    0    0    0 -0.37182605067E+01  0.35771228930E+02  0.28754111074E+02  0.46045685835E+02  0.00000000000E+00 0. -1.
</event>
<event>
 5    1  0.1250806E-009  0.9118800E+02  0.7561462E-02  0.1125453E+00
         25   -1    0    0    0    0  0.00000000000E+00  0.00000000000E+00  0.99999998245E-14  0.12509000000E+03  0.12509000000E+03 0.  0.
        -13    1    3    3    0    0  0.39516792611E+02  0.40279363663E+01 -0.11958532315E+02  0.41482753390E+02  0.10566000000E+00 0.  1.
         23    2    1    0    0    0  0.35329328367E+01  0.11584155399E+02  0.27271531344E+02  0.95250249790E+02  0.90455510570E+02 0.  0.
         13    1    3    3    0    0 -0.35983859774E+02  0.75562190324E+01  0.39230063660E+02  0.53767496400E+02  0.10566000000E+00 0. -1.
         22    1    1    0    0    0 -0.35329328367E+01 -0.11584155399E+02 -0.27271531344E+02  0.29839750210E+02  0.00000000000E+00 0. -1.
</event>
<event>
 5    1  0.1250806E-009  0.9118800E+02  0.7561462E-02  0.1125453E+00
         25   -1    0    0    0    0  0.00000000000E+00  0.00000000000E+00  0.99999998245E-14  0.12509000000E+03  0.12509000000E+03 0.  0.
        -13    1    3    3    0    0 -0.10241240779E+02 -0.30629109139E+02  0.49837578415E+02  0.59387041732E+02  0.10566000000E+00 0.  1.
         23    2    1    0    0    0 -0.17110224111E+02 -0.76512777308E+01  0.23974362432E+02  0.94658570949E+02  0.89633549411E+02 0.  0.
         13    1    3    3    0    0 -0.68689833328E+01  0.22977831408E+02 -0.25863215984E+02  0.35271529217E+02  0.10566000000E+00 0. -1.
         22    1    1    0    0    0  0.17110224111E+02  0.76512777308E+01 -0.23974362432E+02  0.30431429051E+02  0.00000000000E+00 0.  1.
</event>
<event>
 5    1  0.1250806E-009  0.9118800E+02  0.7561462E-02  0.1125453E+00
         25   -1    0    0    0    0  0.00000000000E+00  0.00000000000E+00  0.99999998245E-14  0.12509000000E+03  0.12509000000E+03 0.  0.
        -13    1    3    3    0    0 -0.41458681717E+02 -0.27980681135E+02  0.26829621099E+02  0.56758968797E+02  0.10566000000E+00 0. -1.
         23    2    1    0    0    0 -0.57798205117E+01 -0.15456867925E+02  0.25649431496E+02  0.94590583165E+02  0.89538617347E+02 0.  0.
         13    1    3    3    0    0  0.35678861205E+02  0.12523813211E+02 -0.11801896036E+01  0.37831614369E+02  0.10566000000E+00 0.  1.
         22    1    1    0    0    0  0.57798205117E+01  0.15456867925E+02 -0.25649431496E+02  0.30499416835E+02  0.00000000000E+00 0. -1.
</event>
<event>
 5    1  0.1250806E-009  0.9118800E+02  0.7561462E-02  0.1125453E+00
         25   -1    0    0    0    0  0.00000000000E+00  0.00000000000E+00  0.99999998245E-14  0.12509000000E+03  0.12509000000E+03 0.  0.
        -13    1    3    3    0    0  0.13399444689E+02 -0.28693512612E+02 -0.18806254635E+02  0.36831361113E+02  0.10566000000E+00 0.  1.
         23    2    1    0    0    0  0.21750219512E+02  0.23926643259E+02 -0.20202120760E+01  0.92691889510E+02  0.86845545756E+02 0.  0.
         13    1    3    3    0    0  0.83507748231E+01  0.52620155871E+02  0.16786042559E+02  0.55860528398E+02  0.10566000000E+00 0. -1.
         22    1    1    0    0    0 -0.21750219512E+02 -0.23926643259E+02  0.20202120760E+01  0.32398110490E+02  0.00000000000E+00 0. -1.
</event>
<event>
 5    1  0.1250806E-009  0.9118800E+02  0.7561462E-02  0.1125453E+00
         25   -1    0    0    0    0  0.00000000000E+00  0.00000000000E+00  0.99999998245E-14  0.12509000000E+03  0.12509000000E+03 0.  0.
        -13    1    3    3    0    0 -0.26563733394E+02  0.29604238749E+02 -0.40438915965E+02  0.56721776878E+02  0.10566000000E+00 0.  1.
         23    2    1    0    0    0 -0.25270391182E+02  0.27204350729E+00 -0.14181604238E+02  0.96110963147E+02  0.91638052468E+02 0.  0.
         13    1    3    3    0    0  0.12933422122E+01 -0.29332195242E+02  0.26257311727E+02  0.39389186269E+02  0.10566000000E+00 0. -1.
         22    1    1    0    0    0  0.25270391182E+02 -0.27204350729E+00  0.14181604238E+02  0.28979036853E+02  0.00000000000E+00 0.  1.
</event>
<event>
 5    1  0.1250806E-009  0.9118800E+02  0.7561462E-02  0.1125453E+00
         25   -1    0    0    0    0  0.00000000000E+00  0.00000000000E+00  0.99999998245E-14  0.12509000000E+03  0.12509000000E+03 0.  0.
        -13    1    3    3    0    0 -0.26553623041E+02 -0.10333708463E+02 -0.54765426633E+02  0.61734459952E+02  0.10566000000E+00 0.  1.
         23    2    1    0    0    0 -0.12617072997E+02 -0.11828286792E+02 -0.24361252386E+02  0.95214098051E+02  0.90405502877E+02 0.  0.
         13    1    3    3    0    0  0.13936550045E+02 -0.14945783289E+01  0.30404174247E+02  0.33479638099E+02  0.10566000000E+00 0. -1.
         22    1    1    0    0    0  0.12617072997E+02  0.11828286792E+02  0.24361252386E+02  0.29875901949E+02  0.00000000000E+00 0.  1.
</event>
<event>
 5    1  0.1250806E-009  0.9118800E+02  0.7561462E-02  0.1125453E+00
         25   -1    0    0    0    0  0.00000000000E+00  0.00000000000E+00  0.99999998245E-14  0.12509000000E+03  0.12509000000E+03 0.  0.
        -13    1    3    3    0    0 -0.23672573544E+02 -0.26299605292E+02  0.13826417988E+02  0.37990011518E+02  0.10566000000E+00 0. -1.
         23    2    1    0    0    0 -0.16073588103E+02  0.26815531514E+02  0.11765074736E+02  0.91685659737E+02  0.85383899261E+02 0.  0.
         13    1    3    3    0    0  0.75989854415E+01  0.53115136806E+02 -0.20613432519E+01  0.53695648219E+02  0.10566000000E+00 0.  1.
         22    1    1    0    0    0  0.16073588103E+02 -0.26815531514E+02 -0.11765074736E+02  0.33404340263E+02  0.00000000000E+00 0.  1.
</event>
<event>
 5    1  0.1250806E-009  0.9118800E+02  0.7561462E-02  0.1125453E+00
         25   -1    0    0    0    0  0.00000000000E+00  0.00000000000E+00  0.99999998245E-14  0.12509000000E+03  0.12509000000E+03 0.  0.
        -13    1    3    3    0    0  0.20283280493E+02 -0.16746149094E+02 -0.22050238461E+02  0.34323012066E+02  0.10566000000E+00 0.  1.
         23    2    1    0    0    0 -0.16130006880E+02 -0.33128073040E+01  0.24899370406E+02  0.95238191666E+02  0.90438833977E+02 0.  0.
         13    1    3    3    0    0 -0.36413287373E+02  0.13433341790E+02  0.46949608867E+02  0.60915179601E+02  0.10566000000E+00 0. -1.
         22    1    1    0    0    0  0.16130006880E+02  0.33128073040E+01 -0.24899370406E+02  0.29851808334E+02  0.00000000000E+00 0. -1.
</event>
<event>
 5    1  0.1250806E-009  0.9118800E+02  0.7561462E-02  0.1125453E+00
         25   -1    0    0    0    0  0.00000000000E+00  0.00000000000E+00  0.99999998245E-14  0.12509000000E+03  0.12509000000E+03 0.  0.
        -13    1    3    3    0    0  0.15180671051E+02 -0.33924741411E+02 -0.24840887583E+02  0.44703710286E+02  0.10566000000E+00 0. -1.
         23    2    1    0    0    0  0.21771508925E+02  0.32060588217E+01  0.14133416331E+02  0.98936016150E+02  0.95416478768E+02 0.  0.
         13    1    3    3    0    0  0.65908378737E+01  0.37130800233E+02  0.38974303913E+02  0.54232305865E+02  0.10566000000E+00 0.  1.
         22    1    1    0    0    0 -0.21771508925E+02 -0.32060588217E+01 -0.14133416331E+02  0.26153983850E+02  0.00000000000E+00 0. -1.
</event>
<event>
 5    1  0.1250806E-009  0.9118800E+02  0.7561462E-02  0.1125453E+00
         25   -1    0    0    0    0  0.00000000000E+00  0.00000000000E+00  0.99999998245E-14  0.12509000000E+03  0.12509000000E+03 0.  0.
        -13    1    3    3    0    0 -0.42291287513E+01  0.86325488430E+01 -0.33364891229E+02  0.34722234379E+02  0.10566000000E+00 0.  1.
         23    2    1    0    0    0  0.17226329676E+02  0.93535110800E+01  0.22901610232E+02  0.94945044289E+02  0.90032455705E+02 0.  0.
         13    1    3    3    0    0  0.21455458427E+02  0.72096223706E+00  0.56266501460E+02  0.60222809910E+02  0.10566000000E+00 0. -1.
         22    1    1    0    0    0 -0.17226329676E+02 -0.93535110800E+01 -0.22901610232E+02  0.30144955711E+02  0.00000000000E+00 0. -1.
</event>
<event>
 5    1  0.1250806E-009  0.9118800E+02  0.7561462E-02  0.1125453E+00
         25   -1    0    0    0    0  0.00000000000E+00  0.00000000000E+00  0.99999998245E-14  0.12509000000E+03  0.12509000000E+03 0.  0.
        -13    1    3    3    0    0  0.27473186667E+02 -0.55711093941E+02  0.29743144274E+01  0.62188099215E+02  0.10566000000E+00 0. -1.
         23    2    1    0    0    0  0.12618696374E+02 -0.24546883899E+02 -0.33530794213E+01  0.97286688166E+02  0.93229156091E+02 0.  0.
         13    1    3    3    0    0 -0.14854490292E+02  0.31164210042E+02 -0.63273938488E+01  0.35098588951E+02  0.10566000000E+00 0.  1.
         22    1    1    0    0    0 -0.12618696374E+02  0.24546883899E+02  0.33530794213E+01  0.27803311834E+02  0.00000000000E+00 0. -1.
</event>
<event>
 5    1  0.1250806E-009  0.9118800E+02  0.7561462E-02  0.1125453E+00
         25   -1    0    0    0    0  0.00000000000E+00  0.00000000000E+00  0.99999998245E-14  0.12509000000E+03  0.12509000000E+03 0.  0.
        -13    1    3    3    0    0 -0.16487533550E+02  0.10399722627E+02 -0.31022064169E+02  0.36638403658E+02  0.10566000000E+00 0. -1.
         23    2    1    0    0    0  0.12296497027E+02 -0.27156045447E+02  0.33061956674E+01  0.95096907908E+02  0.90243206506E+02 0.  0.
         13    1    3    3    0    0  0.28784030576E+02 -0.37555768073E+02  0.34328259836E+02  0.58458504251E+02  0.10566000000E+00 0.  1.
         22    1    1    0    0    0 -0.12296497027E+02  0.27156045447E+02 -0.33061956674E+01  0.29993092092E+02  0.00000000000E+00 0.  1.
</event>
<event>
 5    1  0.1250806E-009  0.9118800E+02  0.7561462E-02  0.1125453E+00
         25   -1    0    0    0    0  0.00000000000E+00  0.00000000000E+00  0.99999998245E-14  0.12509000000E+03  0.12509000000E+03 0.  0.
        -13    1    3    3    0    0  0.10486086681E+02 -0.14418435813E+02  0.27459283833E+02  0.32739467586E+02  0.10566000000E+00 0. -1.
         23    2    1    0    0    0 -0.11400089697E+02 -0.13844309413E+02 -0.27703538583E+02  0.92088287950E+02  0.85971738259E+02 0.  0.
         13    1    3    3    0    0 -0.21886176378E+02  0.57412639956E+00 -0.55162822416E+02  0.59348820363E+02  0.10566000000E+00 0.  1.
         22    1    1    0    0    0  0.11400089697E+02  0.13844309413E+02  0.27703538583E+02  0.33001712050E+02  0.00000000000E+00 0. -1.
</event>
<event>
 5    1  0.1250806E-009  0.9118800E+02  0.7561462E-02  0.1125453E+00
         25   -1    0    0    0    0  0.00000000000E+00  0.00000000000E+00  0.99999998245E-14  0.12509000000E+03  0.12509000000E+03 0.  0.
        -13    1    3    3    0    0  0.73182291893E+01  0.26916861953E+02  0.36568305252E+02  0.45992673861E+02  0.10566000000E+00 0.  1.
         23    2    1    0    0    0  0.23076722735E+02  0.15253725590E+02 -0.93248889823E+01  0.95898137588E+02  0.91347074182E+02 0.  0.
         13    1    3    3    0    0  0.15758493546E+02 -0.11663136363E+02 -0.45893194235E+02  0.49905463726E+02  0.10566000000E+00 0. -1.
         22    1    1    0    0    0 -0.23076722735E+02 -0.15253725590E+02  0.93248889823E+01  0.29191862412E+02  0.00000000000E+00 0. -1.
</event>
<event>
 5    1  0.1250806E-009  0.9118800E+02  0.7561462E-02  0.1125453E+00
         25   -1    0    0    0    0  0.00000000000E+00  0.00000000000E+00  0.99999998245E-14  0.12509000000E+03  0.12509000000E+03 0.  0.
        -13    1    3    3    0    0  0.22081539479E+02 -0.36871026562E+02  0.38243163673E+02  0.57529277044E+02  0.10566000000E+00 0. -1.
         23    2    1    0    0    0  0.94359540076E+01 -0.26684264173E+02  0.26365193206E+01  0.96663983455E+02  0.92389865683E+02 0.  0.
         13    1    3    3    0    0 -0.12645585471E+02  0.10186762389E+02 -0.35606644352E+02  0.39134706412E+02  0.10566000000E+00 0.  1.
         22    1    1    0    0    0 -0.94359540076E+01  0.26684264173E+02 -0.26365193206E+01  0.28426016545E+02  0.00000000000E+00 0. -1.
</event>
<event>
 5    1  0.1250806E-009  0.9118800E+02  0.7561462E-02  0.1125453E+00
         25   -1    0    0    0    0  0.00000000000E+00  0.00000000000E+00  0.99999998245E-14  0.12509000000E+03  0.12509000000E+03 0.  0.
        -13    1    3    3    0    0  0.33493252135E+02  0.63213449995E+01 -0.49603564957E+02  0.60185398243E+02  0.10566000000E+00 0.  1.
         23    2    1    0    0    0  0.18479427749E+02  0.13740160038E+02 -0.18342452096E+02  0.95649775872E+02  0.91006333998E+02 0.  0.
         13    1    3    3    0    0 -0.15013824386E+02  0.74188150382E+01  0.31261112861E+02  0.35464377629E+02  0.10566000000E+00 0. -1.
         22    1    1    0    0    0 -0.18479427749E+02 -0.13740160038E+02  0.18342452096E+02  0.29440224128E+02  0.00000000000E+00 0.  1.
</event>
<event>
 5    1  0.1250806E-009  0.9118800E+02  0.7561462E-02  0.1125453E+00
         25   -1    0    0    0    0  0.00000000000E+00  0.00000000000E+00  0.99999998245E-14  0.12509000000E+03  0.12509000000E+03 0.  0.
        -13    1    3    3    0    0 -0.33108714692E+02  0.43757889605E+02 -0.29947196823E+01  0.54953793329E+02  0.10566000000E+00 0. -1.
         23    2    1    0    0    0 -0.22336970446E+02  0.97685876436E+01  0.16558536009E+02  0.95618816311E+02  0.90963769517E+02 0.  0.
         13    1    3    3    0    0  0.10771744247E+02 -0.33989301962E+02  0.19553255691E+02  0.40665022982E+02  0.10566000000E+00 0.  1.
         22    1    1    0    0    0  0.22336970446E+02 -0.97685876436E+01 -0.16558536009E+02  0.29471183689E+02  0.00000000000E+00 0. -1.
</event>
<event>
 5    1  0.1250806E-009  0.9118800E+02  0.7561462E-02  0.1125453E+00
         25   -1    0    0    0    0  0.00000000000E+00  0.00000000000E+00  0.99999998245E-14  0.12509000000E+03  0.12509000000E+03 0.  0.
        -13    1    3    3    0    0  0.31662854689E+02  0.26466504524E+02  0.39818866582E+02  0.57346015805E+02  0.10566000000E+00 0.  1.
         23    2    1    0    0    0  0.57093049749E+01  0.26868098291E+02  0.12890997405E+02  0.94747477310E+02  0.89757538811E+02 0.  0.
         13    1    3    3    0    0 -0.25953549714E+02  0.40159376676E+00 -0.26927869176E+02  0.37401461505E+02  0.10566000000E+00 0. -1.
         22    1    1    0    0    0 -0.57093049749E+01 -0.26868098291E+02 -0.12890997405E+02  0.30342522690E+02  0.00000000000E+00 0.  1.
</event>
<event>
 5    1  0.1250806E-009  0.9118800E+02  0.7561462E-02  0.1125453E+00
         25   -1    0    0    0    0  0.00000000000E+00  0.00000000000E+00  0.99999998245E-14  0.12509000000E+03  0.12509000000E+03 0.  0.
        -13    1    3    3    0    0  0.14237744521E+02 -0.45574264751E+02 -0.17811796655E+02  0.50960751964E+02  0.10566000000E+00 0.  1.
         23    2    1    0    0    0  0.17785139595E+02 -0.17698886724E+02  0.16309827613E+02  0.95163886680E+02  0.90336000961E+02 0.  0.
         13    1    3    3    0    0  0.35473950744E+01  0.27875378027E+02  0.34121624268E+02  0.44203134716E+02  0.10566000000E+00 0. -1.
         22    1    1    0    0    0 -0.17785139595E+02  0.17698886724E+02 -0.16309827613E+02  0.29926113320E+02  0.00000000000E+00 0.  1.
</event>
<event>
 5    1  0.1250806E-009  0.9118800E+02  0.7561462E-02  0.1125453E+00
         25   -1    0    0    0    0  0.00000000000E+00  0.00000000000E+00  0.99999998245E-14  0.12509000000E+03  0.12509000000E+03 0.  0.
        -13    1    3    3    0    0  0.55675459947E+01 -0.13054965234E+01 -0.56800994474E+02  0.57088230195E+02  0.10566000000E+00 0.  1.
         23    2    1    0    0    0  0.37997986781E+01 -0.18580485463E+02 -0.21558047074E+02  0.96377244931E+02  0.92000820848E+02 0.  0.
         13    1    3    3    0    0 -0.17677473166E+01 -0.17274988940E+02  0.35242947400E+02  0.39289014736E+02  0.10566000000E+00 0. -1.
         22    1    1    0    0    0 -0.37997986781E+01  0.18580485463E+02  0.21558047074E+02  0.28712755069E+02  0.00000000000E+00 0.  1.
</event>
<event>
 5    1  0.1250806E-009  0.9118800E+02  0.7561462E-02  0.1125453E+00
         25   -1    0    0    0    0  0.00000000000E+00  0.00000000000E+00  0.99999998245E-14  0.12509000000E+03  0.12509000000E+03 0.  0.
        -13    1    3    3    0    0 -0.37390274974E+02  0.50192675618E+01  0.13513516045E+01  0.37750006950E+02  0.10566000000E+00 0. -1.
         23    2    1    0    0    0  0.16745582172E+02  0.12932914474E+02  0.20416017030E+02  0.95687813849E+02  0.91058602936E+02 0.  0.
         13    1    3    3    0    0  0.54135857147E+02  0.79136469123E+01  0.19064665426E+02  0.57937806899E+02  0.10566000000E+00 0.  1.
         22    1    1    0    0    0 -0.16745582172E+02 -0.12932914474E+02 -0.20416017030E+02  0.29402186151E+02  0.00000000000E+00 0.  1.
</event>
<event>
 5    1  0.1250806E-009  0.9118800E+02  0.7561462E-02  0.1125453E+00
         25   -1    0    0    0    0  0.00000000000E+00  0.00000000000E+00  0.99999998245E-14  0.12509000000E+03  0.12509000000E+03 0.  0.
        -13    1    3    3    0    0 -0.28207892282E+02  0.37538613527E+02 -0.62368434284E+01  0.47368154624E+02  0.10566000000E+00 0.  1.
         23    2    1    0    0    0 -0.11909076093E+02 -0.16619657115E+02 -0.54446661065E+01  0.10393146780E+03  0.10175493361E+03 0.  0.
         13    1    3    3    0    0  0.16298816189E+02 -0.54158270642E+02  0.79217732195E+00  0.56563313172E+02  0.10566000000E+00 0. -1.
         22    1    1    0    0    0  0.11909076093E+02  0.16619657115E+02  0.54446661065E+01  0.21158532204E+02  0.00000000000E+00 0.  1.
</event>
<event>
 5    1  0.1250806E-009  0.9118800E+02  0.7561462E-02  0.1125453E+00
         25   -1    0    0    0    0  0.00000000000E+00  0.00000000000E+00  0.99999998245E-14  0.12509000000E+03  0.12509000000E+03 0.  0.
        -13    1    3    3    0    0  0.15281264341E+02 -0.49678021868E+02  0.21834631208E+01  0.52021164653E+02  0.10566000000E+00 0.  1.
         23    2    1    0    0    0 -0.18851883000E+02 -0.22543549285E+02  0.21291158422E+01  0.95625814261E+02  0.90973392329E+02 0.  0.
         13    1    3    3    0    0 -0.34133147341E+02  0.27134472584E+02 -0.54347278512E-01  0.43604649608E+02  0.10566000000E+00 0. -1.
         22    1    1    0    0    0  0.18851883000E+02  0.22543549285E+02 -0.21291158422E+01  0.29464185739E+02  0.00000000000E+00 0. -1.
</event>
<event>
 5    1  0.1250806E-009  0.9118800E+02  0.7561462E-02  0.1125453E+00
         25   -1    0    0    0    0  0.00000000000E+00  0.00000000000E+00  0.99999998245E-14  0.12509000000E+03  0.12509000000E+03 0.  0.
        -13    1    3    3    0    0 -0.34681234735E+02 -0.19575200841E+02  0.31839627870E+02  0.50987739680E+02  0.10566000000E+00 0. -1.
         23    2    1    0    0    0 -0.20664642714E+02  0.17617693963E+02  0.12252812350E+02  0.95298356716E+02  0.90522012700E+02 0.  0.
         13    1    3    3    0    0  0.14016592021E+02  0.37192894805E+02 -0.19586815520E+02  0.44310617036E+02  0.10566000000E+00 0.  1.
         22    1    1    0    0    0  0.20664642714E+02 -0.17617693963E+02 -0.12252812350E+02  0.29791643284E+02  0.00000000000E+00 0.  1.
</event>
<event>
 5    1  0.1250806E-009  0.9118800E+02  0.7561462E-02  0.1125453E+00
         25   -1    0    0    0    0  0.00000000000E+00  0.00000000000E+00  0.99999998245E-14  0.12509000000E+03  0.12509000000E+03 0.  0.
        -13    1    3    3    0    0 -0.26851139618E+00  0.58193315708E+02  0.14094756808E+02  0.59876601648E+02  0.10566000000E+00 0.  1.
         23    2    1    0    0    0  0.12563822898E+02  0.27388765830E+02  0.43229766217E+01  0.94648543622E+02  0.89619554470E+02 0.  0.
         13    1    3    3    0    0  0.12832334294E+02 -0.30804549877E+02 -0.97717801864E+01  0.34771941974E+02  0.10566000000E+00 0. -1.
         22    1    1    0    0    0 -0.12563822898E+02 -0.27388765830E+02 -0.43229766217E+01  0.30441456378E+02  0.00000000000E+00 0.  1.
</event>
<event>
 5    1  0.1250806E-009  0.9118800E+02  0.7561462E-02  0.1125453E+00
         25   -1    0    0    0    0  0.00000000000E+00  0.00000000000E+00  0.99999998245E-14  0.12509000000E+03  0.12509000000E+03 0.  0.
        -13    1    3    3    0    0 -0.31086578570E+02  0.25866099988E+02 -0.31607241932E+02  0.51326985129E+02  0.10566000000E+00 0. -1.
         23    2    1    0    0    0 -0.15553472737E+02 -0.15768979904E+02 -0.12008143430E+02  0.99895422210E+02  0.96666067617E+02 0.  0.
         13    1    3    3    0    0  0.15533105834E+02 -0.41635079892E+02  0.19599098502E+02  0.48568437082E+02  0.10566000000E+00 0.  1.
         22    1    1    0    0    0  0.15553472737E+02  0.15768979904E+02  0.12008143430E+02  0.25194577790E+02  0.00000000000E+00 0. -1.
</event>
<event>
 5    1  0.1250806E-009  0.9118800E+02  0.7561462E-02  0.1125453E+00
         25   -1    0    0    0    0  0.00000000000E+00  0.00000000000E+00  0.99999998245E-14  0.12509000000E+03  0.12509000000E+03 0.  0.
        -13    1    3    3    0    0  0.32904151650E+02 -0.17519299207E+02 -0.14622798035E+02  0.40043057163E+02  0.10566000000E+00 0. -1.
         23    2    1    0    0    0  0.25757117317E+00 -0.16826604673E+02  0.27200758529E+02  0.93104343335E+02  0.87437614993E+02 0.  0.
         13    1    3    3    0    0 -0.32646580477E+02  0.69269453465E+00  0.41823556564E+02  0.53061286173E+02  0.10566000000E+00 0.  1.
         22    1    1    0    0    0 -0.25757117317E+00  0.16826604673E+02 -0.27200758529E+02  0.31985656665E+02  0.00000000000E+00 0.  1.
</event>
<event>
 5    1  0.1250806E-009  0.9118800E+02  0.7561462E-02  0.1125453E+00
         25   -1    0    0    0    0  0.00000000000E+00  0.00000000000E+00  0.99999998245E-14  0.12509000000E+03  0.12509000000E+03 0.  0.
        -13    1    3    3    0    0  0.15938750551E+02  0.76281937339E+00  0.27353179720E+02  0.31667542806E+02  0.10566000000E+00 0.  1.
         23    2    1    0    0    0 -0.13528496021E+02  0.32702036494E+00 -0.27783495029E+02  0.94186120907E+02  0.88971768717E+02 0.  0.
         13    1    3    3    0    0 -0.29467246573E+02 -0.43579900845E+00 -0.55136674750E+02  0.62518578101E+02  0.10566000000E+00 0. -1.
         22    1    1    0    0    0  0.13528496021E+02 -0.32702036494E+00  0.27783495029E+02  0.30903879093E+02  0.00000000000E+00 0. -1.
</event>
<event>
 5    1  0.1250806E-009  0.9118800E+02  0.7561462E-02  0.1125453E+00
         25   -1    0    0    0    0  0.00000000000E+00  0.00000000000E+00  0.99999998245E-14  0.12509000000E+03  0.12509000000E+03 0.  0.
        -13    1    3    3    0    0 -0.95779023369E+01 -0.13812905660E+02 -0.38339843643E+02  0.41862720296E+02  0.10566000000E+00 0.  1.
         23    2    1    0    0    0  0.13323881781E+02  0.21961094290E+02  0.46896663292E+00  0.99398845533E+02  0.96021326149E+02 0.  0.
         13    1    3    3    0    0  0.22901784118E+02  0.35773999950E+02  0.38808810276E+02  0.57536125237E+02  0.10566000000E+00 0. -1.
         22    1    1    0    0    0 -0.13323881781E+02 -0.21961094290E+02 -0.46896663292E+00  0.25691154467E+02  0.00000000000E+00 0. -1.
</event>
<event>
 5    1  0.1250806E-009  0.9118800E+02  0.7561462E-02  0.1125453E+00
         25   -1    0    0    0    0  0.00000000000E+00  0.00000000000E+00  0.99999998245E-14  0.12509000000E+03  0.12509000000E+03 0.  0.
        -13    1    3    3    0    0  0.20072306396E+02  0.28281840473E+02 -0.26435002710E+02  0.43607115439E+02  0.10566000000E+00 0.  1.
         23    2    1    0    0    0  0.20428290474E+02 -0.54499290623E+00  0.18848860228E+02  0.97289071942E+02  0.93232354462E+02 0.  0.
         13    1    3    3    0    0  0.35598407765E+00 -0.28826833379E+02  0.45283862939E+02  0.53681956503E+02  0.10566000000E+00 0. -1.
         22    1    1    0    0    0 -0.20428290474E+02  0.54499290623E+00 -0.18848860228E+02  0.27800928058E+02  0.00000000000E+00 0. -1.
</event>
<event>
 5    1  0.1250806E-009  0.9118800E+02  0.7561462E-02  0.1125453E+00
         25   -1    0    0    0    0  0.00000000000E+00  0.00000000000E+00  0.99999998245E-14  0.12509000000E+03  0.12509000000E+03 0.  0.
        -13    1    3    3    0    0  0.92652313643E+01  0.42283777505E+02 -0.31577278417E+02  0.53580761739E+02  0.10566000000E+00 0.  1.
         23    2    1    0    0    0 -0.18056651636E+02  0.22770517688E+02 -0.69771921658E+01  0.95203207690E+02  0.90390433121E+02 0.  0.
         13    1    3    3    0    0 -0.27321883000E+02 -0.19513259817E+02  0.24600086251E+02  0.41622445951E+02  0.10566000000E+00 0. -1.
         22    1    1    0    0    0  0.18056651636E+02 -0.22770517688E+02  0.69771921658E+01  0.29886792310E+02  0.00000000000E+00 0.  1.
</event>
<event>
 5    1  0.1250806E-009  0.9118800E+02  0.7561462E-02  0.1125453E+00
         25   -1    0    0    0    0  0.00000000000E+00  0.00000000000E+00  0.99999998245E-14  0.12509000000E+03  0.12509000000E+03 0.  0.
        -13    1    3    3    0    0 -0.23265823696E+01  0.15760450478E+02 -0.59564010002E+02  0.61657823805E+02  0.10566000000E+00 0.  1.
         23    2    1    0    0    0  0.24288649243E+01  0.13313200804E+02 -0.24737483782E+02  0.96892769562E+02  0.92699109970E+02 0.  0.
         13    1    3    3    0    0  0.47554472938E+01 -0.24472496733E+01  0.34826526220E+02  0.35234945757E+02  0.10566000000E+00 0. -1.
         22    1    1    0    0    0 -0.24288649243E+01 -0.13313200804E+02  0.24737483782E+02  0.28197230438E+02  0.00000000000E+00 0.  1.
</event>
<event>
 5    1  0.1250806E-009  0.9118800E+02  0.7561462E-02  0.1125453E+00
         25   -1    0    0    0    0  0.00000000000E+00  0.00000000000E+00  0.99999998245E-14  0.12509000000E+03  0.12509000000E+03 0.  0.
        -13    1    3    3    0    0 -0.15335916782E+02  0.19710312243E+02  0.28705984707E+02  0.38049066668E+02  0.10566000000E+00 0. -1.
         23    2    1    0    0    0 -0.12307347738E+01 -0.28867351450E+02  0.29220489433E-01  0.96196410024E+02  0.91754617104E+02 0.  0.
         13    1    3    3    0    0  0.14105182008E+02 -0.48577663693E+02 -0.28676764218E+02  0.58147343356E+02  0.10566000000E+00 0.  1.
         22    1    1    0    0    0  0.12307347738E+01  0.28867351450E+02 -0.29220489433E-01  0.28893589976E+02  0.00000000000E+00 0.  1.
</event>
<event>
 5    1  0.1250806E-009  0.9118800E+02  0.7561462E-02  0.1125453E+00
         25   -1    0    0    0    0  0.00000000000E+00  0.00000000000E+00  0.99999998245E-14  0.12509000000E+03  0.12509000000E+03 0.  0.
        -13    1    3    3    0    0 -0.10452686829E+02  0.59408442913E+02  0.11669199781E+02  0.61439426583E+02  0.10566000000E+00 0.  1.
         23    2    1    0    0    0 -0.10869835030E+02  0.24657397813E+02  0.10367248778E+02  0.96217514348E+02  0.91783384333E+02 0.  0.
         13    1    3    3    0    0 -0.41714820122E+00 -0.34751045100E+02 -0.13019510033E+01  0.34778087766E+02  0.10566000000E+00 0. -1.
         22    1    1    0    0    0  0.10869835030E+02 -0.24657397813E+02 -0.10367248778E+02  0.28872485652E+02  0.00000000000E+00 0.  1.
</event>
<event>
 5    1  0.1250806E-009  0.9118800E+02  0.7561462E-02  0.1125453E+00
         25   -1    0    0    0    0  0.00000000000E+00  0.00000000000E+00  0.99999998245E-14  0.12509000000E+03  0.12509000000E+03 0.  0.
        -13    1    3    3    0    0  0.16381221362E+02 -0.36157738187E+02  0.23253734097E+01  0.39763613639E+02  0.10566000000E+00 0.  1.
         23    2    1    0    0    0 -0.25456204221E+02  0.26978021881E+01  0.10457862525E+02  0.97437452946E+02  0.93431225391E+02 0.  0.
         13    1    3    3    0    0 -0.41837425582E+02  0.38855540375E+02  0.81324891155E+01  0.57673839307E+02  0.10566000000E+00 0. -1.
         22    1    1    0    0    0  0.25456204221E+02 -0.26978021881E+01 -0.10457862525E+02  0.27652547054E+02  0.00000000000E+00 0. -1.
</event>
<event>
 5    1  0.1250806E-009  0.9118800E+02  0.7561462E-02  0.1125453E+00
         25   -1    0    0    0    0  0.00000000000E+00  0.00000000000E+00  0.99999998245E-14  0.12509000000E+03  0.12509000000E+03 0.  0.
        -13    1    3    3    0    0  0.55352974569E+02 -0.11184584019E+02 -0.67792278575E+01  0.56877199366E+02  0.10566000000E+00 0. -1.
         23    2    1    0    0    0  0.24472799872E+02 -0.36234277476E+01  0.15677607021E+02  0.95801187731E+02  0.91214215156E+02 0.  0.
         13    1    3    3    0    0 -0.30880174697E+02  0.75611562714E+01  0.22456834878E+02  0.38923988365E+02  0.10566000000E+00 0.  1.
         22    1    1    0    0    0 -0.24472799872E+02  0.36234277476E+01 -0.15677607021E+02  0.29288812269E+02  0.00000000000E+00 0. -1.
</event>
<event>
 5    1  0.1250806E-009  0.9118800E+02  0.7561462E-02  0.1125453E+00
         25   -1    0    0    0    0  0.00000000000E+00  0.00000000000E+00  0.99999998245E-14  0.12509000000E+03  0.12509000000E+03 0.  0.
        -13    1    3    3    0    0  0.19837247206E+02  0.33794721543E+02  0.61646126192E+01  0.39668793700E+02  0.10566000000E+00 0.  1.
         23    2    1    0    0    0  0.89279261380E+01 -0.18752193062E+02  0.21209321076E+02  0.95405190581E+02  0.90669523433E+02 0.  0.
         13    1    3    3    0    0 -0.10909321068E+02 -0.52546914604E+02  0.15044708457E+02  0.55736396880E+02  0.10566000000E+00 0. -1.
         22    1    1    0    0    0 -0.89279261380E+01  0.18752193062E+02 -0.21209321076E+02  0.29684809419E+02  0.00000000000E+00 0. -1.
</event>
<event>
 5    1  0.1250806E-009  0.9118800E+02  0.7561462E-02  0.1125453E+00
         25   -1    0    0    0    0  0.00000000000E+00  0.00000000000E+00  0.99999998245E-14  0.12509000000E+03  0.12509000000E+03 0.  0.
        -13    1    3    3    0    0 -0.24886677283E+02  0.36956035534E+02  0.12245378953E+02  0.46206663354E+02  0.10566000000E+00 0. -1.
         23    2    1    0    0    0 -0.28957093186E+02 -0.99969919616E+01  0.23324322672E+01  0.94367152893E+02  0.89225927906E+02 0.  0.
         13    1    3    3    0    0 -0.40704159037E+01 -0.46953027495E+02 -0.99129466859E+01  0.48160489539E+02  0.10566000000E+00 0.  1.
         22    1    1    0    0    0  0.28957093186E+02  0.99969919616E+01 -0.23324322672E+01  0.30722847107E+02  0.00000000000E+00 0. -1.
</event>
<event>
 5    1  0.1250806E-009  0.9118800E+02  0.7561462E-02  0.1125453E+00
         25   -1    0    0    0    0  0.00000000000E+00  0.00000000000E+00  0.99999998245E-14  0.12509000000E+03  0.12509000000E+03 0.  0.
        -13    1    3    3    0    0 -0.62555460790E+01 -0.31769323890E+02 -0.24935676202E+02  0.40868336263E+02  0.10566000000E+00 0. -1.
         23    2    1    0    0    0 -0.22148854700E+02  0.23581656483E+01  0.16886120512E+02  0.97138724972E+02  0.93030414992E+02 0.  0.
         13    1    3    3    0    0 -0.15893308621E+02  0.34127489538E+02  0.41821796714E+02  0.56270388710E+02  0.10566000000E+00 0.  1.
         22    1    1    0    0    0  0.22148854700E+02 -0.23581656483E+01 -0.16886120512E+02  0.27951275028E+02  0.00000000000E+00 0.  1.
</event>
<event>
 5    1  0.1250806E-009  0.9118800E+02  0.7561462E-02  0.1125453E+00
         25   -1    0    0    0    0  0.00000000000E+00  0.00000000000E+00  0.99999998245E-14  0.12509000000E+03  0.12509000000E+03 0.  0.
        -13    1    3    3    0    0 -0.40740230731E+01  0.26071377188E+02 -0.28934822630E+02  0.39160560480E+02  0.10566000000E+00 0.  1.
         23    2    1    0    0    0  0.11738387382E+02  0.91206287570E+01  0.23949351463E+02  0.96902289154E+02  0.92711955003E+02 0.  0.
         13    1    3    3    0    0  0.15812410455E+02 -0.16950748431E+02  0.52884174092E+02  0.57741728674E+02  0.10566000000E+00 0. -1.
         22    1    1    0    0    0 -0.11738387382E+02 -0.91206287570E+01 -0.23949351463E+02  0.28187710846E+02  0.00000000000E+00 0. -1.
</event>
<event>
 5    1  0.1250806E-009  0.9118800E+02  0.7561462E-02  0.1125453E+00
         25   -1    0    0    0    0  0.00000000000E+00  0.00000000000E+00  0.99999998245E-14  0.12509000000E+03  0.12509000000E+03 0.  0.
        -13    1    3    3    0    0 -0.29953106397E+02 -0.29879989407E+02  0.54143144216E+01  0.42653585013E+02  0.10566000000E+00 0.  1.
         23    2    1    0    0    0  0.36837090106E+01  0.78048459309E+01 -0.22939609256E+02  0.10058059354E+03  0.97548679091E+02 0.  0.
         13    1    3    3    0    0  0.33636815408E+02  0.37684835338E+02 -0.28353923678E+02  0.57927008529E+02  0.10566000000E+00 0. -1.
         22    1    1    0    0    0 -0.36837090106E+01 -0.78048459309E+01  0.22939609256E+02  0.24509406457E+02  0.00000000000E+00 0. -1.
</event>
<event>
 5    1  0.1250806E-009  0.9118800E+02  0.7561462E-02  0.1125453E+00
         25   -1    0    0    0    0  0.00000000000E+00  0.00000000000E+00  0.99999998245E-14  0.12509000000E+03  0.12509000000E+03 0.  0.
        -13    1    3    3    0    0 -0.42791300104E+02 -0.17196728635E+02  0.37539618568E+02  0.59464753986E+02  0.10566000000E+00 0. -1.
         23    2    1    0    0    0 -0.97127380377E+01 -0.75198579856E+01  0.26872916018E+02  0.95542763926E+02  0.90859124907E+02 0.  0.
         13    1    3    3    0    0  0.33078562066E+02  0.96768706493E+01 -0.10666702550E+02  0.36078009940E+02  0.10566000000E+00 0.  1.
         22    1    1    0    0    0  0.97127380377E+01  0.75198579856E+01 -0.26872916018E+02  0.29547236074E+02  0.00000000000E+00 0. -1.
</event>
<event>
 5    1  0.1250806E-009  0.9118800E+02  0.7561462E-02  0.1125453E+00
         25   -1    0    0    0    0  0.00000000000E+00  0.00000000000E+00  0.99999998245E-14  0.12509000000E+03  0.12509000000E+03 0.  0.
        -13    1    3    3    0    0  0.25291310333E+02 -0.51802683569E+01  0.39384187678E+02  0.47091516876E+02  0.10566000000E+00 0.  1.
         23    2    1    0    0    0  0.11476782944E+02  0.21701635197E+02 -0.42543783201E+01  0.10017459810E+03  0.97026660524E+02 0.  0.
         13    1    3    3    0    0 -0.13814527389E+02  0.26881903554E+02 -0.43638565998E+02  0.53083081223E+02  0.10566000000E+00 0. -1.
         22    1    1    0    0    0 -0.11476782944E+02 -0.21701635197E+02  0.42543783201E+01  0.24915401901E+02  0.00000000000E+00 0. -1.
</event>
<event>
 5    1  0.1250806E-009  0.9118800E+02  0.7561462E-02  0.1125453E+00
         25   -1    0    0    0    0  0.00000000000E+00  0.00000000000E+00  0.99999998245E-14  0.12509000000E+03  0.12509000000E+03 0.  0.
        -13    1    3    3    0    0 -0.51783882799E+02 -0.24863592408E+01  0.25836604894E+02  0.57924898071E+02  0.10566000000E+00 0.  1.
         23    2    1    0    0    0 -0.17878675145E+02 -0.16951570317E+02  0.62294386428E+01  0.99677234173E+02  0.96383309476E+02 0.  0.
         13    1    3    3    0    0  0.33905207654E+02 -0.14465211077E+02 -0.19607166252E+02  0.41752336103E+02  0.10566000000E+00 0. -1.
         22    1    1    0    0    0  0.17878675145E+02  0.16951570317E+02 -0.62294386428E+01  0.25412765827E+02  0.00000000000E+00 0.  1.
</event>
<event>
 5    1  0.1250806E-009  0.9118800E+02  0.7561462E-02  0.1125453E+00
         25   -1    0    0    0    0  0.00000000000E+00  0.00000000000E+00  0.99999998245E-14  0.12509000000E+03  0.12509000000E+03 0.  0.
        -13    1    3    3    0    0  0.69414888040E+01 -0.41793265554E+02  0.13400857796E+01  0.42387124300E+02  0.10566000000E+00 0.  1.
         23    2    1    0    0    0 -0.28209281756E+02 -0.65325783868E+01  0.12726077640E+02  0.93461038435E+02  0.87946429693E+02 0.  0.
         13    1    3    3    0    0 -0.35150770560E+02  0.35260687167E+02  0.11385991860E+02  0.51073914136E+02  0.10566000000E+00 0. -1.
         22    1    1    0    0    0  0.28209281756E+02  0.65325783868E+01 -0.12726077640E+02  0.31628961565E+02  0.00000000000E+00 0. -1.
</event>
<event>
 5    1  0.1250806E-009  0.9118800E+02  0.7561462E-02  0.1125453E+00
         25   -1    0    0    0    0  0.00000000000E+00  0.00000000000E+00  0.99999998245E-14  0.12509000000E+03  0.12509000000E+03 0.  0.
        -13    1    3    3    0    0  0.17768190041E+02  0.30836213217E+02 -0.37254101501E+02  0.51521450539E+02  0.10566000000E+00 0. -1.
         23    2    1    0    0    0  0.65881834298E+01  0.29891739549E+02  0.39509965502E+01  0.94226905082E+02  0.89029090827E+02 0.  0.
         13    1    3    3    0    0 -0.11180006612E+02 -0.94447366875E+00  0.41205098051E+02  0.42705454544E+02  0.10566000000E+00 0.  1.
         22    1    1    0    0    0 -0.65881834298E+01 -0.29891739549E+02 -0.39509965502E+01  0.30863094918E+02  0.00000000000E+00 0. -1.
</event>
<event>
 5    1  0.1250806E-009  0.9118800E+02  0.7561462E-02  0.1125453E+00
         25   -1    0    0    0    0  0.00000000000E+00  0.00000000000E+00  0.99999998245E-14  0.12509000000E+03  0.12509000000E+03 0.  0.
        -13    1    3    3    0    0 -0.16461308327E+02 -0.11838282843E+02 -0.27809990829E+02  0.34416948825E+02  0.10566000000E+00 0. -1.
         23    2    1    0    0    0  0.24364629897E+02  0.22484082081E+01  0.15936045917E+02  0.95889861491E+02  0.91335740255E+02 0.  0.
         13    1    3    3    0    0  0.40825938224E+02  0.14086691051E+02  0.43746036746E+02  0.61472912666E+02  0.10566000000E+00 0.  1.
         22    1    1    0    0    0 -0.24364629897E+02 -0.22484082081E+01 -0.15936045917E+02  0.29200138509E+02  0.00000000000E+00 0.  1.
</event>
<event>
 5    1  0.1250806E-009  0.9118800E+02  0.7561462E-02  0.1125453E+00
         25   -1    0    0    0    0  0.00000000000E+00  0.00000000000E+00  0.99999998245E-14  0.12509000000E+03  0.12509000000E+03 0.  0.
        -13    1    3    3    0    0  0.23664980348E+02  0.65845626767E+01  0.19378911674E+02  0.31288035128E+02  0.10566000000E+00 0.  1.
         23    2    1    0    0    0 -0.16832421108E+02 -0.31281516241E+02  0.15248396290E+01  0.89534567299E+02  0.82172075225E+02 0.  0.
         13    1    3    3    0    0 -0.40497401456E+02 -0.37866078918E+02 -0.17854072045E+02  0.58246532170E+02  0.10566000000E+00 0. -1.
         22    1    1    0    0    0  0.16832421108E+02  0.31281516241E+02 -0.15248396290E+01  0.35555432701E+02  0.00000000000E+00 0. -1.
</event>
<event>
 5    1  0.1250806E-009  0.9118800E+02  0.7561462E-02  0.1125453E+00
         25   -1    0    0    0    0  0.00000000000E+00  0.00000000000E+00  0.99999998245E-14  0.12509000000E+03  0.12509000000E+03 0.  0.
        -13    1    3    3    0    0  0.20577466781E+02 -0.41164193205E+02  0.13797771264E+02  0.48044901885E+02  0.10566000000E+00 0.  1.
         23    2    1    0    0    0  0.15035417368E+02  0.43911931980E+01  0.25279808292E+02  0.95350883329E+02  0.90594568773E+02 0.  0.
         13    1    3    3    0    0 -0.55420494131E+01  0.45555386403E+02  0.11482037028E+02  0.47305981443E+02  0.10566000000E+00 0. -1.
         22    1    1    0    0    0 -0.15035417368E+02 -0.43911931980E+01 -0.25279808292E+02  0.29739116671E+02  0.00000000000E+00 0.  1.
</event>
<event>
 5    1  0.1250806E-009  0.9118800E+02  0.7561462E-02  0.1125453E+00
         25   -1    0    0    0    0  0.00000000000E+00  0.00000000000E+00  0.99999998245E-14  0.12509000000E+03  0.12509000000E+03 0.  0.
        -13    1    3    3    0    0 -0.31095222170E+02 -0.16045128227E+02  0.75674132077E+01  0.35799942574E+02  0.10566000000E+00 0. -1.
         23    2    1    0    0    0  0.93296583088E+01  0.22180851968E+02 -0.15969274085E+02  0.96210068681E+02  0.91773236200E+02 0.  0.
         13    1    3    3    0    0  0.40424880478E+02  0.38225980195E+02 -0.23536687292E+02  0.60410126107E+02  0.10566000000E+00 0.  1.
         22    1    1    0    0    0 -0.93296583088E+01 -0.22180851968E+02  0.15969274085E+02  0.28879931319E+02  0.00000000000E+00 0. -1.
</event>
<event>
 5    1  0.1250806E-009  0.9118800E+02  0.7561462E-02  0.1125453E+00
         25   -1    0    0    0    0  0.00000000000E+00  0.00000000000E+00  0.99999998245E-14  0.12509000000E+03  0.12509000000E+03 0.  0.
        -13    1    3    3    0    0  0.10503845105E+02 -0.23065221934E+02 -0.27911005625E+02  0.37701069267E+02  0.10566000000E+00 0.  1.
         23    2    1    0    0    0 -0.22569764166E+02 -0.60760005639E+01  0.17133687907E+02  0.96109397890E+02  0.91635915798E+02 0.  0.
         13    1    3    3    0    0 -0.33073609271E+02  0.16989221370E+02  0.45044693533E+02  0.58408328622E+02  0.10566000000E+00 0. -1.
         22    1    1    0    0    0  0.22569764166E+02  0.60760005639E+01 -0.17133687907E+02  0.28980602110E+02  0.00000000000E+00 0. -1.
</event>
<event>
 5    1  0.1250806E-009  0.9118800E+02  0.7561462E-02  0.1125453E+00
         25   -1    0    0    0    0  0.00000000000E+00  0.00000000000E+00  0.99999998245E-14  0.12509000000E+03  0.12509000000E+03 0.  0.
        -13    1    3    3    0    0 -0.26643129098E+01  0.44402525850E+02 -0.31222235381E+02  0.54346315527E+02  0.10566000000E+00 0.  1.
         23    2    1    0    0    0 -0.22528605608E+02  0.12783558032E+02 -0.15812704636E+02  0.94742033766E+02  0.89749952132E+02 0.  0.
         13    1    3    3    0    0 -0.19864292699E+02 -0.31618967818E+02  0.15409530745E+02  0.40395718240E+02  0.10566000000E+00 0. -1.
         22    1    1    0    0    0  0.22528605608E+02 -0.12783558032E+02  0.15812704636E+02  0.30347966234E+02  0.00000000000E+00 0.  1.
</event>
<event>
 5    1  0.1250806E-009  0.9118800E+02  0.7561462E-02  0.1125453E+00
         25   -1    0    0    0    0  0.00000000000E+00  0.00000000000E+00  0.99999998245E-14  0.12509000000E+03  0.12509000000E+03 0.  0.
        -13    1    3    3    0    0 -0.15954282853E+02  0.36175167526E+02  0.36746229261E+02  0.53976646948E+02  0.10566000000E+00 0. -1.
         23    2    1    0    0    0  0.15782889730E+02  0.10434765146E+02  0.18146240177E+02  0.98874165768E+02  0.95335359085E+02 0.  0.
         13    1    3    3    0    0  0.31737172583E+02 -0.25740402380E+02 -0.18599989083E+02  0.44897518820E+02  0.10566000000E+00 0.  1.
         22    1    1    0    0    0 -0.15782889730E+02 -0.10434765146E+02 -0.18146240177E+02  0.26215834232E+02  0.00000000000E+00 0.  1.
</event>
<event>
 5    1  0.1250806E-009  0.9118800E+02  0.7561462E-02  0.1125453E+00
         25   -1    0    0    0    0  0.00000000000E+00  0.00000000000E+00  0.99999998245E-14  0.12509000000E+03  0.12509000000E+03 0.  0.
        -13    1    3    3    0    0 -0.27508831033E+02  0.36069120860E+02 -0.24736487928E+02  0.51668387468E+02  0.10566000000E+00 0.  1.
         23    2    1    0    0    0 -0.10996840786E+02 -0.59019908099E+01 -0.25414992021E+02  0.96775943028E+02  0.92541327669E+02 0.  0.
         13    1    3    3    0    0  0.16511990247E+02 -0.41971111670E+02 -0.67850409310E+00  0.45107555560E+02  0.10566000000E+00 0. -1.
         22    1    1    0    0    0  0.10996840786E+02  0.59019908099E+01  0.25414992021E+02  0.28314056972E+02  0.00000000000E+00 0.  1.
</event>
<event>
 5    1  0.1250806E-009  0.9118800E+02  0.7561462E-02  0.1125453E+00
         25   -1    0    0    0    0  0.00000000000E+00  0.00000000000E+00  0.99999998245E-14  0.12509000000E+03  0.12509000000E+03 0.  0.
        -13    1    3    3    0    0 -0.10624034219E+02 -0.58409701438E+02 -0.15180561643E+02  0.61278250146E+02  0.10566000000E+00 0. -1.
         23    2    1    0    0    0 -0.17318715775E+00 -0.28647084583E+02  0.35386597061E+00  0.96440206458E+02  0.92086387440E+02 0.  0.
         13    1    3    3    0    0  0.10450847061E+02  0.29762616855E+02  0.15534427613E+02  0.35161956312E+02  0.10566000000E+00 0.  1.
         22    1    1    0    0    0  0.17318715775E+00  0.28647084583E+02 -0.35386597061E+00  0.28649793542E+02  0.00000000000E+00 0. -1.
</event>
<event>
 5    1  0.1250806E-009  0.9118800E+02  0.7561462E-02  0.1125453E+00
         25   -1    0    0    0    0  0.00000000000E+00  0.00000000000E+00  0.99999998245E-14  0.12509000000E+03  0.12509000000E+03 0.  0.
        -13    1    3    3    0    0  0.15738705362E+02  0.55807849566E+01 -0.30684152807E+02  0.34933943447E+02  0.10566000000E+00 0.  1.
         23    2    1    0    0    0 -0.25121448209E+02 -0.11258343076E+02  0.10771891958E+02  0.95528689047E+02  0.90839745298E+02 0.  0.
         13    1    3    3    0    0 -0.40860153571E+02 -0.16839128033E+02  0.41456044765E+02  0.60594745600E+02  0.10566000000E+00 0. -1.
         22    1    1    0    0    0  0.25121448209E+02  0.11258343076E+02 -0.10771891958E+02  0.29561310953E+02  0.00000000000E+00 0. -1.
</event>
<event>
 5    1  0.1250806E-009  0.9118800E+02  0.7561462E-02  0.1125453E+00
         25   -1    0    0    0    0  0.00000000000E+00  0.00000000000E+00  0.99999998245E-14  0.12509000000E+03  0.12509000000E+03 0.  0.
        -13    1    3    3    0    0  0.22830362378E+02  0.39726122188E+02  0.36603559811E+02  0.58644880300E+02  0.10566000000E+00 0.  1.
         23    2    1    0    0    0  0.23086044370E+02  0.10180055720E+02  0.11740086890E+02  0.97261442378E+02  0.93195276458E+02 0.  0.
         13    1    3    3    0    0  0.25568199183E+00 -0.29546066469E+02 -0.24863472921E+02  0.38616562079E+02  0.10566000000E+00 0. -1.
         22    1    1    0    0    0 -0.23086044370E+02 -0.10180055720E+02 -0.11740086890E+02  0.27828557622E+02  0.00000000000E+00 0.  1.
</event>
<event>
 5    1  0.1250806E-009  0.9118800E+02  0.7561462E-02  0.1125453E+00
         25   -1    0    0    0    0  0.00000000000E+00  0.00000000000E+00  0.99999998245E-14  0.12509000000E+03  0.12509000000E+03 0.  0.
        -13    1    3    3    0    0  0.54118971061E+01  0.28470231053E+02  0.26834403875E+02  0.39496064131E+02  0.10566000000E+00 0.  1.
         23    2    1    0    0    0  0.32010497057E+02 -0.69137405043E+01 -0.19254912392E+01  0.92284828973E+02  0.86257233972E+02 0.  0.
         13    1    3    3    0    0  0.26598599951E+02 -0.35383971557E+02 -0.28759895114E+02  0.52788764842E+02  0.10566000000E+00 0. -1.
         22    1    1    0    0    0 -0.32010497057E+02  0.69137405043E+01  0.19254912392E+01  0.32805171027E+02  0.00000000000E+00 0. -1.
</event>
<event>
 5    1  0.1250806E-009  0.9118800E+02  0.7561462E-02  0.1125453E+00
         25   -1    0    0    0    0  0.00000000000E+00  0.00000000000E+00  0.99999998245E-14  0.12509000000E+03  0.12509000000E+03 0.  0.
        -13    1    3    3    0    0  0.24686208915E+02 -0.35939853201E+00  0.24845371211E+02  0.35026300297E+02  0.10566000000E+00 0. -1.
         23    2    1    0    0    0 -0.20828850377E+02  0.21023785695E+02 -0.71683157783E+01  0.94639625223E+02  0.89607105401E+02 0.  0.
         13    1    3    3    0    0 -0.45515059291E+02  0.21383184227E+02 -0.32013686989E+02  0.59613324925E+02  0.10566000000E+00 0.  1.
         22    1    1    0    0    0  0.20828850377E+02 -0.21023785695E+02  0.71683157783E+01  0.30450374777E+02  0.00000000000E+00 0.  1.
</event>
<event>
 5    1  0.1250806E-009  0.9118800E+02  0.7561462E-02  0.1125453E+00
         25   -1    0    0    0    0  0.00000000000E+00  0.00000000000E+00  0.99999998245E-14  0.12509000000E+03  0.12509000000E+03 0.  0.
        -13    1    3    3    0    0 -0.19054821860E+02 -0.47251218081E+01 -0.33372827347E+02  0.38719113902E+02  0.10566000000E+00 0.  1.
         23    2    1    0    0    0  0.27464783686E+02  0.11824972747E+02 -0.85167993729E+01  0.93998518933E+02  0.88707617298E+02 0.  0.
         13    1    3    3    0    0  0.46519605546E+02  0.16550094555E+02  0.24856027974E+02  0.55279405031E+02  0.10566000000E+00 0. -1.
         22    1    1    0    0    0 -0.27464783686E+02 -0.11824972747E+02  0.85167993729E+01  0.31091481067E+02  0.00000000000E+00 0. -1.
</event>
<event>
 5    1  0.1250806E-009  0.9118800E+02  0.7561462E-02  0.1125453E+00
         25   -1    0    0    0    0  0.00000000000E+00  0.00000000000E+00  0.99999998245E-14  0.12509000000E+03  0.12509000000E+03 0.  0.
        -13    1    3    3    0    0 -0.30065531427E+02 -0.27111263191E+02 -0.44385948935E+02  0.60075622333E+02  0.10566000000E+00 0.  1.
         23    2    1    0    0    0 -0.28461674319E+01 -0.16897179957E+02 -0.24071085127E+02  0.95542876642E+02  0.90859280089E+02 0.  0.
         13    1    3    3    0    0  0.27219363995E+02  0.10214083234E+02  0.20314863808E+02  0.35467254309E+02  0.10566000000E+00 0. -1.
         22    1    1    0    0    0  0.28461674319E+01  0.16897179957E+02  0.24071085127E+02  0.29547123358E+02  0.00000000000E+00 0.  1.
</event>
<event>
 5    1  0.1250806E-009  0.9118800E+02  0.7561462E-02  0.1125453E+00
         25   -1    0    0    0    0  0.00000000000E+00  0.00000000000E+00  0.99999998245E-14  0.12509000000E+03  0.12509000000E+03 0.  0.
        -13    1    3    3    0    0  0.28795121024E+02 -0.14874423850E+02 -0.19716768872E+02  0.37936389106E+02  0.10566000000E+00 0.  1.
         23    2    1    0    0    0  0.57070816723E+01  0.29400658598E+02  0.66608763242E+01  0.94408787824E+02  0.89284278783E+02 0.  0.
         13    1    3    3    0    0 -0.23088039352E+02  0.44275082447E+02  0.26377645196E+02  0.56472398718E+02  0.10566000000E+00 0. -1.
         22    1    1    0    0    0 -0.57070816723E+01 -0.29400658598E+02 -0.66608763242E+01  0.30681212176E+02  0.00000000000E+00 0. -1.
</event>
<event>
 5    1  0.1250806E-009  0.9118800E+02  0.7561462E-02  0.1125453E+00
         25   -1    0    0    0    0  0.00000000000E+00  0.00000000000E+00  0.99999998245E-14  0.12509000000E+03  0.12509000000E+03 0.  0.
        -13    1    3    3    0    0 -0.26172053345E+01 -0.15971790563E+02  0.54860354127E+02  0.57198054832E+02  0.10566000000E+00 0. -1.
         23    2    1    0    0    0 -0.12966085590E+02 -0.20052626536E+02  0.19521694955E+02  0.94246462906E+02  0.89056566237E+02 0.  0.
         13    1    3    3    0    0 -0.10348880255E+02 -0.40808359732E+01 -0.35338659172E+02  0.37048408075E+02  0.10566000000E+00 0.  1.
         22    1    1    0    0    0  0.12966085590E+02  0.20052626536E+02 -0.19521694955E+02  0.30843537094E+02  0.00000000000E+00 0. -1.
</event>
<event>
 5    1  0.1250806E-009  0.9118800E+02  0.7561462E-02  0.1125453E+00
         25   -1    0    0    0    0  0.00000000000E+00  0.00000000000E+00  0.99999998245E-14  0.12509000000E+03  0.12509000000E+03 0.  0.
        -13    1    3    3    0    0 -0.16077927061E+02 -0.11512947685E+02 -0.36774362821E+02  0.41754192938E+02  0.10566000000E+00 0. -1.
         23    2    1    0    0    0  0.23943685973E+02  0.13583253168E+02 -0.14357235678E+02  0.94042696076E+02  0.88769891317E+02 0.  0.
         13    1    3    3    0    0  0.40021613034E+02  0.25096200853E+02  0.22417127143E+02  0.52288503139E+02  0.10566000000E+00 0.  1.
         22    1    1    0    0    0 -0.23943685973E+02 -0.13583253168E+02  0.14357235678E+02  0.31047303924E+02  0.00000000000E+00 0. -1.
</event>
<event>
 5    1  0.1250806E-009  0.9118800E+02  0.7561462E-02  0.1125453E+00
         25   -1    0    0    0    0  0.00000000000E+00  0.00000000000E+00  0.99999998245E-14  0.12509000000E+03  0.12509000000E+03 0.  0.
        -13    1    3    3    0    0 -0.51831531095E+02 -0.21829676963E+02 -0.18906390973E+02  0.59333845279E+02  0.10566000000E+00 0. -1.
         23    2    1    0    0    0 -0.28071429491E+02  0.20076982952E+01 -0.23316874547E+01  0.96850439584E+02  0.92641971455E+02 0.  0.
         13    1    3    3    0    0  0.23760101604E+02  0.23837375258E+02  0.16574703519E+02  0.37516594304E+02  0.10566000000E+00 0.  1.
         22    1    1    0    0    0  0.28071429491E+02 -0.20076982952E+01  0.23316874547E+01  0.28239560416E+02  0.00000000000E+00 0. -1.
</event>
<event>
 5    1  0.1250806E-009  0.9118800E+02  0.7561462E-02  0.1125453E+00
         25   -1    0    0    0    0  0.00000000000E+00  0.00000000000E+00  0.99999998245E-14  0.12509000000E+03  0.12509000000E+03 0.  0.
        -13    1    3    3    0    0  0.27737774758E+02  0.33734260143E+02  0.13168827961E+02  0.45615936358E+02  0.10566000000E+00 0.  1.
         23    2    1    0    0    0 -0.13081892487E+02  0.22678949824E+02 -0.13520096591E+02  0.95623685538E+02  0.90970465250E+02 0.  0.
         13    1    3    3    0    0 -0.40819667245E+02 -0.11055310319E+02 -0.26688924552E+02  0.50007749180E+02  0.10566000000E+00 0. -1.
         22    1    1    0    0    0  0.13081892487E+02 -0.22678949824E+02  0.13520096591E+02  0.29466314462E+02  0.00000000000E+00 0. -1.
</event>
<event>
 5    1  0.1250806E-009  0.9118800E+02  0.7561462E-02  0.1125453E+00
         25   -1    0    0    0    0  0.00000000000E+00  0.00000000000E+00  0.99999998245E-14  0.12509000000E+03  0.12509000000E+03 0.  0.
        -13    1    3    3    0    0 -0.22094252382E+02  0.47310642058E+02 -0.28386153847E+02  0.59432631900E+02  0.10566000000E+00 0. -1.
         23    2    1    0    0    0 -0.58803904018E+01  0.26962688427E+02 -0.61624084181E+00  0.97486643116E+02  0.93497060247E+02 0.  0.
         13    1    3    3    0    0  0.16213861981E+02 -0.20347953632E+02  0.27769913005E+02  0.38054011216E+02  0.10566000000E+00 0.  1.
         22    1    1    0    0    0  0.58803904018E+01 -0.26962688427E+02  0.61624084181E+00  0.27603356884E+02  0.00000000000E+00 0. -1.
</event>
<event>
 5    1  0.1250806E-009  0.9118800E+02  0.7561462E-02  0.1125453E+00
         25   -1    0    0    0    0  0.00000000000E+00  0.00000000000E+00  0.99999998245E-14  0.12509000000E+03  0.12509000000E+03 0.  0.
        -13    1    3    3    0    0 -0.93617768616E+01  0.32258522443E+02 -0.71267374396E+01  0.34337394875E+02  0.10566000000E+00 0. -1.
         23    2    1    0    0    0  0.96405614053E+01 -0.17797835928E+02  0.21922539759E+02  0.95252085572E+02  0.90458049219E+02 0.  0.
         13    1    3    3    0    0  0.19002338267E+02 -0.50056358371E+02  0.29049277198E+02  0.60914690697E+02  0.10566000000E+00 0.  1.
         22    1    1    0    0    0 -0.96405614053E+01  0.17797835928E+02 -0.21922539759E+02  0.29837914428E+02  0.00000000000E+00 0.  1.
</event>
<event>
 5    1  0.1250806E-009  0.9118800E+02  0.7561462E-02  0.1125453E+00
         25   -1    0    0    0    0  0.00000000000E+00  0.00000000000E+00  0.99999998245E-14  0.12509000000E+03  0.12509000000E+03 0.  0.
        -13    1    3    3    0    0 -0.10183910328E+02 -0.19526792207E+01 -0.33123392221E+02  0.34708720259E+02  0.10566000000E+00 0. -1.
         23    2    1    0    0    0  0.91100289660E+00 -0.82313607380E+01  0.27351204520E+02  0.96512498105E+02  0.92184535991E+02 0.  0.
         13    1    3    3    0    0  0.11094913225E+02 -0.62786815173E+01  0.60474596741E+02  0.61803777846E+02  0.10566000000E+00 0.  1.
         22    1    1    0    0    0 -0.91100289660E+00  0.82313607380E+01 -0.27351204520E+02  0.28577501895E+02  0.00000000000E+00 0.  1.
</event>
<event>
 5    1  0.1250806E-009  0.9118800E+02  0.7561462E-02  0.1125453E+00
         25   -1    0    0    0    0  0.00000000000E+00  0.00000000000E+00  0.99999998245E-14  0.12509000000E+03  0.12509000000E+03 0.  0.
        -13    1    3    3    0    0 -0.35704410520E+02 -0.29373040891E+02 -0.17109276933E+02  0.49298265517E+02  0.10566000000E+00 0.  1.
         23    2    1    0    0    0 -0.22783125737E+02  0.14299765739E+02  0.65155123900E+00  0.98183148873E+02  0.94424319352E+02 0.  0.
         13    1    3    3    0    0  0.12921284783E+02  0.43672806630E+02  0.17760828172E+02  0.48884883356E+02  0.10566000000E+00 0. -1.
         22    1    1    0    0    0  0.22783125737E+02 -0.14299765739E+02 -0.65155123900E+00  0.26906851127E+02  0.00000000000E+00 0.  1.
</event>
<event>
 5    1  0.1250806E-009  0.9118800E+02  0.7561462E-02  0.1125453E+00
         25   -1    0    0    0    0  0.00000000000E+00  0.00000000000E+00  0.99999998245E-14  0.12509000000E+03  0.12509000000E+03 0.  0.
        -13    1    3    3    0    0  0.25662486958E+02 -0.36642913614E+02  0.17698178485E+02  0.48109282272E+02  0.10566000000E+00 0.  1.
         23    2    1    0    0    0  0.16546521854E+02  0.10015455445E+02  0.21943491985E+02  0.95839126958E+02  0.91266229693E+02 0.  0.
         13    1    3    3    0    0 -0.91159651037E+01  0.46658369059E+02  0.42453134995E+01  0.47729844686E+02  0.10566000000E+00 0. -1.
         22    1    1    0    0    0 -0.16546521854E+02 -0.10015455445E+02 -0.21943491985E+02  0.29250873042E+02  0.00000000000E+00 0.  1.
</event>
<event>
 5    1  0.1250806E-009  0.9118800E+02  0.7561462E-02  0.1125453E+00
         25   -1    0    0    0    0  0.00000000000E+00  0.00000000000E+00  0.99999998245E-14  0.12509000000E+03  0.12509000000E+03 0.  0.
        -13    1    3    3    0    0 -0.31017233279E+02 -0.31105898656E+02 -0.42129414309E+01  0.44129420243E+02  0.10566000000E+00 0.  1.
         23    2    1    0    0    0  0.17176571870E+02 -0.12150076697E+01  0.13133192860E+02  0.10343378566E+03  0.10114126950E+03 0.  0.
         13    1    3    3    0    0  0.48193805149E+02  0.29890890986E+02  0.17346134291E+02  0.59304365417E+02  0.10566000000E+00 0. -1.
         22    1    1    0    0    0 -0.17176571870E+02  0.12150076697E+01 -0.13133192860E+02  0.21656214340E+02  0.00000000000E+00 0. -1.
</event>
<event>
 5    1  0.1250806E-009  0.9118800E+02  0.7561462E-02  0.1125453E+00
         25   -1    0    0    0    0  0.00000000000E+00  0.00000000000E+00  0.99999998245E-14  0.12509000000E+03  0.12509000000E+03 0.  0.
        -13    1    3    3    0    0  0.93079196974E+01  0.53440394750E+02  0.17952786492E+02  0.57138663503E+02  0.10566000000E+00 0. -1.
         23    2    1    0    0    0 -0.11654491645E+02  0.27646276547E+02 -0.35545944447E+00  0.95085498107E+02  0.90227389503E+02 0.  0.
         13    1    3    3    0    0 -0.20962411342E+02 -0.25794118203E+02 -0.18308245937E+02  0.37946834604E+02  0.10566000000E+00 0.  1.
         22    1    1    0    0    0  0.11654491645E+02 -0.27646276547E+02  0.35545944447E+00  0.30004501893E+02  0.00000000000E+00 0. -1.
</event>
<event>
 5    1  0.1250806E-009  0.9118800E+02  0.7561462E-02  0.1125453E+00
         25   -1    0    0    0    0  0.00000000000E+00  0.00000000000E+00  0.99999998245E-14  0.12509000000E+03  0.12509000000E+03 0.  0.
        -13    1    3    3    0    0 -0.24105267626E+02  0.11673609772E+02  0.19260972800E+02  0.32989897388E+02  0.10566000000E+00 0.  1.
         23    2    1    0    0    0  0.15401850045E+02 -0.19782525618E+02 -0.16682460364E+02  0.94975721187E+02  0.90075067730E+02 0.  0.
         13    1    3    3    0    0  0.39507117670E+02 -0.31456135390E+02 -0.35943433164E+02  0.61985823799E+02  0.10566000000E+00 0. -1.
         22    1    1    0    0    0 -0.15401850045E+02  0.19782525618E+02  0.16682460364E+02  0.30114278813E+02  0.00000000000E+00 0. -1.
</event>
<event>
 5    1  0.1250806E-009  0.9118800E+02  0.7561462E-02  0.1125453E+00
         25   -1    0    0    0    0  0.00000000000E+00  0.00000000000E+00  0.99999998245E-14  0.12509000000E+03  0.12509000000E+03 0.  0.
        -13    1    3    3    0    0  0.23705496031E+02  0.29921608006E+02  0.12402043234E+02  0.40138198866E+02  0.10566000000E+00 0.  1.
         23    2    1    0    0    0 -0.14719213259E+02 -0.11492360481E+02  0.20669413228E+02  0.97234044954E+02  0.93158495407E+02 0.  0.
         13    1    3    3    0    0 -0.38424709290E+02 -0.41413968487E+02  0.82673699931E+01  0.57095846088E+02  0.10566000000E+00 0. -1.
         22    1    1    0    0    0  0.14719213259E+02  0.11492360481E+02 -0.20669413228E+02  0.27855955046E+02  0.00000000000E+00 0.  1.
</event>
<event>
 5    1  0.1250806E-009  0.9118800E+02  0.7561462E-02  0.1125453E+00
         25   -1    0    0    0    0  0.00000000000E+00  0.00000000000E+00  0.99999998245E-14  0.12509000000E+03  0.12509000000E+03 0.  0.
        -13    1    3    3    0    0  0.54475535408E+02  0.60545253739E+01  0.18372148575E+02  0.57808202211E+02  0.10566000000E+00 0. -1.
         23    2    1    0    0    0  0.90106363982E+01  0.15234960101E+02  0.93928725450E+01  0.10505199530E+03  0.10312322767E+03 0.  0.
         13    1    3    3    0    0 -0.45464899010E+02  0.91804347267E+01 -0.89792760303E+01  0.47243793093E+02  0.10566000000E+00 0.  1.
         22    1    1    0    0    0 -0.90106363982E+01 -0.15234960101E+02 -0.93928725450E+01  0.20038004696E+02  0.00000000000E+00 0. -1.
</event>
<event>
 5    1  0.1250806E-009  0.9118800E+02  0.7561462E-02  0.1125453E+00
         25   -1    0    0    0    0  0.00000000000E+00  0.00000000000E+00  0.99999998245E-14  0.12509000000E+03  0.12509000000E+03 0.  0.
        -13    1    3    3    0    0  0.19454786382E+02  0.66041472875E+01 -0.24564666719E+02  0.32024014265E+02  0.10566000000E+00 0. -1.
         23    2    1    0    0    0 -0.18622033681E+02 -0.92439061746E+01  0.22400786859E+02  0.94528174274E+02  0.89451386462E+02 0.  0.
         13    1    3    3    0    0 -0.38076820063E+02 -0.15848053462E+02  0.46965453579E+02  0.62504160010E+02  0.10566000000E+00 0.  1.
         22    1    1    0    0    0  0.18622033681E+02  0.92439061746E+01 -0.22400786859E+02  0.30561825726E+02  0.00000000000E+00 0.  1.
</event>
<event>
 5    1  0.1250806E-009  0.9118800E+02  0.7561462E-02  0.1125453E+00
         25   -1    0    0    0    0  0.00000000000E+00  0.00000000000E+00  0.99999998245E-14  0.12509000000E+03  0.12509000000E+03 0.  0.
        -13    1    3    3    0    0 -0.10075827964E+02  0.27375636878E+02 -0.83351678145E+01  0.30338655049E+02  0.10566000000E+00 0.  1.
         23    2    1    0    0    0  0.69438256393E+01 -0.31093400801E+02  0.54308601295E+01  0.92771111875E+02  0.86959580662E+02 0.  0.
         13    1    3    3    0    0  0.17019653604E+02 -0.58469037679E+02  0.13766027944E+02  0.62432456826E+02  0.10566000000E+00 0. -1.
         22    1    1    0    0    0 -0.69438256393E+01  0.31093400801E+02 -0.54308601295E+01  0.32318888125E+02  0.00000000000E+00 0. -1.
</event>
<event>
 5    1  0.1250806E-009  0.9118800E+02  0.7561462E-02  0.1125453E+00
         25   -1    0    0    0    0  0.00000000000E+00  0.00000000000E+00  0.99999998245E-14  0.12509000000E+03  0.12509000000E+03 0.  0.
        -13    1    3    3    0    0 -0.15116800549E+01 -0.37498685896E+02  0.13348463685E+02  0.39832515202E+02  0.10566000000E+00 0.  1.
         23    2    1    0    0    0  0.27913723673E+02  0.84373210253E+01  0.28411469629E+00  0.95927608525E+02  0.91387422553E+02 0.  0.
         13    1    3    3    0    0  0.29425403728E+02  0.45936006921E+02 -0.13064348988E+02  0.56095093323E+02  0.10566000000E+00 0. -1.
         22    1    1    0    0    0 -0.27913723673E+02 -0.84373210253E+01 -0.28411469629E+00  0.29162391475E+02  0.00000000000E+00 0. -1.
</event>
<event>
 5    1  0.1250806E-009  0.9118800E+02  0.7561462E-02  0.1125453E+00
         25   -1    0    0    0    0  0.00000000000E+00  0.00000000000E+00  0.99999998245E-14  0.12509000000E+03  0.12509000000E+03 0.  0.
        -13    1    3    3    0    0 -0.16706280111E+02 -0.28868161672E+02  0.13693592662E+02  0.36055460023E+02  0.10566000000E+00 0.  1.
         23    2    1    0    0    0  0.12733400505E+02  0.85727284037E+01 -0.23866943046E+02  0.96712859005E+02  0.92456016385E+02 0.  0.
         13    1    3    3    0    0  0.29439680616E+02  0.37440890075E+02 -0.37560535709E+02  0.60657398981E+02  0.10566000000E+00 0. -1.
         22    1    1    0    0    0 -0.12733400505E+02 -0.85727284037E+01  0.23866943046E+02  0.28377140995E+02  0.00000000000E+00 0. -1.
</event>
<event>
 5    1  0.1250806E-009  0.9118800E+02  0.7561462E-02  0.1125453E+00
         25   -1    0    0    0    0  0.00000000000E+00  0.00000000000E+00  0.99999998245E-14  0.12509000000E+03  0.12509000000E+03 0.  0.
        -13    1    3    3    0    0  0.11503918280E+02  0.36392555143E+02  0.79067677735E+00  0.38175837115E+02  0.10566000000E+00 0. -1.
         23    2    1    0    0    0 -0.34511684806E+01 -0.15188526763E+02  0.23835418376E+02  0.96616695340E+02  0.92325818383E+02 0.  0.
         13    1    3    3    0    0 -0.14955086761E+02 -0.51581081907E+02  0.23044741598E+02  0.58440858225E+02  0.10566000000E+00 0.  1.
         22    1    1    0    0    0  0.34511684806E+01  0.15188526763E+02 -0.23835418376E+02  0.28473304660E+02  0.00000000000E+00 0.  1.
</event>
<event>
 5    1  0.1250806E-009  0.9118800E+02  0.7561462E-02  0.1125453E+00
         25   -1    0    0    0    0  0.00000000000E+00  0.00000000000E+00  0.99999998245E-14  0.12509000000E+03  0.12509000000E+03 0.  0.
        -13    1    3    3    0    0 -0.29410050851E+02 -0.34993544123E+02 -0.33971906670E+02  0.56952619151E+02  0.10566000000E+00 0.  1.
         23    2    1    0    0    0  0.40623534891E+01 -0.18868440453E+02 -0.21624666309E+02  0.96104711422E+02  0.91629518189E+02 0.  0.
         13    1    3    3    0    0  0.33472404340E+02  0.16125103670E+02  0.12347240361E+02  0.39152092271E+02  0.10566000000E+00 0. -1.
         22    1    1    0    0    0 -0.40623534891E+01  0.18868440453E+02  0.21624666309E+02  0.28985288578E+02  0.00000000000E+00 0.  1.
</event>
<event>
 5    1  0.1250806E-009  0.9118800E+02  0.7561462E-02  0.1125453E+00
         25   -1    0    0    0    0  0.00000000000E+00  0.00000000000E+00  0.99999998245E-14  0.12509000000E+03  0.12509000000E+03 0.  0.
        -13    1    3    3    0    0 -0.13328434147E+01  0.92288466891E+01 -0.41277942088E+02  0.42318172808E+02  0.10566000000E+00 0. -1.
         23    2    1    0    0    0 -0.32400846876E+02 -0.79167773984E+01 -0.83974894182E+01  0.90695115625E+02  0.83920175923E+02 0.  0.
         13    1    3    3    0    0 -0.31068003462E+02 -0.17145624087E+02  0.32880452670E+02  0.48376942816E+02  0.10566000000E+00 0.  1.
         22    1    1    0    0    0  0.32400846876E+02  0.79167773984E+01  0.83974894182E+01  0.34394884375E+02  0.00000000000E+00 0. -1.
</event>
<event>
 5    1  0.1250806E-009  0.9118800E+02  0.7561462E-02  0.1125453E+00
         25   -1    0    0    0    0  0.00000000000E+00  0.00000000000E+00  0.99999998245E-14  0.12509000000E+03  0.12509000000E+03 0.  0.
        -13    1    3    3    0    0  0.32720032092E+02 -0.61374286100E+01  0.10594629574E+02  0.34936025388E+02  0.10566000000E+00 0. -1.
         23    2    1    0    0    0 -0.25017229750E+02  0.13564565178E+02  0.49719985498E+01  0.96200902014E+02  0.91760740875E+02 0.  0.
         13    1    3    3    0    0 -0.57737261843E+02  0.19701993788E+02 -0.56226310242E+01  0.61264876626E+02  0.10566000000E+00 0.  1.
         22    1    1    0    0    0  0.25017229750E+02 -0.13564565178E+02 -0.49719985498E+01  0.28889097986E+02  0.00000000000E+00 0.  1.
</event>
<event>
 5    1  0.1250806E-009  0.9118800E+02  0.7561462E-02  0.1125453E+00
         25   -1    0    0    0    0  0.00000000000E+00  0.00000000000E+00  0.99999998245E-14  0.12509000000E+03  0.12509000000E+03 0.  0.
        -13    1    3    3    0    0 -0.44310157723E+02 -0.22461951919E+02  0.26498059774E+02  0.56303531837E+02  0.10566000000E+00 0. -1.
         23    2    1    0    0    0 -0.18762788623E+02  0.82648096678E+01  0.19350664377E+02  0.96897846347E+02  0.92705960429E+02 0.  0.
         13    1    3    3    0    0  0.25547369100E+02  0.30726761587E+02 -0.71473953975E+01  0.40594314510E+02  0.10566000000E+00 0.  1.
         22    1    1    0    0    0  0.18762788623E+02 -0.82648096678E+01 -0.19350664377E+02  0.28192153653E+02  0.00000000000E+00 0. -1.
</event>
<event>
 5    1  0.1250806E-009  0.9118800E+02  0.7561462E-02  0.1125453E+00
         25   -1    0    0    0    0  0.00000000000E+00  0.00000000000E+00  0.99999998245E-14  0.12509000000E+03  0.12509000000E+03 0.  0.
        -13    1    3    3    0    0  0.11703533661E+02  0.14642646853E+02  0.35251646109E+02  0.39925800236E+02  0.10566000000E+00 0. -1.
         23    2    1    0    0    0 -0.25563534240E+02 -0.14861785281E+02  0.92403820986E+01  0.94110141932E+02  0.88864881750E+02 0.  0.
         13    1    3    3    0    0 -0.37267067902E+02 -0.29504432134E+02 -0.26011264011E+02  0.54184341696E+02  0.10566000000E+00 0.  1.
         22    1    1    0    0    0  0.25563534240E+02  0.14861785281E+02 -0.92403820986E+01  0.30979858068E+02  0.00000000000E+00 0.  1.
</event>
<event>
 5    1  0.1250806E-009  0.9118800E+02  0.7561462E-02  0.1125453E+00
         25   -1    0    0    0    0  0.00000000000E+00  0.00000000000E+00  0.99999998245E-14  0.12509000000E+03  0.12509000000E+03 0.  0.
        -13    1    3    3    0    0 -0.12707948931E+02  0.58794969438E+01 -0.30196098318E+02  0.33284770812E+02  0.10566000000E+00 0. -1.
         23    2    1    0    0    0  0.87451356586E+00 -0.55255889398E+01  0.29244587742E+02  0.95315131079E+02  0.90545189785E+02 0.  0.
         13    1    3    3    0    0  0.13582462497E+02 -0.11405085884E+02  0.59440686060E+02  0.62030360266E+02  0.10566000000E+00 0.  1.
         22    1    1    0    0    0 -0.87451356586E+00  0.55255889398E+01 -0.29244587742E+02  0.29774868921E+02  0.00000000000E+00 0.  1.
</event>
<event>
 5    1  0.1250806E-009  0.9118800E+02  0.7561462E-02  0.1125453E+00
         25   -1    0    0    0    0  0.00000000000E+00  0.00000000000E+00  0.99999998245E-14  0.12509000000E+03  0.12509000000E+03 0.  0.
        -13    1    3    3    0    0 -0.38232455950E+02 -0.90493496631E+01  0.46951258039E+01  0.39568507524E+02  0.10566000000E+00 0.  1.
         23    2    1    0    0    0  0.59131109599E+01  0.19984405995E+02 -0.18452632711E+02  0.97254033730E+02  0.93185331779E+02 0.  0.
         13    1    3    3    0    0  0.44145566910E+02  0.29033755658E+02 -0.23147758515E+02  0.57685526207E+02  0.10566000000E+00 0. -1.
         22    1    1    0    0    0 -0.59131109599E+01 -0.19984405995E+02  0.18452632711E+02  0.27835966270E+02  0.00000000000E+00 0. -1.
</event>
<event>
 5    1  0.1250806E-009  0.9118800E+02  0.7561462E-02  0.1125453E+00
         25   -1    0    0    0    0  0.00000000000E+00  0.00000000000E+00  0.99999998245E-14  0.12509000000E+03  0.12509000000E+03 0.  0.
        -13    1    3    3    0    0  0.24502614621E+02  0.41457300418E+02 -0.19763387048E+02  0.52054668502E+02  0.10566000000E+00 0.  1.
         23    2    1    0    0    0 -0.10497244155E+02  0.28265847193E+02  0.11656153531E+01  0.94915359794E+02  0.89991202978E+02 0.  0.
         13    1    3    3    0    0 -0.34999858776E+02 -0.13191453225E+02  0.20929002401E+02  0.42860691293E+02  0.10566000000E+00 0. -1.
         22    1    1    0    0    0  0.10497244155E+02 -0.28265847193E+02 -0.11656153531E+01  0.30174640206E+02  0.00000000000E+00 0.  1.
</event>
<event>
 5    1  0.1250806E-009  0.9118800E+02  0.7561462E-02  0.1125453E+00
         25   -1    0    0    0    0  0.00000000000E+00  0.00000000000E+00  0.99999998245E-14  0.12509000000E+03  0.12509000000E+03 0.  0.
        -13    1    3    3    0    0  0.35497591715E+02 -0.20572337380E+02 -0.71295250528E+01  0.41643023117E+02  0.10566000000E+00 0. -1.
         23    2    1    0    0    0  0.13554864917E+02  0.27258469994E+02 -0.90482885690E+00  0.94633846852E+02  0.89599038530E+02 0.  0.
         13    1    3    3    0    0 -0.21942726798E+02  0.47830807374E+02  0.62246961959E+01  0.52990823735E+02  0.10566000000E+00 0.  1.
         22    1    1    0    0    0 -0.13554864917E+02 -0.27258469994E+02  0.90482885690E+00  0.30456153148E+02  0.00000000000E+00 0.  1.
</event>
<event>
 5    1  0.1250806E-009  0.9118800E+02  0.7561462E-02  0.1125453E+00
         25   -1    0    0    0    0  0.00000000000E+00  0.00000000000E+00  0.99999998245E-14  0.12509000000E+03  0.12509000000E+03 0.  0.
        -13    1    3    3    0    0 -0.23811451516E+02  0.32744306167E+02  0.84395225127E+00  0.40495656916E+02  0.10566000000E+00 0.  1.
         23    2    1    0    0    0 -0.37546287577E+02 -0.94814508306E+01  0.82055091654E+01  0.85505255447E+02  0.75790479005E+02 0.  0.
         13    1    3    3    0    0 -0.13734836061E+02 -0.42225756998E+02  0.73615569141E+01  0.45009598531E+02  0.10566000000E+00 0. -1.
         22    1    1    0    0    0  0.37546287577E+02  0.94814508306E+01 -0.82055091654E+01  0.39584744553E+02  0.00000000000E+00 0.  1.
</event>
<event>
 5    1  0.1250806E-009  0.9118800E+02  0.7561462E-02  0.1125453E+00
         25   -1    0    0    0    0  0.00000000000E+00  0.00000000000E+00  0.99999998245E-14  0.12509000000E+03  0.12509000000E+03 0.  0.
        -13    1    3    3    0    0 -0.22937963870E+01 -0.57321281037E+02 -0.16780544090E+00  0.57367500245E+02  0.10566000000E+00 0. -1.
         23    2    1    0    0    0 -0.16584012798E+02 -0.23385144623E+02  0.84834481753E+01  0.95192452233E+02  0.90375547576E+02 0.  0.
         13    1    3    3    0    0 -0.14290216411E+02  0.33936136414E+02  0.86512536162E+01  0.37824951989E+02  0.10566000000E+00 0.  1.
         22    1    1    0    0    0  0.16584012798E+02  0.23385144623E+02 -0.84834481753E+01  0.29897547767E+02  0.00000000000E+00 0. -1.
</event>
<event>
 5    1  0.1250806E-009  0.9118800E+02  0.7561462E-02  0.1125453E+00
         25   -1    0    0    0    0  0.00000000000E+00  0.00000000000E+00  0.99999998245E-14  0.12509000000E+03  0.12509000000E+03 0.  0.
        -13    1    3    3    0    0  0.32307299915E+02  0.30802376303E+02  0.10030630342E+01  0.44649359606E+02  0.10566000000E+00 0.  1.
         23    2    1    0    0    0  0.12205792963E+02 -0.68513780617E+01  0.27036088719E+02  0.94645413348E+02  0.89615185161E+02 0.  0.
         13    1    3    3    0    0 -0.20101506952E+02 -0.37653754365E+02  0.26033025684E+02  0.49996053742E+02  0.10566000000E+00 0. -1.
         22    1    1    0    0    0 -0.12205792963E+02  0.68513780617E+01 -0.27036088719E+02  0.30444586652E+02  0.00000000000E+00 0. -1.
</event>
<event>
 5    1  0.1250806E-009  0.9118800E+02  0.7561462E-02  0.1125453E+00
         25   -1    0    0    0    0  0.00000000000E+00  0.00000000000E+00  0.99999998245E-14  0.12509000000E+03  0.12509000000E+03 0.  0.
        -13    1    3    3    0    0 -0.55144832238E+02 -0.17137060713E+02 -0.15605384912E+02  0.59817811517E+02  0.10566000000E+00 0.  1.
         23    2    1    0    0    0 -0.28520950236E+02  0.29664709942E+01 -0.13902239718E+02  0.93222825326E+02  0.87606953720E+02 0.  0.
         13    1    3    3    0    0  0.26623882002E+02  0.20103531707E+02  0.17031451934E+01  0.33405013809E+02  0.10566000000E+00 0. -1.
         22    1    1    0    0    0  0.28520950236E+02 -0.29664709942E+01  0.13902239718E+02  0.31867174674E+02  0.00000000000E+00 0. -1.
</event>
<event>
 5    1  0.1250806E-009  0.9118800E+02  0.7561462E-02  0.1125453E+00
         25   -1    0    0    0    0  0.00000000000E+00  0.00000000000E+00  0.99999998245E-14  0.12509000000E+03  0.12509000000E+03 0.  0.
        -13    1    3    3    0    0 -0.38518227884E+02 -0.11101271931E+02 -0.12921251472E+02  0.42117241380E+02  0.10566000000E+00 0.  1.
         23    2    1    0    0    0 -0.78332895845E+01  0.27120958136E+02  0.84990903620E+01  0.95608796956E+02  0.90949990228E+02 0.  0.
         13    1    3    3    0    0  0.30684938300E+02  0.38222230066E+02  0.21420341834E+02  0.53491555577E+02  0.10566000000E+00 0. -1.
         22    1    1    0    0    0  0.78332895845E+01 -0.27120958136E+02 -0.84990903620E+01  0.29481203044E+02  0.00000000000E+00 0. -1.
</event>
<event>
 5    1  0.1250806E-009  0.9118800E+02  0.7561462E-02  0.1125453E+00
         25   -1    0    0    0    0  0.00000000000E+00  0.00000000000E+00  0.99999998245E-14  0.12509000000E+03  0.12509000000E+03 0.  0.
        -13    1    3    3    0    0  0.33660942354E+02  0.13433886125E+02  0.12114090079E+02  0.38213749869E+02  0.10566000000E+00 0. -1.
         23    2    1    0    0    0 -0.22444380715E+02  0.15412634521E+00  0.18205047046E+02  0.96190212483E+02  0.91746167544E+02 0.  0.
         13    1    3    3    0    0 -0.56105323069E+02 -0.13279759780E+02  0.60909569671E+01  0.57976462614E+02  0.10566000000E+00 0.  1.
         22    1    1    0    0    0  0.22444380715E+02 -0.15412634521E+00 -0.18205047046E+02  0.28899787517E+02  0.00000000000E+00 0.  1.
</event>
<event>
 5    1  0.1250806E-009  0.9118800E+02  0.7561462E-02  0.1125453E+00
         25   -1    0    0    0    0  0.00000000000E+00  0.00000000000E+00  0.99999998245E-14  0.12509000000E+03  0.12509000000E+03 0.  0.
        -13    1    3    3    0    0  0.73896358238E+01  0.37323628711E+02 -0.46451012083E+02  0.60044713883E+02  0.10566000000E+00 0. -1.
         23    2    1    0    0    0  0.11212764825E+02  0.27007873384E+02 -0.17512018827E+02  0.91004488076E+02  0.84380061192E+02 0.  0.
         13    1    3    3    0    0  0.38231290012E+01 -0.10315755327E+02  0.28938993256E+02  0.30959774192E+02  0.10566000000E+00 0.  1.
         22    1    1    0    0    0 -0.11212764825E+02 -0.27007873384E+02  0.17512018827E+02  0.34085511924E+02  0.00000000000E+00 0. -1.
</event>
<event>
 5    1  0.1250806E-009  0.9118800E+02  0.7561462E-02  0.1125453E+00
         25   -1    0    0    0    0  0.00000000000E+00  0.00000000000E+00  0.99999998245E-14  0.12509000000E+03  0.12509000000E+03 0.  0.
        -13    1    3    3    0    0 -0.33974374668E+02  0.63664691200E+01  0.18716487684E+02  0.39307863569E+02  0.10566000000E+00 0.  1.
         23    2    1    0    0    0 -0.87969190553E+00 -0.59860594755E+01 -0.27191413077E+02  0.97233587614E+02  0.93157881305E+02 0.  0.
         13    1    3    3    0    0  0.33094682762E+02 -0.12352528595E+02 -0.45907900761E+02  0.57925724045E+02  0.10566000000E+00 0. -1.
         22    1    1    0    0    0  0.87969190553E+00  0.59860594755E+01  0.27191413077E+02  0.27856412386E+02  0.00000000000E+00 0. -1.
</event>
<event>
 5    1  0.1250806E-009  0.9118800E+02  0.7561462E-02  0.1125453E+00
         25   -1    0    0    0    0  0.00000000000E+00  0.00000000000E+00  0.99999998245E-14  0.12509000000E+03  0.12509000000E+03 0.  0.
        -13    1    3    3    0    0 -0.22674934296E+02 -0.11411160471E+02  0.35177888758E+02  0.43380436260E+02  0.10566000000E+00 0.  1.
         23    2    1    0    0    0 -0.34154160968E+02 -0.57310569653E+01 -0.89425850309E+01  0.89322395210E+02  0.81848449794E+02 0.  0.
         13    1    3    3    0    0 -0.11479226671E+02  0.56801035056E+01 -0.44120473789E+02  0.45941958950E+02  0.10566000000E+00 0. -1.
         22    1    1    0    0    0  0.34154160968E+02  0.57310569653E+01  0.89425850309E+01  0.35767604790E+02  0.00000000000E+00 0.  1.
</event>
<event>
 5    1  0.1250806E-009  0.9118800E+02  0.7561462E-02  0.1125453E+00
         25   -1    0    0    0    0  0.00000000000E+00  0.00000000000E+00  0.99999998245E-14  0.12509000000E+03  0.12509000000E+03 0.  0.
        -13    1    3    3    0    0  0.30209462767E+02  0.28687826774E+01  0.23571022008E+02  0.38424546806E+02  0.10566000000E+00 0. -1.
         23    2    1    0    0    0  0.10460225782E+02  0.14592339288E+02 -0.26251557097E+02  0.93285960330E+02  0.87697054998E+02 0.  0.
         13    1    3    3    0    0 -0.19749236985E+02  0.11723556611E+02 -0.49822579105E+02  0.54861413524E+02  0.10566000000E+00 0.  1.
         22    1    1    0    0    0 -0.10460225782E+02 -0.14592339288E+02  0.26251557097E+02  0.31804039670E+02  0.00000000000E+00 0.  1.
</event>
<event>
 5    1  0.1250806E-009  0.9118800E+02  0.7561462E-02  0.1125453E+00
         25   -1    0    0    0    0  0.00000000000E+00  0.00000000000E+00  0.99999998245E-14  0.12509000000E+03  0.12509000000E+03 0.  0.
        -13    1    3    3    0    0  0.29884458908E+02  0.45696265628E+02  0.17479271511E+00  0.54601019158E+02  0.10566000000E+00 0.  1.
         23    2    1    0    0    0 -0.68152086899E+01  0.25556521094E+02  0.85489868645E+01  0.97293093404E+02  0.93237749907E+02 0.  0.
         13    1    3    3    0    0 -0.36699667598E+02 -0.20139744534E+02  0.83741941494E+01  0.42692074246E+02  0.10566000000E+00 0. -1.
         22    1    1    0    0    0  0.68152086899E+01 -0.25556521094E+02 -0.85489868645E+01  0.27796906596E+02  0.00000000000E+00 0.  1.
</event>
<event>
 5    1  0.1250806E-009  0.9118800E+02  0.7561462E-02  0.1125453E+00
         25   -1    0    0    0    0  0.00000000000E+00  0.00000000000E+00  0.99999998245E-14  0.12509000000E+03  0.12509000000E+03 0.  0.
        -13    1    3    3    0    0  0.22963021806E+02 -0.10191431836E+01  0.50432041055E+02  0.55423288898E+02  0.10566000000E+00 0. -1.
         23    2    1    0    0    0  0.26431825278E+02  0.16112909895E+01  0.89436749724E+01  0.97139562290E+02  0.93031540854E+02 0.  0.
         13    1    3    3    0    0  0.34688034723E+01  0.26304341730E+01 -0.41488366082E+02  0.41716273392E+02  0.10566000000E+00 0.  1.
         22    1    1    0    0    0 -0.26431825278E+02 -0.16112909895E+01 -0.89436749724E+01  0.27950437710E+02  0.00000000000E+00 0. -1.
</event>
<event>
 5    1  0.1250806E-009  0.9118800E+02  0.7561462E-02  0.1125453E+00
         25   -1    0    0    0    0  0.00000000000E+00  0.00000000000E+00  0.99999998245E-14  0.12509000000E+03  0.12509000000E+03 0.  0.
        -13    1    3    3    0    0  0.19146805283E+01  0.17094785049E+02  0.39455355656E+02  0.43042234275E+02  0.10566000000E+00 0.  1.
         23    2    1    0    0    0  0.17778340475E+01  0.26186030841E+02 -0.12663540575E+02  0.95948377448E+02  0.91415846383E+02 0.  0.
         13    1    3    3    0    0 -0.13684648071E+00  0.90912457914E+01 -0.52118896231E+02  0.52906143172E+02  0.10566000000E+00 0. -1.
         22    1    1    0    0    0 -0.17778340475E+01 -0.26186030841E+02  0.12663540575E+02  0.29141622552E+02  0.00000000000E+00 0. -1.
</event>
<event>
 5    1  0.1250806E-009  0.9118800E+02  0.7561462E-02  0.1125453E+00
         25   -1    0    0    0    0  0.00000000000E+00  0.00000000000E+00  0.99999998245E-14  0.12509000000E+03  0.12509000000E+03 0.  0.
        -13    1    3    3    0    0 -0.29811450204E+02 -0.27290265367E+02 -0.26662213921E+02  0.48418653041E+02  0.10566000000E+00 0.  1.
         23    2    1    0    0    0 -0.28846543901E+02 -0.54127287761E+01  0.12421770521E+02  0.93219620167E+02  0.87602377099E+02 0.  0.
         13    1    3    3    0    0  0.96490630342E+00  0.21877536591E+02  0.39083984442E+02  0.44800967126E+02  0.10566000000E+00 0. -1.
         22    1    1    0    0    0  0.28846543901E+02  0.54127287761E+01 -0.12421770521E+02  0.31870379833E+02  0.00000000000E+00 0.  1.
</event>
<event>
 5    1  0.1250806E-009  0.9118800E+02  0.7561462E-02  0.1125453E+00
         25   -1    0    0    0    0  0.00000000000E+00  0.00000000000E+00  0.99999998245E-14  0.12509000000E+03  0.12509000000E+03 0.  0.
        -13    1    3    3    0    0  0.59872744803E+01  0.60209165402E+00  0.35880099298E+02  0.36381350438E+02  0.10566000000E+00 0. -1.
         23    2    1    0    0    0  0.21434107728E+02 -0.13485770446E+02 -0.17897751309E+02  0.94080058360E+02  0.88822524736E+02 0.  0.
         13    1    3    3    0    0  0.15446833247E+02 -0.14087862100E+02 -0.53777850607E+02  0.57698707922E+02  0.10566000000E+00 0.  1.
         22    1    1    0    0    0 -0.21434107728E+02  0.13485770446E+02  0.17897751309E+02  0.31009941640E+02  0.00000000000E+00 0.  1.
</event>
<event>
 5    1  0.1250806E-009  0.9118800E+02  0.7561462E-02  0.1125453E+00
         25   -1    0    0    0    0  0.00000000000E+00  0.00000000000E+00  0.99999998245E-14  0.12509000000E+03  0.12509000000E+03 0.  0.
        -13    1    3    3    0    0 -0.34857963169E+02  0.86704256134E+01  0.34196817839E+02  0.49595235568E+02  0.10566000000E+00 0.  1.
         23    2    1    0    0    0  0.73838253283E+01  0.18111052648E+02  0.24119979055E+02  0.94036747448E+02  0.88761508417E+02 0.  0.
         13    1    3    3    0    0  0.42241788497E+02  0.94406270341E+01 -0.10076838785E+02  0.44441511880E+02  0.10566000000E+00 0. -1.
         22    1    1    0    0    0 -0.73838253283E+01 -0.18111052648E+02 -0.24119979055E+02  0.31053252552E+02  0.00000000000E+00 0. -1.
</event>
<event>
 5    1  0.1250806E-009  0.9118800E+02  0.7561462E-02  0.1125453E+00
         25   -1    0    0    0    0  0.00000000000E+00  0.00000000000E+00  0.99999998245E-14  0.12509000000E+03  0.12509000000E+03 0.  0.
        -13    1    3    3    0    0 -0.26287354717E+01  0.32327906843E+02 -0.39818944216E+02  0.51357212673E+02  0.10566000000E+00 0. -1.
         23    2    1    0    0    0  0.16665058799E+02  0.25509000341E+02 -0.17597614158E+01  0.94569022895E+02  0.89508491485E+02 0.  0.
         13    1    3    3    0    0  0.19293794270E+02 -0.68189065011E+01  0.38059182800E+02  0.43211810222E+02  0.10566000000E+00 0.  1.
         22    1    1    0    0    0 -0.16665058799E+02 -0.25509000341E+02  0.17597614158E+01  0.30520977105E+02  0.00000000000E+00 0. -1.
</event>
<event>
 5    1  0.1250806E-009  0.9118800E+02  0.7561462E-02  0.1125453E+00
         25   -1    0    0    0    0  0.00000000000E+00  0.00000000000E+00  0.99999998245E-14  0.12509000000E+03  0.12509000000E+03 0.  0.
        -13    1    3    3    0    0  0.12868286447E+02  0.22277747694E+02 -0.31428259129E+02  0.40615729396E+02  0.10566000000E+00 0.  1.
         23    2    1    0    0    0  0.77959643026E+01  0.17508984953E+02  0.22808671231E+02  0.95297767844E+02  0.90521198950E+02 0.  0.
         13    1    3    3    0    0 -0.50723221447E+01 -0.47687627409E+01  0.54236930360E+02  0.54682038449E+02  0.10566000000E+00 0. -1.
         22    1    1    0    0    0 -0.77959643026E+01 -0.17508984953E+02 -0.22808671231E+02  0.29792232156E+02  0.00000000000E+00 0. -1.
</event>
<event>
 5    1  0.1250806E-009  0.9118800E+02  0.7561462E-02  0.1125453E+00
         25   -1    0    0    0    0  0.00000000000E+00  0.00000000000E+00  0.99999998245E-14  0.12509000000E+03  0.12509000000E+03 0.  0.
        -13    1    3    3    0    0 -0.78500313736E+01  0.22052553358E+01  0.41277810602E+02  0.42075586221E+02  0.10566000000E+00 0. -1.
         23    2    1    0    0    0  0.29513542291E+02  0.25190438901E+01  0.34115396573E+01  0.95273337485E+02  0.90487432674E+02 0.  0.
         13    1    3    3    0    0  0.37363573665E+02  0.31378855428E+00 -0.37866270945E+02  0.53197751264E+02  0.10566000000E+00 0.  1.
         22    1    1    0    0    0 -0.29513542291E+02 -0.25190438901E+01 -0.34115396573E+01  0.29816662515E+02  0.00000000000E+00 0.  1.
</event>
<event>
 5    1  0.1250806E-009  0.9118800E+02  0.7561462E-02  0.1125453E+00
         25   -1    0    0    0    0  0.00000000000E+00  0.00000000000E+00  0.99999998245E-14  0.12509000000E+03  0.12509000000E+03 0.  0.
        -13    1    3    3    0    0  0.28268216871E+02  0.25429317622E+02 -0.60445070153E+01  0.38500513099E+02  0.10566000000E+00 0. -1.
         23    2    1    0    0    0 -0.14567300525E+02 -0.90297081123E+01 -0.23340572167E+02  0.96132717975E+02  0.91667743961E+02 0.  0.
         13    1    3    3    0    0 -0.42835517396E+02 -0.34459025734E+02 -0.17296065152E+02  0.57632204876E+02  0.10566000000E+00 0.  1.
         22    1    1    0    0    0  0.14567300525E+02  0.90297081123E+01  0.23340572167E+02  0.28957282025E+02  0.00000000000E+00 0.  1.
</event>
<event>
 5    1  0.1250806E-009  0.9118800E+02  0.7561462E-02  0.1125453E+00
         25   -1    0    0    0    0  0.00000000000E+00  0.00000000000E+00  0.99999998245E-14  0.12509000000E+03  0.12509000000E+03 0.  0.
        -13    1    3    3    0    0 -0.14395795895E+02  0.42099343289E+02  0.40453165014E+02  0.60133712412E+02  0.10566000000E+00 0.  1.
         23    2    1    0    0    0 -0.15725462130E+02  0.12136627209E+02  0.22445621232E+02  0.95116782093E+02  0.90270750767E+02 0.  0.
         13    1    3    3    0    0 -0.13296662352E+01 -0.29962716080E+02 -0.18007543782E+02  0.34983069681E+02  0.10566000000E+00 0. -1.
         22    1    1    0    0    0  0.15725462130E+02 -0.12136627209E+02 -0.22445621232E+02  0.29973217907E+02  0.00000000000E+00 0.  1.
</event>
<event>
 5    1  0.1250806E-009  0.9118800E+02  0.7561462E-02  0.1125453E+00
         25   -1    0    0    0    0  0.00000000000E+00  0.00000000000E+00  0.99999998245E-14  0.12509000000E+03  0.12509000000E+03 0.  0.
        -13    1    3    3    0    0 -0.24387403879E+02  0.37890778170E+02 -0.42629240077E+02  0.62029991229E+02  0.10566000000E+00 0.  1.
         23    2    1    0    0    0 -0.10562989687E+02  0.22034812995E+02 -0.16364713177E+02  0.95680587013E+02  0.91048674669E+02 0.  0.
         13    1    3    3    0    0  0.13824414192E+02 -0.15855965174E+02  0.26264526900E+02  0.33650595785E+02  0.10566000000E+00 0. -1.
         22    1    1    0    0    0  0.10562989687E+02 -0.22034812995E+02  0.16364713177E+02  0.29409412987E+02  0.00000000000E+00 0.  1.
</event>
<event>
 5    1  0.1250806E-009  0.9118800E+02  0.7561462E-02  0.1125453E+00
         25   -1    0    0    0    0  0.00000000000E+00  0.00000000000E+00  0.99999998245E-14  0.12509000000E+03  0.12509000000E+03 0.  0.
        -13    1    3    3    0    0  0.32745155569E+02 -0.20508193324E+02  0.36462718076E+02  0.53126002863E+02  0.10566000000E+00 0. -1.
         23    2    1    0    0    0 -0.62803204810E+01 -0.42991268978E+01  0.27805626906E+02  0.96261579907E+02  0.91843420892E+02 0.  0.
         13    1    3    3    0    0 -0.39025476050E+02  0.16209066426E+02 -0.86570911701E+01  0.43135577044E+02  0.10566000000E+00 0.  1.
         22    1    1    0    0    0  0.62803204810E+01  0.42991268978E+01 -0.27805626906E+02  0.28828420093E+02  0.00000000000E+00 0. -1.
</event>
<event>
 5    1  0.1250806E-009  0.9118800E+02  0.7561462E-02  0.1125453E+00
         25   -1    0    0    0    0  0.00000000000E+00  0.00000000000E+00  0.99999998245E-14  0.12509000000E+03  0.12509000000E+03 0.  0.
        -13    1    3    3    0    0  0.24821353294E+02  0.23418090355E+02 -0.13952069991E+02  0.36867030750E+02  0.10566000000E+00 0.  1.
         23    2    1    0    0    0 -0.56327594744E+01 -0.26905105470E+02 -0.10067578806E+02  0.95815970167E+02  0.91234485346E+02 0.  0.
         13    1    3    3    0    0 -0.30454112768E+02 -0.50323195825E+02  0.38844911846E+01  0.58948939417E+02  0.10566000000E+00 0. -1.
         22    1    1    0    0    0  0.56327594744E+01  0.26905105470E+02  0.10067578806E+02  0.29274029833E+02  0.00000000000E+00 0.  1.
</event>
<event>
 5    1  0.1250806E-009  0.9118800E+02  0.7561462E-02  0.1125453E+00
         25   -1    0    0    0    0  0.00000000000E+00  0.00000000000E+00  0.99999998245E-14  0.12509000000E+03  0.12509000000E+03 0.  0.
        -13    1    3    3    0    0  0.19948146437E+01 -0.13403767923E+01 -0.45899144937E+02  0.45962142742E+02  0.10566000000E+00 0. -1.
         23    2    1    0    0    0  0.18570874504E+02 -0.25878402348E+02 -0.11805688971E+02  0.91120257875E+02  0.84551511017E+02 0.  0.
         13    1    3    3    0    0  0.16576059860E+02 -0.24538025556E+02  0.34093455966E+02  0.45158115133E+02  0.10566000000E+00 0.  1.
         22    1    1    0    0    0 -0.18570874504E+02  0.25878402348E+02  0.11805688971E+02  0.33969742125E+02  0.00000000000E+00 0. -1.
</event>
<event>
 5    1  0.1250806E-009  0.9118800E+02  0.7561462E-02  0.1125453E+00
         25   -1    0    0    0    0  0.00000000000E+00  0.00000000000E+00  0.99999998245E-14  0.12509000000E+03  0.12509000000E+03 0.  0.
        -13    1    3    3    0    0 -0.69368288983E+01  0.43312798791E+02 -0.76028596004E+01  0.44518903540E+02  0.10566000000E+00 0.  1.
         23    2    1    0    0    0  0.21304344056E+02  0.34445943969E+02  0.15143433079E+02  0.81849721358E+02  0.69495720655E+02 0.  0.
         13    1    3    3    0    0  0.28241172954E+02 -0.88668548215E+01  0.22746292680E+02  0.37330817818E+02  0.10566000000E+00 0. -1.
         22    1    1    0    0    0 -0.21304344056E+02 -0.34445943969E+02 -0.15143433079E+02  0.43240278642E+02  0.00000000000E+00 0. -1.
</event>
<event>
 5    1  0.1250806E-009  0.9118800E+02  0.7561462E-02  0.1125453E+00
         25   -1    0    0    0    0  0.00000000000E+00  0.00000000000E+00  0.99999998245E-14  0.12509000000E+03  0.12509000000E+03 0.  0.
        -13    1    3    3    0    0  0.13021490211E+02  0.69080534988E+01  0.43376181752E+02  0.45812495215E+02  0.10566000000E+00 0. -1.
         23    2    1    0    0    0 -0.11909988435E+02  0.26328319462E+02  0.46104769361E+01  0.95827656831E+02  0.91250507318E+02 0.  0.
         13    1    3    3    0    0 -0.24931478646E+02  0.19420265963E+02 -0.38765704816E+02  0.50015161615E+02  0.10566000000E+00 0.  1.
         22    1    1    0    0    0  0.11909988435E+02 -0.26328319462E+02 -0.46104769361E+01  0.29262343169E+02  0.00000000000E+00 0.  1.
</event>
<event>
 5    1  0.1250806E-009  0.9118800E+02  0.7561462E-02  0.1125453E+00
         25   -1    0    0    0    0  0.00000000000E+00  0.00000000000E+00  0.99999998245E-14  0.12509000000E+03  0.12509000000E+03 0.  0.
        -13    1    3    3    0    0  0.59631131128E+01  0.47387326670E+01 -0.43421611030E+02  0.44084711339E+02  0.10566000000E+00 0.  1.
         23    2    1    0    0    0  0.26121133912E+02  0.13103973023E+02  0.33274405434E+01  0.95677424350E+02  0.91044329443E+02 0.  0.
         13    1    3    3    0    0  0.20158020799E+02  0.83652403562E+01  0.46749051574E+02  0.51592713011E+02  0.10566000000E+00 0. -1.
         22    1    1    0    0    0 -0.26121133912E+02 -0.13103973023E+02 -0.33274405434E+01  0.29412575650E+02  0.00000000000E+00 0. -1.
</event>
<event>
 5    1  0.1250806E-009  0.9118800E+02  0.7561462E-02  0.1125453E+00
         25   -1    0    0    0    0  0.00000000000E+00  0.00000000000E+00  0.99999998245E-14  0.12509000000E+03  0.12509000000E+03 0.  0.
        -13    1    3    3    0    0  0.65897278599E+01  0.54431500137E+02  0.71569908248E+01  0.55294180545E+02  0.10566000000E+00 0.  1.
         23    2    1    0    0    0  0.16598453069E+02  0.19205650726E+02  0.18554829227E+02  0.93647236894E+02  0.88210870227E+02 0.  0.
         13    1    3    3    0    0  0.10008725209E+02 -0.35225849411E+02  0.11397838402E+02  0.38353056349E+02  0.10566000000E+00 0. -1.
         22    1    1    0    0    0 -0.16598453069E+02 -0.19205650726E+02 -0.18554829227E+02  0.31442763106E+02  0.00000000000E+00 0.  1.
</event>
<event>
 5    1  0.1250806E-009  0.9118800E+02  0.7561462E-02  0.1125453E+00
         25   -1    0    0    0    0  0.00000000000E+00  0.00000000000E+00  0.99999998245E-14  0.12509000000E+03  0.12509000000E+03 0.  0.
        -13    1    3    3    0    0  0.58890957946E+01  0.12619117955E+02  0.28483956200E+02  0.31706001200E+02  0.10566000000E+00 0.  1.
         23    2    1    0    0    0  0.30222219356E+01 -0.60624428738E+01 -0.30605061092E+02  0.93744237871E+02  0.88348318210E+02 0.  0.
         13    1    3    3    0    0 -0.28668738590E+01 -0.18681560829E+02 -0.59089017292E+02  0.62038236671E+02  0.10566000000E+00 0. -1.
         22    1    1    0    0    0 -0.30222219356E+01  0.60624428738E+01  0.30605061092E+02  0.31345762129E+02  0.00000000000E+00 0. -1.
</event>
<event>
 5    1  0.1250806E-009  0.9118800E+02  0.7561462E-02  0.1125453E+00
         25   -1    0    0    0    0  0.00000000000E+00  0.00000000000E+00  0.99999998245E-14  0.12509000000E+03  0.12509000000E+03 0.  0.
        -13    1    3    3    0    0 -0.29993187020E+02  0.44984617498E-01  0.17735952562E+02  0.34844920269E+02  0.10566000000E+00 0.  1.
         23    2    1    0    0    0  0.16213650770E+02  0.12868589109E+02 -0.20334589325E+02  0.96073132837E+02  0.91586397861E+02 0.  0.
         13    1    3    3    0    0  0.46206837790E+02  0.12823604492E+02 -0.38070541887E+02  0.61228212568E+02  0.10566000000E+00 0. -1.
         22    1    1    0    0    0 -0.16213650770E+02 -0.12868589109E+02  0.20334589325E+02  0.29016867163E+02  0.00000000000E+00 0. -1.
</event>
<event>
 5    1  0.1250806E-009  0.9118800E+02  0.7561462E-02  0.1125453E+00
         25   -1    0    0    0    0  0.00000000000E+00  0.00000000000E+00  0.99999998245E-14  0.12509000000E+03  0.12509000000E+03 0.  0.
        -13    1    3    3    0    0 -0.19340852883E+02  0.29630636721E+02  0.30450145423E+01  0.35515158740E+02  0.10566000000E+00 0.  1.
         23    2    1    0    0    0  0.18173212504E+02 -0.12433237420E+02 -0.18971820071E+02  0.96024883413E+02  0.91520474388E+02 0.  0.
         13    1    3    3    0    0  0.37514065387E+02 -0.42063874141E+02 -0.22016834613E+02  0.60509724673E+02  0.10566000000E+00 0. -1.
         22    1    1    0    0    0 -0.18173212504E+02  0.12433237420E+02  0.18971820071E+02  0.29065116587E+02  0.00000000000E+00 0. -1.
</event>
<event>
 5    1  0.1250806E-009  0.9118800E+02  0.7561462E-02  0.1125453E+00
         25   -1    0    0    0    0  0.00000000000E+00  0.00000000000E+00  0.99999998245E-14  0.12509000000E+03  0.12509000000E+03 0.  0.
        -13    1    3    3    0    0  0.21996131283E+02  0.27177248899E+02 -0.43313452607E+01  0.35230730406E+02  0.10566000000E+00 0.  1.
         23    2    1    0    0    0 -0.94146091381E+01 -0.15551522515E+02 -0.26701202019E+02  0.92787695021E+02  0.86983431987E+02 0.  0.
         13    1    3    3    0    0 -0.31410740421E+02 -0.42728771413E+02 -0.22369856758E+02  0.57556964615E+02  0.10566000000E+00 0. -1.
         22    1    1    0    0    0  0.94146091381E+01  0.15551522515E+02  0.26701202019E+02  0.32302304979E+02  0.00000000000E+00 0. -1.
</event>
<event>
 5    1  0.1250806E-009  0.9118800E+02  0.7561462E-02  0.1125453E+00
         25   -1    0    0    0    0  0.00000000000E+00  0.00000000000E+00  0.99999998245E-14  0.12509000000E+03  0.12509000000E+03 0.  0.
        -13    1    3    3    0    0 -0.40200937013E+02  0.45428388177E+02 -0.46040878220E+01  0.60836359011E+02  0.10566000000E+00 0. -1.
         23    2    1    0    0    0 -0.12423163482E+02  0.24935950830E+02  0.52633833732E+01  0.96737930600E+02  0.92489931223E+02 0.  0.
         13    1    3    3    0    0  0.27777773531E+02 -0.20492437347E+02  0.98674711952E+01  0.35901571589E+02  0.10566000000E+00 0.  1.
         22    1    1    0    0    0  0.12423163482E+02 -0.24935950830E+02 -0.52633833732E+01  0.28352069400E+02  0.00000000000E+00 0. -1.
</event>
<event>
 5    1  0.1250806E-009  0.9118800E+02  0.7561462E-02  0.1125453E+00
         25   -1    0    0    0    0  0.00000000000E+00  0.00000000000E+00  0.99999998245E-14  0.12509000000E+03  0.12509000000E+03 0.  0.
        -13    1    3    3    0    0 -0.15122496904E+02 -0.31239429090E+02 -0.48215215022E+02  0.59407995810E+02  0.10566000000E+00 0.  1.
         23    2    1    0    0    0 -0.16132950503E+02 -0.31471819282E+01 -0.16229055154E+02  0.10199110225E+03  0.99340957622E+02 0.  0.
         13    1    3    3    0    0 -0.10104535988E+01  0.28092247161E+02  0.31986159868E+02  0.42583106441E+02  0.10566000000E+00 0. -1.
         22    1    1    0    0    0  0.16132950503E+02  0.31471819282E+01  0.16229055154E+02  0.23098897749E+02  0.00000000000E+00 0.  1.
</event>
<event>
 5    1  0.1250806E-009  0.9118800E+02  0.7561462E-02  0.1125453E+00
         25   -1    0    0    0    0  0.00000000000E+00  0.00000000000E+00  0.99999998245E-14  0.12509000000E+03  0.12509000000E+03 0.  0.
        -13    1    3    3    0    0  0.13883905882E+02 -0.28199886233E+02  0.28278486417E+02  0.42280969527E+02  0.10566000000E+00 0.  1.
         23    2    1    0    0    0  0.28363462772E+00  0.22022276278E+02  0.20707064582E+02  0.94860153413E+02  0.89914431994E+02 0.  0.
         13    1    3    3    0    0 -0.13600271254E+02  0.50222162511E+02 -0.75714218348E+01  0.52579183886E+02  0.10566000000E+00 0. -1.
         22    1    1    0    0    0 -0.28363462772E+00 -0.22022276278E+02 -0.20707064582E+02  0.30229846587E+02  0.00000000000E+00 0. -1.
</event>
<event>
 5    1  0.1250806E-009  0.9118800E+02  0.7561462E-02  0.1125453E+00
         25   -1    0    0    0    0  0.00000000000E+00  0.00000000000E+00  0.99999998245E-14  0.12509000000E+03  0.12509000000E+03 0.  0.
        -13    1    3    3    0    0 -0.32773749789E+02 -0.14686759903E+01 -0.36515173839E+02  0.49088132669E+02  0.10566000000E+00 0.  1.
         23    2    1    0    0    0 -0.16355675522E+02 -0.24302975635E+02  0.76375601364E+00  0.95785971783E+02  0.91193345813E+02 0.  0.
         13    1    3    3    0    0  0.16418074267E+02 -0.22834299645E+02  0.37278929852E+02  0.46697839114E+02  0.10566000000E+00 0. -1.
         22    1    1    0    0    0  0.16355675522E+02  0.24302975635E+02 -0.76375601364E+00  0.29304028217E+02  0.00000000000E+00 0. -1.
</event>
<event>
 5    1  0.1250806E-009  0.9118800E+02  0.7561462E-02  0.1125453E+00
         25   -1    0    0    0    0  0.00000000000E+00  0.00000000000E+00  0.99999998245E-14  0.12509000000E+03  0.12509000000E+03 0.  0.
        -13    1    3    3    0    0  0.41586107883E+02  0.14255041489E+01 -0.15115298749E+02  0.44270982045E+02  0.10566000000E+00 0. -1.
         23    2    1    0    0    0  0.10754389924E+01 -0.28369355761E+02 -0.10694703881E+02  0.94752669754E+02  0.89764774935E+02 0.  0.
         13    1    3    3    0    0 -0.40510668890E+02 -0.29794859910E+02  0.44205948679E+01  0.50481687710E+02  0.10566000000E+00 0.  1.
         22    1    1    0    0    0 -0.10754389924E+01  0.28369355761E+02  0.10694703881E+02  0.30337330246E+02  0.00000000000E+00 0.  1.
</event>
<event>
 5    1  0.1250806E-009  0.9118800E+02  0.7561462E-02  0.1125453E+00
         25   -1    0    0    0    0  0.00000000000E+00  0.00000000000E+00  0.99999998245E-14  0.12509000000E+03  0.12509000000E+03 0.  0.
        -13    1    3    3    0    0 -0.19693056503E+02  0.10415847226E+02  0.37309841601E+02  0.43455054852E+02  0.10566000000E+00 0.  1.
         23    2    1    0    0    0  0.14002010144E+02 -0.21816126232E+02  0.14905235885E+02  0.95187396290E+02  0.90368549307E+02 0.  0.
         13    1    3    3    0    0  0.33695066647E+02 -0.32231973458E+02 -0.22404605716E+02  0.51732341438E+02  0.10566000000E+00 0. -1.
         22    1    1    0    0    0 -0.14002010144E+02  0.21816126232E+02 -0.14905235885E+02  0.29902603710E+02  0.00000000000E+00 0. -1.
</event>
<event>
 5    1  0.1250806E-009  0.9118800E+02  0.7561462E-02  0.1125453E+00
         25   -1    0    0    0    0  0.00000000000E+00  0.00000000000E+00  0.99999998245E-14  0.12509000000E+03  0.12509000000E+03 0.  0.
        -13    1    3    3    0    0  0.95207399770E+01  0.34426364164E+02  0.10482399370E+02  0.37225138010E+02  0.10566000000E+00 0.  1.
         23    2    1    0    0    0 -0.24445654603E+02 -0.13476456865E+02  0.82150192000E+01  0.95992036857E+02  0.91475568766E+02 0.  0.
         13    1    3    3    0    0 -0.33966394580E+02 -0.47902821029E+02 -0.22673801703E+01  0.58766898848E+02  0.10566000000E+00 0. -1.
         22    1    1    0    0    0  0.24445654603E+02  0.13476456865E+02 -0.82150192000E+01  0.29097963143E+02  0.00000000000E+00 0. -1.
</event>
<event>
 5    1  0.1250806E-009  0.9118800E+02  0.7561462E-02  0.1125453E+00
         25   -1    0    0    0    0  0.00000000000E+00  0.00000000000E+00  0.99999998245E-14  0.12509000000E+03  0.12509000000E+03 0.  0.
        -13    1    3    3    0    0  0.13965714630E+00 -0.40641861965E+02 -0.23528623407E+01  0.40710288298E+02  0.10566000000E+00 0. -1.
         23    2    1    0    0    0 -0.48359041174E+01  0.58837538030E+01  0.27727144597E+02  0.96335885948E+02  0.91944569423E+02 0.  0.
         13    1    3    3    0    0 -0.49755612637E+01  0.46525615768E+02  0.30080006937E+02  0.55625597650E+02  0.10566000000E+00 0.  1.
         22    1    1    0    0    0  0.48359041174E+01 -0.58837538030E+01 -0.27727144597E+02  0.28754114052E+02  0.00000000000E+00 0.  1.
</event>
<event>
 5    1  0.1250806E-009  0.9118800E+02  0.7561462E-02  0.1125453E+00
         25   -1    0    0    0    0  0.00000000000E+00  0.00000000000E+00  0.99999998245E-14  0.12509000000E+03  0.12509000000E+03 0.  0.
        -13    1    3    3    0    0  0.30493751950E+02  0.11242131983E+02 -0.17384881192E+02  0.36857830886E+02  0.10566000000E+00 0. -1.
         23    2    1    0    0    0 -0.25183498041E+02  0.14923570306E+02  0.15335103859E+01  0.95776638228E+02  0.91180542069E+02 0.  0.
         13    1    3    3    0    0 -0.55677249991E+02  0.36814383224E+01  0.18918391578E+02  0.58918807342E+02  0.10566000000E+00 0.  1.
         22    1    1    0    0    0  0.25183498041E+02 -0.14923570306E+02 -0.15335103859E+01  0.29313361772E+02  0.00000000000E+00 0.  1.
</event>
<event>
 5    1  0.1250806E-009  0.9118800E+02  0.7561462E-02  0.1125453E+00
         25   -1    0    0    0    0  0.00000000000E+00  0.00000000000E+00  0.99999998245E-14  0.12509000000E+03  0.12509000000E+03 0.  0.
        -13    1    3    3    0    0  0.37772477655E+01 -0.36665310871E+02 -0.15707775073E+02  0.40066918820E+02  0.10566000000E+00 0.  1.
         23    2    1    0    0    0  0.20118229241E+00  0.18617036426E+02 -0.22506800364E+02  0.95880573744E+02  0.91323019219E+02 0.  0.
         13    1    3    3    0    0 -0.35760654731E+01  0.55282347297E+02 -0.67990252903E+01  0.55813654923E+02  0.10566000000E+00 0. -1.
         22    1    1    0    0    0 -0.20118229241E+00 -0.18617036426E+02  0.22506800364E+02  0.29209426256E+02  0.00000000000E+00 0. -1.
</event>
<event>
 5    1  0.1250806E-009  0.9118800E+02  0.7561462E-02  0.1125453E+00
         25   -1    0    0    0    0  0.00000000000E+00  0.00000000000E+00  0.99999998245E-14  0.12509000000E+03  0.12509000000E+03 0.  0.
        -13    1    3    3    0    0 -0.47643812209E+02  0.83070468593E+01  0.28053806580E+02  0.55910348746E+02  0.10566000000E+00 0.  1.
         23    2    1    0    0    0 -0.84404681560E+01  0.12669206014E+02  0.25440921705E+02  0.95442221316E+02  0.90720597599E+02 0.  0.
         13    1    3    3    0    0  0.39203344053E+02  0.43621591548E+01 -0.26128848746E+01  0.39531872569E+02  0.10566000000E+00 0. -1.
         22    1    1    0    0    0  0.84404681560E+01 -0.12669206014E+02 -0.25440921705E+02  0.29647778684E+02  0.00000000000E+00 0.  1.
</event>
<event>
 5    1  0.1250806E-009  0.9118800E+02  0.7561462E-02  0.1125453E+00
         25   -1    0    0    0    0  0.00000000000E+00  0.00000000000E+00  0.99999998245E-14  0.12509000000E+03  0.12509000000E+03 0.  0.
        -13    1    3    3    0    0 -0.24842960307E+02  0.23397256547E+02 -0.30629056028E+02  0.45855801465E+02  0.10566000000E+00 0. -1.
         23    2    1    0    0    0  0.97728828312E+00  0.28027094492E+02  0.10921581672E+02  0.94994251725E+02  0.90100797979E+02 0.  0.
         13    1    3    3    0    0  0.25820248590E+02  0.46298379449E+01  0.41550637700E+02  0.49138450260E+02  0.10566000000E+00 0.  1.
         22    1    1    0    0    0 -0.97728828312E+00 -0.28027094492E+02 -0.10921581672E+02  0.30095748275E+02  0.00000000000E+00 0. -1.
</event>
<event>
 5    1  0.1250806E-009  0.9118800E+02  0.7561462E-02  0.1125453E+00
         25   -1    0    0    0    0  0.00000000000E+00  0.00000000000E+00  0.99999998245E-14  0.12509000000E+03  0.12509000000E+03 0.  0.
        -13    1    3    3    0    0  0.57019746947E+01 -0.64145377074E+01 -0.39820437892E+02  0.40734963451E+02  0.10566000000E+00 0. -1.
         23    2    1    0    0    0 -0.24487364658E+02 -0.10231756696E+02  0.79603423202E+01  0.97382836254E+02  0.93358073427E+02 0.  0.
         13    1    3    3    0    0 -0.30189339353E+02 -0.38172189887E+01  0.47780780212E+02  0.56647872803E+02  0.10566000000E+00 0.  1.
         22    1    1    0    0    0  0.24487364658E+02  0.10231756696E+02 -0.79603423202E+01  0.27707163746E+02  0.00000000000E+00 0.  1.
</event>
<event>
 5    1  0.1250806E-009  0.9118800E+02  0.7561462E-02  0.1125453E+00
         25   -1    0    0    0    0  0.00000000000E+00  0.00000000000E+00  0.99999998245E-14  0.12509000000E+03  0.12509000000E+03 0.  0.
        -13    1    3    3    0    0 -0.32712688653E+02  0.42925448075E+02 -0.20558796564E+02  0.57752829987E+02  0.10566000000E+00 0. -1.
         23    2    1    0    0    0 -0.18632471518E+01  0.26993889498E+02 -0.18050175432E+02  0.92563847548E+02  0.86660921295E+02 0.  0.
         13    1    3    3    0    0  0.30849441501E+02 -0.15931558577E+02  0.25086211316E+01  0.34811017561E+02  0.10566000000E+00 0.  1.
         22    1    1    0    0    0  0.18632471518E+01 -0.26993889498E+02  0.18050175432E+02  0.32526152452E+02  0.00000000000E+00 0. -1.
</event>
<event>
 5    1  0.1250806E-009  0.9118800E+02  0.7561462E-02  0.1125453E+00
         25   -1    0    0    0    0  0.00000000000E+00  0.00000000000E+00  0.99999998245E-14  0.12509000000E+03  0.12509000000E+03 0.  0.
        -13    1    3    3    0    0  0.11703785993E+02 -0.36026934600E+02 -0.24770267613E+01  0.37961367848E+02  0.10566000000E+00 0. -1.
         23    2    1    0    0    0  0.15044214723E+02  0.17268372219E+02 -0.20532406699E+02  0.94331183368E+02  0.89175486290E+02 0.  0.
         13    1    3    3    0    0  0.33404287293E+01  0.53295306820E+02 -0.18055379938E+02  0.56369815521E+02  0.10566000000E+00 0.  1.
         22    1    1    0    0    0 -0.15044214723E+02 -0.17268372219E+02  0.20532406699E+02  0.30758816632E+02  0.00000000000E+00 0.  1.
</event>
<event>
 5    1  0.1250806E-009  0.9118800E+02  0.7561462E-02  0.1125453E+00
         25   -1    0    0    0    0  0.00000000000E+00  0.00000000000E+00  0.99999998245E-14  0.12509000000E+03  0.12509000000E+03 0.  0.
        -13    1    3    3    0    0  0.13301355676E+02 -0.19086469313E+02  0.55886299625E+02  0.60535188308E+02  0.10566000000E+00 0.  1.
         23    2    1    0    0    0  0.14193784309E+02 -0.13288828642E+02  0.18933430695E+02  0.97950890258E+02  0.94116128399E+02 0.  0.
         13    1    3    3    0    0  0.89242863377E+00  0.57976406709E+01 -0.36952868930E+02  0.37415701950E+02  0.10566000000E+00 0. -1.
         22    1    1    0    0    0 -0.14193784309E+02  0.13288828642E+02 -0.18933430695E+02  0.27139109742E+02  0.00000000000E+00 0.  1.
</event>
<event>
 5    1  0.1250806E-009  0.9118800E+02  0.7561462E-02  0.1125453E+00
         25   -1    0    0    0    0  0.00000000000E+00  0.00000000000E+00  0.99999998245E-14  0.12509000000E+03  0.12509000000E+03 0.  0.
        -13    1    3    3    0    0 -0.42732835736E+02 -0.82080095446E+01  0.13188296295E+02  0.45468769435E+02  0.10566000000E+00 0.  1.
         23    2    1    0    0    0 -0.14232647942E+02  0.16758319133E+02 -0.19645583412E+02  0.95605114462E+02  0.90944925290E+02 0.  0.
         13    1    3    3    0    0  0.28500187794E+02  0.24966328677E+02 -0.32833879707E+02  0.50136345026E+02  0.10566000000E+00 0. -1.
         22    1    1    0    0    0  0.14232647942E+02 -0.16758319133E+02  0.19645583412E+02  0.29484885538E+02  0.00000000000E+00 0. -1.
</event>
<event>
 5    1  0.1250806E-009  0.9118800E+02  0.7561462E-02  0.1125453E+00
         25   -1    0    0    0    0  0.00000000000E+00  0.00000000000E+00  0.99999998245E-14  0.12509000000E+03  0.12509000000E+03 0.  0.
        -13    1    3    3    0    0  0.22092284494E+02  0.45733544967E+02  0.28375659973E+01  0.50869333731E+02  0.10566000000E+00 0. -1.
         23    2    1    0    0    0  0.33436776263E+02  0.76680196622E+01  0.36002408561E+01  0.90596837393E+02  0.83773555965E+02 0.  0.
         13    1    3    3    0    0  0.11344491769E+02 -0.38065525305E+02  0.76267485881E+00  0.39727503662E+02  0.10566000000E+00 0.  1.
         22    1    1    0    0    0 -0.33436776263E+02 -0.76680196622E+01 -0.36002408561E+01  0.34493162607E+02  0.00000000000E+00 0. -1.
</event>
<event>
 5    1  0.1250806E-009  0.9118800E+02  0.7561462E-02  0.1125453E+00
         25   -1    0    0    0    0  0.00000000000E+00  0.00000000000E+00  0.99999998245E-14  0.12509000000E+03  0.12509000000E+03 0.  0.
        -13    1    3    3    0    0 -0.13175168284E+02 -0.55849951599E+02  0.47907662914E+00  0.57385040136E+02  0.10566000000E+00 0. -1.
         23    2    1    0    0    0 -0.11114437338E+02 -0.20642171556E+02  0.16801276110E+02  0.96247100652E+02  0.91823698145E+02 0.  0.
         13    1    3    3    0    0  0.20607309458E+01  0.35207780043E+02  0.16322199481E+02  0.38862060516E+02  0.10566000000E+00 0.  1.
         22    1    1    0    0    0  0.11114437338E+02  0.20642171556E+02 -0.16801276110E+02  0.28842899348E+02  0.00000000000E+00 0. -1.
</event>
<event>
 5    1  0.1250806E-009  0.9118800E+02  0.7561462E-02  0.1125453E+00
         25   -1    0    0    0    0  0.00000000000E+00  0.00000000000E+00  0.99999998245E-14  0.12509000000E+03  0.12509000000E+03 0.  0.
        -13    1    3    3    0    0 -0.31316637483E+02  0.36841029415E+02 -0.80562580451E+01  0.49019462353E+02  0.10566000000E+00 0.  1.
         23    2    1    0    0    0 -0.27404225578E+02 -0.47326263052E+01  0.11333842908E+02  0.95059260309E+02  0.90191006449E+02 0.  0.
         13    1    3    3    0    0  0.39124119051E+01 -0.41573655720E+02  0.19390100953E+02  0.46039797957E+02  0.10566000000E+00 0. -1.
         22    1    1    0    0    0  0.27404225578E+02  0.47326263052E+01 -0.11333842908E+02  0.30030739691E+02  0.00000000000E+00 0.  1.
</event>
<event>
 5    1  0.1250806E-009  0.9118800E+02  0.7561462E-02  0.1125453E+00
         25   -1    0    0    0    0  0.00000000000E+00  0.00000000000E+00  0.99999998245E-14  0.12509000000E+03  0.12509000000E+03 0.  0.
        -13    1    3    3    0    0  0.21550207436E+02  0.34447173583E+02 -0.76521867962E+01  0.41347144221E+02  0.10566000000E+00 0.  1.
         23    2    1    0    0    0 -0.76452153076E+01 -0.10973456798E+02 -0.23873365332E+02  0.97725723224E+02  0.93816380959E+02 0.  0.
         13    1    3    3    0    0 -0.29195422744E+02 -0.45420630381E+02 -0.16221178535E+02  0.56378579004E+02  0.10566000000E+00 0. -1.
         22    1    1    0    0    0  0.76452153076E+01  0.10973456798E+02  0.23873365332E+02  0.27364276776E+02  0.00000000000E+00 0. -1.
</event>
<event>
 5    1  0.1250806E-009  0.9118800E+02  0.7561462E-02  0.1125453E+00
         25   -1    0    0    0    0  0.00000000000E+00  0.00000000000E+00  0.99999998245E-14  0.12509000000E+03  0.12509000000E+03 0.  0.
        -13    1    3    3    0    0 -0.18110803659E+02 -0.48833301264E+02 -0.29373651594E+01  0.52166385725E+02  0.10566000000E+00 0.  1.
         23    2    1    0    0    0 -0.22365275882E+00 -0.14857967919E+02 -0.24672812145E+02  0.96287970724E+02  0.91879357942E+02 0.  0.
         13    1    3    3    0    0  0.17887150900E+02  0.33975333344E+02 -0.21735446985E+02  0.44121585000E+02  0.10566000000E+00 0. -1.
         22    1    1    0    0    0  0.22365275882E+00  0.14857967919E+02  0.24672812145E+02  0.28802029276E+02  0.00000000000E+00 0. -1.
</event>
<event>
 5    1  0.1250806E-009  0.9118800E+02  0.7561462E-02  0.1125453E+00
         25   -1    0    0    0    0  0.00000000000E+00  0.00000000000E+00  0.99999998245E-14  0.12509000000E+03  0.12509000000E+03 0.  0.
        -13    1    3    3    0    0  0.31288223647E+02  0.12276655326E+02  0.19518502493E+02  0.38867110885E+02  0.10566000000E+00 0.  1.
         23    2    1    0    0    0 -0.21988074578E+02  0.18041973452E+02 -0.19170117315E+01  0.96582752436E+02  0.92279818512E+02 0.  0.
         13    1    3    3    0    0 -0.53276298224E+02  0.57653181254E+01 -0.21435514224E+02  0.57715641551E+02  0.10566000000E+00 0. -1.
         22    1    1    0    0    0  0.21988074578E+02 -0.18041973452E+02  0.19170117315E+01  0.28507247564E+02  0.00000000000E+00 0. -1.
</event>
<event>
 5    1  0.1250806E-009  0.9118800E+02  0.7561462E-02  0.1125453E+00
         25   -1    0    0    0    0  0.00000000000E+00  0.00000000000E+00  0.99999998245E-14  0.12509000000E+03  0.12509000000E+03 0.  0.
        -13    1    3    3    0    0 -0.39305229974E+01  0.15101864006E+02  0.43695554146E+02  0.46398576742E+02  0.10566000000E+00 0.  1.
         23    2    1    0    0    0 -0.21981952645E+02  0.19271722122E+02 -0.20811520474E+01  0.95782377963E+02  0.91188416034E+02 0.  0.
         13    1    3    3    0    0 -0.18051429648E+02  0.41698581159E+01 -0.45776706194E+02  0.49383801221E+02  0.10566000000E+00 0. -1.
         22    1    1    0    0    0  0.21981952645E+02 -0.19271722122E+02  0.20811520474E+01  0.29307622037E+02  0.00000000000E+00 0. -1.
</event>
<event>
 5    1  0.1250806E-009  0.9118800E+02  0.7561462E-02  0.1125453E+00
         25   -1    0    0    0    0  0.00000000000E+00  0.00000000000E+00  0.99999998245E-14  0.12509000000E+03  0.12509000000E+03 0.  0.
        -13    1    3    3    0    0  0.40866584069E+02  0.16657592125E+01 -0.11346807226E+02  0.42445419605E+02  0.10566000000E+00 0.  1.
         23    2    1    0    0    0  0.22199043521E+01  0.26839819090E+02  0.13639750908E+02  0.94901481173E+02  0.89971909283E+02 0.  0.
         13    1    3    3    0    0 -0.38646679716E+02  0.25174059877E+02  0.24986558134E+02  0.52456061568E+02  0.10566000000E+00 0. -1.
         22    1    1    0    0    0 -0.22199043521E+01 -0.26839819090E+02 -0.13639750908E+02  0.30188518827E+02  0.00000000000E+00 0. -1.
</event>
<event>
 5    1  0.1250806E-009  0.9118800E+02  0.7561462E-02  0.1125453E+00
         25   -1    0    0    0    0  0.00000000000E+00  0.00000000000E+00  0.99999998245E-14  0.12509000000E+03  0.12509000000E+03 0.  0.
        -13    1    3    3    0    0  0.16779596169E+02  0.22922132617E+01 -0.29701463787E+02  0.34190601111E+02  0.10566000000E+00 0.  1.
         23    2    1    0    0    0 -0.31322238273E+02 -0.11708832291E+02 -0.16442434219E+01  0.91610410688E+02  0.85273585864E+02 0.  0.
         13    1    3    3    0    0 -0.48101834442E+02 -0.14001045553E+02  0.28057220365E+02  0.57419809577E+02  0.10566000000E+00 0. -1.
         22    1    1    0    0    0  0.31322238273E+02  0.11708832291E+02  0.16442434219E+01  0.33479589312E+02  0.00000000000E+00 0. -1.
</event>
<event>
 5    1  0.1250806E-009  0.9118800E+02  0.7561462E-02  0.1125453E+00
         25   -1    0    0    0    0  0.00000000000E+00  0.00000000000E+00  0.99999998245E-14  0.12509000000E+03  0.12509000000E+03 0.  0.
        -13    1    3    3    0    0 -0.18465925123E+02 -0.11256714604E+02  0.38397723530E+02  0.44069267643E+02  0.10566000000E+00 0. -1.
         23    2    1    0    0    0 -0.26063590089E+02 -0.17229721502E+02 -0.91060421742E+01  0.92546275022E+02  0.86635552662E+02 0.  0.
         13    1    3    3    0    0 -0.75976649662E+01 -0.59730068974E+01 -0.47503765704E+02  0.48477007379E+02  0.10566000000E+00 0.  1.
         22    1    1    0    0    0  0.26063590089E+02  0.17229721502E+02  0.91060421742E+01  0.32543724978E+02  0.00000000000E+00 0. -1.
</event>
<event>
 5    1  0.1250806E-009  0.9118800E+02  0.7561462E-02  0.1125453E+00
         25   -1    0    0    0    0  0.00000000000E+00  0.00000000000E+00  0.99999998245E-14  0.12509000000E+03  0.12509000000E+03 0.  0.
        -13    1    3    3    0    0 -0.15226196123E+01  0.57158801401E+02 -0.22523467828E+02  0.61455388007E+02  0.10566000000E+00 0. -1.
         23    2    1    0    0    0  0.62333609640E+01  0.21279475620E+02 -0.13029880454E+02  0.99371355864E+02  0.95985507813E+02 0.  0.
         13    1    3    3    0    0  0.77559805763E+01 -0.35879325781E+02  0.94935873745E+01  0.37915967857E+02  0.10566000000E+00 0.  1.
         22    1    1    0    0    0 -0.62333609640E+01 -0.21279475620E+02  0.13029880454E+02  0.25718644136E+02  0.00000000000E+00 0. -1.
</event>
<event>
 5    1  0.1250806E-009  0.9118800E+02  0.7561462E-02  0.1125453E+00
         25   -1    0    0    0    0  0.00000000000E+00  0.00000000000E+00  0.99999998245E-14  0.12509000000E+03  0.12509000000E+03 0.  0.
        -13    1    3    3    0    0 -0.34070927769E+01 -0.38465575565E+02  0.11999434139E+02  0.40437685003E+02  0.10566000000E+00 0.  1.
         23    2    1    0    0    0 -0.20709564958E+02  0.13132190250E+02  0.17244418837E+02  0.95111499661E+02  0.90263430498E+02 0.  0.
         13    1    3    3    0    0 -0.17302472181E+02  0.51597765815E+02  0.52449846983E+01  0.54673814658E+02  0.10566000000E+00 0. -1.
         22    1    1    0    0    0  0.20709564958E+02 -0.13132190250E+02 -0.17244418837E+02  0.29978500339E+02  0.00000000000E+00 0. -1.
</event>
<event>
 5    1  0.1250806E-009  0.9118800E+02  0.7561462E-02  0.1125453E+00
         25   -1    0    0    0    0  0.00000000000E+00  0.00000000000E+00  0.99999998245E-14  0.12509000000E+03  0.12509000000E+03 0.  0.
        -13    1    3    3    0    0  0.22105623239E+02  0.19821537023E+02 -0.20174993362E+02  0.35896983577E+02  0.10566000000E+00 0.  1.
         23    2    1    0    0    0 -0.29871390182E+01 -0.16819630909E+02  0.22063758769E+02  0.97186014005E+02  0.93093978773E+02 0.  0.
         13    1    3    3    0    0 -0.25092762257E+02 -0.36641167932E+02  0.42238752131E+02  0.61289030427E+02  0.10566000000E+00 0. -1.
         22    1    1    0    0    0  0.29871390182E+01  0.16819630909E+02 -0.22063758769E+02  0.27903985995E+02  0.00000000000E+00 0. -1.
</event>
<event>
 5    1  0.1250806E-009  0.9118800E+02  0.7561462E-02  0.1125453E+00
         25   -1    0    0    0    0  0.00000000000E+00  0.00000000000E+00  0.99999998245E-14  0.12509000000E+03  0.12509000000E+03 0.  0.
        -13    1    3    3    0    0 -0.28607575150E+02  0.62466898142E+01  0.31271919410E+02  0.42841085388E+02  0.10566000000E+00 0.  1.
         23    2    1    0    0    0  0.12728788078E+02  0.26867505872E+02  0.14756556529E+02  0.91899024143E+02  0.85695914489E+02 0.  0.
         13    1    3    3    0    0  0.41336363228E+02  0.20620816058E+02 -0.16515362881E+02  0.49057938755E+02  0.10566000000E+00 0. -1.
         22    1    1    0    0    0 -0.12728788078E+02 -0.26867505872E+02 -0.14756556529E+02  0.33190975857E+02  0.00000000000E+00 0.  1.
</event>
<event>
 5    1  0.1250806E-009  0.9118800E+02  0.7561462E-02  0.1125453E+00
         25   -1    0    0    0    0  0.00000000000E+00  0.00000000000E+00  0.99999998245E-14  0.12509000000E+03  0.12509000000E+03 0.  0.
        -13    1    3    3    0    0 -0.10557362696E+02 -0.53326154793E+01 -0.32726722465E+02  0.34798623856E+02  0.10566000000E+00 0.  1.
         23    2    1    0    0    0 -0.11925150532E+02  0.94490650312E+01  0.25777642525E+02  0.95157059962E+02  0.90326547379E+02 0.  0.
         13    1    3    3    0    0 -0.13677878363E+01  0.14781680511E+02  0.58504364990E+02  0.60358436106E+02  0.10566000000E+00 0. -1.
         22    1    1    0    0    0  0.11925150532E+02 -0.94490650312E+01 -0.25777642525E+02  0.29932940038E+02  0.00000000000E+00 0. -1.
</event>
<event>
 5    1  0.1250806E-009  0.9118800E+02  0.7561462E-02  0.1125453E+00
         25   -1    0    0    0    0  0.00000000000E+00  0.00000000000E+00  0.99999998245E-14  0.12509000000E+03  0.12509000000E+03 0.  0.
        -13    1    3    3    0    0 -0.24856186565E+02 -0.25314842452E+02 -0.12806610690E+02  0.37718585609E+02  0.10566000000E+00 0.  1.
         23    2    1    0    0    0  0.28689771342E+02 -0.57040557972E+01 -0.68032328024E+01  0.95057963627E+02  0.90189208002E+02 0.  0.
         13    1    3    3    0    0  0.53545957907E+02  0.19610786655E+02  0.60033778874E+01  0.57339378018E+02  0.10566000000E+00 0. -1.
         22    1    1    0    0    0 -0.28689771342E+02  0.57040557972E+01  0.68032328024E+01  0.30032036373E+02  0.00000000000E+00 0.  1.
</event>
<event>
 5    1  0.1250806E-009  0.9118800E+02  0.7561462E-02  0.1125453E+00
         25   -1    0    0    0    0  0.00000000000E+00  0.00000000000E+00  0.99999998245E-14  0.12509000000E+03  0.12509000000E+03 0.  0.
        -13    1    3    3    0    0 -0.31348141266E+01  0.42160331601E+02  0.11552992121E+02  0.43826971277E+02  0.10566000000E+00 0.  1.
         23    2    1    0    0    0 -0.26111269634E+02 -0.41947182980E+01  0.13079095295E+02  0.95586495171E+02  0.90919311820E+02 0.  0.
         13    1    3    3    0    0 -0.22976455507E+02 -0.46355049899E+02  0.15261031735E+01  0.51759523894E+02  0.10566000000E+00 0. -1.
         22    1    1    0    0    0  0.26111269634E+02  0.41947182980E+01 -0.13079095295E+02  0.29503504829E+02  0.00000000000E+00 0.  1.
</event>
<event>
 5    1  0.1250806E-009  0.9118800E+02  0.7561462E-02  0.1125453E+00
         25   -1    0    0    0    0  0.00000000000E+00  0.00000000000E+00  0.99999998245E-14  0.12509000000E+03  0.12509000000E+03 0.  0.
        -13    1    3    3    0    0 -0.14752900063E+02 -0.34265206299E+02  0.65823696899E+00  0.37312154359E+02  0.10566000000E+00 0.  1.
         23    2    1    0    0    0 -0.12773993884E+02  0.23280774940E+02  0.11918530947E+02  0.95982942754E+02  0.91463132017E+02 0.  0.
         13    1    3    3    0    0  0.19789061785E+01  0.57545981239E+02  0.11260293978E+02  0.58670788395E+02  0.10566000000E+00 0. -1.
         22    1    1    0    0    0  0.12773993884E+02 -0.23280774940E+02 -0.11918530947E+02  0.29107057246E+02  0.00000000000E+00 0. -1.
</event>
<event>
 5    1  0.1250806E-009  0.9118800E+02  0.7561462E-02  0.1125453E+00
         25   -1    0    0    0    0  0.00000000000E+00  0.00000000000E+00  0.99999998245E-14  0.12509000000E+03  0.12509000000E+03 0.  0.
        -13    1    3    3    0    0  0.27864919952E+02  0.23522364233E+02 -0.46838647167E+02  0.59360133217E+02  0.10566000000E+00 0. -1.
         23    2    1    0    0    0  0.20644593372E+01  0.18749497882E+02 -0.26519623573E+02  0.92546243339E+02  0.86635506915E+02 0.  0.
         13    1    3    3    0    0 -0.25800460615E+02 -0.47728663505E+01  0.20319023595E+02  0.33186110122E+02  0.10566000000E+00 0.  1.
         22    1    1    0    0    0 -0.20644593372E+01 -0.18749497882E+02  0.26519623573E+02  0.32543756661E+02  0.00000000000E+00 0. -1.
</event>
<event>
 5    1  0.1250806E-009  0.9118800E+02  0.7561462E-02  0.1125453E+00
         25   -1    0    0    0    0  0.00000000000E+00  0.00000000000E+00  0.99999998245E-14  0.12509000000E+03  0.12509000000E+03 0.  0.
        -13    1    3    3    0    0  0.28738300426E+02  0.53508547974E+01 -0.24873204300E+02  0.38382405013E+02  0.10566000000E+00 0. -1.
         23    2    1    0    0    0 -0.59711550681E+00 -0.24828381317E+02  0.14764757025E+02  0.96197040378E+02  0.91755476467E+02 0.  0.
         13    1    3    3    0    0 -0.29335415932E+02 -0.30179236114E+02  0.39637961324E+02  0.57814635365E+02  0.10566000000E+00 0.  1.
         22    1    1    0    0    0  0.59711550681E+00  0.24828381317E+02 -0.14764757025E+02  0.28892959622E+02  0.00000000000E+00 0.  1.
</event>
<event>
 5    1  0.1250806E-009  0.9118800E+02  0.7561462E-02  0.1125453E+00
         25   -1    0    0    0    0  0.00000000000E+00  0.00000000000E+00  0.99999998245E-14  0.12509000000E+03  0.12509000000E+03 0.  0.
        -13    1    3    3    0    0  0.60809016294E+01  0.28241396869E+02  0.17808535362E+02  0.33936837765E+02  0.10566000000E+00 0. -1.
         23    2    1    0    0    0 -0.55421621598E+01 -0.29584793186E+02  0.24235300802E+01  0.94893161634E+02  0.89960341693E+02 0.  0.
         13    1    3    3    0    0 -0.11623063789E+02 -0.57826190055E+02 -0.15385005282E+02  0.60956323869E+02  0.10566000000E+00 0.  1.
         22    1    1    0    0    0  0.55421621598E+01  0.29584793186E+02 -0.24235300802E+01  0.30196838366E+02  0.00000000000E+00 0.  1.
</event>
<event>
 5    1  0.1250806E-009  0.9118800E+02  0.7561462E-02  0.1125453E+00
         25   -1    0    0    0    0  0.00000000000E+00  0.00000000000E+00  0.99999998245E-14  0.12509000000E+03  0.12509000000E+03 0.  0.
        -13    1    3    3    0    0 -0.64317457126E+01  0.33390832920E+02 -0.19449916144E+02  0.39174296140E+02  0.10566000000E+00 0.  1.
         23    2    1    0    0    0  0.14671152561E+02  0.44870694507E+01  0.24703584882E+02  0.96010047873E+02  0.91500194955E+02 0.  0.
         13    1    3    3    0    0  0.21102898274E+02 -0.28903763469E+02  0.44153501026E+02  0.56835751733E+02  0.10566000000E+00 0. -1.
         22    1    1    0    0    0 -0.14671152561E+02 -0.44870694507E+01 -0.24703584882E+02  0.29079952127E+02  0.00000000000E+00 0. -1.
</event>
<event>
 5    1  0.1250806E-009  0.9118800E+02  0.7561462E-02  0.1125453E+00
         25   -1    0    0    0    0  0.00000000000E+00  0.00000000000E+00  0.99999998245E-14  0.12509000000E+03  0.12509000000E+03 0.  0.
        -13    1    3    3    0    0  0.58310895198E+02  0.51671212091E+01 -0.16910608895E+02  0.60933073922E+02  0.10566000000E+00 0. -1.
         23    2    1    0    0    0  0.22930640721E+02  0.10329743667E+02 -0.12640297975E+02  0.96942264372E+02  0.92765875194E+02 0.  0.
         13    1    3    3    0    0 -0.35380254477E+02  0.51626224575E+01  0.42703109202E+01  0.36009190450E+02  0.10566000000E+00 0.  1.
         22    1    1    0    0    0 -0.22930640721E+02 -0.10329743667E+02  0.12640297975E+02  0.28147735628E+02  0.00000000000E+00 0. -1.
</event>
<event>
 5    1  0.1250806E-009  0.9118800E+02  0.7561462E-02  0.1125453E+00
         25   -1    0    0    0    0  0.00000000000E+00  0.00000000000E+00  0.99999998245E-14  0.12509000000E+03  0.12509000000E+03 0.  0.
        -13    1    3    3    0    0  0.35259951790E+02 -0.31241642517E+02  0.22412316719E+02  0.52169220160E+02  0.10566000000E+00 0.  1.
         23    2    1    0    0    0  0.22465185158E+01 -0.27731120134E+02 -0.68643863316E+01  0.96433732465E+02  0.92077592757E+02 0.  0.
         13    1    3    3    0    0 -0.33013433274E+02  0.35105223824E+01 -0.29276703051E+02  0.44264512304E+02  0.10566000000E+00 0. -1.
         22    1    1    0    0    0 -0.22465185158E+01  0.27731120134E+02  0.68643863316E+01  0.28656267535E+02  0.00000000000E+00 0.  1.
</event>
<event>
 5    1  0.1250806E-009  0.9118800E+02  0.7561462E-02  0.1125453E+00
         25   -1    0    0    0    0  0.00000000000E+00  0.00000000000E+00  0.99999998245E-14  0.12509000000E+03  0.12509000000E+03 0.  0.
        -13    1    3    3    0    0  0.49213635392E+02  0.29406550333E+02  0.79560349078E+01  0.57879502127E+02  0.10566000000E+00 0.  1.
         23    2    1    0    0    0  0.28274038102E+02 -0.23703130592E+01  0.65988104840E+01  0.95959536317E+02  0.91431114483E+02 0.  0.
         13    1    3    3    0    0 -0.20939597290E+02 -0.31776863392E+02 -0.13572244238E+01  0.38080034189E+02  0.10566000000E+00 0. -1.
         22    1    1    0    0    0 -0.28274038102E+02  0.23703130592E+01 -0.65988104840E+01  0.29130463683E+02  0.00000000000E+00 0.  1.
</event>
<event>
 5    1  0.1250806E-009  0.9118800E+02  0.7561462E-02  0.1125453E+00
         25   -1    0    0    0    0  0.00000000000E+00  0.00000000000E+00  0.99999998245E-14  0.12509000000E+03  0.12509000000E+03 0.  0.
        -13    1    3    3    0    0 -0.23271508652E+02  0.42956763366E+02  0.27109264975E+02  0.55872802376E+02  0.10566000000E+00 0. -1.
         23    2    1    0    0    0  0.68075503612E+01  0.19170788972E+02  0.22912698921E+02  0.94449280956E+02  0.89340992884E+02 0.  0.
         13    1    3    3    0    0  0.30079059013E+02 -0.23785974393E+02 -0.41965660547E+01  0.38576478580E+02  0.10566000000E+00 0.  1.
         22    1    1    0    0    0 -0.68075503612E+01 -0.19170788972E+02 -0.22912698921E+02  0.30640719044E+02  0.00000000000E+00 0. -1.
</event>
<event>
 5    1  0.1250806E-009  0.9118800E+02  0.7561462E-02  0.1125453E+00
         25   -1    0    0    0    0  0.00000000000E+00  0.00000000000E+00  0.99999998245E-14  0.12509000000E+03  0.12509000000E+03 0.  0.
        -13    1    3    3    0    0 -0.20210821692E+02  0.20966666620E+01  0.41569338848E+02  0.46269800312E+02  0.10566000000E+00 0. -1.
         23    2    1    0    0    0  0.22625546593E+02  0.71799592648E+01  0.12787466065E+02  0.98127313524E+02  0.94350321660E+02 0.  0.
         13    1    3    3    0    0  0.42836368285E+02  0.50832926027E+01 -0.28781872784E+02  0.51857513212E+02  0.10566000000E+00 0.  1.
         22    1    1    0    0    0 -0.22625546593E+02 -0.71799592648E+01 -0.12787466065E+02  0.26962686476E+02  0.00000000000E+00 0. -1.
</event>
<event>
 5    1  0.1250806E-009  0.9118800E+02  0.7561462E-02  0.1125453E+00
         25   -1    0    0    0    0  0.00000000000E+00  0.00000000000E+00  0.99999998245E-14  0.12509000000E+03  0.12509000000E+03 0.  0.
        -13    1    3    3    0    0  0.17692276587E+02 -0.43135416880E+01 -0.48148327565E+02  0.51477139625E+02  0.10566000000E+00 0. -1.
         23    2    1    0    0    0 -0.18333001435E+01 -0.25451318897E+02 -0.14543057625E+02  0.95719416960E+02  0.91102006756E+02 0.  0.
         13    1    3    3    0    0 -0.19525576730E+02 -0.21137777209E+02  0.33605269940E+02  0.44242277334E+02  0.10566000000E+00 0.  1.
         22    1    1    0    0    0  0.18333001435E+01  0.25451318897E+02  0.14543057625E+02  0.29370583040E+02  0.00000000000E+00 0. -1.
</event>
<event>
 5    1  0.1250806E-009  0.9118800E+02  0.7561462E-02  0.1125453E+00
         25   -1    0    0    0    0  0.00000000000E+00  0.00000000000E+00  0.99999998245E-14  0.12509000000E+03  0.12509000000E+03 0.  0.
        -13    1    3    3    0    0 -0.22250437506E+02 -0.46733657731E+02  0.23298594605E+01  0.51812702529E+02  0.10566000000E+00 0.  1.
         23    2    1    0    0    0 -0.26546419629E+02 -0.48073654968E+01 -0.10909941159E+02  0.95989313166E+02  0.91471844126E+02 0.  0.
         13    1    3    3    0    0 -0.42959821221E+01  0.41926292235E+02 -0.13239800620E+02  0.44176610637E+02  0.10566000000E+00 0. -1.
         22    1    1    0    0    0  0.26546419629E+02  0.48073654968E+01  0.10909941159E+02  0.29100686834E+02  0.00000000000E+00 0.  1.
</event>
<event>
 5    1  0.1250806E-009  0.9118800E+02  0.7561462E-02  0.1125453E+00
         25   -1    0    0    0    0  0.00000000000E+00  0.00000000000E+00  0.99999998245E-14  0.12509000000E+03  0.12509000000E+03 0.  0.
        -13    1    3    3    0    0 -0.37308220255E+02 -0.71804460862E+01 -0.96818256246E+01  0.39207282691E+02  0.10566000000E+00 0. -1.
         23    2    1    0    0    0  0.39289724146E+01 -0.79633082671E+01  0.28393828525E+02  0.95340031914E+02  0.90579584258E+02 0.  0.
         13    1    3    3    0    0  0.41237192669E+02 -0.78286218091E+00  0.38075654149E+02  0.56132749223E+02  0.10566000000E+00 0.  1.
         22    1    1    0    0    0 -0.39289724146E+01  0.79633082671E+01 -0.28393828525E+02  0.29749968086E+02  0.00000000000E+00 0.  1.
</event>
<event>
 5    1  0.1250806E-009  0.9118800E+02  0.7561462E-02  0.1125453E+00
         25   -1    0    0    0    0  0.00000000000E+00  0.00000000000E+00  0.99999998245E-14  0.12509000000E+03  0.12509000000E+03 0.  0.
        -13    1    3    3    0    0 -0.21326178068E+02 -0.49877136849E+02  0.14616850445E+01  0.54264927333E+02  0.10566000000E+00 0.  1.
         23    2    1    0    0    0 -0.14545951278E+02 -0.88296018708E+01  0.19149444978E+02  0.99472665815E+02  0.96117446042E+02 0.  0.
         13    1    3    3    0    0  0.67802267902E+01  0.41047534978E+02  0.17687759934E+02  0.45207738482E+02  0.10566000000E+00 0. -1.
         22    1    1    0    0    0  0.14545951278E+02  0.88296018708E+01 -0.19149444978E+02  0.25617334185E+02  0.00000000000E+00 0.  1.
</event>
<event>
 5    1  0.1250806E-009  0.9118800E+02  0.7561462E-02  0.1125453E+00
         25   -1    0    0    0    0  0.00000000000E+00  0.00000000000E+00  0.99999998245E-14  0.12509000000E+03  0.12509000000E+03 0.  0.
        -13    1    3    3    0    0  0.15668615313E+02 -0.16709536349E+02  0.34563858920E+02  0.41465475016E+02  0.10566000000E+00 0.  1.
         23    2    1    0    0    0 -0.99869554800E+01  0.24962416584E+02  0.86066726675E+01  0.96859939145E+02  0.92654797368E+02 0.  0.
         13    1    3    3    0    0 -0.25655570793E+02  0.41671952933E+02 -0.25957186252E+02  0.55394464129E+02  0.10566000000E+00 0. -1.
         22    1    1    0    0    0  0.99869554800E+01 -0.24962416584E+02 -0.86066726675E+01  0.28230060855E+02  0.00000000000E+00 0. -1.
</event>
<event>
 5    1  0.1250806E-009  0.9118800E+02  0.7561462E-02  0.1125453E+00
         25   -1    0    0    0    0  0.00000000000E+00  0.00000000000E+00  0.99999998245E-14  0.12509000000E+03  0.12509000000E+03 0.  0.
        -13    1    3    3    0    0  0.13107846378E+02 -0.69490914205E+01  0.59481748381E+02  0.61304119460E+02  0.10566000000E+00 0. -1.
         23    2    1    0    0    0  0.13993452536E+02 -0.94181023783E-01  0.25300534608E+02  0.96177327426E+02  0.91728597915E+02 0.  0.
         13    1    3    3    0    0  0.88560615828E+00  0.68549103967E+01 -0.34181213773E+02  0.34873207966E+02  0.10566000000E+00 0.  1.
         22    1    1    0    0    0 -0.13993452536E+02  0.94181023783E-01 -0.25300534608E+02  0.28912672574E+02  0.00000000000E+00 0. -1.
</event>
<event>
 5    1  0.1250806E-009  0.9118800E+02  0.7561462E-02  0.1125453E+00
         25   -1    0    0    0    0  0.00000000000E+00  0.00000000000E+00  0.99999998245E-14  0.12509000000E+03  0.12509000000E+03 0.  0.
        -13    1    3    3    0    0  0.18481282313E+02 -0.29836799591E+01 -0.28341774142E+02  0.33966563965E+02  0.10566000000E+00 0. -1.
         23    2    1    0    0    0 -0.18302506739E+02 -0.10302715351E+02  0.20629793908E+02  0.95649957656E+02  0.91006583863E+02 0.  0.
         13    1    3    3    0    0 -0.36783789052E+02 -0.73190353915E+01  0.48971568050E+02  0.61683393692E+02  0.10566000000E+00 0.  1.
         22    1    1    0    0    0  0.18302506739E+02  0.10302715351E+02 -0.20629793908E+02  0.29440042344E+02  0.00000000000E+00 0.  1.
</event>
<event>
 5    1  0.1250806E-009  0.9118800E+02  0.7561462E-02  0.1125453E+00
         25   -1    0    0    0    0  0.00000000000E+00  0.00000000000E+00  0.99999998245E-14  0.12509000000E+03  0.12509000000E+03 0.  0.
        -13    1    3    3    0    0 -0.48274318714E+01 -0.89853548990E+01  0.37404190595E+02  0.38770160423E+02  0.10566000000E+00 0.  1.
         23    2    1    0    0    0 -0.22453325139E+02 -0.10999382971E+02 -0.16242776302E+02  0.95274466841E+02  0.90488993885E+02 0.  0.
         13    1    3    3    0    0 -0.17625893267E+02 -0.20140280723E+01 -0.53646966897E+02  0.56504306418E+02  0.10566000000E+00 0. -1.
         22    1    1    0    0    0  0.22453325139E+02  0.10999382971E+02  0.16242776302E+02  0.29815533159E+02  0.00000000000E+00 0. -1.
</event>
<event>
 5    1  0.1250806E-009  0.9118800E+02  0.7561462E-02  0.1125453E+00
         25   -1    0    0    0    0  0.00000000000E+00  0.00000000000E+00  0.99999998245E-14  0.12509000000E+03  0.12509000000E+03 0.  0.
        -13    1    3    3    0    0 -0.18835298076E+02  0.13345642771E+02  0.26064627073E+02  0.34817389090E+02  0.10566000000E+00 0.  1.
         23    2    1    0    0    0  0.80659289687E+01 -0.24037354818E+02 -0.14232377605E+02  0.96013992553E+02  0.91505587572E+02 0.  0.
         13    1    3    3    0    0  0.26901227044E+02 -0.37382997589E+02 -0.40297004678E+02  0.61196603462E+02  0.10566000000E+00 0. -1.
         22    1    1    0    0    0 -0.80659289687E+01  0.24037354818E+02  0.14232377605E+02  0.29076007447E+02  0.00000000000E+00 0. -1.
</event>
<event>
 5    1  0.1250806E-009  0.9118800E+02  0.7561462E-02  0.1125453E+00
         25   -1    0    0    0    0  0.00000000000E+00  0.00000000000E+00  0.99999998245E-14  0.12509000000E+03  0.12509000000E+03 0.  0.
        -13    1    3    3    0    0 -0.30112859554E+01  0.13579214294E+02 -0.38027967636E+02  0.40491979335E+02  0.10566000000E+00 0. -1.
         23    2    1    0    0    0  0.25142271472E+02 -0.25952810761E+01  0.95303799451E+01  0.98077087522E+02  0.94283708330E+02 0.  0.
         13    1    3    3    0    0  0.28153557427E+02 -0.16174495370E+02  0.47558347581E+02  0.57585108187E+02  0.10566000000E+00 0.  1.
         22    1    1    0    0    0 -0.25142271472E+02  0.25952810761E+01 -0.95303799451E+01  0.27012912478E+02  0.00000000000E+00 0.  1.
</event>
<event>
 5    1  0.1250806E-009  0.9118800E+02  0.7561462E-02  0.1125453E+00
         25   -1    0    0    0    0  0.00000000000E+00  0.00000000000E+00  0.99999998245E-14  0.12509000000E+03  0.12509000000E+03 0.  0.
        -13    1    3    3    0    0 -0.57290059577E+02 -0.14510568272E+02 -0.94555119499E+01  0.59850859544E+02  0.10566000000E+00 0.  1.
         23    2    1    0    0    0 -0.30041298054E+02  0.48854143324E+01 -0.91822815508E+01  0.93299102616E+02  0.87715798990E+02 0.  0.
         13    1    3    3    0    0  0.27248761523E+02  0.19395982604E+02  0.27323039916E+00  0.33448243072E+02  0.10566000000E+00 0. -1.
         22    1    1    0    0    0  0.30041298054E+02 -0.48854143324E+01  0.91822815508E+01  0.31790897384E+02  0.00000000000E+00 0.  1.
</event>
<event>
 5    1  0.1250806E-009  0.9118800E+02  0.7561462E-02  0.1125453E+00
         25   -1    0    0    0    0  0.00000000000E+00  0.00000000000E+00  0.99999998245E-14  0.12509000000E+03  0.12509000000E+03 0.  0.
        -13    1    3    3    0    0  0.19632859162E+02  0.40313868797E+02 -0.42694290663E+02  0.61915028834E+02  0.10566000000E+00 0. -1.
         23    2    1    0    0    0  0.33998427324E+01  0.21154967402E+02 -0.20727941505E+02  0.95278271848E+02  0.90494253690E+02 0.  0.
         13    1    3    3    0    0 -0.16233016429E+02 -0.19158901395E+02  0.21966349158E+02  0.33363243014E+02  0.10566000000E+00 0.  1.
         22    1    1    0    0    0 -0.33998427324E+01 -0.21154967402E+02  0.20727941505E+02  0.29811728152E+02  0.00000000000E+00 0. -1.
</event>
<event>
 5    1  0.1250806E-009  0.9118800E+02  0.7561462E-02  0.1125453E+00
         25   -1    0    0    0    0  0.00000000000E+00  0.00000000000E+00  0.99999998245E-14  0.12509000000E+03  0.12509000000E+03 0.  0.
        -13    1    3    3    0    0 -0.35483429843E+02 -0.29583193890E+02 -0.38856025725E+02  0.60365893129E+02  0.10566000000E+00 0.  1.
         23    2    1    0    0    0 -0.22510642697E+02 -0.39577343539E+01 -0.19949583259E+02  0.94752258356E+02  0.89764201637E+02 0.  0.
         13    1    3    3    0    0  0.12972787146E+02  0.25625459536E+02  0.18906442466E+02  0.34386365227E+02  0.10566000000E+00 0. -1.
         22    1    1    0    0    0  0.22510642697E+02  0.39577343539E+01  0.19949583259E+02  0.30337741644E+02  0.00000000000E+00 0.  1.
</event>
<event>
 5    1  0.1250806E-009  0.9118800E+02  0.7561462E-02  0.1125453E+00
         25   -1    0    0    0    0  0.00000000000E+00  0.00000000000E+00  0.99999998245E-14  0.12509000000E+03  0.12509000000E+03 0.  0.
        -13    1    3    3    0    0  0.16233255637E+01  0.34200170140E+02 -0.58525978897E+01  0.34735441405E+02  0.10566000000E+00 0.  1.
         23    2    1    0    0    0  0.28025241258E+02 -0.16586214913E+02 -0.60078697453E+01  0.91974880015E+02  0.85806569575E+02 0.  0.
         13    1    3    3    0    0  0.26401915694E+02 -0.50786385053E+02 -0.15527185555E+00  0.57239438611E+02  0.10566000000E+00 0. -1.
         22    1    1    0    0    0 -0.28025241258E+02  0.16586214913E+02  0.60078697453E+01  0.33115119985E+02  0.00000000000E+00 0. -1.
</event>
<event>
 5    1  0.1250806E-009  0.9118800E+02  0.7561462E-02  0.1125453E+00
         25   -1    0    0    0    0  0.00000000000E+00  0.00000000000E+00  0.99999998245E-14  0.12509000000E+03  0.12509000000E+03 0.  0.
        -13    1    3    3    0    0  0.17401863539E+01  0.40807580607E+02 -0.21933467281E+02  0.46361352812E+02  0.10566000000E+00 0.  1.
         23    2    1    0    0    0  0.19371926835E+02 -0.32372564367E+01 -0.24278010802E+02  0.93862236919E+02  0.88515232206E+02 0.  0.
         13    1    3    3    0    0  0.17631740481E+02 -0.44044837044E+02 -0.23445435205E+01  0.47500884107E+02  0.10566000000E+00 0. -1.
         22    1    1    0    0    0 -0.19371926835E+02  0.32372564367E+01  0.24278010802E+02  0.31227763081E+02  0.00000000000E+00 0.  1.
</event>
<event>
 5    1  0.1250806E-009  0.9118800E+02  0.7561462E-02  0.1125453E+00
         25   -1    0    0    0    0  0.00000000000E+00  0.00000000000E+00  0.99999998245E-14  0.12509000000E+03  0.12509000000E+03 0.  0.
        -13    1    3    3    0    0  0.44882606956E+02 -0.17243244553E+02  0.13851358042E+02  0.50036478429E+02  0.10566000000E+00 0. -1.
         23    2    1    0    0    0  0.13306063141E+02 -0.20352059767E+02 -0.17878473236E+02  0.94908922181E+02  0.89982254090E+02 0.  0.
         13    1    3    3    0    0 -0.31576543815E+02 -0.31088152142E+01 -0.31729831278E+02  0.44872443752E+02  0.10566000000E+00 0.  1.
         22    1    1    0    0    0 -0.13306063141E+02  0.20352059767E+02  0.17878473236E+02  0.30181077819E+02  0.00000000000E+00 0. -1.
</event>
<event>
 5    1  0.1250806E-009  0.9118800E+02  0.7561462E-02  0.1125453E+00
         25   -1    0    0    0    0  0.00000000000E+00  0.00000000000E+00  0.99999998245E-14  0.12509000000E+03  0.12509000000E+03 0.  0.
        -13    1    3    3    0    0 -0.29584724950E+02  0.40693993755E+01  0.48237341154E+02  0.56733307742E+02  0.10566000000E+00 0.  1.
         23    2    1    0    0    0 -0.26833853560E+02  0.68800839832E+01  0.93002234398E+01  0.95868682293E+02  0.91306729413E+02 0.  0.
         13    1    3    3    0    0  0.27508713907E+01  0.28106846077E+01 -0.38937117714E+02  0.39135374552E+02  0.10566000000E+00 0. -1.
         22    1    1    0    0    0  0.26833853560E+02 -0.68800839832E+01 -0.93002234398E+01  0.29221317707E+02  0.00000000000E+00 0.  1.
</event>
<event>
 5    1  0.1250806E-009  0.9118800E+02  0.7561462E-02  0.1125453E+00
         25   -1    0    0    0    0  0.00000000000E+00  0.00000000000E+00  0.99999998245E-14  0.12509000000E+03  0.12509000000E+03 0.  0.
        -13    1    3    3    0    0  0.38936506082E+02 -0.41398570338E+01  0.47636729707E+02  0.61664082766E+02  0.10566000000E+00 0.  1.
         23    2    1    0    0    0  0.19609472852E+02  0.48088052439E+01  0.27493618979E+02  0.90979076266E+02  0.84342380808E+02 0.  0.
         13    1    3    3    0    0 -0.19327033231E+02  0.89486622777E+01 -0.20143110728E+02  0.29314993500E+02  0.10566000000E+00 0. -1.
         22    1    1    0    0    0 -0.19609472852E+02 -0.48088052439E+01 -0.27493618979E+02  0.34110923734E+02  0.00000000000E+00 0.  1.
</event>
<event>
 5    1  0.1250806E-009  0.9118800E+02  0.7561462E-02  0.1125453E+00
         25   -1    0    0    0    0  0.00000000000E+00  0.00000000000E+00  0.99999998245E-14  0.12509000000E+03  0.12509000000E+03 0.  0.
        -13    1    3    3    0    0 -0.42169190724E+02  0.45739876861E+02 -0.14466177306E+01  0.62229260388E+02  0.10566000000E+00 0.  1.
         23    2    1    0    0    0 -0.22101022185E+02  0.30145438188E+02 -0.20888283101E+01  0.87652507712E+02  0.79255260263E+02 0.  0.
         13    1    3    3    0    0  0.20068168539E+02 -0.15594438673E+02 -0.64221057953E+00  0.25423247324E+02  0.10566000000E+00 0. -1.
         22    1    1    0    0    0  0.22101022185E+02 -0.30145438188E+02  0.20888283101E+01  0.37437492288E+02  0.00000000000E+00 0.  1.
</event>
