<event>
 5    1  0.1758488E-003  0.9118800E+02  0.7818608E-02  0.1130116E+00
         25   -1    0    0    0    0  0.00000000000E+00  0.00000000000E+00  0.99999998245E-14  0.12500000000E+03  0.12500000000E+03 0.  0.
        -13    1    3    3    0    0 -0.32429166790E+02 -0.17180747654E+02  0.65619936565E+01  0.37281360938E+02  0.10566000000E+00 0.  1.
         23    2    1    0    0    0  0.96434670705E+01  0.66437319733E+01 -0.26617079309E+02  0.95920719703E+02  0.91406673311E+02 0.  0.
         13    1    3    3    0    0  0.42072633860E+02  0.23824479627E+02 -0.33179072965E+02  0.58639358765E+02  0.10566000000E+00 0. -1.
         22    1    1    0    0    0 -0.96434670705E+01 -0.66437319733E+01  0.26617079309E+02  0.29079280297E+02  0.00000000000E+00 0. -1.
</event>
<event>
 5    1  0.1758488E-003  0.9118800E+02  0.7818608E-02  0.1130116E+00
         25   -1    0    0    0    0  0.00000000000E+00  0.00000000000E+00  0.99999998245E-14  0.12500000000E+03  0.12500000000E+03 0.  0.
        -13    1    3    3    0    0  0.20410651911E+02 -0.82517146325E+01  0.40793710568E+02  0.46355404127E+02  0.10566000000E+00 0.  1.
         23    2    1    0    0    0 -0.15295006777E+02 -0.23737136673E+02  0.15267637993E+02  0.92898759220E+02  0.87176199763E+02 0.  0.
         13    1    3    3    0    0 -0.35705658688E+02 -0.15485422040E+02 -0.25526072576E+02  0.46543355093E+02  0.10566000000E+00 0. -1.
         22    1    1    0    0    0  0.15295006777E+02  0.23737136673E+02 -0.15267637993E+02  0.32101240780E+02  0.00000000000E+00 0.  1.
</event>
<event>
 5    1  0.1758488E-003  0.9118800E+02  0.7818608E-02  0.1130116E+00
         25   -1    0    0    0    0  0.00000000000E+00  0.00000000000E+00  0.99999998245E-14  0.12500000000E+03  0.12500000000E+03 0.  0.
        -13    1    3    3    0    0 -0.10735382120E+02 -0.29211560717E+01 -0.30868842356E+02  0.32812774563E+02  0.10566000000E+00 0. -1.
         23    2    1    0    0    0 -0.13691824293E+02 -0.22610341100E+01  0.29048602752E+02  0.92806838466E+02  0.87044296864E+02 0.  0.
         13    1    3    3    0    0 -0.29564421721E+01  0.66012196172E+00  0.59917445108E+02  0.59994063903E+02  0.10566000000E+00 0.  1.
         22    1    1    0    0    0  0.13691824293E+02  0.22610341100E+01 -0.29048602752E+02  0.32193161534E+02  0.00000000000E+00 0.  1.
</event>
<event>
 5    1  0.1758488E-003  0.9118800E+02  0.7818608E-02  0.1130116E+00
         25   -1    0    0    0    0  0.00000000000E+00  0.00000000000E+00  0.99999998245E-14  0.12500000000E+03  0.12500000000E+03 0.  0.
        -13    1    3    3    0    0  0.68096060036E+01  0.22950542217E+02  0.27077394641E+02  0.36142697555E+02  0.10566000000E+00 0. -1.
         23    2    1    0    0    0 -0.20647483021E+02  0.76471147475E+01 -0.21644484053E+02  0.94124757345E+02  0.88916755093E+02 0.  0.
         13    1    3    3    0    0 -0.27457089025E+02 -0.15303427469E+02 -0.48721878694E+02  0.57982059790E+02  0.10566000000E+00 0.  1.
         22    1    1    0    0    0  0.20647483021E+02 -0.76471147475E+01  0.21644484053E+02  0.30875242655E+02  0.00000000000E+00 0.  1.
</event>
<event>
 5    1  0.1758488E-003  0.9118800E+02  0.7818608E-02  0.1130116E+00
         25   -1    0    0    0    0  0.00000000000E+00  0.00000000000E+00  0.99999998245E-14  0.12500000000E+03  0.12500000000E+03 0.  0.
        -13    1    3    3    0    0  0.23308475044E+02  0.21041315441E+02 -0.21719097562E+02  0.38180522879E+02  0.10566000000E+00 0.  1.
         23    2    1    0    0    0 -0.14465111690E+02  0.10164097135E+02  0.21871226811E+02  0.96877075383E+02  0.92705279493E+02 0.  0.
         13    1    3    3    0    0 -0.37773586734E+02 -0.10877218306E+02  0.43590324374E+02  0.58696552504E+02  0.10566000000E+00 0. -1.
         22    1    1    0    0    0  0.14465111690E+02 -0.10164097135E+02 -0.21871226811E+02  0.28122924617E+02  0.00000000000E+00 0. -1.
</event>
<event>
 5    1  0.1758488E-003  0.9118800E+02  0.7818608E-02  0.1130116E+00
         25   -1    0    0    0    0  0.00000000000E+00  0.00000000000E+00  0.99999998245E-14  0.12500000000E+03  0.12500000000E+03 0.  0.
        -13    1    3    3    0    0 -0.29340093651E+02 -0.52581506658E+02  0.75485509622E+01  0.60684822844E+02  0.10566000000E+00 0.  1.
         23    2    1    0    0    0 -0.62350782495E+01 -0.29424317972E+02 -0.22637099012E+01  0.94837256898E+02  0.89912814573E+02 0.  0.
         13    1    3    3    0    0  0.23105015401E+02  0.23157188686E+02 -0.98122608635E+01  0.34152434054E+02  0.10566000000E+00 0. -1.
         22    1    1    0    0    0  0.62350782495E+01  0.29424317972E+02  0.22637099012E+01  0.30162743102E+02  0.00000000000E+00 0.  1.
</event>
<event>
 5    1  0.1758488E-003  0.9118800E+02  0.7818608E-02  0.1130116E+00
         25   -1    0    0    0    0  0.00000000000E+00  0.00000000000E+00  0.99999998245E-14  0.12500000000E+03  0.12500000000E+03 0.  0.
        -13    1    3    3    0    0 -0.32908688060E+02  0.38421599315E+02  0.13295215658E+02  0.52306548034E+02  0.10566000000E+00 0.  1.
         23    2    1    0    0    0 -0.12331801979E+02  0.18850996925E+02 -0.19157006600E+02  0.95429333336E+02  0.90732206708E+02 0.  0.
         13    1    3    3    0    0  0.20576886081E+02 -0.19570602391E+02 -0.32452222258E+02  0.43122785302E+02  0.10566000000E+00 0. -1.
         22    1    1    0    0    0  0.12331801979E+02 -0.18850996925E+02  0.19157006600E+02  0.29570666664E+02  0.00000000000E+00 0. -1.
</event>
<event>
 5    1  0.1758488E-003  0.9118800E+02  0.7818608E-02  0.1130116E+00
         25   -1    0    0    0    0  0.00000000000E+00  0.00000000000E+00  0.99999998245E-14  0.12500000000E+03  0.12500000000E+03 0.  0.
        -13    1    3    3    0    0 -0.58899760056E+01 -0.43494181723E+01  0.43226702603E+02  0.43842539135E+02  0.10566000000E+00 0. -1.
         23    2    1    0    0    0  0.48836900726E+01  0.29857859469E+02  0.89569172606E+01  0.93447368293E+02  0.87959320560E+02 0.  0.
         13    1    3    3    0    0  0.10773666078E+02  0.34207277641E+02 -0.34269785343E+02  0.49604829159E+02  0.10566000000E+00 0.  1.
         22    1    1    0    0    0 -0.48836900726E+01 -0.29857859469E+02 -0.89569172606E+01  0.31552631707E+02  0.00000000000E+00 0. -1.
</event>
<event>
 5    1  0.1758488E-003  0.9118800E+02  0.7818608E-02  0.1130116E+00
         25   -1    0    0    0    0  0.00000000000E+00  0.00000000000E+00  0.99999998245E-14  0.12500000000E+03  0.12500000000E+03 0.  0.
        -13    1    3    3    0    0  0.19142316068E+02  0.27308174533E+02 -0.22566364654E+02  0.40266818083E+02  0.10566000000E+00 0.  1.
         23    2    1    0    0    0 -0.82791965221E+01  0.15291118952E+02  0.23839639214E+02  0.95492512616E+02  0.90819205865E+02 0.  0.
         13    1    3    3    0    0 -0.27421512590E+02 -0.12017055582E+02  0.46406003868E+02  0.55225694533E+02  0.10566000000E+00 0. -1.
         22    1    1    0    0    0  0.82791965221E+01 -0.15291118952E+02 -0.23839639214E+02  0.29507487384E+02  0.00000000000E+00 0. -1.
</event>
<event>
 5    1  0.1758488E-003  0.9118800E+02  0.7818608E-02  0.1130116E+00
         25   -1    0    0    0    0  0.00000000000E+00  0.00000000000E+00  0.99999998245E-14  0.12500000000E+03  0.12500000000E+03 0.  0.
        -13    1    3    3    0    0 -0.34099443134E+02 -0.28566417977E+02  0.37074801460E+02  0.57908240566E+02  0.10566000000E+00 0. -1.
         23    2    1    0    0    0 -0.13057186359E+01 -0.21641768211E+02  0.19906036014E+02  0.95566663420E+02  0.90921206850E+02 0.  0.
         13    1    3    3    0    0  0.32793724498E+02  0.69246497664E+01 -0.17168765447E+02  0.37658422854E+02  0.10566000000E+00 0.  1.
         22    1    1    0    0    0  0.13057186359E+01  0.21641768211E+02 -0.19906036014E+02  0.29433336580E+02  0.00000000000E+00 0. -1.
</event>
<event>
 5    1  0.1758488E-003  0.9118800E+02  0.7818608E-02  0.1130116E+00
         25   -1    0    0    0    0  0.00000000000E+00  0.00000000000E+00  0.99999998245E-14  0.12500000000E+03  0.12500000000E+03 0.  0.
        -13    1    3    3    0    0  0.59954841799E+02 -0.40083836805E+01  0.21747817684E+01  0.60128121829E+02  0.10566000000E+00 0. -1.
         23    2    1    0    0    0  0.26416387176E+02  0.90306440805E+01 -0.44890345210E+01  0.96724047763E+02  0.92498713185E+02 0.  0.
         13    1    3    3    0    0 -0.33538454623E+02  0.13039027761E+02 -0.66638162894E+01  0.36595925934E+02  0.10566000000E+00 0.  1.
         22    1    1    0    0    0 -0.26416387176E+02 -0.90306440805E+01  0.44890345210E+01  0.28275952237E+02  0.00000000000E+00 0. -1.
</event>
<event>
 5    1  0.1758488E-003  0.9118800E+02  0.7818608E-02  0.1130116E+00
         25   -1    0    0    0    0  0.00000000000E+00  0.00000000000E+00  0.99999998245E-14  0.12500000000E+03  0.12500000000E+03 0.  0.
        -13    1    3    3    0    0  0.62953317490E+01 -0.10503173039E+02 -0.55512978708E+02  0.56847601663E+02  0.10566000000E+00 0.  1.
         23    2    1    0    0    0  0.53735364539E+01 -0.20913555729E+02 -0.14946558317E+02  0.98738786914E+02  0.95182439181E+02 0.  0.
         13    1    3    3    0    0 -0.92179529503E+00 -0.10410382690E+02  0.40566420392E+02  0.41891185251E+02  0.10566000000E+00 0. -1.
         22    1    1    0    0    0 -0.53735364539E+01  0.20913555729E+02  0.14946558317E+02  0.26261213086E+02  0.00000000000E+00 0.  1.
</event>
<event>
 5    1  0.1758488E-003  0.9118800E+02  0.7818608E-02  0.1130116E+00
         25   -1    0    0    0    0  0.00000000000E+00  0.00000000000E+00  0.99999998245E-14  0.12500000000E+03  0.12500000000E+03 0.  0.
        -13    1    3    3    0    0  0.12608998678E+02  0.47611276810E+01  0.32391406552E+02  0.35083750753E+02  0.10566000000E+00 0.  1.
         23    2    1    0    0    0 -0.10132973897E+02 -0.32204546491E+01 -0.25272450451E+02  0.97582027063E+02  0.93650983795E+02 0.  0.
         13    1    3    3    0    0 -0.22741972575E+02 -0.79815823301E+01 -0.57663857004E+02  0.62498276310E+02  0.10566000000E+00 0. -1.
         22    1    1    0    0    0  0.10132973897E+02  0.32204546491E+01  0.25272450451E+02  0.27417972937E+02  0.00000000000E+00 0. -1.
</event>
<event>
 5    1  0.1758488E-003  0.9118800E+02  0.7818608E-02  0.1130116E+00
         25   -1    0    0    0    0  0.00000000000E+00  0.00000000000E+00  0.99999998245E-14  0.12500000000E+03  0.12500000000E+03 0.  0.
        -13    1    3    3    0    0  0.48690001508E+02  0.10051505650E+02  0.61609673029E+01  0.50097082697E+02  0.10566000000E+00 0. -1.
         23    2    1    0    0    0  0.16514609704E+02 -0.19291276694E+02  0.16321183230E+02  0.94812805493E+02  0.89878814930E+02 0.  0.
         13    1    3    3    0    0 -0.32175391804E+02 -0.29342782344E+02  0.10160215927E+02  0.44715722795E+02  0.10566000000E+00 0.  1.
         22    1    1    0    0    0 -0.16514609704E+02  0.19291276694E+02 -0.16321183230E+02  0.30187194507E+02  0.00000000000E+00 0. -1.
</event>
<event>
 5    1  0.1758488E-003  0.9118800E+02  0.7818608E-02  0.1130116E+00
         25   -1    0    0    0    0  0.00000000000E+00  0.00000000000E+00  0.99999998245E-14  0.12500000000E+03  0.12500000000E+03 0.  0.
        -13    1    3    3    0    0  0.30643159589E+02  0.64716409553E+01  0.51979580741E+02  0.60685857861E+02  0.10566000000E+00 0.  1.
         23    2    1    0    0    0  0.43353176924E+01  0.18754555474E+01  0.28082158097E+02  0.96523344361E+02  0.92227089785E+02 0.  0.
         13    1    3    3    0    0 -0.26307841896E+02 -0.45961854079E+01 -0.23897422644E+02  0.35837486500E+02  0.10566000000E+00 0. -1.
         22    1    1    0    0    0 -0.43353176924E+01 -0.18754555474E+01 -0.28082158097E+02  0.28476655639E+02  0.00000000000E+00 0.  1.
</event>
<event>
 5    1  0.1758488E-003  0.9118800E+02  0.7818608E-02  0.1130116E+00
         25   -1    0    0    0    0  0.00000000000E+00  0.00000000000E+00  0.99999998245E-14  0.12500000000E+03  0.12500000000E+03 0.  0.
        -13    1    3    3    0    0 -0.62088034254E+01 -0.32739347435E+02 -0.40916213982E+01  0.33573302491E+02  0.10566000000E+00 0.  1.
         23    2    1    0    0    0  0.65105845600E+00  0.28312528380E+02 -0.92041988263E+01  0.95221813077E+02  0.90445858220E+02 0.  0.
         13    1    3    3    0    0  0.68598618814E+01  0.61051875815E+02 -0.51125774281E+01  0.61648510586E+02  0.10566000000E+00 0. -1.
         22    1    1    0    0    0 -0.65105845600E+00 -0.28312528380E+02  0.92041988263E+01  0.29778186923E+02  0.00000000000E+00 0. -1.
</event>
<event>
 5    1  0.1758488E-003  0.9118800E+02  0.7818608E-02  0.1130116E+00
         25   -1    0    0    0    0  0.00000000000E+00  0.00000000000E+00  0.99999998245E-14  0.12500000000E+03  0.12500000000E+03 0.  0.
        -13    1    3    3    0    0  0.53144216781E+02  0.16873017905E+02  0.27277410083E+02  0.62073140531E+02  0.10566000000E+00 0.  1.
         23    2    1    0    0    0  0.27117658039E+02  0.52709755411E+01  0.17944944807E+02  0.92058057058E+02  0.85962283965E+02 0.  0.
         13    1    3    3    0    0 -0.26026558742E+02 -0.11602042364E+02 -0.93324652763E+01  0.29984916527E+02  0.10566000000E+00 0. -1.
         22    1    1    0    0    0 -0.27117658039E+02 -0.52709755411E+01 -0.17944944807E+02  0.32941942942E+02  0.00000000000E+00 0.  1.
</event>
<event>
 5    1  0.1758488E-003  0.9118800E+02  0.7818608E-02  0.1130116E+00
         25   -1    0    0    0    0  0.00000000000E+00  0.00000000000E+00  0.99999998245E-14  0.12500000000E+03  0.12500000000E+03 0.  0.
        -13    1    3    3    0    0  0.12292206705E+02  0.37231125095E+02  0.19172642260E+02  0.43644660576E+02  0.10566000000E+00 0. -1.
         23    2    1    0    0    0 -0.18493654042E+02  0.15440311827E+02 -0.16691134399E+02  0.95691086055E+02  0.91092104563E+02 0.  0.
         13    1    3    3    0    0 -0.30785860747E+02 -0.21790813268E+02 -0.35863776659E+02  0.52046425479E+02  0.10566000000E+00 0.  1.
         22    1    1    0    0    0  0.18493654042E+02 -0.15440311827E+02  0.16691134399E+02  0.29308913945E+02  0.00000000000E+00 0.  1.
</event>
<event>
 5    1  0.1758488E-003  0.9118800E+02  0.7818608E-02  0.1130116E+00
         25   -1    0    0    0    0  0.00000000000E+00  0.00000000000E+00  0.99999998245E-14  0.12500000000E+03  0.12500000000E+03 0.  0.
        -13    1    3    3    0    0 -0.15091373099E+02  0.58786256712E+02 -0.44848811432E+00  0.60694199277E+02  0.10566000000E+00 0. -1.
         23    2    1    0    0    0 -0.14204330776E+02  0.24086993874E+02 -0.73554636567E+01  0.96085485785E+02  0.91631716377E+02 0.  0.
         13    1    3    3    0    0  0.88704232355E+00 -0.34699262837E+02 -0.69069755424E+01  0.35391286508E+02  0.10566000000E+00 0.  1.
         22    1    1    0    0    0  0.14204330776E+02 -0.24086993874E+02  0.73554636567E+01  0.28914514215E+02  0.00000000000E+00 0. -1.
</event>
<event>
 5    1  0.1758488E-003  0.9118800E+02  0.7818608E-02  0.1130116E+00
         25   -1    0    0    0    0  0.00000000000E+00  0.00000000000E+00  0.99999998245E-14  0.12500000000E+03  0.12500000000E+03 0.  0.
        -13    1    3    3    0    0 -0.52948928142E+02 -0.20765627000E+02  0.13323191849E+02  0.58415056802E+02  0.10566000000E+00 0.  1.
         23    2    1    0    0    0 -0.28254317351E+02  0.59158964116E+01  0.51726435082E+01  0.95673211560E+02  0.91067573209E+02 0.  0.
         13    1    3    3    0    0  0.24694610791E+02  0.26681523412E+02 -0.81505483408E+01  0.37258154758E+02  0.10566000000E+00 0. -1.
         22    1    1    0    0    0  0.28254317351E+02 -0.59158964116E+01 -0.51726435082E+01  0.29326788440E+02  0.00000000000E+00 0.  1.
</event>
<event>
 5    1  0.1758488E-003  0.9118800E+02  0.7818608E-02  0.1130116E+00
         25   -1    0    0    0    0  0.00000000000E+00  0.00000000000E+00  0.99999998245E-14  0.12500000000E+03  0.12500000000E+03 0.  0.
        -13    1    3    3    0    0  0.25322671526E+02 -0.31842133969E+02  0.17187812029E+02  0.44165498245E+02  0.10566000000E+00 0. -1.
         23    2    1    0    0    0  0.22546500218E+02  0.18130924998E+02  0.59258388883E+01  0.95467125438E+02  0.90784257223E+02 0.  0.
         13    1    3    3    0    0 -0.27761713082E+01  0.49973058966E+02 -0.11261973140E+02  0.51301627193E+02  0.10566000000E+00 0.  1.
         22    1    1    0    0    0 -0.22546500218E+02 -0.18130924998E+02 -0.59258388883E+01  0.29532874562E+02  0.00000000000E+00 0.  1.
</event>
<event>
 5    1  0.1758488E-003  0.9118800E+02  0.7818608E-02  0.1130116E+00
         25   -1    0    0    0    0  0.00000000000E+00  0.00000000000E+00  0.99999998245E-14  0.12500000000E+03  0.12500000000E+03 0.  0.
        -13    1    3    3    0    0 -0.37116236086E+02  0.12441459448E+02 -0.12211804785E+02  0.41006636470E+02  0.10566000000E+00 0. -1.
         23    2    1    0    0    0  0.15524546449E+02  0.14783566900E+01 -0.24306897236E+02  0.96120555161E+02  0.91679544012E+02 0.  0.
         13    1    3    3    0    0  0.52640782536E+02 -0.10963102758E+02 -0.12095092451E+02  0.55113918691E+02  0.10566000000E+00 0.  1.
         22    1    1    0    0    0 -0.15524546449E+02 -0.14783566900E+01  0.24306897236E+02  0.28879444839E+02  0.00000000000E+00 0.  1.
</event>
<event>
 5    1  0.1758488E-003  0.9118800E+02  0.7818608E-02  0.1130116E+00
         25   -1    0    0    0    0  0.00000000000E+00  0.00000000000E+00  0.99999998245E-14  0.12500000000E+03  0.12500000000E+03 0.  0.
        -13    1    3    3    0    0  0.36193566985E+02  0.81509348787E+01 -0.78579887579E+01  0.37923227471E+02  0.10566000000E+00 0.  1.
         23    2    1    0    0    0 -0.15104670823E+02 -0.12036768136E+02 -0.22876987222E+02  0.95060203538E+02  0.90222230545E+02 0.  0.
         13    1    3    3    0    0 -0.51298237807E+02 -0.20187703015E+02 -0.15018998464E+02  0.57136976067E+02  0.10566000000E+00 0. -1.
         22    1    1    0    0    0  0.15104670823E+02  0.12036768136E+02  0.22876987222E+02  0.29939796462E+02  0.00000000000E+00 0. -1.
</event>
<event>
 5    1  0.1758488E-003  0.9118800E+02  0.7818608E-02  0.1130116E+00
         25   -1    0    0    0    0  0.00000000000E+00  0.00000000000E+00  0.99999998245E-14  0.12500000000E+03  0.12500000000E+03 0.  0.
        -13    1    3    3    0    0 -0.51809663687E+02  0.24941909187E+02 -0.21003333971E+02  0.61216756588E+02  0.10566000000E+00 0.  1.
         23    2    1    0    0    0 -0.28221881226E+02  0.71177283720E+01 -0.32231866089E+01  0.95716462491E+02  0.91126920407E+02 0.  0.
         13    1    3    3    0    0  0.23587782461E+02 -0.17824180815E+02  0.17780147362E+02  0.34499705903E+02  0.10566000000E+00 0. -1.
         22    1    1    0    0    0  0.28221881226E+02 -0.71177283720E+01  0.32231866089E+01  0.29283537509E+02  0.00000000000E+00 0.  1.
</event>
<event>
 5    1  0.1758488E-003  0.9118800E+02  0.7818608E-02  0.1130116E+00
         25   -1    0    0    0    0  0.00000000000E+00  0.00000000000E+00  0.99999998245E-14  0.12500000000E+03  0.12500000000E+03 0.  0.
        -13    1    3    3    0    0  0.29396761409E+02 -0.26417280085E+02 -0.43798822387E+02  0.58994832612E+02  0.10566000000E+00 0. -1.
         23    2    1    0    0    0  0.12198730704E+02  0.13384335303E+01 -0.26155026757E+02  0.96109069593E+02  0.91663882737E+02 0.  0.
         13    1    3    3    0    0 -0.17198030705E+02  0.27755713615E+02  0.17643795631E+02  0.37114236981E+02  0.10566000000E+00 0.  1.
         22    1    1    0    0    0 -0.12198730704E+02 -0.13384335303E+01  0.26155026757E+02  0.28890930407E+02  0.00000000000E+00 0. -1.
</event>
<event>
 5    1  0.1758488E-003  0.9118800E+02  0.7818608E-02  0.1130116E+00
         25   -1    0    0    0    0  0.00000000000E+00  0.00000000000E+00  0.99999998245E-14  0.12500000000E+03  0.12500000000E+03 0.  0.
        -13    1    3    3    0    0 -0.29064090571E+02 -0.31679762726E+02  0.44894349674E+02  0.62159814380E+02  0.10566000000E+00 0.  1.
         23    2    1    0    0    0 -0.12675659189E+02 -0.18628751847E+02  0.18582561024E+02  0.95793591363E+02  0.91232657754E+02 0.  0.
         13    1    3    3    0    0  0.16388431382E+02  0.13051010878E+02 -0.26311788650E+02  0.33633776983E+02  0.10566000000E+00 0. -1.
         22    1    1    0    0    0  0.12675659189E+02  0.18628751847E+02 -0.18582561024E+02  0.29206408637E+02  0.00000000000E+00 0.  1.
</event>
<event>
 5    1  0.1758488E-003  0.9118800E+02  0.7818608E-02  0.1130116E+00
         25   -1    0    0    0    0  0.00000000000E+00  0.00000000000E+00  0.99999998245E-14  0.12500000000E+03  0.12500000000E+03 0.  0.
        -13    1    3    3    0    0  0.27603255773E+02  0.24772134251E+02  0.75846062205E+00  0.37096964716E+02  0.10566000000E+00 0. -1.
         23    2    1    0    0    0 -0.24033937370E+02 -0.17368503502E+01  0.14675351817E+02  0.96786302163E+02  0.92582803699E+02 0.  0.
         13    1    3    3    0    0 -0.51637193143E+02 -0.26508984601E+02  0.13916891195E+02  0.59689337447E+02  0.10566000000E+00 0.  1.
         22    1    1    0    0    0  0.24033937370E+02  0.17368503502E+01 -0.14675351817E+02  0.28213697837E+02  0.00000000000E+00 0.  1.
</event>
<event>
 5    1  0.1758488E-003  0.9118800E+02  0.7818608E-02  0.1130116E+00
         25   -1    0    0    0    0  0.00000000000E+00  0.00000000000E+00  0.99999998245E-14  0.12500000000E+03  0.12500000000E+03 0.  0.
        -13    1    3    3    0    0 -0.22392147860E+02 -0.41987020422E+01 -0.29840930262E+02  0.37543703434E+02  0.10566000000E+00 0. -1.
         23    2    1    0    0    0  0.23774374655E+02 -0.17797938214E+02  0.19730943471E+01  0.95236253660E+02  0.90465813515E+02 0.  0.
         13    1    3    3    0    0  0.46166522515E+02 -0.13599236172E+02  0.31814024609E+02  0.57692550225E+02  0.10566000000E+00 0.  1.
         22    1    1    0    0    0 -0.23774374655E+02  0.17797938214E+02 -0.19730943471E+01  0.29763746340E+02  0.00000000000E+00 0.  1.
</event>
<event>
 5    1  0.1758488E-003  0.9118800E+02  0.7818608E-02  0.1130116E+00
         25   -1    0    0    0    0  0.00000000000E+00  0.00000000000E+00  0.99999998245E-14  0.12500000000E+03  0.12500000000E+03 0.  0.
        -13    1    3    3    0    0 -0.53271685427E+02  0.20663812764E+02  0.45743352384E+01  0.57321909713E+02  0.10566000000E+00 0. -1.
         23    2    1    0    0    0 -0.29160660066E+02 -0.27796900738E+01 -0.10101571843E+02  0.94014317402E+02  0.88761361810E+02 0.  0.
         13    1    3    3    0    0  0.24111025361E+02 -0.23443502838E+02 -0.14675907082E+02  0.36692407689E+02  0.10566000000E+00 0.  1.
         22    1    1    0    0    0  0.29160660066E+02  0.27796900738E+01  0.10101571843E+02  0.30985682598E+02  0.00000000000E+00 0. -1.
</event>
<event>
 5    1  0.1758488E-003  0.9118800E+02  0.7818608E-02  0.1130116E+00
         25   -1    0    0    0    0  0.00000000000E+00  0.00000000000E+00  0.99999998245E-14  0.12500000000E+03  0.12500000000E+03 0.  0.
        -13    1    3    3    0    0  0.42870400842E+02 -0.36851051100E+02  0.11599211958E+02  0.57709826872E+02  0.10566000000E+00 0. -1.
         23    2    1    0    0    0  0.98132949338E+01 -0.22770803086E+02  0.18199957799E+02  0.94242095414E+02  0.89081557314E+02 0.  0.
         13    1    3    3    0    0 -0.33057105908E+02  0.14080248014E+02  0.66007458410E+01  0.36532268542E+02  0.10566000000E+00 0.  1.
         22    1    1    0    0    0 -0.98132949338E+01  0.22770803086E+02 -0.18199957799E+02  0.30757904586E+02  0.00000000000E+00 0. -1.
</event>
<event>
 5    1  0.1758488E-003  0.9118800E+02  0.7818608E-02  0.1130116E+00
         25   -1    0    0    0    0  0.00000000000E+00  0.00000000000E+00  0.99999998245E-14  0.12500000000E+03  0.12500000000E+03 0.  0.
        -13    1    3    3    0    0  0.48780404932E+02 -0.33827032169E+02 -0.87191009213E+01  0.59998582447E+02  0.10566000000E+00 0.  1.
         23    2    1    0    0    0  0.16287819883E+02 -0.17817123217E+02 -0.14735775094E+02  0.96717743656E+02  0.92490193610E+02 0.  0.
         13    1    3    3    0    0 -0.32492585048E+02  0.16009908952E+02 -0.60166741729E+01  0.36719161209E+02  0.10566000000E+00 0. -1.
         22    1    1    0    0    0 -0.16287819883E+02  0.17817123217E+02  0.14735775094E+02  0.28282256344E+02  0.00000000000E+00 0.  1.
</event>
<event>
 5    1  0.1758488E-003  0.9118800E+02  0.7818608E-02  0.1130116E+00
         25   -1    0    0    0    0  0.00000000000E+00  0.00000000000E+00  0.99999998245E-14  0.12500000000E+03  0.12500000000E+03 0.  0.
        -13    1    3    3    0    0  0.35225098694E+01  0.36613424994E+02 -0.69598444915E+01  0.37435298382E+02  0.10566000000E+00 0.  1.
         23    2    1    0    0    0 -0.30131129355E+02 -0.67157588184E+01  0.53668879161E+01  0.93666473888E+02  0.88270144851E+02 0.  0.
         13    1    3    3    0    0 -0.33653639224E+02 -0.43329183812E+02  0.12326732408E+02  0.56231175506E+02  0.10566000000E+00 0. -1.
         22    1    1    0    0    0  0.30131129355E+02  0.67157588184E+01 -0.53668879161E+01  0.31333526112E+02  0.00000000000E+00 0. -1.
</event>
<event>
 5    1  0.1758488E-003  0.9118800E+02  0.7818608E-02  0.1130116E+00
         25   -1    0    0    0    0  0.00000000000E+00  0.00000000000E+00  0.99999998245E-14  0.12500000000E+03  0.12500000000E+03 0.  0.
        -13    1    3    3    0    0 -0.19735457600E+02  0.76788966991E+01  0.40406662663E+02  0.45619768662E+02  0.10566000000E+00 0.  1.
         23    2    1    0    0    0 -0.10522933938E+02  0.30284800128E+02 -0.12956547356E+00  0.92938839000E+02  0.87233650331E+02 0.  0.
         13    1    3    3    0    0  0.92125236615E+01  0.22605903429E+02 -0.40536228137E+02  0.47319070338E+02  0.10566000000E+00 0. -1.
         22    1    1    0    0    0  0.10522933938E+02 -0.30284800128E+02  0.12956547356E+00  0.32061161000E+02  0.00000000000E+00 0. -1.
</event>
<event>
 5    1  0.1758488E-003  0.9118800E+02  0.7818608E-02  0.1130116E+00
         25   -1    0    0    0    0  0.00000000000E+00  0.00000000000E+00  0.99999998245E-14  0.12500000000E+03  0.12500000000E+03 0.  0.
        -13    1    3    3    0    0  0.21367944906E+02  0.35917330861E+01  0.44918855443E+02  0.49871879395E+02  0.10566000000E+00 0.  1.
         23    2    1    0    0    0  0.26312589470E+02 -0.21841776565E+02  0.23255425732E+02  0.83645068080E+02  0.72706719221E+02 0.  0.
         13    1    3    3    0    0  0.49446445642E+01 -0.25433509651E+02 -0.21663429711E+02  0.33773188685E+02  0.10566000000E+00 0. -1.
         22    1    1    0    0    0 -0.26312589470E+02  0.21841776565E+02 -0.23255425732E+02  0.41354931920E+02  0.00000000000E+00 0.  1.
</event>
<event>
 5    1  0.1758488E-003  0.9118800E+02  0.7818608E-02  0.1130116E+00
         25   -1    0    0    0    0  0.00000000000E+00  0.00000000000E+00  0.99999998245E-14  0.12500000000E+03  0.12500000000E+03 0.  0.
        -13    1    3    3    0    0  0.35303998445E+02 -0.12042707703E+02  0.91239898264E+01  0.38401269112E+02  0.10566000000E+00 0. -1.
         23    2    1    0    0    0 -0.18125945817E+02 -0.16256846457E+02 -0.14156918589E+02  0.96835246984E+02  0.92648862627E+02 0.  0.
         13    1    3    3    0    0 -0.53429944262E+02 -0.42141387537E+01 -0.23280908416E+02  0.58433977872E+02  0.10566000000E+00 0.  1.
         22    1    1    0    0    0  0.18125945817E+02  0.16256846457E+02  0.14156918589E+02  0.28164753016E+02  0.00000000000E+00 0.  1.
</event>
<event>
 5    1  0.1758488E-003  0.9118800E+02  0.7818608E-02  0.1130116E+00
         25   -1    0    0    0    0  0.00000000000E+00  0.00000000000E+00  0.99999998245E-14  0.12500000000E+03  0.12500000000E+03 0.  0.
        -13    1    3    3    0    0 -0.31245614092E+02  0.75039016525E+01 -0.33448099175E+02  0.46383008122E+02  0.10566000000E+00 0.  1.
         23    2    1    0    0    0 -0.13178390652E+02 -0.23323453090E+02  0.37349850622E+01  0.97951828941E+02  0.94143280351E+02 0.  0.
         13    1    3    3    0    0  0.18067223440E+02 -0.30827354743E+02  0.37183084237E+02  0.51568820819E+02  0.10566000000E+00 0. -1.
         22    1    1    0    0    0  0.13178390652E+02  0.23323453090E+02 -0.37349850622E+01  0.27048171059E+02  0.00000000000E+00 0. -1.
</event>
<event>
 5    1  0.1758488E-003  0.9118800E+02  0.7818608E-02  0.1130116E+00
         25   -1    0    0    0    0  0.00000000000E+00  0.00000000000E+00  0.99999998245E-14  0.12500000000E+03  0.12500000000E+03 0.  0.
        -13    1    3    3    0    0  0.49631659556E+02 -0.14649210141E+02 -0.10217379453E+01  0.51758633101E+02  0.10566000000E+00 0. -1.
         23    2    1    0    0    0  0.97480272491E+01 -0.21585458880E+02  0.16771303205E+02  0.95978754653E+02  0.91486002553E+02 0.  0.
         13    1    3    3    0    0 -0.39883632307E+02 -0.69362487397E+01  0.17793041150E+02  0.44220121551E+02  0.10566000000E+00 0.  1.
         22    1    1    0    0    0 -0.97480272491E+01  0.21585458880E+02 -0.16771303205E+02  0.29021245347E+02  0.00000000000E+00 0. -1.
</event>
<event>
 5    1  0.1758488E-003  0.9118800E+02  0.7818608E-02  0.1130116E+00
         25   -1    0    0    0    0  0.00000000000E+00  0.00000000000E+00  0.99999998245E-14  0.12500000000E+03  0.12500000000E+03 0.  0.
        -13    1    3    3    0    0 -0.21271601154E+02 -0.41817971280E+02  0.30833841710E+02  0.56142325355E+02  0.10566000000E+00 0. -1.
         23    2    1    0    0    0  0.64721165035E+01 -0.14520968680E+02  0.24819494963E+02  0.95525364232E+02  0.90864410294E+02 0.  0.
         13    1    3    3    0    0  0.27743717657E+02  0.27297002600E+02 -0.60143467467E+01  0.39383038877E+02  0.10566000000E+00 0.  1.
         22    1    1    0    0    0 -0.64721165035E+01  0.14520968680E+02 -0.24819494963E+02  0.29474635768E+02  0.00000000000E+00 0. -1.
</event>
<event>
 5    1  0.1758488E-003  0.9118800E+02  0.7818608E-02  0.1130116E+00
         25   -1    0    0    0    0  0.00000000000E+00  0.00000000000E+00  0.99999998245E-14  0.12500000000E+03  0.12500000000E+03 0.  0.
        -13    1    3    3    0    0  0.29058860026E+02  0.27920149322E+02 -0.33323630306E+02  0.52291754464E+02  0.10566000000E+00 0. -1.
         23    2    1    0    0    0  0.13597159320E+02  0.24689444997E+02  0.73047689189E+01  0.95882804311E+02  0.91354808728E+02 0.  0.
         13    1    3    3    0    0 -0.15461700706E+02 -0.32307043246E+01  0.40628399225E+02  0.43591049847E+02  0.10566000000E+00 0.  1.
         22    1    1    0    0    0 -0.13597159320E+02 -0.24689444997E+02 -0.73047689189E+01  0.29117195689E+02  0.00000000000E+00 0. -1.
</event>
<event>
 5    1  0.1758488E-003  0.9118800E+02  0.7818608E-02  0.1130116E+00
         25   -1    0    0    0    0  0.00000000000E+00  0.00000000000E+00  0.99999998245E-14  0.12500000000E+03  0.12500000000E+03 0.  0.
        -13    1    3    3    0    0  0.84156556027E+01 -0.53493232368E+02  0.25863960568E+02  0.60010872254E+02  0.10566000000E+00 0. -1.
         23    2    1    0    0    0 -0.37402106475E+01 -0.20648551247E+02  0.20900074424E+02  0.95383029270E+02  0.90668392053E+02 0.  0.
         13    1    3    3    0    0 -0.12155866250E+02  0.32844681122E+02 -0.49638861435E+01  0.35372157016E+02  0.10566000000E+00 0.  1.
         22    1    1    0    0    0  0.37402106475E+01  0.20648551247E+02 -0.20900074424E+02  0.29616970730E+02  0.00000000000E+00 0. -1.
</event>
<event>
 5    1  0.1758488E-003  0.9118800E+02  0.7818608E-02  0.1130116E+00
         25   -1    0    0    0    0  0.00000000000E+00  0.00000000000E+00  0.99999998245E-14  0.12500000000E+03  0.12500000000E+03 0.  0.
        -13    1    3    3    0    0  0.53845806618E+02  0.71593826294E+01 -0.20734384742E+01  0.54359341066E+02  0.10566000000E+00 0.  1.
         23    2    1    0    0    0  0.17594429664E+02  0.22649097147E+02  0.83367921039E+01  0.95132833088E+02  0.90322800399E+02 0.  0.
         13    1    3    3    0    0 -0.36251376954E+02  0.15489714518E+02  0.10410230578E+02  0.40773492022E+02  0.10566000000E+00 0. -1.
         22    1    1    0    0    0 -0.17594429664E+02 -0.22649097147E+02 -0.83367921039E+01  0.29867166912E+02  0.00000000000E+00 0. -1.
</event>
<event>
 5    1  0.1758488E-003  0.9118800E+02  0.7818608E-02  0.1130116E+00
         25   -1    0    0    0    0  0.00000000000E+00  0.00000000000E+00  0.99999998245E-14  0.12500000000E+03  0.12500000000E+03 0.  0.
        -13    1    3    3    0    0  0.91420620016E+00  0.41618136660E+02 -0.15377418474E+02  0.44377711016E+02  0.10566000000E+00 0.  1.
         23    2    1    0    0    0  0.30536944749E+02  0.37456506118E+01 -0.26210150906E+01  0.94122749261E+02  0.88913932064E+02 0.  0.
         13    1    3    3    0    0  0.29622738549E+02 -0.37872486049E+02  0.12756403383E+02  0.49745038245E+02  0.10566000000E+00 0. -1.
         22    1    1    0    0    0 -0.30536944749E+02 -0.37456506118E+01  0.26210150906E+01  0.30877250739E+02  0.00000000000E+00 0. -1.
</event>
<event>
 5    1  0.1758488E-003  0.9118800E+02  0.7818608E-02  0.1130116E+00
         25   -1    0    0    0    0  0.00000000000E+00  0.00000000000E+00  0.99999998245E-14  0.12500000000E+03  0.12500000000E+03 0.  0.
        -13    1    3    3    0    0 -0.30863746300E+01  0.21510283974E+02 -0.33895074824E+02  0.40262951784E+02  0.10566000000E+00 0. -1.
         23    2    1    0    0    0  0.14939792503E+02 -0.23975445686E+02 -0.79022282782E+01  0.95666322978E+02  0.91058117401E+02 0.  0.
         13    1    3    3    0    0  0.18026167133E+02 -0.45485729660E+02  0.25992846546E+02  0.55403371195E+02  0.10566000000E+00 0.  1.
         22    1    1    0    0    0 -0.14939792503E+02  0.23975445686E+02  0.79022282782E+01  0.29333677022E+02  0.00000000000E+00 0.  1.
</event>
<event>
 5    1  0.1758488E-003  0.9118800E+02  0.7818608E-02  0.1130116E+00
         25   -1    0    0    0    0  0.00000000000E+00  0.00000000000E+00  0.99999998245E-14  0.12500000000E+03  0.12500000000E+03 0.  0.
        -13    1    3    3    0    0  0.40018529686E+02 -0.51848262927E+01 -0.66893207375E+01  0.40903830112E+02  0.10566000000E+00 0.  1.
         23    2    1    0    0    0 -0.37234934301E+01  0.28202249494E+02 -0.59536276113E+01  0.95936673254E+02  0.91428487428E+02 0.  0.
         13    1    3    3    0    0 -0.43742023116E+02  0.33387075786E+02  0.73569312617E+00  0.55032843141E+02  0.10566000000E+00 0. -1.
         22    1    1    0    0    0  0.37234934301E+01 -0.28202249494E+02  0.59536276113E+01  0.29063326746E+02  0.00000000000E+00 0. -1.
</event>
<event>
 5    1  0.1758488E-003  0.9118800E+02  0.7818608E-02  0.1130116E+00
         25   -1    0    0    0    0  0.00000000000E+00  0.00000000000E+00  0.99999998245E-14  0.12500000000E+03  0.12500000000E+03 0.  0.
        -13    1    3    3    0    0  0.48637420622E+02  0.13400542634E+02  0.13255700934E+02  0.52162227703E+02  0.10566000000E+00 0. -1.
         23    2    1    0    0    0  0.17568594619E+02  0.13749268325E+02 -0.18075240794E+02  0.96287420421E+02  0.91906773989E+02 0.  0.
         13    1    3    3    0    0 -0.31068826003E+02  0.34872569129E+00 -0.31330941728E+02  0.44125192718E+02  0.10566000000E+00 0.  1.
         22    1    1    0    0    0 -0.17568594619E+02 -0.13749268325E+02  0.18075240794E+02  0.28712579579E+02  0.00000000000E+00 0. -1.
</event>
<event>
 5    1  0.1758488E-003  0.9118800E+02  0.7818608E-02  0.1130116E+00
         25   -1    0    0    0    0  0.00000000000E+00  0.00000000000E+00  0.99999998245E-14  0.12500000000E+03  0.12500000000E+03 0.  0.
        -13    1    3    3    0    0  0.31680279743E+02 -0.24469159485E+02  0.58730972095E+01  0.40458427124E+02  0.10566000000E+00 0.  1.
         23    2    1    0    0    0 -0.12978475793E+02  0.23659982779E+01  0.25625335554E+02  0.96178192215E+02  0.91758095303E+02 0.  0.
         13    1    3    3    0    0 -0.44658755536E+02  0.26835157763E+02  0.19752238345E+02  0.55719765091E+02  0.10566000000E+00 0. -1.
         22    1    1    0    0    0  0.12978475793E+02 -0.23659982779E+01 -0.25625335554E+02  0.28821807785E+02  0.00000000000E+00 0. -1.
</event>
<event>
 5    1  0.1758488E-003  0.9118800E+02  0.7818608E-02  0.1130116E+00
         25   -1    0    0    0    0  0.00000000000E+00  0.00000000000E+00  0.99999998245E-14  0.12500000000E+03  0.12500000000E+03 0.  0.
        -13    1    3    3    0    0 -0.29056539359E+02 -0.19443627975E+02  0.10766347674E+02  0.36582271043E+02  0.10566000000E+00 0. -1.
         23    2    1    0    0    0  0.20023059872E+02 -0.15755843358E+01 -0.19547714916E+02  0.96972896134E+02  0.92834390360E+02 0.  0.
         13    1    3    3    0    0  0.49079599231E+02  0.17868043640E+02 -0.30314062590E+02  0.60390625092E+02  0.10566000000E+00 0.  1.
         22    1    1    0    0    0 -0.20023059872E+02  0.15755843358E+01  0.19547714916E+02  0.28027103866E+02  0.00000000000E+00 0.  1.
</event>
<event>
 5    1  0.1758488E-003  0.9118800E+02  0.7818608E-02  0.1130116E+00
         25   -1    0    0    0    0  0.00000000000E+00  0.00000000000E+00  0.99999998245E-14  0.12500000000E+03  0.12500000000E+03 0.  0.
        -13    1    3    3    0    0  0.15155359905E+02  0.57821617461E+01 -0.49107517726E+02  0.51717287145E+02  0.10566000000E+00 0.  1.
         23    2    1    0    0    0  0.12360999802E+02 -0.21235773196E+02 -0.12133551606E+02  0.97596068641E+02  0.93669723819E+02 0.  0.
         13    1    3    3    0    0 -0.27943601033E+01 -0.27017934942E+02  0.36973966121E+02  0.45878781497E+02  0.10566000000E+00 0. -1.
         22    1    1    0    0    0 -0.12360999802E+02  0.21235773196E+02  0.12133551606E+02  0.27403931359E+02  0.00000000000E+00 0.  1.
</event>
<event>
 5    1  0.1758488E-003  0.9118800E+02  0.7818608E-02  0.1130116E+00
         25   -1    0    0    0    0  0.00000000000E+00  0.00000000000E+00  0.99999998245E-14  0.12500000000E+03  0.12500000000E+03 0.  0.
        -13    1    3    3    0    0 -0.34963485283E+02 -0.13995309004E+02 -0.64512701665E+01  0.38209213916E+02  0.10566000000E+00 0.  1.
         23    2    1    0    0    0  0.19816758443E+00  0.17177854855E+02  0.24936690338E+02  0.94718710516E+02  0.89747855846E+02 0.  0.
         13    1    3    3    0    0  0.35161652868E+02  0.31173163859E+02  0.31387960504E+02  0.56509496600E+02  0.10566000000E+00 0. -1.
         22    1    1    0    0    0 -0.19816758443E+00 -0.17177854855E+02 -0.24936690338E+02  0.30281289484E+02  0.00000000000E+00 0. -1.
</event>
<event>
 5    1  0.1758488E-003  0.9118800E+02  0.7818608E-02  0.1130116E+00
         25   -1    0    0    0    0  0.00000000000E+00  0.00000000000E+00  0.99999998245E-14  0.12500000000E+03  0.12500000000E+03 0.  0.
        -13    1    3    3    0    0 -0.26455515986E+02 -0.43001747730E+02 -0.49690652791E+01  0.50732114166E+02  0.10566000000E+00 0.  1.
         23    2    1    0    0    0  0.14494510599E+02 -0.24666391916E+02 -0.66359785121E+01  0.95630663295E+02  0.91009152418E+02 0.  0.
         13    1    3    3    0    0  0.40950026585E+02  0.18335355814E+02 -0.16669132329E+01  0.44898549129E+02  0.10566000000E+00 0. -1.
         22    1    1    0    0    0 -0.14494510599E+02  0.24666391916E+02  0.66359785121E+01  0.29369336705E+02  0.00000000000E+00 0. -1.
</event>
<event>
 5    1  0.1758488E-003  0.9118800E+02  0.7818608E-02  0.1130116E+00
         25   -1    0    0    0    0  0.00000000000E+00  0.00000000000E+00  0.99999998245E-14  0.12500000000E+03  0.12500000000E+03 0.  0.
        -13    1    3    3    0    0  0.18991482993E+02  0.32859612933E+01  0.38092156883E+02  0.42690719694E+02  0.10566000000E+00 0.  1.
         23    2    1    0    0    0  0.72633376233E+01 -0.30310049203E+02  0.14053446731E+01  0.93800157856E+02  0.88459253129E+02 0.  0.
         13    1    3    3    0    0 -0.11728145370E+02 -0.33596010497E+02 -0.36686812210E+02  0.51109438163E+02  0.10566000000E+00 0. -1.
         22    1    1    0    0    0 -0.72633376233E+01  0.30310049203E+02 -0.14053446731E+01  0.31199842144E+02  0.00000000000E+00 0.  1.
</event>
<event>
 5    1  0.1758488E-003  0.9118800E+02  0.7818608E-02  0.1130116E+00
         25   -1    0    0    0    0  0.00000000000E+00  0.00000000000E+00  0.99999998245E-14  0.12500000000E+03  0.12500000000E+03 0.  0.
        -13    1    3    3    0    0  0.38847966297E+02 -0.23309650015E+02  0.25697918576E+02  0.52085491765E+02  0.10566000000E+00 0.  1.
         23    2    1    0    0    0  0.99409845338E+01 -0.26975370536E+02 -0.65151878260E+01  0.95522186962E+02  0.90860039294E+02 0.  0.
         13    1    3    3    0    0 -0.28906981763E+02 -0.36657205211E+01 -0.32213106402E+02  0.43436695197E+02  0.10566000000E+00 0. -1.
         22    1    1    0    0    0 -0.99409845338E+01  0.26975370536E+02  0.65151878260E+01  0.29477813038E+02  0.00000000000E+00 0.  1.
</event>
<event>
 5    1  0.1758488E-003  0.9118800E+02  0.7818608E-02  0.1130116E+00
         25   -1    0    0    0    0  0.00000000000E+00  0.00000000000E+00  0.99999998245E-14  0.12500000000E+03  0.12500000000E+03 0.  0.
        -13    1    3    3    0    0 -0.32809415451E+02  0.13302110867E+01  0.89695798758E+01  0.34039561262E+02  0.10566000000E+00 0.  1.
         23    2    1    0    0    0  0.26793815679E+02 -0.12037542822E+02  0.44587865568E+01  0.95289870862E+02  0.90539868100E+02 0.  0.
         13    1    3    3    0    0  0.59603231130E+02 -0.13367753909E+02 -0.45107933190E+01  0.61250309600E+02  0.10566000000E+00 0. -1.
         22    1    1    0    0    0 -0.26793815679E+02  0.12037542822E+02 -0.44587865568E+01  0.29710129138E+02  0.00000000000E+00 0. -1.
</event>
<event>
 5    1  0.1758488E-003  0.9118800E+02  0.7818608E-02  0.1130116E+00
         25   -1    0    0    0    0  0.00000000000E+00  0.00000000000E+00  0.99999998245E-14  0.12500000000E+03  0.12500000000E+03 0.  0.
        -13    1    3    3    0    0  0.26916401715E+02  0.32623082153E+01  0.20881292316E+02  0.34222432248E+02  0.10566000000E+00 0.  1.
         23    2    1    0    0    0 -0.21049192455E+02 -0.73952860575E+01 -0.17559465721E+02  0.96608212538E+02  0.92342044240E+02 0.  0.
         13    1    3    3    0    0 -0.47965594171E+02 -0.10657594273E+02 -0.38440758037E+02  0.62385780289E+02  0.10566000000E+00 0. -1.
         22    1    1    0    0    0  0.21049192455E+02  0.73952860575E+01  0.17559465721E+02  0.28391787462E+02  0.00000000000E+00 0. -1.
</event>
<event>
 5    1  0.1758488E-003  0.9118800E+02  0.7818608E-02  0.1130116E+00
         25   -1    0    0    0    0  0.00000000000E+00  0.00000000000E+00  0.99999998245E-14  0.12500000000E+03  0.12500000000E+03 0.  0.
        -13    1    3    3    0    0 -0.50779842225E+02 -0.22306871463E+02  0.85303323832E+00  0.55470061480E+02  0.10566000000E+00 0. -1.
         23    2    1    0    0    0 -0.24131472351E+02  0.81697340238E+01  0.11067532980E+02  0.97222980755E+02  0.93170516736E+02 0.  0.
         13    1    3    3    0    0  0.26648369874E+02  0.30476605487E+02  0.10214499742E+02  0.41752919275E+02  0.10566000000E+00 0.  1.
         22    1    1    0    0    0  0.24131472351E+02 -0.81697340238E+01 -0.11067532980E+02  0.27777019245E+02  0.00000000000E+00 0. -1.
</event>
<event>
 5    1  0.1758488E-003  0.9118800E+02  0.7818608E-02  0.1130116E+00
         25   -1    0    0    0    0  0.00000000000E+00  0.00000000000E+00  0.99999998245E-14  0.12500000000E+03  0.12500000000E+03 0.  0.
        -13    1    3    3    0    0  0.22899752372E+02  0.30323075307E+02  0.22836853233E+02  0.44333064235E+02  0.10566000000E+00 0.  1.
         23    2    1    0    0    0  0.19340336613E+02 -0.19218459342E+02  0.12205250828E+02  0.95127505167E+02  0.90315426655E+02 0.  0.
         13    1    3    3    0    0 -0.35594157599E+01 -0.49541534649E+02 -0.10631602405E+02  0.50794440933E+02  0.10566000000E+00 0. -1.
         22    1    1    0    0    0 -0.19340336613E+02  0.19218459342E+02 -0.12205250828E+02  0.29872494833E+02  0.00000000000E+00 0.  1.
</event>
<event>
 5    1  0.1758488E-003  0.9118800E+02  0.7818608E-02  0.1130116E+00
         25   -1    0    0    0    0  0.00000000000E+00  0.00000000000E+00  0.99999998245E-14  0.12500000000E+03  0.12500000000E+03 0.  0.
        -13    1    3    3    0    0 -0.24415826102E+02  0.19649492451E+02  0.40299482207E+02  0.51051880945E+02  0.10566000000E+00 0. -1.
         23    2    1    0    0    0 -0.26284731278E+02 -0.10768385479E+02  0.79328380232E+01  0.95508049517E+02  0.90840587731E+02 0.  0.
         13    1    3    3    0    0 -0.18689051760E+01 -0.30417877930E+02 -0.32366644184E+02  0.44456168572E+02  0.10566000000E+00 0.  1.
         22    1    1    0    0    0  0.26284731278E+02  0.10768385479E+02 -0.79328380232E+01  0.29491950483E+02  0.00000000000E+00 0. -1.
</event>
<event>
 5    1  0.1758488E-003  0.9118800E+02  0.7818608E-02  0.1130116E+00
         25   -1    0    0    0    0  0.00000000000E+00  0.00000000000E+00  0.99999998245E-14  0.12500000000E+03  0.12500000000E+03 0.  0.
        -13    1    3    3    0    0 -0.30076336005E+01  0.21582109268E+02  0.41524572498E+02  0.46894931342E+02  0.10566000000E+00 0.  1.
         23    2    1    0    0    0  0.72189521366E+01  0.37822063254E+02  0.77774975204E+01  0.85717545820E+02  0.76186524103E+02 0.  0.
         13    1    3    3    0    0  0.10226585737E+02  0.16239953986E+02 -0.33747074978E+02  0.38822614478E+02  0.10566000000E+00 0. -1.
         22    1    1    0    0    0 -0.72189521366E+01 -0.37822063254E+02 -0.77774975204E+01  0.39282454180E+02  0.00000000000E+00 0.  1.
</event>
<event>
 5    1  0.1758488E-003  0.9118800E+02  0.7818608E-02  0.1130116E+00
         25   -1    0    0    0    0  0.00000000000E+00  0.00000000000E+00  0.99999998245E-14  0.12500000000E+03  0.12500000000E+03 0.  0.
        -13    1    3    3    0    0  0.33419621139E+02 -0.29540684899E+02 -0.39097730792E+02  0.59314137088E+02  0.10566000000E+00 0.  1.
         23    2    1    0    0    0  0.97447707764E+00 -0.14992957945E+02 -0.20906265244E+02  0.99254897165E+02  0.95857833751E+02 0.  0.
         13    1    3    3    0    0 -0.32445144062E+02  0.14547726954E+02  0.18191465548E+02  0.39940760077E+02  0.10566000000E+00 0. -1.
         22    1    1    0    0    0 -0.97447707764E+00  0.14992957945E+02  0.20906265244E+02  0.25745102835E+02  0.00000000000E+00 0.  1.
</event>
<event>
 5    1  0.1758488E-003  0.9118800E+02  0.7818608E-02  0.1130116E+00
         25   -1    0    0    0    0  0.00000000000E+00  0.00000000000E+00  0.99999998245E-14  0.12500000000E+03  0.12500000000E+03 0.  0.
        -13    1    3    3    0    0  0.21576160480E+02  0.43920868677E+02  0.20477338761E+02  0.53046262576E+02  0.10566000000E+00 0.  1.
         23    2    1    0    0    0  0.24721885559E+02  0.47567762864E+01  0.20808794740E+02  0.92338026931E+02  0.86368435975E+02 0.  0.
         13    1    3    3    0    0  0.31457250781E+01 -0.39164092391E+02  0.33145597883E+00  0.39291764356E+02  0.10566000000E+00 0. -1.
         22    1    1    0    0    0 -0.24721885559E+02 -0.47567762864E+01 -0.20808794740E+02  0.32661973069E+02  0.00000000000E+00 0.  1.
</event>
<event>
 5    1  0.1758488E-003  0.9118800E+02  0.7818608E-02  0.1130116E+00
         25   -1    0    0    0    0  0.00000000000E+00  0.00000000000E+00  0.99999998245E-14  0.12500000000E+03  0.12500000000E+03 0.  0.
        -13    1    3    3    0    0  0.57005572329E+02  0.31348902509E-01 -0.18197643124E+02  0.59839799788E+02  0.10566000000E+00 0.  1.
         23    2    1    0    0    0  0.27838795871E+02 -0.28992344440E+01  0.41554029329E+01  0.96703860874E+02  0.92471429202E+02 0.  0.
         13    1    3    3    0    0 -0.29166776459E+02 -0.29305833465E+01  0.22353046057E+02  0.36864061087E+02  0.10566000000E+00 0. -1.
         22    1    1    0    0    0 -0.27838795871E+02  0.28992344440E+01 -0.41554029329E+01  0.28296139126E+02  0.00000000000E+00 0.  1.
</event>
<event>
 5    1  0.1758488E-003  0.9118800E+02  0.7818608E-02  0.1130116E+00
         25   -1    0    0    0    0  0.00000000000E+00  0.00000000000E+00  0.99999998245E-14  0.12500000000E+03  0.12500000000E+03 0.  0.
        -13    1    3    3    0    0 -0.22482320763E+02 -0.24127650617E+02 -0.52085035165E+02  0.61647873632E+02  0.10566000000E+00 0. -1.
         23    2    1    0    0    0 -0.12604015332E+02 -0.18965701531E+02 -0.23748096419E+02  0.92098159313E+02  0.86020577935E+02 0.  0.
         13    1    3    3    0    0  0.98783054305E+01  0.51619490863E+01  0.28336938745E+02  0.30450285681E+02  0.10566000000E+00 0.  1.
         22    1    1    0    0    0  0.12604015332E+02  0.18965701531E+02  0.23748096419E+02  0.32901840687E+02  0.00000000000E+00 0. -1.
</event>
<event>
 5    1  0.1758488E-003  0.9118800E+02  0.7818608E-02  0.1130116E+00
         25   -1    0    0    0    0  0.00000000000E+00  0.00000000000E+00  0.99999998245E-14  0.12500000000E+03  0.12500000000E+03 0.  0.
        -13    1    3    3    0    0  0.19114963289E+02  0.26358357865E+02 -0.11726164698E+02  0.34607209559E+02  0.10566000000E+00 0.  1.
         23    2    1    0    0    0 -0.48771020737E+01 -0.17869196953E+02  0.22795829129E+02  0.95627493296E+02  0.91004798358E+02 0.  0.
         13    1    3    3    0    0 -0.23992065363E+02 -0.44227554818E+02  0.34521993827E+02  0.61020283737E+02  0.10566000000E+00 0. -1.
         22    1    1    0    0    0  0.48771020737E+01  0.17869196953E+02 -0.22795829129E+02  0.29372506704E+02  0.00000000000E+00 0. -1.
</event>
<event>
 5    1  0.1758488E-003  0.9118800E+02  0.7818608E-02  0.1130116E+00
         25   -1    0    0    0    0  0.00000000000E+00  0.00000000000E+00  0.99999998245E-14  0.12500000000E+03  0.12500000000E+03 0.  0.
        -13    1    3    3    0    0 -0.21270604171E+01  0.31804015722E+02 -0.23872630575E+02  0.39823780040E+02  0.10566000000E+00 0. -1.
         23    2    1    0    0    0 -0.42545414130E+01  0.77883589130E+01  0.27247212903E+02  0.96343931390E+02  0.91983600971E+02 0.  0.
         13    1    3    3    0    0 -0.21274809960E+01 -0.24015656809E+02  0.51119843478E+02  0.56520151350E+02  0.10566000000E+00 0.  1.
         22    1    1    0    0    0  0.42545414130E+01 -0.77883589130E+01 -0.27247212903E+02  0.28656068610E+02  0.00000000000E+00 0.  1.
</event>
<event>
 5    1  0.1758488E-003  0.9118800E+02  0.7818608E-02  0.1130116E+00
         25   -1    0    0    0    0  0.00000000000E+00  0.00000000000E+00  0.99999998245E-14  0.12500000000E+03  0.12500000000E+03 0.  0.
        -13    1    3    3    0    0  0.47406118360E+02  0.18364560035E+02  0.35702203010E+02  0.62122907104E+02  0.10566000000E+00 0.  1.
         23    2    1    0    0    0  0.28157769170E+02  0.13276287245E+02  0.16575247987E+02  0.89731620204E+02  0.82510030002E+02 0.  0.
         13    1    3    3    0    0 -0.19248349190E+02 -0.50882727903E+01 -0.19126955023E+02  0.27608713100E+02  0.10566000000E+00 0. -1.
         22    1    1    0    0    0 -0.28157769170E+02 -0.13276287245E+02 -0.16575247987E+02  0.35268379796E+02  0.00000000000E+00 0.  1.
</event>
<event>
 5    1  0.1758488E-003  0.9118800E+02  0.7818608E-02  0.1130116E+00
         25   -1    0    0    0    0  0.00000000000E+00  0.00000000000E+00  0.99999998245E-14  0.12500000000E+03  0.12500000000E+03 0.  0.
        -13    1    3    3    0    0  0.51754969211E+01  0.94020577885E+01  0.33258653182E+02  0.34947584102E+02  0.10566000000E+00 0.  1.
         23    2    1    0    0    0 -0.19965599598E+02 -0.10167142395E+02 -0.18646456540E+02  0.95850621048E+02  0.91310762028E+02 0.  0.
         13    1    3    3    0    0 -0.25141096519E+02 -0.19569200183E+02 -0.51905109722E+02  0.60903036946E+02  0.10566000000E+00 0. -1.
         22    1    1    0    0    0  0.19965599598E+02  0.10167142395E+02  0.18646456540E+02  0.29149378952E+02  0.00000000000E+00 0. -1.
</event>
<event>
 5    1  0.1758488E-003  0.9118800E+02  0.7818608E-02  0.1130116E+00
         25   -1    0    0    0    0  0.00000000000E+00  0.00000000000E+00  0.99999998245E-14  0.12500000000E+03  0.12500000000E+03 0.  0.
        -13    1    3    3    0    0 -0.16458233867E+02  0.40007531884E+02  0.75044155441E+01  0.43906759003E+02  0.10566000000E+00 0. -1.
         23    2    1    0    0    0  0.21120611049E+02  0.47534831322E+01  0.18417563599E+02  0.96576726756E+02  0.92299413265E+02 0.  0.
         13    1    3    3    0    0  0.37578844915E+02 -0.35254048752E+02  0.10913148055E+02  0.52669967753E+02  0.10566000000E+00 0.  1.
         22    1    1    0    0    0 -0.21120611049E+02 -0.47534831322E+01 -0.18417563599E+02  0.28423273244E+02  0.00000000000E+00 0.  1.
</event>
<event>
 5    1  0.1758488E-003  0.9118800E+02  0.7818608E-02  0.1130116E+00
         25   -1    0    0    0    0  0.00000000000E+00  0.00000000000E+00  0.99999998245E-14  0.12500000000E+03  0.12500000000E+03 0.  0.
        -13    1    3    3    0    0 -0.13327488647E+02  0.46484731349E+02 -0.17624074445E+00  0.48357982041E+02  0.10566000000E+00 0. -1.
         23    2    1    0    0    0 -0.17791985095E+02  0.37349708343E+01 -0.21915797618E+02  0.96525328342E+02  0.92229778736E+02 0.  0.
         13    1    3    3    0    0 -0.44644964480E+01 -0.42749760515E+02 -0.21739556874E+02  0.48167346301E+02  0.10566000000E+00 0.  1.
         22    1    1    0    0    0  0.17791985095E+02 -0.37349708343E+01  0.21915797618E+02  0.28474671658E+02  0.00000000000E+00 0.  1.
</event>
<event>
 5    1  0.1758488E-003  0.9118800E+02  0.7818608E-02  0.1130116E+00
         25   -1    0    0    0    0  0.00000000000E+00  0.00000000000E+00  0.99999998245E-14  0.12500000000E+03  0.12500000000E+03 0.  0.
        -13    1    3    3    0    0  0.53393784083E+02 -0.50289683536E+01 -0.98446115971E+01  0.54526271126E+02  0.10566000000E+00 0.  1.
         23    2    1    0    0    0  0.21399478058E+02 -0.21690448252E+02  0.60326126791E+01  0.93938679644E+02  0.88654779403E+02 0.  0.
         13    1    3    3    0    0 -0.31994306025E+02 -0.16661479898E+02  0.15877224276E+02  0.39412408518E+02  0.10566000000E+00 0. -1.
         22    1    1    0    0    0 -0.21399478058E+02  0.21690448252E+02 -0.60326126791E+01  0.31061320356E+02  0.00000000000E+00 0. -1.
</event>
<event>
 5    1  0.1758488E-003  0.9118800E+02  0.7818608E-02  0.1130116E+00
         25   -1    0    0    0    0  0.00000000000E+00  0.00000000000E+00  0.99999998245E-14  0.12500000000E+03  0.12500000000E+03 0.  0.
        -13    1    3    3    0    0  0.16147954890E+02 -0.35742673328E+01 -0.29542280438E+02  0.33856894890E+02  0.10566000000E+00 0.  1.
         23    2    1    0    0    0  0.38852130473E+01  0.21303092928E+02  0.23086669019E+02  0.93347023282E+02  0.87816603330E+02 0.  0.
         13    1    3    3    0    0 -0.12262741843E+02  0.24877360261E+02  0.52628949457E+02  0.59490128391E+02  0.10566000000E+00 0. -1.
         22    1    1    0    0    0 -0.38852130473E+01 -0.21303092928E+02 -0.23086669019E+02  0.31652976718E+02  0.00000000000E+00 0. -1.
</event>
<event>
 5    1  0.1758488E-003  0.9118800E+02  0.7818608E-02  0.1130116E+00
         25   -1    0    0    0    0  0.00000000000E+00  0.00000000000E+00  0.99999998245E-14  0.12500000000E+03  0.12500000000E+03 0.  0.
        -13    1    3    3    0    0  0.42729925658E+02 -0.23703928877E+02 -0.23251710348E+02  0.54114471162E+02  0.10566000000E+00 0.  1.
         23    2    1    0    0    0  0.14097311678E+02 -0.27469486897E+02  0.40545261673E+01  0.93859253551E+02  0.88542720694E+02 0.  0.
         13    1    3    3    0    0 -0.28632613981E+02 -0.37655580202E+01  0.27306236515E+02  0.39744782390E+02  0.10566000000E+00 0. -1.
         22    1    1    0    0    0 -0.14097311678E+02  0.27469486897E+02 -0.40545261673E+01  0.31140746449E+02  0.00000000000E+00 0. -1.
</event>
<event>
 5    1  0.1758488E-003  0.9118800E+02  0.7818608E-02  0.1130116E+00
         25   -1    0    0    0    0  0.00000000000E+00  0.00000000000E+00  0.99999998245E-14  0.12500000000E+03  0.12500000000E+03 0.  0.
        -13    1    3    3    0    0  0.27106590458E+02 -0.23455859943E+02 -0.78310064002E+01  0.36691694390E+02  0.10566000000E+00 0.  1.
         23    2    1    0    0    0 -0.21624040918E+02  0.11727633142E+02 -0.13283492193E+02  0.97043110159E+02  0.92928884314E+02 0.  0.
         13    1    3    3    0    0 -0.48730631376E+02  0.35183493085E+02 -0.54524857928E+01  0.60351415769E+02  0.10566000000E+00 0. -1.
         22    1    1    0    0    0  0.21624040918E+02 -0.11727633142E+02  0.13283492193E+02  0.27956889841E+02  0.00000000000E+00 0. -1.
</event>
<event>
 5    1  0.1758488E-003  0.9118800E+02  0.7818608E-02  0.1130116E+00
         25   -1    0    0    0    0  0.00000000000E+00  0.00000000000E+00  0.99999998245E-14  0.12500000000E+03  0.12500000000E+03 0.  0.
        -13    1    3    3    0    0  0.17498502914E+02 -0.55965872326E+02 -0.14938525146E+02  0.60510719439E+02  0.10566000000E+00 0.  1.
         23    2    1    0    0    0  0.57877843582E+01 -0.28047089486E+02  0.37921621186E+01  0.96111971858E+02  0.91667840404E+02 0.  0.
         13    1    3    3    0    0 -0.11710718556E+02  0.27918782840E+02  0.18730687265E+02  0.35601252419E+02  0.10566000000E+00 0. -1.
         22    1    1    0    0    0 -0.57877843582E+01  0.28047089486E+02 -0.37921621186E+01  0.28888028142E+02  0.00000000000E+00 0.  1.
</event>
<event>
 5    1  0.1758488E-003  0.9118800E+02  0.7818608E-02  0.1130116E+00
         25   -1    0    0    0    0  0.00000000000E+00  0.00000000000E+00  0.99999998245E-14  0.12500000000E+03  0.12500000000E+03 0.  0.
        -13    1    3    3    0    0 -0.21235302064E+02  0.38036010544E+02  0.42274337426E+02  0.60702610493E+02  0.10566000000E+00 0. -1.
         23    2    1    0    0    0 -0.18583269401E+02  0.11682098650E+02  0.19768833653E+02  0.95459923587E+02  0.90774340520E+02 0.  0.
         13    1    3    3    0    0  0.26520326626E+01 -0.26353911894E+02 -0.22505503773E+02  0.34757313094E+02  0.10566000000E+00 0.  1.
         22    1    1    0    0    0  0.18583269401E+02 -0.11682098650E+02 -0.19768833653E+02  0.29540076413E+02  0.00000000000E+00 0. -1.
</event>
<event>
 5    1  0.1758488E-003  0.9118800E+02  0.7818608E-02  0.1130116E+00
         25   -1    0    0    0    0  0.00000000000E+00  0.00000000000E+00  0.99999998245E-14  0.12500000000E+03  0.12500000000E+03 0.  0.
        -13    1    3    3    0    0  0.12339873261E+02 -0.24728543618E+02  0.12598796696E+02  0.30372918592E+02  0.10566000000E+00 0. -1.
         23    2    1    0    0    0  0.66808636278E+01  0.34038906684E+02  0.62560344808E+01  0.89752034463E+02  0.82540951145E+02 0.  0.
         13    1    3    3    0    0 -0.56590096334E+01  0.58767450302E+02 -0.63427622157E+01  0.59379115871E+02  0.10566000000E+00 0.  1.
         22    1    1    0    0    0 -0.66808636278E+01 -0.34038906684E+02 -0.62560344808E+01  0.35247965537E+02  0.00000000000E+00 0.  1.
</event>
<event>
 5    1  0.1758488E-003  0.9118800E+02  0.7818608E-02  0.1130116E+00
         25   -1    0    0    0    0  0.00000000000E+00  0.00000000000E+00  0.99999998245E-14  0.12500000000E+03  0.12500000000E+03 0.  0.
        -13    1    3    3    0    0 -0.19215909219E+02 -0.25302175258E+02  0.19045558230E+02  0.37043159858E+02  0.10566000000E+00 0. -1.
         23    2    1    0    0    0 -0.14196271804E+02  0.25751088520E+02 -0.72858204717E+01  0.94705844243E+02  0.89729934028E+02 0.  0.
         13    1    3    3    0    0  0.50196374154E+01  0.51053263778E+02 -0.26331378701E+02  0.57662684385E+02  0.10566000000E+00 0.  1.
         22    1    1    0    0    0  0.14196271804E+02 -0.25751088520E+02  0.72858204717E+01  0.30294155757E+02  0.00000000000E+00 0.  1.
</event>
<event>
 5    1  0.1758488E-003  0.9118800E+02  0.7818608E-02  0.1130116E+00
         25   -1    0    0    0    0  0.00000000000E+00  0.00000000000E+00  0.99999998245E-14  0.12500000000E+03  0.12500000000E+03 0.  0.
        -13    1    3    3    0    0 -0.56023199595E+01 -0.30421652530E+02 -0.22983386926E+02  0.38537127166E+02  0.10566000000E+00 0.  1.
         23    2    1    0    0    0  0.27190942763E+02  0.10660104034E+02 -0.28807632141E+00  0.95792669168E+02  0.91231394223E+02 0.  0.
         13    1    3    3    0    0  0.32793262723E+02  0.41081756564E+02  0.22695310605E+02  0.57255542002E+02  0.10566000000E+00 0. -1.
         22    1    1    0    0    0 -0.27190942763E+02 -0.10660104034E+02  0.28807632141E+00  0.29207330832E+02  0.00000000000E+00 0. -1.
</event>
<event>
 5    1  0.1758488E-003  0.9118800E+02  0.7818608E-02  0.1130116E+00
         25   -1    0    0    0    0  0.00000000000E+00  0.00000000000E+00  0.99999998245E-14  0.12500000000E+03  0.12500000000E+03 0.  0.
        -13    1    3    3    0    0 -0.53239883070E+01  0.20402502750E+02 -0.52853414773E+02  0.56904319583E+02  0.10566000000E+00 0. -1.
         23    2    1    0    0    0 -0.20341509809E+02  0.76978526532E+01 -0.18703229734E+02  0.96314729228E+02  0.91943908482E+02 0.  0.
         13    1    3    3    0    0 -0.15017521502E+02 -0.12704650097E+02  0.34150185039E+02  0.39410409645E+02  0.10566000000E+00 0.  1.
         22    1    1    0    0    0  0.20341509809E+02 -0.76978526532E+01  0.18703229734E+02  0.28685270772E+02  0.00000000000E+00 0. -1.
</event>
<event>
 5    1  0.1758488E-003  0.9118800E+02  0.7818608E-02  0.1130116E+00
         25   -1    0    0    0    0  0.00000000000E+00  0.00000000000E+00  0.99999998245E-14  0.12500000000E+03  0.12500000000E+03 0.  0.
        -13    1    3    3    0    0 -0.17484991490E+02  0.29070231018E+02  0.52012839630E+02  0.62097905836E+02  0.10566000000E+00 0. -1.
         23    2    1    0    0    0 -0.11137793824E+02  0.18459874379E+02  0.23882670003E+02  0.92825486176E+02  0.87071071797E+02 0.  0.
         13    1    3    3    0    0  0.63471976662E+01 -0.10610356639E+02 -0.28130169627E+02  0.30727580339E+02  0.10566000000E+00 0.  1.
         22    1    1    0    0    0  0.11137793824E+02 -0.18459874379E+02 -0.23882670003E+02  0.32174513824E+02  0.00000000000E+00 0. -1.
</event>
<event>
 5    1  0.1758488E-003  0.9118800E+02  0.7818608E-02  0.1130116E+00
         25   -1    0    0    0    0  0.00000000000E+00  0.00000000000E+00  0.99999998245E-14  0.12500000000E+03  0.12500000000E+03 0.  0.
        -13    1    3    3    0    0  0.29778076813E+01 -0.34889242013E+02 -0.29676367352E+01  0.35141778251E+02  0.10566000000E+00 0. -1.
         23    2    1    0    0    0 -0.19247406939E+02  0.18019386950E+02  0.14215090449E+02  0.95046205977E+02  0.90202835289E+02 0.  0.
         13    1    3    3    0    0 -0.22225214620E+02  0.52908628963E+02  0.17182727184E+02  0.59904427726E+02  0.10566000000E+00 0.  1.
         22    1    1    0    0    0  0.19247406939E+02 -0.18019386950E+02 -0.14215090449E+02  0.29953794023E+02  0.00000000000E+00 0.  1.
</event>
<event>
 5    1  0.1758488E-003  0.9118800E+02  0.7818608E-02  0.1130116E+00
         25   -1    0    0    0    0  0.00000000000E+00  0.00000000000E+00  0.99999998245E-14  0.12500000000E+03  0.12500000000E+03 0.  0.
        -13    1    3    3    0    0  0.35434232301E+02  0.11920987660E+02 -0.28306520615E+02  0.46893123578E+02  0.10566000000E+00 0. -1.
         23    2    1    0    0    0  0.21004948673E+01  0.20172686571E+02  0.13228424574E+02  0.10078552956E+03  0.97833442079E+02 0.  0.
         13    1    3    3    0    0 -0.33333737433E+02  0.82516989117E+01  0.41534945189E+02  0.53892405978E+02  0.10566000000E+00 0.  1.
         22    1    1    0    0    0 -0.21004948673E+01 -0.20172686571E+02 -0.13228424574E+02  0.24214470444E+02  0.00000000000E+00 0.  1.
</event>
<event>
 5    1  0.1758488E-003  0.9118800E+02  0.7818608E-02  0.1130116E+00
         25   -1    0    0    0    0  0.00000000000E+00  0.00000000000E+00  0.99999998245E-14  0.12500000000E+03  0.12500000000E+03 0.  0.
        -13    1    3    3    0    0 -0.43490212934E+02  0.21032771955E+02  0.32066171989E+02  0.57982986015E+02  0.10566000000E+00 0.  1.
         23    2    1    0    0    0 -0.18190860009E+02 -0.48826944148E+01  0.22913968746E+02  0.95338610007E+02  0.90607132731E+02 0.  0.
         13    1    3    3    0    0  0.25299352925E+02 -0.25915466369E+02 -0.91522032434E+01  0.37355623992E+02  0.10566000000E+00 0. -1.
         22    1    1    0    0    0  0.18190860009E+02  0.48826944148E+01 -0.22913968746E+02  0.29661389993E+02  0.00000000000E+00 0.  1.
</event>
<event>
 5    1  0.1758488E-003  0.9118800E+02  0.7818608E-02  0.1130116E+00
         25   -1    0    0    0    0  0.00000000000E+00  0.00000000000E+00  0.99999998245E-14  0.12500000000E+03  0.12500000000E+03 0.  0.
        -13    1    3    3    0    0 -0.90599517297E+01 -0.31071702139E+02 -0.13177029775E+02  0.34945367030E+02  0.10566000000E+00 0.  1.
         23    2    1    0    0    0 -0.10972513728E+02  0.23438548239E+02  0.13662619851E+02  0.95735195503E+02  0.91152613104E+02 0.  0.
         13    1    3    3    0    0 -0.19125619983E+01  0.54510250378E+02  0.26839649625E+02  0.60789828473E+02  0.10566000000E+00 0. -1.
         22    1    1    0    0    0  0.10972513728E+02 -0.23438548239E+02 -0.13662619851E+02  0.29264804497E+02  0.00000000000E+00 0. -1.
</event>
<event>
 5    1  0.1758488E-003  0.9118800E+02  0.7818608E-02  0.1130116E+00
         25   -1    0    0    0    0  0.00000000000E+00  0.00000000000E+00  0.99999998245E-14  0.12500000000E+03  0.12500000000E+03 0.  0.
        -13    1    3    3    0    0  0.13913846958E+02  0.11735683598E+02  0.30645424501E+02  0.35643717729E+02  0.10566000000E+00 0. -1.
         23    2    1    0    0    0  0.13745703869E+02 -0.46215700080E+01 -0.26340617455E+02  0.94931221972E+02  0.90043353408E+02 0.  0.
         13    1    3    3    0    0 -0.16814308849E+00 -0.16357253606E+02 -0.56986041955E+02  0.59287504243E+02  0.10566000000E+00 0.  1.
         22    1    1    0    0    0 -0.13745703869E+02  0.46215700080E+01  0.26340617455E+02  0.30068778028E+02  0.00000000000E+00 0.  1.
</event>
<event>
 5    1  0.1758488E-003  0.9118800E+02  0.7818608E-02  0.1130116E+00
         25   -1    0    0    0    0  0.00000000000E+00  0.00000000000E+00  0.99999998245E-14  0.12500000000E+03  0.12500000000E+03 0.  0.
        -13    1    3    3    0    0 -0.28112334416E+02  0.27526536508E+02 -0.29220576228E+02  0.49008844075E+02  0.10566000000E+00 0.  1.
         23    2    1    0    0    0 -0.69610000547E+01  0.25711893160E+02  0.12313675872E+02  0.95654070382E+02  0.91041296100E+02 0.  0.
         13    1    3    3    0    0  0.21151334362E+02 -0.18146433476E+01  0.41534252099E+02  0.46645226307E+02  0.10566000000E+00 0. -1.
         22    1    1    0    0    0  0.69610000547E+01 -0.25711893160E+02 -0.12313675872E+02  0.29345929618E+02  0.00000000000E+00 0.  1.
</event>
<event>
 5    1  0.1758488E-003  0.9118800E+02  0.7818608E-02  0.1130116E+00
         25   -1    0    0    0    0  0.00000000000E+00  0.00000000000E+00  0.99999998245E-14  0.12500000000E+03  0.12500000000E+03 0.  0.
        -13    1    3    3    0    0 -0.11237805190E+02 -0.33257183809E+02  0.83180798008E+01  0.36076725961E+02  0.10566000000E+00 0.  1.
         23    2    1    0    0    0  0.17964232851E+02  0.19454543710E+02  0.10833764381E+02  0.96389453281E+02  0.92045441605E+02 0.  0.
         13    1    3    3    0    0  0.29202038041E+02  0.52711727520E+02  0.25156845805E+01  0.60312727320E+02  0.10566000000E+00 0. -1.
         22    1    1    0    0    0 -0.17964232851E+02 -0.19454543710E+02 -0.10833764381E+02  0.28610546719E+02  0.00000000000E+00 0. -1.
</event>
<event>
 5    1  0.1758488E-003  0.9118800E+02  0.7818608E-02  0.1130116E+00
         25   -1    0    0    0    0  0.00000000000E+00  0.00000000000E+00  0.99999998245E-14  0.12500000000E+03  0.12500000000E+03 0.  0.
        -13    1    3    3    0    0 -0.55321440301E+02 -0.74640287412E+01  0.12003891437E+02  0.57098844609E+02  0.10566000000E+00 0.  1.
         23    2    1    0    0    0 -0.25085158571E+02  0.14831409268E+02  0.32095986576E+01  0.95682131644E+02  0.91079816155E+02 0.  0.
         13    1    3    3    0    0  0.30236281730E+02  0.22295438009E+02 -0.87942927794E+01  0.38583287034E+02  0.10566000000E+00 0. -1.
         22    1    1    0    0    0  0.25085158571E+02 -0.14831409268E+02 -0.32095986576E+01  0.29317868356E+02  0.00000000000E+00 0.  1.
</event>
<event>
 5    1  0.1758488E-003  0.9118800E+02  0.7818608E-02  0.1130116E+00
         25   -1    0    0    0    0  0.00000000000E+00  0.00000000000E+00  0.99999998245E-14  0.12500000000E+03  0.12500000000E+03 0.  0.
        -13    1    3    3    0    0  0.49280839742E+02  0.22025749333E+01  0.72626165246E+01  0.49861901938E+02  0.10566000000E+00 0.  1.
         23    2    1    0    0    0  0.13804447031E+02 -0.21320044823E+02  0.18130614261E+02  0.93793810829E+02  0.88450283816E+02 0.  0.
         13    1    3    3    0    0 -0.35476392711E+02 -0.23522619757E+02  0.10867997737E+02  0.43931908891E+02  0.10566000000E+00 0. -1.
         22    1    1    0    0    0 -0.13804447031E+02  0.21320044823E+02 -0.18130614261E+02  0.31206189171E+02  0.00000000000E+00 0.  1.
</event>
<event>
 5    1  0.1758488E-003  0.9118800E+02  0.7818608E-02  0.1130116E+00
         25   -1    0    0    0    0  0.00000000000E+00  0.00000000000E+00  0.99999998245E-14  0.12500000000E+03  0.12500000000E+03 0.  0.
        -13    1    3    3    0    0  0.41819149719E+02 -0.11378036691E+02  0.17410248459E+02  0.46705769640E+02  0.10566000000E+00 0.  1.
         23    2    1    0    0    0 -0.53054206097E+01 -0.23092600039E+02  0.17960744250E+02  0.95267795265E+02  0.90509385238E+02 0.  0.
         13    1    3    3    0    0 -0.47124570329E+02 -0.11714563348E+02  0.55049579108E+00  0.48562025625E+02  0.10566000000E+00 0. -1.
         22    1    1    0    0    0  0.53054206097E+01  0.23092600039E+02 -0.17960744250E+02  0.29732204735E+02  0.00000000000E+00 0. -1.
</event>
<event>
 5    1  0.1758488E-003  0.9118800E+02  0.7818608E-02  0.1130116E+00
         25   -1    0    0    0    0  0.00000000000E+00  0.00000000000E+00  0.99999998245E-14  0.12500000000E+03  0.12500000000E+03 0.  0.
        -13    1    3    3    0    0 -0.88530083208E+01 -0.25722639735E+02  0.53692113439E+02  0.60190399241E+02  0.10566000000E+00 0. -1.
         23    2    1    0    0    0  0.42659469651E+01 -0.19241937511E+02  0.20011003344E+02  0.96912801536E+02  0.92753438664E+02 0.  0.
         13    1    3    3    0    0  0.13118955286E+02  0.64807022240E+01 -0.33681110094E+02  0.36722402295E+02  0.10566000000E+00 0.  1.
         22    1    1    0    0    0 -0.42659469651E+01  0.19241937511E+02 -0.20011003344E+02  0.28087198464E+02  0.00000000000E+00 0. -1.
</event>
<event>
 5    1  0.1758488E-003  0.9118800E+02  0.7818608E-02  0.1130116E+00
         25   -1    0    0    0    0  0.00000000000E+00  0.00000000000E+00  0.99999998245E-14  0.12500000000E+03  0.12500000000E+03 0.  0.
        -13    1    3    3    0    0  0.21429850794E+02  0.38508271429E+02  0.14244925441E+01  0.44092695728E+02  0.10566000000E+00 0. -1.
         23    2    1    0    0    0 -0.19860825177E+02  0.14625770656E+02 -0.16801326121E+02  0.95156238450E+02  0.90355185864E+02 0.  0.
         13    1    3    3    0    0 -0.41290675971E+02 -0.23882500773E+02 -0.18225818665E+02  0.51063542722E+02  0.10566000000E+00 0.  1.
         22    1    1    0    0    0  0.19860825177E+02 -0.14625770656E+02  0.16801326121E+02  0.29843761550E+02  0.00000000000E+00 0.  1.
</event>
<event>
 5    1  0.1758488E-003  0.9118800E+02  0.7818608E-02  0.1130116E+00
         25   -1    0    0    0    0  0.00000000000E+00  0.00000000000E+00  0.99999998245E-14  0.12500000000E+03  0.12500000000E+03 0.  0.
        -13    1    3    3    0    0 -0.14347583816E+02 -0.54770022897E+02  0.23012333014E+02  0.61116177926E+02  0.10566000000E+00 0.  1.
         23    2    1    0    0    0 -0.13598469357E+02 -0.21705590579E+02  0.15600348340E+02  0.95009636555E+02  0.90152144394E+02 0.  0.
         13    1    3    3    0    0  0.74911445939E+00  0.33064432318E+02 -0.74119846739E+01  0.33893458629E+02  0.10566000000E+00 0. -1.
         22    1    1    0    0    0  0.13598469357E+02  0.21705590579E+02 -0.15600348340E+02  0.29990363445E+02  0.00000000000E+00 0.  1.
</event>
<event>
 5    1  0.1758488E-003  0.9118800E+02  0.7818608E-02  0.1130116E+00
         25   -1    0    0    0    0  0.00000000000E+00  0.00000000000E+00  0.99999998245E-14  0.12500000000E+03  0.12500000000E+03 0.  0.
        -13    1    3    3    0    0  0.52921231271E+02  0.46208148340E+01 -0.31458961055E+02  0.61738853598E+02  0.10566000000E+00 0.  1.
         23    2    1    0    0    0  0.20145093140E+02  0.56193577658E+01 -0.18764523433E+02  0.96901791890E+02  0.92738600230E+02 0.  0.
         13    1    3    3    0    0 -0.32776138130E+02  0.99854293181E+00  0.12694437623E+02  0.35162938292E+02  0.10566000000E+00 0. -1.
         22    1    1    0    0    0 -0.20145093140E+02 -0.56193577658E+01  0.18764523433E+02  0.28098208110E+02  0.00000000000E+00 0.  1.
</event>
<event>
 5    1  0.1758488E-003  0.9118800E+02  0.7818608E-02  0.1130116E+00
         25   -1    0    0    0    0  0.00000000000E+00  0.00000000000E+00  0.99999998245E-14  0.12500000000E+03  0.12500000000E+03 0.  0.
        -13    1    3    3    0    0 -0.28544152739E+02  0.15548212829E+02 -0.46679569237E+02  0.56881534138E+02  0.10566000000E+00 0. -1.
         23    2    1    0    0    0 -0.26694259564E+02 -0.63736013589E+01 -0.28654231039E+02  0.85322912854E+02  0.75536270848E+02 0.  0.
         13    1    3    3    0    0  0.18498931748E+01 -0.21921814188E+02  0.18025338199E+02  0.28441378716E+02  0.10566000000E+00 0.  1.
         22    1    1    0    0    0  0.26694259564E+02  0.63736013589E+01  0.28654231039E+02  0.39677087146E+02  0.00000000000E+00 0. -1.
</event>
<event>
 5    1  0.1758488E-003  0.9118800E+02  0.7818608E-02  0.1130116E+00
         25   -1    0    0    0    0  0.00000000000E+00  0.00000000000E+00  0.99999998245E-14  0.12500000000E+03  0.12500000000E+03 0.  0.
        -13    1    3    3    0    0 -0.42755375435E+02  0.13121864728E+02  0.31745088766E+02  0.54844938575E+02  0.10566000000E+00 0.  1.
         23    2    1    0    0    0 -0.14309868277E+02 -0.14254101682E+02  0.21222763318E+02  0.95702262412E+02  0.91107439889E+02 0.  0.
         13    1    3    3    0    0  0.28445507157E+02 -0.27375966410E+02 -0.10522325448E+02  0.40857323838E+02  0.10566000000E+00 0. -1.
         22    1    1    0    0    0  0.14309868277E+02  0.14254101682E+02 -0.21222763318E+02  0.29297737588E+02  0.00000000000E+00 0.  1.
</event>
<event>
 5    1  0.1758488E-003  0.9118800E+02  0.7818608E-02  0.1130116E+00
         25   -1    0    0    0    0  0.00000000000E+00  0.00000000000E+00  0.99999998245E-14  0.12500000000E+03  0.12500000000E+03 0.  0.
        -13    1    3    3    0    0 -0.40463386256E+02 -0.15071257631E+02  0.37966624776E+02  0.57496992919E+02  0.10566000000E+00 0.  1.
         23    2    1    0    0    0 -0.19043457653E+02  0.10794726577E+02  0.18666984599E+02  0.96231341441E+02  0.91830470762E+02 0.  0.
         13    1    3    3    0    0  0.21419928604E+02  0.25865984208E+02 -0.19299640177E+02  0.38734348522E+02  0.10566000000E+00 0. -1.
         22    1    1    0    0    0  0.19043457653E+02 -0.10794726577E+02 -0.18666984599E+02  0.28768658559E+02  0.00000000000E+00 0.  1.
</event>
<event>
 5    1  0.1758488E-003  0.9118800E+02  0.7818608E-02  0.1130116E+00
         25   -1    0    0    0    0  0.00000000000E+00  0.00000000000E+00  0.99999998245E-14  0.12500000000E+03  0.12500000000E+03 0.  0.
        -13    1    3    3    0    0 -0.24079864922E+02  0.21827712801E+02  0.24690974356E+02  0.40815981177E+02  0.10566000000E+00 0.  1.
         23    2    1    0    0    0 -0.10792604446E+02  0.32883906670E+01 -0.26139471655E+02  0.96529562661E+02  0.92235517373E+02 0.  0.
         13    1    3    3    0    0  0.13287260476E+02 -0.18539322133E+02 -0.50830446010E+02  0.55713581484E+02  0.10566000000E+00 0. -1.
         22    1    1    0    0    0  0.10792604446E+02 -0.32883906670E+01  0.26139471655E+02  0.28470437339E+02  0.00000000000E+00 0. -1.
</event>
<event>
 5    1  0.1758488E-003  0.9118800E+02  0.7818608E-02  0.1130116E+00
         25   -1    0    0    0    0  0.00000000000E+00  0.00000000000E+00  0.99999998245E-14  0.12500000000E+03  0.12500000000E+03 0.  0.
        -13    1    3    3    0    0  0.11722113515E+02  0.23696626719E+02 -0.47028134675E+02  0.53949927508E+02  0.10566000000E+00 0.  1.
         23    2    1    0    0    0  0.49406587716E+01  0.30215818914E+02 -0.90535787903E+01  0.93072376997E+02  0.87424791960E+02 0.  0.
         13    1    3    3    0    0 -0.67814547431E+01  0.65191921945E+01  0.37974555885E+02  0.39122449488E+02  0.10566000000E+00 0. -1.
         22    1    1    0    0    0 -0.49406587716E+01 -0.30215818914E+02  0.90535787903E+01  0.31927623003E+02  0.00000000000E+00 0.  1.
</event>
<event>
 5    1  0.1758488E-003  0.9118800E+02  0.7818608E-02  0.1130116E+00
         25   -1    0    0    0    0  0.00000000000E+00  0.00000000000E+00  0.99999998245E-14  0.12500000000E+03  0.12500000000E+03 0.  0.
        -13    1    3    3    0    0  0.41565942028E+02 -0.40401868989E+02 -0.11457894793E+02  0.59087503515E+02  0.10566000000E+00 0.  1.
         23    2    1    0    0    0  0.27607233456E+02 -0.72159729454E+01 -0.15735964105E+01  0.96421934805E+02  0.92089541758E+02 0.  0.
         13    1    3    3    0    0 -0.13958708572E+02  0.33185896044E+02  0.98842983828E+01  0.37334431290E+02  0.10566000000E+00 0. -1.
         22    1    1    0    0    0 -0.27607233456E+02  0.72159729454E+01  0.15735964105E+01  0.28578065195E+02  0.00000000000E+00 0.  1.
</event>
<event>
 5    1  0.1758488E-003  0.9118800E+02  0.7818608E-02  0.1130116E+00
         25   -1    0    0    0    0  0.00000000000E+00  0.00000000000E+00  0.99999998245E-14  0.12500000000E+03  0.12500000000E+03 0.  0.
        -13    1    3    3    0    0 -0.18440359488E+02 -0.32377359622E+02  0.37001614005E+01  0.37443859745E+02  0.10566000000E+00 0. -1.
         23    2    1    0    0    0  0.14790994793E+02  0.12714006184E+02 -0.18895678558E+02  0.97843672038E+02  0.93999563880E+02 0.  0.
         13    1    3    3    0    0  0.33231354281E+02  0.45091365806E+02 -0.22595839958E+02  0.60399812294E+02  0.10566000000E+00 0.  1.
         22    1    1    0    0    0 -0.14790994793E+02 -0.12714006184E+02  0.18895678558E+02  0.27156327962E+02  0.00000000000E+00 0.  1.
</event>
<event>
 5    1  0.1758488E-003  0.9118800E+02  0.7818608E-02  0.1130116E+00
         25   -1    0    0    0    0  0.00000000000E+00  0.00000000000E+00  0.99999998245E-14  0.12500000000E+03  0.12500000000E+03 0.  0.
        -13    1    3    3    0    0 -0.20596673529E+02  0.38242558107E+02  0.20988106167E+02  0.48241351303E+02  0.10566000000E+00 0. -1.
         23    2    1    0    0    0 -0.12752920745E+02 -0.35556421302E+01  0.30438722265E+02  0.91806696584E+02  0.85595993750E+02 0.  0.
         13    1    3    3    0    0  0.78437527838E+01 -0.41798200237E+02  0.94506160981E+01  0.43565345281E+02  0.10566000000E+00 0.  1.
         22    1    1    0    0    0  0.12752920745E+02  0.35556421302E+01 -0.30438722265E+02  0.33193303416E+02  0.00000000000E+00 0. -1.
</event>
<event>
 5    1  0.1758488E-003  0.9118800E+02  0.7818608E-02  0.1130116E+00
         25   -1    0    0    0    0  0.00000000000E+00  0.00000000000E+00  0.99999998245E-14  0.12500000000E+03  0.12500000000E+03 0.  0.
        -13    1    3    3    0    0  0.20343423217E+02  0.34235162526E+02 -0.33490133931E+02  0.52033656955E+02  0.10566000000E+00 0. -1.
         23    2    1    0    0    0  0.13749604166E+02  0.20469074374E+02  0.10201347650E+02  0.98314758492E+02  0.94623937896E+02 0.  0.
         13    1    3    3    0    0 -0.65938190507E+01 -0.13766088152E+02  0.43691481581E+02  0.46281101537E+02  0.10566000000E+00 0.  1.
         22    1    1    0    0    0 -0.13749604166E+02 -0.20469074374E+02 -0.10201347650E+02  0.26685241508E+02  0.00000000000E+00 0.  1.
</event>
<event>
 5    1  0.1758488E-003  0.9118800E+02  0.7818608E-02  0.1130116E+00
         25   -1    0    0    0    0  0.00000000000E+00  0.00000000000E+00  0.99999998245E-14  0.12500000000E+03  0.12500000000E+03 0.  0.
        -13    1    3    3    0    0 -0.29487114360E+02 -0.38449211776E+02  0.19816057703E+02  0.52349967587E+02  0.10566000000E+00 0.  1.
         23    2    1    0    0    0 -0.14798631759E+02 -0.20470644267E+02 -0.16048788976E+02  0.95073249321E+02  0.90240303247E+02 0.  0.
         13    1    3    3    0    0  0.14688482601E+02  0.17978567509E+02 -0.35864846678E+02  0.42723281733E+02  0.10566000000E+00 0. -1.
         22    1    1    0    0    0  0.14798631759E+02  0.20470644267E+02  0.16048788976E+02  0.29926750679E+02  0.00000000000E+00 0.  1.
</event>
<event>
 5    1  0.1758488E-003  0.9118800E+02  0.7818608E-02  0.1130116E+00
         25   -1    0    0    0    0  0.00000000000E+00  0.00000000000E+00  0.99999998245E-14  0.12500000000E+03  0.12500000000E+03 0.  0.
        -13    1    3    3    0    0 -0.30339946765E+02 -0.23076422543E+02  0.24854918178E+02  0.45506172864E+02  0.10566000000E+00 0. -1.
         23    2    1    0    0    0 -0.12858664226E+02  0.22752199942E+02  0.12177968410E+02  0.96167539778E+02  0.91743582579E+02 0.  0.
         13    1    3    3    0    0  0.17481282539E+02  0.45828622485E+02 -0.12676949768E+02  0.50661366913E+02  0.10566000000E+00 0.  1.
         22    1    1    0    0    0  0.12858664226E+02 -0.22752199942E+02 -0.12177968410E+02  0.28832460222E+02  0.00000000000E+00 0.  1.
</event>
<event>
 5    1  0.1758488E-003  0.9118800E+02  0.7818608E-02  0.1130116E+00
         25   -1    0    0    0    0  0.00000000000E+00  0.00000000000E+00  0.99999998245E-14  0.12500000000E+03  0.12500000000E+03 0.  0.
        -13    1    3    3    0    0 -0.19931230396E+02 -0.56445702300E+02 -0.15758174259E+02  0.61900746953E+02  0.10566000000E+00 0. -1.
         23    2    1    0    0    0 -0.54179402205E+01 -0.27378639488E+02 -0.25425647534E+01  0.96974857503E+02  0.92837031274E+02 0.  0.
         13    1    3    3    0    0  0.14513290175E+02  0.29067062812E+02  0.13215609506E+02  0.35074110550E+02  0.10566000000E+00 0.  1.
         22    1    1    0    0    0  0.54179402205E+01  0.27378639488E+02  0.25425647534E+01  0.28025142497E+02  0.00000000000E+00 0. -1.
</event>
<event>
 5    1  0.1758488E-003  0.9118800E+02  0.7818608E-02  0.1130116E+00
         25   -1    0    0    0    0  0.00000000000E+00  0.00000000000E+00  0.99999998245E-14  0.12500000000E+03  0.12500000000E+03 0.  0.
        -13    1    3    3    0    0 -0.22370972559E+02 -0.48173883383E+02  0.91496233369E+01  0.53897219081E+02  0.10566000000E+00 0.  1.
         23    2    1    0    0    0  0.12881115575E+02 -0.25561908714E+02  0.32383560755E+01  0.96193381566E+02  0.91778785084E+02 0.  0.
         13    1    3    3    0    0  0.35252088134E+02  0.22611974669E+02 -0.59112672614E+01  0.42296162485E+02  0.10566000000E+00 0. -1.
         22    1    1    0    0    0 -0.12881115575E+02  0.25561908714E+02 -0.32383560755E+01  0.28806618434E+02  0.00000000000E+00 0.  1.
</event>
<event>
 5    1  0.1758488E-003  0.9118800E+02  0.7818608E-02  0.1130116E+00
         25   -1    0    0    0    0  0.00000000000E+00  0.00000000000E+00  0.99999998245E-14  0.12500000000E+03  0.12500000000E+03 0.  0.
        -13    1    3    3    0    0  0.48815949245E+02  0.10328871470E+01 -0.13689963705E+02  0.50709861238E+02  0.10566000000E+00 0. -1.
         23    2    1    0    0    0  0.77267871725E+01  0.63783629270E+01 -0.28560525138E+02  0.94733015515E+02  0.89767777509E+02 0.  0.
         13    1    3    3    0    0 -0.41089162072E+02  0.53454757799E+01 -0.14870561433E+02  0.44023154277E+02  0.10566000000E+00 0.  1.
         22    1    1    0    0    0 -0.77267871725E+01 -0.63783629270E+01  0.28560525138E+02  0.30266984485E+02  0.00000000000E+00 0. -1.
</event>
<event>
 5    1  0.1758488E-003  0.9118800E+02  0.7818608E-02  0.1130116E+00
         25   -1    0    0    0    0  0.00000000000E+00  0.00000000000E+00  0.99999998245E-14  0.12500000000E+03  0.12500000000E+03 0.  0.
        -13    1    3    3    0    0 -0.78938586059E+01  0.59601589011E+01  0.25910291300E+02  0.27734290276E+02  0.10566000000E+00 0. -1.
         23    2    1    0    0    0 -0.37194687675E+01 -0.20492809637E+02 -0.29273630861E+02  0.89073197213E+02  0.81506437189E+02 0.  0.
         13    1    3    3    0    0  0.41743898384E+01 -0.26452968538E+02 -0.55183922162E+02  0.61338906936E+02  0.10566000000E+00 0.  1.
         22    1    1    0    0    0  0.37194687675E+01  0.20492809637E+02  0.29273630861E+02  0.35926802787E+02  0.00000000000E+00 0.  1.
</event>
<event>
 5    1  0.1758488E-003  0.9118800E+02  0.7818608E-02  0.1130116E+00
         25   -1    0    0    0    0  0.00000000000E+00  0.00000000000E+00  0.99999998245E-14  0.12500000000E+03  0.12500000000E+03 0.  0.
        -13    1    3    3    0    0  0.85242936024E+01  0.37413110624E+02  0.31361621609E+02  0.49557712840E+02  0.10566000000E+00 0.  1.
         23    2    1    0    0    0  0.66857190608E+01  0.23156985477E+02 -0.13988896292E+02  0.97131845500E+02  0.93048166963E+02 0.  0.
         13    1    3    3    0    0 -0.18385745415E+01 -0.14256125146E+02 -0.45350517900E+02  0.47574132661E+02  0.10566000000E+00 0. -1.
         22    1    1    0    0    0 -0.66857190608E+01 -0.23156985477E+02  0.13988896292E+02  0.27868154500E+02  0.00000000000E+00 0.  1.
</event>
<event>
 5    1  0.1758488E-003  0.9118800E+02  0.7818608E-02  0.1130116E+00
         25   -1    0    0    0    0  0.00000000000E+00  0.00000000000E+00  0.99999998245E-14  0.12500000000E+03  0.12500000000E+03 0.  0.
        -13    1    3    3    0    0  0.90459371082E+01  0.34273701128E+02 -0.19539295118E+02  0.40476051993E+02  0.10566000000E+00 0. -1.
         23    2    1    0    0    0 -0.41075770131E+01  0.85797539872E+01  0.27631022954E+02  0.95777443697E+02  0.91210530775E+02 0.  0.
         13    1    3    3    0    0 -0.13153514121E+02 -0.25693947141E+02  0.47170318072E+02  0.55301391704E+02  0.10566000000E+00 0.  1.
         22    1    1    0    0    0  0.41075770131E+01 -0.85797539872E+01 -0.27631022954E+02  0.29222556303E+02  0.00000000000E+00 0.  1.
</event>
<event>
 5    1  0.1758488E-003  0.9118800E+02  0.7818608E-02  0.1130116E+00
         25   -1    0    0    0    0  0.00000000000E+00  0.00000000000E+00  0.99999998245E-14  0.12500000000E+03  0.12500000000E+03 0.  0.
        -13    1    3    3    0    0  0.10002587274E+02 -0.57051582612E+02 -0.22492786083E+01  0.57965552262E+02  0.10566000000E+00 0. -1.
         23    2    1    0    0    0  0.80194306003E+01 -0.22160172211E+02 -0.17043914923E+02  0.95915991757E+02  0.91400207545E+02 0.  0.
         13    1    3    3    0    0 -0.19831566735E+01  0.34891410401E+02 -0.14794636315E+02  0.37950439495E+02  0.10566000000E+00 0.  1.
         22    1    1    0    0    0 -0.80194306003E+01  0.22160172211E+02  0.17043914923E+02  0.29084008243E+02  0.00000000000E+00 0. -1.
</event>
<event>
 5    1  0.1758488E-003  0.9118800E+02  0.7818608E-02  0.1130116E+00
         25   -1    0    0    0    0  0.00000000000E+00  0.00000000000E+00  0.99999998245E-14  0.12500000000E+03  0.12500000000E+03 0.  0.
        -13    1    3    3    0    0 -0.18451627003E+02  0.19974857350E+02 -0.26635012491E+02  0.38064320822E+02  0.10566000000E+00 0.  1.
         23    2    1    0    0    0 -0.17065219010E+02 -0.71706603195E+01  0.23495041698E+02  0.95089181662E+02  0.90262369875E+02 0.  0.
         13    1    3    3    0    0  0.13864079935E+01 -0.27145517669E+02  0.50130054189E+02  0.57024860839E+02  0.10566000000E+00 0. -1.
         22    1    1    0    0    0  0.17065219010E+02  0.71706603195E+01 -0.23495041698E+02  0.29910818338E+02  0.00000000000E+00 0. -1.
</event>
<event>
 5    1  0.1758488E-003  0.9118800E+02  0.7818608E-02  0.1130116E+00
         25   -1    0    0    0    0  0.00000000000E+00  0.00000000000E+00  0.99999998245E-14  0.12500000000E+03  0.12500000000E+03 0.  0.
        -13    1    3    3    0    0  0.77146282387E+01  0.36892237334E+02 -0.10437661065E+02  0.39108932444E+02  0.10566000000E+00 0. -1.
         23    2    1    0    0    0  0.22022168111E+02 -0.82352434873E+01  0.18926029174E+02  0.94817394018E+02  0.89885196247E+02 0.  0.
         13    1    3    3    0    0  0.14307539872E+02 -0.45127480821E+02  0.29363690239E+02  0.55708461574E+02  0.10566000000E+00 0.  1.
         22    1    1    0    0    0 -0.22022168111E+02  0.82352434873E+01 -0.18926029174E+02  0.30182605982E+02  0.00000000000E+00 0.  1.
</event>
<event>
 5    1  0.1758488E-003  0.9118800E+02  0.7818608E-02  0.1130116E+00
         25   -1    0    0    0    0  0.00000000000E+00  0.00000000000E+00  0.99999998245E-14  0.12500000000E+03  0.12500000000E+03 0.  0.
        -13    1    3    3    0    0 -0.51864872390E+02  0.12966448154E+02  0.22427781630E+02  0.57975083602E+02  0.10566000000E+00 0. -1.
         23    2    1    0    0    0 -0.21569252906E+02 -0.85844892092E+01  0.18411636906E+02  0.95370378007E+02  0.90650948708E+02 0.  0.
         13    1    3    3    0    0  0.30295619484E+02 -0.21550937363E+02 -0.40161447234E+01  0.37395294405E+02  0.10566000000E+00 0.  1.
         22    1    1    0    0    0  0.21569252906E+02  0.85844892092E+01 -0.18411636906E+02  0.29629621993E+02  0.00000000000E+00 0. -1.
</event>
<event>
 5    1  0.1758488E-003  0.9118800E+02  0.7818608E-02  0.1130116E+00
         25   -1    0    0    0    0  0.00000000000E+00  0.00000000000E+00  0.99999998245E-14  0.12500000000E+03  0.12500000000E+03 0.  0.
        -13    1    3    3    0    0  0.16410642365E+02 -0.46079224159E+02  0.38879600144E+02  0.62483906354E+02  0.10566000000E+00 0.  1.
         23    2    1    0    0    0  0.83310108248E+01 -0.21017016185E+02  0.17192419650E+02  0.96597535245E+02  0.92327589654E+02 0.  0.
         13    1    3    3    0    0 -0.80796315398E+01  0.25062207974E+02 -0.21687180493E+02  0.34113628891E+02  0.10566000000E+00 0. -1.
         22    1    1    0    0    0 -0.83310108248E+01  0.21017016185E+02 -0.17192419650E+02  0.28402464755E+02  0.00000000000E+00 0.  1.
</event>
<event>
 5    1  0.1758488E-003  0.9118800E+02  0.7818608E-02  0.1130116E+00
         25   -1    0    0    0    0  0.00000000000E+00  0.00000000000E+00  0.99999998245E-14  0.12500000000E+03  0.12500000000E+03 0.  0.
        -13    1    3    3    0    0 -0.33030079151E+02 -0.11041063094E+02 -0.32654111988E+02  0.47740898575E+02  0.10566000000E+00 0. -1.
         23    2    1    0    0    0  0.13395238933E+02 -0.50730473992E+01 -0.26400295503E+02  0.94964290609E+02  0.90089248262E+02 0.  0.
         13    1    3    3    0    0  0.46425318084E+02  0.59680156951E+01  0.62538164858E+01  0.47223392034E+02  0.10566000000E+00 0.  1.
         22    1    1    0    0    0 -0.13395238933E+02  0.50730473992E+01  0.26400295503E+02  0.30035709391E+02  0.00000000000E+00 0.  1.
</event>
<event>
 5    1  0.1758488E-003  0.9118800E+02  0.7818608E-02  0.1130116E+00
         25   -1    0    0    0    0  0.00000000000E+00  0.00000000000E+00  0.99999998245E-14  0.12500000000E+03  0.12500000000E+03 0.  0.
        -13    1    3    3    0    0 -0.97012033784E+01  0.31655357236E+02 -0.23913127482E+02  0.40841447314E+02  0.10566000000E+00 0.  1.
         23    2    1    0    0    0  0.26822062368E+02 -0.66798022429E+01 -0.62240875127E+01  0.96666591221E+02  0.92421035512E+02 0.  0.
         13    1    3    3    0    0  0.36523265747E+02 -0.38335159479E+02  0.17689039969E+02  0.55825143906E+02  0.10566000000E+00 0. -1.
         22    1    1    0    0    0 -0.26822062368E+02  0.66798022429E+01  0.62240875127E+01  0.28333408779E+02  0.00000000000E+00 0. -1.
</event>
<event>
 5    1  0.1758488E-003  0.9118800E+02  0.7818608E-02  0.1130116E+00
         25   -1    0    0    0    0  0.00000000000E+00  0.00000000000E+00  0.99999998245E-14  0.12500000000E+03  0.12500000000E+03 0.  0.
        -13    1    3    3    0    0  0.68179574640E+01  0.34335721686E+02  0.23927740983E+02  0.42402526815E+02  0.10566000000E+00 0.  1.
         23    2    1    0    0    0  0.27785931447E+02 -0.92632080799E+01  0.16600669974E+02  0.91333291609E+02  0.84901842749E+02 0.  0.
         13    1    3    3    0    0  0.20967973983E+02 -0.43598929766E+02 -0.73270710094E+01  0.48930764794E+02  0.10566000000E+00 0. -1.
         22    1    1    0    0    0 -0.27785931447E+02  0.92632080799E+01 -0.16600669974E+02  0.33666708391E+02  0.00000000000E+00 0. -1.
</event>
<event>
 5    1  0.1758488E-003  0.9118800E+02  0.7818608E-02  0.1130116E+00
         25   -1    0    0    0    0  0.00000000000E+00  0.00000000000E+00  0.99999998245E-14  0.12500000000E+03  0.12500000000E+03 0.  0.
        -13    1    3    3    0    0  0.35911977959E+02  0.29269041884E+00  0.58075845168E+01  0.36379871228E+02  0.10566000000E+00 0.  1.
         23    2    1    0    0    0 -0.11270536540E+02 -0.60542868320E+01  0.31872456751E+02  0.90655671759E+02  0.83898259457E+02 0.  0.
         13    1    3    3    0    0 -0.47182514499E+02 -0.63469772509E+01  0.26064872234E+02  0.54275800531E+02  0.10566000000E+00 0. -1.
         22    1    1    0    0    0  0.11270536540E+02  0.60542868320E+01 -0.31872456751E+02  0.34344328241E+02  0.00000000000E+00 0. -1.
</event>
<event>
 5    1  0.1758488E-003  0.9118800E+02  0.7818608E-02  0.1130116E+00
         25   -1    0    0    0    0  0.00000000000E+00  0.00000000000E+00  0.99999998245E-14  0.12500000000E+03  0.12500000000E+03 0.  0.
        -13    1    3    3    0    0  0.85500665275E+01  0.40486571835E+02 -0.11645009358E+02  0.42987015988E+02  0.10566000000E+00 0.  1.
         23    2    1    0    0    0  0.15101921106E+01 -0.11302810041E+02 -0.25507208015E+02  0.97059852260E+02  0.92951401630E+02 0.  0.
         13    1    3    3    0    0 -0.70398744169E+01 -0.51789381876E+02 -0.13862198657E+02  0.54072836272E+02  0.10566000000E+00 0. -1.
         22    1    1    0    0    0 -0.15101921106E+01  0.11302810041E+02  0.25507208015E+02  0.27940147740E+02  0.00000000000E+00 0. -1.
</event>
<event>
 5    1  0.1758488E-003  0.9118800E+02  0.7818608E-02  0.1130116E+00
         25   -1    0    0    0    0  0.00000000000E+00  0.00000000000E+00  0.99999998245E-14  0.12500000000E+03  0.12500000000E+03 0.  0.
        -13    1    3    3    0    0 -0.37666131290E+02 -0.65425378803E+01 -0.15190781237E+02  0.41137735073E+02  0.10566000000E+00 0.  1.
         23    2    1    0    0    0 -0.14225289892E+02  0.69232970699E+01  0.28434837486E+02  0.92460318108E+02  0.86545245547E+02 0.  0.
         13    1    3    3    0    0  0.23440841398E+02  0.13465834950E+02  0.43625618723E+02  0.51322583035E+02  0.10566000000E+00 0. -1.
         22    1    1    0    0    0  0.14225289892E+02 -0.69232970699E+01 -0.28434837486E+02  0.32539681892E+02  0.00000000000E+00 0. -1.
</event>
<event>
 5    1  0.1758488E-003  0.9118800E+02  0.7818608E-02  0.1130116E+00
         25   -1    0    0    0    0  0.00000000000E+00  0.00000000000E+00  0.99999998245E-14  0.12500000000E+03  0.12500000000E+03 0.  0.
        -13    1    3    3    0    0  0.10118762472E+02  0.33326645889E+01 -0.45169324274E+02  0.46408781783E+02  0.10566000000E+00 0.  1.
         23    2    1    0    0    0 -0.10230180183E+02 -0.25022654515E+02 -0.94133388141E+01  0.96374822740E+02  0.92025570821E+02 0.  0.
         13    1    3    3    0    0 -0.20348942655E+02 -0.28355319104E+02  0.35755985459E+02  0.49966040957E+02  0.10566000000E+00 0. -1.
         22    1    1    0    0    0  0.10230180183E+02  0.25022654515E+02  0.94133388141E+01  0.28625177260E+02  0.00000000000E+00 0.  1.
</event>
<event>
 5    1  0.1758488E-003  0.9118800E+02  0.7818608E-02  0.1130116E+00
         25   -1    0    0    0    0  0.00000000000E+00  0.00000000000E+00  0.99999998245E-14  0.12500000000E+03  0.12500000000E+03 0.  0.
        -13    1    3    3    0    0 -0.40710698314E+02 -0.23140822637E+02 -0.40288840217E+02  0.61774270045E+02  0.10566000000E+00 0.  1.
         23    2    1    0    0    0 -0.18631139553E+02 -0.16671183335E+02 -0.15554769601E+02  0.95555160517E+02  0.90905391090E+02 0.  0.
         13    1    3    3    0    0  0.22079558761E+02  0.64696393017E+01  0.24734070617E+02  0.33780890472E+02  0.10566000000E+00 0. -1.
         22    1    1    0    0    0  0.18631139553E+02  0.16671183335E+02  0.15554769601E+02  0.29444839483E+02  0.00000000000E+00 0.  1.
</event>
<event>
 5    1  0.1758488E-003  0.9118800E+02  0.7818608E-02  0.1130116E+00
         25   -1    0    0    0    0  0.00000000000E+00  0.00000000000E+00  0.99999998245E-14  0.12500000000E+03  0.12500000000E+03 0.  0.
        -13    1    3    3    0    0  0.27569605466E+02 -0.34616808857E+02 -0.35839591491E+02  0.56946414138E+02  0.10566000000E+00 0. -1.
         23    2    1    0    0    0  0.12828521405E+02 -0.26570179195E+02 -0.11674926726E+01  0.95471904514E+02  0.90790837250E+02 0.  0.
         13    1    3    3    0    0 -0.14741084060E+02  0.80466296624E+01  0.34672098818E+02  0.38525490376E+02  0.10566000000E+00 0.  1.
         22    1    1    0    0    0 -0.12828521405E+02  0.26570179195E+02  0.11674926726E+01  0.29528095486E+02  0.00000000000E+00 0. -1.
</event>
<event>
 5    1  0.1758488E-003  0.9118800E+02  0.7818608E-02  0.1130116E+00
         25   -1    0    0    0    0  0.00000000000E+00  0.00000000000E+00  0.99999998245E-14  0.12500000000E+03  0.12500000000E+03 0.  0.
        -13    1    3    3    0    0 -0.42396548659E+02  0.19591828071E+01 -0.84973669464E+01  0.43284202021E+02  0.10566000000E+00 0.  1.
         23    2    1    0    0    0 -0.72943891093E+01 -0.31716986641E+02 -0.15916408788E+01  0.92416128610E+02  0.86481397725E+02 0.  0.
         13    1    3    3    0    0  0.35102159550E+02 -0.33676169448E+02  0.69057260676E+01  0.49131926589E+02  0.10566000000E+00 0. -1.
         22    1    1    0    0    0  0.72943891093E+01  0.31716986641E+02  0.15916408788E+01  0.32583871390E+02  0.00000000000E+00 0. -1.
</event>
<event>
 5    1  0.1758488E-003  0.9118800E+02  0.7818608E-02  0.1130116E+00
         25   -1    0    0    0    0  0.00000000000E+00  0.00000000000E+00  0.99999998245E-14  0.12500000000E+03  0.12500000000E+03 0.  0.
        -13    1    3    3    0    0  0.35493601517E+02 -0.32706594410E+02  0.39658678536E+02  0.62468704275E+02  0.10566000000E+00 0.  1.
         23    2    1    0    0    0  0.16290424191E+02 -0.14272972308E+02  0.19453238749E+02  0.95887731854E+02  0.91361550793E+02 0.  0.
         13    1    3    3    0    0 -0.19203177326E+02  0.18433622102E+02 -0.20205439788E+02  0.33419027578E+02  0.10566000000E+00 0. -1.
         22    1    1    0    0    0 -0.16290424191E+02  0.14272972308E+02 -0.19453238749E+02  0.29112268146E+02  0.00000000000E+00 0.  1.
</event>
<event>
 5    1  0.1758488E-003  0.9118800E+02  0.7818608E-02  0.1130116E+00
         25   -1    0    0    0    0  0.00000000000E+00  0.00000000000E+00  0.99999998245E-14  0.12500000000E+03  0.12500000000E+03 0.  0.
        -13    1    3    3    0    0 -0.33359406600E+02 -0.96039878177E+01  0.21394307279E+02  0.40777618109E+02  0.10566000000E+00 0. -1.
         23    2    1    0    0    0  0.11203279642E+02 -0.27583987366E+02 -0.37168780562E+01  0.94996583258E+02  0.90134043593E+02 0.  0.
         13    1    3    3    0    0  0.44562686241E+02 -0.17979999548E+02 -0.25111185335E+02  0.54218965148E+02  0.10566000000E+00 0.  1.
         22    1    1    0    0    0 -0.11203279642E+02  0.27583987366E+02  0.37168780562E+01  0.30003416742E+02  0.00000000000E+00 0.  1.
</event>
<event>
 5    1  0.1758488E-003  0.9118800E+02  0.7818608E-02  0.1130116E+00
         25   -1    0    0    0    0  0.00000000000E+00  0.00000000000E+00  0.99999998245E-14  0.12500000000E+03  0.12500000000E+03 0.  0.
        -13    1    3    3    0    0  0.37378594486E+02  0.16464764381E+01 -0.66344769558E+01  0.37998653383E+02  0.10566000000E+00 0. -1.
         23    2    1    0    0    0 -0.19622438636E+02  0.16931243612E+02 -0.10262248519E+02  0.97124906226E+02  0.93038844341E+02 0.  0.
         13    1    3    3    0    0 -0.57001033123E+02  0.15284767174E+02 -0.36277715629E+01  0.59126252842E+02  0.10566000000E+00 0.  1.
         22    1    1    0    0    0  0.19622438636E+02 -0.16931243612E+02  0.10262248519E+02  0.27875093774E+02  0.00000000000E+00 0.  1.
</event>
<event>
 5    1  0.1758488E-003  0.9118800E+02  0.7818608E-02  0.1130116E+00
         25   -1    0    0    0    0  0.00000000000E+00  0.00000000000E+00  0.99999998245E-14  0.12500000000E+03  0.12500000000E+03 0.  0.
        -13    1    3    3    0    0  0.35445155875E+02 -0.12048037580E+02 -0.30654491129E+01  0.37562247361E+02  0.10566000000E+00 0. -1.
         23    2    1    0    0    0 -0.83419822970E+01  0.27161840263E+02 -0.37243962944E+01  0.96342970096E+02  0.91982294623E+02 0.  0.
         13    1    3    3    0    0 -0.43787138172E+02  0.39209877844E+02 -0.65894718153E+00  0.58780722735E+02  0.10566000000E+00 0.  1.
         22    1    1    0    0    0  0.83419822970E+01 -0.27161840263E+02  0.37243962944E+01  0.28657029904E+02  0.00000000000E+00 0.  1.
</event>
<event>
 5    1  0.1758488E-003  0.9118800E+02  0.7818608E-02  0.1130116E+00
         25   -1    0    0    0    0  0.00000000000E+00  0.00000000000E+00  0.99999998245E-14  0.12500000000E+03  0.12500000000E+03 0.  0.
        -13    1    3    3    0    0  0.35452421597E+01 -0.35177527632E+02 -0.19883144340E+02  0.40563256589E+02  0.10566000000E+00 0.  1.
         23    2    1    0    0    0 -0.22596766790E+02 -0.85053619043E+01  0.18849633052E+02  0.94368909313E+02  0.89259326282E+02 0.  0.
         13    1    3    3    0    0 -0.26142008949E+02  0.26672165727E+02  0.38732777392E+02  0.53805652724E+02  0.10566000000E+00 0. -1.
         22    1    1    0    0    0  0.22596766790E+02  0.85053619043E+01 -0.18849633052E+02  0.30631090687E+02  0.00000000000E+00 0.  1.
</event>
<event>
 5    1  0.1758488E-003  0.9118800E+02  0.7818608E-02  0.1130116E+00
         25   -1    0    0    0    0  0.00000000000E+00  0.00000000000E+00  0.99999998245E-14  0.12500000000E+03  0.12500000000E+03 0.  0.
        -13    1    3    3    0    0 -0.34806526756E+01 -0.17257554063E+02 -0.30834284537E+02  0.35506371010E+02  0.10566000000E+00 0. -1.
         23    2    1    0    0    0 -0.11819734513E+02  0.49664676039E+01  0.25401325825E+02  0.96546541896E+02  0.92258525210E+02 0.  0.
         13    1    3    3    0    0 -0.83390818379E+01  0.22224021667E+02  0.56235610362E+02  0.61040170886E+02  0.10566000000E+00 0.  1.
         22    1    1    0    0    0  0.11819734513E+02 -0.49664676039E+01 -0.25401325825E+02  0.28453458104E+02  0.00000000000E+00 0.  1.
</event>
<event>
 5    1  0.1758488E-003  0.9118800E+02  0.7818608E-02  0.1130116E+00
         25   -1    0    0    0    0  0.00000000000E+00  0.00000000000E+00  0.99999998245E-14  0.12500000000E+03  0.12500000000E+03 0.  0.
        -13    1    3    3    0    0 -0.49429314725E+01  0.38067228542E+02 -0.66565260620E+01  0.38959812161E+02  0.10566000000E+00 0.  1.
         23    2    1    0    0    0  0.31789862414E+02 -0.52467211449E+00  0.28428684965E+01  0.93078964076E+02  0.87434209661E+02 0.  0.
         13    1    3    3    0    0  0.36732793887E+02 -0.38591900656E+02  0.94993945585E+01  0.54119151915E+02  0.10566000000E+00 0. -1.
         22    1    1    0    0    0 -0.31789862414E+02  0.52467211449E+00 -0.28428684965E+01  0.31921035924E+02  0.00000000000E+00 0.  1.
</event>
<event>
 5    1  0.1758488E-003  0.9118800E+02  0.7818608E-02  0.1130116E+00
         25   -1    0    0    0    0  0.00000000000E+00  0.00000000000E+00  0.99999998245E-14  0.12500000000E+03  0.12500000000E+03 0.  0.
        -13    1    3    3    0    0  0.36750570661E+02 -0.44626798539E+02  0.39673918649E+01  0.57947449935E+02  0.10566000000E+00 0. -1.
         23    2    1    0    0    0  0.73077915910E+01 -0.23466989798E+02  0.15436642083E+02  0.95975986720E+02  0.91482220567E+02 0.  0.
         13    1    3    3    0    0 -0.29442779070E+02  0.21159808741E+02  0.11469250218E+02  0.38028536784E+02  0.10566000000E+00 0.  1.
         22    1    1    0    0    0 -0.73077915910E+01  0.23466989798E+02 -0.15436642083E+02  0.29024013280E+02  0.00000000000E+00 0. -1.
</event>
<event>
 5    1  0.1758488E-003  0.9118800E+02  0.7818608E-02  0.1130116E+00
         25   -1    0    0    0    0  0.00000000000E+00  0.00000000000E+00  0.99999998245E-14  0.12500000000E+03  0.12500000000E+03 0.  0.
        -13    1    3    3    0    0  0.83380512444E+01  0.31773262991E+01 -0.51608882022E+02  0.52374672969E+02  0.10566000000E+00 0. -1.
         23    2    1    0    0    0  0.23613574732E+02  0.12284659221E+02 -0.11981933691E+02  0.95809582073E+02  0.91254564369E+02 0.  0.
         13    1    3    3    0    0  0.15275523487E+02  0.91073329223E+01  0.39626948331E+02  0.43434909104E+02  0.10566000000E+00 0.  1.
         22    1    1    0    0    0 -0.23613574732E+02 -0.12284659221E+02  0.11981933691E+02  0.29190417927E+02  0.00000000000E+00 0. -1.
</event>
<event>
 5    1  0.1758488E-003  0.9118800E+02  0.7818608E-02  0.1130116E+00
         25   -1    0    0    0    0  0.00000000000E+00  0.00000000000E+00  0.99999998245E-14  0.12500000000E+03  0.12500000000E+03 0.  0.
        -13    1    3    3    0    0  0.37906995069E+02  0.43773515892E+02  0.20165852475E+02  0.61316667708E+02  0.10566000000E+00 0.  1.
         23    2    1    0    0    0  0.15648541700E+02  0.21123057638E+02  0.17985432701E+02  0.93148214952E+02  0.87533157934E+02 0.  0.
         13    1    3    3    0    0 -0.22258453370E+02 -0.22650458254E+02 -0.21804197737E+01  0.31831547244E+02  0.10566000000E+00 0. -1.
         22    1    1    0    0    0 -0.15648541700E+02 -0.21123057638E+02 -0.17985432701E+02  0.31851785048E+02  0.00000000000E+00 0.  1.
</event>
<event>
 5    1  0.1758488E-003  0.9118800E+02  0.7818608E-02  0.1130116E+00
         25   -1    0    0    0    0  0.00000000000E+00  0.00000000000E+00  0.99999998245E-14  0.12500000000E+03  0.12500000000E+03 0.  0.
        -13    1    3    3    0    0  0.35461703770E+02 -0.93137995918E+01 -0.49229814732E+01  0.36993596848E+02  0.10566000000E+00 0. -1.
         23    2    1    0    0    0 -0.23332819046E+02 -0.14542897318E+02  0.55749233951E+01  0.96946549626E+02  0.92798908434E+02 0.  0.
         13    1    3    3    0    0 -0.58794522816E+02 -0.52290977264E+01  0.10497904868E+02  0.59952952778E+02  0.10566000000E+00 0.  1.
         22    1    1    0    0    0  0.23332819046E+02  0.14542897318E+02 -0.55749233951E+01  0.28053450374E+02  0.00000000000E+00 0.  1.
</event>
<event>
 5    1  0.1758488E-003  0.9118800E+02  0.7818608E-02  0.1130116E+00
         25   -1    0    0    0    0  0.00000000000E+00  0.00000000000E+00  0.99999998245E-14  0.12500000000E+03  0.12500000000E+03 0.  0.
        -13    1    3    3    0    0 -0.17842074044E+02 -0.20789075927E+02 -0.18147004913E+02  0.32861074776E+02  0.10566000000E+00 0.  1.
         23    2    1    0    0    0  0.20703994506E+02  0.12178601205E+02  0.17863139830E+02  0.95065647153E+02  0.90229772183E+02 0.  0.
         13    1    3    3    0    0  0.38546068549E+02  0.32967677132E+02  0.36010144743E+02  0.62204572377E+02  0.10566000000E+00 0. -1.
         22    1    1    0    0    0 -0.20703994506E+02 -0.12178601205E+02 -0.17863139830E+02  0.29934352847E+02  0.00000000000E+00 0. -1.
</event>
<event>
 5    1  0.1758488E-003  0.9118800E+02  0.7818608E-02  0.1130116E+00
         25   -1    0    0    0    0  0.00000000000E+00  0.00000000000E+00  0.99999998245E-14  0.12500000000E+03  0.12500000000E+03 0.  0.
        -13    1    3    3    0    0 -0.16560185175E+02  0.32879350809E+01 -0.35641723364E+02  0.39438481950E+02  0.10566000000E+00 0.  1.
         23    2    1    0    0    0  0.23689488829E+02  0.12591968476E+02  0.53586197415E+01  0.97641923375E+02  0.93730895886E+02 0.  0.
         13    1    3    3    0    0  0.40249674004E+02  0.93040333952E+01  0.41000343105E+02  0.58203441425E+02  0.10566000000E+00 0. -1.
         22    1    1    0    0    0 -0.23689488829E+02 -0.12591968476E+02 -0.53586197415E+01  0.27358076625E+02  0.00000000000E+00 0. -1.
</event>
<event>
 5    1  0.1758488E-003  0.9118800E+02  0.7818608E-02  0.1130116E+00
         25   -1    0    0    0    0  0.00000000000E+00  0.00000000000E+00  0.99999998245E-14  0.12500000000E+03  0.12500000000E+03 0.  0.
        -13    1    3    3    0    0  0.13033146299E+01 -0.79124976693E-01  0.52548465561E+02  0.52564791321E+02  0.10566000000E+00 0. -1.
         23    2    1    0    0    0 -0.22503848663E+02 -0.79975108153E+01  0.18866767441E+02  0.94564193824E+02  0.89532387749E+02 0.  0.
         13    1    3    3    0    0 -0.23807163293E+02 -0.79183858386E+01 -0.33681698120E+02  0.41999402503E+02  0.10566000000E+00 0.  1.
         22    1    1    0    0    0  0.22503848663E+02  0.79975108153E+01 -0.18866767441E+02  0.30435806176E+02  0.00000000000E+00 0. -1.
</event>
<event>
 5    1  0.1758488E-003  0.9118800E+02  0.7818608E-02  0.1130116E+00
         25   -1    0    0    0    0  0.00000000000E+00  0.00000000000E+00  0.99999998245E-14  0.12500000000E+03  0.12500000000E+03 0.  0.
        -13    1    3    3    0    0 -0.13895187130E+02 -0.20571082810E+02 -0.25059443742E+02  0.35273680812E+02  0.10566000000E+00 0. -1.
         23    2    1    0    0    0 -0.52488773580E+01  0.25953579739E+02  0.12528280230E+02  0.95706710319E+02  0.91113542242E+02 0.  0.
         13    1    3    3    0    0  0.86463097720E+01  0.46524662549E+02  0.37587723971E+02  0.60433029507E+02  0.10566000000E+00 0.  1.
         22    1    1    0    0    0  0.52488773580E+01 -0.25953579739E+02 -0.12528280230E+02  0.29293289681E+02  0.00000000000E+00 0.  1.
</event>
<event>
 5    1  0.1758488E-003  0.9118800E+02  0.7818608E-02  0.1130116E+00
         25   -1    0    0    0    0  0.00000000000E+00  0.00000000000E+00  0.99999998245E-14  0.12500000000E+03  0.12500000000E+03 0.  0.
        -13    1    3    3    0    0 -0.15806868918E+02  0.13205972533E+02 -0.16247157106E+02  0.26234254203E+02  0.10566000000E+00 0. -1.
         23    2    1    0    0    0  0.27015724862E+02 -0.20557057405E+02  0.13634583557E+02  0.88416617601E+02  0.80493194745E+02 0.  0.
         13    1    3    3    0    0  0.42822593780E+02 -0.33763029938E+02  0.29881740663E+02  0.62182363398E+02  0.10566000000E+00 0.  1.
         22    1    1    0    0    0 -0.27015724862E+02  0.20557057405E+02 -0.13634583557E+02  0.36583382399E+02  0.00000000000E+00 0.  1.
</event>
<event>
 5    1  0.1758488E-003  0.9118800E+02  0.7818608E-02  0.1130116E+00
         25   -1    0    0    0    0  0.00000000000E+00  0.00000000000E+00  0.99999998245E-14  0.12500000000E+03  0.12500000000E+03 0.  0.
        -13    1    3    3    0    0  0.23912786752E+02 -0.36286962479E+02 -0.27890729264E+01  0.43547159586E+02  0.10566000000E+00 0. -1.
         23    2    1    0    0    0 -0.20273803938E+01  0.45976532445E+01  0.25084908639E+02  0.99416776434E+02  0.96068694737E+02 0.  0.
         13    1    3    3    0    0 -0.25940167145E+02  0.40884615723E+02  0.27873981565E+02  0.55869616848E+02  0.10566000000E+00 0.  1.
         22    1    1    0    0    0  0.20273803938E+01 -0.45976532445E+01 -0.25084908639E+02  0.25583223566E+02  0.00000000000E+00 0.  1.
</event>
<event>
 5    1  0.1758488E-003  0.9118800E+02  0.7818608E-02  0.1130116E+00
         25   -1    0    0    0    0  0.00000000000E+00  0.00000000000E+00  0.99999998245E-14  0.12500000000E+03  0.12500000000E+03 0.  0.
        -13    1    3    3    0    0  0.54298002446E+02 -0.32516436635E+01 -0.28611714084E+02  0.61461269130E+02  0.10566000000E+00 0.  1.
         23    2    1    0    0    0  0.23948254925E+02 -0.94519186022E+01 -0.12412362036E+02  0.96418110445E+02  0.92084350523E+02 0.  0.
         13    1    3    3    0    0 -0.30349747521E+02 -0.62002749386E+01  0.16199352048E+02  0.34956841315E+02  0.10566000000E+00 0. -1.
         22    1    1    0    0    0 -0.23948254925E+02  0.94519186022E+01  0.12412362036E+02  0.28581889555E+02  0.00000000000E+00 0.  1.
</event>
<event>
 5    1  0.1758488E-003  0.9118800E+02  0.7818608E-02  0.1130116E+00
         25   -1    0    0    0    0  0.00000000000E+00  0.00000000000E+00  0.99999998245E-14  0.12500000000E+03  0.12500000000E+03 0.  0.
        -13    1    3    3    0    0 -0.50819447958E+02 -0.88396286826E+01 -0.30965992992E+01  0.51675481781E+02  0.10566000000E+00 0.  1.
         23    2    1    0    0    0 -0.12450379634E+02 -0.68090099997E+01 -0.25255967971E+02  0.96030386811E+02  0.91556521901E+02 0.  0.
         13    1    3    3    0    0  0.38369068324E+02  0.20306186829E+01 -0.22159368671E+02  0.44354905030E+02  0.10566000000E+00 0. -1.
         22    1    1    0    0    0  0.12450379634E+02  0.68090099997E+01  0.25255967971E+02  0.28969613189E+02  0.00000000000E+00 0.  1.
</event>
<event>
 5    1  0.1758488E-003  0.9118800E+02  0.7818608E-02  0.1130116E+00
         25   -1    0    0    0    0  0.00000000000E+00  0.00000000000E+00  0.99999998245E-14  0.12500000000E+03  0.12500000000E+03 0.  0.
        -13    1    3    3    0    0  0.46031012237E+02 -0.31771089872E+02 -0.21622038530E+02  0.59964822633E+02  0.10566000000E+00 0.  1.
         23    2    1    0    0    0  0.11829778514E+02 -0.20586389485E+02 -0.15959577584E+02  0.96391413730E+02  0.92048103904E+02 0.  0.
         13    1    3    3    0    0 -0.34201233723E+02  0.11184700387E+02  0.56624609452E+01  0.36426591096E+02  0.10566000000E+00 0. -1.
         22    1    1    0    0    0 -0.11829778514E+02  0.20586389485E+02  0.15959577584E+02  0.28608586270E+02  0.00000000000E+00 0.  1.
</event>
<event>
 5    1  0.1758488E-003  0.9118800E+02  0.7818608E-02  0.1130116E+00
         25   -1    0    0    0    0  0.00000000000E+00  0.00000000000E+00  0.99999998245E-14  0.12500000000E+03  0.12500000000E+03 0.  0.
        -13    1    3    3    0    0 -0.19592458346E+02  0.22057586091E+02 -0.10775618042E+02  0.31409021577E+02  0.10566000000E+00 0.  1.
         23    2    1    0    0    0  0.99835562272E+01 -0.74502800724E+01 -0.40463956700E+02  0.82661957297E+02  0.70996403601E+02 0.  0.
         13    1    3    3    0    0  0.29576014573E+02 -0.29507866164E+02 -0.29688338658E+02  0.51252935720E+02  0.10566000000E+00 0. -1.
         22    1    1    0    0    0 -0.99835562272E+01  0.74502800724E+01  0.40463956700E+02  0.42338042703E+02  0.00000000000E+00 0. -1.
</event>
<event>
 5    1  0.1758488E-003  0.9118800E+02  0.7818608E-02  0.1130116E+00
         25   -1    0    0    0    0  0.00000000000E+00  0.00000000000E+00  0.99999998245E-14  0.12500000000E+03  0.12500000000E+03 0.  0.
        -13    1    3    3    0    0  0.30910035167E+02  0.26230045147E+02 -0.43760800633E+02  0.59652865635E+02  0.10566000000E+00 0.  1.
         23    2    1    0    0    0  0.11099481757E+02  0.20752471189E+01 -0.28343807209E+02  0.94489730369E+02  0.89428365702E+02 0.  0.
         13    1    3    3    0    0 -0.19810553410E+02 -0.24154798028E+02  0.15416993424E+02  0.34836864733E+02  0.10566000000E+00 0. -1.
         22    1    1    0    0    0 -0.11099481757E+02 -0.20752471189E+01  0.28343807209E+02  0.30510269631E+02  0.00000000000E+00 0.  1.
</event>
<event>
 5    1  0.1758488E-003  0.9118800E+02  0.7818608E-02  0.1130116E+00
         25   -1    0    0    0    0  0.00000000000E+00  0.00000000000E+00  0.99999998245E-14  0.12500000000E+03  0.12500000000E+03 0.  0.
        -13    1    3    3    0    0  0.61828236927E+01  0.39667357197E+02  0.17176259606E+02  0.43666481355E+02  0.10566000000E+00 0. -1.
         23    2    1    0    0    0  0.26257364704E+02 -0.39011497819E+00 -0.10927215670E+02  0.96556979183E+02  0.92272665485E+02 0.  0.
         13    1    3    3    0    0  0.20074541012E+02 -0.40057472175E+02 -0.28103475275E+02  0.52890497828E+02  0.10566000000E+00 0.  1.
         22    1    1    0    0    0 -0.26257364704E+02  0.39011497819E+00  0.10927215670E+02  0.28443020817E+02  0.00000000000E+00 0.  1.
</event>
<event>
 5    1  0.1758488E-003  0.9118800E+02  0.7818608E-02  0.1130116E+00
         25   -1    0    0    0    0  0.00000000000E+00  0.00000000000E+00  0.99999998245E-14  0.12500000000E+03  0.12500000000E+03 0.  0.
        -13    1    3    3    0    0 -0.33973202530E+02 -0.29942843363E+02  0.46856115985E+00  0.45287780608E+02  0.10566000000E+00 0. -1.
         23    2    1    0    0    0 -0.51668638312E+01  0.19429713634E+01 -0.27756702214E+02  0.96699714889E+02  0.92465824618E+02 0.  0.
         13    1    3    3    0    0  0.28806338699E+02  0.31885814726E+02 -0.28225263374E+02  0.51411934281E+02  0.10566000000E+00 0.  1.
         22    1    1    0    0    0  0.51668638312E+01 -0.19429713634E+01  0.27756702214E+02  0.28300285111E+02  0.00000000000E+00 0.  1.
</event>
<event>
 5    1  0.1758488E-003  0.9118800E+02  0.7818608E-02  0.1130116E+00
         25   -1    0    0    0    0  0.00000000000E+00  0.00000000000E+00  0.99999998245E-14  0.12500000000E+03  0.12500000000E+03 0.  0.
        -13    1    3    3    0    0 -0.45165066179E+02 -0.32107668002E+02 -0.53828110371E+01  0.55675590398E+02  0.10566000000E+00 0. -1.
         23    2    1    0    0    0 -0.18399638604E+02 -0.10672289946E+02 -0.22530447301E+02  0.94015075778E+02  0.88762429803E+02 0.  0.
         13    1    3    3    0    0  0.26765427576E+02  0.21435378056E+02 -0.17147636264E+02  0.38339485380E+02  0.10566000000E+00 0.  1.
         22    1    1    0    0    0  0.18399638604E+02  0.10672289946E+02  0.22530447301E+02  0.30984924222E+02  0.00000000000E+00 0. -1.
</event>
<event>
 5    1  0.1758488E-003  0.9118800E+02  0.7818608E-02  0.1130116E+00
         25   -1    0    0    0    0  0.00000000000E+00  0.00000000000E+00  0.99999998245E-14  0.12500000000E+03  0.12500000000E+03 0.  0.
        -13    1    3    3    0    0  0.17673055082E+01  0.11464444898E+02 -0.18641793662E+02  0.21956422764E+02  0.10566000000E+00 0. -1.
         23    2    1    0    0    0 -0.15000377191E+02 -0.32242095416E+02  0.21347245087E+02  0.83523875476E+02  0.72498061140E+02 0.  0.
         13    1    3    3    0    0 -0.16767682699E+02 -0.43706540315E+02  0.39989038749E+02  0.61567452713E+02  0.10566000000E+00 0.  1.
         22    1    1    0    0    0  0.15000377191E+02  0.32242095416E+02 -0.21347245087E+02  0.41476124524E+02  0.00000000000E+00 0.  1.
</event>
<event>
 5    1  0.1758488E-003  0.9118800E+02  0.7818608E-02  0.1130116E+00
         25   -1    0    0    0    0  0.00000000000E+00  0.00000000000E+00  0.99999998245E-14  0.12500000000E+03  0.12500000000E+03 0.  0.
        -13    1    3    3    0    0  0.43373598130E+02 -0.35699221563E+02  0.25016514270E+02  0.61494232129E+02  0.10566000000E+00 0.  1.
         23    2    1    0    0    0  0.19034225259E+02 -0.22133960422E+02  0.60897173979E+01  0.95178890142E+02  0.90386517444E+02 0.  0.
         13    1    3    3    0    0 -0.24339372871E+02  0.13565261141E+02 -0.18926796872E+02  0.33684658013E+02  0.10566000000E+00 0. -1.
         22    1    1    0    0    0 -0.19034225259E+02  0.22133960422E+02 -0.60897173979E+01  0.29821109858E+02  0.00000000000E+00 0.  1.
</event>
<event>
 5    1  0.1758488E-003  0.9118800E+02  0.7818608E-02  0.1130116E+00
         25   -1    0    0    0    0  0.00000000000E+00  0.00000000000E+00  0.99999998245E-14  0.12500000000E+03  0.12500000000E+03 0.  0.
        -13    1    3    3    0    0 -0.35398154054E+02 -0.21762426089E+02 -0.33312434074E+02  0.53257505835E+02  0.10566000000E+00 0.  1.
         23    2    1    0    0    0  0.50683849363E+01 -0.19309388221E+02 -0.21883371723E+02  0.95378673944E+02  0.90662387383E+02 0.  0.
         13    1    3    3    0    0  0.40466538991E+02  0.24530378683E+01  0.11429062351E+02  0.42121168110E+02  0.10566000000E+00 0. -1.
         22    1    1    0    0    0 -0.50683849363E+01  0.19309388221E+02  0.21883371723E+02  0.29621326056E+02  0.00000000000E+00 0. -1.
</event>
<event>
 5    1  0.1758488E-003  0.9118800E+02  0.7818608E-02  0.1130116E+00
         25   -1    0    0    0    0  0.00000000000E+00  0.00000000000E+00  0.99999998245E-14  0.12500000000E+03  0.12500000000E+03 0.  0.
        -13    1    3    3    0    0 -0.13692365273E+02  0.28329118736E+02  0.18224892475E+02  0.36361761576E+02  0.10566000000E+00 0.  1.
         23    2    1    0    0    0  0.36992295809E+01 -0.48629465349E+01 -0.28269869536E+02  0.96077377850E+02  0.91620655217E+02 0.  0.
         13    1    3    3    0    0  0.17391594854E+02 -0.33192065271E+02 -0.46494762011E+02  0.59715616274E+02  0.10566000000E+00 0. -1.
         22    1    1    0    0    0 -0.36992295809E+01  0.48629465349E+01  0.28269869536E+02  0.28922622150E+02  0.00000000000E+00 0. -1.
</event>
<event>
 5    1  0.1758488E-003  0.9118800E+02  0.7818608E-02  0.1130116E+00
         25   -1    0    0    0    0  0.00000000000E+00  0.00000000000E+00  0.99999998245E-14  0.12500000000E+03  0.12500000000E+03 0.  0.
        -13    1    3    3    0    0 -0.31217043518E+01 -0.40446030064E+02 -0.45684289894E+02  0.61095760026E+02  0.10566000000E+00 0.  1.
         23    2    1    0    0    0 -0.14579362158E+01 -0.11536035255E+02 -0.27117202551E+02  0.95494943457E+02  0.90822551518E+02 0.  0.
         13    1    3    3    0    0  0.16637681360E+01  0.28909994809E+02  0.18567087343E+02  0.34399183431E+02  0.10566000000E+00 0. -1.
         22    1    1    0    0    0  0.14579362158E+01  0.11536035255E+02  0.27117202551E+02  0.29505056543E+02  0.00000000000E+00 0.  1.
</event>
<event>
 5    1  0.1758488E-003  0.9118800E+02  0.7818608E-02  0.1130116E+00
         25   -1    0    0    0    0  0.00000000000E+00  0.00000000000E+00  0.99999998245E-14  0.12500000000E+03  0.12500000000E+03 0.  0.
        -13    1    3    3    0    0 -0.27529286786E+02 -0.13443412222E+02  0.22146275119E+02  0.37802852126E+02  0.10566000000E+00 0. -1.
         23    2    1    0    0    0  0.68204848064E+01  0.27111201284E+02 -0.35209150486E+01  0.96823181676E+02  0.92632582924E+02 0.  0.
         13    1    3    3    0    0  0.34349771593E+02  0.40554613506E+02 -0.25667190168E+02  0.59020329551E+02  0.10566000000E+00 0.  1.
         22    1    1    0    0    0 -0.68204848064E+01 -0.27111201284E+02  0.35209150486E+01  0.28176818324E+02  0.00000000000E+00 0.  1.
</event>
<event>
 5    1  0.1758488E-003  0.9118800E+02  0.7818608E-02  0.1130116E+00
         25   -1    0    0    0    0  0.00000000000E+00  0.00000000000E+00  0.99999998245E-14  0.12500000000E+03  0.12500000000E+03 0.  0.
        -13    1    3    3    0    0 -0.49129533527E+02  0.19813985577E+01  0.37895857473E+02  0.62078532380E+02  0.10566000000E+00 0. -1.
         23    2    1    0    0    0 -0.21050996542E+02 -0.10031649386E+01  0.22221182323E+02  0.94374328756E+02  0.89266915422E+02 0.  0.
         13    1    3    3    0    0  0.28078536985E+02 -0.29845634963E+01 -0.15674675150E+02  0.32295796376E+02  0.10566000000E+00 0.  1.
         22    1    1    0    0    0  0.21050996542E+02  0.10031649386E+01 -0.22221182323E+02  0.30625671244E+02  0.00000000000E+00 0. -1.
</event>
<event>
 5    1  0.1758488E-003  0.9118800E+02  0.7818608E-02  0.1130116E+00
         25   -1    0    0    0    0  0.00000000000E+00  0.00000000000E+00  0.99999998245E-14  0.12500000000E+03  0.12500000000E+03 0.  0.
        -13    1    3    3    0    0  0.43315300248E+02 -0.22969071727E+02 -0.25510503490E+02  0.55268349387E+02  0.10566000000E+00 0.  1.
         23    2    1    0    0    0  0.21306853050E+02 -0.18516832927E+02  0.80482249952E+01  0.95646482083E+02  0.91030876743E+02 0.  0.
         13    1    3    3    0    0 -0.22008447198E+02  0.44522388001E+01  0.33558728485E+02  0.40378132696E+02  0.10566000000E+00 0. -1.
         22    1    1    0    0    0 -0.21306853050E+02  0.18516832927E+02 -0.80482249952E+01  0.29353517917E+02  0.00000000000E+00 0.  1.
</event>
<event>
 5    1  0.1758488E-003  0.9118800E+02  0.7818608E-02  0.1130116E+00
         25   -1    0    0    0    0  0.00000000000E+00  0.00000000000E+00  0.99999998245E-14  0.12500000000E+03  0.12500000000E+03 0.  0.
        -13    1    3    3    0    0  0.55480885367E+00 -0.16066176638E+02  0.37227487911E+02  0.40550300429E+02  0.10566000000E+00 0.  1.
         23    2    1    0    0    0  0.28233593078E+02  0.67645307860E+01 -0.45417712388E+01  0.95614249357E+02  0.90986605274E+02 0.  0.
         13    1    3    3    0    0  0.27678784224E+02  0.22830707424E+02 -0.41769259150E+02  0.55063948929E+02  0.10566000000E+00 0. -1.
         22    1    1    0    0    0 -0.28233593078E+02 -0.67645307860E+01  0.45417712388E+01  0.29385750643E+02  0.00000000000E+00 0. -1.
</event>
<event>
 5    1  0.1758488E-003  0.9118800E+02  0.7818608E-02  0.1130116E+00
         25   -1    0    0    0    0  0.00000000000E+00  0.00000000000E+00  0.99999998245E-14  0.12500000000E+03  0.12500000000E+03 0.  0.
        -13    1    3    3    0    0 -0.65493290036E+01 -0.18870639295E+02  0.35198942103E+02  0.40471859693E+02  0.10566000000E+00 0. -1.
         23    2    1    0    0    0 -0.25473615525E+02  0.11047333077E+01 -0.13306860892E+02  0.96238948726E+02  0.91840825244E+02 0.  0.
         13    1    3    3    0    0 -0.18924286521E+02  0.19975372603E+02 -0.48505802995E+02  0.55767089033E+02  0.10566000000E+00 0.  1.
         22    1    1    0    0    0  0.25473615525E+02 -0.11047333077E+01  0.13306860892E+02  0.28761051274E+02  0.00000000000E+00 0.  1.
</event>
<event>
 5    1  0.1758488E-003  0.9118800E+02  0.7818608E-02  0.1130116E+00
         25   -1    0    0    0    0  0.00000000000E+00  0.00000000000E+00  0.99999998245E-14  0.12500000000E+03  0.12500000000E+03 0.  0.
        -13    1    3    3    0    0 -0.13342031704E+02  0.19700937975E+02 -0.23976912611E+02  0.33779287580E+02  0.10566000000E+00 0.  1.
         23    2    1    0    0    0 -0.32472554614E+01 -0.17754865351E+02  0.23677927009E+02  0.95227124104E+02  0.90453197986E+02 0.  0.
         13    1    3    3    0    0  0.10094776242E+02 -0.37455803325E+02  0.47654839620E+02  0.61447836523E+02  0.10566000000E+00 0. -1.
         22    1    1    0    0    0  0.32472554614E+01  0.17754865351E+02 -0.23677927009E+02  0.29772875896E+02  0.00000000000E+00 0. -1.
</event>
<event>
 5    1  0.1758488E-003  0.9118800E+02  0.7818608E-02  0.1130116E+00
         25   -1    0    0    0    0  0.00000000000E+00  0.00000000000E+00  0.99999998245E-14  0.12500000000E+03  0.12500000000E+03 0.  0.
        -13    1    3    3    0    0 -0.27324469396E+02 -0.21407518429E+02  0.20632093176E+02  0.40380724435E+02  0.10566000000E+00 0.  1.
         23    2    1    0    0    0  0.24857983358E+02 -0.32328601877E+01  0.14662710668E+02  0.95959238891E+02  0.91459333711E+02 0.  0.
         13    1    3    3    0    0  0.52182452754E+02  0.18174658241E+02 -0.59693825084E+01  0.55578514456E+02  0.10566000000E+00 0. -1.
         22    1    1    0    0    0 -0.24857983358E+02  0.32328601877E+01 -0.14662710668E+02  0.29040761109E+02  0.00000000000E+00 0. -1.
</event>
<event>
 5    1  0.1758488E-003  0.9118800E+02  0.7818608E-02  0.1130116E+00
         25   -1    0    0    0    0  0.00000000000E+00  0.00000000000E+00  0.99999998245E-14  0.12500000000E+03  0.12500000000E+03 0.  0.
        -13    1    3    3    0    0 -0.28008667930E+02 -0.41201775097E+02 -0.10997866069E+02  0.51019956610E+02  0.10566000000E+00 0. -1.
         23    2    1    0    0    0 -0.24092476753E+02  0.66544817598E+01 -0.15467566657E+01  0.99957595568E+02  0.96769824284E+02 0.  0.
         13    1    3    3    0    0  0.39161911774E+01  0.47856256857E+02  0.94511094038E+01  0.48937638957E+02  0.10566000000E+00 0.  1.
         22    1    1    0    0    0  0.24092476753E+02 -0.66544817598E+01  0.15467566657E+01  0.25042404432E+02  0.00000000000E+00 0. -1.
</event>
<event>
 5    1  0.1758488E-003  0.9118800E+02  0.7818608E-02  0.1130116E+00
         25   -1    0    0    0    0  0.00000000000E+00  0.00000000000E+00  0.99999998245E-14  0.12500000000E+03  0.12500000000E+03 0.  0.
        -13    1    3    3    0    0 -0.21262599255E+02 -0.28672908428E+02  0.11493504806E+02  0.37501274932E+02  0.10566000000E+00 0.  1.
         23    2    1    0    0    0  0.17147831294E+02  0.11279612695E+02  0.23072041659E+02  0.94119635900E+02  0.88909555026E+02 0.  0.
         13    1    3    3    0    0  0.38410430549E+02  0.39952521122E+02  0.11578536853E+02  0.56618360968E+02  0.10566000000E+00 0. -1.
         22    1    1    0    0    0 -0.17147831294E+02 -0.11279612695E+02 -0.23072041659E+02  0.30880364100E+02  0.00000000000E+00 0. -1.
</event>
<event>
 5    1  0.1758488E-003  0.9118800E+02  0.7818608E-02  0.1130116E+00
         25   -1    0    0    0    0  0.00000000000E+00  0.00000000000E+00  0.99999998245E-14  0.12500000000E+03  0.12500000000E+03 0.  0.
        -13    1    3    3    0    0  0.90954558424E+01 -0.32546103155E+02  0.16824856222E+02  0.37750007927E+02  0.10566000000E+00 0. -1.
         23    2    1    0    0    0  0.82063047811E+01  0.24309795958E+02 -0.53620599332E+01  0.98788145727E+02  0.95247238447E+02 0.  0.
         13    1    3    3    0    0 -0.88915106135E+00  0.56855899113E+02 -0.22186916156E+02  0.61038137800E+02  0.10566000000E+00 0.  1.
         22    1    1    0    0    0 -0.82063047811E+01 -0.24309795958E+02  0.53620599332E+01  0.26211854273E+02  0.00000000000E+00 0.  1.
</event>
<event>
 5    1  0.1758488E-003  0.9118800E+02  0.7818608E-02  0.1130116E+00
         25   -1    0    0    0    0  0.00000000000E+00  0.00000000000E+00  0.99999998245E-14  0.12500000000E+03  0.12500000000E+03 0.  0.
        -13    1    3    3    0    0  0.42185847607E+02  0.38332553570E+02 -0.60337371356E+01  0.57318823691E+02  0.10566000000E+00 0.  1.
         23    2    1    0    0    0  0.29462503382E+01  0.14789143723E+02 -0.14754017299E+02  0.10390307630E+03  0.10173872947E+03 0.  0.
         13    1    3    3    0    0 -0.39239597269E+02 -0.23543409846E+02 -0.87202801634E+01  0.46584252609E+02  0.10566000000E+00 0. -1.
         22    1    1    0    0    0 -0.29462503382E+01 -0.14789143723E+02  0.14754017299E+02  0.21096923699E+02  0.00000000000E+00 0.  1.
</event>
<event>
 5    1  0.1758488E-003  0.9118800E+02  0.7818608E-02  0.1130116E+00
         25   -1    0    0    0    0  0.00000000000E+00  0.00000000000E+00  0.99999998245E-14  0.12500000000E+03  0.12500000000E+03 0.  0.
        -13    1    3    3    0    0  0.21822504521E+01 -0.34729064082E+02 -0.35430670696E+02  0.49660987697E+02  0.10566000000E+00 0.  1.
         23    2    1    0    0    0 -0.19429421749E+02 -0.21620798485E+02  0.31258300821E+01  0.95764197115E+02  0.91192375112E+02 0.  0.
         13    1    3    3    0    0 -0.21611672202E+02  0.13108265597E+02  0.38556500778E+02  0.46103209418E+02  0.10566000000E+00 0. -1.
         22    1    1    0    0    0  0.19429421749E+02  0.21620798485E+02 -0.31258300821E+01  0.29235802885E+02  0.00000000000E+00 0.  1.
</event>
<event>
 5    1  0.1758488E-003  0.9118800E+02  0.7818608E-02  0.1130116E+00
         25   -1    0    0    0    0  0.00000000000E+00  0.00000000000E+00  0.99999998245E-14  0.12500000000E+03  0.12500000000E+03 0.  0.
        -13    1    3    3    0    0  0.23351905776E+02 -0.23338780019E+02  0.92360967030E+01  0.34283039575E+02  0.10566000000E+00 0. -1.
         23    2    1    0    0    0 -0.49282672104E+01  0.29645219959E+02  0.54193780773E+01  0.94463193637E+02  0.89391265844E+02 0.  0.
         13    1    3    3    0    0 -0.28280172987E+02  0.52983999978E+02 -0.38167186257E+01  0.60180154062E+02  0.10566000000E+00 0.  1.
         22    1    1    0    0    0  0.49282672104E+01 -0.29645219959E+02 -0.54193780773E+01  0.30536806363E+02  0.00000000000E+00 0.  1.
</event>
<event>
 5    1  0.1758488E-003  0.9118800E+02  0.7818608E-02  0.1130116E+00
         25   -1    0    0    0    0  0.00000000000E+00  0.00000000000E+00  0.99999998245E-14  0.12500000000E+03  0.12500000000E+03 0.  0.
        -13    1    3    3    0    0  0.28998222021E+02 -0.20385229621E+02  0.91224688966E+01  0.36601708565E+02  0.10566000000E+00 0.  1.
         23    2    1    0    0    0 -0.27042131115E+02 -0.73628306771E+01 -0.65223866578E+01  0.96224495512E+02  0.91821151582E+02 0.  0.
         13    1    3    3    0    0 -0.56040353136E+02  0.13022398944E+02 -0.15644855554E+02  0.59622786946E+02  0.10566000000E+00 0. -1.
         22    1    1    0    0    0  0.27042131115E+02  0.73628306771E+01  0.65223866578E+01  0.28775504488E+02  0.00000000000E+00 0. -1.
</event>
<event>
 5    1  0.1758488E-003  0.9118800E+02  0.7818608E-02  0.1130116E+00
         25   -1    0    0    0    0  0.00000000000E+00  0.00000000000E+00  0.99999998245E-14  0.12500000000E+03  0.12500000000E+03 0.  0.
        -13    1    3    3    0    0 -0.52283664803E+02 -0.69743784958E+01  0.29584807304E+02  0.60477231649E+02  0.10566000000E+00 0. -1.
         23    2    1    0    0    0 -0.29536239333E+02 -0.37736344757E+01  0.38460121581E+01  0.94976316671E+02  0.90105933033E+02 0.  0.
         13    1    3    3    0    0  0.22747425469E+02  0.32007440202E+01 -0.25738795146E+02  0.34499085022E+02  0.10566000000E+00 0.  1.
         22    1    1    0    0    0  0.29536239333E+02  0.37736344757E+01 -0.38460121581E+01  0.30023683329E+02  0.00000000000E+00 0. -1.
</event>
<event>
 5    1  0.1758488E-003  0.9118800E+02  0.7818608E-02  0.1130116E+00
         25   -1    0    0    0    0  0.00000000000E+00  0.00000000000E+00  0.99999998245E-14  0.12500000000E+03  0.12500000000E+03 0.  0.
        -13    1    3    3    0    0 -0.14957413208E+02 -0.18088877779E+02 -0.10800845149E+01  0.23497009507E+02  0.10566000000E+00 0. -1.
         23    2    1    0    0    0  0.66693200763E+01  0.28613213599E+00 -0.47027031408E+02  0.77501543342E+02  0.61240393822E+02 0.  0.
         13    1    3    3    0    0  0.21626733285E+02  0.18375009915E+02 -0.45946946893E+02  0.54004533835E+02  0.10566000000E+00 0.  1.
         22    1    1    0    0    0 -0.66693200763E+01 -0.28613213599E+00  0.47027031408E+02  0.47498456658E+02  0.00000000000E+00 0.  1.
</event>
<event>
 5    1  0.1758488E-003  0.9118800E+02  0.7818608E-02  0.1130116E+00
         25   -1    0    0    0    0  0.00000000000E+00  0.00000000000E+00  0.99999998245E-14  0.12500000000E+03  0.12500000000E+03 0.  0.
        -13    1    3    3    0    0  0.45094976622E+02  0.41335162531E+02  0.34648386305E+01  0.61271272623E+02  0.10566000000E+00 0. -1.
         23    2    1    0    0    0  0.20851414569E+02  0.28091609267E+02  0.75865645763E+01  0.89202291096E+02  0.81704178436E+02 0.  0.
         13    1    3    3    0    0 -0.24243562054E+02 -0.13243553264E+02  0.41217259458E+01  0.27931018473E+02  0.10566000000E+00 0.  1.
         22    1    1    0    0    0 -0.20851414569E+02 -0.28091609267E+02 -0.75865645763E+01  0.35797708904E+02  0.00000000000E+00 0. -1.
</event>
<event>
 5    1  0.1758488E-003  0.9118800E+02  0.7818608E-02  0.1130116E+00
         25   -1    0    0    0    0  0.00000000000E+00  0.00000000000E+00  0.99999998245E-14  0.12500000000E+03  0.12500000000E+03 0.  0.
        -13    1    3    3    0    0 -0.16408239586E+02  0.36022005187E+02  0.22165472853E+02  0.45366667663E+02  0.10566000000E+00 0.  1.
         23    2    1    0    0    0 -0.81376720237E+01 -0.17334766315E+01 -0.20463922467E+02  0.10290930581E+03  0.10051033008E+03 0.  0.
         13    1    3    3    0    0  0.82705675621E+01 -0.37755481819E+02 -0.42629395320E+02  0.57542638144E+02  0.10566000000E+00 0. -1.
         22    1    1    0    0    0  0.81376720237E+01  0.17334766315E+01  0.20463922467E+02  0.22090694193E+02  0.00000000000E+00 0. -1.
</event>
<event>
 5    1  0.1758488E-003  0.9118800E+02  0.7818608E-02  0.1130116E+00
         25   -1    0    0    0    0  0.00000000000E+00  0.00000000000E+00  0.99999998245E-14  0.12500000000E+03  0.12500000000E+03 0.  0.
        -13    1    3    3    0    0 -0.85772600231E+01 -0.29369415315E+02 -0.19003339773E+02  0.36017635014E+02  0.10566000000E+00 0.  1.
         23    2    1    0    0    0 -0.14968747235E+02  0.14598534985E+02  0.20681649665E+02  0.95590626488E+02  0.90954145711E+02 0.  0.
         13    1    3    3    0    0 -0.63914872116E+01  0.43967950301E+02  0.39684989438E+02  0.59572991474E+02  0.10566000000E+00 0. -1.
         22    1    1    0    0    0  0.14968747235E+02 -0.14598534985E+02 -0.20681649665E+02  0.29409373512E+02  0.00000000000E+00 0. -1.
</event>
<event>
 5    1  0.1758488E-003  0.9118800E+02  0.7818608E-02  0.1130116E+00
         25   -1    0    0    0    0  0.00000000000E+00  0.00000000000E+00  0.99999998245E-14  0.12500000000E+03  0.12500000000E+03 0.  0.
        -13    1    3    3    0    0 -0.14300462484E+02 -0.31227590779E+02 -0.16067454294E+02  0.37918859485E+02  0.10566000000E+00 0. -1.
         23    2    1    0    0    0  0.25294384052E+02  0.10762671252E+02 -0.90572724409E+01  0.96057381924E+02  0.91593370289E+02 0.  0.
         13    1    3    3    0    0  0.39594846536E+02  0.41990262032E+02  0.70101818531E+01  0.58138522438E+02  0.10566000000E+00 0.  1.
         22    1    1    0    0    0 -0.25294384052E+02 -0.10762671252E+02  0.90572724409E+01  0.28942618076E+02  0.00000000000E+00 0.  1.
</event>
<event>
 5    1  0.1758488E-003  0.9118800E+02  0.7818608E-02  0.1130116E+00
         25   -1    0    0    0    0  0.00000000000E+00  0.00000000000E+00  0.99999998245E-14  0.12500000000E+03  0.12500000000E+03 0.  0.
        -13    1    3    3    0    0 -0.16306090569E+02 -0.38117730805E+02  0.10310194386E+02  0.42721906133E+02  0.10566000000E+00 0.  1.
         23    2    1    0    0    0 -0.23794052121E+02  0.14717153325E+02  0.27102882699E+00  0.97020990458E+02  0.92899126015E+02 0.  0.
         13    1    3    3    0    0 -0.74879615521E+01  0.52834884130E+02 -0.10039165559E+02  0.54299084324E+02  0.10566000000E+00 0. -1.
         22    1    1    0    0    0  0.23794052121E+02 -0.14717153325E+02 -0.27102882699E+00  0.27979009542E+02  0.00000000000E+00 0. -1.
</event>
<event>
 5    1  0.1758488E-003  0.9118800E+02  0.7818608E-02  0.1130116E+00
         25   -1    0    0    0    0  0.00000000000E+00  0.00000000000E+00  0.99999998245E-14  0.12500000000E+03  0.12500000000E+03 0.  0.
        -13    1    3    3    0    0  0.25071569603E+02  0.52523777017E+02  0.10586637245E+02  0.59155885647E+02  0.10566000000E+00 0. -1.
         23    2    1    0    0    0 -0.63176160959E+00  0.26828724531E+02  0.12166945306E+02  0.95534526293E+02  0.90877013448E+02 0.  0.
         13    1    3    3    0    0 -0.25703331212E+02 -0.25695052486E+02  0.15803080618E+01  0.36378640646E+02  0.10566000000E+00 0.  1.
         22    1    1    0    0    0  0.63176160959E+00 -0.26828724531E+02 -0.12166945306E+02  0.29465473707E+02  0.00000000000E+00 0. -1.
</event>
<event>
 5    1  0.1758488E-003  0.9118800E+02  0.7818608E-02  0.1130116E+00
         25   -1    0    0    0    0  0.00000000000E+00  0.00000000000E+00  0.99999998245E-14  0.12500000000E+03  0.12500000000E+03 0.  0.
        -13    1    3    3    0    0 -0.39168468785E+02 -0.28603169923E+02  0.22959169071E+02  0.53660459234E+02  0.10566000000E+00 0.  1.
         23    2    1    0    0    0 -0.19403776288E+02 -0.18714761820E+02 -0.12375013829E+02  0.95337063337E+02  0.90604998948E+02 0.  0.
         13    1    3    3    0    0  0.19764692498E+02  0.98884081037E+01 -0.35334182900E+02  0.41676604104E+02  0.10566000000E+00 0. -1.
         22    1    1    0    0    0  0.19403776288E+02  0.18714761820E+02  0.12375013829E+02  0.29662936663E+02  0.00000000000E+00 0.  1.
</event>
<event>
 5    1  0.1758488E-003  0.9118800E+02  0.7818608E-02  0.1130116E+00
         25   -1    0    0    0    0  0.00000000000E+00  0.00000000000E+00  0.99999998245E-14  0.12500000000E+03  0.12500000000E+03 0.  0.
        -13    1    3    3    0    0 -0.31881748237E+02  0.25358877235E+01  0.14571988918E+02  0.35145847867E+02  0.10566000000E+00 0. -1.
         23    2    1    0    0    0  0.91729874264E+01 -0.11997736213E+02 -0.26170900016E+02  0.94784021111E+02  0.89838773800E+02 0.  0.
         13    1    3    3    0    0  0.41054735664E+02 -0.14533623936E+02 -0.40742888934E+02  0.59638173244E+02  0.10566000000E+00 0.  1.
         22    1    1    0    0    0 -0.91729874264E+01  0.11997736213E+02  0.26170900016E+02  0.30215978889E+02  0.00000000000E+00 0.  1.
</event>
<event>
 5    1  0.1758488E-003  0.9118800E+02  0.7818608E-02  0.1130116E+00
         25   -1    0    0    0    0  0.00000000000E+00  0.00000000000E+00  0.99999998245E-14  0.12500000000E+03  0.12500000000E+03 0.  0.
        -13    1    3    3    0    0  0.27720695734E+02  0.70992495309E+01  0.49850749483E+02  0.57479950451E+02  0.10566000000E+00 0. -1.
         23    2    1    0    0    0  0.13463310845E+02 -0.14418227439E+02  0.21463149059E+02  0.95848451346E+02  0.91307791762E+02 0.  0.
         13    1    3    3    0    0 -0.14257384889E+02 -0.21517476970E+02 -0.28387600423E+02  0.38368500894E+02  0.10566000000E+00 0.  1.
         22    1    1    0    0    0 -0.13463310845E+02  0.14418227439E+02 -0.21463149059E+02  0.29151548654E+02  0.00000000000E+00 0. -1.
</event>
<event>
 5    1  0.1758488E-003  0.9118800E+02  0.7818608E-02  0.1130116E+00
         25   -1    0    0    0    0  0.00000000000E+00  0.00000000000E+00  0.99999998245E-14  0.12500000000E+03  0.12500000000E+03 0.  0.
        -13    1    3    3    0    0  0.31926984015E+02  0.95870806534E+00  0.35401240169E+02  0.47681342252E+02  0.10566000000E+00 0.  1.
         23    2    1    0    0    0 -0.85882154355E+01  0.18741532225E+02  0.23977535035E+02  0.93378414637E+02  0.87861275084E+02 0.  0.
         13    1    3    3    0    0 -0.40515199450E+02  0.17782824159E+02 -0.11423705134E+02  0.45697072385E+02  0.10566000000E+00 0. -1.
         22    1    1    0    0    0  0.85882154355E+01 -0.18741532225E+02 -0.23977535035E+02  0.31621585363E+02  0.00000000000E+00 0. -1.
</event>
<event>
 5    1  0.1758488E-003  0.9118800E+02  0.7818608E-02  0.1130116E+00
         25   -1    0    0    0    0  0.00000000000E+00  0.00000000000E+00  0.99999998245E-14  0.12500000000E+03  0.12500000000E+03 0.  0.
        -13    1    3    3    0    0 -0.47810215224E+02  0.34956010711E+02  0.18996206528E+02  0.62198122086E+02  0.10566000000E+00 0.  1.
         23    2    1    0    0    0 -0.18624411734E+02  0.18115984111E+02  0.10706251767E+02  0.96898729217E+02  0.92734472038E+02 0.  0.
         13    1    3    3    0    0  0.29185803489E+02 -0.16840026601E+02 -0.82899547608E+01  0.34700607130E+02  0.10566000000E+00 0. -1.
         22    1    1    0    0    0  0.18624411734E+02 -0.18115984111E+02 -0.10706251767E+02  0.28101270783E+02  0.00000000000E+00 0.  1.
</event>
<event>
 5    1  0.1758488E-003  0.9118800E+02  0.7818608E-02  0.1130116E+00
         25   -1    0    0    0    0  0.00000000000E+00  0.00000000000E+00  0.99999998245E-14  0.12500000000E+03  0.12500000000E+03 0.  0.
        -13    1    3    3    0    0 -0.21597373849E+02  0.17914889600E+02 -0.33358327012E+02  0.43591042333E+02  0.10566000000E+00 0.  1.
         23    2    1    0    0    0  0.23088750089E+02 -0.18526807220E+01 -0.20377952974E+02  0.94149006921E+02  0.88950838840E+02 0.  0.
         13    1    3    3    0    0  0.44686123938E+02 -0.19767570322E+02  0.12980374038E+02  0.50557964588E+02  0.10566000000E+00 0. -1.
         22    1    1    0    0    0 -0.23088750089E+02  0.18526807220E+01  0.20377952974E+02  0.30850993079E+02  0.00000000000E+00 0.  1.
</event>
<event>
 5    1  0.1758488E-003  0.9118800E+02  0.7818608E-02  0.1130116E+00
         25   -1    0    0    0    0  0.00000000000E+00  0.00000000000E+00  0.99999998245E-14  0.12500000000E+03  0.12500000000E+03 0.  0.
        -13    1    3    3    0    0 -0.29235417213E+02 -0.13577903445E+02 -0.40111131327E+02  0.51458557130E+02  0.10566000000E+00 0.  1.
         23    2    1    0    0    0 -0.31067402193E+01  0.17855791613E+02 -0.22864736351E+02  0.95823343281E+02  0.91273412449E+02 0.  0.
         13    1    3    3    0    0  0.26128676993E+02  0.31433695058E+02  0.17246394976E+02  0.44364786150E+02  0.10566000000E+00 0. -1.
         22    1    1    0    0    0  0.31067402193E+01 -0.17855791613E+02  0.22864736351E+02  0.29176656719E+02  0.00000000000E+00 0.  1.
</event>
<event>
 5    1  0.1758488E-003  0.9118800E+02  0.7818608E-02  0.1130116E+00
         25   -1    0    0    0    0  0.00000000000E+00  0.00000000000E+00  0.99999998245E-14  0.12500000000E+03  0.12500000000E+03 0.  0.
        -13    1    3    3    0    0 -0.20489898030E+02  0.41274864116E+02 -0.32257033627E+02  0.56249246320E+02  0.10566000000E+00 0. -1.
         23    2    1    0    0    0 -0.20024765619E+02  0.22322278874E+01 -0.18496712137E+02  0.97648538625E+02  0.93739717603E+02 0.  0.
         13    1    3    3    0    0  0.46513241088E+00 -0.39042636229E+02  0.13760321490E+02  0.41399292305E+02  0.10566000000E+00 0.  1.
         22    1    1    0    0    0  0.20024765619E+02 -0.22322278874E+01  0.18496712137E+02  0.27351461375E+02  0.00000000000E+00 0. -1.
</event>
<event>
 5    1  0.1758488E-003  0.9118800E+02  0.7818608E-02  0.1130116E+00
         25   -1    0    0    0    0  0.00000000000E+00  0.00000000000E+00  0.99999998245E-14  0.12500000000E+03  0.12500000000E+03 0.  0.
        -13    1    3    3    0    0 -0.26370607205E+02 -0.31732871806E+02 -0.25190402796E+02  0.48342027621E+02  0.10566000000E+00 0.  1.
         23    2    1    0    0    0  0.17420252071E+02 -0.20980753860E+02 -0.10717906474E+02  0.95699304890E+02  0.91103382059E+02 0.  0.
         13    1    3    3    0    0  0.43790859276E+02  0.10752117947E+02  0.14472496323E+02  0.47357277269E+02  0.10566000000E+00 0. -1.
         22    1    1    0    0    0 -0.17420252071E+02  0.20980753860E+02  0.10717906474E+02  0.29300695110E+02  0.00000000000E+00 0. -1.
</event>
<event>
 5    1  0.1758488E-003  0.9118800E+02  0.7818608E-02  0.1130116E+00
         25   -1    0    0    0    0  0.00000000000E+00  0.00000000000E+00  0.99999998245E-14  0.12500000000E+03  0.12500000000E+03 0.  0.
        -13    1    3    3    0    0 -0.34753207470E+02  0.43074160170E+01 -0.40857892532E+02  0.53811874232E+02  0.10566000000E+00 0. -1.
         23    2    1    0    0    0 -0.31926198272E+02 -0.10859088648E+02 -0.76615600246E+01  0.90418192002E+02  0.83543689173E+02 0.  0.
         13    1    3    3    0    0  0.28270091979E+01 -0.15166504665E+02  0.33196332507E+02  0.36606317770E+02  0.10566000000E+00 0.  1.
         22    1    1    0    0    0  0.31926198272E+02  0.10859088648E+02  0.76615600246E+01  0.34581807998E+02  0.00000000000E+00 0. -1.
</event>
<event>
 5    1  0.1758488E-003  0.9118800E+02  0.7818608E-02  0.1130116E+00
         25   -1    0    0    0    0  0.00000000000E+00  0.00000000000E+00  0.99999998245E-14  0.12500000000E+03  0.12500000000E+03 0.  0.
        -13    1    3    3    0    0 -0.34383189725E+02 -0.32864963411E+01  0.16368616061E+02  0.38222343592E+02  0.10566000000E+00 0.  1.
         23    2    1    0    0    0  0.69368086863E+01  0.21196963592E+02 -0.17212910144E+02  0.96827054540E+02  0.92637808885E+02 0.  0.
         13    1    3    3    0    0  0.41319998412E+02  0.24483459933E+02 -0.33581526205E+02  0.58604710948E+02  0.10566000000E+00 0. -1.
         22    1    1    0    0    0 -0.69368086863E+01 -0.21196963592E+02  0.17212910144E+02  0.28172945460E+02  0.00000000000E+00 0. -1.
</event>
<event>
 5    1  0.1758488E-003  0.9118800E+02  0.7818608E-02  0.1130116E+00
         25   -1    0    0    0    0  0.00000000000E+00  0.00000000000E+00  0.99999998245E-14  0.12500000000E+03  0.12500000000E+03 0.  0.
        -13    1    3    3    0    0  0.50797344005E+02  0.18833662734E+02  0.15096512228E+02  0.56240491245E+02  0.10566000000E+00 0.  1.
         23    2    1    0    0    0  0.12799018134E+02  0.13580399070E+02  0.22975063274E+02  0.95401087241E+02  0.90693284262E+02 0.  0.
         13    1    3    3    0    0 -0.37998325871E+02 -0.52532636644E+01  0.78785510461E+01  0.39160595996E+02  0.10566000000E+00 0. -1.
         22    1    1    0    0    0 -0.12799018134E+02 -0.13580399070E+02 -0.22975063274E+02  0.29598912759E+02  0.00000000000E+00 0.  1.
</event>
<event>
 5    1  0.1758488E-003  0.9118800E+02  0.7818608E-02  0.1130116E+00
         25   -1    0    0    0    0  0.00000000000E+00  0.00000000000E+00  0.99999998245E-14  0.12500000000E+03  0.12500000000E+03 0.  0.
        -13    1    3    3    0    0  0.27467568589E+02  0.16984156659E+02  0.14163156055E+02  0.35263792409E+02  0.10566000000E+00 0.  1.
         23    2    1    0    0    0 -0.23262344721E+02 -0.15750176275E+02  0.68891511534E+01  0.96074835554E+02  0.91617186643E+02 0.  0.
         13    1    3    3    0    0 -0.50729913310E+02 -0.32734332934E+02 -0.72740049012E+01  0.60811043145E+02  0.10566000000E+00 0. -1.
         22    1    1    0    0    0  0.23262344721E+02  0.15750176275E+02 -0.68891511534E+01  0.28925164446E+02  0.00000000000E+00 0. -1.
</event>
<event>
 5    1  0.1758488E-003  0.9118800E+02  0.7818608E-02  0.1130116E+00
         25   -1    0    0    0    0  0.00000000000E+00  0.00000000000E+00  0.99999998245E-14  0.12500000000E+03  0.12500000000E+03 0.  0.
        -13    1    3    3    0    0  0.26598463715E+02  0.30449934296E+02 -0.10641026600E+02  0.41808125787E+02  0.10566000000E+00 0. -1.
         23    2    1    0    0    0  0.17189820219E+02 -0.22667195728E+02 -0.15781524144E+01  0.96508207386E+02  0.92206571601E+02 0.  0.
         13    1    3    3    0    0 -0.94086434967E+01 -0.53117130024E+02  0.90628741853E+01  0.54700081599E+02  0.10566000000E+00 0.  1.
         22    1    1    0    0    0 -0.17189820219E+02  0.22667195728E+02  0.15781524144E+01  0.28491792614E+02  0.00000000000E+00 0.  1.
</event>
<event>
 5    1  0.1758488E-003  0.9118800E+02  0.7818608E-02  0.1130116E+00
         25   -1    0    0    0    0  0.00000000000E+00  0.00000000000E+00  0.99999998245E-14  0.12500000000E+03  0.12500000000E+03 0.  0.
        -13    1    3    3    0    0  0.30977976130E+02  0.22084460673E+02 -0.36823056333E+02  0.52946265685E+02  0.10566000000E+00 0.  1.
         23    2    1    0    0    0  0.19350685482E+02 -0.46170366689E+00  0.76832747111E+01  0.10417465704E+03  0.10207185832E+03 0.  0.
         13    1    3    3    0    0 -0.11627290647E+02 -0.22546164340E+02  0.44506331044E+02  0.51228391359E+02  0.10566000000E+00 0. -1.
         22    1    1    0    0    0 -0.19350685482E+02  0.46170366689E+00 -0.76832747111E+01  0.20825342955E+02  0.00000000000E+00 0. -1.
</event>
<event>
 5    1  0.1758488E-003  0.9118800E+02  0.7818608E-02  0.1130116E+00
         25   -1    0    0    0    0  0.00000000000E+00  0.00000000000E+00  0.99999998245E-14  0.12500000000E+03  0.12500000000E+03 0.  0.
        -13    1    3    3    0    0  0.30655939111E+02 -0.19567011919E+02  0.39179333736E+02  0.53457327975E+02  0.10566000000E+00 0.  1.
         23    2    1    0    0    0  0.95113032054E+01 -0.29171434919E+02  0.63561433784E+01  0.93665704690E+02  0.88269055578E+02 0.  0.
         13    1    3    3    0    0 -0.21144635906E+02 -0.96044230005E+01 -0.32823190358E+02  0.40208376715E+02  0.10566000000E+00 0. -1.
         22    1    1    0    0    0 -0.95113032054E+01  0.29171434919E+02 -0.63561433784E+01  0.31334295310E+02  0.00000000000E+00 0.  1.
</event>
<event>
 5    1  0.1758488E-003  0.9118800E+02  0.7818608E-02  0.1130116E+00
         25   -1    0    0    0    0  0.00000000000E+00  0.00000000000E+00  0.99999998245E-14  0.12500000000E+03  0.12500000000E+03 0.  0.
        -13    1    3    3    0    0 -0.27159529295E+02  0.49435430039E+02  0.13378552035E+02  0.57969807601E+02  0.10566000000E+00 0. -1.
         23    2    1    0    0    0  0.24721270959E+01  0.25277373284E+02  0.13574642538E+02  0.96201945681E+02  0.91790448415E+02 0.  0.
         13    1    3    3    0    0  0.29631656391E+02 -0.24158056755E+02  0.19609050304E+00  0.38232138080E+02  0.10566000000E+00 0.  1.
         22    1    1    0    0    0 -0.24721270959E+01 -0.25277373284E+02 -0.13574642538E+02  0.28798054319E+02  0.00000000000E+00 0. -1.
</event>
<event>
 5    1  0.1758488E-003  0.9118800E+02  0.7818608E-02  0.1130116E+00
         25   -1    0    0    0    0  0.00000000000E+00  0.00000000000E+00  0.99999998245E-14  0.12500000000E+03  0.12500000000E+03 0.  0.
        -13    1    3    3    0    0 -0.12069784675E+02  0.30281978513E+02  0.80346262608E+01  0.33574459161E+02  0.10566000000E+00 0.  1.
         23    2    1    0    0    0  0.20747825763E+02 -0.94213132233E+01 -0.22103516553E+02  0.93254152071E+02  0.87684308845E+02 0.  0.
         13    1    3    3    0    0  0.32817610438E+02 -0.39703291736E+02 -0.30138142814E+02  0.59679692910E+02  0.10566000000E+00 0. -1.
         22    1    1    0    0    0 -0.20747825763E+02  0.94213132233E+01  0.22103516553E+02  0.31745847929E+02  0.00000000000E+00 0. -1.
</event>
<event>
 5    1  0.1758488E-003  0.9118800E+02  0.7818608E-02  0.1130116E+00
         25   -1    0    0    0    0  0.00000000000E+00  0.00000000000E+00  0.99999998245E-14  0.12500000000E+03  0.12500000000E+03 0.  0.
        -13    1    3    3    0    0  0.11975083090E+02  0.33442147051E+02  0.36310716717E+02  0.50796251111E+02  0.10566000000E+00 0.  1.
         23    2    1    0    0    0  0.69480347529E+01 -0.93478797872E+01  0.27998943704E+02  0.94675111015E+02  0.89687110298E+02 0.  0.
         13    1    3    3    0    0 -0.50270483372E+01 -0.42790026838E+02 -0.83117730128E+01  0.43878859904E+02  0.10566000000E+00 0. -1.
         22    1    1    0    0    0 -0.69480347529E+01  0.93478797872E+01 -0.27998943704E+02  0.30324888985E+02  0.00000000000E+00 0.  1.
</event>
<event>
 5    1  0.1758488E-003  0.9118800E+02  0.7818608E-02  0.1130116E+00
         25   -1    0    0    0    0  0.00000000000E+00  0.00000000000E+00  0.99999998245E-14  0.12500000000E+03  0.12500000000E+03 0.  0.
        -13    1    3    3    0    0 -0.51152732527E+01  0.12415635961E+02  0.34718802464E+02  0.37225266223E+02  0.10566000000E+00 0.  1.
         23    2    1    0    0    0 -0.40099282344E+01  0.16254126746E+02 -0.23811718310E+02  0.95892027044E+02  0.91367427243E+02 0.  0.
         13    1    3    3    0    0  0.11053450182E+01  0.38384907850E+01 -0.58530520774E+02  0.58666760821E+02  0.10566000000E+00 0. -1.
         22    1    1    0    0    0  0.40099282344E+01 -0.16254126746E+02  0.23811718310E+02  0.29107972956E+02  0.00000000000E+00 0. -1.
</event>
<event>
 5    1  0.1758488E-003  0.9118800E+02  0.7818608E-02  0.1130116E+00
         25   -1    0    0    0    0  0.00000000000E+00  0.00000000000E+00  0.99999998245E-14  0.12500000000E+03  0.12500000000E+03 0.  0.
        -13    1    3    3    0    0  0.16395086634E+02 -0.39895900613E+02  0.82832602983E+01  0.43921581445E+02  0.10566000000E+00 0. -1.
         23    2    1    0    0    0  0.18719982183E+02  0.73434267365E+00  0.29681100085E+02  0.89900930292E+02  0.82766131799E+02 0.  0.
         13    1    3    3    0    0  0.23248955489E+01  0.40630243286E+02  0.21397839787E+02  0.45979348847E+02  0.10566000000E+00 0.  1.
         22    1    1    0    0    0 -0.18719982183E+02 -0.73434267365E+00 -0.29681100085E+02  0.35099069708E+02  0.00000000000E+00 0. -1.
</event>
<event>
 5    1  0.1758488E-003  0.9118800E+02  0.7818608E-02  0.1130116E+00
         25   -1    0    0    0    0  0.00000000000E+00  0.00000000000E+00  0.99999998245E-14  0.12500000000E+03  0.12500000000E+03 0.  0.
        -13    1    3    3    0    0  0.89210379206E+01  0.25320002445E+02 -0.28184063874E+02  0.38923515538E+02  0.10566000000E+00 0.  1.
         23    2    1    0    0    0  0.75102674614E+01 -0.27484942658E+02 -0.10667937552E+02  0.94575814196E+02  0.89548609978E+02 0.  0.
         13    1    3    3    0    0 -0.14107704592E+01 -0.52804945102E+02  0.17516126321E+02  0.55652298658E+02  0.10566000000E+00 0. -1.
         22    1    1    0    0    0 -0.75102674614E+01  0.27484942658E+02  0.10667937552E+02  0.30424185804E+02  0.00000000000E+00 0. -1.
</event>
<event>
 5    1  0.1758488E-003  0.9118800E+02  0.7818608E-02  0.1130116E+00
         25   -1    0    0    0    0  0.00000000000E+00  0.00000000000E+00  0.99999998245E-14  0.12500000000E+03  0.12500000000E+03 0.  0.
        -13    1    3    3    0    0 -0.34928046971E+02 -0.21034376330E+02  0.10159563141E+02  0.42019535219E+02  0.10566000000E+00 0. -1.
         23    2    1    0    0    0  0.76750204221E+01 -0.19777916068E+02 -0.21256339627E+02  0.94968285483E+02  0.90094791030E+02 0.  0.
         13    1    3    3    0    0  0.42603067393E+02  0.12564602619E+01 -0.31415902769E+02  0.52948750263E+02  0.10566000000E+00 0.  1.
         22    1    1    0    0    0 -0.76750204221E+01  0.19777916068E+02  0.21256339627E+02  0.30031714517E+02  0.00000000000E+00 0.  1.
</event>
<event>
 5    1  0.1758488E-003  0.9118800E+02  0.7818608E-02  0.1130116E+00
         25   -1    0    0    0    0  0.00000000000E+00  0.00000000000E+00  0.99999998245E-14  0.12500000000E+03  0.12500000000E+03 0.  0.
        -13    1    3    3    0    0  0.61538285982E+02 -0.10104505021E+02  0.12473550807E+01  0.62374904585E+02  0.10566000000E+00 0.  1.
         23    2    1    0    0    0  0.28926839783E+02 -0.42175251606E+01  0.33258558954E+01  0.95578733954E+02  0.90937800108E+02 0.  0.
         13    1    3    3    0    0 -0.32611446199E+02  0.58869798601E+01  0.20785008147E+01  0.33203829368E+02  0.10566000000E+00 0. -1.
         22    1    1    0    0    0 -0.28926839783E+02  0.42175251606E+01 -0.33258558954E+01  0.29421266046E+02  0.00000000000E+00 0.  1.
</event>
<event>
 5    1  0.1758488E-003  0.9118800E+02  0.7818608E-02  0.1130116E+00
         25   -1    0    0    0    0  0.00000000000E+00  0.00000000000E+00  0.99999998245E-14  0.12500000000E+03  0.12500000000E+03 0.  0.
        -13    1    3    3    0    0 -0.38577088318E+02  0.30103527102E+02 -0.16360067087E+02  0.51595320003E+02  0.10566000000E+00 0. -1.
         23    2    1    0    0    0 -0.25444925849E+02 -0.11505862476E+02 -0.62831504360E+01  0.96376458951E+02  0.92027793289E+02 0.  0.
         13    1    3    3    0    0  0.13132162468E+02 -0.41609389579E+02  0.10076916651E+02  0.44781138948E+02  0.10566000000E+00 0.  1.
         22    1    1    0    0    0  0.25444925849E+02  0.11505862476E+02  0.62831504360E+01  0.28623541049E+02  0.00000000000E+00 0. -1.
</event>
<event>
 5    1  0.1758488E-003  0.9118800E+02  0.7818608E-02  0.1130116E+00
         25   -1    0    0    0    0  0.00000000000E+00  0.00000000000E+00  0.99999998245E-14  0.12500000000E+03  0.12500000000E+03 0.  0.
        -13    1    3    3    0    0 -0.19151017194E+00 -0.31747561482E+02 -0.40345505659E+02  0.51339218217E+02  0.10566000000E+00 0. -1.
         23    2    1    0    0    0  0.21908877396E+02 -0.19750501782E+02 -0.44465633861E+01  0.95169593443E+02  0.90373659663E+02 0.  0.
         13    1    3    3    0    0  0.22100387568E+02  0.11997059700E+02  0.35898942273E+02  0.43830375226E+02  0.10566000000E+00 0.  1.
         22    1    1    0    0    0 -0.21908877396E+02  0.19750501782E+02  0.44465633861E+01  0.29830406557E+02  0.00000000000E+00 0. -1.
</event>
<event>
 5    1  0.1758488E-003  0.9118800E+02  0.7818608E-02  0.1130116E+00
         25   -1    0    0    0    0  0.00000000000E+00  0.00000000000E+00  0.99999998245E-14  0.12500000000E+03  0.12500000000E+03 0.  0.
        -13    1    3    3    0    0  0.22598644474E+02 -0.18161889720E-01 -0.30428034595E+02  0.37902183516E+02  0.10566000000E+00 0. -1.
         23    2    1    0    0    0 -0.11208341326E+02  0.19718022249E-01 -0.47794383036E+02  0.75908958517E+02  0.57898528732E+02 0.  0.
         13    1    3    3    0    0 -0.33806985800E+02  0.37879911969E-01 -0.17366348441E+02  0.38006775001E+02  0.10566000000E+00 0.  1.
         22    1    1    0    0    0  0.11208341326E+02 -0.19718022249E-01  0.47794383036E+02  0.49091041483E+02  0.00000000000E+00 0.  1.
</event>
<event>
 5    1  0.1758488E-003  0.9118800E+02  0.7818608E-02  0.1130116E+00
         25   -1    0    0    0    0  0.00000000000E+00  0.00000000000E+00  0.99999998245E-14  0.12500000000E+03  0.12500000000E+03 0.  0.
        -13    1    3    3    0    0 -0.14426892322E+01  0.32229312835E+02  0.19999768890E+02  0.37958027843E+02  0.10566000000E+00 0. -1.
         23    2    1    0    0    0  0.23566773694E+02 -0.16886690976E+02  0.11872919669E+02  0.93670790372E+02  0.88276257244E+02 0.  0.
         13    1    3    3    0    0  0.25009462926E+02 -0.49116003812E+02 -0.81268492211E+01  0.55712762529E+02  0.10566000000E+00 0.  1.
         22    1    1    0    0    0 -0.23566773694E+02  0.16886690976E+02 -0.11872919669E+02  0.31329209628E+02  0.00000000000E+00 0.  1.
</event>
<event>
 5    1  0.1758488E-003  0.9118800E+02  0.7818608E-02  0.1130116E+00
         25   -1    0    0    0    0  0.00000000000E+00  0.00000000000E+00  0.99999998245E-14  0.12500000000E+03  0.12500000000E+03 0.  0.
        -13    1    3    3    0    0 -0.14255404752E+02 -0.55084713016E+02  0.15526573921E+02  0.58979893476E+02  0.10566000000E+00 0.  1.
         23    2    1    0    0    0  0.75093486075E+01 -0.30018471506E+02  0.65159222783E+01  0.93377916084E+02  0.87860565790E+02 0.  0.
         13    1    3    3    0    0  0.21764753360E+02  0.25066241510E+02 -0.90106516422E+01  0.34398022608E+02  0.10566000000E+00 0. -1.
         22    1    1    0    0    0 -0.75093486075E+01  0.30018471506E+02 -0.65159222783E+01  0.31622083916E+02  0.00000000000E+00 0.  1.
</event>
<event>
 5    1  0.1758488E-003  0.9118800E+02  0.7818608E-02  0.1130116E+00
         25   -1    0    0    0    0  0.00000000000E+00  0.00000000000E+00  0.99999998245E-14  0.12500000000E+03  0.12500000000E+03 0.  0.
        -13    1    3    3    0    0 -0.43319979471E+02  0.32937778940E+02  0.26608961637E+02  0.60576942035E+02  0.10566000000E+00 0. -1.
         23    2    1    0    0    0 -0.14922987645E+02  0.25006478460E+02  0.14753023895E+02  0.92355379627E+02  0.86393546673E+02 0.  0.
         13    1    3    3    0    0  0.28396991826E+02 -0.79313004796E+01 -0.11855937742E+02  0.31778437592E+02  0.10566000000E+00 0.  1.
         22    1    1    0    0    0  0.14922987645E+02 -0.25006478460E+02 -0.14753023895E+02  0.32644620373E+02  0.00000000000E+00 0. -1.
</event>
<event>
 5    1  0.1758488E-003  0.9118800E+02  0.7818608E-02  0.1130116E+00
         25   -1    0    0    0    0  0.00000000000E+00  0.00000000000E+00  0.99999998245E-14  0.12500000000E+03  0.12500000000E+03 0.  0.
        -13    1    3    3    0    0 -0.29034354787E+02  0.29012483580E+02  0.16588472362E+02  0.44270831715E+02  0.10566000000E+00 0.  1.
         23    2    1    0    0    0  0.10531810065E+02 -0.14914141656E+01  0.27592591531E+02  0.95428147727E+02  0.90730573302E+02 0.  0.
         13    1    3    3    0    0  0.39566164852E+02 -0.30503897746E+02  0.11004119170E+02  0.51157316012E+02  0.10566000000E+00 0. -1.
         22    1    1    0    0    0 -0.10531810065E+02  0.14914141656E+01 -0.27592591531E+02  0.29571852273E+02  0.00000000000E+00 0.  1.
</event>
<event>
 5    1  0.1758488E-003  0.9118800E+02  0.7818608E-02  0.1130116E+00
         25   -1    0    0    0    0  0.00000000000E+00  0.00000000000E+00  0.99999998245E-14  0.12500000000E+03  0.12500000000E+03 0.  0.
        -13    1    3    3    0    0  0.61706345325E+01 -0.20027466566E+02 -0.55935612961E+02  0.59732571591E+02  0.10566000000E+00 0.  1.
         23    2    1    0    0    0 -0.19073422650E+01 -0.22811044740E+02 -0.28629288268E+02  0.88344606627E+02  0.80381289220E+02 0.  0.
         13    1    3    3    0    0 -0.80779767975E+01 -0.27835781737E+01  0.27306324693E+02  0.28612035036E+02  0.10566000000E+00 0. -1.
         22    1    1    0    0    0  0.19073422650E+01  0.22811044740E+02  0.28629288268E+02  0.36655393373E+02  0.00000000000E+00 0.  1.
</event>
<event>
 5    1  0.1758488E-003  0.9118800E+02  0.7818608E-02  0.1130116E+00
         25   -1    0    0    0    0  0.00000000000E+00  0.00000000000E+00  0.99999998245E-14  0.12500000000E+03  0.12500000000E+03 0.  0.
        -13    1    3    3    0    0 -0.27191496613E+02 -0.54400090942E+02  0.52150711233E+01  0.61040605447E+02  0.10566000000E+00 0.  1.
         23    2    1    0    0    0 -0.18010612489E+02 -0.24056821539E+02 -0.53885183433E+01  0.94468885465E+02  0.89399224640E+02 0.  0.
         13    1    3    3    0    0  0.91808841237E+01  0.30343269402E+02 -0.10603589467E+02  0.33428280018E+02  0.10566000000E+00 0. -1.
         22    1    1    0    0    0  0.18010612489E+02  0.24056821539E+02  0.53885183433E+01  0.30531114535E+02  0.00000000000E+00 0.  1.
</event>
<event>
 5    1  0.1758488E-003  0.9118800E+02  0.7818608E-02  0.1130116E+00
         25   -1    0    0    0    0  0.00000000000E+00  0.00000000000E+00  0.99999998245E-14  0.12500000000E+03  0.12500000000E+03 0.  0.
        -13    1    3    3    0    0 -0.47409008046E+02 -0.72515173087E+01  0.19746379315E+02  0.51866455511E+02  0.10566000000E+00 0.  1.
         23    2    1    0    0    0 -0.23814536582E+01 -0.65302385086E+01  0.26678972684E+02  0.97430398625E+02  0.93448379634E+02 0.  0.
         13    1    3    3    0    0  0.45027554388E+02  0.72127880018E+00  0.69325933691E+01  0.45563943114E+02  0.10566000000E+00 0. -1.
         22    1    1    0    0    0  0.23814536582E+01  0.65302385086E+01 -0.26678972684E+02  0.27569601375E+02  0.00000000000E+00 0.  1.
</event>
<event>
 5    1  0.1758488E-003  0.9118800E+02  0.7818608E-02  0.1130116E+00
         25   -1    0    0    0    0  0.00000000000E+00  0.00000000000E+00  0.99999998245E-14  0.12500000000E+03  0.12500000000E+03 0.  0.
        -13    1    3    3    0    0  0.16615837099E+02 -0.38114542448E+02 -0.24761766287E+02  0.48393807685E+02  0.10566000000E+00 0. -1.
         23    2    1    0    0    0  0.80250808224E+00  0.75620442921E+01 -0.27165597477E+02  0.96790104229E+02  0.92587936889E+02 0.  0.
         13    1    3    3    0    0 -0.15813329017E+02  0.45676586740E+02 -0.24038311901E+01  0.48396296545E+02  0.10566000000E+00 0.  1.
         22    1    1    0    0    0 -0.80250808224E+00 -0.75620442921E+01  0.27165597477E+02  0.28209895771E+02  0.00000000000E+00 0. -1.
</event>
<event>
 5    1  0.1758488E-003  0.9118800E+02  0.7818608E-02  0.1130116E+00
         25   -1    0    0    0    0  0.00000000000E+00  0.00000000000E+00  0.99999998245E-14  0.12500000000E+03  0.12500000000E+03 0.  0.
        -13    1    3    3    0    0  0.43806251293E+02  0.21516903513E+01  0.14771427311E+01  0.43884057907E+02  0.10566000000E+00 0.  1.
         23    2    1    0    0    0 -0.31487175127E+00  0.20475421845E+02  0.21159013189E+02  0.95554357146E+02  0.90904286403E+02 0.  0.
         13    1    3    3    0    0 -0.44121123045E+02  0.18323731494E+02  0.19681870458E+02  0.51670299238E+02  0.10566000000E+00 0. -1.
         22    1    1    0    0    0  0.31487175127E+00 -0.20475421845E+02 -0.21159013189E+02  0.29445642854E+02  0.00000000000E+00 0. -1.
</event>
<event>
 5    1  0.1758488E-003  0.9118800E+02  0.7818608E-02  0.1130116E+00
         25   -1    0    0    0    0  0.00000000000E+00  0.00000000000E+00  0.99999998245E-14  0.12500000000E+03  0.12500000000E+03 0.  0.
        -13    1    3    3    0    0  0.33566131805E+02 -0.49678935165E+02 -0.12792342295E+02  0.61305277007E+02  0.10566000000E+00 0.  1.
         23    2    1    0    0    0  0.82049126675E+01 -0.27292023619E+02 -0.43522758375E+01  0.96170892312E+02  0.91748150270E+02 0.  0.
         13    1    3    3    0    0 -0.25361219138E+02  0.22386911546E+02  0.84400664573E+01  0.34865615305E+02  0.10566000000E+00 0. -1.
         22    1    1    0    0    0 -0.82049126675E+01  0.27292023619E+02  0.43522758375E+01  0.28829107688E+02  0.00000000000E+00 0.  1.
</event>
<event>
 5    1  0.1758488E-003  0.9118800E+02  0.7818608E-02  0.1130116E+00
         25   -1    0    0    0    0  0.00000000000E+00  0.00000000000E+00  0.99999998245E-14  0.12500000000E+03  0.12500000000E+03 0.  0.
        -13    1    3    3    0    0  0.35955659495E+02 -0.89512241819E+01  0.17654195813E+02  0.41044069704E+02  0.10566000000E+00 0.  1.
         23    2    1    0    0    0  0.15437057012E+01 -0.18644823680E+02 -0.23111122954E+02  0.95265567409E+02  0.90506308356E+02 0.  0.
         13    1    3    3    0    0 -0.34411953794E+02 -0.96935994977E+01 -0.40765318767E+02  0.54221497704E+02  0.10566000000E+00 0. -1.
         22    1    1    0    0    0 -0.15437057012E+01  0.18644823680E+02  0.23111122954E+02  0.29734432591E+02  0.00000000000E+00 0. -1.
</event>
<event>
 5    1  0.1758488E-003  0.9118800E+02  0.7818608E-02  0.1130116E+00
         25   -1    0    0    0    0  0.00000000000E+00  0.00000000000E+00  0.99999998245E-14  0.12500000000E+03  0.12500000000E+03 0.  0.
        -13    1    3    3    0    0  0.85013127950E+01  0.39251469650E+02 -0.36693554469E+02  0.54400168130E+02  0.10566000000E+00 0.  1.
         23    2    1    0    0    0  0.11900157581E+02  0.27338201749E+02  0.20865070565E+01  0.95111130215E+02  0.90292760251E+02 0.  0.
         13    1    3    3    0    0  0.33988447857E+01 -0.11913267901E+02  0.38780061525E+02  0.40710962085E+02  0.10566000000E+00 0. -1.
         22    1    1    0    0    0 -0.11900157581E+02 -0.27338201749E+02 -0.20865070565E+01  0.29888869785E+02  0.00000000000E+00 0.  1.
</event>
<event>
 5    1  0.1758488E-003  0.9118800E+02  0.7818608E-02  0.1130116E+00
         25   -1    0    0    0    0  0.00000000000E+00  0.00000000000E+00  0.99999998245E-14  0.12500000000E+03  0.12500000000E+03 0.  0.
        -13    1    3    3    0    0 -0.42423963069E+02 -0.10747040527E+02  0.25047982924E+02  0.50425233120E+02  0.10566000000E+00 0. -1.
         23    2    1    0    0    0 -0.99928732609E+01  0.21430237476E+02  0.14329932181E+02  0.97351138349E+02  0.93342297954E+02 0.  0.
         13    1    3    3    0    0  0.32431089809E+02  0.32177278003E+02 -0.10718050743E+02  0.46925905229E+02  0.10566000000E+00 0.  1.
         22    1    1    0    0    0  0.99928732609E+01 -0.21430237476E+02 -0.14329932181E+02  0.27648861651E+02  0.00000000000E+00 0. -1.
</event>
<event>
 5    1  0.1758488E-003  0.9118800E+02  0.7818608E-02  0.1130116E+00
         25   -1    0    0    0    0  0.00000000000E+00  0.00000000000E+00  0.99999998245E-14  0.12500000000E+03  0.12500000000E+03 0.  0.
        -13    1    3    3    0    0 -0.94024386199E+01  0.34479421591E+02 -0.16337149963E+01  0.35775921427E+02  0.10566000000E+00 0.  1.
         23    2    1    0    0    0 -0.70971071106E+01 -0.26579713233E+02  0.42559201241E+01  0.97161843793E+02  0.93088457654E+02 0.  0.
         13    1    3    3    0    0  0.23053315093E+01 -0.61059134824E+02  0.58896351204E+01  0.61385922366E+02  0.10566000000E+00 0. -1.
         22    1    1    0    0    0  0.70971071106E+01  0.26579713233E+02 -0.42559201241E+01  0.27838156207E+02  0.00000000000E+00 0. -1.
</event>
<event>
 5    1  0.1758488E-003  0.9118800E+02  0.7818608E-02  0.1130116E+00
         25   -1    0    0    0    0  0.00000000000E+00  0.00000000000E+00  0.99999998245E-14  0.12500000000E+03  0.12500000000E+03 0.  0.
        -13    1    3    3    0    0 -0.31664235808E+02 -0.16767632105E+02 -0.33538066002E+02  0.49077391443E+02  0.10566000000E+00 0. -1.
         23    2    1    0    0    0  0.13671590564E+00  0.16215639879E+02 -0.24251810907E+02  0.95826107558E+02  0.91277198081E+02 0.  0.
         13    1    3    3    0    0  0.31800951714E+02  0.32983271984E+02  0.92862550946E+01  0.46748716115E+02  0.10566000000E+00 0.  1.
         22    1    1    0    0    0 -0.13671590564E+00 -0.16215639879E+02  0.24251810907E+02  0.29173892442E+02  0.00000000000E+00 0. -1.
</event>
<event>
 5    1  0.1758488E-003  0.9118800E+02  0.7818608E-02  0.1130116E+00
         25   -1    0    0    0    0  0.00000000000E+00  0.00000000000E+00  0.99999998245E-14  0.12500000000E+03  0.12500000000E+03 0.  0.
        -13    1    3    3    0    0 -0.26533756525E+02 -0.21758250083E+02 -0.51547472061E+02  0.61924266018E+02  0.10566000000E+00 0.  1.
         23    2    1    0    0    0 -0.11488156147E+02 -0.15075064768E+02 -0.20406702137E+02  0.97149168746E+02  0.93071435933E+02 0.  0.
         13    1    3    3    0    0  0.15045600378E+02  0.66831853152E+01  0.31140769924E+02  0.35224902728E+02  0.10566000000E+00 0. -1.
         22    1    1    0    0    0  0.11488156147E+02  0.15075064768E+02  0.20406702137E+02  0.27850831254E+02  0.00000000000E+00 0.  1.
</event>
<event>
 5    1  0.1758488E-003  0.9118800E+02  0.7818608E-02  0.1130116E+00
         25   -1    0    0    0    0  0.00000000000E+00  0.00000000000E+00  0.99999998245E-14  0.12500000000E+03  0.12500000000E+03 0.  0.
        -13    1    3    3    0    0 -0.18293728785E+02  0.43593811081E+02  0.10850136392E+02  0.48505850174E+02  0.10566000000E+00 0.  1.
         23    2    1    0    0    0  0.99307817597E+01 -0.22636753622E+01  0.19458394307E+02  0.10303699106E+03  0.10066900102E+03 0.  0.
         13    1    3    3    0    0  0.28224510545E+02 -0.45857486443E+02  0.86082579158E+01  0.54531140890E+02  0.10566000000E+00 0. -1.
         22    1    1    0    0    0 -0.99307817597E+01  0.22636753622E+01 -0.19458394307E+02  0.21963008936E+02  0.00000000000E+00 0.  1.
</event>
<event>
 5    1  0.1758488E-003  0.9118800E+02  0.7818608E-02  0.1130116E+00
         25   -1    0    0    0    0  0.00000000000E+00  0.00000000000E+00  0.99999998245E-14  0.12500000000E+03  0.12500000000E+03 0.  0.
        -13    1    3    3    0    0  0.87798702708E+01  0.16746425223E+02  0.15397629849E+02  0.24384975881E+02  0.10566000000E+00 0. -1.
         23    2    1    0    0    0 -0.20538363644E+02 -0.16950755483E+02 -0.27786294242E+02  0.86513240714E+02  0.77481031089E+02 0.  0.
         13    1    3    3    0    0 -0.29318233914E+02 -0.33697180705E+02 -0.43183924091E+02  0.62128264834E+02  0.10566000000E+00 0.  1.
         22    1    1    0    0    0  0.20538363644E+02  0.16950755483E+02  0.27786294242E+02  0.38486759286E+02  0.00000000000E+00 0.  1.
</event>
<event>
 5    1  0.1758488E-003  0.9118800E+02  0.7818608E-02  0.1130116E+00
         25   -1    0    0    0    0  0.00000000000E+00  0.00000000000E+00  0.99999998245E-14  0.12500000000E+03  0.12500000000E+03 0.  0.
        -13    1    3    3    0    0  0.11162198678E+02  0.41436441536E+02 -0.72717301046E+01  0.43525424630E+02  0.10566000000E+00 0.  1.
         23    2    1    0    0    0  0.24855480197E+02 -0.88877625316E+01 -0.12216628992E+02  0.95913349410E+02  0.91396593769E+02 0.  0.
         13    1    3    3    0    0  0.13693281519E+02 -0.50324204067E+02 -0.49448988871E+01  0.52387924780E+02  0.10566000000E+00 0. -1.
         22    1    1    0    0    0 -0.24855480197E+02  0.88877625316E+01  0.12216628992E+02  0.29086650590E+02  0.00000000000E+00 0. -1.
</event>
<event>
 5    1  0.1758488E-003  0.9118800E+02  0.7818608E-02  0.1130116E+00
         25   -1    0    0    0    0  0.00000000000E+00  0.00000000000E+00  0.99999998245E-14  0.12500000000E+03  0.12500000000E+03 0.  0.
        -13    1    3    3    0    0  0.22798244559E+02 -0.20899904869E+02 -0.14171139627E+02  0.34020557621E+02  0.10566000000E+00 0.  1.
         23    2    1    0    0    0 -0.15480190192E+02  0.25380518582E+02 -0.28815686721E+01  0.95131781943E+02  0.90321345682E+02 0.  0.
         13    1    3    3    0    0 -0.38278434751E+02  0.46280423451E+02  0.11289570955E+02  0.61111224322E+02  0.10566000000E+00 0. -1.
         22    1    1    0    0    0  0.15480190192E+02 -0.25380518582E+02  0.28815686721E+01  0.29868218057E+02  0.00000000000E+00 0. -1.
</event>
<event>
 5    1  0.1758488E-003  0.9118800E+02  0.7818608E-02  0.1130116E+00
         25   -1    0    0    0    0  0.00000000000E+00  0.00000000000E+00  0.99999998245E-14  0.12500000000E+03  0.12500000000E+03 0.  0.
        -13    1    3    3    0    0 -0.50959716406E+02  0.11645845931E+02 -0.74726183922E+01  0.52805015040E+02  0.10566000000E+00 0.  1.
         23    2    1    0    0    0 -0.20968544112E+02  0.55467617236E+01  0.21147400409E+02  0.94707113841E+02  0.89731702649E+02 0.  0.
         13    1    3    3    0    0  0.29991172295E+02 -0.60990842070E+01  0.28620018801E+02  0.41902098801E+02  0.10566000000E+00 0. -1.
         22    1    1    0    0    0  0.20968544112E+02 -0.55467617236E+01 -0.21147400409E+02  0.30292886159E+02  0.00000000000E+00 0.  1.
</event>
<event>
 5    1  0.1758488E-003  0.9118800E+02  0.7818608E-02  0.1130116E+00
         25   -1    0    0    0    0  0.00000000000E+00  0.00000000000E+00  0.99999998245E-14  0.12500000000E+03  0.12500000000E+03 0.  0.
        -13    1    3    3    0    0  0.28132307566E+02  0.22798174787E+02  0.34548001075E+02  0.50047567823E+02  0.10566000000E+00 0.  1.
         23    2    1    0    0    0  0.10826226153E+02 -0.17208728271E+02  0.21180275186E+02  0.95640988463E+02  0.91023332810E+02 0.  0.
         13    1    3    3    0    0 -0.17306081413E+02 -0.40006903059E+02 -0.13367725889E+02  0.45593420640E+02  0.10566000000E+00 0. -1.
         22    1    1    0    0    0 -0.10826226153E+02  0.17208728271E+02 -0.21180275186E+02  0.29359011537E+02  0.00000000000E+00 0.  1.
</event>
<event>
 5    1  0.1758488E-003  0.9118800E+02  0.7818608E-02  0.1130116E+00
         25   -1    0    0    0    0  0.00000000000E+00  0.00000000000E+00  0.99999998245E-14  0.12500000000E+03  0.12500000000E+03 0.  0.
        -13    1    3    3    0    0  0.49653744384E+02  0.12580608792E+02  0.21748088485E+02  0.55648509106E+02  0.10566000000E+00 0. -1.
         23    2    1    0    0    0  0.18434020165E+02 -0.13827032256E+02  0.16012239681E+02  0.96939498578E+02  0.92789410196E+02 0.  0.
         13    1    3    3    0    0 -0.31219724219E+02 -0.26407641048E+02 -0.57358488035E+01  0.41290989472E+02  0.10566000000E+00 0.  1.
         22    1    1    0    0    0 -0.18434020165E+02  0.13827032256E+02 -0.16012239681E+02  0.28060501422E+02  0.00000000000E+00 0. -1.
</event>
<event>
 5    1  0.1758488E-003  0.9118800E+02  0.7818608E-02  0.1130116E+00
         25   -1    0    0    0    0  0.00000000000E+00  0.00000000000E+00  0.99999998245E-14  0.12500000000E+03  0.12500000000E+03 0.  0.
        -13    1    3    3    0    0 -0.47787304701E+01  0.27007729126E+02  0.13620052252E+02  0.30623041731E+02  0.10566000000E+00 0. -1.
         23    2    1    0    0    0 -0.12694615472E+02 -0.27860108373E+02 -0.12532439938E+02  0.91918268616E+02  0.85758773044E+02 0.  0.
         13    1    3    3    0    0 -0.79158850023E+01 -0.54867837499E+02 -0.26152492190E+02  0.61295226886E+02  0.10566000000E+00 0.  1.
         22    1    1    0    0    0  0.12694615472E+02  0.27860108373E+02  0.12532439938E+02  0.33081731384E+02  0.00000000000E+00 0.  1.
</event>
<event>
 5    1  0.1758488E-003  0.9118800E+02  0.7818608E-02  0.1130116E+00
         25   -1    0    0    0    0  0.00000000000E+00  0.00000000000E+00  0.99999998245E-14  0.12500000000E+03  0.12500000000E+03 0.  0.
        -13    1    3    3    0    0  0.38720809716E+01  0.46523490933E+02 -0.28494815419E+02  0.54693636645E+02  0.10566000000E+00 0. -1.
         23    2    1    0    0    0 -0.14309704644E+02  0.25037158929E+02  0.18751036712E+01  0.96101159400E+02  0.91653095147E+02 0.  0.
         13    1    3    3    0    0 -0.18181785615E+02 -0.21486332003E+02  0.30369919091E+02  0.41407522755E+02  0.10566000000E+00 0.  1.
         22    1    1    0    0    0  0.14309704644E+02 -0.25037158929E+02 -0.18751036712E+01  0.28898840600E+02  0.00000000000E+00 0. -1.
</event>
<event>
 5    1  0.1758488E-003  0.9118800E+02  0.7818608E-02  0.1130116E+00
         25   -1    0    0    0    0  0.00000000000E+00  0.00000000000E+00  0.99999998245E-14  0.12500000000E+03  0.12500000000E+03 0.  0.
        -13    1    3    3    0    0  0.49149274702E+02 -0.46026441128E+00  0.32370807157E+02  0.58853575652E+02  0.10566000000E+00 0.  1.
         23    2    1    0    0    0  0.19594855925E+02  0.14444400972E+02  0.10755101165E+02  0.98386633072E+02  0.94718837979E+02 0.  0.
         13    1    3    3    0    0 -0.29554418777E+02  0.14904665383E+02 -0.21615705992E+02  0.39533057420E+02  0.10566000000E+00 0. -1.
         22    1    1    0    0    0 -0.19594855925E+02 -0.14444400972E+02 -0.10755101165E+02  0.26613366928E+02  0.00000000000E+00 0.  1.
</event>
<event>
 5    1  0.1758488E-003  0.9118800E+02  0.7818608E-02  0.1130116E+00
         25   -1    0    0    0    0  0.00000000000E+00  0.00000000000E+00  0.99999998245E-14  0.12500000000E+03  0.12500000000E+03 0.  0.
        -13    1    3    3    0    0  0.35385713573E+02  0.68258415868E+00  0.48681060103E+01  0.35725680768E+02  0.10566000000E+00 0. -1.
         23    2    1    0    0    0 -0.18455229706E+02 -0.21223869734E+02 -0.89727381945E+01  0.95477835772E+02  0.90799002985E+02 0.  0.
         13    1    3    3    0    0 -0.53840943279E+02 -0.21906453893E+02 -0.13840844205E+02  0.59752155004E+02  0.10566000000E+00 0.  1.
         22    1    1    0    0    0  0.18455229706E+02  0.21223869734E+02  0.89727381945E+01  0.29522164228E+02  0.00000000000E+00 0.  1.
</event>
<event>
 5    1  0.1758488E-003  0.9118800E+02  0.7818608E-02  0.1130116E+00
         25   -1    0    0    0    0  0.00000000000E+00  0.00000000000E+00  0.99999998245E-14  0.12500000000E+03  0.12500000000E+03 0.  0.
        -13    1    3    3    0    0  0.50717293504E+02  0.49524539407E+01  0.12635865648E+02  0.52501875444E+02  0.10566000000E+00 0. -1.
         23    2    1    0    0    0  0.17005281375E+02 -0.21554794051E+02  0.11014521199E+02  0.95417768534E+02  0.90716272705E+02 0.  0.
         13    1    3    3    0    0 -0.33712012129E+02 -0.26507247992E+02 -0.16213444490E+01  0.42915893090E+02  0.10566000000E+00 0.  1.
         22    1    1    0    0    0 -0.17005281375E+02  0.21554794051E+02 -0.11014521199E+02  0.29582231466E+02  0.00000000000E+00 0. -1.
</event>
<event>
 5    1  0.1758488E-003  0.9118800E+02  0.7818608E-02  0.1130116E+00
         25   -1    0    0    0    0  0.00000000000E+00  0.00000000000E+00  0.99999998245E-14  0.12500000000E+03  0.12500000000E+03 0.  0.
        -13    1    3    3    0    0 -0.17397925553E+02 -0.33929248701E+02 -0.36112285959E+02  0.52516569691E+02  0.10566000000E+00 0.  1.
         23    2    1    0    0    0  0.16293409798E+02 -0.10675726341E+02 -0.21511428999E+02  0.95979525963E+02  0.91487056411E+02 0.  0.
         13    1    3    3    0    0  0.33691335351E+02  0.23253522360E+02  0.14600856960E+02  0.43462956271E+02  0.10566000000E+00 0. -1.
         22    1    1    0    0    0 -0.16293409798E+02  0.10675726341E+02  0.21511428999E+02  0.29020474037E+02  0.00000000000E+00 0.  1.
</event>
<event>
 5    1  0.1758488E-003  0.9118800E+02  0.7818608E-02  0.1130116E+00
         25   -1    0    0    0    0  0.00000000000E+00  0.00000000000E+00  0.99999998245E-14  0.12500000000E+03  0.12500000000E+03 0.  0.
        -13    1    3    3    0    0  0.17522690681E+02  0.19772854846E+02 -0.46125708650E+02  0.53156397921E+02  0.10566000000E+00 0.  1.
         23    2    1    0    0    0  0.21539243558E+02 -0.10461859857E+02 -0.14949827100E+02  0.96770815544E+02  0.92561892192E+02 0.  0.
         13    1    3    3    0    0  0.40165528769E+01 -0.30234714703E+02  0.31175881550E+02  0.43614417623E+02  0.10566000000E+00 0. -1.
         22    1    1    0    0    0 -0.21539243558E+02  0.10461859857E+02  0.14949827100E+02  0.28229184456E+02  0.00000000000E+00 0.  1.
</event>
<event>
 5    1  0.1758488E-003  0.9118800E+02  0.7818608E-02  0.1130116E+00
         25   -1    0    0    0    0  0.00000000000E+00  0.00000000000E+00  0.99999998245E-14  0.12500000000E+03  0.12500000000E+03 0.  0.
        -13    1    3    3    0    0  0.16465109242E+02  0.97150457396E-01 -0.30584052046E+02  0.34734776006E+02  0.10566000000E+00 0. -1.
         23    2    1    0    0    0 -0.18097041776E+02  0.15524181754E+02  0.17132481013E+02  0.95639736959E+02  0.91021614136E+02 0.  0.
         13    1    3    3    0    0 -0.34562151018E+02  0.15427031297E+02  0.47716533059E+02  0.60904960954E+02  0.10566000000E+00 0.  1.
         22    1    1    0    0    0  0.18097041776E+02 -0.15524181754E+02 -0.17132481013E+02  0.29360263041E+02  0.00000000000E+00 0.  1.
</event>
<event>
 5    1  0.1758488E-003  0.9118800E+02  0.7818608E-02  0.1130116E+00
         25   -1    0    0    0    0  0.00000000000E+00  0.00000000000E+00  0.99999998245E-14  0.12500000000E+03  0.12500000000E+03 0.  0.
        -13    1    3    3    0    0 -0.50283681428E+02  0.34267732204E+02 -0.98911096273E+01  0.61648773727E+02  0.10566000000E+00 0. -1.
         23    2    1    0    0    0 -0.22155201708E+02  0.15211804183E+02 -0.11735828398E+02  0.95674556825E+02  0.91069419709E+02 0.  0.
         13    1    3    3    0    0  0.28128479719E+02 -0.19055928021E+02 -0.18447187709E+01  0.34025783098E+02  0.10566000000E+00 0.  1.
         22    1    1    0    0    0  0.22155201708E+02 -0.15211804183E+02  0.11735828398E+02  0.29325443175E+02  0.00000000000E+00 0. -1.
</event>
<event>
 5    1  0.1758488E-003  0.9118800E+02  0.7818608E-02  0.1130116E+00
         25   -1    0    0    0    0  0.00000000000E+00  0.00000000000E+00  0.99999998245E-14  0.12500000000E+03  0.12500000000E+03 0.  0.
        -13    1    3    3    0    0 -0.17806797470E+02 -0.16926039194E+02 -0.28079892726E+02  0.37310378964E+02  0.10566000000E+00 0. -1.
         23    2    1    0    0    0  0.30559520738E+02 -0.32329661286E+01 -0.13558397792E+01  0.94240047476E+02  0.89078683584E+02 0.  0.
         13    1    3    3    0    0  0.48366318208E+02  0.13693073065E+02  0.26724052946E+02  0.56929668512E+02  0.10566000000E+00 0.  1.
         22    1    1    0    0    0 -0.30559520738E+02  0.32329661286E+01  0.13558397792E+01  0.30759952524E+02  0.00000000000E+00 0.  1.
</event>
<event>
 5    1  0.1758488E-003  0.9118800E+02  0.7818608E-02  0.1130116E+00
         25   -1    0    0    0    0  0.00000000000E+00  0.00000000000E+00  0.99999998245E-14  0.12500000000E+03  0.12500000000E+03 0.  0.
        -13    1    3    3    0    0 -0.25391656776E+02  0.17707964018E+02 -0.28493179370E+02  0.42073514925E+02  0.10566000000E+00 0.  1.
         23    2    1    0    0    0 -0.15555970228E+02 -0.22628900693E+02  0.69621577945E+01  0.96671092547E+02  0.92427123383E+02 0.  0.
         13    1    3    3    0    0  0.98356865487E+01 -0.40336864712E+02  0.35455337165E+02  0.54597577622E+02  0.10566000000E+00 0. -1.
         22    1    1    0    0    0  0.15555970228E+02  0.22628900693E+02 -0.69621577945E+01  0.28328907453E+02  0.00000000000E+00 0. -1.
</event>
<event>
 5    1  0.1758488E-003  0.9118800E+02  0.7818608E-02  0.1130116E+00
         25   -1    0    0    0    0  0.00000000000E+00  0.00000000000E+00  0.99999998245E-14  0.12500000000E+03  0.12500000000E+03 0.  0.
        -13    1    3    3    0    0  0.80594114718E+01 -0.15321307148E+02  0.16632341706E+02  0.24007134786E+02  0.10566000000E+00 0. -1.
         23    2    1    0    0    0  0.39830845832E+01  0.21770000007E+02 -0.32485941611E+02  0.85691804093E+02  0.76144277679E+02 0.  0.
         13    1    3    3    0    0 -0.40763268886E+01  0.37091307156E+02 -0.49118283317E+02  0.61684669306E+02  0.10566000000E+00 0.  1.
         22    1    1    0    0    0 -0.39830845832E+01 -0.21770000007E+02  0.32485941611E+02  0.39308195907E+02  0.00000000000E+00 0.  1.
</event>
<event>
 5    1  0.1758488E-003  0.9118800E+02  0.7818608E-02  0.1130116E+00
         25   -1    0    0    0    0  0.00000000000E+00  0.00000000000E+00  0.99999998245E-14  0.12500000000E+03  0.12500000000E+03 0.  0.
        -13    1    3    3    0    0 -0.86154612433E+01 -0.26524569868E+01  0.14159872096E+02  0.16786150313E+02  0.10566000000E+00 0. -1.
         23    2    1    0    0    0  0.21266855588E+02 -0.22953409958E+02 -0.35166921614E+02  0.77927178212E+02  0.62103096162E+02 0.  0.
         13    1    3    3    0    0  0.29882316831E+02 -0.20300952971E+02 -0.49326793711E+02  0.61141027899E+02  0.10566000000E+00 0.  1.
         22    1    1    0    0    0 -0.21266855588E+02  0.22953409958E+02  0.35166921614E+02  0.47072821788E+02  0.00000000000E+00 0.  1.
</event>
<event>
 5    1  0.1758488E-003  0.9118800E+02  0.7818608E-02  0.1130116E+00
         25   -1    0    0    0    0  0.00000000000E+00  0.00000000000E+00  0.99999998245E-14  0.12500000000E+03  0.12500000000E+03 0.  0.
        -13    1    3    3    0    0 -0.37632959835E+02 -0.34937049287E+02 -0.42888465054E+01  0.51529044695E+02  0.10566000000E+00 0. -1.
         23    2    1    0    0    0  0.27859120528E+01 -0.15763457442E+02 -0.20392256575E+02  0.99075262302E+02  0.95623300380E+02 0.  0.
         13    1    3    3    0    0  0.40418871887E+02  0.19173591844E+02 -0.16103410069E+02  0.47546217607E+02  0.10566000000E+00 0.  1.
         22    1    1    0    0    0 -0.27859120528E+01  0.15763457442E+02  0.20392256575E+02  0.25924737698E+02  0.00000000000E+00 0. -1.
</event>
<event>
 5    1  0.1758488E-003  0.9118800E+02  0.7818608E-02  0.1130116E+00
         25   -1    0    0    0    0  0.00000000000E+00  0.00000000000E+00  0.99999998245E-14  0.12500000000E+03  0.12500000000E+03 0.  0.
        -13    1    3    3    0    0 -0.11398909648E+02 -0.33078139945E+02  0.16335061066E+02  0.38612742294E+02  0.10566000000E+00 0. -1.
         23    2    1    0    0    0  0.10871157874E+02 -0.16979919115E+01 -0.26567873687E+02  0.96243832622E+02  0.91847472232E+02 0.  0.
         13    1    3    3    0    0  0.22270067522E+02  0.31380148033E+02 -0.42902934752E+02  0.57631090328E+02  0.10566000000E+00 0.  1.
         22    1    1    0    0    0 -0.10871157874E+02  0.16979919115E+01  0.26567873687E+02  0.28756167378E+02  0.00000000000E+00 0.  1.
</event>
<event>
 5    1  0.1758488E-003  0.9118800E+02  0.7818608E-02  0.1130116E+00
         25   -1    0    0    0    0  0.00000000000E+00  0.00000000000E+00  0.99999998245E-14  0.12500000000E+03  0.12500000000E+03 0.  0.
        -13    1    3    3    0    0  0.14753924291E+02 -0.15056583897E+02 -0.31039142227E+02  0.37520907703E+02  0.10566000000E+00 0. -1.
         23    2    1    0    0    0 -0.19919374244E+02 -0.13524270749E+02  0.16083381337E+02  0.96045509419E+02  0.91577166121E+02 0.  0.
         13    1    3    3    0    0 -0.34673298535E+02  0.15323131480E+01  0.47122523564E+02  0.58524601716E+02  0.10566000000E+00 0.  1.
         22    1    1    0    0    0  0.19919374244E+02  0.13524270749E+02 -0.16083381337E+02  0.28954490581E+02  0.00000000000E+00 0.  1.
</event>
<event>
 5    1  0.1758488E-003  0.9118800E+02  0.7818608E-02  0.1130116E+00
         25   -1    0    0    0    0  0.00000000000E+00  0.00000000000E+00  0.99999998245E-14  0.12500000000E+03  0.12500000000E+03 0.  0.
        -13    1    3    3    0    0 -0.59013659437E+02 -0.14158077358E+02 -0.39103730794E+01  0.60814186965E+02  0.10566000000E+00 0. -1.
         23    2    1    0    0    0 -0.30232947774E+02  0.32639804005E+01 -0.11698475972E+01  0.94568877073E+02  0.89538925995E+02 0.  0.
         13    1    3    3    0    0  0.28780711662E+02  0.17422057758E+02  0.27405254822E+01  0.33754690108E+02  0.10566000000E+00 0.  1.
         22    1    1    0    0    0  0.30232947774E+02 -0.32639804005E+01  0.11698475972E+01  0.30431122927E+02  0.00000000000E+00 0. -1.
</event>
<event>
 5    1  0.1758488E-003  0.9118800E+02  0.7818608E-02  0.1130116E+00
         25   -1    0    0    0    0  0.00000000000E+00  0.00000000000E+00  0.99999998245E-14  0.12500000000E+03  0.12500000000E+03 0.  0.
        -13    1    3    3    0    0  0.47860228441E+02  0.45681709268E+01  0.11010888581E+02  0.49322616349E+02  0.10566000000E+00 0. -1.
         23    2    1    0    0    0  0.10889729351E+02  0.26854340544E+02 -0.54329692759E+01  0.95516801962E+02  0.90852630619E+02 0.  0.
         13    1    3    3    0    0 -0.36970499090E+02  0.22286169618E+02 -0.16443857857E+02  0.46194185613E+02  0.10566000000E+00 0.  1.
         22    1    1    0    0    0 -0.10889729351E+02 -0.26854340544E+02  0.54329692759E+01  0.29483198038E+02  0.00000000000E+00 0. -1.
</event>
<event>
 5    1  0.1758488E-003  0.9118800E+02  0.7818608E-02  0.1130116E+00
         25   -1    0    0    0    0  0.00000000000E+00  0.00000000000E+00  0.99999998245E-14  0.12500000000E+03  0.12500000000E+03 0.  0.
        -13    1    3    3    0    0  0.96862598052E+01 -0.24398638694E+02 -0.21160897204E+02  0.33718124705E+02  0.10566000000E+00 0. -1.
         23    2    1    0    0    0 -0.10389626736E+02  0.11755465518E+02  0.24868659958E+02  0.95596164172E+02  0.90961755937E+02 0.  0.
         13    1    3    3    0    0 -0.20075886541E+02  0.36154104212E+02  0.46029557162E+02  0.61878039467E+02  0.10566000000E+00 0.  1.
         22    1    1    0    0    0  0.10389626736E+02 -0.11755465518E+02 -0.24868659958E+02  0.29403835828E+02  0.00000000000E+00 0.  1.
</event>
<event>
 5    1  0.1758488E-003  0.9118800E+02  0.7818608E-02  0.1130116E+00
         25   -1    0    0    0    0  0.00000000000E+00  0.00000000000E+00  0.99999998245E-14  0.12500000000E+03  0.12500000000E+03 0.  0.
        -13    1    3    3    0    0 -0.60397531887E+01 -0.52320121482E+02  0.82789444637E+01  0.53314405333E+02  0.10566000000E+00 0.  1.
         23    2    1    0    0    0 -0.15969579780E+02 -0.12670296930E+02  0.20613063152E+02  0.96009272600E+02  0.91527690619E+02 0.  0.
         13    1    3    3    0    0 -0.99298265917E+01  0.39649824552E+02  0.12334118688E+02  0.42694867268E+02  0.10566000000E+00 0. -1.
         22    1    1    0    0    0  0.15969579780E+02  0.12670296930E+02 -0.20613063152E+02  0.28990727400E+02  0.00000000000E+00 0.  1.
</event>
<event>
 5    1  0.1758488E-003  0.9118800E+02  0.7818608E-02  0.1130116E+00
         25   -1    0    0    0    0  0.00000000000E+00  0.00000000000E+00  0.99999998245E-14  0.12500000000E+03  0.12500000000E+03 0.  0.
        -13    1    3    3    0    0 -0.57111145569E+01 -0.71279337072E+01  0.51530912088E+02  0.52334217612E+02  0.10566000000E+00 0.  1.
         23    2    1    0    0    0 -0.18680617330E+02 -0.20122158930E+02  0.13854258901E+02  0.94246020851E+02  0.89087065350E+02 0.  0.
         13    1    3    3    0    0 -0.12969502773E+02 -0.12994225223E+02 -0.37676653187E+02  0.41911803239E+02  0.10566000000E+00 0. -1.
         22    1    1    0    0    0  0.18680617330E+02  0.20122158930E+02 -0.13854258901E+02  0.30753979149E+02  0.00000000000E+00 0.  1.
</event>
<event>
 5    1  0.1758488E-003  0.9118800E+02  0.7818608E-02  0.1130116E+00
         25   -1    0    0    0    0  0.00000000000E+00  0.00000000000E+00  0.99999998245E-14  0.12500000000E+03  0.12500000000E+03 0.  0.
        -13    1    3    3    0    0  0.24483766089E+01  0.11336036081E+01 -0.45748779164E+02  0.45828392555E+02  0.10566000000E+00 0.  1.
         23    2    1    0    0    0  0.26803011511E+02  0.95397472665E+01 -0.21528620347E+01  0.96468560868E+02  0.92152809057E+02 0.  0.
         13    1    3    3    0    0  0.24354634902E+02  0.84061436584E+01  0.43595917129E+02  0.50640168313E+02  0.10566000000E+00 0. -1.
         22    1    1    0    0    0 -0.26803011511E+02 -0.95397472665E+01  0.21528620347E+01  0.28531439132E+02  0.00000000000E+00 0. -1.
</event>
<event>
 5    1  0.1758488E-003  0.9118800E+02  0.7818608E-02  0.1130116E+00
         25   -1    0    0    0    0  0.00000000000E+00  0.00000000000E+00  0.99999998245E-14  0.12500000000E+03  0.12500000000E+03 0.  0.
        -13    1    3    3    0    0  0.88486965861E+00  0.31992858897E+02  0.21729854997E+02  0.38684929584E+02  0.10566000000E+00 0.  1.
         23    2    1    0    0    0 -0.29557086416E+02 -0.76574756662E+01 -0.27455990811E+01  0.94343897747E+02  0.89224292863E+02 0.  0.
         13    1    3    3    0    0 -0.30441956075E+02 -0.39650334563E+02 -0.24475454078E+02  0.55658968163E+02  0.10566000000E+00 0. -1.
         22    1    1    0    0    0  0.29557086416E+02  0.76574756662E+01  0.27455990811E+01  0.30656102253E+02  0.00000000000E+00 0. -1.
</event>
<event>
 5    1  0.1758488E-003  0.9118800E+02  0.7818608E-02  0.1130116E+00
         25   -1    0    0    0    0  0.00000000000E+00  0.00000000000E+00  0.99999998245E-14  0.12500000000E+03  0.12500000000E+03 0.  0.
        -13    1    3    3    0    0 -0.49729601912E+02  0.84012746160E+01 -0.10538752941E+02  0.51523695511E+02  0.10566000000E+00 0. -1.
         23    2    1    0    0    0 -0.32771423583E+02  0.34606814277E+01  0.19746055262E+02  0.86583216975E+02  0.77593841532E+02 0.  0.
         13    1    3    3    0    0  0.16958178330E+02 -0.49405931883E+01  0.30284808203E+02  0.35059521464E+02  0.10566000000E+00 0.  1.
         22    1    1    0    0    0  0.32771423583E+02 -0.34606814277E+01 -0.19746055262E+02  0.38416783025E+02  0.00000000000E+00 0.  1.
</event>
<event>
 5    1  0.1758488E-003  0.9118800E+02  0.7818608E-02  0.1130116E+00
         25   -1    0    0    0    0  0.00000000000E+00  0.00000000000E+00  0.99999998245E-14  0.12500000000E+03  0.12500000000E+03 0.  0.
        -13    1    3    3    0    0 -0.30003599519E+02 -0.50907164666E+02 -0.17574118992E+02  0.61649138038E+02  0.10566000000E+00 0.  1.
         23    2    1    0    0    0 -0.12085421883E+02 -0.26019010664E+02 -0.15043898134E+01  0.96271799104E+02  0.91885525389E+02 0.  0.
         13    1    3    3    0    0  0.17918177636E+02  0.24888154002E+02  0.16069729178E+02  0.34622661067E+02  0.10566000000E+00 0. -1.
         22    1    1    0    0    0  0.12085421883E+02  0.26019010664E+02  0.15043898134E+01  0.28728200896E+02  0.00000000000E+00 0.  1.
</event>
<event>
 5    1  0.1758488E-003  0.9118800E+02  0.7818608E-02  0.1130116E+00
         25   -1    0    0    0    0  0.00000000000E+00  0.00000000000E+00  0.99999998245E-14  0.12500000000E+03  0.12500000000E+03 0.  0.
        -13    1    3    3    0    0  0.27939440091E+02  0.24522949137E+02 -0.15795308695E+02  0.40391710632E+02  0.10566000000E+00 0. -1.
         23    2    1    0    0    0 -0.10526355112E+01 -0.24230510692E+02 -0.13681861897E+02  0.97153653115E+02  0.93077458488E+02 0.  0.
         13    1    3    3    0    0 -0.28992075602E+02 -0.48753459828E+02  0.21134467982E+01  0.56761942482E+02  0.10566000000E+00 0.  1.
         22    1    1    0    0    0  0.10526355112E+01  0.24230510692E+02  0.13681861897E+02  0.27846346885E+02  0.00000000000E+00 0.  1.
</event>
<event>
 5    1  0.1758488E-003  0.9118800E+02  0.7818608E-02  0.1130116E+00
         25   -1    0    0    0    0  0.00000000000E+00  0.00000000000E+00  0.99999998245E-14  0.12500000000E+03  0.12500000000E+03 0.  0.
        -13    1    3    3    0    0  0.14693720314E+02  0.41368576237E+02 -0.49490556429E+01  0.44178827874E+02  0.10566000000E+00 0.  1.
         23    2    1    0    0    0  0.18902060356E+02 -0.70079416909E+01 -0.21543555807E+02  0.95495357496E+02  0.90823121363E+02 0.  0.
         13    1    3    3    0    0  0.42083400423E+01 -0.48376517928E+02 -0.16594500164E+02  0.51316529622E+02  0.10566000000E+00 0. -1.
         22    1    1    0    0    0 -0.18902060356E+02  0.70079416909E+01  0.21543555807E+02  0.29504642504E+02  0.00000000000E+00 0. -1.
</event>
<event>
 5    1  0.1758488E-003  0.9118800E+02  0.7818608E-02  0.1130116E+00
         25   -1    0    0    0    0  0.00000000000E+00  0.00000000000E+00  0.99999998245E-14  0.12500000000E+03  0.12500000000E+03 0.  0.
        -13    1    3    3    0    0  0.14316779104E+02  0.13508855957E+02 -0.47956289825E+02  0.51838945311E+02  0.10566000000E+00 0.  1.
         23    2    1    0    0    0 -0.13928799037E+02  0.20846273018E+02 -0.15327756399E+02  0.95614312028E+02  0.90986691373E+02 0.  0.
         13    1    3    3    0    0 -0.28245578141E+02  0.73374170612E+01  0.32628533426E+02  0.43775366717E+02  0.10566000000E+00 0. -1.
         22    1    1    0    0    0  0.13928799037E+02 -0.20846273018E+02  0.15327756399E+02  0.29385687972E+02  0.00000000000E+00 0.  1.
</event>
<event>
 5    1  0.1758488E-003  0.9118800E+02  0.7818608E-02  0.1130116E+00
         25   -1    0    0    0    0  0.00000000000E+00  0.00000000000E+00  0.99999998245E-14  0.12500000000E+03  0.12500000000E+03 0.  0.
        -13    1    3    3    0    0  0.53586608829E+01 -0.51749712771E+01 -0.42870827759E+02  0.43513384273E+02  0.10566000000E+00 0. -1.
         23    2    1    0    0    0  0.26939428057E+02  0.65860823022E+01  0.45227754971E+01  0.96900804952E+02  0.92737269951E+02 0.  0.
         13    1    3    3    0    0  0.21580767174E+02  0.11761053579E+02  0.47393603256E+02  0.53387420679E+02  0.10566000000E+00 0.  1.
         22    1    1    0    0    0 -0.26939428057E+02 -0.65860823022E+01 -0.45227754971E+01  0.28099195048E+02  0.00000000000E+00 0. -1.
</event>
<event>
 5    1  0.1758488E-003  0.9118800E+02  0.7818608E-02  0.1130116E+00
         25   -1    0    0    0    0  0.00000000000E+00  0.00000000000E+00  0.99999998245E-14  0.12500000000E+03  0.12500000000E+03 0.  0.
        -13    1    3    3    0    0 -0.19768268806E+02  0.17457820919E+02  0.33730384137E+02  0.42817168763E+02  0.10566000000E+00 0.  1.
         23    2    1    0    0    0 -0.23247112218E+02 -0.53640491807E+01 -0.15055035706E+02  0.96789091646E+02  0.92586569822E+02 0.  0.
         13    1    3    3    0    0 -0.34788434115E+01 -0.22821870099E+02 -0.48785419843E+02  0.53971922882E+02  0.10566000000E+00 0. -1.
         22    1    1    0    0    0  0.23247112218E+02  0.53640491807E+01  0.15055035706E+02  0.28210908354E+02  0.00000000000E+00 0. -1.
</event>
<event>
 5    1  0.1758488E-003  0.9118800E+02  0.7818608E-02  0.1130116E+00
         25   -1    0    0    0    0  0.00000000000E+00  0.00000000000E+00  0.99999998245E-14  0.12500000000E+03  0.12500000000E+03 0.  0.
        -13    1    3    3    0    0 -0.10015556766E+02 -0.34310454311E+02 -0.26801991991E+02  0.44675234650E+02  0.10566000000E+00 0.  1.
         23    2    1    0    0    0  0.27504749136E+02 -0.58007374089E+01 -0.56493040039E+01  0.96328159891E+02  0.91962165985E+02 0.  0.
         13    1    3    3    0    0  0.37520305902E+02  0.28509716902E+02  0.21152687987E+02  0.51652925240E+02  0.10566000000E+00 0. -1.
         22    1    1    0    0    0 -0.27504749136E+02  0.58007374089E+01  0.56493040039E+01  0.28671840109E+02  0.00000000000E+00 0.  1.
</event>
<event>
 5    1  0.1758488E-003  0.9118800E+02  0.7818608E-02  0.1130116E+00
         25   -1    0    0    0    0  0.00000000000E+00  0.00000000000E+00  0.99999998245E-14  0.12500000000E+03  0.12500000000E+03 0.  0.
        -13    1    3    3    0    0  0.40794960548E+02  0.25572435344E+02  0.16776566214E+02  0.50986690357E+02  0.10566000000E+00 0. -1.
         23    2    1    0    0    0  0.13850994481E+02  0.23657541624E+02 -0.15841868209E+02  0.93337812581E+02  0.87803491646E+02 0.  0.
         13    1    3    3    0    0 -0.26943966067E+02 -0.19148937201E+01 -0.32618434423E+02  0.42351122224E+02  0.10566000000E+00 0.  1.
         22    1    1    0    0    0 -0.13850994481E+02 -0.23657541624E+02  0.15841868209E+02  0.31662187419E+02  0.00000000000E+00 0. -1.
</event>
<event>
 5    1  0.1758488E-003  0.9118800E+02  0.7818608E-02  0.1130116E+00
         25   -1    0    0    0    0  0.00000000000E+00  0.00000000000E+00  0.99999998245E-14  0.12500000000E+03  0.12500000000E+03 0.  0.
        -13    1    3    3    0    0  0.11045645515E+02  0.37982449907E+02 -0.13474056577E+02  0.41787966575E+02  0.10566000000E+00 0.  1.
         23    2    1    0    0    0 -0.17053631374E+02  0.13824808837E+02  0.22592255752E+02  0.93498226997E+02  0.88031566777E+02 0.  0.
         13    1    3    3    0    0 -0.28099276890E+02 -0.24157641070E+02  0.36066312329E+02  0.51710260422E+02  0.10566000000E+00 0. -1.
         22    1    1    0    0    0  0.17053631374E+02 -0.13824808837E+02 -0.22592255752E+02  0.31501773003E+02  0.00000000000E+00 0. -1.
</event>
<event>
 5    1  0.1758488E-003  0.9118800E+02  0.7818608E-02  0.1130116E+00
         25   -1    0    0    0    0  0.00000000000E+00  0.00000000000E+00  0.99999998245E-14  0.12500000000E+03  0.12500000000E+03 0.  0.
        -13    1    3    3    0    0 -0.15314419671E+02  0.51006600362E+01 -0.44503602351E+02  0.47340574235E+02  0.10566000000E+00 0.  1.
         23    2    1    0    0    0  0.13848492952E+02  0.23115058678E+02 -0.92535236500E+01  0.96509398134E+02  0.92208185827E+02 0.  0.
         13    1    3    3    0    0  0.29162912623E+02  0.18014398642E+02  0.35250078701E+02  0.49168823899E+02  0.10566000000E+00 0. -1.
         22    1    1    0    0    0 -0.13848492952E+02 -0.23115058678E+02  0.92535236500E+01  0.28490601866E+02  0.00000000000E+00 0. -1.
</event>
<event>
 5    1  0.1758488E-003  0.9118800E+02  0.7818608E-02  0.1130116E+00
         25   -1    0    0    0    0  0.00000000000E+00  0.00000000000E+00  0.99999998245E-14  0.12500000000E+03  0.12500000000E+03 0.  0.
        -13    1    3    3    0    0 -0.32348982586E+02  0.38620794462E+02 -0.25719214293E+02  0.56564225329E+02  0.10566000000E+00 0.  1.
         23    2    1    0    0    0  0.22084753355E+01  0.22180057766E+02 -0.19597970860E+02  0.95319825006E+02  0.90581213569E+02 0.  0.
         13    1    3    3    0    0  0.34557457922E+02 -0.16440736696E+02  0.61212434328E+01  0.38755599677E+02  0.10566000000E+00 0. -1.
         22    1    1    0    0    0 -0.22084753355E+01 -0.22180057766E+02  0.19597970860E+02  0.29680174994E+02  0.00000000000E+00 0.  1.
</event>
<event>
 5    1  0.1758488E-003  0.9118800E+02  0.7818608E-02  0.1130116E+00
         25   -1    0    0    0    0  0.00000000000E+00  0.00000000000E+00  0.99999998245E-14  0.12500000000E+03  0.12500000000E+03 0.  0.
        -13    1    3    3    0    0  0.12710784944E+02 -0.11266044586E+02  0.43793347423E+02  0.46971866655E+02  0.10566000000E+00 0. -1.
         23    2    1    0    0    0 -0.11660514833E+02  0.21053222958E+02  0.17568122955E+02  0.95203276233E+02  0.90420235889E+02 0.  0.
         13    1    3    3    0    0 -0.24371299777E+02  0.32319267544E+02 -0.26225224468E+02  0.48231409578E+02  0.10566000000E+00 0.  1.
         22    1    1    0    0    0  0.11660514833E+02 -0.21053222958E+02 -0.17568122955E+02  0.29796723767E+02  0.00000000000E+00 0.  1.
</event>
<event>
 5    1  0.1758488E-003  0.9118800E+02  0.7818608E-02  0.1130116E+00
         25   -1    0    0    0    0  0.00000000000E+00  0.00000000000E+00  0.99999998245E-14  0.12500000000E+03  0.12500000000E+03 0.  0.
        -13    1    3    3    0    0  0.36494986662E+02  0.55527175572E+01  0.98192658442E+01  0.38198767906E+02  0.10566000000E+00 0.  1.
         23    2    1    0    0    0 -0.19776156717E+02 -0.63964083804E+01  0.19460246965E+02  0.96527001798E+02  0.92232046759E+02 0.  0.
         13    1    3    3    0    0 -0.56271143380E+02 -0.11949125938E+02  0.96409811211E+01  0.58328233892E+02  0.10566000000E+00 0. -1.
         22    1    1    0    0    0  0.19776156717E+02  0.63964083804E+01 -0.19460246965E+02  0.28472998202E+02  0.00000000000E+00 0. -1.
</event>
<event>
 5    1  0.1758488E-003  0.9118800E+02  0.7818608E-02  0.1130116E+00
         25   -1    0    0    0    0  0.00000000000E+00  0.00000000000E+00  0.99999998245E-14  0.12500000000E+03  0.12500000000E+03 0.  0.
        -13    1    3    3    0    0 -0.16515219941E+02  0.23813314345E+02  0.16584516558E+02  0.33389875461E+02  0.10566000000E+00 0.  1.
         23    2    1    0    0    0  0.15771282491E+02 -0.18560269410E+02 -0.16019803676E+02  0.95847794907E+02  0.91306893095E+02 0.  0.
         13    1    3    3    0    0  0.32286502432E+02 -0.42373583755E+02 -0.32604320234E+02  0.62457919446E+02  0.10566000000E+00 0. -1.
         22    1    1    0    0    0 -0.15771282491E+02  0.18560269410E+02  0.16019803676E+02  0.29152205093E+02  0.00000000000E+00 0. -1.
</event>
<event>
 5    1  0.1758488E-003  0.9118800E+02  0.7818608E-02  0.1130116E+00
         25   -1    0    0    0    0  0.00000000000E+00  0.00000000000E+00  0.99999998245E-14  0.12500000000E+03  0.12500000000E+03 0.  0.
        -13    1    3    3    0    0 -0.13643755722E+02 -0.45961768749E+02 -0.48179013947E+01  0.48185678315E+02  0.10566000000E+00 0.  1.
         23    2    1    0    0    0 -0.14406659873E+02 -0.84838652265E+01  0.24196990081E+02  0.95588741154E+02  0.90951554624E+02 0.  0.
         13    1    3    3    0    0 -0.76290415154E+00  0.37477903523E+02  0.29014891476E+02  0.47403062840E+02  0.10566000000E+00 0. -1.
         22    1    1    0    0    0  0.14406659873E+02  0.84838652265E+01 -0.24196990081E+02  0.29411258846E+02  0.00000000000E+00 0.  1.
</event>
<event>
 5    1  0.1758488E-003  0.9118800E+02  0.7818608E-02  0.1130116E+00
         25   -1    0    0    0    0  0.00000000000E+00  0.00000000000E+00  0.99999998245E-14  0.12500000000E+03  0.12500000000E+03 0.  0.
        -13    1    3    3    0    0  0.15287199962E+01 -0.24040726357E+02 -0.30140712737E+02  0.38584546608E+02  0.10566000000E+00 0. -1.
         23    2    1    0    0    0 -0.16289728907E+02  0.23244059459E+02 -0.17093031505E+01  0.96564752766E+02  0.92283195607E+02 0.  0.
         13    1    3    3    0    0 -0.17818448903E+02  0.47284785816E+02  0.28431409586E+02  0.57980206158E+02  0.10566000000E+00 0.  1.
         22    1    1    0    0    0  0.16289728907E+02 -0.23244059459E+02  0.17093031505E+01  0.28435247234E+02  0.00000000000E+00 0.  1.
</event>
<event>
 5    1  0.1758488E-003  0.9118800E+02  0.7818608E-02  0.1130116E+00
         25   -1    0    0    0    0  0.00000000000E+00  0.00000000000E+00  0.99999998245E-14  0.12500000000E+03  0.12500000000E+03 0.  0.
        -13    1    3    3    0    0  0.53214310619E+01  0.18253686794E+02 -0.31802034471E+02  0.37052601402E+02  0.10566000000E+00 0. -1.
         23    2    1    0    0    0 -0.32483042419E+02  0.28077193401E+02 -0.16785015841E+02  0.78899961054E+02  0.64031166344E+02 0.  0.
         13    1    3    3    0    0 -0.37804473481E+02  0.98235066069E+01  0.15017018630E+02  0.41847359652E+02  0.10566000000E+00 0.  1.
         22    1    1    0    0    0  0.32483042419E+02 -0.28077193401E+02  0.16785015841E+02  0.46100038946E+02  0.00000000000E+00 0.  1.
</event>
<event>
 5    1  0.1758488E-003  0.9118800E+02  0.7818608E-02  0.1130116E+00
         25   -1    0    0    0    0  0.00000000000E+00  0.00000000000E+00  0.99999998245E-14  0.12500000000E+03  0.12500000000E+03 0.  0.
        -13    1    3    3    0    0 -0.21211137411E+02 -0.85913973288E+01 -0.34201485606E+02  0.41151880152E+02  0.10566000000E+00 0.  1.
         23    2    1    0    0    0  0.26966964343E+02  0.25860037655E+01 -0.11556786686E+02  0.95547259892E+02  0.90894526640E+02 0.  0.
         13    1    3    3    0    0  0.48178101754E+02  0.11177401094E+02  0.22644698921E+02  0.54395379740E+02  0.10566000000E+00 0. -1.
         22    1    1    0    0    0 -0.26966964343E+02 -0.25860037655E+01  0.11556786686E+02  0.29452740108E+02  0.00000000000E+00 0. -1.
</event>
<event>
 5    1  0.1758488E-003  0.9118800E+02  0.7818608E-02  0.1130116E+00
         25   -1    0    0    0    0  0.00000000000E+00  0.00000000000E+00  0.99999998245E-14  0.12500000000E+03  0.12500000000E+03 0.  0.
        -13    1    3    3    0    0 -0.16559855121E+02 -0.32341497222E+02  0.51705000234E+01  0.36700769457E+02  0.10566000000E+00 0.  1.
         23    2    1    0    0    0 -0.97880420034E+01  0.24880070455E+02 -0.10277334976E+02  0.96356548980E+02  0.92000745894E+02 0.  0.
         13    1    3    3    0    0  0.67718131178E+01  0.57221567677E+02 -0.15447835000E+02  0.59655779523E+02  0.10566000000E+00 0. -1.
         22    1    1    0    0    0  0.97880420034E+01 -0.24880070455E+02  0.10277334976E+02  0.28643451020E+02  0.00000000000E+00 0. -1.
</event>
<event>
 5    1  0.1758488E-003  0.9118800E+02  0.7818608E-02  0.1130116E+00
         25   -1    0    0    0    0  0.00000000000E+00  0.00000000000E+00  0.99999998245E-14  0.12500000000E+03  0.12500000000E+03 0.  0.
        -13    1    3    3    0    0  0.11861794362E+02  0.27917453764E+02 -0.53280953160E+02  0.61310337822E+02  0.10566000000E+00 0.  1.
         23    2    1    0    0    0  0.13439634150E+02  0.11746469985E+02 -0.21082123214E+02  0.97376473027E+02  0.93376218904E+02 0.  0.
         13    1    3    3    0    0  0.15778397874E+01 -0.16170983778E+02  0.32198829946E+02  0.36066135205E+02  0.10566000000E+00 0. -1.
         22    1    1    0    0    0 -0.13439634150E+02 -0.11746469985E+02  0.21082123214E+02  0.27623526973E+02  0.00000000000E+00 0.  1.
</event>
<event>
 5    1  0.1758488E-003  0.9118800E+02  0.7818608E-02  0.1130116E+00
         25   -1    0    0    0    0  0.00000000000E+00  0.00000000000E+00  0.99999998245E-14  0.12500000000E+03  0.12500000000E+03 0.  0.
        -13    1    3    3    0    0 -0.26616025924E+02 -0.16369648954E+02  0.20189715170E+02  0.37202338710E+02  0.10566000000E+00 0.  1.
         23    2    1    0    0    0 -0.21329622011E+01  0.88382242996E+01 -0.27269218741E+02  0.96255017355E+02  0.91862692856E+02 0.  0.
         13    1    3    3    0    0  0.24483063723E+02  0.25207873253E+02 -0.47458933910E+02  0.59052678645E+02  0.10566000000E+00 0. -1.
         22    1    1    0    0    0  0.21329622011E+01 -0.88382242996E+01  0.27269218741E+02  0.28744982645E+02  0.00000000000E+00 0. -1.
</event>
<event>
 5    1  0.1758488E-003  0.9118800E+02  0.7818608E-02  0.1130116E+00
         25   -1    0    0    0    0  0.00000000000E+00  0.00000000000E+00  0.99999998245E-14  0.12500000000E+03  0.12500000000E+03 0.  0.
        -13    1    3    3    0    0  0.44623946720E+02  0.20168549150E+02 -0.24905191588E+02  0.54939482413E+02  0.10566000000E+00 0.  1.
         23    2    1    0    0    0  0.16593510686E+02 -0.30389928099E+01 -0.28887273508E+02  0.91547725863E+02  0.85216967007E+02 0.  0.
         13    1    3    3    0    0 -0.28030436034E+02 -0.23207541960E+02 -0.39820819198E+01  0.36608243451E+02  0.10566000000E+00 0. -1.
         22    1    1    0    0    0 -0.16593510686E+02  0.30389928099E+01  0.28887273508E+02  0.33452274137E+02  0.00000000000E+00 0.  1.
</event>
<event>
 5    1  0.1758488E-003  0.9118800E+02  0.7818608E-02  0.1130116E+00
         25   -1    0    0    0    0  0.00000000000E+00  0.00000000000E+00  0.99999998245E-14  0.12500000000E+03  0.12500000000E+03 0.  0.
        -13    1    3    3    0    0 -0.33922230267E+02  0.38089661046E+02 -0.18542940875E+02  0.54271464005E+02  0.10566000000E+00 0. -1.
         23    2    1    0    0    0 -0.10439392028E+01  0.14256934425E+02 -0.25782671090E+02  0.95519563830E+02  0.90856430468E+02 0.  0.
         13    1    3    3    0    0  0.32878291064E+02 -0.23832726622E+02 -0.72397302149E+01  0.41248099825E+02  0.10566000000E+00 0.  1.
         22    1    1    0    0    0  0.10439392028E+01 -0.14256934425E+02  0.25782671090E+02  0.29480436170E+02  0.00000000000E+00 0.  1.
</event>
<event>
 5    1  0.1758488E-003  0.9118800E+02  0.7818608E-02  0.1130116E+00
         25   -1    0    0    0    0  0.00000000000E+00  0.00000000000E+00  0.99999998245E-14  0.12500000000E+03  0.12500000000E+03 0.  0.
        -13    1    3    3    0    0  0.45981725182E+01  0.47361779600E+02 -0.60663176363E+01  0.47969706389E+02  0.10566000000E+00 0.  1.
         23    2    1    0    0    0 -0.25648230569E+02  0.10931726556E+02 -0.97525531128E+01  0.95462791787E+02  0.90778290062E+02 0.  0.
         13    1    3    3    0    0 -0.30246403087E+02 -0.36430053044E+02 -0.36862354764E+01  0.47493085397E+02  0.10566000000E+00 0. -1.
         22    1    1    0    0    0  0.25648230569E+02 -0.10931726556E+02  0.97525531128E+01  0.29537208213E+02  0.00000000000E+00 0. -1.
</event>
<event>
 5    1  0.1758488E-003  0.9118800E+02  0.7818608E-02  0.1130116E+00
         25   -1    0    0    0    0  0.00000000000E+00  0.00000000000E+00  0.99999998245E-14  0.12500000000E+03  0.12500000000E+03 0.  0.
        -13    1    3    3    0    0 -0.82298962698E+00  0.47520215032E+02  0.20096168552E+02  0.51601504853E+02  0.10566000000E+00 0.  1.
         23    2    1    0    0    0  0.18356847984E+02  0.14714766610E+02 -0.93577845961E+01  0.99680711762E+02  0.96411503155E+02 0.  0.
         13    1    3    3    0    0  0.19179837611E+02 -0.32805448421E+02 -0.29453953148E+02  0.48079206909E+02  0.10566000000E+00 0. -1.
         22    1    1    0    0    0 -0.18356847984E+02 -0.14714766610E+02  0.93577845961E+01  0.25319288238E+02  0.00000000000E+00 0. -1.
</event>
<event>
 5    1  0.1758488E-003  0.9118800E+02  0.7818608E-02  0.1130116E+00
         25   -1    0    0    0    0  0.00000000000E+00  0.00000000000E+00  0.99999998245E-14  0.12500000000E+03  0.12500000000E+03 0.  0.
        -13    1    3    3    0    0  0.13261092264E+02 -0.18266199296E+02  0.55241450801E+02  0.59675285131E+02  0.10566000000E+00 0. -1.
         23    2    1    0    0    0  0.52724209757E+01 -0.20488198196E+02  0.19972848257E+02  0.95905681727E+02  0.91386106339E+02 0.  0.
         13    1    3    3    0    0 -0.79886712879E+01 -0.22219988998E+01 -0.35268602544E+02  0.36230396596E+02  0.10566000000E+00 0.  1.
         22    1    1    0    0    0 -0.52724209757E+01  0.20488198196E+02 -0.19972848257E+02  0.29094318273E+02  0.00000000000E+00 0. -1.
</event>
<event>
 5    1  0.1758488E-003  0.9118800E+02  0.7818608E-02  0.1130116E+00
         25   -1    0    0    0    0  0.00000000000E+00  0.00000000000E+00  0.99999998245E-14  0.12500000000E+03  0.12500000000E+03 0.  0.
        -13    1    3    3    0    0  0.32255477428E+02  0.59039652670E+01 -0.31814104121E+02  0.45688302825E+02  0.10566000000E+00 0.  1.
         23    2    1    0    0    0  0.90240166739E+01 -0.27929169239E+02 -0.37427011575E+01  0.95411502517E+02  0.90707638208E+02 0.  0.
         13    1    3    3    0    0 -0.23231460754E+02 -0.33833134506E+02  0.28071402964E+02  0.49723199692E+02  0.10566000000E+00 0. -1.
         22    1    1    0    0    0 -0.90240166739E+01  0.27929169239E+02  0.37427011575E+01  0.29588497483E+02  0.00000000000E+00 0. -1.
</event>
<event>
 5    1  0.1758488E-003  0.9118800E+02  0.7818608E-02  0.1130116E+00
         25   -1    0    0    0    0  0.00000000000E+00  0.00000000000E+00  0.99999998245E-14  0.12500000000E+03  0.12500000000E+03 0.  0.
        -13    1    3    3    0    0  0.34623802401E+02 -0.14689386571E+02  0.40936049566E+02  0.55590980281E+02  0.10566000000E+00 0.  1.
         23    2    1    0    0    0 -0.31534114002E+01 -0.72749946417E+01  0.27521213807E+02  0.96359351266E+02  0.92004553237E+02 0.  0.
         13    1    3    3    0    0 -0.37777213801E+02  0.74143919291E+01 -0.13414835758E+02  0.40768370984E+02  0.10566000000E+00 0. -1.
         22    1    1    0    0    0  0.31534114002E+01  0.72749946417E+01 -0.27521213807E+02  0.28640648734E+02  0.00000000000E+00 0.  1.
</event>
<event>
 5    1  0.1758488E-003  0.9118800E+02  0.7818608E-02  0.1130116E+00
         25   -1    0    0    0    0  0.00000000000E+00  0.00000000000E+00  0.99999998245E-14  0.12500000000E+03  0.12500000000E+03 0.  0.
        -13    1    3    3    0    0 -0.10696075922E+02 -0.40960733822E+02 -0.29178275207E+02  0.51415665546E+02  0.10566000000E+00 0. -1.
         23    2    1    0    0    0  0.21677238879E+01 -0.21403459993E+02  0.13150458313E+02  0.99786081614E+02  0.96548021230E+02 0.  0.
         13    1    3    3    0    0  0.12863799810E+02  0.19557273829E+02  0.42328733520E+02  0.48370416069E+02  0.10566000000E+00 0.  1.
         22    1    1    0    0    0 -0.21677238879E+01  0.21403459993E+02 -0.13150458313E+02  0.25213918386E+02  0.00000000000E+00 0. -1.
</event>
<event>
 5    1  0.1758488E-003  0.9118800E+02  0.7818608E-02  0.1130116E+00
         25   -1    0    0    0    0  0.00000000000E+00  0.00000000000E+00  0.99999998245E-14  0.12500000000E+03  0.12500000000E+03 0.  0.
        -13    1    3    3    0    0  0.16681629766E+02 -0.54585283501E+02  0.13084835859E+02  0.58558125312E+02  0.10566000000E+00 0.  1.
         23    2    1    0    0    0  0.28732908682E+01 -0.20812304051E+02  0.20337902992E+02  0.95758965503E+02  0.91185203711E+02 0.  0.
         13    1    3    3    0    0 -0.13808338898E+02  0.33772979450E+02  0.72530671333E+01  0.37200840191E+02  0.10566000000E+00 0. -1.
         22    1    1    0    0    0 -0.28732908682E+01  0.20812304051E+02 -0.20337902992E+02  0.29241034497E+02  0.00000000000E+00 0.  1.
</event>
<event>
 5    1  0.1758488E-003  0.9118800E+02  0.7818608E-02  0.1130116E+00
         25   -1    0    0    0    0  0.00000000000E+00  0.00000000000E+00  0.99999998245E-14  0.12500000000E+03  0.12500000000E+03 0.  0.
        -13    1    3    3    0    0 -0.11265158733E+02  0.38658655437E+02  0.14233684888E+02  0.42708364415E+02  0.10566000000E+00 0. -1.
         23    2    1    0    0    0  0.20025934699E+02  0.10721597818E+02 -0.18329289816E+02  0.95811756040E+02  0.91257542209E+02 0.  0.
         13    1    3    3    0    0  0.31291093431E+02 -0.27937057618E+02 -0.32562974704E+02  0.53103391625E+02  0.10566000000E+00 0.  1.
         22    1    1    0    0    0 -0.20025934699E+02 -0.10721597818E+02  0.18329289816E+02  0.29188243960E+02  0.00000000000E+00 0.  1.
</event>
<event>
 5    1  0.1758488E-003  0.9118800E+02  0.7818608E-02  0.1130116E+00
         25   -1    0    0    0    0  0.00000000000E+00  0.00000000000E+00  0.99999998245E-14  0.12500000000E+03  0.12500000000E+03 0.  0.
        -13    1    3    3    0    0  0.24064676030E+01 -0.29711847504E+02 -0.52570099707E+02  0.60433529730E+02  0.10566000000E+00 0. -1.
         23    2    1    0    0    0 -0.10090271054E+02 -0.14871830593E+02 -0.22780410086E+02  0.95983935504E+02  0.91493081028E+02 0.  0.
         13    1    3    3    0    0 -0.12496738657E+02  0.14840016910E+02  0.29789689620E+02  0.35550405774E+02  0.10566000000E+00 0.  1.
         22    1    1    0    0    0  0.10090271054E+02  0.14871830593E+02  0.22780410086E+02  0.29016064496E+02  0.00000000000E+00 0. -1.
</event>
<event>
 5    1  0.1758488E-003  0.9118800E+02  0.7818608E-02  0.1130116E+00
         25   -1    0    0    0    0  0.00000000000E+00  0.00000000000E+00  0.99999998245E-14  0.12500000000E+03  0.12500000000E+03 0.  0.
        -13    1    3    3    0    0  0.58977401661E+01 -0.34153600033E+02  0.19912934571E+01  0.34716395953E+02  0.10566000000E+00 0. -1.
         23    2    1    0    0    0 -0.18990562322E+02  0.21456038805E+02 -0.45354407295E+01  0.95990117527E+02  0.91501526664E+02 0.  0.
         13    1    3    3    0    0 -0.24888302488E+02  0.55609638838E+02 -0.65267341866E+01  0.61273721574E+02  0.10566000000E+00 0.  1.
         22    1    1    0    0    0  0.18990562322E+02 -0.21456038805E+02  0.45354407295E+01  0.29009882473E+02  0.00000000000E+00 0.  1.
</event>
<event>
 5    1  0.1758488E-003  0.9118800E+02  0.7818608E-02  0.1130116E+00
         25   -1    0    0    0    0  0.00000000000E+00  0.00000000000E+00  0.99999998245E-14  0.12500000000E+03  0.12500000000E+03 0.  0.
        -13    1    3    3    0    0  0.38006157919E+02 -0.56009500264E+01 -0.25425461529E+02  0.46068470117E+02  0.10566000000E+00 0. -1.
         23    2    1    0    0    0  0.80461988804E+01  0.28187552612E+02 -0.68576483753E+01  0.94895070505E+02  0.89993153219E+02 0.  0.
         13    1    3    3    0    0 -0.29959959038E+02  0.33788502638E+02  0.18567813154E+02  0.48826600388E+02  0.10566000000E+00 0.  1.
         22    1    1    0    0    0 -0.80461988804E+01 -0.28187552612E+02  0.68576483753E+01  0.30104929495E+02  0.00000000000E+00 0.  1.
</event>
<event>
 5    1  0.1758488E-003  0.9118800E+02  0.7818608E-02  0.1130116E+00
         25   -1    0    0    0    0  0.00000000000E+00  0.00000000000E+00  0.99999998245E-14  0.12500000000E+03  0.12500000000E+03 0.  0.
        -13    1    3    3    0    0  0.25223072407E+02 -0.32617872553E+02 -0.16043418552E+02  0.44243998852E+02  0.10566000000E+00 0. -1.
         23    2    1    0    0    0 -0.16202385606E+02 -0.59263889110E+01 -0.25291927685E+02  0.94384301561E+02  0.89280879198E+02 0.  0.
         13    1    3    3    0    0 -0.41425458013E+02  0.26691483642E+02 -0.92485091334E+01  0.50140302710E+02  0.10566000000E+00 0.  1.
         22    1    1    0    0    0  0.16202385606E+02  0.59263889110E+01  0.25291927685E+02  0.30615698439E+02  0.00000000000E+00 0.  1.
</event>
<event>
 5    1  0.1758488E-003  0.9118800E+02  0.7818608E-02  0.1130116E+00
         25   -1    0    0    0    0  0.00000000000E+00  0.00000000000E+00  0.99999998245E-14  0.12500000000E+03  0.12500000000E+03 0.  0.
        -13    1    3    3    0    0 -0.41960243480E+02  0.19709084293E+02  0.12296429217E+02  0.47961686501E+02  0.10566000000E+00 0.  1.
         23    2    1    0    0    0  0.77411434510E+01  0.19421004656E+02  0.17229691143E+02  0.97908248845E+02  0.94085398502E+02 0.  0.
         13    1    3    3    0    0  0.49701386931E+02 -0.28807963714E+00  0.49332619255E+01  0.49946562344E+02  0.10566000000E+00 0. -1.
         22    1    1    0    0    0 -0.77411434510E+01 -0.19421004656E+02 -0.17229691143E+02  0.27091751155E+02  0.00000000000E+00 0.  1.
</event>
<event>
 5    1  0.1758488E-003  0.9118800E+02  0.7818608E-02  0.1130116E+00
         25   -1    0    0    0    0  0.00000000000E+00  0.00000000000E+00  0.99999998245E-14  0.12500000000E+03  0.12500000000E+03 0.  0.
        -13    1    3    3    0    0 -0.42011985227E+01  0.52241459440E+01  0.56380270634E+02  0.56777529452E+02  0.10566000000E+00 0. -1.
         23    2    1    0    0    0 -0.12628202270E+02  0.16679232766E+02  0.19124030174E+02  0.96655744350E+02  0.92406363891E+02 0.  0.
         13    1    3    3    0    0 -0.84270037473E+01  0.11455086822E+02 -0.37256240460E+02  0.39878214898E+02  0.10566000000E+00 0.  1.
         22    1    1    0    0    0  0.12628202270E+02 -0.16679232766E+02 -0.19124030174E+02  0.28344255650E+02  0.00000000000E+00 0. -1.
</event>
<event>
 5    1  0.1758488E-003  0.9118800E+02  0.7818608E-02  0.1130116E+00
         25   -1    0    0    0    0  0.00000000000E+00  0.00000000000E+00  0.99999998245E-14  0.12500000000E+03  0.12500000000E+03 0.  0.
        -13    1    3    3    0    0 -0.20821631390E+02 -0.32432636559E+02  0.51598731242E+01  0.38885109008E+02  0.10566000000E+00 0. -1.
         23    2    1    0    0    0  0.23586226922E+02  0.34860618040E+01 -0.11705673818E+02  0.98439022479E+02  0.94787950815E+02 0.  0.
         13    1    3    3    0    0  0.44407858312E+02  0.35918698363E+02 -0.16865546943E+02  0.59553913471E+02  0.10566000000E+00 0.  1.
         22    1    1    0    0    0 -0.23586226922E+02 -0.34860618040E+01  0.11705673818E+02  0.26560977521E+02  0.00000000000E+00 0.  1.
</event>
<event>
 5    1  0.1758488E-003  0.9118800E+02  0.7818608E-02  0.1130116E+00
         25   -1    0    0    0    0  0.00000000000E+00  0.00000000000E+00  0.99999998245E-14  0.12500000000E+03  0.12500000000E+03 0.  0.
        -13    1    3    3    0    0 -0.32535533308E+02 -0.34719475234E+02 -0.13035147555E+02  0.49334867223E+02  0.10566000000E+00 0.  1.
         23    2    1    0    0    0  0.97040096080E+01 -0.17431099369E+02 -0.21407888038E+02  0.95737247259E+02  0.91155426689E+02 0.  0.
         13    1    3    3    0    0  0.42239542916E+02  0.17288375864E+02 -0.83727404836E+01  0.46402380036E+02  0.10566000000E+00 0. -1.
         22    1    1    0    0    0 -0.97040096080E+01  0.17431099369E+02  0.21407888038E+02  0.29262752741E+02  0.00000000000E+00 0.  1.
</event>
<event>
 5    1  0.1758488E-003  0.9118800E+02  0.7818608E-02  0.1130116E+00
         25   -1    0    0    0    0  0.00000000000E+00  0.00000000000E+00  0.99999998245E-14  0.12500000000E+03  0.12500000000E+03 0.  0.
        -13    1    3    3    0    0 -0.50753390036E+02 -0.11300756831E+02 -0.24391335791E+02  0.57433110057E+02  0.10566000000E+00 0.  1.
         23    2    1    0    0    0 -0.11921913258E+02 -0.80005359784E+01 -0.24727848386E+02  0.96406170639E+02  0.92068141395E+02 0.  0.
         13    1    3    3    0    0  0.38831476778E+02  0.33002208529E+01 -0.33651259511E+00  0.38973060582E+02  0.10566000000E+00 0. -1.
         22    1    1    0    0    0  0.11921913258E+02  0.80005359784E+01  0.24727848386E+02  0.28593829361E+02  0.00000000000E+00 0.  1.
</event>
<event>
 5    1  0.1758488E-003  0.9118800E+02  0.7818608E-02  0.1130116E+00
         25   -1    0    0    0    0  0.00000000000E+00  0.00000000000E+00  0.99999998245E-14  0.12500000000E+03  0.12500000000E+03 0.  0.
        -13    1    3    3    0    0 -0.20834882814E+02  0.33437821386E+02 -0.43230942577E+02  0.58490219704E+02  0.10566000000E+00 0. -1.
         23    2    1    0    0    0 -0.74106478739E+01  0.22170939125E+01 -0.28391885965E+02  0.95573270722E+02  0.90930290226E+02 0.  0.
         13    1    3    3    0    0  0.13424234940E+02 -0.31220727473E+02  0.14839056612E+02  0.37083051018E+02  0.10566000000E+00 0.  1.
         22    1    1    0    0    0  0.74106478739E+01 -0.22170939125E+01  0.28391885965E+02  0.29426729278E+02  0.00000000000E+00 0. -1.
</event>
<event>
 5    1  0.1758488E-003  0.9118800E+02  0.7818608E-02  0.1130116E+00
         25   -1    0    0    0    0  0.00000000000E+00  0.00000000000E+00  0.99999998245E-14  0.12500000000E+03  0.12500000000E+03 0.  0.
        -13    1    3    3    0    0 -0.22880570088E+02 -0.52127588929E+02  0.25765347684E+01  0.56986451992E+02  0.10566000000E+00 0. -1.
         23    2    1    0    0    0 -0.11893767077E+02 -0.19415631731E+02  0.19131942540E+02  0.95260133219E+02  0.90498802781E+02 0.  0.
         13    1    3    3    0    0  0.10986803011E+02  0.32711957199E+02  0.16555407772E+02  0.38273681227E+02  0.10566000000E+00 0.  1.
         22    1    1    0    0    0  0.11893767077E+02  0.19415631731E+02 -0.19131942540E+02  0.29739866781E+02  0.00000000000E+00 0. -1.
</event>
<event>
 5    1  0.1758488E-003  0.9118800E+02  0.7818608E-02  0.1130116E+00
         25   -1    0    0    0    0  0.00000000000E+00  0.00000000000E+00  0.99999998245E-14  0.12500000000E+03  0.12500000000E+03 0.  0.
        -13    1    3    3    0    0  0.34402740799E+02 -0.14552468294E+02 -0.69134053666E+01  0.37988540979E+02  0.10566000000E+00 0. -1.
         23    2    1    0    0    0 -0.10586057674E+02 -0.22308325072E+01  0.27167143655E+02  0.95757993825E+02  0.91183871690E+02 0.  0.
         13    1    3    3    0    0 -0.44988798473E+02  0.12321635787E+02  0.34080549021E+02  0.57769452846E+02  0.10566000000E+00 0.  1.
         22    1    1    0    0    0  0.10586057674E+02  0.22308325072E+01 -0.27167143655E+02  0.29242006175E+02  0.00000000000E+00 0.  1.
</event>
<event>
 5    1  0.1758488E-003  0.9118800E+02  0.7818608E-02  0.1130116E+00
         25   -1    0    0    0    0  0.00000000000E+00  0.00000000000E+00  0.99999998245E-14  0.12500000000E+03  0.12500000000E+03 0.  0.
        -13    1    3    3    0    0  0.16941600925E+02  0.49934407066E+01 -0.31714198662E+02  0.36300879505E+02  0.10566000000E+00 0.  1.
         23    2    1    0    0    0 -0.15833895747E+02 -0.21594685857E+02  0.10726438596E+02  0.96153870333E+02  0.91724956164E+02 0.  0.
         13    1    3    3    0    0 -0.32775496673E+02 -0.26588126563E+02  0.42440637258E+02  0.59852990829E+02  0.10566000000E+00 0. -1.
         22    1    1    0    0    0  0.15833895747E+02  0.21594685857E+02 -0.10726438596E+02  0.28846129667E+02  0.00000000000E+00 0. -1.
</event>
<event>
 5    1  0.1758488E-003  0.9118800E+02  0.7818608E-02  0.1130116E+00
         25   -1    0    0    0    0  0.00000000000E+00  0.00000000000E+00  0.99999998245E-14  0.12500000000E+03  0.12500000000E+03 0.  0.
        -13    1    3    3    0    0 -0.27245845562E+02  0.20229394689E+02 -0.11244159670E+02  0.35749220979E+02  0.10566000000E+00 0.  1.
         23    2    1    0    0    0  0.13754070161E+02 -0.12340747249E+02  0.20830449362E+02  0.97154423883E+02  0.93078493599E+02 0.  0.
         13    1    3    3    0    0  0.40999915723E+02 -0.32570141937E+02  0.32074609032E+02  0.61405202904E+02  0.10566000000E+00 0. -1.
         22    1    1    0    0    0 -0.13754070161E+02  0.12340747249E+02 -0.20830449362E+02  0.27845576117E+02  0.00000000000E+00 0. -1.
</event>
<event>
 5    1  0.1758488E-003  0.9118800E+02  0.7818608E-02  0.1130116E+00
         25   -1    0    0    0    0  0.00000000000E+00  0.00000000000E+00  0.99999998245E-14  0.12500000000E+03  0.12500000000E+03 0.  0.
        -13    1    3    3    0    0 -0.32053643193E+02  0.37637322445E+02  0.62654360749E+01  0.49832428558E+02  0.10566000000E+00 0.  1.
         23    2    1    0    0    0  0.93384205189E+00  0.37038819102E+02  0.16592152366E+02  0.84403870855E+02  0.73999781849E+02 0.  0.
         13    1    3    3    0    0  0.32987485245E+02 -0.59850334266E+00  0.10326716291E+02  0.34571442296E+02  0.10566000000E+00 0. -1.
         22    1    1    0    0    0 -0.93384205189E+00 -0.37038819102E+02 -0.16592152366E+02  0.40596129145E+02  0.00000000000E+00 0.  1.
</event>
<event>
 5    1  0.1758488E-003  0.9118800E+02  0.7818608E-02  0.1130116E+00
         25   -1    0    0    0    0  0.00000000000E+00  0.00000000000E+00  0.99999998245E-14  0.12500000000E+03  0.12500000000E+03 0.  0.
        -13    1    3    3    0    0  0.52733626733E+02 -0.48033789799E+00  0.19193248591E+02  0.56120032684E+02  0.10566000000E+00 0.  1.
         23    2    1    0    0    0  0.17543242614E+02  0.13391544107E+02  0.21725580273E+02  0.94030665923E+02  0.88784381964E+02 0.  0.
         13    1    3    3    0    0 -0.35190384119E+02  0.13871882005E+02  0.25323316826E+01  0.37910633239E+02  0.10566000000E+00 0. -1.
         22    1    1    0    0    0 -0.17543242614E+02 -0.13391544107E+02 -0.21725580273E+02  0.30969334077E+02  0.00000000000E+00 0.  1.
</event>
<event>
 5    1  0.1758488E-003  0.9118800E+02  0.7818608E-02  0.1130116E+00
         25   -1    0    0    0    0  0.00000000000E+00  0.00000000000E+00  0.99999998245E-14  0.12500000000E+03  0.12500000000E+03 0.  0.
        -13    1    3    3    0    0  0.42042373250E+02 -0.25147455475E+01  0.44192214858E+02  0.61047916523E+02  0.10566000000E+00 0.  1.
         23    2    1    0    0    0  0.22038502706E+02 -0.93328855624E+01  0.16296904090E+02  0.96045079220E+02  0.91576578911E+02 0.  0.
         13    1    3    3    0    0 -0.20003870544E+02 -0.68181400149E+01 -0.27895310768E+02  0.34997162697E+02  0.10566000000E+00 0. -1.
         22    1    1    0    0    0 -0.22038502706E+02  0.93328855624E+01 -0.16296904090E+02  0.28954920780E+02  0.00000000000E+00 0.  1.
</event>
<event>
 5    1  0.1758488E-003  0.9118800E+02  0.7818608E-02  0.1130116E+00
         25   -1    0    0    0    0  0.00000000000E+00  0.00000000000E+00  0.99999998245E-14  0.12500000000E+03  0.12500000000E+03 0.  0.
        -13    1    3    3    0    0 -0.33063433624E+02  0.18962804926E+02 -0.63180663401E+00  0.38120715593E+02  0.10566000000E+00 0.  1.
         23    2    1    0    0    0  0.10457511838E+02 -0.14181499467E+01  0.28699554178E+02  0.94421656141E+02  0.89333163133E+02 0.  0.
         13    1    3    3    0    0  0.43520945462E+02 -0.20380954873E+02  0.29331360812E+02  0.56300940548E+02  0.10566000000E+00 0. -1.
         22    1    1    0    0    0 -0.10457511838E+02  0.14181499467E+01 -0.28699554178E+02  0.30578343859E+02  0.00000000000E+00 0. -1.
</event>
<event>
 5    1  0.1758488E-003  0.9118800E+02  0.7818608E-02  0.1130116E+00
         25   -1    0    0    0    0  0.00000000000E+00  0.00000000000E+00  0.99999998245E-14  0.12500000000E+03  0.12500000000E+03 0.  0.
        -13    1    3    3    0    0  0.59321635148E+02  0.18476934133E+02 -0.11902956004E+01  0.62144038002E+02  0.10566000000E+00 0.  1.
         23    2    1    0    0    0  0.27670065547E+02  0.13468415145E+02  0.30770204028E+00  0.94224597250E+02  0.89057000357E+02 0.  0.
         13    1    3    3    0    0 -0.31651569602E+02 -0.50085189879E+01  0.14979976407E+01  0.32080559248E+02  0.10566000000E+00 0. -1.
         22    1    1    0    0    0 -0.27670065547E+02 -0.13468415145E+02 -0.30770204028E+00  0.30775402750E+02  0.00000000000E+00 0.  1.
</event>
<event>
 5    1  0.1758488E-003  0.9118800E+02  0.7818608E-02  0.1130116E+00
         25   -1    0    0    0    0  0.00000000000E+00  0.00000000000E+00  0.99999998245E-14  0.12500000000E+03  0.12500000000E+03 0.  0.
        -13    1    3    3    0    0 -0.31476356025E+02 -0.81410397810E+01  0.34741736004E+02  0.47581896788E+02  0.10566000000E+00 0. -1.
         23    2    1    0    0    0  0.13253533985E+02 -0.17253144417E+02  0.19714298588E+02  0.95640491758E+02  0.91022650695E+02 0.  0.
         13    1    3    3    0    0  0.44729890010E+02 -0.91121046365E+01 -0.15027437416E+02  0.48058594970E+02  0.10566000000E+00 0.  1.
         22    1    1    0    0    0 -0.13253533985E+02  0.17253144417E+02 -0.19714298588E+02  0.29359508242E+02  0.00000000000E+00 0.  1.
</event>
<event>
 5    1  0.1758488E-003  0.9118800E+02  0.7818608E-02  0.1130116E+00
         25   -1    0    0    0    0  0.00000000000E+00  0.00000000000E+00  0.99999998245E-14  0.12500000000E+03  0.12500000000E+03 0.  0.
        -13    1    3    3    0    0 -0.12958177642E+02 -0.22860498395E+02  0.20752420762E+02  0.33484188600E+02  0.10566000000E+00 0.  1.
         23    2    1    0    0    0  0.11890734106E+02  0.21210544879E+02 -0.15889022191E+02  0.95952834943E+02  0.91450580839E+02 0.  0.
         13    1    3    3    0    0  0.24848911748E+02  0.44071043274E+02 -0.36641442952E+02  0.62468646344E+02  0.10566000000E+00 0. -1.
         22    1    1    0    0    0 -0.11890734106E+02 -0.21210544879E+02  0.15889022191E+02  0.29047165057E+02  0.00000000000E+00 0. -1.
</event>
<event>
 5    1  0.1758488E-003  0.9118800E+02  0.7818608E-02  0.1130116E+00
         25   -1    0    0    0    0  0.00000000000E+00  0.00000000000E+00  0.99999998245E-14  0.12500000000E+03  0.12500000000E+03 0.  0.
        -13    1    3    3    0    0 -0.20184320174E+02  0.60007163900E+01 -0.30154624393E+02  0.36779449620E+02  0.10566000000E+00 0.  1.
         23    2    1    0    0    0  0.22107643743E+02 -0.18097323492E+02  0.38709918242E+01  0.96168669695E+02  0.91745122071E+02 0.  0.
         13    1    3    3    0    0  0.42291963917E+02 -0.24098039882E+02  0.34025616217E+02  0.59389220075E+02  0.10566000000E+00 0. -1.
         22    1    1    0    0    0 -0.22107643743E+02  0.18097323492E+02 -0.38709918242E+01  0.28831330305E+02  0.00000000000E+00 0. -1.
</event>
<event>
 5    1  0.1758488E-003  0.9118800E+02  0.7818608E-02  0.1130116E+00
         25   -1    0    0    0    0  0.00000000000E+00  0.00000000000E+00  0.99999998245E-14  0.12500000000E+03  0.12500000000E+03 0.  0.
        -13    1    3    3    0    0 -0.16670158632E+02  0.17367178323E+02  0.32500543846E+02  0.40445142923E+02  0.10566000000E+00 0.  1.
         23    2    1    0    0    0  0.27733657897E+02 -0.51129863902E+01  0.13694023585E+02  0.93649965038E+02  0.88246763451E+02 0.  0.
         13    1    3    3    0    0  0.44403816529E+02 -0.22480164713E+02 -0.18806520262E+02  0.53204822115E+02  0.10566000000E+00 0. -1.
         22    1    1    0    0    0 -0.27733657897E+02  0.51129863902E+01 -0.13694023585E+02  0.31350034962E+02  0.00000000000E+00 0. -1.
</event>
<event>
 5    1  0.1758488E-003  0.9118800E+02  0.7818608E-02  0.1130116E+00
         25   -1    0    0    0    0  0.00000000000E+00  0.00000000000E+00  0.99999998245E-14  0.12500000000E+03  0.12500000000E+03 0.  0.
        -13    1    3    3    0    0  0.42744029452E+02  0.19696285130E+02 -0.37394419294E+02  0.60111142561E+02  0.10566000000E+00 0.  1.
         23    2    1    0    0    0  0.21397078020E+02 -0.19498991262E+01 -0.90170352324E+01  0.10169884169E+03  0.98993486763E+02 0.  0.
         13    1    3    3    0    0 -0.21346951432E+02 -0.21646184256E+02  0.28377384061E+02  0.41587699125E+02  0.10566000000E+00 0. -1.
         22    1    1    0    0    0 -0.21397078020E+02  0.19498991262E+01  0.90170352324E+01  0.23301158314E+02  0.00000000000E+00 0.  1.
</event>
<event>
 5    1  0.1758488E-003  0.9118800E+02  0.7818608E-02  0.1130116E+00
         25   -1    0    0    0    0  0.00000000000E+00  0.00000000000E+00  0.99999998245E-14  0.12500000000E+03  0.12500000000E+03 0.  0.
        -13    1    3    3    0    0  0.13551987616E+02 -0.20614361232E+02  0.23602072756E+02  0.34142016047E+02  0.10566000000E+00 0.  1.
         23    2    1    0    0    0 -0.19094403765E+02  0.91719910399E+01 -0.19742485288E+02  0.96043353093E+02  0.91574222755E+02 0.  0.
         13    1    3    3    0    0 -0.32646391381E+02  0.29786352272E+02 -0.43344558044E+02  0.61901337045E+02  0.10566000000E+00 0. -1.
         22    1    1    0    0    0  0.19094403765E+02 -0.91719910399E+01  0.19742485288E+02  0.28956646907E+02  0.00000000000E+00 0. -1.
</event>
<event>
 5    1  0.1758488E-003  0.9118800E+02  0.7818608E-02  0.1130116E+00
         25   -1    0    0    0    0  0.00000000000E+00  0.00000000000E+00  0.99999998245E-14  0.12500000000E+03  0.12500000000E+03 0.  0.
        -13    1    3    3    0    0 -0.27152513846E+02 -0.24988232630E+02 -0.44198221441E+01  0.37164724807E+02  0.10566000000E+00 0.  1.
         23    2    1    0    0    0 -0.92118391748E+00  0.25987946682E+02  0.11354725274E+02  0.96624804166E+02  0.92364500982E+02 0.  0.
         13    1    3    3    0    0  0.26231329929E+02  0.50976179312E+02  0.15774547418E+02  0.59460079359E+02  0.10566000000E+00 0. -1.
         22    1    1    0    0    0  0.92118391748E+00 -0.25987946682E+02 -0.11354725274E+02  0.28375195834E+02  0.00000000000E+00 0. -1.
</event>
<event>
 5    1  0.1758488E-003  0.9118800E+02  0.7818608E-02  0.1130116E+00
         25   -1    0    0    0    0  0.00000000000E+00  0.00000000000E+00  0.99999998245E-14  0.12500000000E+03  0.12500000000E+03 0.  0.
        -13    1    3    3    0    0 -0.36898320767E+02  0.11508151376E+02 -0.40781026461E+02  0.56187426590E+02  0.10566000000E+00 0. -1.
         23    2    1    0    0    0 -0.12234355057E+02  0.23657887893E+02 -0.12680198918E+02  0.95501482277E+02  0.90831550517E+02 0.  0.
         13    1    3    3    0    0  0.24663965710E+02  0.12149736517E+02  0.28100827543E+02  0.39314055688E+02  0.10566000000E+00 0.  1.
         22    1    1    0    0    0  0.12234355057E+02 -0.23657887893E+02  0.12680198918E+02  0.29498517723E+02  0.00000000000E+00 0. -1.
</event>
<event>
 5    1  0.1758488E-003  0.9118800E+02  0.7818608E-02  0.1130116E+00
         25   -1    0    0    0    0  0.00000000000E+00  0.00000000000E+00  0.99999998245E-14  0.12500000000E+03  0.12500000000E+03 0.  0.
        -13    1    3    3    0    0  0.52809741751E+02  0.77367935729E+01  0.85750156664E+00  0.53380457768E+02  0.10566000000E+00 0. -1.
         23    2    1    0    0    0  0.18395381763E+02  0.24856799797E+01 -0.22895749220E+02  0.95524857803E+02  0.90863713609E+02 0.  0.
         13    1    3    3    0    0 -0.34414359988E+02 -0.52511135932E+01 -0.23753250787E+02  0.42144400035E+02  0.10566000000E+00 0.  1.
         22    1    1    0    0    0 -0.18395381763E+02 -0.24856799797E+01  0.22895749220E+02  0.29475142197E+02  0.00000000000E+00 0. -1.
</event>
<event>
 5    1  0.1758488E-003  0.9118800E+02  0.7818608E-02  0.1130116E+00
         25   -1    0    0    0    0  0.00000000000E+00  0.00000000000E+00  0.99999998245E-14  0.12500000000E+03  0.12500000000E+03 0.  0.
        -13    1    3    3    0    0  0.18179301007E+02  0.44745236463E+02  0.73010218086E+01  0.48846077168E+02  0.10566000000E+00 0.  1.
         23    2    1    0    0    0  0.15635948319E+02  0.61045730417E+01  0.27697243024E+02  0.92613491034E+02  0.86766195943E+02 0.  0.
         13    1    3    3    0    0 -0.25433526878E+01 -0.38640663421E+02  0.20396221216E+02  0.43767413865E+02  0.10566000000E+00 0. -1.
         22    1    1    0    0    0 -0.15635948319E+02 -0.61045730417E+01 -0.27697243024E+02  0.32386508966E+02  0.00000000000E+00 0.  1.
</event>
<event>
 5    1  0.1758488E-003  0.9118800E+02  0.7818608E-02  0.1130116E+00
         25   -1    0    0    0    0  0.00000000000E+00  0.00000000000E+00  0.99999998245E-14  0.12500000000E+03  0.12500000000E+03 0.  0.
        -13    1    3    3    0    0 -0.23090503100E+02 -0.14726303233E+02  0.19041925213E+02  0.33356280071E+02  0.10566000000E+00 0. -1.
         23    2    1    0    0    0 -0.16488443240E+02  0.35101470926E+02  0.30647032256E+01  0.86097886593E+02  0.76808018125E+02 0.  0.
         13    1    3    3    0    0  0.66020598601E+01  0.49827774159E+02 -0.15977221987E+02  0.52741606522E+02  0.10566000000E+00 0.  1.
         22    1    1    0    0    0  0.16488443240E+02 -0.35101470926E+02 -0.30647032256E+01  0.38902113407E+02  0.00000000000E+00 0.  1.
</event>
<event>
 5    1  0.1758488E-003  0.9118800E+02  0.7818608E-02  0.1130116E+00
         25   -1    0    0    0    0  0.00000000000E+00  0.00000000000E+00  0.99999998245E-14  0.12500000000E+03  0.12500000000E+03 0.  0.
        -13    1    3    3    0    0 -0.34194961438E+02  0.29555736034E+02 -0.20172699651E+01  0.45242871951E+02  0.10566000000E+00 0. -1.
         23    2    1    0    0    0 -0.75849923146E+01 -0.70682633161E+00  0.28313394924E+02  0.95679699115E+02  0.91076477637E+02 0.  0.
         13    1    3    3    0    0  0.26609969123E+02 -0.30262562366E+02  0.30330664889E+02  0.50436827164E+02  0.10566000000E+00 0.  1.
         22    1    1    0    0    0  0.75849923146E+01  0.70682633161E+00 -0.28313394924E+02  0.29320300885E+02  0.00000000000E+00 0. -1.
</event>
<event>
 5    1  0.1758488E-003  0.9118800E+02  0.7818608E-02  0.1130116E+00
         25   -1    0    0    0    0  0.00000000000E+00  0.00000000000E+00  0.99999998245E-14  0.12500000000E+03  0.12500000000E+03 0.  0.
        -13    1    3    3    0    0  0.31960558638E+02  0.72477330476E+01 -0.14485324389E+02  0.35830751171E+02  0.10566000000E+00 0. -1.
         23    2    1    0    0    0 -0.23840824200E+02  0.18127264765E+02  0.18796748759E+01  0.94991404497E+02  0.90126861281E+02 0.  0.
         13    1    3    3    0    0 -0.55801382838E+02  0.10879531717E+02  0.16364999265E+02  0.59160653327E+02  0.10566000000E+00 0.  1.
         22    1    1    0    0    0  0.23840824200E+02 -0.18127264765E+02 -0.18796748759E+01  0.30008595503E+02  0.00000000000E+00 0.  1.
</event>
<event>
 5    1  0.1758488E-003  0.9118800E+02  0.7818608E-02  0.1130116E+00
         25   -1    0    0    0    0  0.00000000000E+00  0.00000000000E+00  0.99999998245E-14  0.12500000000E+03  0.12500000000E+03 0.  0.
        -13    1    3    3    0    0 -0.36211940397E+02  0.16629257512E+02 -0.73567703490E+01  0.40521229827E+02  0.10566000000E+00 0.  1.
         23    2    1    0    0    0 -0.73932393044E+01 -0.29011686346E+02 -0.56914943588E+01  0.94524911156E+02  0.89477526725E+02 0.  0.
         13    1    3    3    0    0  0.28818701093E+02 -0.45640943857E+02  0.16652759902E+01  0.54003681328E+02  0.10566000000E+00 0. -1.
         22    1    1    0    0    0  0.73932393044E+01  0.29011686346E+02  0.56914943588E+01  0.30475088844E+02  0.00000000000E+00 0. -1.
</event>
<event>
 5    1  0.1758488E-003  0.9118800E+02  0.7818608E-02  0.1130116E+00
         25   -1    0    0    0    0  0.00000000000E+00  0.00000000000E+00  0.99999998245E-14  0.12500000000E+03  0.12500000000E+03 0.  0.
        -13    1    3    3    0    0  0.58443527310E+02 -0.77910860847E+01  0.13463633389E+02  0.60478322521E+02  0.10566000000E+00 0.  1.
         23    2    1    0    0    0  0.24601997495E+02 -0.13666646161E+02  0.16221783735E+01  0.96810162102E+02  0.92615012420E+02 0.  0.
         13    1    3    3    0    0 -0.33841529815E+02 -0.58755600764E+01 -0.11841455016E+02  0.36331839581E+02  0.10566000000E+00 0. -1.
         22    1    1    0    0    0 -0.24601997495E+02  0.13666646161E+02 -0.16221783735E+01  0.28189837898E+02  0.00000000000E+00 0.  1.
</event>
<event>
 5    1  0.1758488E-003  0.9118800E+02  0.7818608E-02  0.1130116E+00
         25   -1    0    0    0    0  0.00000000000E+00  0.00000000000E+00  0.99999998245E-14  0.12500000000E+03  0.12500000000E+03 0.  0.
        -13    1    3    3    0    0  0.28338027489E+02  0.34936403489E+02 -0.36718387908E+02  0.58067609433E+02  0.10566000000E+00 0.  1.
         23    2    1    0    0    0  0.14642440841E+02  0.22840635511E+01 -0.26017926767E+02  0.95057546304E+02  0.90218548958E+02 0.  0.
         13    1    3    3    0    0 -0.13695586649E+02 -0.32652339938E+02  0.10700461141E+02  0.36989936871E+02  0.10566000000E+00 0. -1.
         22    1    1    0    0    0 -0.14642440841E+02 -0.22840635511E+01  0.26017926767E+02  0.29942453696E+02  0.00000000000E+00 0. -1.
</event>
<event>
 5    1  0.1758488E-003  0.9118800E+02  0.7818608E-02  0.1130116E+00
         25   -1    0    0    0    0  0.00000000000E+00  0.00000000000E+00  0.99999998245E-14  0.12500000000E+03  0.12500000000E+03 0.  0.
        -13    1    3    3    0    0 -0.53076959494E+02 -0.47678356854E+01  0.24187578667E+00  0.53291327195E+02  0.10566000000E+00 0.  1.
         23    2    1    0    0    0 -0.19250962983E+02 -0.94298235567E+01 -0.22190394185E+02  0.94146560287E+02  0.88947400590E+02 0.  0.
         13    1    3    3    0    0  0.33825996511E+02 -0.46619878713E+01 -0.22432269971E+02  0.40855233092E+02  0.10566000000E+00 0. -1.
         22    1    1    0    0    0  0.19250962983E+02  0.94298235567E+01  0.22190394185E+02  0.30853439713E+02  0.00000000000E+00 0.  1.
</event>
<event>
 5    1  0.1758488E-003  0.9118800E+02  0.7818608E-02  0.1130116E+00
         25   -1    0    0    0    0  0.00000000000E+00  0.00000000000E+00  0.99999998245E-14  0.12500000000E+03  0.12500000000E+03 0.  0.
        -13    1    3    3    0    0 -0.45363945028E+01  0.39118003514E+02  0.16168232203E+02  0.42570177009E+02  0.10566000000E+00 0. -1.
         23    2    1    0    0    0 -0.26731168471E+02 -0.85948802942E+01  0.34322845618E+01  0.96712053584E+02  0.92482503189E+02 0.  0.
         13    1    3    3    0    0 -0.22194773968E+02 -0.47712883808E+02 -0.12735947641E+02  0.54141876575E+02  0.10566000000E+00 0.  1.
         22    1    1    0    0    0  0.26731168471E+02  0.85948802942E+01 -0.34322845618E+01  0.28287946416E+02  0.00000000000E+00 0.  1.
</event>
<event>
 5    1  0.1758488E-003  0.9118800E+02  0.7818608E-02  0.1130116E+00
         25   -1    0    0    0    0  0.00000000000E+00  0.00000000000E+00  0.99999998245E-14  0.12500000000E+03  0.12500000000E+03 0.  0.
        -13    1    3    3    0    0  0.47701364177E+02  0.18009519202E+02  0.24839411617E+02  0.56716580113E+02  0.10566000000E+00 0. -1.
         23    2    1    0    0    0  0.29417257571E+02 -0.36748445029E+01 -0.13512173592E+01  0.95323320377E+02  0.90586036972E+02 0.  0.
         13    1    3    3    0    0 -0.18284106606E+02 -0.21684363705E+02 -0.26190628976E+02  0.38606740264E+02  0.10566000000E+00 0.  1.
         22    1    1    0    0    0 -0.29417257571E+02  0.36748445029E+01  0.13512173592E+01  0.29676679623E+02  0.00000000000E+00 0. -1.
</event>
<event>
 5    1  0.1758488E-003  0.9118800E+02  0.7818608E-02  0.1130116E+00
         25   -1    0    0    0    0  0.00000000000E+00  0.00000000000E+00  0.99999998245E-14  0.12500000000E+03  0.12500000000E+03 0.  0.
        -13    1    3    3    0    0 -0.37804375014E+02 -0.15283219333E+02  0.47073545155E+02  0.62279028420E+02  0.10566000000E+00 0. -1.
         23    2    1    0    0    0 -0.15218307857E+02 -0.57833016154E+01  0.24429486655E+02  0.95642832394E+02  0.91025864998E+02 0.  0.
         13    1    3    3    0    0  0.22586067158E+02  0.94999177178E+01 -0.22644058500E+02  0.33363803975E+02  0.10566000000E+00 0.  1.
         22    1    1    0    0    0  0.15218307857E+02  0.57833016154E+01 -0.24429486655E+02  0.29357167606E+02  0.00000000000E+00 0. -1.
</event>
<event>
 5    1  0.1758488E-003  0.9118800E+02  0.7818608E-02  0.1130116E+00
         25   -1    0    0    0    0  0.00000000000E+00  0.00000000000E+00  0.99999998245E-14  0.12500000000E+03  0.12500000000E+03 0.  0.
        -13    1    3    3    0    0 -0.47122584842E+02  0.60872853558E+01 -0.32971726627E+02  0.57833718244E+02  0.10566000000E+00 0. -1.
         23    2    1    0    0    0 -0.28564179469E+02 -0.38666626555E+01 -0.95033767886E+00  0.96159636436E+02  0.91732813698E+02 0.  0.
         13    1    3    3    0    0  0.18558405373E+02 -0.99539480113E+01  0.32021388948E+02  0.38325918191E+02  0.10566000000E+00 0.  1.
         22    1    1    0    0    0  0.28564179469E+02  0.38666626555E+01  0.95033767886E+00  0.28840363564E+02  0.00000000000E+00 0. -1.
</event>
<event>
 5    1  0.1758488E-003  0.9118800E+02  0.7818608E-02  0.1130116E+00
         25   -1    0    0    0    0  0.00000000000E+00  0.00000000000E+00  0.99999998245E-14  0.12500000000E+03  0.12500000000E+03 0.  0.
        -13    1    3    3    0    0 -0.16362211843E+02 -0.34074519938E+02  0.33573267782E+02  0.50556605493E+02  0.10566000000E+00 0.  1.
         23    2    1    0    0    0  0.18835942215E+02 -0.21902972603E+02  0.11115746730E+02  0.94046926593E+02  0.88807272497E+02 0.  0.
         13    1    3    3    0    0  0.35198154057E+02  0.12171547335E+02 -0.22457521052E+02  0.43490321100E+02  0.10566000000E+00 0. -1.
         22    1    1    0    0    0 -0.18835942215E+02  0.21902972603E+02 -0.11115746730E+02  0.30953073407E+02  0.00000000000E+00 0.  1.
</event>
<event>
 5    1  0.1758488E-003  0.9118800E+02  0.7818608E-02  0.1130116E+00
         25   -1    0    0    0    0  0.00000000000E+00  0.00000000000E+00  0.99999998245E-14  0.12500000000E+03  0.12500000000E+03 0.  0.
        -13    1    3    3    0    0  0.24910569467E+02 -0.19573153927E+02  0.51372252288E+02  0.60355317040E+02  0.10566000000E+00 0.  1.
         23    2    1    0    0    0  0.40069380865E+01 -0.17766890755E+02  0.22320173355E+02  0.96191874435E+02  0.91776732393E+02 0.  0.
         13    1    3    3    0    0 -0.20903631381E+02  0.18062631716E+01 -0.29052078933E+02  0.35836557395E+02  0.10566000000E+00 0. -1.
         22    1    1    0    0    0 -0.40069380865E+01  0.17766890755E+02 -0.22320173355E+02  0.28808125565E+02  0.00000000000E+00 0.  1.
</event>
<event>
 5    1  0.1758488E-003  0.9118800E+02  0.7818608E-02  0.1130116E+00
         25   -1    0    0    0    0  0.00000000000E+00  0.00000000000E+00  0.99999998245E-14  0.12500000000E+03  0.12500000000E+03 0.  0.
        -13    1    3    3    0    0 -0.43536596798E+02  0.61723382816E+01 -0.10796308342E+02  0.45278079227E+02  0.10566000000E+00 0. -1.
         23    2    1    0    0    0 -0.56176164054E+01 -0.27551542887E+02 -0.59849880025E+01  0.96251692034E+02  0.91858167892E+02 0.  0.
         13    1    3    3    0    0  0.37918980393E+02 -0.33723881169E+02  0.48113203395E+01  0.50973612807E+02  0.10566000000E+00 0.  1.
         22    1    1    0    0    0  0.56176164054E+01  0.27551542887E+02  0.59849880025E+01  0.28748307966E+02  0.00000000000E+00 0. -1.
</event>
<event>
 5    1  0.1758488E-003  0.9118800E+02  0.7818608E-02  0.1130116E+00
         25   -1    0    0    0    0  0.00000000000E+00  0.00000000000E+00  0.99999998245E-14  0.12500000000E+03  0.12500000000E+03 0.  0.
        -13    1    3    3    0    0 -0.29294414865E+02  0.19610375578E+02 -0.38034290234E+02  0.51858923728E+02  0.10566000000E+00 0.  1.
         23    2    1    0    0    0 -0.77028792940E+01  0.27937138344E+02 -0.42553800097E+00  0.96017261502E+02  0.91538600467E+02 0.  0.
         13    1    3    3    0    0  0.21591535571E+02  0.83267627658E+01  0.37608752233E+02  0.44158337774E+02  0.10566000000E+00 0. -1.
         22    1    1    0    0    0  0.77028792940E+01 -0.27937138344E+02  0.42553800097E+00  0.28982738498E+02  0.00000000000E+00 0. -1.
</event>
<event>
 5    1  0.1758488E-003  0.9118800E+02  0.7818608E-02  0.1130116E+00
         25   -1    0    0    0    0  0.00000000000E+00  0.00000000000E+00  0.99999998245E-14  0.12500000000E+03  0.12500000000E+03 0.  0.
        -13    1    3    3    0    0  0.40659029420E+02  0.20752401538E+02  0.42091304576E+02  0.62092736515E+02  0.10566000000E+00 0.  1.
         23    2    1    0    0    0  0.21490651699E+02  0.14434335680E+02  0.18272725761E+02  0.93312610336E+02  0.87767605550E+02 0.  0.
         13    1    3    3    0    0 -0.19168377721E+02 -0.63180658587E+01 -0.23818578814E+02  0.31219873821E+02  0.10566000000E+00 0. -1.
         22    1    1    0    0    0 -0.21490651699E+02 -0.14434335680E+02 -0.18272725761E+02  0.31687389664E+02  0.00000000000E+00 0.  1.
</event>
<event>
 5    1  0.1758488E-003  0.9118800E+02  0.7818608E-02  0.1130116E+00
         25   -1    0    0    0    0  0.00000000000E+00  0.00000000000E+00  0.99999998245E-14  0.12500000000E+03  0.12500000000E+03 0.  0.
        -13    1    3    3    0    0  0.43913569566E+02  0.18908770571E+01  0.39853712334E+02  0.59332171365E+02  0.10566000000E+00 0.  1.
         23    2    1    0    0    0  0.26332521210E+02 -0.80627237763E+01  0.93558432302E+01  0.95914935267E+02  0.91398762665E+02 0.  0.
         13    1    3    3    0    0 -0.17581048356E+02 -0.99536008334E+01 -0.30497869104E+02  0.36582763902E+02  0.10566000000E+00 0. -1.
         22    1    1    0    0    0 -0.26332521210E+02  0.80627237763E+01 -0.93558432302E+01  0.29085064733E+02  0.00000000000E+00 0.  1.
</event>
<event>
 5    1  0.1758488E-003  0.9118800E+02  0.7818608E-02  0.1130116E+00
         25   -1    0    0    0    0  0.00000000000E+00  0.00000000000E+00  0.99999998245E-14  0.12500000000E+03  0.12500000000E+03 0.  0.
        -13    1    3    3    0    0  0.45632917291E+01 -0.27308712559E+02 -0.44327813296E+01  0.28040152058E+02  0.10566000000E+00 0.  1.
         23    2    1    0    0    0 -0.58139185756E+01  0.33488594211E+02  0.56762412731E+01  0.90539772107E+02  0.83725402518E+02 0.  0.
         13    1    3    3    0    0 -0.10377210305E+02  0.60797306771E+02  0.10109022603E+02  0.62499620049E+02  0.10566000000E+00 0. -1.
         22    1    1    0    0    0  0.58139185756E+01 -0.33488594211E+02 -0.56762412731E+01  0.34460227893E+02  0.00000000000E+00 0. -1.
</event>
<event>
 5    1  0.1758488E-003  0.9118800E+02  0.7818608E-02  0.1130116E+00
         25   -1    0    0    0    0  0.00000000000E+00  0.00000000000E+00  0.99999998245E-14  0.12500000000E+03  0.12500000000E+03 0.  0.
        -13    1    3    3    0    0 -0.62787939455E+01  0.41116904279E+02 -0.32625397623E+01  0.41721438142E+02  0.10566000000E+00 0. -1.
         23    2    1    0    0    0  0.56290441306E+01 -0.14860517672E+01  0.28328380191E+02  0.96079564112E+02  0.91623637933E+02 0.  0.
         13    1    3    3    0    0  0.11907838076E+02 -0.42602956046E+02  0.31590919954E+02  0.54358125971E+02  0.10566000000E+00 0.  1.
         22    1    1    0    0    0 -0.56290441306E+01  0.14860517672E+01 -0.28328380191E+02  0.28920435888E+02  0.00000000000E+00 0. -1.
</event>
<event>
 5    1  0.1758488E-003  0.9118800E+02  0.7818608E-02  0.1130116E+00
         25   -1    0    0    0    0  0.00000000000E+00  0.00000000000E+00  0.99999998245E-14  0.12500000000E+03  0.12500000000E+03 0.  0.
        -13    1    3    3    0    0 -0.14170547025E+02 -0.44294883645E+02 -0.14563023506E+02  0.48733293935E+02  0.10566000000E+00 0.  1.
         23    2    1    0    0    0  0.13733204880E+02 -0.28157331301E+02  0.12938661166E+02  0.91105381327E+02  0.84565627365E+02 0.  0.
         13    1    3    3    0    0  0.27903751905E+02  0.16137552344E+02  0.27501684672E+02  0.42372087391E+02  0.10566000000E+00 0. -1.
         22    1    1    0    0    0 -0.13733204880E+02  0.28157331301E+02 -0.12938661166E+02  0.33894618673E+02  0.00000000000E+00 0.  1.
</event>
<event>
 5    1  0.1758488E-003  0.9118800E+02  0.7818608E-02  0.1130116E+00
         25   -1    0    0    0    0  0.00000000000E+00  0.00000000000E+00  0.99999998245E-14  0.12500000000E+03  0.12500000000E+03 0.  0.
        -13    1    3    3    0    0  0.31202863387E+02 -0.27947973905E+02 -0.36455042557E+02  0.55530975328E+02  0.10566000000E+00 0.  1.
         23    2    1    0    0    0  0.20091621807E+02 -0.21020805531E+02  0.17017085739E+01  0.95871949189E+02  0.91339954550E+02 0.  0.
         13    1    3    3    0    0 -0.11111241581E+02  0.69271683737E+01  0.38156751131E+02  0.40340973861E+02  0.10566000000E+00 0. -1.
         22    1    1    0    0    0 -0.20091621807E+02  0.21020805531E+02 -0.17017085739E+01  0.29128050811E+02  0.00000000000E+00 0.  1.
</event>
<event>
 5    1  0.1758488E-003  0.9118800E+02  0.7818608E-02  0.1130116E+00
         25   -1    0    0    0    0  0.00000000000E+00  0.00000000000E+00  0.99999998245E-14  0.12500000000E+03  0.12500000000E+03 0.  0.
        -13    1    3    3    0    0 -0.45794279930E+01 -0.14046091954E+02  0.33008010015E+02  0.36163569363E+02  0.10566000000E+00 0. -1.
         23    2    1    0    0    0  0.16236987918E+02 -0.84810137550E+01 -0.22663085474E+02  0.95859258518E+02  0.91322585539E+02 0.  0.
         13    1    3    3    0    0  0.20816415911E+02  0.55650781988E+01 -0.55671095488E+02  0.59695689155E+02  0.10566000000E+00 0.  1.
         22    1    1    0    0    0 -0.16236987918E+02  0.84810137550E+01  0.22663085474E+02  0.29140741482E+02  0.00000000000E+00 0.  1.
</event>
<event>
 5    1  0.1758488E-003  0.9118800E+02  0.7818608E-02  0.1130116E+00
         25   -1    0    0    0    0  0.00000000000E+00  0.00000000000E+00  0.99999998245E-14  0.12500000000E+03  0.12500000000E+03 0.  0.
        -13    1    3    3    0    0  0.46467432411E+02  0.20923717948E+02 -0.35247522599E+01  0.51082866894E+02  0.10566000000E+00 0.  1.
         23    2    1    0    0    0  0.88528736124E+01  0.25484969013E+02 -0.18990194193E+02  0.92007811647E+02  0.85889189726E+02 0.  0.
         13    1    3    3    0    0 -0.37614558798E+02  0.45612510656E+01 -0.15465441933E+02  0.40924944753E+02  0.10566000000E+00 0. -1.
         22    1    1    0    0    0 -0.88528736124E+01 -0.25484969013E+02  0.18990194193E+02  0.32992188353E+02  0.00000000000E+00 0. -1.
</event>
<event>
 5    1  0.1758488E-003  0.9118800E+02  0.7818608E-02  0.1130116E+00
         25   -1    0    0    0    0  0.00000000000E+00  0.00000000000E+00  0.99999998245E-14  0.12500000000E+03  0.12500000000E+03 0.  0.
        -13    1    3    3    0    0 -0.42837990595E+01 -0.25181636373E+02  0.25007657084E+02  0.35747165226E+02  0.10566000000E+00 0.  1.
         23    2    1    0    0    0  0.16632551255E+02  0.22906311669E+02 -0.51306743820E+01  0.96230837775E+02  0.91829785166E+02 0.  0.
         13    1    3    3    0    0  0.20916350315E+02  0.48087948042E+02 -0.30138331466E+02  0.60483672549E+02  0.10566000000E+00 0. -1.
         22    1    1    0    0    0 -0.16632551255E+02 -0.22906311669E+02  0.51306743820E+01  0.28769162225E+02  0.00000000000E+00 0. -1.
</event>
<event>
 5    1  0.1758488E-003  0.9118800E+02  0.7818608E-02  0.1130116E+00
         25   -1    0    0    0    0  0.00000000000E+00  0.00000000000E+00  0.99999998245E-14  0.12500000000E+03  0.12500000000E+03 0.  0.
        -13    1    3    3    0    0  0.11351328700E+02  0.71295794003E+01  0.35794143444E+02  0.38221923481E+02  0.10566000000E+00 0. -1.
         23    2    1    0    0    0  0.12267940113E+02 -0.22820481566E+02 -0.13405763925E+02  0.95828245855E+02  0.91280126335E+02 0.  0.
         13    1    3    3    0    0  0.91661141351E+00 -0.29950060966E+02 -0.49199907368E+02  0.57606322374E+02  0.10566000000E+00 0.  1.
         22    1    1    0    0    0 -0.12267940113E+02  0.22820481566E+02  0.13405763925E+02  0.29171754145E+02  0.00000000000E+00 0.  1.
</event>
<event>
 5    1  0.1758488E-003  0.9118800E+02  0.7818608E-02  0.1130116E+00
         25   -1    0    0    0    0  0.00000000000E+00  0.00000000000E+00  0.99999998245E-14  0.12500000000E+03  0.12500000000E+03 0.  0.
        -13    1    3    3    0    0  0.17733024949E+02 -0.91549724039E+01  0.54038027755E+02  0.57605497144E+02  0.10566000000E+00 0. -1.
         23    2    1    0    0    0  0.44020179151E+01  0.13063848040E+02  0.24415117944E+02  0.96961814047E+02  0.92819467310E+02 0.  0.
         13    1    3    3    0    0 -0.13331007034E+02  0.22218820443E+02 -0.29622909811E+02  0.39356316903E+02  0.10566000000E+00 0.  1.
         22    1    1    0    0    0 -0.44020179151E+01 -0.13063848040E+02 -0.24415117944E+02  0.28038185953E+02  0.00000000000E+00 0. -1.
</event>
<event>
 5    1  0.1758488E-003  0.9118800E+02  0.7818608E-02  0.1130116E+00
         25   -1    0    0    0    0  0.00000000000E+00  0.00000000000E+00  0.99999998245E-14  0.12500000000E+03  0.12500000000E+03 0.  0.
        -13    1    3    3    0    0 -0.23767868651E+01 -0.38686453601E+02 -0.39026357527E+02  0.55003259484E+02  0.10566000000E+00 0.  1.
         23    2    1    0    0    0  0.19630283147E+02 -0.16550229841E+02 -0.10598852219E+02  0.97222422846E+02  0.93169768227E+02 0.  0.
         13    1    3    3    0    0  0.22007070012E+02  0.22136223760E+02  0.28427505308E+02  0.42219163361E+02  0.10566000000E+00 0. -1.
         22    1    1    0    0    0 -0.19630283147E+02  0.16550229841E+02  0.10598852219E+02  0.27777577154E+02  0.00000000000E+00 0.  1.
</event>
<event>
 5    1  0.1758488E-003  0.9118800E+02  0.7818608E-02  0.1130116E+00
         25   -1    0    0    0    0  0.00000000000E+00  0.00000000000E+00  0.99999998245E-14  0.12500000000E+03  0.12500000000E+03 0.  0.
        -13    1    3    3    0    0  0.18987923871E+02 -0.43693853140E+02  0.36823118901E+02  0.60213348228E+02  0.10566000000E+00 0. -1.
         23    2    1    0    0    0  0.14122269915E+02 -0.91717276183E+01  0.19790142497E+02  0.99015219164E+02  0.95544778984E+02 0.  0.
         13    1    3    3    0    0 -0.48656539565E+01  0.34522125522E+02 -0.17032976404E+02  0.38801870937E+02  0.10566000000E+00 0.  1.
         22    1    1    0    0    0 -0.14122269915E+02  0.91717276183E+01 -0.19790142497E+02  0.25984780836E+02  0.00000000000E+00 0. -1.
</event>
<event>
 5    1  0.1758488E-003  0.9118800E+02  0.7818608E-02  0.1130116E+00
         25   -1    0    0    0    0  0.00000000000E+00  0.00000000000E+00  0.99999998245E-14  0.12500000000E+03  0.12500000000E+03 0.  0.
        -13    1    3    3    0    0 -0.41938119673E+02  0.36952393164E+02  0.14273306689E+02  0.57689025734E+02  0.10566000000E+00 0.  1.
         23    2    1    0    0    0 -0.10977721913E+02  0.22674789706E+02  0.20712831847E+02  0.92385925282E+02  0.86437730884E+02 0.  0.
         13    1    3    3    0    0  0.30960397760E+02 -0.14277603458E+02  0.64395251583E+01  0.34696899548E+02  0.10566000000E+00 0. -1.
         22    1    1    0    0    0  0.10977721913E+02 -0.22674789706E+02 -0.20712831847E+02  0.32614074718E+02  0.00000000000E+00 0.  1.
</event>
<event>
 5    1  0.1758488E-003  0.9118800E+02  0.7818608E-02  0.1130116E+00
         25   -1    0    0    0    0  0.00000000000E+00  0.00000000000E+00  0.99999998245E-14  0.12500000000E+03  0.12500000000E+03 0.  0.
        -13    1    3    3    0    0 -0.89663191551E+01 -0.28734897546E+02  0.20031689719E+02  0.36157557622E+02  0.10566000000E+00 0.  1.
         23    2    1    0    0    0  0.19916742845E+02  0.10290752612E+02 -0.16705841728E+02  0.97041792212E+02  0.92927111507E+02 0.  0.
         13    1    3    3    0    0  0.28883062000E+02  0.39025650158E+02 -0.36737531447E+02  0.60884234590E+02  0.10566000000E+00 0. -1.
         22    1    1    0    0    0 -0.19916742845E+02 -0.10290752612E+02  0.16705841728E+02  0.27958207788E+02  0.00000000000E+00 0. -1.
</event>
<event>
 5    1  0.1758488E-003  0.9118800E+02  0.7818608E-02  0.1130116E+00
         25   -1    0    0    0    0  0.00000000000E+00  0.00000000000E+00  0.99999998245E-14  0.12500000000E+03  0.12500000000E+03 0.  0.
        -13    1    3    3    0    0  0.37125360719E+02  0.38421733066E+02 -0.25417873123E+02  0.59165880526E+02  0.10566000000E+00 0. -1.
         23    2    1    0    0    0  0.20348149663E+02  0.65451840571E+01 -0.20248326637E+02  0.95557150942E+02  0.90908127994E+02 0.  0.
         13    1    3    3    0    0 -0.16777211056E+02 -0.31876549009E+02  0.51695464852E+01  0.36391270416E+02  0.10566000000E+00 0.  1.
         22    1    1    0    0    0 -0.20348149663E+02 -0.65451840571E+01  0.20248326637E+02  0.29442849058E+02  0.00000000000E+00 0. -1.
</event>
<event>
 5    1  0.1758488E-003  0.9118800E+02  0.7818608E-02  0.1130116E+00
         25   -1    0    0    0    0  0.00000000000E+00  0.00000000000E+00  0.99999998245E-14  0.12500000000E+03  0.12500000000E+03 0.  0.
        -13    1    3    3    0    0  0.25964585382E+02 -0.17373943887E+02 -0.28392424543E+02  0.42215572432E+02  0.10566000000E+00 0.  1.
         23    2    1    0    0    0  0.14111665219E+02  0.41560445964E+01  0.22145997072E+02  0.98413217791E+02  0.94753915210E+02 0.  0.
         13    1    3    3    0    0 -0.11852920164E+02  0.21529988483E+02  0.50538421615E+02  0.56197645359E+02  0.10566000000E+00 0. -1.
         22    1    1    0    0    0 -0.14111665219E+02 -0.41560445964E+01 -0.22145997072E+02  0.26586782209E+02  0.00000000000E+00 0. -1.
</event>
<event>
 5    1  0.1758488E-003  0.9118800E+02  0.7818608E-02  0.1130116E+00
         25   -1    0    0    0    0  0.00000000000E+00  0.00000000000E+00  0.99999998245E-14  0.12500000000E+03  0.12500000000E+03 0.  0.
        -13    1    3    3    0    0  0.14907814502E+02  0.27502351367E+02  0.17205985079E+02  0.35702651869E+02  0.10566000000E+00 0.  1.
         23    2    1    0    0    0 -0.25830950099E+02 -0.12357289751E+02 -0.30797415047E+01  0.96200253460E+02  0.91788143924E+02 0.  0.
         13    1    3    3    0    0 -0.40738764601E+02 -0.39859641118E+02 -0.20285726583E+02  0.60497601591E+02  0.10566000000E+00 0. -1.
         22    1    1    0    0    0  0.25830950099E+02  0.12357289751E+02  0.30797415047E+01  0.28799746540E+02  0.00000000000E+00 0. -1.
</event>
<event>
 5    1  0.1758488E-003  0.9118800E+02  0.7818608E-02  0.1130116E+00
         25   -1    0    0    0    0  0.00000000000E+00  0.00000000000E+00  0.99999998245E-14  0.12500000000E+03  0.12500000000E+03 0.  0.
        -13    1    3    3    0    0  0.32260466330E+02  0.37977996238E+02  0.26931998778E+02  0.56642824861E+02  0.10566000000E+00 0.  1.
         23    2    1    0    0    0  0.25120162263E+01  0.28929714122E+02  0.31461804764E+01  0.95791490345E+02  0.91229779054E+02 0.  0.
         13    1    3    3    0    0 -0.29748450104E+02 -0.90482821164E+01 -0.23785818301E+02  0.39148665483E+02  0.10566000000E+00 0. -1.
         22    1    1    0    0    0 -0.25120162263E+01 -0.28929714122E+02 -0.31461804764E+01  0.29208509655E+02  0.00000000000E+00 0.  1.
</event>
<event>
 5    1  0.1758488E-003  0.9118800E+02  0.7818608E-02  0.1130116E+00
         25   -1    0    0    0    0  0.00000000000E+00  0.00000000000E+00  0.99999998245E-14  0.12500000000E+03  0.12500000000E+03 0.  0.
        -13    1    3    3    0    0 -0.42004451242E+02  0.18283042919E+02  0.41713971888E+02  0.61957325614E+02  0.10566000000E+00 0.  1.
         23    2    1    0    0    0 -0.18018934482E+02  0.42470903493E+01  0.23060916675E+02  0.95427620079E+02  0.90729846355E+02 0.  0.
         13    1    3    3    0    0  0.23985516760E+02 -0.14035952569E+02 -0.18653055213E+02  0.33470294465E+02  0.10566000000E+00 0. -1.
         22    1    1    0    0    0  0.18018934482E+02 -0.42470903493E+01 -0.23060916675E+02  0.29572379921E+02  0.00000000000E+00 0.  1.
</event>
<event>
 5    1  0.1758488E-003  0.9118800E+02  0.7818608E-02  0.1130116E+00
         25   -1    0    0    0    0  0.00000000000E+00  0.00000000000E+00  0.99999998245E-14  0.12500000000E+03  0.12500000000E+03 0.  0.
        -13    1    3    3    0    0 -0.16139601793E+02  0.21776836084E+01  0.15209898071E+02  0.22284102299E+02  0.10566000000E+00 0.  1.
         23    2    1    0    0    0  0.31504984837E+02  0.30799455696E+02 -0.31760272598E+01  0.80826957430E+02  0.67688546723E+02 0.  0.
         13    1    3    3    0    0  0.47644586629E+02  0.28621772088E+02 -0.18385925331E+02  0.58542855131E+02  0.10566000000E+00 0. -1.
         22    1    1    0    0    0 -0.31504984837E+02 -0.30799455696E+02  0.31760272598E+01  0.44173042570E+02  0.00000000000E+00 0. -1.
</event>
<event>
 5    1  0.1758488E-003  0.9118800E+02  0.7818608E-02  0.1130116E+00
         25   -1    0    0    0    0  0.00000000000E+00  0.00000000000E+00  0.99999998245E-14  0.12500000000E+03  0.12500000000E+03 0.  0.
        -13    1    3    3    0    0 -0.39794157984E+02  0.60657381910E+01 -0.21146389398E+02  0.45470310513E+02  0.10566000000E+00 0. -1.
         23    2    1    0    0    0 -0.23540006360E+01  0.13684211423E+01 -0.38075170640E+02  0.86827594854E+02  0.77986529051E+02 0.  0.
         13    1    3    3    0    0  0.37440157348E+02 -0.46973170487E+01 -0.16928781241E+02  0.41357284341E+02  0.10566000000E+00 0.  1.
         22    1    1    0    0    0  0.23540006360E+01 -0.13684211423E+01  0.38075170640E+02  0.38172405146E+02  0.00000000000E+00 0.  1.
</event>
<event>
 5    1  0.1758488E-003  0.9118800E+02  0.7818608E-02  0.1130116E+00
         25   -1    0    0    0    0  0.00000000000E+00  0.00000000000E+00  0.99999998245E-14  0.12500000000E+03  0.12500000000E+03 0.  0.
        -13    1    3    3    0    0 -0.26517086717E+01 -0.66251464266E+01 -0.52654686931E+02  0.53136158536E+02  0.10566000000E+00 0.  1.
         23    2    1    0    0    0 -0.16170662797E+02 -0.20363246681E+02 -0.16225804923E+02  0.94349895659E+02  0.89232695324E+02 0.  0.
         13    1    3    3    0    0 -0.13518954125E+02 -0.13738100255E+02  0.36428882009E+02  0.41213737124E+02  0.10566000000E+00 0. -1.
         22    1    1    0    0    0  0.16170662797E+02  0.20363246681E+02  0.16225804923E+02  0.30650104341E+02  0.00000000000E+00 0.  1.
</event>
<event>
 5    1  0.1758488E-003  0.9118800E+02  0.7818608E-02  0.1130116E+00
         25   -1    0    0    0    0  0.00000000000E+00  0.00000000000E+00  0.99999998245E-14  0.12500000000E+03  0.12500000000E+03 0.  0.
        -13    1    3    3    0    0  0.24619358883E+02  0.31521792326E+02 -0.42294741461E+02  0.58211618621E+02  0.10566000000E+00 0.  1.
         23    2    1    0    0    0 -0.43538550291E+01  0.18153312055E+02 -0.22509246127E+02  0.95756796458E+02  0.91182230256E+02 0.  0.
         13    1    3    3    0    0 -0.28973213912E+02 -0.13368480270E+02  0.19785495333E+02  0.37545177837E+02  0.10566000000E+00 0. -1.
         22    1    1    0    0    0  0.43538550291E+01 -0.18153312055E+02  0.22509246127E+02  0.29243203542E+02  0.00000000000E+00 0.  1.
</event>
<event>
 5    1  0.1758488E-003  0.9118800E+02  0.7818608E-02  0.1130116E+00
         25   -1    0    0    0    0  0.00000000000E+00  0.00000000000E+00  0.99999998245E-14  0.12500000000E+03  0.12500000000E+03 0.  0.
        -13    1    3    3    0    0  0.41179504965E+02  0.29483221228E+02 -0.53455681957E+01  0.50927381894E+02  0.10566000000E+00 0. -1.
         23    2    1    0    0    0  0.87114809712E+01  0.11287043112E+02  0.23156187964E+02  0.97806319044E+02  0.93949878983E+02 0.  0.
         13    1    3    3    0    0 -0.32468023994E+02 -0.18196178117E+02  0.28501756160E+02  0.46878937150E+02  0.10566000000E+00 0.  1.
         22    1    1    0    0    0 -0.87114809712E+01 -0.11287043112E+02 -0.23156187964E+02  0.27193680956E+02  0.00000000000E+00 0. -1.
</event>
<event>
 5    1  0.1758488E-003  0.9118800E+02  0.7818608E-02  0.1130116E+00
         25   -1    0    0    0    0  0.00000000000E+00  0.00000000000E+00  0.99999998245E-14  0.12500000000E+03  0.12500000000E+03 0.  0.
        -13    1    3    3    0    0  0.12556071614E+02 -0.15654527072E+02 -0.56154815319E+02  0.59632990867E+02  0.10566000000E+00 0.  1.
         23    2    1    0    0    0  0.79493600918E+01  0.59414649432E+01 -0.27191150987E+02  0.96054326342E+02  0.91589200158E+02 0.  0.
         13    1    3    3    0    0 -0.46067115222E+01  0.21595992015E+02  0.28963664333E+02  0.36421335475E+02  0.10566000000E+00 0. -1.
         22    1    1    0    0    0 -0.79493600918E+01 -0.59414649432E+01  0.27191150987E+02  0.28945673658E+02  0.00000000000E+00 0.  1.
</event>
<event>
 5    1  0.1758488E-003  0.9118800E+02  0.7818608E-02  0.1130116E+00
         25   -1    0    0    0    0  0.00000000000E+00  0.00000000000E+00  0.99999998245E-14  0.12500000000E+03  0.12500000000E+03 0.  0.
        -13    1    3    3    0    0 -0.15645465057E+02 -0.44009640214E+02  0.23283533458E+02  0.52189683875E+02  0.10566000000E+00 0.  1.
         23    2    1    0    0    0 -0.12555114615E+02 -0.22276439074E+02 -0.14290854654E+02  0.95706670255E+02  0.91113487277E+02 0.  0.
         13    1    3    3    0    0  0.30903504426E+01  0.21733201140E+02 -0.37574388112E+02  0.43516986381E+02  0.10566000000E+00 0. -1.
         22    1    1    0    0    0  0.12555114615E+02  0.22276439074E+02  0.14290854654E+02  0.29293329745E+02  0.00000000000E+00 0. -1.
</event>
<event>
 5    1  0.1758488E-003  0.9118800E+02  0.7818608E-02  0.1130116E+00
         25   -1    0    0    0    0  0.00000000000E+00  0.00000000000E+00  0.99999998245E-14  0.12500000000E+03  0.12500000000E+03 0.  0.
        -13    1    3    3    0    0  0.63621046611E+01  0.21366787477E+02  0.25489889546E+02  0.33863868886E+02  0.10566000000E+00 0.  1.
         23    2    1    0    0    0 -0.63374698251E+01 -0.18045336524E+02 -0.21318914096E+02  0.96359228497E+02  0.92004386440E+02 0.  0.
         13    1    3    3    0    0 -0.12699574486E+02 -0.39412124001E+02 -0.46808803643E+02  0.62495359611E+02  0.10566000000E+00 0. -1.
         22    1    1    0    0    0  0.63374698251E+01  0.18045336524E+02  0.21318914096E+02  0.28640771503E+02  0.00000000000E+00 0. -1.
</event>
<event>
 5    1  0.1758488E-003  0.9118800E+02  0.7818608E-02  0.1130116E+00
         25   -1    0    0    0    0  0.00000000000E+00  0.00000000000E+00  0.99999998245E-14  0.12500000000E+03  0.12500000000E+03 0.  0.
        -13    1    3    3    0    0 -0.27905194216E+02  0.35017520007E+02 -0.36821793791E+02  0.57972253999E+02  0.10566000000E+00 0. -1.
         23    2    1    0    0    0 -0.25853871547E+02  0.71572188296E+01 -0.11026834138E+02  0.95995870527E+02  0.91509385485E+02 0.  0.
         13    1    3    3    0    0  0.20513226683E+01 -0.27860301178E+02  0.25794959653E+02  0.38023616529E+02  0.10566000000E+00 0.  1.
         22    1    1    0    0    0  0.25853871547E+02 -0.71572188296E+01  0.11026834138E+02  0.29004129473E+02  0.00000000000E+00 0. -1.
</event>
<event>
 5    1  0.1758488E-003  0.9118800E+02  0.7818608E-02  0.1130116E+00
         25   -1    0    0    0    0  0.00000000000E+00  0.00000000000E+00  0.99999998245E-14  0.12500000000E+03  0.12500000000E+03 0.  0.
        -13    1    3    3    0    0  0.37878106897E+02  0.29193557494E+02  0.66938976248E+01  0.48289069268E+02  0.10566000000E+00 0.  1.
         23    2    1    0    0    0 -0.74047542518E+01  0.29415255138E+02  0.81336549252E+01  0.93595478625E+02  0.88169550618E+02 0.  0.
         13    1    3    3    0    0 -0.45282861149E+02  0.22169764410E+00  0.14397573004E+01  0.45306409357E+02  0.10566000000E+00 0. -1.
         22    1    1    0    0    0  0.74047542518E+01 -0.29415255138E+02 -0.81336549252E+01  0.31404521375E+02  0.00000000000E+00 0. -1.
</event>
<event>
 5    1  0.1758488E-003  0.9118800E+02  0.7818608E-02  0.1130116E+00
         25   -1    0    0    0    0  0.00000000000E+00  0.00000000000E+00  0.99999998245E-14  0.12500000000E+03  0.12500000000E+03 0.  0.
        -13    1    3    3    0    0  0.15200456758E+02  0.93696487613E+01  0.54577157099E+02  0.57424049357E+02  0.10566000000E+00 0.  1.
         23    2    1    0    0    0  0.21853306881E+02  0.83415378697E+01  0.15820647490E+02  0.96760999263E+02  0.92548634867E+02 0.  0.
         13    1    3    3    0    0  0.66528501230E+01 -0.10281108917E+01 -0.38756509609E+02  0.39336949906E+02  0.10566000000E+00 0. -1.
         22    1    1    0    0    0 -0.21853306881E+02 -0.83415378697E+01 -0.15820647490E+02  0.28239000737E+02  0.00000000000E+00 0.  1.
</event>
<event>
 5    1  0.1758488E-003  0.9118800E+02  0.7818608E-02  0.1130116E+00
         25   -1    0    0    0    0  0.00000000000E+00  0.00000000000E+00  0.99999998245E-14  0.12500000000E+03  0.12500000000E+03 0.  0.
        -13    1    3    3    0    0 -0.35455386781E+02  0.18404572928E+02 -0.41367401192E+02  0.57507267383E+02  0.10566000000E+00 0.  1.
         23    2    1    0    0    0 -0.27270724314E+02  0.97544541527E+01 -0.52139208438E+01  0.95571667546E+02  0.90928086346E+02 0.  0.
         13    1    3    3    0    0  0.81846624662E+01 -0.86501187756E+01  0.36153480348E+02  0.38064400163E+02  0.10566000000E+00 0. -1.
         22    1    1    0    0    0  0.27270724314E+02 -0.97544541527E+01  0.52139208438E+01  0.29428332454E+02  0.00000000000E+00 0.  1.
</event>
<event>
 5    1  0.1758488E-003  0.9118800E+02  0.7818608E-02  0.1130116E+00
         25   -1    0    0    0    0  0.00000000000E+00  0.00000000000E+00  0.99999998245E-14  0.12500000000E+03  0.12500000000E+03 0.  0.
        -13    1    3    3    0    0 -0.23192342333E+02  0.46720076091E+02 -0.34373360796E+02  0.62467506347E+02  0.10566000000E+00 0.  1.
         23    2    1    0    0    0 -0.10012880663E+02  0.22485446739E+02 -0.15035031429E+02  0.96157232027E+02  0.91729537265E+02 0.  0.
         13    1    3    3    0    0  0.13179461671E+02 -0.24234629351E+02  0.19338329366E+02  0.33689725680E+02  0.10566000000E+00 0. -1.
         22    1    1    0    0    0  0.10012880663E+02 -0.22485446739E+02  0.15035031429E+02  0.28842767973E+02  0.00000000000E+00 0.  1.
</event>
<event>
 5    1  0.1758488E-003  0.9118800E+02  0.7818608E-02  0.1130116E+00
         25   -1    0    0    0    0  0.00000000000E+00  0.00000000000E+00  0.99999998245E-14  0.12500000000E+03  0.12500000000E+03 0.  0.
        -13    1    3    3    0    0  0.38494932511E+02 -0.44066846416E+01  0.23110254273E+02  0.45115116259E+02  0.10566000000E+00 0.  1.
         23    2    1    0    0    0  0.17719973640E+02  0.24967601728E+01 -0.22822583047E+02  0.95998248776E+02  0.91512634067E+02 0.  0.
         13    1    3    3    0    0 -0.20774958871E+02  0.69034448144E+01 -0.45932837320E+02  0.50883132516E+02  0.10566000000E+00 0. -1.
         22    1    1    0    0    0 -0.17719973640E+02 -0.24967601728E+01  0.22822583047E+02  0.29001751224E+02  0.00000000000E+00 0. -1.
</event>
<event>
 5    1  0.1758488E-003  0.9118800E+02  0.7818608E-02  0.1130116E+00
         25   -1    0    0    0    0  0.00000000000E+00  0.00000000000E+00  0.99999998245E-14  0.12500000000E+03  0.12500000000E+03 0.  0.
        -13    1    3    3    0    0  0.32354024403E+02 -0.54168928237E+01 -0.51080156534E+02  0.60706829752E+02  0.10566000000E+00 0.  1.
         23    2    1    0    0    0  0.14427937516E+02  0.81290907360E+01 -0.22547516399E+02  0.97024332127E+02  0.92903622275E+02 0.  0.
         13    1    3    3    0    0 -0.17926086887E+02  0.13545983560E+02  0.28532640135E+02  0.36317502375E+02  0.10566000000E+00 0. -1.
         22    1    1    0    0    0 -0.14427937516E+02 -0.81290907360E+01  0.22547516399E+02  0.27975667873E+02  0.00000000000E+00 0.  1.
</event>
<event>
 5    1  0.1758488E-003  0.9118800E+02  0.7818608E-02  0.1130116E+00
         25   -1    0    0    0    0  0.00000000000E+00  0.00000000000E+00  0.99999998245E-14  0.12500000000E+03  0.12500000000E+03 0.  0.
        -13    1    3    3    0    0  0.39994195297E+02  0.66367116628E+01 -0.46779671342E+01  0.40810245524E+02  0.10566000000E+00 0. -1.
         23    2    1    0    0    0 -0.10686896318E+02  0.14561406270E+02 -0.23420094129E+02  0.95423909750E+02  0.90724734430E+02 0.  0.
         13    1    3    3    0    0 -0.50681091615E+02  0.79246946067E+01 -0.18742126995E+02  0.54613664226E+02  0.10566000000E+00 0.  1.
         22    1    1    0    0    0  0.10686896318E+02 -0.14561406270E+02  0.23420094129E+02  0.29576090250E+02  0.00000000000E+00 0.  1.
</event>
<event>
 5    1  0.1758488E-003  0.9118800E+02  0.7818608E-02  0.1130116E+00
         25   -1    0    0    0    0  0.00000000000E+00  0.00000000000E+00  0.99999998245E-14  0.12500000000E+03  0.12500000000E+03 0.  0.
        -13    1    3    3    0    0  0.32916504341E+02 -0.48627652672E+01 -0.78144559421E+01  0.34179228045E+02  0.10566000000E+00 0. -1.
         23    2    1    0    0    0 -0.25113794439E+02  0.58382077203E+01 -0.17306782323E+02  0.93946625709E+02  0.88665982356E+02 0.  0.
         13    1    3    3    0    0 -0.58030298779E+02  0.10700972987E+02 -0.94923263813E+01  0.59767397663E+02  0.10566000000E+00 0.  1.
         22    1    1    0    0    0  0.25113794439E+02 -0.58382077203E+01  0.17306782323E+02  0.31053374291E+02  0.00000000000E+00 0.  1.
</event>
<event>
 5    1  0.1758488E-003  0.9118800E+02  0.7818608E-02  0.1130116E+00
         25   -1    0    0    0    0  0.00000000000E+00  0.00000000000E+00  0.99999998245E-14  0.12500000000E+03  0.12500000000E+03 0.  0.
        -13    1    3    3    0    0  0.26990802725E+02  0.18925430557E+02 -0.48382165424E+02  0.58545029240E+02  0.10566000000E+00 0.  1.
         23    2    1    0    0    0  0.24466197174E+02  0.41489875414E+01 -0.12970161313E+02  0.96999393109E+02  0.92870061253E+02 0.  0.
         13    1    3    3    0    0 -0.25246055513E+01 -0.14776443016E+02  0.35412004111E+02  0.38454363869E+02  0.10566000000E+00 0. -1.
         22    1    1    0    0    0 -0.24466197174E+02 -0.41489875414E+01  0.12970161313E+02  0.28000606891E+02  0.00000000000E+00 0.  1.
</event>
<event>
 5    1  0.1758488E-003  0.9118800E+02  0.7818608E-02  0.1130116E+00
         25   -1    0    0    0    0  0.00000000000E+00  0.00000000000E+00  0.99999998245E-14  0.12500000000E+03  0.12500000000E+03 0.  0.
        -13    1    3    3    0    0 -0.38240353569E+02 -0.30191842742E+02  0.35450240438E+02  0.60254482990E+02  0.10566000000E+00 0. -1.
         23    2    1    0    0    0 -0.79822441882E+01 -0.17654494102E+02  0.22061856169E+02  0.95638070875E+02  0.91019326073E+02 0.  0.
         13    1    3    3    0    0  0.30258109381E+02  0.12537348640E+02 -0.13388384269E+02  0.35383587885E+02  0.10566000000E+00 0.  1.
         22    1    1    0    0    0  0.79822441882E+01  0.17654494102E+02 -0.22061856169E+02  0.29361929125E+02  0.00000000000E+00 0. -1.
</event>
<event>
 5    1  0.1758488E-003  0.9118800E+02  0.7818608E-02  0.1130116E+00
         25   -1    0    0    0    0  0.00000000000E+00  0.00000000000E+00  0.99999998245E-14  0.12500000000E+03  0.12500000000E+03 0.  0.
        -13    1    3    3    0    0 -0.51173366111E+02 -0.15092506104E+02 -0.29777136834E+02  0.61099805087E+02  0.10566000000E+00 0.  1.
         23    2    1    0    0    0 -0.19133892895E+02 -0.79339639022E+01 -0.21889316725E+02  0.94863712451E+02  0.89949586507E+02 0.  0.
         13    1    3    3    0    0  0.32039473216E+02  0.71585422014E+01  0.78878201083E+01  0.33763907364E+02  0.10566000000E+00 0. -1.
         22    1    1    0    0    0  0.19133892895E+02  0.79339639022E+01  0.21889316725E+02  0.30136287549E+02  0.00000000000E+00 0.  1.
</event>
<event>
 5    1  0.1758488E-003  0.9118800E+02  0.7818608E-02  0.1130116E+00
         25   -1    0    0    0    0  0.00000000000E+00  0.00000000000E+00  0.99999998245E-14  0.12500000000E+03  0.12500000000E+03 0.  0.
        -13    1    3    3    0    0 -0.17601010888E+02  0.16342276748E+02 -0.10090731684E+02  0.26051864109E+02  0.10566000000E+00 0.  1.
         23    2    1    0    0    0 -0.35480375854E+01 -0.39946631932E+02 -0.26188593850E+00  0.84895255172E+02  0.74825221637E+02 0.  0.
         13    1    3    3    0    0  0.14052973302E+02 -0.56288908681E+02  0.98288457456E+01  0.58843391063E+02  0.10566000000E+00 0. -1.
         22    1    1    0    0    0  0.35480375854E+01  0.39946631932E+02  0.26188593850E+00  0.40104744828E+02  0.00000000000E+00 0. -1.
</event>
<event>
 5    1  0.1758488E-003  0.9118800E+02  0.7818608E-02  0.1130116E+00
         25   -1    0    0    0    0  0.00000000000E+00  0.00000000000E+00  0.99999998245E-14  0.12500000000E+03  0.12500000000E+03 0.  0.
        -13    1    3    3    0    0  0.62910305367E+01  0.38581519173E+02 -0.23856202783E+01  0.39163925174E+02  0.10566000000E+00 0.  1.
         23    2    1    0    0    0  0.22681769436E+02 -0.15982848947E+02 -0.71809993257E+01  0.96338512311E+02  0.91976236484E+02 0.  0.
         13    1    3    3    0    0  0.16390738900E+02 -0.54564368120E+02 -0.47953790475E+01  0.57174587137E+02  0.10566000000E+00 0. -1.
         22    1    1    0    0    0 -0.22681769436E+02  0.15982848947E+02  0.71809993257E+01  0.28661487689E+02  0.00000000000E+00 0.  1.
</event>
<event>
 5    1  0.1758488E-003  0.9118800E+02  0.7818608E-02  0.1130116E+00
         25   -1    0    0    0    0  0.00000000000E+00  0.00000000000E+00  0.99999998245E-14  0.12500000000E+03  0.12500000000E+03 0.  0.
        -13    1    3    3    0    0  0.20109926865E+02  0.30127002932E+02 -0.93187240727E+01  0.37401808065E+02  0.10566000000E+00 0.  1.
         23    2    1    0    0    0  0.12194048579E+02 -0.22072637293E+02  0.15138438766E+02  0.95587953725E+02  0.90950472409E+02 0.  0.
         13    1    3    3    0    0 -0.79158782863E+01 -0.52199640225E+02  0.24457162838E+02  0.58186145660E+02  0.10566000000E+00 0. -1.
         22    1    1    0    0    0 -0.12194048579E+02  0.22072637293E+02 -0.15138438766E+02  0.29412046275E+02  0.00000000000E+00 0. -1.
</event>
<event>
 5    1  0.1758488E-003  0.9118800E+02  0.7818608E-02  0.1130116E+00
         25   -1    0    0    0    0  0.00000000000E+00  0.00000000000E+00  0.99999998245E-14  0.12500000000E+03  0.12500000000E+03 0.  0.
        -13    1    3    3    0    0  0.22911095059E+00 -0.28696223237E+02  0.19021206353E+02  0.34428813152E+02  0.10566000000E+00 0. -1.
         23    2    1    0    0    0 -0.51225290991E+01  0.18954573153E+02 -0.20534452992E+02  0.96589088232E+02  0.92316152748E+02 0.  0.
         13    1    3    3    0    0 -0.53516400497E+01  0.47650796390E+02 -0.39555659345E+02  0.62160275080E+02  0.10566000000E+00 0.  1.
         22    1    1    0    0    0  0.51225290991E+01 -0.18954573153E+02  0.20534452992E+02  0.28410911768E+02  0.00000000000E+00 0.  1.
</event>
<event>
 5    1  0.1758488E-003  0.9118800E+02  0.7818608E-02  0.1130116E+00
         25   -1    0    0    0    0  0.00000000000E+00  0.00000000000E+00  0.99999998245E-14  0.12500000000E+03  0.12500000000E+03 0.  0.
        -13    1    3    3    0    0 -0.92733678193E+01  0.13549113338E+02  0.43748100449E+02  0.46727735659E+02  0.10566000000E+00 0. -1.
         23    2    1    0    0    0  0.25371495705E+02  0.10668044482E+02  0.85990968172E+01  0.96164875005E+02  0.91739951773E+02 0.  0.
         13    1    3    3    0    0  0.34644863525E+02 -0.28810688562E+01 -0.35149003631E+02  0.49437139346E+02  0.10566000000E+00 0.  1.
         22    1    1    0    0    0 -0.25371495705E+02 -0.10668044482E+02 -0.85990968172E+01  0.28835124995E+02  0.00000000000E+00 0.  1.
</event>
<event>
 5    1  0.1758488E-003  0.9118800E+02  0.7818608E-02  0.1130116E+00
         25   -1    0    0    0    0  0.00000000000E+00  0.00000000000E+00  0.99999998245E-14  0.12500000000E+03  0.12500000000E+03 0.  0.
        -13    1    3    3    0    0 -0.38643929341E+01  0.98579076142E+01 -0.35828423788E+02  0.37360393339E+02  0.10566000000E+00 0. -1.
         23    2    1    0    0    0  0.14379666829E+02  0.19397437378E+02  0.17929024842E+02  0.94925337463E+02  0.90035184044E+02 0.  0.
         13    1    3    3    0    0  0.18244059763E+02  0.95395297635E+01  0.53757448630E+02  0.57564944124E+02  0.10566000000E+00 0.  1.
         22    1    1    0    0    0 -0.14379666829E+02 -0.19397437378E+02 -0.17929024842E+02  0.30074662537E+02  0.00000000000E+00 0.  1.
</event>
<event>
 5    1  0.1758488E-003  0.9118800E+02  0.7818608E-02  0.1130116E+00
         25   -1    0    0    0    0  0.00000000000E+00  0.00000000000E+00  0.99999998245E-14  0.12500000000E+03  0.12500000000E+03 0.  0.
        -13    1    3    3    0    0  0.17941873011E+02  0.47021778563E+02 -0.24651926150E+02  0.56041833422E+02  0.10566000000E+00 0.  1.
         23    2    1    0    0    0  0.21577412766E+02  0.80993909730E+01 -0.59122478428E+00  0.10194496969E+03  0.99303788562E+02 0.  0.
         13    1    3    3    0    0  0.36355397551E+01 -0.38922387590E+02  0.24060701366E+02  0.45903136269E+02  0.10566000000E+00 0. -1.
         22    1    1    0    0    0 -0.21577412766E+02 -0.80993909730E+01  0.59122478428E+00  0.23055030309E+02  0.00000000000E+00 0.  1.
</event>
<event>
 5    1  0.1758488E-003  0.9118800E+02  0.7818608E-02  0.1130116E+00
         25   -1    0    0    0    0  0.00000000000E+00  0.00000000000E+00  0.99999998245E-14  0.12500000000E+03  0.12500000000E+03 0.  0.
        -13    1    3    3    0    0  0.38038351680E+02 -0.18827304425E+02  0.35894060117E+02  0.55585774315E+02  0.10566000000E+00 0.  1.
         23    2    1    0    0    0  0.77990031970E+01 -0.26230152210E+02  0.10768204804E+02  0.95592525261E+02  0.90956755193E+02 0.  0.
         13    1    3    3    0    0 -0.30239348483E+02 -0.74028477847E+01 -0.25125855314E+02  0.40006750946E+02  0.10566000000E+00 0. -1.
         22    1    1    0    0    0 -0.77990031970E+01  0.26230152210E+02 -0.10768204804E+02  0.29407474739E+02  0.00000000000E+00 0.  1.
</event>
<event>
 5    1  0.1758488E-003  0.9118800E+02  0.7818608E-02  0.1130116E+00
         25   -1    0    0    0    0  0.00000000000E+00  0.00000000000E+00  0.99999998245E-14  0.12500000000E+03  0.12500000000E+03 0.  0.
        -13    1    3    3    0    0 -0.40016289797E+02  0.23893874370E+02 -0.33765335622E+02  0.57552842981E+02  0.10566000000E+00 0.  1.
         23    2    1    0    0    0 -0.73631494151E+01  0.14567627133E+01 -0.26016403246E+02  0.97922493380E+02  0.94104321606E+02 0.  0.
         13    1    3    3    0    0  0.32653140381E+02 -0.22437111657E+02  0.77489323765E+01  0.40369650399E+02  0.10566000000E+00 0. -1.
         22    1    1    0    0    0  0.73631494151E+01 -0.14567627133E+01  0.26016403246E+02  0.27077506620E+02  0.00000000000E+00 0.  1.
</event>
<event>
 5    1  0.1758488E-003  0.9118800E+02  0.7818608E-02  0.1130116E+00
         25   -1    0    0    0    0  0.00000000000E+00  0.00000000000E+00  0.99999998245E-14  0.12500000000E+03  0.12500000000E+03 0.  0.
        -13    1    3    3    0    0 -0.16908070299E+02 -0.20367936744E+02 -0.30037534762E+02  0.40037486773E+02  0.10566000000E+00 0. -1.
         23    2    1    0    0    0  0.21106849875E+02  0.16281425322E+02 -0.10839151734E+02  0.96223774875E+02  0.91820170544E+02 0.  0.
         13    1    3    3    0    0  0.38014920174E+02  0.36649362066E+02  0.19198383029E+02  0.56186288102E+02  0.10566000000E+00 0.  1.
         22    1    1    0    0    0 -0.21106849875E+02 -0.16281425322E+02  0.10839151734E+02  0.28776225125E+02  0.00000000000E+00 0.  1.
</event>
<event>
 5    1  0.1758488E-003  0.9118800E+02  0.7818608E-02  0.1130116E+00
         25   -1    0    0    0    0  0.00000000000E+00  0.00000000000E+00  0.99999998245E-14  0.12500000000E+03  0.12500000000E+03 0.  0.
        -13    1    3    3    0    0  0.20775094998E+01 -0.41119489429E+02  0.41173271493E+02  0.58226951716E+02  0.10566000000E+00 0.  1.
         23    2    1    0    0    0  0.44111660487E+00 -0.69966047113E+01  0.30032828706E+02  0.94159801210E+02  0.88966006443E+02 0.  0.
         13    1    3    3    0    0 -0.16363928949E+01  0.34122884718E+02 -0.11140442788E+02  0.35932849494E+02  0.10566000000E+00 0. -1.
         22    1    1    0    0    0 -0.44111660487E+00  0.69966047113E+01 -0.30032828706E+02  0.30840198790E+02  0.00000000000E+00 0.  1.
</event>
<event>
 5    1  0.1758488E-003  0.9118800E+02  0.7818608E-02  0.1130116E+00
         25   -1    0    0    0    0  0.00000000000E+00  0.00000000000E+00  0.99999998245E-14  0.12500000000E+03  0.12500000000E+03 0.  0.
        -13    1    3    3    0    0  0.45132104890E+02  0.28841905961E+01  0.38011892789E+02  0.59077411967E+02  0.10566000000E+00 0. -1.
         23    2    1    0    0    0  0.10548784402E+02 -0.35675746778E+01  0.26763801438E+02  0.96011976459E+02  0.91531383223E+02 0.  0.
         13    1    3    3    0    0 -0.34583320488E+02 -0.64517652739E+01 -0.11248091352E+02  0.36934564492E+02  0.10566000000E+00 0.  1.
         22    1    1    0    0    0 -0.10548784402E+02  0.35675746778E+01 -0.26763801438E+02  0.28988023541E+02  0.00000000000E+00 0. -1.
</event>
<event>
 5    1  0.1758488E-003  0.9118800E+02  0.7818608E-02  0.1130116E+00
         25   -1    0    0    0    0  0.00000000000E+00  0.00000000000E+00  0.99999998245E-14  0.12500000000E+03  0.12500000000E+03 0.  0.
        -13    1    3    3    0    0 -0.30371807489E+02 -0.38915705784E+02 -0.32977881193E+02  0.59366915524E+02  0.10566000000E+00 0.  1.
         23    2    1    0    0    0 -0.20360889217E+02 -0.23631080199E+02 -0.41012309735E+01  0.93538692707E+02  0.88089007128E+02 0.  0.
         13    1    3    3    0    0  0.10010918272E+02  0.15284625586E+02  0.28876650220E+02  0.34171777183E+02  0.10566000000E+00 0. -1.
         22    1    1    0    0    0  0.20360889217E+02  0.23631080199E+02  0.41012309735E+01  0.31461307293E+02  0.00000000000E+00 0.  1.
</event>
<event>
 5    1  0.1758488E-003  0.9118800E+02  0.7818608E-02  0.1130116E+00
         25   -1    0    0    0    0  0.00000000000E+00  0.00000000000E+00  0.99999998245E-14  0.12500000000E+03  0.12500000000E+03 0.  0.
        -13    1    3    3    0    0 -0.87791116343E+01  0.12294594625E+02 -0.34033551590E+02  0.37236053173E+02  0.10566000000E+00 0. -1.
         23    2    1    0    0    0 -0.35131994691E+02 -0.85245718641E+01  0.47476673095E+01  0.88538160752E+02  0.80681721524E+02 0.  0.
         13    1    3    3    0    0 -0.26352883057E+02 -0.20819166489E+02  0.38781218899E+02  0.51302107579E+02  0.10566000000E+00 0.  1.
         22    1    1    0    0    0  0.35131994691E+02  0.85245718641E+01 -0.47476673095E+01  0.36461839248E+02  0.00000000000E+00 0.  1.
</event>
<event>
 5    1  0.1758488E-003  0.9118800E+02  0.7818608E-02  0.1130116E+00
         25   -1    0    0    0    0  0.00000000000E+00  0.00000000000E+00  0.99999998245E-14  0.12500000000E+03  0.12500000000E+03 0.  0.
        -13    1    3    3    0    0  0.44167681374E+02 -0.23546453152E+02 -0.15162695374E+02  0.52298547102E+02  0.10566000000E+00 0. -1.
         23    2    1    0    0    0  0.12640426551E+02 -0.19089642948E+02  0.16169878438E+02  0.96970376028E+02  0.92830997016E+02 0.  0.
         13    1    3    3    0    0 -0.31527254823E+02  0.44568102034E+01  0.31332573812E+02  0.44671828926E+02  0.10566000000E+00 0.  1.
         22    1    1    0    0    0 -0.12640426551E+02  0.19089642948E+02 -0.16169878438E+02  0.28029623972E+02  0.00000000000E+00 0. -1.
</event>
<event>
 5    1  0.1758488E-003  0.9118800E+02  0.7818608E-02  0.1130116E+00
         25   -1    0    0    0    0  0.00000000000E+00  0.00000000000E+00  0.99999998245E-14  0.12500000000E+03  0.12500000000E+03 0.  0.
        -13    1    3    3    0    0 -0.68396521523E+01  0.34378508290E+02 -0.88382220831E+01  0.36149522922E+02  0.10566000000E+00 0. -1.
         23    2    1    0    0    0 -0.15416680990E+02 -0.18225938228E+02  0.17305612057E+02  0.95515375436E+02  0.90850667906E+02 0.  0.
         13    1    3    3    0    0 -0.85770288378E+01 -0.52604446518E+02  0.26143834140E+02  0.59365852514E+02  0.10566000000E+00 0.  1.
         22    1    1    0    0    0  0.15416680990E+02  0.18225938228E+02 -0.17305612057E+02  0.29484624564E+02  0.00000000000E+00 0.  1.
</event>
<event>
 5    1  0.1758488E-003  0.9118800E+02  0.7818608E-02  0.1130116E+00
         25   -1    0    0    0    0  0.00000000000E+00  0.00000000000E+00  0.99999998245E-14  0.12500000000E+03  0.12500000000E+03 0.  0.
        -13    1    3    3    0    0  0.35093337805E+02 -0.24272043848E+02  0.30655893934E+02  0.52540170040E+02  0.10566000000E+00 0. -1.
         23    2    1    0    0    0  0.97975799687E+01 -0.23967674342E+02 -0.72488845317E+01  0.98111557993E+02  0.94355124388E+02 0.  0.
         13    1    3    3    0    0 -0.25295757837E+02  0.30436950563E+00 -0.37904778466E+02  0.45571387953E+02  0.10566000000E+00 0.  1.
         22    1    1    0    0    0 -0.97975799687E+01  0.23967674342E+02  0.72488845317E+01  0.26888442007E+02  0.00000000000E+00 0.  1.
</event>
<event>
 5    1  0.1758488E-003  0.9118800E+02  0.7818608E-02  0.1130116E+00
         25   -1    0    0    0    0  0.00000000000E+00  0.00000000000E+00  0.99999998245E-14  0.12500000000E+03  0.12500000000E+03 0.  0.
        -13    1    3    3    0    0 -0.45653280163E+02  0.24667119771E+01  0.37726388087E+02  0.59275612015E+02  0.10566000000E+00 0. -1.
         23    2    1    0    0    0 -0.12500419675E+02 -0.63768099124E+01  0.25852739634E+02  0.95584216086E+02  0.90945335347E+02 0.  0.
         13    1    3    3    0    0  0.33152860488E+02 -0.88435218895E+01 -0.11873648454E+02  0.36308604071E+02  0.10566000000E+00 0.  1.
         22    1    1    0    0    0  0.12500419675E+02  0.63768099124E+01 -0.25852739634E+02  0.29415783914E+02  0.00000000000E+00 0. -1.
</event>
<event>
 5    1  0.1758488E-003  0.9118800E+02  0.7818608E-02  0.1130116E+00
         25   -1    0    0    0    0  0.00000000000E+00  0.00000000000E+00  0.99999998245E-14  0.12500000000E+03  0.12500000000E+03 0.  0.
        -13    1    3    3    0    0  0.64533653985E+01 -0.52821395233E+02  0.17090665662E+02  0.55891392326E+02  0.10566000000E+00 0.  1.
         23    2    1    0    0    0 -0.14376458641E+01 -0.15234451655E+02  0.25549727086E+02  0.95218396668E+02  0.90441136476E+02 0.  0.
         13    1    3    3    0    0 -0.78910112627E+01  0.37586943579E+02  0.84590614240E+01  0.39327004342E+02  0.10566000000E+00 0. -1.
         22    1    1    0    0    0  0.14376458641E+01  0.15234451655E+02 -0.25549727086E+02  0.29781603332E+02  0.00000000000E+00 0.  1.
</event>
<event>
 5    1  0.1758488E-003  0.9118800E+02  0.7818608E-02  0.1130116E+00
         25   -1    0    0    0    0  0.00000000000E+00  0.00000000000E+00  0.99999998245E-14  0.12500000000E+03  0.12500000000E+03 0.  0.
        -13    1    3    3    0    0  0.12070210608E+02 -0.38457759060E+02 -0.30236990801E+02  0.50388252528E+02  0.10566000000E+00 0. -1.
         23    2    1    0    0    0  0.95605888778E+01  0.64551545135E+01 -0.27177876606E+02  0.95475250106E+02  0.90795443314E+02 0.  0.
         13    1    3    3    0    0 -0.25096217298E+01  0.44912913574E+02  0.30591141954E+01  0.45086997578E+02  0.10566000000E+00 0.  1.
         22    1    1    0    0    0 -0.95605888778E+01 -0.64551545135E+01  0.27177876606E+02  0.29524749894E+02  0.00000000000E+00 0. -1.
</event>
<event>
 5    1  0.1758488E-003  0.9118800E+02  0.7818608E-02  0.1130116E+00
         25   -1    0    0    0    0  0.00000000000E+00  0.00000000000E+00  0.99999998245E-14  0.12500000000E+03  0.12500000000E+03 0.  0.
        -13    1    3    3    0    0 -0.24352308533E+02  0.34150458877E+02 -0.29321481871E+02  0.51176647365E+02  0.10566000000E+00 0.  1.
         23    2    1    0    0    0 -0.26067759690E+02 -0.65043248355E+01 -0.14399740300E+02  0.94517433547E+02  0.89467079906E+02 0.  0.
         13    1    3    3    0    0 -0.17154511572E+01 -0.40654783712E+02  0.14921741571E+02  0.43340786182E+02  0.10566000000E+00 0. -1.
         22    1    1    0    0    0  0.26067759690E+02  0.65043248355E+01  0.14399740300E+02  0.30482566453E+02  0.00000000000E+00 0.  1.
</event>
<event>
 5    1  0.1758488E-003  0.9118800E+02  0.7818608E-02  0.1130116E+00
         25   -1    0    0    0    0  0.00000000000E+00  0.00000000000E+00  0.99999998245E-14  0.12500000000E+03  0.12500000000E+03 0.  0.
        -13    1    3    3    0    0  0.30438211900E+02  0.14073504466E+02  0.29396672021E+01  0.33663052133E+02  0.10566000000E+00 0.  1.
         23    2    1    0    0    0 -0.27452879214E+02  0.34029321165E+01 -0.12684334724E+02  0.94567568754E+02  0.89537099510E+02 0.  0.
         13    1    3    3    0    0 -0.57891091114E+02 -0.10670572350E+02 -0.15624001926E+02  0.60904516621E+02  0.10566000000E+00 0. -1.
         22    1    1    0    0    0  0.27452879214E+02 -0.34029321165E+01  0.12684334724E+02  0.30432431246E+02  0.00000000000E+00 0. -1.
</event>
<event>
 5    1  0.1758488E-003  0.9118800E+02  0.7818608E-02  0.1130116E+00
         25   -1    0    0    0    0  0.00000000000E+00  0.00000000000E+00  0.99999998245E-14  0.12500000000E+03  0.12500000000E+03 0.  0.
        -13    1    3    3    0    0 -0.56320852354E+02  0.24366186981E+02 -0.36174983301E+01  0.61472326587E+02  0.10566000000E+00 0. -1.
         23    2    1    0    0    0 -0.27905337867E+02  0.39895518039E+01 -0.45216821595E+01  0.96450568926E+02  0.92128400787E+02 0.  0.
         13    1    3    3    0    0  0.28415514486E+02 -0.20376635178E+02 -0.90418382936E+00  0.34978242339E+02  0.10566000000E+00 0.  1.
         22    1    1    0    0    0  0.27905337867E+02 -0.39895518039E+01  0.45216821595E+01  0.28549431074E+02  0.00000000000E+00 0. -1.
</event>
<event>
 5    1  0.1758488E-003  0.9118800E+02  0.7818608E-02  0.1130116E+00
         25   -1    0    0    0    0  0.00000000000E+00  0.00000000000E+00  0.99999998245E-14  0.12500000000E+03  0.12500000000E+03 0.  0.
        -13    1    3    3    0    0 -0.43827563535E+02 -0.92849691446E+01  0.37502340238E+02  0.58425188616E+02  0.10566000000E+00 0.  1.
         23    2    1    0    0    0 -0.88948378757E+01  0.69594939565E+00  0.27472542706E+02  0.96115002352E+02  0.91671972750E+02 0.  0.
         13    1    3    3    0    0  0.34932725659E+02  0.99809185402E+01 -0.10029797532E+02  0.37689813736E+02  0.10566000000E+00 0. -1.
         22    1    1    0    0    0  0.88948378757E+01 -0.69594939565E+00 -0.27472542706E+02  0.28884997648E+02  0.00000000000E+00 0.  1.
</event>
<event>
 5    1  0.1758488E-003  0.9118800E+02  0.7818608E-02  0.1130116E+00
         25   -1    0    0    0    0  0.00000000000E+00  0.00000000000E+00  0.99999998245E-14  0.12500000000E+03  0.12500000000E+03 0.  0.
        -13    1    3    3    0    0  0.92465321682E+01  0.22734183697E+02  0.25711824466E+02  0.35545049541E+02  0.10566000000E+00 0. -1.
         23    2    1    0    0    0 -0.50312582349E+01  0.12430644044E+02 -0.29015661128E+02  0.93035284117E+02  0.87371740450E+02 0.  0.
         13    1    3    3    0    0 -0.14277790403E+02 -0.10303539652E+02 -0.54727485594E+02  0.57490234576E+02  0.10566000000E+00 0.  1.
         22    1    1    0    0    0  0.50312582349E+01 -0.12430644044E+02  0.29015661128E+02  0.31964715883E+02  0.00000000000E+00 0.  1.
</event>
<event>
 5    1  0.1758488E-003  0.9118800E+02  0.7818608E-02  0.1130116E+00
         25   -1    0    0    0    0  0.00000000000E+00  0.00000000000E+00  0.99999998245E-14  0.12500000000E+03  0.12500000000E+03 0.  0.
        -13    1    3    3    0    0 -0.38942911799E+02  0.11225098982E+02  0.13713810339E+02  0.42785897029E+02  0.10566000000E+00 0. -1.
         23    2    1    0    0    0  0.47698537718E+01  0.22565932845E+02 -0.16075428569E+02  0.96886084693E+02  0.92717426481E+02 0.  0.
         13    1    3    3    0    0  0.43712765571E+02  0.11340833863E+02 -0.29789238908E+02  0.54100187664E+02  0.10566000000E+00 0.  1.
         22    1    1    0    0    0 -0.47698537718E+01 -0.22565932845E+02  0.16075428569E+02  0.28113915307E+02  0.00000000000E+00 0.  1.
</event>
<event>
 5    1  0.1758488E-003  0.9118800E+02  0.7818608E-02  0.1130116E+00
         25   -1    0    0    0    0  0.00000000000E+00  0.00000000000E+00  0.99999998245E-14  0.12500000000E+03  0.12500000000E+03 0.  0.
        -13    1    3    3    0    0  0.46226206925E+02 -0.23667009585E+02  0.36490262223E+01  0.52060696363E+02  0.10566000000E+00 0.  1.
         23    2    1    0    0    0  0.10645748577E+02 -0.88431379255E+01  0.25220787320E+02  0.96231594341E+02  0.91830815009E+02 0.  0.
         13    1    3    3    0    0 -0.35580458348E+02  0.14823871659E+02  0.21571761098E+02  0.44170897978E+02  0.10566000000E+00 0. -1.
         22    1    1    0    0    0 -0.10645748577E+02  0.88431379255E+01 -0.25220787320E+02  0.28768405659E+02  0.00000000000E+00 0.  1.
</event>
<event>
 5    1  0.1758488E-003  0.9118800E+02  0.7818608E-02  0.1130116E+00
         25   -1    0    0    0    0  0.00000000000E+00  0.00000000000E+00  0.99999998245E-14  0.12500000000E+03  0.12500000000E+03 0.  0.
        -13    1    3    3    0    0 -0.34171650863E+02  0.38226591578E+01 -0.32320672944E+02  0.47190587084E+02  0.10566000000E+00 0.  1.
         23    2    1    0    0    0  0.14691211557E+02  0.84015342844E+01 -0.21833103182E+02  0.97375701459E+02  0.93375186022E+02 0.  0.
         13    1    3    3    0    0  0.48862862420E+02  0.45788751266E+01  0.10487569761E+02  0.50185114375E+02  0.10566000000E+00 0. -1.
         22    1    1    0    0    0 -0.14691211557E+02 -0.84015342844E+01  0.21833103182E+02  0.27624298541E+02  0.00000000000E+00 0.  1.
</event>
<event>
 5    1  0.1758488E-003  0.9118800E+02  0.7818608E-02  0.1130116E+00
         25   -1    0    0    0    0  0.00000000000E+00  0.00000000000E+00  0.99999998245E-14  0.12500000000E+03  0.12500000000E+03 0.  0.
        -13    1    3    3    0    0 -0.44025171121E+02  0.13774098759E+02 -0.39996531716E+02  0.61054690255E+02  0.10566000000E+00 0. -1.
         23    2    1    0    0    0 -0.22281524578E+02  0.13642228480E+02 -0.12707884605E+02  0.95947167667E+02  0.91442834147E+02 0.  0.
         13    1    3    3    0    0  0.21743646543E+02 -0.13187027857E+00  0.27288647111E+02  0.34892477412E+02  0.10566000000E+00 0.  1.
         22    1    1    0    0    0  0.22281524578E+02 -0.13642228480E+02  0.12707884605E+02  0.29052832333E+02  0.00000000000E+00 0. -1.
</event>
<event>
 5    1  0.1758488E-003  0.9118800E+02  0.7818608E-02  0.1130116E+00
         25   -1    0    0    0    0  0.00000000000E+00  0.00000000000E+00  0.99999998245E-14  0.12500000000E+03  0.12500000000E+03 0.  0.
        -13    1    3    3    0    0 -0.19746979165E+01 -0.28234794045E+02  0.44922667200E+02  0.53095764605E+02  0.10566000000E+00 0.  1.
         23    2    1    0    0    0 -0.15036910346E+02  0.71195893692E+01  0.22720731098E+02  0.96839232127E+02  0.92654239146E+02 0.  0.
         13    1    3    3    0    0 -0.13062212430E+02  0.35354383414E+02 -0.22201936101E+02  0.43743467522E+02  0.10566000000E+00 0. -1.
         22    1    1    0    0    0  0.15036910346E+02 -0.71195893692E+01 -0.22720731098E+02  0.28160767873E+02  0.00000000000E+00 0.  1.
</event>
<event>
 5    1  0.1758488E-003  0.9118800E+02  0.7818608E-02  0.1130116E+00
         25   -1    0    0    0    0  0.00000000000E+00  0.00000000000E+00  0.99999998245E-14  0.12500000000E+03  0.12500000000E+03 0.  0.
        -13    1    3    3    0    0  0.40142887927E+02 -0.23523950359E+02  0.73025457066E+01  0.47097410008E+02  0.10566000000E+00 0.  1.
         23    2    1    0    0    0  0.12074281642E+02  0.44025909793E+01 -0.24135976032E+02  0.97655596120E+02  0.93749128156E+02 0.  0.
         13    1    3    3    0    0 -0.28068606284E+02  0.27926541338E+02 -0.31438521739E+02  0.50558186113E+02  0.10566000000E+00 0. -1.
         22    1    1    0    0    0 -0.12074281642E+02 -0.44025909793E+01  0.24135976032E+02  0.27344403880E+02  0.00000000000E+00 0. -1.
</event>
<event>
 5    1  0.1758488E-003  0.9118800E+02  0.7818608E-02  0.1130116E+00
         25   -1    0    0    0    0  0.00000000000E+00  0.00000000000E+00  0.99999998245E-14  0.12500000000E+03  0.12500000000E+03 0.  0.
        -13    1    3    3    0    0  0.73327810493E+00 -0.51319882948E+02  0.64918731943E+01  0.51734163415E+02  0.10566000000E+00 0. -1.
         23    2    1    0    0    0 -0.51409996617E+01 -0.11987018989E+02  0.25911073808E+02  0.95991341850E+02  0.91503199192E+02 0.  0.
         13    1    3    3    0    0 -0.58742777666E+01  0.39332863959E+02  0.19419200614E+02  0.44257178435E+02  0.10566000000E+00 0.  1.
         22    1    1    0    0    0  0.51409996617E+01  0.11987018989E+02 -0.25911073808E+02  0.29008658150E+02  0.00000000000E+00 0.  1.
</event>
<event>
 5    1  0.1758488E-003  0.9118800E+02  0.7818608E-02  0.1130116E+00
         25   -1    0    0    0    0  0.00000000000E+00  0.00000000000E+00  0.99999998245E-14  0.12500000000E+03  0.12500000000E+03 0.  0.
        -13    1    3    3    0    0 -0.24435470643E+02 -0.50232200824E+01  0.32251484258E+02  0.40773696992E+02  0.10566000000E+00 0. -1.
         23    2    1    0    0    0  0.23981477432E+01 -0.29269275352E+02 -0.76769380873E+01  0.94645808022E+02  0.89646260410E+02 0.  0.
         13    1    3    3    0    0  0.26833618386E+02 -0.24246055270E+02 -0.39928422345E+02  0.53872111030E+02  0.10566000000E+00 0.  1.
         22    1    1    0    0    0 -0.23981477432E+01  0.29269275352E+02  0.76769380873E+01  0.30354191978E+02  0.00000000000E+00 0.  1.
</event>
<event>
 5    1  0.1758488E-003  0.9118800E+02  0.7818608E-02  0.1130116E+00
         25   -1    0    0    0    0  0.00000000000E+00  0.00000000000E+00  0.99999998245E-14  0.12500000000E+03  0.12500000000E+03 0.  0.
        -13    1    3    3    0    0 -0.27215940561E+02 -0.23108078212E+01 -0.50225051353E+02  0.57171795501E+02  0.10566000000E+00 0.  1.
         23    2    1    0    0    0 -0.29042687335E+02 -0.70103571478E+01 -0.17310133147E+02  0.90470831106E+02  0.83622411926E+02 0.  0.
         13    1    3    3    0    0 -0.18267467739E+01 -0.46995493266E+01  0.32914918206E+02  0.33299035604E+02  0.10566000000E+00 0. -1.
         22    1    1    0    0    0  0.29042687335E+02  0.70103571478E+01  0.17310133147E+02  0.34529168894E+02  0.00000000000E+00 0.  1.
</event>
<event>
 5    1  0.1758488E-003  0.9118800E+02  0.7818608E-02  0.1130116E+00
         25   -1    0    0    0    0  0.00000000000E+00  0.00000000000E+00  0.99999998245E-14  0.12500000000E+03  0.12500000000E+03 0.  0.
        -13    1    3    3    0    0  0.31765622239E+01 -0.52995979520E+02 -0.10413562089E+02  0.54102844955E+02  0.10566000000E+00 0. -1.
         23    2    1    0    0    0  0.36287733153E+01 -0.20133598969E+02  0.18153808182E+02  0.97648755883E+02  0.93740007312E+02 0.  0.
         13    1    3    3    0    0  0.45221109132E+00  0.32862380550E+02  0.28567370271E+02  0.43545910928E+02  0.10566000000E+00 0.  1.
         22    1    1    0    0    0 -0.36287733153E+01  0.20133598969E+02 -0.18153808182E+02  0.27351244117E+02  0.00000000000E+00 0. -1.
</event>
<event>
 5    1  0.1758488E-003  0.9118800E+02  0.7818608E-02  0.1130116E+00
         25   -1    0    0    0    0  0.00000000000E+00  0.00000000000E+00  0.99999998245E-14  0.12500000000E+03  0.12500000000E+03 0.  0.
        -13    1    3    3    0    0  0.42949273848E+02 -0.56172478944E+00 -0.22045820844E+02  0.48280275886E+02  0.10566000000E+00 0. -1.
         23    2    1    0    0    0 -0.77175822713E+01  0.49989037788E+01 -0.24010202407E+02  0.99289303107E+02  0.95902689101E+02 0.  0.
         13    1    3    3    0    0 -0.50666856120E+02  0.55606285683E+01 -0.19643815625E+01  0.51009027221E+02  0.10566000000E+00 0.  1.
         22    1    1    0    0    0  0.77175822713E+01 -0.49989037788E+01  0.24010202407E+02  0.25710696893E+02  0.00000000000E+00 0.  1.
</event>
<event>
 5    1  0.1758488E-003  0.9118800E+02  0.7818608E-02  0.1130116E+00
         25   -1    0    0    0    0  0.00000000000E+00  0.00000000000E+00  0.99999998245E-14  0.12500000000E+03  0.12500000000E+03 0.  0.
        -13    1    3    3    0    0  0.65453410111E+01  0.22768627415E+02 -0.36777142706E+02  0.43747243033E+02  0.10566000000E+00 0.  1.
         23    2    1    0    0    0 -0.13776283525E+02 -0.20305034729E+02 -0.15987202663E+02  0.95713978213E+02  0.91123512626E+02 0.  0.
         13    1    3    3    0    0 -0.20321624536E+02 -0.43073662144E+02  0.20789940043E+02  0.51966735180E+02  0.10566000000E+00 0. -1.
         22    1    1    0    0    0  0.13776283525E+02  0.20305034729E+02  0.15987202663E+02  0.29286021787E+02  0.00000000000E+00 0. -1.
</event>
<event>
 5    1  0.1758488E-003  0.9118800E+02  0.7818608E-02  0.1130116E+00
         25   -1    0    0    0    0  0.00000000000E+00  0.00000000000E+00  0.99999998245E-14  0.12500000000E+03  0.12500000000E+03 0.  0.
        -13    1    3    3    0    0 -0.46742888878E+02  0.22153649676E+02  0.25058951617E+02  0.57477335315E+02  0.10566000000E+00 0. -1.
         23    2    1    0    0    0 -0.11017543043E+02  0.24513527839E+02  0.98696626311E+01  0.96369429934E+02  0.92018245384E+02 0.  0.
         13    1    3    3    0    0  0.35725345835E+02  0.23598781626E+01 -0.15189288986E+02  0.38892094620E+02  0.10566000000E+00 0.  1.
         22    1    1    0    0    0  0.11017543043E+02 -0.24513527839E+02 -0.98696626311E+01  0.28630570066E+02  0.00000000000E+00 0. -1.
</event>
<event>
 5    1  0.1758488E-003  0.9118800E+02  0.7818608E-02  0.1130116E+00
         25   -1    0    0    0    0  0.00000000000E+00  0.00000000000E+00  0.99999998245E-14  0.12500000000E+03  0.12500000000E+03 0.  0.
        -13    1    3    3    0    0  0.45877217822E+02  0.23410321051E+02 -0.85703452708E+01  0.52213257214E+02  0.10566000000E+00 0.  1.
         23    2    1    0    0    0  0.19296158557E+02 -0.75390721755E+01 -0.21629487117E+02  0.95049807058E+02  0.90207825406E+02 0.  0.
         13    1    3    3    0    0 -0.26581059265E+02 -0.30949393227E+02 -0.13059141846E+02  0.42836549844E+02  0.10566000000E+00 0. -1.
         22    1    1    0    0    0 -0.19296158557E+02  0.75390721755E+01  0.21629487117E+02  0.29950192942E+02  0.00000000000E+00 0. -1.
</event>
<event>
 5    1  0.1758488E-003  0.9118800E+02  0.7818608E-02  0.1130116E+00
         25   -1    0    0    0    0  0.00000000000E+00  0.00000000000E+00  0.99999998245E-14  0.12500000000E+03  0.12500000000E+03 0.  0.
        -13    1    3    3    0    0 -0.35680828060E+02  0.14722849070E+02 -0.41248293626E+02  0.56491739811E+02  0.10566000000E+00 0.  1.
         23    2    1    0    0    0 -0.17303905331E+01  0.18436865321E+02 -0.23802200233E+02  0.94842795385E+02  0.89920514046E+02 0.  0.
         13    1    3    3    0    0  0.33950437527E+02  0.37140162512E+01  0.17446093393E+02  0.38351055574E+02  0.10566000000E+00 0. -1.
         22    1    1    0    0    0  0.17303905331E+01 -0.18436865321E+02  0.23802200233E+02  0.30157204615E+02  0.00000000000E+00 0.  1.
</event>
<event>
 5    1  0.1758488E-003  0.9118800E+02  0.7818608E-02  0.1130116E+00
         25   -1    0    0    0    0  0.00000000000E+00  0.00000000000E+00  0.99999998245E-14  0.12500000000E+03  0.12500000000E+03 0.  0.
        -13    1    3    3    0    0  0.33550376354E+02  0.48967804616E+02  0.14462855780E+02  0.61095490863E+02  0.10566000000E+00 0. -1.
         23    2    1    0    0    0  0.16542600767E+02  0.17905126940E+02  0.14743913160E+02  0.96510805800E+02  0.92210094079E+02 0.  0.
         13    1    3    3    0    0 -0.17007775586E+02 -0.31062677677E+02  0.28105737988E+00  0.35415314938E+02  0.10566000000E+00 0.  1.
         22    1    1    0    0    0 -0.16542600767E+02 -0.17905126940E+02 -0.14743913160E+02  0.28489194200E+02  0.00000000000E+00 0. -1.
</event>
<event>
 5    1  0.1758488E-003  0.9118800E+02  0.7818608E-02  0.1130116E+00
         25   -1    0    0    0    0  0.00000000000E+00  0.00000000000E+00  0.99999998245E-14  0.12500000000E+03  0.12500000000E+03 0.  0.
        -13    1    3    3    0    0  0.28690903107E+02  0.16501807658E+02  0.35552594638E+01  0.33288565769E+02  0.10566000000E+00 0. -1.
         23    2    1    0    0    0 -0.10573893157E+02 -0.29282512858E+02 -0.16142873110E+01  0.93825030885E+02  0.88494393728E+02 0.  0.
         13    1    3    3    0    0 -0.39264796264E+02 -0.45784320516E+02 -0.51695467748E+01  0.60536465116E+02  0.10566000000E+00 0.  1.
         22    1    1    0    0    0  0.10573893157E+02  0.29282512858E+02  0.16142873110E+01  0.31174969115E+02  0.00000000000E+00 0.  1.
</event>
<event>
 5    1  0.1758488E-003  0.9118800E+02  0.7818608E-02  0.1130116E+00
         25   -1    0    0    0    0  0.00000000000E+00  0.00000000000E+00  0.99999998245E-14  0.12500000000E+03  0.12500000000E+03 0.  0.
        -13    1    3    3    0    0  0.22135598572E+02  0.81091662982E+00 -0.41598481954E+02  0.47128411546E+02  0.10566000000E+00 0.  1.
         23    2    1    0    0    0  0.21084938083E+02  0.22957261286E+02 -0.50073451469E+00  0.93825311633E+02  0.88494790289E+02 0.  0.
         13    1    3    3    0    0 -0.10506604895E+01  0.22146344656E+02  0.41097747440E+02  0.46696900087E+02  0.10566000000E+00 0. -1.
         22    1    1    0    0    0 -0.21084938083E+02 -0.22957261286E+02  0.50073451469E+00  0.31174688367E+02  0.00000000000E+00 0. -1.
</event>
<event>
 5    1  0.1758488E-003  0.9118800E+02  0.7818608E-02  0.1130116E+00
         25   -1    0    0    0    0  0.00000000000E+00  0.00000000000E+00  0.99999998245E-14  0.12500000000E+03  0.12500000000E+03 0.  0.
        -13    1    3    3    0    0 -0.20111616451E+02  0.38967486273E+02  0.32927365247E+02  0.54837620744E+02  0.10566000000E+00 0.  1.
         23    2    1    0    0    0  0.12289393281E+02  0.14265230533E+02  0.19878375256E+02  0.97619791962E+02  0.93701376674E+02 0.  0.
         13    1    3    3    0    0  0.32401009732E+02 -0.24702255740E+02 -0.13048989991E+02  0.42782171218E+02  0.10566000000E+00 0. -1.
         22    1    1    0    0    0 -0.12289393281E+02 -0.14265230533E+02 -0.19878375256E+02  0.27380208038E+02  0.00000000000E+00 0.  1.
</event>
<event>
 5    1  0.1758488E-003  0.9118800E+02  0.7818608E-02  0.1130116E+00
         25   -1    0    0    0    0  0.00000000000E+00  0.00000000000E+00  0.99999998245E-14  0.12500000000E+03  0.12500000000E+03 0.  0.
        -13    1    3    3    0    0 -0.37557834334E+00  0.56870791324E+02 -0.24092438163E+02  0.61764752939E+02  0.10566000000E+00 0.  1.
         23    2    1    0    0    0  0.36423146457E+01  0.28005897143E+02 -0.58136461462E+01  0.96166075323E+02  0.91741587248E+02 0.  0.
         13    1    3    3    0    0  0.40178929891E+01 -0.28864894181E+02  0.18278792016E+02  0.34401322384E+02  0.10566000000E+00 0. -1.
         22    1    1    0    0    0 -0.36423146457E+01 -0.28005897143E+02  0.58136461462E+01  0.28833924677E+02  0.00000000000E+00 0.  1.
</event>
<event>
 5    1  0.1758488E-003  0.9118800E+02  0.7818608E-02  0.1130116E+00
         25   -1    0    0    0    0  0.00000000000E+00  0.00000000000E+00  0.99999998245E-14  0.12500000000E+03  0.12500000000E+03 0.  0.
        -13    1    3    3    0    0 -0.17392137170E+02  0.15988865962E+02 -0.37542679343E+02  0.44357572143E+02  0.10566000000E+00 0.  1.
         23    2    1    0    0    0  0.12029744782E+02  0.32693060011E+02 -0.80381887262E+01  0.89248588694E+02  0.81774978896E+02 0.  0.
         13    1    3    3    0    0  0.29421881952E+02  0.16704194049E+02  0.29504490617E+02  0.44891016551E+02  0.10566000000E+00 0. -1.
         22    1    1    0    0    0 -0.12029744782E+02 -0.32693060011E+02  0.80381887262E+01  0.35751411306E+02  0.00000000000E+00 0. -1.
</event>
<event>
 5    1  0.1758488E-003  0.9118800E+02  0.7818608E-02  0.1130116E+00
         25   -1    0    0    0    0  0.00000000000E+00  0.00000000000E+00  0.99999998245E-14  0.12500000000E+03  0.12500000000E+03 0.  0.
        -13    1    3    3    0    0  0.16804753113E+01  0.33603653573E+02 -0.41500057513E+02  0.53425606860E+02  0.10566000000E+00 0. -1.
         23    2    1    0    0    0  0.17896040788E+02  0.77365430285E+00 -0.26540953048E+02  0.92979865622E+02  0.87292418947E+02 0.  0.
         13    1    3    3    0    0  0.16215565477E+02 -0.32829999270E+02  0.14959104465E+02  0.39554258762E+02  0.10566000000E+00 0.  1.
         22    1    1    0    0    0 -0.17896040788E+02 -0.77365430285E+00  0.26540953048E+02  0.32020134378E+02  0.00000000000E+00 0.  1.
</event>
<event>
 5    1  0.1758488E-003  0.9118800E+02  0.7818608E-02  0.1130116E+00
         25   -1    0    0    0    0  0.00000000000E+00  0.00000000000E+00  0.99999998245E-14  0.12500000000E+03  0.12500000000E+03 0.  0.
        -13    1    3    3    0    0  0.28688819889E+02  0.50148540095E+02  0.19755910789E+02  0.61059246928E+02  0.10566000000E+00 0.  1.
         23    2    1    0    0    0  0.12376711244E+02  0.19119322704E+02  0.17663813664E+02  0.96177408253E+02  0.91757027323E+02 0.  0.
         13    1    3    3    0    0 -0.16312108645E+02 -0.31029217392E+02 -0.20920971251E+01  0.35118161324E+02  0.10566000000E+00 0. -1.
         22    1    1    0    0    0 -0.12376711244E+02 -0.19119322704E+02 -0.17663813664E+02  0.28822591747E+02  0.00000000000E+00 0.  1.
</event>
<event>
 5    1  0.1758488E-003  0.9118800E+02  0.7818608E-02  0.1130116E+00
         25   -1    0    0    0    0  0.00000000000E+00  0.00000000000E+00  0.99999998245E-14  0.12500000000E+03  0.12500000000E+03 0.  0.
        -13    1    3    3    0    0 -0.48453460518E+02  0.23377509489E+02 -0.17541471793E+02  0.56585865574E+02  0.10566000000E+00 0.  1.
         23    2    1    0    0    0 -0.21241930865E+02  0.19486446759E+02  0.90049616043E+01  0.94800156165E+02  0.89861221010E+02 0.  0.
         13    1    3    3    0    0  0.27211529653E+02 -0.38910627306E+01  0.26546433398E+02  0.38214290591E+02  0.10566000000E+00 0. -1.
         22    1    1    0    0    0  0.21241930865E+02 -0.19486446759E+02 -0.90049616043E+01  0.30199843835E+02  0.00000000000E+00 0.  1.
</event>
<event>
 5    1  0.1758488E-003  0.9118800E+02  0.7818608E-02  0.1130116E+00
         25   -1    0    0    0    0  0.00000000000E+00  0.00000000000E+00  0.99999998245E-14  0.12500000000E+03  0.12500000000E+03 0.  0.
        -13    1    3    3    0    0  0.14769640462E+02 -0.39603670905E+02 -0.36172552824E+02  0.55633243393E+02  0.10566000000E+00 0. -1.
         23    2    1    0    0    0 -0.42914610008E+01 -0.53411802400E+01 -0.28632003110E+02  0.95559611994E+02  0.90911511913E+02 0.  0.
         13    1    3    3    0    0 -0.19061101463E+02  0.34262490665E+02  0.75405497144E+01  0.39926368600E+02  0.10566000000E+00 0.  1.
         22    1    1    0    0    0  0.42914610008E+01  0.53411802400E+01  0.28632003110E+02  0.29440388006E+02  0.00000000000E+00 0. -1.
</event>
<event>
 5    1  0.1758488E-003  0.9118800E+02  0.7818608E-02  0.1130116E+00
         25   -1    0    0    0    0  0.00000000000E+00  0.00000000000E+00  0.99999998245E-14  0.12500000000E+03  0.12500000000E+03 0.  0.
        -13    1    3    3    0    0 -0.63283533341E+01  0.16408154541E+02  0.30037581968E+02  0.34807227495E+02  0.10566000000E+00 0. -1.
         23    2    1    0    0    0  0.18747987466E+02 -0.10996570377E+02 -0.18866058547E+02  0.96219107742E+02  0.91813816691E+02 0.  0.
         13    1    3    3    0    0  0.25076340801E+02 -0.27404724918E+02 -0.48903640515E+02  0.61411880247E+02  0.10566000000E+00 0.  1.
         22    1    1    0    0    0 -0.18747987466E+02  0.10996570377E+02  0.18866058547E+02  0.28780892258E+02  0.00000000000E+00 0.  1.
</event>
<event>
 5    1  0.1758488E-003  0.9118800E+02  0.7818608E-02  0.1130116E+00
         25   -1    0    0    0    0  0.00000000000E+00  0.00000000000E+00  0.99999998245E-14  0.12500000000E+03  0.12500000000E+03 0.  0.
        -13    1    3    3    0    0  0.43114266107E+02 -0.26176120443E+02 -0.84891552748E+01  0.51147885046E+02  0.10566000000E+00 0. -1.
         23    2    1    0    0    0 -0.13695932161E+01 -0.25726638942E+02  0.70832166013E+01  0.98280948852E+02  0.94579264181E+02 0.  0.
         13    1    3    3    0    0 -0.44483859323E+02  0.44948150093E+00  0.15572371876E+02  0.47133063806E+02  0.10566000000E+00 0.  1.
         22    1    1    0    0    0  0.13695932161E+01  0.25726638942E+02 -0.70832166013E+01  0.26719051148E+02  0.00000000000E+00 0. -1.
</event>
<event>
 5    1  0.1758488E-003  0.9118800E+02  0.7818608E-02  0.1130116E+00
         25   -1    0    0    0    0  0.00000000000E+00  0.00000000000E+00  0.99999998245E-14  0.12500000000E+03  0.12500000000E+03 0.  0.
        -13    1    3    3    0    0 -0.28038280283E+02 -0.49464334522E+02 -0.25602435841E+02  0.62356727271E+02  0.10566000000E+00 0. -1.
         23    2    1    0    0    0 -0.14818271010E+02 -0.20864465678E+02 -0.98969273594E+01  0.97561773838E+02  0.93623947041E+02 0.  0.
         13    1    3    3    0    0  0.13220009273E+02  0.28599868845E+02  0.15705508482E+02  0.35205046567E+02  0.10566000000E+00 0.  1.
         22    1    1    0    0    0  0.14818271010E+02  0.20864465678E+02  0.98969273594E+01  0.27438226162E+02  0.00000000000E+00 0. -1.
</event>
<event>
 5    1  0.1758488E-003  0.9118800E+02  0.7818608E-02  0.1130116E+00
         25   -1    0    0    0    0  0.00000000000E+00  0.00000000000E+00  0.99999998245E-14  0.12500000000E+03  0.12500000000E+03 0.  0.
        -13    1    3    3    0    0 -0.18996508757E+02  0.18872682111E+02 -0.28001669356E+02  0.38744678677E+02  0.10566000000E+00 0.  1.
         23    2    1    0    0    0 -0.10082915034E+02  0.11111343700E+02  0.26518338573E+02  0.94531173060E+02  0.89486274171E+02 0.  0.
         13    1    3    3    0    0  0.89135937235E+01 -0.77613384109E+01  0.54520007929E+02  0.55786494384E+02  0.10566000000E+00 0. -1.
         22    1    1    0    0    0  0.10082915034E+02 -0.11111343700E+02 -0.26518338573E+02  0.30468826940E+02  0.00000000000E+00 0. -1.
</event>
<event>
 5    1  0.1758488E-003  0.9118800E+02  0.7818608E-02  0.1130116E+00
         25   -1    0    0    0    0  0.00000000000E+00  0.00000000000E+00  0.99999998245E-14  0.12500000000E+03  0.12500000000E+03 0.  0.
        -13    1    3    3    0    0 -0.21746088906E+02 -0.30658346246E+02 -0.71386320176E+01  0.38259610667E+02  0.10566000000E+00 0. -1.
         23    2    1    0    0    0 -0.63491969716E+01  0.20139003011E+02  0.18242287812E+02  0.97095290558E+02  0.92999046444E+02 0.  0.
         13    1    3    3    0    0  0.15396891935E+02  0.50797349257E+02  0.25380919829E+02  0.58835679891E+02  0.10566000000E+00 0.  1.
         22    1    1    0    0    0  0.63491969716E+01 -0.20139003011E+02 -0.18242287812E+02  0.27904709442E+02  0.00000000000E+00 0.  1.
</event>
<event>
 5    1  0.1758488E-003  0.9118800E+02  0.7818608E-02  0.1130116E+00
         25   -1    0    0    0    0  0.00000000000E+00  0.00000000000E+00  0.99999998245E-14  0.12500000000E+03  0.12500000000E+03 0.  0.
        -13    1    3    3    0    0  0.14516782970E+02 -0.40989359345E+02  0.30038142770E+02  0.52850409198E+02  0.10566000000E+00 0.  1.
         23    2    1    0    0    0  0.31097629507E+02 -0.17588626723E+02  0.97955981756E+01  0.87954405194E+02  0.79772183739E+02 0.  0.
         13    1    3    3    0    0  0.16580846537E+02  0.23400732622E+02 -0.20242544594E+02  0.35103995995E+02  0.10566000000E+00 0. -1.
         22    1    1    0    0    0 -0.31097629507E+02  0.17588626723E+02 -0.97955981756E+01  0.37045594806E+02  0.00000000000E+00 0.  1.
</event>
<event>
 5    1  0.1758488E-003  0.9118800E+02  0.7818608E-02  0.1130116E+00
         25   -1    0    0    0    0  0.00000000000E+00  0.00000000000E+00  0.99999998245E-14  0.12500000000E+03  0.12500000000E+03 0.  0.
        -13    1    3    3    0    0 -0.19999566977E+02  0.27759053207E+02  0.92648182441E+00  0.34225973278E+02  0.10566000000E+00 0.  1.
         23    2    1    0    0    0  0.22693777926E+02 -0.16703711469E+02  0.63805389545E+01  0.96108257049E+02  0.91662774682E+02 0.  0.
         13    1    3    3    0    0  0.42693344903E+02 -0.44462764676E+02  0.54540571301E+01  0.61882283772E+02  0.10566000000E+00 0. -1.
         22    1    1    0    0    0 -0.22693777926E+02  0.16703711469E+02 -0.63805389545E+01  0.28891742951E+02  0.00000000000E+00 0. -1.
</event>
<event>
 5    1  0.1758488E-003  0.9118800E+02  0.7818608E-02  0.1130116E+00
         25   -1    0    0    0    0  0.00000000000E+00  0.00000000000E+00  0.99999998245E-14  0.12500000000E+03  0.12500000000E+03 0.  0.
        -13    1    3    3    0    0 -0.37481182745E+02  0.31612410896E+02  0.87764521947E+01  0.49811854611E+02  0.10566000000E+00 0. -1.
         23    2    1    0    0    0  0.66919427418E+01  0.27108905491E+02 -0.56747086713E+01  0.96506541574E+02  0.92204313313E+02 0.  0.
         13    1    3    3    0    0  0.44173125487E+02 -0.45035054051E+01 -0.14451160866E+02  0.46694686964E+02  0.10566000000E+00 0.  1.
         22    1    1    0    0    0 -0.66919427418E+01 -0.27108905491E+02  0.56747086713E+01  0.28493458426E+02  0.00000000000E+00 0.  1.
</event>
<event>
 5    1  0.1758488E-003  0.9118800E+02  0.7818608E-02  0.1130116E+00
         25   -1    0    0    0    0  0.00000000000E+00  0.00000000000E+00  0.99999998245E-14  0.12500000000E+03  0.12500000000E+03 0.  0.
        -13    1    3    3    0    0  0.15439972059E+02  0.25803552732E+02 -0.34542764207E+02  0.45797705116E+02  0.10566000000E+00 0. -1.
         23    2    1    0    0    0 -0.14337571843E+02 -0.12748359094E+02 -0.21413178926E+02  0.96249159010E+02  0.91854720904E+02 0.  0.
         13    1    3    3    0    0 -0.29777543901E+02 -0.38551911827E+02  0.13129585281E+02  0.50451453894E+02  0.10566000000E+00 0.  1.
         22    1    1    0    0    0  0.14337571843E+02  0.12748359094E+02  0.21413178926E+02  0.28750840990E+02  0.00000000000E+00 0. -1.
</event>
<event>
 5    1  0.1758488E-003  0.9118800E+02  0.7818608E-02  0.1130116E+00
         25   -1    0    0    0    0  0.00000000000E+00  0.00000000000E+00  0.99999998245E-14  0.12500000000E+03  0.12500000000E+03 0.  0.
        -13    1    3    3    0    0  0.21336588137E+02  0.77851367529E+01  0.25801004695E+02  0.34373846961E+02  0.10566000000E+00 0.  1.
         23    2    1    0    0    0 -0.28085225319E+02  0.19651137566E+01 -0.93882516192E+01  0.95322048222E+02  0.90584281503E+02 0.  0.
         13    1    3    3    0    0 -0.49421813456E+02 -0.58200229963E+01 -0.35189256314E+02  0.60948201261E+02  0.10566000000E+00 0. -1.
         22    1    1    0    0    0  0.28085225319E+02 -0.19651137566E+01  0.93882516192E+01  0.29677951778E+02  0.00000000000E+00 0. -1.
</event>
<event>
 5    1  0.1758488E-003  0.9118800E+02  0.7818608E-02  0.1130116E+00
         25   -1    0    0    0    0  0.00000000000E+00  0.00000000000E+00  0.99999998245E-14  0.12500000000E+03  0.12500000000E+03 0.  0.
        -13    1    3    3    0    0  0.24816255157E+02 -0.33748735179E+02  0.99240498578E-02  0.41890749680E+02  0.10566000000E+00 0.  1.
         23    2    1    0    0    0 -0.20585091695E+02 -0.13976636466E+02  0.17688477902E+02  0.94471740674E+02  0.89403216768E+02 0.  0.
         13    1    3    3    0    0 -0.45401346852E+02  0.19772098713E+02  0.17678553853E+02  0.52580990994E+02  0.10566000000E+00 0. -1.
         22    1    1    0    0    0  0.20585091695E+02  0.13976636466E+02 -0.17688477902E+02  0.30528259326E+02  0.00000000000E+00 0. -1.
</event>
<event>
 5    1  0.1758488E-003  0.9118800E+02  0.7818608E-02  0.1130116E+00
         25   -1    0    0    0    0  0.00000000000E+00  0.00000000000E+00  0.99999998245E-14  0.12500000000E+03  0.12500000000E+03 0.  0.
        -13    1    3    3    0    0  0.75201299972E+01  0.30436935670E+02 -0.52922647719E+02  0.61512415119E+02  0.10566000000E+00 0. -1.
         23    2    1    0    0    0  0.31544700478E+01  0.11907610081E+02 -0.35882922604E+02  0.87061549930E+02  0.78360624567E+02 0.  0.
         13    1    3    3    0    0 -0.43656599494E+01 -0.18529325589E+02  0.17039725115E+02  0.25549134811E+02  0.10566000000E+00 0.  1.
         22    1    1    0    0    0 -0.31544700478E+01 -0.11907610081E+02  0.35882922604E+02  0.37938450070E+02  0.00000000000E+00 0. -1.
</event>
<event>
 5    1  0.1758488E-003  0.9118800E+02  0.7818608E-02  0.1130116E+00
         25   -1    0    0    0    0  0.00000000000E+00  0.00000000000E+00  0.99999998245E-14  0.12500000000E+03  0.12500000000E+03 0.  0.
        -13    1    3    3    0    0  0.14659790677E+02  0.16863474344E+02 -0.43463055952E+02  0.48870590608E+02  0.10566000000E+00 0.  1.
         23    2    1    0    0    0 -0.21768661086E+02  0.13905361807E+02 -0.15653219165E+02  0.94796408116E+02  0.89856007195E+02 0.  0.
         13    1    3    3    0    0 -0.36428451763E+02 -0.29581125377E+01  0.27809836787E+02  0.45925817508E+02  0.10566000000E+00 0. -1.
         22    1    1    0    0    0  0.21768661086E+02 -0.13905361807E+02  0.15653219165E+02  0.30203591884E+02  0.00000000000E+00 0. -1.
</event>
<event>
 5    1  0.1758488E-003  0.9118800E+02  0.7818608E-02  0.1130116E+00
         25   -1    0    0    0    0  0.00000000000E+00  0.00000000000E+00  0.99999998245E-14  0.12500000000E+03  0.12500000000E+03 0.  0.
        -13    1    3    3    0    0  0.98196313674E+01 -0.83606260063E+01 -0.32340814392E+02  0.34817591344E+02  0.10566000000E+00 0.  1.
         23    2    1    0    0    0  0.86686553954E+01  0.19175260003E+00  0.27956687283E+02  0.95729558950E+02  0.91144883222E+02 0.  0.
         13    1    3    3    0    0 -0.11509759721E+01  0.85523786064E+01  0.60297501674E+02  0.60911967607E+02  0.10566000000E+00 0. -1.
         22    1    1    0    0    0 -0.86686553954E+01 -0.19175260003E+00 -0.27956687283E+02  0.29270441050E+02  0.00000000000E+00 0. -1.
</event>
<event>
 5    1  0.1758488E-003  0.9118800E+02  0.7818608E-02  0.1130116E+00
         25   -1    0    0    0    0  0.00000000000E+00  0.00000000000E+00  0.99999998245E-14  0.12500000000E+03  0.12500000000E+03 0.  0.
        -13    1    3    3    0    0  0.55183174664E+01  0.34014605471E+02 -0.72059014565E+01  0.35204848996E+02  0.10566000000E+00 0.  1.
         23    2    1    0    0    0 -0.18430952493E+02 -0.21353282550E+02 -0.84847665212E+01  0.95544033739E+02  0.90890089859E+02 0.  0.
         13    1    3    3    0    0 -0.23949269960E+02 -0.55367888021E+02 -0.12788650647E+01  0.60339184743E+02  0.10566000000E+00 0. -1.
         22    1    1    0    0    0  0.18430952493E+02  0.21353282550E+02  0.84847665212E+01  0.29455966261E+02  0.00000000000E+00 0. -1.
</event>
<event>
 5    1  0.1758488E-003  0.9118800E+02  0.7818608E-02  0.1130116E+00
         25   -1    0    0    0    0  0.00000000000E+00  0.00000000000E+00  0.99999998245E-14  0.12500000000E+03  0.12500000000E+03 0.  0.
        -13    1    3    3    0    0  0.30450824745E+02 -0.43660431564E+01  0.17014541840E+02  0.35154243821E+02  0.10566000000E+00 0.  1.
         23    2    1    0    0    0 -0.93921115459E+01  0.14815464718E+02 -0.23869472896E+02  0.95378023523E+02  0.90661490616E+02 0.  0.
         13    1    3    3    0    0 -0.39842936291E+02  0.19181507874E+02 -0.40884014736E+02  0.60223779702E+02  0.10566000000E+00 0. -1.
         22    1    1    0    0    0  0.93921115459E+01 -0.14815464718E+02  0.23869472896E+02  0.29621976477E+02  0.00000000000E+00 0. -1.
</event>
<event>
 5    1  0.1758488E-003  0.9118800E+02  0.7818608E-02  0.1130116E+00
         25   -1    0    0    0    0  0.00000000000E+00  0.00000000000E+00  0.99999998245E-14  0.12500000000E+03  0.12500000000E+03 0.  0.
        -13    1    3    3    0    0  0.54874731300E+02 -0.10343088217E+02 -0.21890494055E+02  0.59978500341E+02  0.10566000000E+00 0.  1.
         23    2    1    0    0    0  0.25780585457E+02  0.58597701873E+01 -0.16821965288E+02  0.93663854588E+02  0.88266435563E+02 0.  0.
         13    1    3    3    0    0 -0.29094145843E+02  0.16202858404E+02  0.50685287664E+01  0.33685354247E+02  0.10566000000E+00 0. -1.
         22    1    1    0    0    0 -0.25780585457E+02 -0.58597701873E+01  0.16821965288E+02  0.31336145412E+02  0.00000000000E+00 0.  1.
</event>
<event>
 5    1  0.1758488E-003  0.9118800E+02  0.7818608E-02  0.1130116E+00
         25   -1    0    0    0    0  0.00000000000E+00  0.00000000000E+00  0.99999998245E-14  0.12500000000E+03  0.12500000000E+03 0.  0.
        -13    1    3    3    0    0  0.43786732135E+01  0.61356595396E+02 -0.34846299231E+01  0.61611349502E+02  0.10566000000E+00 0.  1.
         23    2    1    0    0    0  0.54203035463E+01  0.28606095947E+02  0.49986915083E+01  0.95458921268E+02  0.90772960274E+02 0.  0.
         13    1    3    3    0    0  0.10416303328E+01 -0.32750499449E+02  0.84833214314E+01  0.33847571766E+02  0.10566000000E+00 0. -1.
         22    1    1    0    0    0 -0.54203035463E+01 -0.28606095947E+02 -0.49986915083E+01  0.29541078732E+02  0.00000000000E+00 0.  1.
</event>
<event>
 5    1  0.1758488E-003  0.9118800E+02  0.7818608E-02  0.1130116E+00
         25   -1    0    0    0    0  0.00000000000E+00  0.00000000000E+00  0.99999998245E-14  0.12500000000E+03  0.12500000000E+03 0.  0.
        -13    1    3    3    0    0  0.13254729163E+02  0.70128758289E+01 -0.27521984006E+02  0.31342288370E+02  0.10566000000E+00 0. -1.
         23    2    1    0    0    0  0.89455458404E+01  0.61196134697E+01  0.32096413912E+02  0.91122983523E+02  0.84591641908E+02 0.  0.
         13    1    3    3    0    0 -0.43091833231E+01 -0.89326235911E+00  0.59618397918E+02  0.59780695153E+02  0.10566000000E+00 0.  1.
         22    1    1    0    0    0 -0.89455458404E+01 -0.61196134697E+01 -0.32096413912E+02  0.33877016477E+02  0.00000000000E+00 0.  1.
</event>
<event>
 5    1  0.1758488E-003  0.9118800E+02  0.7818608E-02  0.1130116E+00
         25   -1    0    0    0    0  0.00000000000E+00  0.00000000000E+00  0.99999998245E-14  0.12500000000E+03  0.12500000000E+03 0.  0.
        -13    1    3    3    0    0  0.18371217350E+02  0.51913656496E+02 -0.13937284469E+02  0.56804827437E+02  0.10566000000E+00 0. -1.
         23    2    1    0    0    0 -0.92046008215E+01  0.23956665959E+02 -0.13335206155E+02  0.96078135549E+02  0.91621688956E+02 0.  0.
         13    1    3    3    0    0 -0.27575818171E+02 -0.27956990537E+02  0.60207831355E+00  0.39273308112E+02  0.10566000000E+00 0.  1.
         22    1    1    0    0    0  0.92046008215E+01 -0.23956665959E+02  0.13335206155E+02  0.28921864451E+02  0.00000000000E+00 0. -1.
</event>
<event>
 5    1  0.1758488E-003  0.9118800E+02  0.7818608E-02  0.1130116E+00
         25   -1    0    0    0    0  0.00000000000E+00  0.00000000000E+00  0.99999998245E-14  0.12500000000E+03  0.12500000000E+03 0.  0.
        -13    1    3    3    0    0 -0.33757815738E+02 -0.20949823724E+01 -0.46791579626E+02  0.57735969399E+02  0.10566000000E+00 0.  1.
         23    2    1    0    0    0 -0.69455411644E+01 -0.15872019584E+02 -0.23359755620E+02  0.95916676077E+02  0.91401143425E+02 0.  0.
         13    1    3    3    0    0  0.26812274574E+02 -0.13777037212E+02  0.23431824006E+02  0.38180706678E+02  0.10566000000E+00 0. -1.
         22    1    1    0    0    0  0.69455411644E+01  0.15872019584E+02  0.23359755620E+02  0.29083323923E+02  0.00000000000E+00 0.  1.
</event>
<event>
 5    1  0.1758488E-003  0.9118800E+02  0.7818608E-02  0.1130116E+00
         25   -1    0    0    0    0  0.00000000000E+00  0.00000000000E+00  0.99999998245E-14  0.12500000000E+03  0.12500000000E+03 0.  0.
        -13    1    3    3    0    0 -0.11298051394E+02 -0.30408408842E+02 -0.47770964798E+02  0.57744207808E+02  0.10566000000E+00 0. -1.
         23    2    1    0    0    0  0.11135226719E+02 -0.73814333385E+01 -0.23282197544E+02  0.98157132144E+02  0.94415480913E+02 0.  0.
         13    1    3    3    0    0  0.22433278114E+02  0.23026975504E+02  0.24488767254E+02  0.40412924336E+02  0.10566000000E+00 0.  1.
         22    1    1    0    0    0 -0.11135226719E+02  0.73814333385E+01  0.23282197544E+02  0.26842867856E+02  0.00000000000E+00 0.  1.
</event>
<event>
 5    1  0.1758488E-003  0.9118800E+02  0.7818608E-02  0.1130116E+00
         25   -1    0    0    0    0  0.00000000000E+00  0.00000000000E+00  0.99999998245E-14  0.12500000000E+03  0.12500000000E+03 0.  0.
        -13    1    3    3    0    0  0.18849666075E+02 -0.16801409181E+02 -0.25840918741E+02  0.36129786977E+02  0.10566000000E+00 0.  1.
         23    2    1    0    0    0 -0.72932786851E+00 -0.47132287235E+01  0.29004179486E+02  0.95606312382E+02  0.90975700577E+02 0.  0.
         13    1    3    3    0    0 -0.19578993943E+02  0.12088180457E+02  0.54845098227E+02  0.59476525405E+02  0.10566000000E+00 0. -1.
         22    1    1    0    0    0  0.72932786851E+00  0.47132287235E+01 -0.29004179486E+02  0.29393687618E+02  0.00000000000E+00 0. -1.
</event>
<event>
 5    1  0.1758488E-003  0.9118800E+02  0.7818608E-02  0.1130116E+00
         25   -1    0    0    0    0  0.00000000000E+00  0.00000000000E+00  0.99999998245E-14  0.12500000000E+03  0.12500000000E+03 0.  0.
        -13    1    3    3    0    0  0.56575432244E+02  0.82567087887E+01  0.24429580292E+01  0.57227021428E+02  0.10566000000E+00 0. -1.
         23    2    1    0    0    0  0.28245330902E+02 -0.66624151515E+01 -0.13497649755E+02  0.92994171745E+02  0.87312902461E+02 0.  0.
         13    1    3    3    0    0 -0.28330101342E+02 -0.14919123940E+02 -0.15940607784E+02  0.35767150316E+02  0.10566000000E+00 0.  1.
         22    1    1    0    0    0 -0.28245330902E+02  0.66624151515E+01  0.13497649755E+02  0.32005828255E+02  0.00000000000E+00 0. -1.
</event>
<event>
 5    1  0.1758488E-003  0.9118800E+02  0.7818608E-02  0.1130116E+00
         25   -1    0    0    0    0  0.00000000000E+00  0.00000000000E+00  0.99999998245E-14  0.12500000000E+03  0.12500000000E+03 0.  0.
        -13    1    3    3    0    0 -0.29541639721E+02 -0.10139716682E+02  0.15959744740E+02  0.35074876308E+02  0.10566000000E+00 0. -1.
         23    2    1    0    0    0  0.22234313617E+02  0.17675828910E+02  0.12545344107E+02  0.93948666881E+02  0.88668859924E+02 0.  0.
         13    1    3    3    0    0  0.51775953338E+02  0.27815545593E+02 -0.34144006327E+01  0.58873790573E+02  0.10566000000E+00 0.  1.
         22    1    1    0    0    0 -0.22234313617E+02 -0.17675828910E+02 -0.12545344107E+02  0.31051333119E+02  0.00000000000E+00 0.  1.
</event>
<event>
 5    1  0.1758488E-003  0.9118800E+02  0.7818608E-02  0.1130116E+00
         25   -1    0    0    0    0  0.00000000000E+00  0.00000000000E+00  0.99999998245E-14  0.12500000000E+03  0.12500000000E+03 0.  0.
        -13    1    3    3    0    0  0.45175487802E+01 -0.57271603430E+01  0.47315288960E+02  0.47874380894E+02  0.10566000000E+00 0.  1.
         23    2    1    0    0    0  0.18355302185E+02 -0.21944495879E+02  0.40516649420E+01  0.96105467533E+02  0.91658970556E+02 0.  0.
         13    1    3    3    0    0  0.13837753404E+02 -0.16217335536E+02 -0.43263624018E+02  0.48231086639E+02  0.10566000000E+00 0. -1.
         22    1    1    0    0    0 -0.18355302185E+02  0.21944495879E+02 -0.40516649420E+01  0.28894532467E+02  0.00000000000E+00 0. -1.
</event>
<event>
 5    1  0.1758488E-003  0.9118800E+02  0.7818608E-02  0.1130116E+00
         25   -1    0    0    0    0  0.00000000000E+00  0.00000000000E+00  0.99999998245E-14  0.12500000000E+03  0.12500000000E+03 0.  0.
        -13    1    3    3    0    0  0.15894528671E+02 -0.49176601408E+02  0.11767278460E+02  0.53004284488E+02  0.10566000000E+00 0.  1.
         23    2    1    0    0    0  0.17878469419E+02 -0.16983377976E+02 -0.16033693614E+02  0.95586497537E+02  0.90948471039E+02 0.  0.
         13    1    3    3    0    0  0.19839407473E+01  0.32193223432E+02 -0.27800972074E+02  0.42582213049E+02  0.10566000000E+00 0. -1.
         22    1    1    0    0    0 -0.17878469419E+02  0.16983377976E+02  0.16033693614E+02  0.29413502463E+02  0.00000000000E+00 0.  1.
</event>
<event>
 5    1  0.1758488E-003  0.9118800E+02  0.7818608E-02  0.1130116E+00
         25   -1    0    0    0    0  0.00000000000E+00  0.00000000000E+00  0.99999998245E-14  0.12500000000E+03  0.12500000000E+03 0.  0.
        -13    1    3    3    0    0 -0.10304604578E+02  0.52360568828E+02  0.28194184946E+02  0.60355093177E+02  0.10566000000E+00 0.  1.
         23    2    1    0    0    0  0.36814000805E+00  0.18234702403E+02  0.21627065195E+02  0.96709191462E+02  0.92478634643E+02 0.  0.
         13    1    3    3    0    0  0.10672744586E+02 -0.34125866425E+02 -0.65671197516E+01  0.36354098285E+02  0.10566000000E+00 0. -1.
         22    1    1    0    0    0 -0.36814000805E+00 -0.18234702403E+02 -0.21627065195E+02  0.28290808538E+02  0.00000000000E+00 0.  1.
</event>
<event>
 5    1  0.1758488E-003  0.9118800E+02  0.7818608E-02  0.1130116E+00
         25   -1    0    0    0    0  0.00000000000E+00  0.00000000000E+00  0.99999998245E-14  0.12500000000E+03  0.12500000000E+03 0.  0.
        -13    1    3    3    0    0 -0.59576184816E+00 -0.20083820174E+01 -0.61664327075E+02  0.61699991314E+02  0.10566000000E+00 0. -1.
         23    2    1    0    0    0 -0.63897402600E+01  0.25852711398E+01 -0.28616105466E+02  0.95565430197E+02  0.90919511378E+02 0.  0.
         13    1    3    3    0    0 -0.57939784118E+01  0.45936531572E+01  0.33048221609E+02  0.33865438883E+02  0.10566000000E+00 0.  1.
         22    1    1    0    0    0  0.63897402600E+01 -0.25852711398E+01  0.28616105466E+02  0.29434569803E+02  0.00000000000E+00 0. -1.
</event>
<event>
 5    1  0.1758488E-003  0.9118800E+02  0.7818608E-02  0.1130116E+00
         25   -1    0    0    0    0  0.00000000000E+00  0.00000000000E+00  0.99999998245E-14  0.12500000000E+03  0.12500000000E+03 0.  0.
        -13    1    3    3    0    0  0.51363089570E+02  0.23465400144E+02  0.11493679740E+02  0.57627318280E+02  0.10566000000E+00 0. -1.
         23    2    1    0    0    0  0.19256675713E+02  0.23016442087E+02 -0.62979349638E+01  0.94336664391E+02  0.89214158617E+02 0.  0.
         13    1    3    3    0    0 -0.32106413857E+02 -0.44895805677E+00 -0.17791614704E+02  0.36709346111E+02  0.10566000000E+00 0.  1.
         22    1    1    0    0    0 -0.19256675713E+02 -0.23016442087E+02  0.62979349638E+01  0.30663335609E+02  0.00000000000E+00 0. -1.
</event>
<event>
 5    1  0.1758488E-003  0.9118800E+02  0.7818608E-02  0.1130116E+00
         25   -1    0    0    0    0  0.00000000000E+00  0.00000000000E+00  0.99999998245E-14  0.12500000000E+03  0.12500000000E+03 0.  0.
        -13    1    3    3    0    0 -0.19836011644E+02 -0.19789034953E+02  0.49997444409E+02  0.57313426645E+02  0.10566000000E+00 0. -1.
         23    2    1    0    0    0  0.87085137789E+01 -0.87111540661E+01  0.26048689681E+02  0.96185825511E+02  0.91768493383E+02 0.  0.
         13    1    3    3    0    0  0.28544525423E+02  0.11077880887E+02 -0.23948754728E+02  0.38872398866E+02  0.10566000000E+00 0.  1.
         22    1    1    0    0    0 -0.87085137789E+01  0.87111540661E+01 -0.26048689681E+02  0.28814174489E+02  0.00000000000E+00 0. -1.
</event>
<event>
 5    1  0.1758488E-003  0.9118800E+02  0.7818608E-02  0.1130116E+00
         25   -1    0    0    0    0  0.00000000000E+00  0.00000000000E+00  0.99999998245E-14  0.12500000000E+03  0.12500000000E+03 0.  0.
        -13    1    3    3    0    0 -0.51537079923E+02 -0.84988233412E+01 -0.32777971511E+02  0.61666094295E+02  0.10566000000E+00 0.  1.
         23    2    1    0    0    0 -0.27765020470E+02 -0.11327389902E+01 -0.98129804758E+01  0.95530116303E+02  0.90870947369E+02 0.  0.
         13    1    3    3    0    0  0.23772059453E+02  0.73660843510E+01  0.22964991035E+02  0.33864022008E+02  0.10566000000E+00 0. -1.
         22    1    1    0    0    0  0.27765020470E+02  0.11327389902E+01  0.98129804758E+01  0.29469883697E+02  0.00000000000E+00 0.  1.
</event>
<event>
 5    1  0.1758488E-003  0.9118800E+02  0.7818608E-02  0.1130116E+00
         25   -1    0    0    0    0  0.00000000000E+00  0.00000000000E+00  0.99999998245E-14  0.12500000000E+03  0.12500000000E+03 0.  0.
        -13    1    3    3    0    0 -0.26583220035E+02  0.47197220210E+02 -0.85428587137E+01  0.54838278438E+02  0.10566000000E+00 0.  1.
         23    2    1    0    0    0 -0.27870460175E+02  0.61167446650E+01 -0.30818949728E+01  0.96300257975E+02  0.91924232354E+02 0.  0.
         13    1    3    3    0    0 -0.12872401401E+01 -0.41080475545E+02  0.54609637409E+01  0.41461979538E+02  0.10566000000E+00 0. -1.
         22    1    1    0    0    0  0.27870460175E+02 -0.61167446650E+01  0.30818949728E+01  0.28699742025E+02  0.00000000000E+00 0.  1.
</event>
<event>
 5    1  0.1758488E-003  0.9118800E+02  0.7818608E-02  0.1130116E+00
         25   -1    0    0    0    0  0.00000000000E+00  0.00000000000E+00  0.99999998245E-14  0.12500000000E+03  0.12500000000E+03 0.  0.
        -13    1    3    3    0    0  0.27686436699E+02  0.33648967604E+01  0.50238219462E+02  0.57460866388E+02  0.10566000000E+00 0. -1.
         23    2    1    0    0    0  0.26037675746E+02 -0.25099865023E+01  0.11934449655E+02  0.96247753496E+02  0.91852808198E+02 0.  0.
         13    1    3    3    0    0 -0.16487609529E+01 -0.58748832626E+01 -0.38303769807E+02  0.38786887108E+02  0.10566000000E+00 0.  1.
         22    1    1    0    0    0 -0.26037675746E+02  0.25099865023E+01 -0.11934449655E+02  0.28752246504E+02  0.00000000000E+00 0. -1.
</event>
<event>
 5    1  0.1758488E-003  0.9118800E+02  0.7818608E-02  0.1130116E+00
         25   -1    0    0    0    0  0.00000000000E+00  0.00000000000E+00  0.99999998245E-14  0.12500000000E+03  0.12500000000E+03 0.  0.
        -13    1    3    3    0    0 -0.46861132417E+02  0.22252029681E+00  0.10980957486E+02  0.48131152469E+02  0.10566000000E+00 0.  1.
         23    2    1    0    0    0 -0.12205065310E+02 -0.19303416075E+02 -0.16798269644E+02  0.96649208928E+02  0.92397522867E+02 0.  0.
         13    1    3    3    0    0  0.34656067107E+02 -0.19525936372E+02 -0.27779227130E+02  0.48518056458E+02  0.10566000000E+00 0. -1.
         22    1    1    0    0    0  0.12205065310E+02  0.19303416075E+02  0.16798269644E+02  0.28350791072E+02  0.00000000000E+00 0.  1.
</event>
<event>
 5    1  0.1758488E-003  0.9118800E+02  0.7818608E-02  0.1130116E+00
         25   -1    0    0    0    0  0.00000000000E+00  0.00000000000E+00  0.99999998245E-14  0.12500000000E+03  0.12500000000E+03 0.  0.
        -13    1    3    3    0    0 -0.23062514959E+02  0.27147472584E+02  0.90250493147E+01  0.36746803168E+02  0.10566000000E+00 0. -1.
         23    2    1    0    0    0  0.29271020551E+02  0.31880132681E+01 -0.25110754795E+01  0.95449000478E+02  0.90759297702E+02 0.  0.
         13    1    3    3    0    0  0.52333535510E+02 -0.23959459316E+02 -0.11536124794E+02  0.58702197310E+02  0.10566000000E+00 0.  1.
         22    1    1    0    0    0 -0.29271020551E+02 -0.31880132681E+01  0.25110754795E+01  0.29550999522E+02  0.00000000000E+00 0.  1.
</event>
<event>
 5    1  0.1758488E-003  0.9118800E+02  0.7818608E-02  0.1130116E+00
         25   -1    0    0    0    0  0.00000000000E+00  0.00000000000E+00  0.99999998245E-14  0.12500000000E+03  0.12500000000E+03 0.  0.
        -13    1    3    3    0    0 -0.12372467432E+02 -0.36398547885E+02  0.29533047162E+02  0.48478286657E+02  0.10566000000E+00 0. -1.
         23    2    1    0    0    0 -0.21900698715E+02 -0.18135793965E+02 -0.11449455869E+02  0.94346490142E+02  0.89227924639E+02 0.  0.
         13    1    3    3    0    0 -0.95282312825E+01  0.18262753920E+02 -0.40982503032E+02  0.45868203484E+02  0.10566000000E+00 0.  1.
         22    1    1    0    0    0  0.21900698715E+02  0.18135793965E+02  0.11449455869E+02  0.30653509858E+02  0.00000000000E+00 0. -1.
</event>
<event>
 5    1  0.1758488E-003  0.9118800E+02  0.7818608E-02  0.1130116E+00
         25   -1    0    0    0    0  0.00000000000E+00  0.00000000000E+00  0.99999998245E-14  0.12500000000E+03  0.12500000000E+03 0.  0.
        -13    1    3    3    0    0 -0.38231772248E+02 -0.89269874831E+01  0.10875123343E+01  0.39275353109E+02  0.10566000000E+00 0. -1.
         23    2    1    0    0    0  0.15507966020E+02 -0.19403012027E+02 -0.14546349580E+02  0.96215105144E+02  0.91808367189E+02 0.  0.
         13    1    3    3    0    0  0.53739738268E+02 -0.10476024544E+02 -0.15633861914E+02  0.56939752034E+02  0.10566000000E+00 0.  1.
         22    1    1    0    0    0 -0.15507966020E+02  0.19403012027E+02  0.14546349580E+02  0.28784894856E+02  0.00000000000E+00 0.  1.
</event>
<event>
 5    1  0.1758488E-003  0.9118800E+02  0.7818608E-02  0.1130116E+00
         25   -1    0    0    0    0  0.00000000000E+00  0.00000000000E+00  0.99999998245E-14  0.12500000000E+03  0.12500000000E+03 0.  0.
        -13    1    3    3    0    0 -0.58954032526E+01  0.47065798968E+02 -0.38033308599E+02  0.60798757709E+02  0.10566000000E+00 0. -1.
         23    2    1    0    0    0 -0.26683977967E+01  0.15538973806E+02 -0.25788459968E+02  0.94773774280E+02  0.89824515418E+02 0.  0.
         13    1    3    3    0    0  0.32270054559E+01 -0.31526825162E+02  0.12244848631E+02  0.33975016571E+02  0.10566000000E+00 0.  1.
         22    1    1    0    0    0  0.26683977967E+01 -0.15538973806E+02  0.25788459968E+02  0.30226225720E+02  0.00000000000E+00 0. -1.
</event>
<event>
 5    1  0.1758488E-003  0.9118800E+02  0.7818608E-02  0.1130116E+00
         25   -1    0    0    0    0  0.00000000000E+00  0.00000000000E+00  0.99999998245E-14  0.12500000000E+03  0.12500000000E+03 0.  0.
        -13    1    3    3    0    0  0.13373430274E+02 -0.35713064425E+02 -0.27368287213E+01  0.38233140120E+02  0.10566000000E+00 0.  1.
         23    2    1    0    0    0  0.32690952051E+02  0.12049887839E+02 -0.49869161644E+01  0.89803871296E+02  0.82619415539E+02 0.  0.
         13    1    3    3    0    0  0.19317521777E+02  0.47762952263E+02 -0.22500874431E+01  0.51570731176E+02  0.10566000000E+00 0. -1.
         22    1    1    0    0    0 -0.32690952051E+02 -0.12049887839E+02  0.49869161644E+01  0.35196128704E+02  0.00000000000E+00 0.  1.
</event>
<event>
 5    1  0.1758488E-003  0.9118800E+02  0.7818608E-02  0.1130116E+00
         25   -1    0    0    0    0  0.00000000000E+00  0.00000000000E+00  0.99999998245E-14  0.12500000000E+03  0.12500000000E+03 0.  0.
        -13    1    3    3    0    0  0.25594550112E+02 -0.91196655361E+01  0.31672790227E+02  0.41730397790E+02  0.10566000000E+00 0. -1.
         23    2    1    0    0    0  0.39012364314E+01  0.27822587218E+02 -0.28650649623E+01  0.96759521916E+02  0.92546639479E+02 0.  0.
         13    1    3    3    0    0 -0.21693313681E+02  0.36942252754E+02 -0.34537855189E+02  0.55029124126E+02  0.10566000000E+00 0.  1.
         22    1    1    0    0    0 -0.39012364314E+01 -0.27822587218E+02  0.28650649623E+01  0.28240478084E+02  0.00000000000E+00 0.  1.
</event>
<event>
 5    1  0.1758488E-003  0.9118800E+02  0.7818608E-02  0.1130116E+00
         25   -1    0    0    0    0  0.00000000000E+00  0.00000000000E+00  0.99999998245E-14  0.12500000000E+03  0.12500000000E+03 0.  0.
        -13    1    3    3    0    0 -0.95210980807E+00 -0.45665980000E+02  0.95217378370E+01  0.46657934994E+02  0.10566000000E+00 0. -1.
         23    2    1    0    0    0 -0.14941761388E+02  0.22901380273E+01  0.22149115654E+02  0.98184252951E+02  0.94451380285E+02 0.  0.
         13    1    3    3    0    0 -0.13989651580E+02  0.47956118027E+02  0.12627377817E+02  0.51526317956E+02  0.10566000000E+00 0.  1.
         22    1    1    0    0    0  0.14941761388E+02 -0.22901380273E+01 -0.22149115654E+02  0.26815747049E+02  0.00000000000E+00 0.  1.
</event>
<event>
 5    1  0.1758488E-003  0.9118800E+02  0.7818608E-02  0.1130116E+00
         25   -1    0    0    0    0  0.00000000000E+00  0.00000000000E+00  0.99999998245E-14  0.12500000000E+03  0.12500000000E+03 0.  0.
        -13    1    3    3    0    0  0.19345634999E+02  0.34012663192E+02 -0.88780005691E+00  0.39139675572E+02  0.10566000000E+00 0.  1.
         23    2    1    0    0    0 -0.25616117460E+02 -0.39758398776E+01 -0.65188566626E+01  0.98270086633E+02  0.94564907118E+02 0.  0.
         13    1    3    3    0    0 -0.44961752459E+02 -0.37988503070E+02 -0.56310566057E+01  0.59130411060E+02  0.10566000000E+00 0. -1.
         22    1    1    0    0    0  0.25616117460E+02  0.39758398776E+01  0.65188566626E+01  0.26729913367E+02  0.00000000000E+00 0. -1.
</event>
<event>
 5    1  0.1758488E-003  0.9118800E+02  0.7818608E-02  0.1130116E+00
         25   -1    0    0    0    0  0.00000000000E+00  0.00000000000E+00  0.99999998245E-14  0.12500000000E+03  0.12500000000E+03 0.  0.
        -13    1    3    3    0    0 -0.42447399397E+02 -0.80727457957E+01  0.37513682143E+02  0.57220961651E+02  0.10566000000E+00 0.  1.
         23    2    1    0    0    0 -0.57783843894E+01 -0.77687869348E+01  0.28382990829E+02  0.95011036280E+02  0.90154085155E+02 0.  0.
         13    1    3    3    0    0  0.36669015007E+02  0.30395886096E+00 -0.91306913145E+01  0.37790074630E+02  0.10566000000E+00 0. -1.
         22    1    1    0    0    0  0.57783843894E+01  0.77687869348E+01 -0.28382990829E+02  0.29988963720E+02  0.00000000000E+00 0.  1.
</event>
<event>
 5    1  0.1758488E-003  0.9118800E+02  0.7818608E-02  0.1130116E+00
         25   -1    0    0    0    0  0.00000000000E+00  0.00000000000E+00  0.99999998245E-14  0.12500000000E+03  0.12500000000E+03 0.  0.
        -13    1    3    3    0    0 -0.45916715041E+01  0.33051373277E+02 -0.35406795514E+02  0.48653150518E+02  0.10566000000E+00 0. -1.
         23    2    1    0    0    0  0.10506370374E+02  0.25732825219E+02  0.87256886577E+01  0.95867548082E+02  0.91333931376E+02 0.  0.
         13    1    3    3    0    0  0.15098041878E+02 -0.73185480579E+01  0.44132484171E+02  0.47214397565E+02  0.10566000000E+00 0.  1.
         22    1    1    0    0    0 -0.10506370374E+02 -0.25732825219E+02 -0.87256886577E+01  0.29132451918E+02  0.00000000000E+00 0.  1.
</event>
<event>
 5    1  0.1758488E-003  0.9118800E+02  0.7818608E-02  0.1130116E+00
         25   -1    0    0    0    0  0.00000000000E+00  0.00000000000E+00  0.99999998245E-14  0.12500000000E+03  0.12500000000E+03 0.  0.
        -13    1    3    3    0    0 -0.44837726656E+02 -0.35178522423E+02 -0.72227305871E+01  0.57446750758E+02  0.10566000000E+00 0. -1.
         23    2    1    0    0    0 -0.28991729054E+02 -0.12272730284E+01  0.15981332981E+01  0.95938331385E+02  0.91430754379E+02 0.  0.
         13    1    3    3    0    0  0.15845997602E+02  0.33951249394E+02  0.88208638852E+01  0.38491580627E+02  0.10566000000E+00 0.  1.
         22    1    1    0    0    0  0.28991729054E+02  0.12272730284E+01 -0.15981332981E+01  0.29061668615E+02  0.00000000000E+00 0. -1.
</event>
<event>
 5    1  0.1758488E-003  0.9118800E+02  0.7818608E-02  0.1130116E+00
         25   -1    0    0    0    0  0.00000000000E+00  0.00000000000E+00  0.99999998245E-14  0.12500000000E+03  0.12500000000E+03 0.  0.
        -13    1    3    3    0    0 -0.36168615770E+02 -0.47027300271E+02  0.83863624852E+00  0.59333381939E+02  0.10566000000E+00 0.  1.
         23    2    1    0    0    0 -0.10863041435E+02 -0.22781237479E+02  0.13227510559E+02  0.96505132289E+02  0.92202402747E+02 0.  0.
         13    1    3    3    0    0  0.25305574335E+02  0.24246062793E+02  0.12388874311E+02  0.37171750350E+02  0.10566000000E+00 0. -1.
         22    1    1    0    0    0  0.10863041435E+02  0.22781237479E+02 -0.13227510559E+02  0.28494867711E+02  0.00000000000E+00 0.  1.
</event>
<event>
 5    1  0.1758488E-003  0.9118800E+02  0.7818608E-02  0.1130116E+00
         25   -1    0    0    0    0  0.00000000000E+00  0.00000000000E+00  0.99999998245E-14  0.12500000000E+03  0.12500000000E+03 0.  0.
        -13    1    3    3    0    0 -0.26911398952E+02 -0.46736730417E+02 -0.15622280991E+02  0.56148127227E+02  0.10566000000E+00 0.  1.
         23    2    1    0    0    0  0.88615698287E+01 -0.16983564542E+02 -0.11009057100E+02  0.10290547075E+03  0.10050556048E+03 0.  0.
         13    1    3    3    0    0  0.35772968781E+02  0.29753165875E+02  0.46132238906E+01  0.46757343527E+02  0.10566000000E+00 0. -1.
         22    1    1    0    0    0 -0.88615698287E+01  0.16983564542E+02  0.11009057100E+02  0.22094529246E+02  0.00000000000E+00 0. -1.
</event>
<event>
 4    1  0.1758488E-003  0.9118800E+02  0.7818608E-02  0.1130116E+00
         25   -1    0    0    0    0  0.00000000000E+00  0.00000000000E+00  0.99999998245E-14  0.12500000000E+03  0.12500000000E+03 0.  0.
        -13    1    1    0    0    0 -0.27382803881E+02 -0.32965373972E+02 -0.40921406128E+02  0.59254590312E+02  0.10566000000E+00 0.  1.
         13    1    1    0    0    0 -0.33732682965E+01 -0.26036492411E+01  0.20175071054E+01  0.47158697317E+01  0.10566000000E+00 0. -1.
         22    1    1    0    0    0  0.30756072177E+02  0.35569023214E+02  0.38903899022E+02  0.61029539956E+02  0.00000000000E+00 0.  1.
</event>
<event>
 5    1  0.1758488E-003  0.9118800E+02  0.7818608E-02  0.1130116E+00
         25   -1    0    0    0    0  0.00000000000E+00  0.00000000000E+00  0.99999998245E-14  0.12500000000E+03  0.12500000000E+03 0.  0.
        -13    1    3    3    0    0 -0.27067515934E+02  0.11782829119E+02 -0.40986787534E+02  0.50511517472E+02  0.10566000000E+00 0. -1.
         23    2    1    0    0    0  0.15188004769E+02  0.51777415085E+01 -0.23108367871E+02  0.96866725010E+02  0.92691322423E+02 0.  0.
         13    1    3    3    0    0  0.42255520703E+02 -0.66050876104E+01  0.17878419663E+02  0.46355207538E+02  0.10566000000E+00 0.  1.
         22    1    1    0    0    0 -0.15188004769E+02 -0.51777415085E+01  0.23108367871E+02  0.28133274990E+02  0.00000000000E+00 0. -1.
</event>
<event>
 5    1  0.1758488E-003  0.9118800E+02  0.7818608E-02  0.1130116E+00
         25   -1    0    0    0    0  0.00000000000E+00  0.00000000000E+00  0.99999998245E-14  0.12500000000E+03  0.12500000000E+03 0.  0.
        -13    1    3    3    0    0 -0.39120554142E+02 -0.13587673800E+02  0.10373922768E+02  0.42692763712E+02  0.10566000000E+00 0. -1.
         23    2    1    0    0    0  0.59330079569E+01  0.15517123699E+02  0.21858056095E+02  0.97545376936E+02  0.93602052510E+02 0.  0.
         13    1    3    3    0    0  0.45053562099E+02  0.29104797499E+02  0.11484133327E+02  0.54852613225E+02  0.10566000000E+00 0.  1.
         22    1    1    0    0    0 -0.59330079569E+01 -0.15517123699E+02 -0.21858056095E+02  0.27454623064E+02  0.00000000000E+00 0.  1.
</event>
<event>
 5    1  0.1758488E-003  0.9118800E+02  0.7818608E-02  0.1130116E+00
         25   -1    0    0    0    0  0.00000000000E+00  0.00000000000E+00  0.99999998245E-14  0.12500000000E+03  0.12500000000E+03 0.  0.
        -13    1    3    3    0    0 -0.16004561424E+02  0.45654563324E+02  0.39434020888E+02  0.62414247622E+02  0.10566000000E+00 0. -1.
         23    2    1    0    0    0 -0.91276072863E+01  0.21750078998E+02  0.16842512308E+02  0.96016394772E+02  0.91537416901E+02 0.  0.
         13    1    3    3    0    0  0.68769541379E+01 -0.23904484326E+02 -0.22591508580E+02  0.33602147150E+02  0.10566000000E+00 0.  1.
         22    1    1    0    0    0  0.91276072863E+01 -0.21750078998E+02 -0.16842512308E+02  0.28983605228E+02  0.00000000000E+00 0. -1.
</event>
<event>
 5    1  0.1758488E-003  0.9118800E+02  0.7818608E-02  0.1130116E+00
         25   -1    0    0    0    0  0.00000000000E+00  0.00000000000E+00  0.99999998245E-14  0.12500000000E+03  0.12500000000E+03 0.  0.
        -13    1    3    3    0    0  0.78760641315E+01 -0.56829575659E+02  0.35982005422E+01  0.57485574425E+02  0.10566000000E+00 0.  1.
         23    2    1    0    0    0  0.84587870216E+01 -0.28003256711E+02 -0.15327717226E+02  0.91974670636E+02  0.85840943954E+02 0.  0.
         13    1    3    3    0    0  0.58272289014E+00  0.28826318948E+02 -0.18925917768E+02  0.34489096211E+02  0.10566000000E+00 0. -1.
         22    1    1    0    0    0 -0.84587870216E+01  0.28003256711E+02  0.15327717226E+02  0.33025329364E+02  0.00000000000E+00 0.  1.
</event>
<event>
 4    1  0.1758488E-003  0.9118800E+02  0.7818608E-02  0.1130116E+00
         25   -1    0    0    0    0  0.00000000000E+00  0.00000000000E+00  0.99999998245E-14  0.12500000000E+03  0.12500000000E+03 0.  0.
        -13    1    1    0    0    0  0.70747313746E+01  0.10058373302E+02 -0.45477769271E+01  0.13111679394E+02  0.10566000000E+00 0. -1.
         13    1    1    0    0    0  0.89433887361E+01  0.41671598566E+02 -0.25790099839E+02  0.49816129345E+02  0.10566000000E+00 0.  1.
         22    1    1    0    0    0 -0.16018120111E+02 -0.51729971868E+02  0.30337876766E+02  0.62072191262E+02  0.00000000000E+00 0.  1.
</event>
<event>
 5    1  0.1758488E-003  0.9118800E+02  0.7818608E-02  0.1130116E+00
         25   -1    0    0    0    0  0.00000000000E+00  0.00000000000E+00  0.99999998245E-14  0.12500000000E+03  0.12500000000E+03 0.  0.
        -13    1    3    3    0    0  0.38849597453E+02 -0.21072906612E+02 -0.18983738122E+02  0.48101477030E+02  0.10566000000E+00 0. -1.
         23    2    1    0    0    0  0.42164737006E+02 -0.71155592909E+00  0.80095736395E+01  0.82075361055E+02  0.69955988049E+02 0.  0.
         13    1    3    3    0    0  0.33151395530E+01  0.20361350683E+02  0.26993311761E+02  0.33973884025E+02  0.10566000000E+00 0.  1.
         22    1    1    0    0    0 -0.42164737006E+02  0.71155592909E+00 -0.80095736395E+01  0.42924638945E+02  0.00000000000E+00 0. -1.
</event>
<event>
 5    1  0.1758488E-003  0.9118800E+02  0.7818608E-02  0.1130116E+00
         25   -1    0    0    0    0  0.00000000000E+00  0.00000000000E+00  0.99999998245E-14  0.12500000000E+03  0.12500000000E+03 0.  0.
        -13    1    3    3    0    0 -0.16335890555E+02  0.33515130913E+02  0.56632734000E+01  0.37712188348E+02  0.10566000000E+00 0. -1.
         23    2    1    0    0    0  0.31691348235E+01 -0.10410628113E+02 -0.27044867473E+02  0.95847822553E+02  0.91306930944E+02 0.  0.
         13    1    3    3    0    0  0.19505025379E+02 -0.43925759026E+02 -0.32708140873E+02  0.58135634205E+02  0.10566000000E+00 0.  1.
         22    1    1    0    0    0 -0.31691348235E+01  0.10410628113E+02  0.27044867473E+02  0.29152177447E+02  0.00000000000E+00 0.  1.
</event>
<event>
 5    1  0.1758488E-003  0.9118800E+02  0.7818608E-02  0.1130116E+00
         25   -1    0    0    0    0  0.00000000000E+00  0.00000000000E+00  0.99999998245E-14  0.12500000000E+03  0.12500000000E+03 0.  0.
        -13    1    3    3    0    0 -0.18136798065E+02  0.38931016432E+02  0.37460098950E+02  0.56989803140E+02  0.10566000000E+00 0.  1.
         23    2    1    0    0    0 -0.98495793697E+01  0.34345888559E+01  0.28677796089E+02  0.94483994316E+02  0.89420347679E+02 0.  0.
         13    1    3    3    0    0  0.82872186957E+01 -0.35496427576E+02 -0.87823028609E+01  0.37494191176E+02  0.10566000000E+00 0. -1.
         22    1    1    0    0    0  0.98495793697E+01 -0.34345888559E+01 -0.28677796089E+02  0.30516005684E+02  0.00000000000E+00 0.  1.
</event>
<event>
 5    1  0.1758488E-003  0.9118800E+02  0.7818608E-02  0.1130116E+00
         25   -1    0    0    0    0  0.00000000000E+00  0.00000000000E+00  0.99999998245E-14  0.12500000000E+03  0.12500000000E+03 0.  0.
        -13    1    3    3    0    0  0.23059120625E+02  0.21578921618E+02 -0.30935706031E+01  0.31732542370E+02  0.10566000000E+00 0. -1.
         23    2    1    0    0    0 -0.12871292589E+02  0.17671923908E+02 -0.37473769712E+02  0.81615089214E+02  0.69128664846E+02 0.  0.
         13    1    3    3    0    0 -0.35930413214E+02 -0.39069977097E+01 -0.34380199109E+02  0.49882546844E+02  0.10566000000E+00 0.  1.
         22    1    1    0    0    0  0.12871292589E+02 -0.17671923908E+02  0.37473769712E+02  0.43384910786E+02  0.00000000000E+00 0.  1.
</event>
<event>
 5    1  0.1758488E-003  0.9118800E+02  0.7818608E-02  0.1130116E+00
         25   -1    0    0    0    0  0.00000000000E+00  0.00000000000E+00  0.99999998245E-14  0.12500000000E+03  0.12500000000E+03 0.  0.
        -13    1    3    3    0    0 -0.39564211618E+02 -0.42272920573E+01  0.42171444362E+02  0.57979640588E+02  0.10566000000E+00 0.  1.
         23    2    1    0    0    0 -0.37485418766E+01 -0.45408798614E+01  0.27817722807E+02  0.96565920829E+02  0.92284777766E+02 0.  0.
         13    1    3    3    0    0  0.35815669742E+02 -0.31358780414E+00 -0.14353721555E+02  0.38586280241E+02  0.10566000000E+00 0. -1.
         22    1    1    0    0    0  0.37485418766E+01  0.45408798614E+01 -0.27817722807E+02  0.28434079171E+02  0.00000000000E+00 0.  1.
</event>
<event>
 5    1  0.1758488E-003  0.9118800E+02  0.7818608E-02  0.1130116E+00
         25   -1    0    0    0    0  0.00000000000E+00  0.00000000000E+00  0.99999998245E-14  0.12500000000E+03  0.12500000000E+03 0.  0.
        -13    1    3    3    0    0  0.18687578515E+02  0.25336856549E+02 -0.14932914305E+02  0.34845157256E+02  0.10566000000E+00 0.  1.
         23    2    1    0    0    0  0.46951130377E+01 -0.19945839461E+02  0.22002925925E+02  0.94933251797E+02  0.90046171209E+02 0.  0.
         13    1    3    3    0    0 -0.13992465477E+02 -0.45282696010E+02  0.36935840230E+02  0.60088094541E+02  0.10566000000E+00 0. -1.
         22    1    1    0    0    0 -0.46951130377E+01  0.19945839461E+02 -0.22002925925E+02  0.30066748203E+02  0.00000000000E+00 0. -1.
</event>
<event>
 5    1  0.1758488E-003  0.9118800E+02  0.7818608E-02  0.1130116E+00
         25   -1    0    0    0    0  0.00000000000E+00  0.00000000000E+00  0.99999998245E-14  0.12500000000E+03  0.12500000000E+03 0.  0.
        -13    1    3    3    0    0  0.78242930675E+01  0.29416138407E+02  0.50363690049E+02  0.58847609978E+02  0.10566000000E+00 0.  1.
         23    2    1    0    0    0  0.16345715237E+02  0.52219197115E+01  0.22187180753E+02  0.96951437794E+02  0.92805492556E+02 0.  0.
         13    1    3    3    0    0  0.85214221691E+01 -0.24194218695E+02 -0.28176509296E+02  0.38103827816E+02  0.10566000000E+00 0. -1.
         22    1    1    0    0    0 -0.16345715237E+02 -0.52219197115E+01 -0.22187180753E+02  0.28048562206E+02  0.00000000000E+00 0.  1.
</event>
<event>
 5    1  0.1758488E-003  0.9118800E+02  0.7818608E-02  0.1130116E+00
         25   -1    0    0    0    0  0.00000000000E+00  0.00000000000E+00  0.99999998245E-14  0.12500000000E+03  0.12500000000E+03 0.  0.
        -13    1    3    3    0    0 -0.24414821405E+02  0.10861374246E+02 -0.33606564378E+02  0.42935594651E+02  0.10566000000E+00 0.  1.
         23    2    1    0    0    0  0.13888392008E+02  0.27313790449E+02 -0.39302548756E+01  0.94106999423E+02  0.88891787336E+02 0.  0.
         13    1    3    3    0    0  0.38303213413E+02  0.16452416203E+02  0.29676309502E+02  0.51171404772E+02  0.10566000000E+00 0. -1.
         22    1    1    0    0    0 -0.13888392008E+02 -0.27313790449E+02  0.39302548756E+01  0.30893000577E+02  0.00000000000E+00 0.  1.
</event>
<event>
 5    1  0.1758488E-003  0.9118800E+02  0.7818608E-02  0.1130116E+00
         25   -1    0    0    0    0  0.00000000000E+00  0.00000000000E+00  0.99999998245E-14  0.12500000000E+03  0.12500000000E+03 0.  0.
        -13    1    3    3    0    0 -0.22862584310E+01 -0.61356884868E+02 -0.99618759871E+01  0.62202447183E+02  0.10566000000E+00 0.  1.
         23    2    1    0    0    0 -0.24950609567E+01 -0.30619601161E+02 -0.83278539677E+00  0.94267625605E+02  0.89117374296E+02 0.  0.
         13    1    3    3    0    0 -0.20880252569E+00  0.30737283708E+02  0.91290905903E+01  0.32065178422E+02  0.10566000000E+00 0. -1.
         22    1    1    0    0    0  0.24950609567E+01  0.30619601161E+02  0.83278539677E+00  0.30732374395E+02  0.00000000000E+00 0.  1.
</event>
<event>
 5    1  0.1758488E-003  0.9118800E+02  0.7818608E-02  0.1130116E+00
         25   -1    0    0    0    0  0.00000000000E+00  0.00000000000E+00  0.99999998245E-14  0.12500000000E+03  0.12500000000E+03 0.  0.
        -13    1    3    3    0    0 -0.10790479818E+02  0.13003631609E+02 -0.45728034154E+02  0.48750314475E+02  0.10566000000E+00 0.  1.
         23    2    1    0    0    0 -0.23519079252E+02  0.19937769808E+02 -0.28224477270E+01  0.94038282268E+02  0.88795104409E+02 0.  0.
         13    1    3    3    0    0 -0.12728599434E+02  0.69341381984E+01  0.42905586427E+02  0.45287967793E+02  0.10566000000E+00 0. -1.
         22    1    1    0    0    0  0.23519079252E+02 -0.19937769808E+02  0.28224477270E+01  0.30961717732E+02  0.00000000000E+00 0. -1.
</event>
<event>
 5    1  0.1758488E-003  0.9118800E+02  0.7818608E-02  0.1130116E+00
         25   -1    0    0    0    0  0.00000000000E+00  0.00000000000E+00  0.99999998245E-14  0.12500000000E+03  0.12500000000E+03 0.  0.
        -13    1    3    3    0    0  0.36022553783E+02  0.34005897601E+01 -0.58066860857E+01  0.36645834130E+02  0.10566000000E+00 0.  1.
         23    2    1    0    0    0  0.58259177829E+01 -0.20305461514E+02 -0.34480744728E+02  0.84562704810E+02  0.74267598605E+02 0.  0.
         13    1    3    3    0    0 -0.30196636000E+02 -0.23706051274E+02 -0.28674058642E+02  0.47916870680E+02  0.10566000000E+00 0. -1.
         22    1    1    0    0    0 -0.58259177829E+01  0.20305461514E+02  0.34480744728E+02  0.40437295190E+02  0.00000000000E+00 0.  1.
</event>
<event>
 5    1  0.1758488E-003  0.9118800E+02  0.7818608E-02  0.1130116E+00
         25   -1    0    0    0    0  0.00000000000E+00  0.00000000000E+00  0.99999998245E-14  0.12500000000E+03  0.12500000000E+03 0.  0.
        -13    1    3    3    0    0 -0.97032703806E+01 -0.31026114531E+02  0.45083879889E+02  0.55581837221E+02  0.10566000000E+00 0. -1.
         23    2    1    0    0    0  0.12436334924E+02 -0.33072601416E+01  0.26293287884E+02  0.95726507148E+02  0.91140697754E+02 0.  0.
         13    1    3    3    0    0  0.22139605304E+02  0.27718854389E+02 -0.18790592005E+02  0.40144669928E+02  0.10566000000E+00 0.  1.
         22    1    1    0    0    0 -0.12436334924E+02  0.33072601416E+01 -0.26293287884E+02  0.29273492852E+02  0.00000000000E+00 0. -1.
</event>
<event>
 5    1  0.1758488E-003  0.9118800E+02  0.7818608E-02  0.1130116E+00
         25   -1    0    0    0    0  0.00000000000E+00  0.00000000000E+00  0.99999998245E-14  0.12500000000E+03  0.12500000000E+03 0.  0.
        -13    1    3    3    0    0  0.11143621567E+02  0.32473928707E+02  0.18117573542E+02  0.38820020381E+02  0.10566000000E+00 0.  1.
         23    2    1    0    0    0  0.22958797671E+01 -0.23887239529E+02  0.16468413079E+02  0.95895362816E+02  0.91371990807E+02 0.  0.
         13    1    3    3    0    0 -0.88477417996E+01 -0.56361168236E+02 -0.16491604626E+01  0.57075342436E+02  0.10566000000E+00 0. -1.
         22    1    1    0    0    0 -0.22958797671E+01  0.23887239529E+02 -0.16468413079E+02  0.29104637184E+02  0.00000000000E+00 0. -1.
</event>
<event>
 5    1  0.1758488E-003  0.9118800E+02  0.7818608E-02  0.1130116E+00
         25   -1    0    0    0    0  0.00000000000E+00  0.00000000000E+00  0.99999998245E-14  0.12500000000E+03  0.12500000000E+03 0.  0.
        -13    1    3    3    0    0  0.42323979952E+02  0.65897688908E+01 -0.75272466674E+01  0.43490400544E+02  0.10566000000E+00 0.  1.
         23    2    1    0    0    0  0.15857121677E+02 -0.23924858583E+02  0.17855052876E+02  0.91196892461E+02  0.84700785800E+02 0.  0.
         13    1    3    3    0    0 -0.26466858276E+02 -0.30514627474E+02  0.25382299543E+02  0.47706491917E+02  0.10566000000E+00 0. -1.
         22    1    1    0    0    0 -0.15857121677E+02  0.23924858583E+02 -0.17855052876E+02  0.33803107539E+02  0.00000000000E+00 0. -1.
</event>
<event>
 5    1  0.1758488E-003  0.9118800E+02  0.7818608E-02  0.1130116E+00
         25   -1    0    0    0    0  0.00000000000E+00  0.00000000000E+00  0.99999998245E-14  0.12500000000E+03  0.12500000000E+03 0.  0.
        -13    1    3    3    0    0  0.17522271384E+02 -0.15401960680E+02  0.27036667680E+02  0.35710543969E+02  0.10566000000E+00 0. -1.
         23    2    1    0    0    0  0.39121278956E+01  0.26890216984E+02 -0.12413112487E+02  0.95125698741E+02  0.90312926457E+02 0.  0.
         13    1    3    3    0    0 -0.13610143489E+02  0.42292177664E+02 -0.39449780167E+02  0.59415154772E+02  0.10566000000E+00 0.  1.
         22    1    1    0    0    0 -0.39121278956E+01 -0.26890216984E+02  0.12413112487E+02  0.29874301259E+02  0.00000000000E+00 0.  1.
</event>
<event>
 5    1  0.1758488E-003  0.9118800E+02  0.7818608E-02  0.1130116E+00
         25   -1    0    0    0    0  0.00000000000E+00  0.00000000000E+00  0.99999998245E-14  0.12500000000E+03  0.12500000000E+03 0.  0.
        -13    1    3    3    0    0  0.47907252879E+02  0.17160287492E+02 -0.34081513768E+02  0.61246559822E+02  0.10566000000E+00 0.  1.
         23    2    1    0    0    0  0.17558742592E+02  0.37062854668E+01 -0.22081050651E+02  0.96546199002E+02  0.92258060626E+02 0.  0.
         13    1    3    3    0    0 -0.30348510287E+02 -0.13454002025E+02  0.12000463117E+02  0.35299639179E+02  0.10566000000E+00 0. -1.
         22    1    1    0    0    0 -0.17558742592E+02 -0.37062854668E+01  0.22081050651E+02  0.28453800998E+02  0.00000000000E+00 0.  1.
</event>
<event>
 5    1  0.1758488E-003  0.9118800E+02  0.7818608E-02  0.1130116E+00
         25   -1    0    0    0    0  0.00000000000E+00  0.00000000000E+00  0.99999998245E-14  0.12500000000E+03  0.12500000000E+03 0.  0.
        -13    1    3    3    0    0  0.23817882585E+02  0.26810204120E+02  0.53059045856E+01  0.36252480788E+02  0.10566000000E+00 0.  1.
         23    2    1    0    0    0 -0.16282044739E+02 -0.61665309784E+01 -0.23598237795E+02  0.95674108501E+02  0.91068804347E+02 0.  0.
         13    1    3    3    0    0 -0.40099927324E+02 -0.32976735099E+02 -0.28904142381E+02  0.59421627712E+02  0.10566000000E+00 0. -1.
         22    1    1    0    0    0  0.16282044739E+02  0.61665309784E+01  0.23598237795E+02  0.29325891499E+02  0.00000000000E+00 0. -1.
</event>
<event>
 5    1  0.1758488E-003  0.9118800E+02  0.7818608E-02  0.1130116E+00
         25   -1    0    0    0    0  0.00000000000E+00  0.00000000000E+00  0.99999998245E-14  0.12500000000E+03  0.12500000000E+03 0.  0.
        -13    1    3    3    0    0 -0.15314683842E+02 -0.66263103991E+01 -0.29735938430E+02  0.34098163133E+02  0.10566000000E+00 0.  1.
         23    2    1    0    0    0  0.53358386342E+01 -0.33475755320E+01  0.28415574724E+02  0.95894634125E+02  0.91370993927E+02 0.  0.
         13    1    3    3    0    0  0.20650522477E+02  0.32787348672E+01  0.58151513154E+02  0.61796470991E+02  0.10566000000E+00 0. -1.
         22    1    1    0    0    0 -0.53358386342E+01  0.33475755320E+01 -0.28415574724E+02  0.29105365875E+02  0.00000000000E+00 0. -1.
</event>
<event>
 5    1  0.1758488E-003  0.9118800E+02  0.7818608E-02  0.1130116E+00
         25   -1    0    0    0    0  0.00000000000E+00  0.00000000000E+00  0.99999998245E-14  0.12500000000E+03  0.12500000000E+03 0.  0.
        -13    1    3    3    0    0  0.19422703240E+02  0.77763233221E+00 -0.60814496554E+01  0.20367653452E+02  0.10566000000E+00 0.  1.
         23    2    1    0    0    0 -0.39738739562E+02  0.34853349169E+01 -0.18735778702E+02  0.80927963684E+02  0.67874818019E+02 0.  0.
         13    1    3    3    0    0 -0.59161442802E+02  0.27077025847E+01 -0.12654329047E+02  0.60560310232E+02  0.10566000000E+00 0. -1.
         22    1    1    0    0    0  0.39738739562E+02 -0.34853349169E+01  0.18735778702E+02  0.44072036316E+02  0.00000000000E+00 0. -1.
</event>
<event>
 5    1  0.1758488E-003  0.9118800E+02  0.7818608E-02  0.1130116E+00
         25   -1    0    0    0    0  0.00000000000E+00  0.00000000000E+00  0.99999998245E-14  0.12500000000E+03  0.12500000000E+03 0.  0.
        -13    1    3    3    0    0 -0.36395087549E+02 -0.12633954305E+02 -0.21386148627E+02  0.44063564498E+02  0.10566000000E+00 0. -1.
         23    2    1    0    0    0  0.89848900252E+01  0.10526410929E+02 -0.26332993627E+02  0.95251720568E+02  0.90487182198E+02 0.  0.
         13    1    3    3    0    0  0.45379977575E+02  0.23160365233E+02 -0.49468449996E+01  0.51188156071E+02  0.10566000000E+00 0.  1.
         22    1    1    0    0    0 -0.89848900252E+01 -0.10526410929E+02  0.26332993627E+02  0.29748279432E+02  0.00000000000E+00 0.  1.
</event>
<event>
 5    1  0.1758488E-003  0.9118800E+02  0.7818608E-02  0.1130116E+00
         25   -1    0    0    0    0  0.00000000000E+00  0.00000000000E+00  0.99999998245E-14  0.12500000000E+03  0.12500000000E+03 0.  0.
        -13    1    3    3    0    0 -0.55680154868E+01  0.20652012108E+02 -0.40300087232E+02  0.45624736662E+02  0.10566000000E+00 0. -1.
         23    2    1    0    0    0  0.22658332112E+02 -0.11610762318E+02 -0.13468553302E+02  0.96197018492E+02  0.91783738336E+02 0.  0.
         13    1    3    3    0    0  0.28226347599E+02 -0.32262774426E+02  0.26831533930E+02  0.50572281830E+02  0.10566000000E+00 0.  1.
         22    1    1    0    0    0 -0.22658332112E+02  0.11610762318E+02  0.13468553302E+02  0.28802981508E+02  0.00000000000E+00 0.  1.
</event>
<event>
 5    1  0.1758488E-003  0.9118800E+02  0.7818608E-02  0.1130116E+00
         25   -1    0    0    0    0  0.00000000000E+00  0.00000000000E+00  0.99999998245E-14  0.12500000000E+03  0.12500000000E+03 0.  0.
        -13    1    3    3    0    0  0.64037077555E+01 -0.28336319042E+02  0.31332688804E+02  0.42728245946E+02  0.10566000000E+00 0.  1.
         23    2    1    0    0    0 -0.28838354972E+02 -0.23110104283E+00  0.29179291262E+01  0.96013478381E+02  0.91533434303E+02 0.  0.
         13    1    3    3    0    0 -0.35242062727E+02  0.28105217999E+02 -0.28414759678E+02  0.53285232435E+02  0.10566000000E+00 0. -1.
         22    1    1    0    0    0  0.28838354972E+02  0.23110104283E+00 -0.29179291262E+01  0.28986521619E+02  0.00000000000E+00 0. -1.
</event>
<event>
 5    1  0.1758488E-003  0.9118800E+02  0.7818608E-02  0.1130116E+00
         25   -1    0    0    0    0  0.00000000000E+00  0.00000000000E+00  0.99999998245E-14  0.12500000000E+03  0.12500000000E+03 0.  0.
        -13    1    3    3    0    0 -0.20241386342E+02  0.22838010213E+02 -0.68996403860E+01  0.31287451686E+02  0.10566000000E+00 0. -1.
         23    2    1    0    0    0  0.13164317273E+02 -0.24736952868E+02 -0.19616808654E+02  0.90794221713E+02  0.84104431680E+02 0.  0.
         13    1    3    3    0    0  0.33405703615E+02 -0.47574963081E+02 -0.12717168268E+02  0.59506770027E+02  0.10566000000E+00 0.  1.
         22    1    1    0    0    0 -0.13164317273E+02  0.24736952868E+02  0.19616808654E+02  0.34205778287E+02  0.00000000000E+00 0.  1.
</event>
<event>
 5    1  0.1758488E-003  0.9118800E+02  0.7818608E-02  0.1130116E+00
         25   -1    0    0    0    0  0.00000000000E+00  0.00000000000E+00  0.99999998245E-14  0.12500000000E+03  0.12500000000E+03 0.  0.
        -13    1    3    3    0    0  0.98701558072E+01  0.33549610403E+01  0.32417711226E+02  0.34052825205E+02  0.10566000000E+00 0.  1.
         23    2    1    0    0    0  0.25837127378E+01 -0.19565463260E+02 -0.23136525016E+02  0.94589776162E+02  0.89568097225E+02 0.  0.
         13    1    3    3    0    0 -0.72864430694E+01 -0.22920424300E+02 -0.55554236242E+02  0.60536950957E+02  0.10566000000E+00 0. -1.
         22    1    1    0    0    0 -0.25837127378E+01  0.19565463260E+02  0.23136525016E+02  0.30410223838E+02  0.00000000000E+00 0. -1.
</event>
<event>
 5    1  0.1758488E-003  0.9118800E+02  0.7818608E-02  0.1130116E+00
         25   -1    0    0    0    0  0.00000000000E+00  0.00000000000E+00  0.99999998245E-14  0.12500000000E+03  0.12500000000E+03 0.  0.
        -13    1    3    3    0    0 -0.16472972763E+02  0.11116035551E+01  0.37567151997E+02  0.41035308787E+02  0.10566000000E+00 0.  1.
         23    2    1    0    0    0  0.22668058540E+02  0.18188334349E+02  0.33742499690E+01  0.95741805469E+02  0.91161677075E+02 0.  0.
         13    1    3    3    0    0  0.39141031302E+02  0.17076730794E+02 -0.34192902028E+02  0.54706496681E+02  0.10566000000E+00 0. -1.
         22    1    1    0    0    0 -0.22668058540E+02 -0.18188334349E+02 -0.33742499690E+01  0.29258194531E+02  0.00000000000E+00 0. -1.
</event>
<event>
 5    1  0.1758488E-003  0.9118800E+02  0.7818608E-02  0.1130116E+00
         25   -1    0    0    0    0  0.00000000000E+00  0.00000000000E+00  0.99999998245E-14  0.12500000000E+03  0.12500000000E+03 0.  0.
        -13    1    3    3    0    0 -0.28271128468E+02 -0.12516121046E+02 -0.26781490720E+02  0.40904393409E+02  0.10566000000E+00 0.  1.
         23    2    1    0    0    0 -0.82980207224E+01 -0.12895710275E+02  0.24588215837E+02  0.96021786642E+02  0.91544779536E+02 0.  0.
         13    1    3    3    0    0  0.19973107746E+02 -0.37958922942E+00  0.51369706557E+02  0.55117393233E+02  0.10566000000E+00 0. -1.
         22    1    1    0    0    0  0.82980207224E+01  0.12895710275E+02 -0.24588215837E+02  0.28978213358E+02  0.00000000000E+00 0.  1.
</event>
<event>
 5    1  0.1758488E-003  0.9118800E+02  0.7818608E-02  0.1130116E+00
         25   -1    0    0    0    0  0.00000000000E+00  0.00000000000E+00  0.99999998245E-14  0.12500000000E+03  0.12500000000E+03 0.  0.
        -13    1    3    3    0    0  0.11817458186E+02  0.30682204267E+02 -0.29268093268E+02  0.44019114306E+02  0.10566000000E+00 0.  1.
         23    2    1    0    0    0 -0.28135965560E+02  0.68036856538E+01 -0.11997678586E+02  0.93665243133E+02  0.88268401953E+02 0.  0.
         13    1    3    3    0    0 -0.39953423746E+02 -0.23878518613E+02  0.17270414683E+02  0.49646128827E+02  0.10566000000E+00 0. -1.
         22    1    1    0    0    0  0.28135965560E+02 -0.68036856538E+01  0.11997678586E+02  0.31334756867E+02  0.00000000000E+00 0.  1.
</event>
<event>
 5    1  0.1758488E-003  0.9118800E+02  0.7818608E-02  0.1130116E+00
         25   -1    0    0    0    0  0.00000000000E+00  0.00000000000E+00  0.99999998245E-14  0.12500000000E+03  0.12500000000E+03 0.  0.
        -13    1    3    3    0    0 -0.36026748921E+02 -0.42203942314E+01 -0.19930725983E+02  0.41388203241E+02  0.10566000000E+00 0.  1.
         23    2    1    0    0    0 -0.46370845726E+01  0.30494306117E+02  0.39025826541E+01  0.93909239149E+02  0.88613259659E+02 0.  0.
         13    1    3    3    0    0  0.31389664349E+02  0.34714700349E+02  0.23833308637E+02  0.52521035908E+02  0.10566000000E+00 0. -1.
         22    1    1    0    0    0  0.46370845726E+01 -0.30494306117E+02 -0.39025826541E+01  0.31090760851E+02  0.00000000000E+00 0. -1.
</event>
<event>
 5    1  0.1758488E-003  0.9118800E+02  0.7818608E-02  0.1130116E+00
         25   -1    0    0    0    0  0.00000000000E+00  0.00000000000E+00  0.99999998245E-14  0.12500000000E+03  0.12500000000E+03 0.  0.
        -13    1    3    3    0    0  0.25520162621E+02  0.12903338247E+02 -0.21948331802E+02  0.36048790146E+02  0.10566000000E+00 0.  1.
         23    2    1    0    0    0 -0.11245667738E+02  0.19544822339E+02  0.21838870408E+02  0.93608896422E+02  0.88188571286E+02 0.  0.
         13    1    3    3    0    0 -0.36765830359E+02  0.66414840928E+01  0.43787202211E+02  0.57560106275E+02  0.10566000000E+00 0. -1.
         22    1    1    0    0    0  0.11245667738E+02 -0.19544822339E+02 -0.21838870408E+02  0.31391103578E+02  0.00000000000E+00 0. -1.
</event>
<event>
 5    1  0.1758488E-003  0.9118800E+02  0.7818608E-02  0.1130116E+00
         25   -1    0    0    0    0  0.00000000000E+00  0.00000000000E+00  0.99999998245E-14  0.12500000000E+03  0.12500000000E+03 0.  0.
        -13    1    3    3    0    0  0.11123223194E+02 -0.21465906808E+02 -0.33805186453E+02  0.41560955769E+02  0.10566000000E+00 0. -1.
         23    2    1    0    0    0 -0.16423051422E+02 -0.19948725426E+02  0.13139377900E+02  0.96011872849E+02  0.91531241728E+02 0.  0.
         13    1    3    3    0    0 -0.27546274616E+02  0.15171813826E+01  0.46944564353E+02  0.54450917080E+02  0.10566000000E+00 0.  1.
         22    1    1    0    0    0  0.16423051422E+02  0.19948725426E+02 -0.13139377900E+02  0.28988127151E+02  0.00000000000E+00 0.  1.
</event>
<event>
 5    1  0.1758488E-003  0.9118800E+02  0.7818608E-02  0.1130116E+00
         25   -1    0    0    0    0  0.00000000000E+00  0.00000000000E+00  0.99999998245E-14  0.12500000000E+03  0.12500000000E+03 0.  0.
        -13    1    3    3    0    0 -0.77758919417E+01  0.11978687753E+02 -0.34144227784E+02  0.37010713459E+02  0.10566000000E+00 0.  1.
         23    2    1    0    0    0  0.11600299877E+01  0.87414538454E+01  0.25815952452E+02  0.97719565878E+02  0.93834383194E+02 0.  0.
         13    1    3    3    0    0  0.89359219293E+01 -0.32372339074E+01  0.59960180235E+02  0.60708852419E+02  0.10566000000E+00 0. -1.
         22    1    1    0    0    0 -0.11600299877E+01 -0.87414538454E+01 -0.25815952452E+02  0.27280434122E+02  0.00000000000E+00 0. -1.
</event>
<event>
 5    1  0.1758488E-003  0.9118800E+02  0.7818608E-02  0.1130116E+00
         25   -1    0    0    0    0  0.00000000000E+00  0.00000000000E+00  0.99999998245E-14  0.12500000000E+03  0.12500000000E+03 0.  0.
        -13    1    3    3    0    0  0.34738667131E+02 -0.34905581950E+02 -0.26700317820E+02  0.56018682429E+02  0.10566000000E+00 0.  1.
         23    2    1    0    0    0  0.23836714704E+02  0.25309054335E+01 -0.14978805231E+02  0.96734136200E+02  0.92512345392E+02 0.  0.
         13    1    3    3    0    0 -0.10901952427E+02  0.37436487384E+02  0.11721512589E+02  0.40715453771E+02  0.10566000000E+00 0. -1.
         22    1    1    0    0    0 -0.23836714704E+02 -0.25309054335E+01  0.14978805231E+02  0.28265863800E+02  0.00000000000E+00 0.  1.
</event>
<event>
 5    1  0.1758488E-003  0.9118800E+02  0.7818608E-02  0.1130116E+00
         25   -1    0    0    0    0  0.00000000000E+00  0.00000000000E+00  0.99999998245E-14  0.12500000000E+03  0.12500000000E+03 0.  0.
        -13    1    3    3    0    0  0.11875318637E+02 -0.31742022576E+02 -0.68926311584E+01  0.34584660158E+02  0.10566000000E+00 0.  1.
         23    2    1    0    0    0 -0.28897489887E+01  0.21526170996E+02  0.19474871671E+02  0.95828141753E+02  0.91279983777E+02 0.  0.
         13    1    3    3    0    0 -0.14765067626E+02  0.53268193572E+02  0.26367502830E+02  0.61243481595E+02  0.10566000000E+00 0. -1.
         22    1    1    0    0    0  0.28897489887E+01 -0.21526170996E+02 -0.19474871671E+02  0.29171858247E+02  0.00000000000E+00 0. -1.
</event>
<event>
 5    1  0.1758488E-003  0.9118800E+02  0.7818608E-02  0.1130116E+00
         25   -1    0    0    0    0  0.00000000000E+00  0.00000000000E+00  0.99999998245E-14  0.12500000000E+03  0.12500000000E+03 0.  0.
        -13    1    3    3    0    0 -0.19584778355E+02  0.29405384393E+02 -0.45745934265E+02  0.57800880965E+02  0.10566000000E+00 0.  1.
         23    2    1    0    0    0  0.16212440572E+01  0.25182997610E+02 -0.14205763069E+02  0.96041141160E+02  0.91571203389E+02 0.  0.
         13    1    3    3    0    0  0.21206022412E+02 -0.42223867829E+01  0.31540171196E+02  0.38240260195E+02  0.10566000000E+00 0. -1.
         22    1    1    0    0    0 -0.16212440572E+01 -0.25182997610E+02  0.14205763069E+02  0.28958858840E+02  0.00000000000E+00 0.  1.
</event>
<event>
 5    1  0.1758488E-003  0.9118800E+02  0.7818608E-02  0.1130116E+00
         25   -1    0    0    0    0  0.00000000000E+00  0.00000000000E+00  0.99999998245E-14  0.12500000000E+03  0.12500000000E+03 0.  0.
        -13    1    3    3    0    0 -0.97906204782E+01  0.31718957245E+02 -0.30942002802E+02  0.45380251206E+02  0.10566000000E+00 0.  1.
         23    2    1    0    0    0 -0.29385432489E+02 -0.57687193979E+01 -0.60895556847E+01  0.94440804093E+02  0.89359952010E+02 0.  0.
         13    1    3    3    0    0 -0.19594812011E+02 -0.37487676643E+02  0.24852447117E+02  0.49060552887E+02  0.10566000000E+00 0. -1.
         22    1    1    0    0    0  0.29385432489E+02  0.57687193979E+01  0.60895556847E+01  0.30559195907E+02  0.00000000000E+00 0.  1.
</event>
<event>
 5    1  0.1758488E-003  0.9118800E+02  0.7818608E-02  0.1130116E+00
         25   -1    0    0    0    0  0.00000000000E+00  0.00000000000E+00  0.99999998245E-14  0.12500000000E+03  0.12500000000E+03 0.  0.
        -13    1    3    3    0    0 -0.49758437024E+02 -0.34345327966E+01 -0.14524563081E+02  0.51948745580E+02  0.10566000000E+00 0.  1.
         23    2    1    0    0    0 -0.11670669542E+02  0.14611800783E+01 -0.29557996705E+02  0.93187820823E+02  0.87589698057E+02 0.  0.
         13    1    3    3    0    0  0.38087767482E+02  0.48957128749E+01 -0.15033433624E+02  0.41239075243E+02  0.10566000000E+00 0. -1.
         22    1    1    0    0    0  0.11670669542E+02 -0.14611800783E+01  0.29557996705E+02  0.31812179177E+02  0.00000000000E+00 0. -1.
</event>
<event>
 5    1  0.1758488E-003  0.9118800E+02  0.7818608E-02  0.1130116E+00
         25   -1    0    0    0    0  0.00000000000E+00  0.00000000000E+00  0.99999998245E-14  0.12500000000E+03  0.12500000000E+03 0.  0.
        -13    1    3    3    0    0  0.43923347967E+02  0.22563747960E+02  0.29872109455E+02  0.57712540284E+02  0.10566000000E+00 0.  1.
         23    2    1    0    0    0  0.65201821047E+01  0.16486283790E+02  0.22563354406E+02  0.96304786289E+02  0.91930389818E+02 0.  0.
         13    1    3    3    0    0 -0.37403165863E+02 -0.60774641696E+01 -0.73087550491E+01  0.38592246005E+02  0.10566000000E+00 0. -1.
         22    1    1    0    0    0 -0.65201821047E+01 -0.16486283790E+02 -0.22563354406E+02  0.28695213711E+02  0.00000000000E+00 0.  1.
</event>
<event>
 5    1  0.1758488E-003  0.9118800E+02  0.7818608E-02  0.1130116E+00
         25   -1    0    0    0    0  0.00000000000E+00  0.00000000000E+00  0.99999998245E-14  0.12500000000E+03  0.12500000000E+03 0.  0.
        -13    1    3    3    0    0 -0.20027562404E+02  0.16122729568E+02 -0.15482163734E+02  0.30012567742E+02  0.10566000000E+00 0. -1.
         23    2    1    0    0    0  0.26811654478E+02 -0.11288546618E+02  0.15012214025E+02  0.92263740737E+02  0.86260855458E+02 0.  0.
         13    1    3    3    0    0  0.46839216882E+02 -0.27411276186E+02  0.30494377759E+02  0.62251172995E+02  0.10566000000E+00 0.  1.
         22    1    1    0    0    0 -0.26811654478E+02  0.11288546618E+02 -0.15012214025E+02  0.32736259263E+02  0.00000000000E+00 0.  1.
</event>
<event>
 5    1  0.1758488E-003  0.9118800E+02  0.7818608E-02  0.1130116E+00
         25   -1    0    0    0    0  0.00000000000E+00  0.00000000000E+00  0.99999998245E-14  0.12500000000E+03  0.12500000000E+03 0.  0.
        -13    1    3    3    0    0  0.24918584148E+02 -0.15862559373E+02  0.18021600642E+02  0.34602686017E+02  0.10566000000E+00 0.  1.
         23    2    1    0    0    0 -0.29413499038E+02  0.58599300034E+01  0.43228083175E+01  0.94698525167E+02  0.89719737471E+02 0.  0.
         13    1    3    3    0    0 -0.54332083186E+02  0.21722489377E+02 -0.13698792324E+02  0.60095839151E+02  0.10566000000E+00 0. -1.
         22    1    1    0    0    0  0.29413499038E+02 -0.58599300034E+01 -0.43228083175E+01  0.30301474833E+02  0.00000000000E+00 0. -1.
</event>
<event>
 5    1  0.1758488E-003  0.9118800E+02  0.7818608E-02  0.1130116E+00
         25   -1    0    0    0    0  0.00000000000E+00  0.00000000000E+00  0.99999998245E-14  0.12500000000E+03  0.12500000000E+03 0.  0.
        -13    1    3    3    0    0 -0.41914895589E+01 -0.32066448633E+02 -0.51478985583E+02  0.60794101961E+02  0.10566000000E+00 0.  1.
         23    2    1    0    0    0 -0.26912399087E+00 -0.23780448409E+02 -0.18947094528E+02  0.94593182585E+02  0.89572851055E+02 0.  0.
         13    1    3    3    0    0  0.39223655680E+01  0.82860002236E+01  0.32531891054E+02  0.33799080623E+02  0.10566000000E+00 0. -1.
         22    1    1    0    0    0  0.26912399087E+00  0.23780448409E+02  0.18947094528E+02  0.30406817415E+02  0.00000000000E+00 0.  1.
</event>
<event>
 5    1  0.1758488E-003  0.9118800E+02  0.7818608E-02  0.1130116E+00
         25   -1    0    0    0    0  0.00000000000E+00  0.00000000000E+00  0.99999998245E-14  0.12500000000E+03  0.12500000000E+03 0.  0.
        -13    1    3    3    0    0  0.12428419708E+02 -0.30484961230E+02  0.17199501505E+02  0.37143404445E+02  0.10566000000E+00 0.  1.
         23    2    1    0    0    0  0.14051566546E+02  0.23577356678E+02 -0.74168743343E+01  0.96568533362E+02  0.92288316381E+02 0.  0.
         13    1    3    3    0    0  0.16231468375E+01  0.54062317908E+02 -0.24616375840E+02  0.59425128917E+02  0.10566000000E+00 0. -1.
         22    1    1    0    0    0 -0.14051566546E+02 -0.23577356678E+02  0.74168743343E+01  0.28431466638E+02  0.00000000000E+00 0. -1.
</event>
<event>
 5    1  0.1758488E-003  0.9118800E+02  0.7818608E-02  0.1130116E+00
         25   -1    0    0    0    0  0.00000000000E+00  0.00000000000E+00  0.99999998245E-14  0.12500000000E+03  0.12500000000E+03 0.  0.
        -13    1    3    3    0    0  0.42165258631E+02  0.25658949229E+02 -0.48080896692E+01  0.49592535741E+02  0.10566000000E+00 0.  1.
         23    2    1    0    0    0  0.25215833850E+02 -0.16245307729E+02 -0.49721062904E+00  0.95000074694E+02  0.90138885468E+02 0.  0.
         13    1    3    3    0    0 -0.16949424781E+02 -0.41904256958E+02  0.43108790401E+01  0.45407538953E+02  0.10566000000E+00 0. -1.
         22    1    1    0    0    0 -0.25215833850E+02  0.16245307729E+02  0.49721062904E+00  0.29999925306E+02  0.00000000000E+00 0. -1.
</event>
<event>
 5    1  0.1758488E-003  0.9118800E+02  0.7818608E-02  0.1130116E+00
         25   -1    0    0    0    0  0.00000000000E+00  0.00000000000E+00  0.99999998245E-14  0.12500000000E+03  0.12500000000E+03 0.  0.
        -13    1    3    3    0    0  0.28465072698E+02 -0.22212548522E+02 -0.29194340843E+02  0.46432514221E+02  0.10566000000E+00 0.  1.
         23    2    1    0    0    0  0.19922332942E+02 -0.12915346461E+02  0.17948325848E+02  0.95236802511E+02  0.90466571880E+02 0.  0.
         13    1    3    3    0    0 -0.85427397567E+01  0.92972020613E+01  0.47142666691E+02  0.48804288290E+02  0.10566000000E+00 0. -1.
         22    1    1    0    0    0 -0.19922332942E+02  0.12915346461E+02 -0.17948325848E+02  0.29763197489E+02  0.00000000000E+00 0. -1.
</event>
<event>
 5    1  0.1758488E-003  0.9118800E+02  0.7818608E-02  0.1130116E+00
         25   -1    0    0    0    0  0.00000000000E+00  0.00000000000E+00  0.99999998245E-14  0.12500000000E+03  0.12500000000E+03 0.  0.
        -13    1    3    3    0    0  0.91359926528E+01  0.31753086506E+00  0.54526814875E+02  0.55287900051E+02  0.10566000000E+00 0. -1.
         23    2    1    0    0    0  0.23946510808E+02  0.78913170332E+00  0.17035143305E+02  0.95601799100E+02  0.90969499147E+02 0.  0.
         13    1    3    3    0    0  0.14810518155E+02  0.47160083825E+00 -0.37491671570E+02  0.40313899049E+02  0.10566000000E+00 0.  1.
         22    1    1    0    0    0 -0.23946510808E+02 -0.78913170332E+00 -0.17035143305E+02  0.29398200900E+02  0.00000000000E+00 0. -1.
</event>
<event>
 5    1  0.1758488E-003  0.9118800E+02  0.7818608E-02  0.1130116E+00
         25   -1    0    0    0    0  0.00000000000E+00  0.00000000000E+00  0.99999998245E-14  0.12500000000E+03  0.12500000000E+03 0.  0.
        -13    1    3    3    0    0 -0.48991006508E+02 -0.35133406075E+02 -0.12260196247E+02  0.61520716162E+02  0.10566000000E+00 0.  1.
         23    2    1    0    0    0 -0.26480679711E+02 -0.10908879208E+02 -0.14043558851E+01  0.96325930547E+02  0.91959135689E+02 0.  0.
         13    1    3    3    0    0  0.22510326796E+02  0.24224526866E+02  0.10855840362E+02  0.34805214385E+02  0.10566000000E+00 0. -1.
         22    1    1    0    0    0  0.26480679711E+02  0.10908879208E+02  0.14043558851E+01  0.28674069453E+02  0.00000000000E+00 0.  1.
</event>
<event>
 5    1  0.1758488E-003  0.9118800E+02  0.7818608E-02  0.1130116E+00
         25   -1    0    0    0    0  0.00000000000E+00  0.00000000000E+00  0.99999998245E-14  0.12500000000E+03  0.12500000000E+03 0.  0.
        -13    1    3    3    0    0  0.58321001782E+01 -0.34697063573E+02  0.96606158498E+00  0.35197216539E+02  0.10566000000E+00 0. -1.
         23    2    1    0    0    0 -0.13978333606E+02  0.18036262158E+02 -0.19350881517E+02  0.95080822563E+02  0.90250793020E+02 0.  0.
         13    1    3    3    0    0 -0.19810433784E+02  0.52733325731E+02 -0.20316943102E+02  0.59883606024E+02  0.10566000000E+00 0.  1.
         22    1    1    0    0    0  0.13978333606E+02 -0.18036262158E+02  0.19350881517E+02  0.29919177437E+02  0.00000000000E+00 0.  1.
</event>
<event>
 5    1  0.1758488E-003  0.9118800E+02  0.7818608E-02  0.1130116E+00
         25   -1    0    0    0    0  0.00000000000E+00  0.00000000000E+00  0.99999998245E-14  0.12500000000E+03  0.12500000000E+03 0.  0.
        -13    1    3    3    0    0 -0.34219086948E+02 -0.22248734001E+02  0.14414608081E+01  0.40841658261E+02  0.10566000000E+00 0. -1.
         23    2    1    0    0    0 -0.66162882175E+01  0.17311007304E+02  0.24477917954E+02  0.94297968943E+02  0.89159925055E+02 0.  0.
         13    1    3    3    0    0  0.27602798730E+02  0.39559741305E+02  0.23036457146E+02  0.53456310682E+02  0.10566000000E+00 0.  1.
         22    1    1    0    0    0  0.66162882175E+01 -0.17311007304E+02 -0.24477917954E+02  0.30702031057E+02  0.00000000000E+00 0.  1.
</event>
<event>
 5    1  0.1758488E-003  0.9118800E+02  0.7818608E-02  0.1130116E+00
         25   -1    0    0    0    0  0.00000000000E+00  0.00000000000E+00  0.99999998245E-14  0.12500000000E+03  0.12500000000E+03 0.  0.
        -13    1    3    3    0    0  0.57409014055E+00  0.44349566025E+02 -0.43336864958E+02  0.62010552445E+02  0.10566000000E+00 0. -1.
         23    2    1    0    0    0 -0.37457650665E+01  0.23720706116E+02 -0.17880082062E+02  0.95060060302E+02  0.90222032096E+02 0.  0.
         13    1    3    3    0    0 -0.43198552070E+01 -0.20628859909E+02  0.25456782896E+02  0.33049507857E+02  0.10566000000E+00 0.  1.
         22    1    1    0    0    0  0.37457650665E+01 -0.23720706116E+02  0.17880082062E+02  0.29939939698E+02  0.00000000000E+00 0. -1.
</event>
<event>
 5    1  0.1758488E-003  0.9118800E+02  0.7818608E-02  0.1130116E+00
         25   -1    0    0    0    0  0.00000000000E+00  0.00000000000E+00  0.99999998245E-14  0.12500000000E+03  0.12500000000E+03 0.  0.
        -13    1    3    3    0    0  0.32463043900E+02  0.32844532305E+02  0.24437283552E+02  0.52247531166E+02  0.10566000000E+00 0.  1.
         23    2    1    0    0    0  0.14088829555E+02  0.19398342968E+02 -0.14229787997E+02  0.97120299597E+02  0.93032655015E+02 0.  0.
         13    1    3    3    0    0 -0.18374214345E+02 -0.13446189336E+02 -0.38667071548E+02  0.44872768431E+02  0.10566000000E+00 0. -1.
         22    1    1    0    0    0 -0.14088829555E+02 -0.19398342968E+02  0.14229787997E+02  0.27879700403E+02  0.00000000000E+00 0.  1.
</event>
<event>
 5    1  0.1758488E-003  0.9118800E+02  0.7818608E-02  0.1130116E+00
         25   -1    0    0    0    0  0.00000000000E+00  0.00000000000E+00  0.99999998245E-14  0.12500000000E+03  0.12500000000E+03 0.  0.
        -13    1    3    3    0    0  0.40531671216E+02 -0.49665912197E+01  0.59770192193E+01  0.41270077813E+02  0.10566000000E+00 0.  1.
         23    2    1    0    0    0 -0.83079226491E+01 -0.34071684438E+01  0.28531545958E+02  0.95088806605E+02  0.90261850475E+02 0.  0.
         13    1    3    3    0    0 -0.48839593865E+02  0.15594227758E+01  0.22554526739E+02  0.53818728792E+02  0.10566000000E+00 0. -1.
         22    1    1    0    0    0  0.83079226491E+01  0.34071684438E+01 -0.28531545958E+02  0.29911193395E+02  0.00000000000E+00 0. -1.
</event>
<event>
 5    1  0.1758488E-003  0.9118800E+02  0.7818608E-02  0.1130116E+00
         25   -1    0    0    0    0  0.00000000000E+00  0.00000000000E+00  0.99999998245E-14  0.12500000000E+03  0.12500000000E+03 0.  0.
        -13    1    3    3    0    0  0.22157026110E+02  0.23639459766E+02  0.52655094723E+01  0.32825213146E+02  0.10566000000E+00 0. -1.
         23    2    1    0    0    0 -0.22206628508E+02 -0.66377358884E+01 -0.21985633524E+02  0.93053764402E+02  0.87398175613E+02 0.  0.
         13    1    3    3    0    0 -0.44363654619E+02 -0.30277195654E+02 -0.27251142996E+02  0.60228551256E+02  0.10566000000E+00 0.  1.
         22    1    1    0    0    0  0.22206628508E+02  0.66377358884E+01  0.21985633524E+02  0.31946235598E+02  0.00000000000E+00 0.  1.
</event>
<event>
 5    1  0.1758488E-003  0.9118800E+02  0.7818608E-02  0.1130116E+00
         25   -1    0    0    0    0  0.00000000000E+00  0.00000000000E+00  0.99999998245E-14  0.12500000000E+03  0.12500000000E+03 0.  0.
        -13    1    3    3    0    0  0.42949368358E+01  0.46172768928E+02 -0.14813750799E+01  0.46395869525E+02  0.10566000000E+00 0. -1.
         23    2    1    0    0    0  0.14923611698E+02  0.68886097576E+01  0.25094645831E+02  0.95001527041E+02  0.90140899486E+02 0.  0.
         13    1    3    3    0    0  0.10628674862E+02 -0.39284159170E+02  0.26576020911E+02  0.48605657515E+02  0.10566000000E+00 0.  1.
         22    1    1    0    0    0 -0.14923611698E+02 -0.68886097576E+01 -0.25094645831E+02  0.29998472959E+02  0.00000000000E+00 0. -1.
</event>
<event>
 5    1  0.1758488E-003  0.9118800E+02  0.7818608E-02  0.1130116E+00
         25   -1    0    0    0    0  0.00000000000E+00  0.00000000000E+00  0.99999998245E-14  0.12500000000E+03  0.12500000000E+03 0.  0.
        -13    1    3    3    0    0 -0.22595001480E+02  0.24690969600E+02  0.98158055989E+01  0.34878923081E+02  0.10566000000E+00 0. -1.
         23    2    1    0    0    0  0.25681252966E+02 -0.10977863491E+02 -0.48113638154E+01  0.96659402574E+02  0.92411312313E+02 0.  0.
         13    1    3    3    0    0  0.48276254445E+02 -0.35668833091E+02 -0.14627169414E+02  0.61780479493E+02  0.10566000000E+00 0.  1.
         22    1    1    0    0    0 -0.25681252966E+02  0.10977863491E+02  0.48113638154E+01  0.28340597426E+02  0.00000000000E+00 0.  1.
</event>
<event>
 5    1  0.1758488E-003  0.9118800E+02  0.7818608E-02  0.1130116E+00
         25   -1    0    0    0    0  0.00000000000E+00  0.00000000000E+00  0.99999998245E-14  0.12500000000E+03  0.12500000000E+03 0.  0.
        -13    1    3    3    0    0  0.69716651331E+01 -0.35652874088E+02 -0.11688615894E+01  0.36347062425E+02  0.10566000000E+00 0. -1.
         23    2    1    0    0    0 -0.97875032200E+01  0.15493299322E+02  0.23205331941E+02  0.95431013314E+02  0.90734521151E+02 0.  0.
         13    1    3    3    0    0 -0.16759168353E+02  0.51146173410E+02  0.24374193530E+02  0.59083950889E+02  0.10566000000E+00 0.  1.
         22    1    1    0    0    0  0.97875032200E+01 -0.15493299322E+02 -0.23205331941E+02  0.29568986686E+02  0.00000000000E+00 0.  1.
</event>
<event>
 5    1  0.1758488E-003  0.9118800E+02  0.7818608E-02  0.1130116E+00
         25   -1    0    0    0    0  0.00000000000E+00  0.00000000000E+00  0.99999998245E-14  0.12500000000E+03  0.12500000000E+03 0.  0.
        -13    1    3    3    0    0 -0.35727288160E+02  0.40214247290E+02 -0.11023089516E+02  0.54910331185E+02  0.10566000000E+00 0. -1.
         23    2    1    0    0    0 -0.34689518768E+02  0.18193538374E+02 -0.22565024097E+02  0.79794382391E+02  0.65754053851E+02 0.  0.
         13    1    3    3    0    0  0.10377693922E+01 -0.22020708916E+02 -0.11541934581E+02  0.24884051206E+02  0.10566000000E+00 0.  1.
         22    1    1    0    0    0  0.34689518768E+02 -0.18193538374E+02  0.22565024097E+02  0.45205617609E+02  0.00000000000E+00 0. -1.
</event>
<event>
 5    1  0.1758488E-003  0.9118800E+02  0.7818608E-02  0.1130116E+00
         25   -1    0    0    0    0  0.00000000000E+00  0.00000000000E+00  0.99999998245E-14  0.12500000000E+03  0.12500000000E+03 0.  0.
        -13    1    3    3    0    0 -0.52040194000E+01  0.22312241489E+02  0.31760233424E+02  0.39161735526E+02  0.10566000000E+00 0.  1.
         23    2    1    0    0    0 -0.27179540782E+01 -0.28168290432E+02  0.53076990352E+01  0.96207439689E+02  0.91797929836E+02 0.  0.
         13    1    3    3    0    0  0.24860653217E+01 -0.50480531921E+02 -0.26452534389E+02  0.57045704163E+02  0.10566000000E+00 0. -1.
         22    1    1    0    0    0  0.27179540782E+01  0.28168290432E+02 -0.53076990352E+01  0.28792560311E+02  0.00000000000E+00 0. -1.
</event>
<event>
 5    1  0.1758488E-003  0.9118800E+02  0.7818608E-02  0.1130116E+00
         25   -1    0    0    0    0  0.00000000000E+00  0.00000000000E+00  0.99999998245E-14  0.12500000000E+03  0.12500000000E+03 0.  0.
        -13    1    3    3    0    0  0.19861231705E+00 -0.45611287078E+02 -0.21408953475E+01  0.45662058130E+02  0.10566000000E+00 0. -1.
         23    2    1    0    0    0 -0.11621613152E+02 -0.10411135269E+02  0.27639223045E+02  0.93260745434E+02  0.87693707634E+02 0.  0.
         13    1    3    3    0    0 -0.11820225469E+02  0.35200151809E+02  0.29780118393E+02  0.47598687304E+02  0.10566000000E+00 0.  1.
         22    1    1    0    0    0  0.11621613152E+02  0.10411135269E+02 -0.27639223045E+02  0.31739254566E+02  0.00000000000E+00 0.  1.
</event>
<event>
 5    1  0.1758488E-003  0.9118800E+02  0.7818608E-02  0.1130116E+00
         25   -1    0    0    0    0  0.00000000000E+00  0.00000000000E+00  0.99999998245E-14  0.12500000000E+03  0.12500000000E+03 0.  0.
        -13    1    3    3    0    0 -0.30533086428E+02 -0.15410315749E+02  0.20036036543E+02  0.39638379415E+02  0.10566000000E+00 0. -1.
         23    2    1    0    0    0 -0.25346504535E+01 -0.41247082287E+02  0.22738861560E+02  0.77832192386E+02  0.61911615198E+02 0.  0.
         13    1    3    3    0    0  0.27998435974E+02 -0.25836766537E+02  0.27028250175E+01  0.38193812970E+02  0.10566000000E+00 0.  1.
         22    1    1    0    0    0  0.25346504535E+01  0.41247082287E+02 -0.22738861560E+02  0.47167807614E+02  0.00000000000E+00 0.  1.
</event>
<event>
 5    1  0.1758488E-003  0.9118800E+02  0.7818608E-02  0.1130116E+00
         25   -1    0    0    0    0  0.00000000000E+00  0.00000000000E+00  0.99999998245E-14  0.12500000000E+03  0.12500000000E+03 0.  0.
        -13    1    3    3    0    0  0.96137461727E+01  0.45398638402E+02  0.10372254845E+02  0.47550555400E+02  0.10566000000E+00 0.  1.
         23    2    1    0    0    0 -0.11502411146E+02  0.64398441155E+01  0.27058155314E+02  0.94901481375E+02  0.90002057442E+02 0.  0.
         13    1    3    3    0    0 -0.21116157319E+02 -0.38958794287E+02  0.16685900469E+02  0.47350925975E+02  0.10566000000E+00 0. -1.
         22    1    1    0    0    0  0.11502411146E+02 -0.64398441155E+01 -0.27058155314E+02  0.30098518625E+02  0.00000000000E+00 0. -1.
</event>
<event>
 5    1  0.1758488E-003  0.9118800E+02  0.7818608E-02  0.1130116E+00
         25   -1    0    0    0    0  0.00000000000E+00  0.00000000000E+00  0.99999998245E-14  0.12500000000E+03  0.12500000000E+03 0.  0.
        -13    1    3    3    0    0 -0.30648989004E+02 -0.11566238160E+02  0.40862450918E+02  0.52372602104E+02  0.10566000000E+00 0.  1.
         23    2    1    0    0    0 -0.87728232847E+01 -0.25287786189E+02  0.31926307730E+01  0.98043971918E+02  0.94265545028E+02 0.  0.
         13    1    3    3    0    0  0.21876165719E+02 -0.13721548029E+02 -0.37669820145E+02  0.45671369814E+02  0.10566000000E+00 0. -1.
         22    1    1    0    0    0  0.87728232847E+01  0.25287786189E+02 -0.31926307730E+01  0.26956028082E+02  0.00000000000E+00 0.  1.
</event>
<event>
 5    1  0.1758488E-003  0.9118800E+02  0.7818608E-02  0.1130116E+00
         25   -1    0    0    0    0  0.00000000000E+00  0.00000000000E+00  0.99999998245E-14  0.12500000000E+03  0.12500000000E+03 0.  0.
        -13    1    3    3    0    0 -0.25210407632E+02 -0.12748485886E+02  0.27767318921E+02  0.39612166179E+02  0.10566000000E+00 0. -1.
         23    2    1    0    0    0 -0.28835381249E+02  0.13389712700E+02 -0.14985158896E+02  0.89852900474E+02  0.82693561530E+02 0.  0.
         13    1    3    3    0    0 -0.36249736169E+01  0.26138198586E+02 -0.42752477816E+02  0.50240734295E+02  0.10566000000E+00 0.  1.
         22    1    1    0    0    0  0.28835381249E+02 -0.13389712700E+02  0.14985158896E+02  0.35147099526E+02  0.00000000000E+00 0.  1.
</event>
<event>
 5    1  0.1758488E-003  0.9118800E+02  0.7818608E-02  0.1130116E+00
         25   -1    0    0    0    0  0.00000000000E+00  0.00000000000E+00  0.99999998245E-14  0.12500000000E+03  0.12500000000E+03 0.  0.
        -13    1    3    3    0    0  0.51219872485E+02  0.23007431942E+02  0.20690303655E+02  0.59840764461E+02  0.10566000000E+00 0. -1.
         23    2    1    0    0    0  0.18996619026E+02  0.15377773166E+02  0.20724993658E+02  0.92955143874E+02  0.87257011000E+02 0.  0.
         13    1    3    3    0    0 -0.32223253459E+02 -0.76296587752E+01  0.34690002975E-01  0.33114379413E+02  0.10566000000E+00 0.  1.
         22    1    1    0    0    0 -0.18996619026E+02 -0.15377773166E+02 -0.20724993658E+02  0.32044856126E+02  0.00000000000E+00 0. -1.
</event>
<event>
 5    1  0.1758488E-003  0.9118800E+02  0.7818608E-02  0.1130116E+00
         25   -1    0    0    0    0  0.00000000000E+00  0.00000000000E+00  0.99999998245E-14  0.12500000000E+03  0.12500000000E+03 0.  0.
        -13    1    3    3    0    0  0.34097656464E+02  0.40062556529E+01 -0.15591576453E+02  0.37706878431E+02  0.10566000000E+00 0.  1.
         23    2    1    0    0    0 -0.22503343378E+02 -0.62946202551E+01 -0.18327757762E+02  0.95302703626E+02  0.90557583373E+02 0.  0.
         13    1    3    3    0    0 -0.56600999843E+02 -0.10300875908E+02 -0.27361813093E+01  0.57595825195E+02  0.10566000000E+00 0. -1.
         22    1    1    0    0    0  0.22503343378E+02  0.62946202551E+01  0.18327757762E+02  0.29697296374E+02  0.00000000000E+00 0. -1.
</event>
<event>
 5    1  0.1758488E-003  0.9118800E+02  0.7818608E-02  0.1130116E+00
         25   -1    0    0    0    0  0.00000000000E+00  0.00000000000E+00  0.99999998245E-14  0.12500000000E+03  0.12500000000E+03 0.  0.
        -13    1    3    3    0    0 -0.27777001417E+02 -0.23575648294E+02 -0.38879687061E+01  0.36640148265E+02  0.10566000000E+00 0.  1.
         23    2    1    0    0    0  0.22537852165E+02 -0.29406430858E+02 -0.66107934613E+01  0.87364969161E+02  0.78843149926E+02 0.  0.
         13    1    3    3    0    0  0.50314853582E+02 -0.58307825644E+01 -0.27228247552E+01  0.50724820896E+02  0.10566000000E+00 0. -1.
         22    1    1    0    0    0 -0.22537852165E+02  0.29406430858E+02  0.66107934613E+01  0.37635030839E+02  0.00000000000E+00 0.  1.
</event>
<event>
 5    1  0.1758488E-003  0.9118800E+02  0.7818608E-02  0.1130116E+00
         25   -1    0    0    0    0  0.00000000000E+00  0.00000000000E+00  0.99999998245E-14  0.12500000000E+03  0.12500000000E+03 0.  0.
        -13    1    3    3    0    0 -0.17139536398E+02 -0.44083746180E+01 -0.51005675698E+02  0.53988772834E+02  0.10566000000E+00 0.  1.
         23    2    1    0    0    0 -0.57850067963E+01  0.20839822485E+02 -0.20202061647E+02  0.95404598337E+02  0.90698123378E+02 0.  0.
         13    1    3    3    0    0  0.11354529601E+02  0.25248197103E+02  0.30803614051E+02  0.41415825503E+02  0.10566000000E+00 0. -1.
         22    1    1    0    0    0  0.57850067963E+01 -0.20839822485E+02  0.20202061647E+02  0.29595401663E+02  0.00000000000E+00 0.  1.
</event>
<event>
 5    1  0.1758488E-003  0.9118800E+02  0.7818608E-02  0.1130116E+00
         25   -1    0    0    0    0  0.00000000000E+00  0.00000000000E+00  0.99999998245E-14  0.12500000000E+03  0.12500000000E+03 0.  0.
        -13    1    3    3    0    0 -0.37764280861E+02 -0.22543787620E+02  0.25699801699E+02  0.50939711823E+02  0.10566000000E+00 0.  1.
         23    2    1    0    0    0 -0.16992031586E+02  0.17078033268E+02  0.13816791248E+02  0.97227854276E+02  0.93177054950E+02 0.  0.
         13    1    3    3    0    0  0.20772249275E+02  0.39621820887E+02 -0.11883010451E+02  0.46288142453E+02  0.10566000000E+00 0. -1.
         22    1    1    0    0    0  0.16992031586E+02 -0.17078033268E+02 -0.13816791248E+02  0.27772145724E+02  0.00000000000E+00 0.  1.
</event>
<event>
 5    1  0.1758488E-003  0.9118800E+02  0.7818608E-02  0.1130116E+00
         25   -1    0    0    0    0  0.00000000000E+00  0.00000000000E+00  0.99999998245E-14  0.12500000000E+03  0.12500000000E+03 0.  0.
        -13    1    3    3    0    0 -0.35657617445E+02  0.13903717397E+00  0.29189545068E+02  0.46081728684E+02  0.10566000000E+00 0. -1.
         23    2    1    0    0    0 -0.21588651624E+02  0.17247766311E+01 -0.18926675009E+02  0.96237806755E+02  0.91839270951E+02 0.  0.
         13    1    3    3    0    0  0.14068965821E+02  0.15857394571E+01 -0.48116220078E+02  0.50156078071E+02  0.10566000000E+00 0.  1.
         22    1    1    0    0    0  0.21588651624E+02 -0.17247766311E+01  0.18926675009E+02  0.28762193245E+02  0.00000000000E+00 0.  1.
</event>
<event>
 5    1  0.1758488E-003  0.9118800E+02  0.7818608E-02  0.1130116E+00
         25   -1    0    0    0    0  0.00000000000E+00  0.00000000000E+00  0.99999998245E-14  0.12500000000E+03  0.12500000000E+03 0.  0.
        -13    1    3    3    0    0  0.22754226539E+02 -0.55365801307E+02 -0.14685505176E+01  0.59877329470E+02  0.10566000000E+00 0. -1.
         23    2    1    0    0    0  0.17864898382E+02 -0.19402792426E+02 -0.93496784239E+01  0.97017158208E+02  0.92893969406E+02 0.  0.
         13    1    3    3    0    0 -0.48893281565E+01  0.35963008881E+02 -0.78811279063E+01  0.37139828739E+02  0.10566000000E+00 0.  1.
         22    1    1    0    0    0 -0.17864898382E+02  0.19402792426E+02  0.93496784239E+01  0.27982841792E+02  0.00000000000E+00 0. -1.
</event>
<event>
 5    1  0.1758488E-003  0.9118800E+02  0.7818608E-02  0.1130116E+00
         25   -1    0    0    0    0  0.00000000000E+00  0.00000000000E+00  0.99999998245E-14  0.12500000000E+03  0.12500000000E+03 0.  0.
        -13    1    3    3    0    0  0.26127290804E+02 -0.24549656765E+02  0.46705875618E+02  0.58879291379E+02  0.10566000000E+00 0.  1.
         23    2    1    0    0    0 -0.19458126757E+01 -0.12598766503E+02  0.26835667210E+02  0.95290268615E+02  0.90540417239E+02 0.  0.
         13    1    3    3    0    0 -0.28073103480E+02  0.11950890262E+02 -0.19870208408E+02  0.36410977236E+02  0.10566000000E+00 0. -1.
         22    1    1    0    0    0  0.19458126757E+01  0.12598766503E+02 -0.26835667210E+02  0.29709731385E+02  0.00000000000E+00 0.  1.
</event>
<event>
 5    1  0.1758488E-003  0.9118800E+02  0.7818608E-02  0.1130116E+00
         25   -1    0    0    0    0  0.00000000000E+00  0.00000000000E+00  0.99999998245E-14  0.12500000000E+03  0.12500000000E+03 0.  0.
        -13    1    3    3    0    0 -0.30701442868E+01  0.28000360825E+02 -0.41813418210E+02  0.50416456626E+02  0.10566000000E+00 0. -1.
         23    2    1    0    0    0  0.35954547278E+01  0.24025525810E+02  0.69013558344E+01  0.99745655868E+02  0.96495668126E+02 0.  0.
         13    1    3    3    0    0  0.66655990146E+01 -0.39748350143E+01  0.48714774045E+02  0.49329199242E+02  0.10566000000E+00 0.  1.
         22    1    1    0    0    0 -0.35954547278E+01 -0.24025525810E+02 -0.69013558344E+01  0.25254344132E+02  0.00000000000E+00 0. -1.
</event>
<event>
 5    1  0.1758488E-003  0.9118800E+02  0.7818608E-02  0.1130116E+00
         25   -1    0    0    0    0  0.00000000000E+00  0.00000000000E+00  0.99999998245E-14  0.12500000000E+03  0.12500000000E+03 0.  0.
        -13    1    3    3    0    0  0.27646334357E+02  0.23685793042E+02 -0.43685001548E+02  0.56865869550E+02  0.10566000000E+00 0.  1.
         23    2    1    0    0    0 -0.27753676455E+01  0.21510815011E+02 -0.20222487161E+02  0.95345880303E+02  0.90617162149E+02 0.  0.
         13    1    3    3    0    0 -0.30421702003E+02 -0.21749780307E+01  0.23462514387E+02  0.38480010753E+02  0.10566000000E+00 0. -1.
         22    1    1    0    0    0  0.27753676455E+01 -0.21510815011E+02  0.20222487161E+02  0.29654119697E+02  0.00000000000E+00 0. -1.
</event>
<event>
 5    1  0.1758488E-003  0.9118800E+02  0.7818608E-02  0.1130116E+00
         25   -1    0    0    0    0  0.00000000000E+00  0.00000000000E+00  0.99999998245E-14  0.12500000000E+03  0.12500000000E+03 0.  0.
        -13    1    3    3    0    0 -0.80883607044E+01  0.15742305192E+02 -0.30477769013E+02  0.35244110426E+02  0.10566000000E+00 0.  1.
         23    2    1    0    0    0 -0.14111633171E+02 -0.17327224412E+02  0.19410784238E+02  0.95400178357E+02  0.90692031564E+02 0.  0.
         13    1    3    3    0    0 -0.60232724665E+01 -0.33069529604E+02  0.49888553251E+02  0.60156067931E+02  0.10566000000E+00 0. -1.
         22    1    1    0    0    0  0.14111633171E+02  0.17327224412E+02 -0.19410784238E+02  0.29599821643E+02  0.00000000000E+00 0. -1.
</event>
<event>
 5    1  0.1758488E-003  0.9118800E+02  0.7818608E-02  0.1130116E+00
         25   -1    0    0    0    0  0.00000000000E+00  0.00000000000E+00  0.99999998245E-14  0.12500000000E+03  0.12500000000E+03 0.  0.
        -13    1    3    3    0    0  0.56119030375E+02 -0.28822512439E+00  0.12379286999E+02  0.57469005164E+02  0.10566000000E+00 0. -1.
         23    2    1    0    0    0  0.21883894763E+02 -0.17117289656E+02  0.91297230274E+01  0.95755200501E+02  0.91180042363E+02 0.  0.
         13    1    3    3    0    0 -0.34235135612E+02 -0.16829064532E+02 -0.32495639712E+01  0.38286195337E+02  0.10566000000E+00 0.  1.
         22    1    1    0    0    0 -0.21883894763E+02  0.17117289656E+02 -0.91297230274E+01  0.29244799499E+02  0.00000000000E+00 0.  1.
</event>
<event>
 5    1  0.1758488E-003  0.9118800E+02  0.7818608E-02  0.1130116E+00
         25   -1    0    0    0    0  0.00000000000E+00  0.00000000000E+00  0.99999998245E-14  0.12500000000E+03  0.12500000000E+03 0.  0.
        -13    1    3    3    0    0  0.29454581958E+02 -0.54124416432E+02 -0.91380734764E-01  0.61620162016E+02  0.10566000000E+00 0. -1.
         23    2    1    0    0    0  0.12028483502E+02 -0.34941851746E+02 -0.40015924809E+01  0.87829714002E+02  0.79576557480E+02 0.  0.
         13    1    3    3    0    0 -0.17426098456E+02  0.19182564686E+02 -0.39102117461E+01  0.26209551985E+02  0.10566000000E+00 0.  1.
         22    1    1    0    0    0 -0.12028483502E+02  0.34941851746E+02  0.40015924809E+01  0.37170285998E+02  0.00000000000E+00 0. -1.
</event>
<event>
 5    1  0.1758488E-003  0.9118800E+02  0.7818608E-02  0.1130116E+00
         25   -1    0    0    0    0  0.00000000000E+00  0.00000000000E+00  0.99999998245E-14  0.12500000000E+03  0.12500000000E+03 0.  0.
        -13    1    3    3    0    0  0.24196528282E+02  0.98222383081E+01 -0.26997061198E+02  0.37560628638E+02  0.10566000000E+00 0.  1.
         23    2    1    0    0    0 -0.21011056565E+02  0.17665140576E+02  0.92493318448E+01  0.96033263403E+02  0.91560449161E+02 0.  0.
         13    1    3    3    0    0 -0.45207584847E+02  0.78429022679E+01  0.36246393043E+02  0.58472634765E+02  0.10566000000E+00 0. -1.
         22    1    1    0    0    0  0.21011056565E+02 -0.17665140576E+02 -0.92493318448E+01  0.28966736597E+02  0.00000000000E+00 0. -1.
</event>
<event>
 5    1  0.1758488E-003  0.9118800E+02  0.7818608E-02  0.1130116E+00
         25   -1    0    0    0    0  0.00000000000E+00  0.00000000000E+00  0.99999998245E-14  0.12500000000E+03  0.12500000000E+03 0.  0.
        -13    1    3    3    0    0  0.37619717790E+02  0.83259635556E+00  0.99320126068E+01  0.38917764861E+02  0.10566000000E+00 0. -1.
         23    2    1    0    0    0 -0.15458277120E+02  0.17568076428E+02  0.18425220258E+02  0.95216038167E+02  0.90437876699E+02 0.  0.
         13    1    3    3    0    0 -0.53077994911E+02  0.16735480073E+02  0.84932076509E+01  0.56298273306E+02  0.10566000000E+00 0.  1.
         22    1    1    0    0    0  0.15458277120E+02 -0.17568076428E+02 -0.18425220258E+02  0.29783961833E+02  0.00000000000E+00 0.  1.
</event>
<event>
 5    1  0.1758488E-003  0.9118800E+02  0.7818608E-02  0.1130116E+00
         25   -1    0    0    0    0  0.00000000000E+00  0.00000000000E+00  0.99999998245E-14  0.12500000000E+03  0.12500000000E+03 0.  0.
        -13    1    3    3    0    0  0.10817070824E+02  0.35264652672E+01  0.51326615177E+02  0.52572593316E+02  0.10566000000E+00 0. -1.
         23    2    1    0    0    0  0.43616698193E+01 -0.22777366752E+02  0.17276877270E+02  0.96080748834E+02  0.91625254208E+02 0.  0.
         13    1    3    3    0    0 -0.64554010042E+01 -0.26303832019E+02 -0.34049737907E+02  0.43508155518E+02  0.10566000000E+00 0.  1.
         22    1    1    0    0    0 -0.43616698193E+01  0.22777366752E+02 -0.17276877270E+02  0.28919251166E+02  0.00000000000E+00 0. -1.
</event>
<event>
 5    1  0.1758488E-003  0.9118800E+02  0.7818608E-02  0.1130116E+00
         25   -1    0    0    0    0  0.00000000000E+00  0.00000000000E+00  0.99999998245E-14  0.12500000000E+03  0.12500000000E+03 0.  0.
        -13    1    3    3    0    0 -0.79877411754E+01  0.17194410145E+02 -0.59086240400E+02  0.62053579413E+02  0.10566000000E+00 0.  1.
         23    2    1    0    0    0 -0.27812264215E+01  0.78762685570E+01 -0.41826888348E+02  0.82347222650E+02  0.70440085622E+02 0.  0.
         13    1    3    3    0    0  0.52065147539E+01 -0.93181415884E+01  0.17259352052E+02  0.20293643237E+02  0.10566000000E+00 0. -1.
         22    1    1    0    0    0  0.27812264215E+01 -0.78762685570E+01  0.41826888348E+02  0.42652777350E+02  0.00000000000E+00 0.  1.
</event>
<event>
 5    1  0.1758488E-003  0.9118800E+02  0.7818608E-02  0.1130116E+00
         25   -1    0    0    0    0  0.00000000000E+00  0.00000000000E+00  0.99999998245E-14  0.12500000000E+03  0.12500000000E+03 0.  0.
        -13    1    3    3    0    0  0.47099022401E+02  0.30178965916E+02 -0.23330782622E+02  0.60608782175E+02  0.10566000000E+00 0.  1.
         23    2    1    0    0    0  0.19635547718E+02  0.18053634842E+02 -0.50604294398E+00  0.98321459098E+02  0.94632789109E+02 0.  0.
         13    1    3    3    0    0 -0.27463474683E+02 -0.12125331075E+02  0.22824739678E+02  0.37712676923E+02  0.10566000000E+00 0. -1.
         22    1    1    0    0    0 -0.19635547718E+02 -0.18053634842E+02  0.50604294398E+00  0.26678540902E+02  0.00000000000E+00 0.  1.
</event>
<event>
 5    1  0.1758488E-003  0.9118800E+02  0.7818608E-02  0.1130116E+00
         25   -1    0    0    0    0  0.00000000000E+00  0.00000000000E+00  0.99999998245E-14  0.12500000000E+03  0.12500000000E+03 0.  0.
        -13    1    3    3    0    0 -0.15027486726E+02  0.49427960462E+02 -0.31988335444E+02  0.60763586145E+02  0.10566000000E+00 0.  1.
         23    2    1    0    0    0  0.20434226173E+01  0.27760865799E+02 -0.12821679284E+02  0.94353031054E+02  0.89237087377E+02 0.  0.
         13    1    3    3    0    0  0.17070909344E+02 -0.21667094663E+02  0.19166656159E+02  0.33589444909E+02  0.10566000000E+00 0. -1.
         22    1    1    0    0    0 -0.20434226173E+01 -0.27760865799E+02  0.12821679284E+02  0.30646968946E+02  0.00000000000E+00 0.  1.
</event>
<event>
 5    1  0.1758488E-003  0.9118800E+02  0.7818608E-02  0.1130116E+00
         25   -1    0    0    0    0  0.00000000000E+00  0.00000000000E+00  0.99999998245E-14  0.12500000000E+03  0.12500000000E+03 0.  0.
        -13    1    3    3    0    0  0.70479863112E+01  0.11413057008E+02 -0.42838829286E+02  0.44889959233E+02  0.10566000000E+00 0.  1.
         23    2    1    0    0    0 -0.10569167943E+02 -0.24733660154E+02 -0.12090482785E+02  0.95510323339E+02  0.90843716539E+02 0.  0.
         13    1    3    3    0    0 -0.17617154254E+02 -0.36146717162E+02  0.30748346501E+02  0.50620364105E+02  0.10566000000E+00 0. -1.
         22    1    1    0    0    0  0.10569167943E+02  0.24733660154E+02  0.12090482785E+02  0.29489676661E+02  0.00000000000E+00 0. -1.
</event>
<event>
 5    1  0.1758488E-003  0.9118800E+02  0.7818608E-02  0.1130116E+00
         25   -1    0    0    0    0  0.00000000000E+00  0.00000000000E+00  0.99999998245E-14  0.12500000000E+03  0.12500000000E+03 0.  0.
        -13    1    3    3    0    0 -0.54362554717E+01 -0.34216318436E+02 -0.47888460517E+02  0.59106895838E+02  0.10566000000E+00 0.  1.
         23    2    1    0    0    0 -0.64067990548E+01 -0.85112556612E+01 -0.36022248587E+02  0.87435509583E+02  0.78954907357E+02 0.  0.
         13    1    3    3    0    0 -0.97054358319E+00  0.25705062775E+02  0.11866211930E+02  0.28328613745E+02  0.10566000000E+00 0. -1.
         22    1    1    0    0    0  0.64067990548E+01  0.85112556612E+01  0.36022248587E+02  0.37564490417E+02  0.00000000000E+00 0.  1.
</event>
<event>
 5    1  0.1758488E-003  0.9118800E+02  0.7818608E-02  0.1130116E+00
         25   -1    0    0    0    0  0.00000000000E+00  0.00000000000E+00  0.99999998245E-14  0.12500000000E+03  0.12500000000E+03 0.  0.
        -13    1    3    3    0    0  0.25794285121E+02 -0.12015829654E+02  0.14007583938E+02  0.31716697164E+02  0.10566000000E+00 0.  1.
         23    2    1    0    0    0 -0.29365170598E+02  0.58827567012E+01 -0.84151359386E+01  0.93891567325E+02  0.88588327850E+02 0.  0.
         13    1    3    3    0    0 -0.55159455719E+02  0.17898586355E+02 -0.22422719877E+02  0.62174870160E+02  0.10566000000E+00 0. -1.
         22    1    1    0    0    0  0.29365170598E+02 -0.58827567012E+01  0.84151359386E+01  0.31108432675E+02  0.00000000000E+00 0. -1.
</event>
<event>
 5    1  0.1758488E-003  0.9118800E+02  0.7818608E-02  0.1130116E+00
         25   -1    0    0    0    0  0.00000000000E+00  0.00000000000E+00  0.99999998245E-14  0.12500000000E+03  0.12500000000E+03 0.  0.
        -13    1    3    3    0    0  0.14372967091E+01 -0.39310326532E+02  0.40155728849E+02  0.56212643749E+02  0.10566000000E+00 0. -1.
         23    2    1    0    0    0  0.14214986817E+02 -0.23910300311E+02  0.48950872166E+01  0.96755882205E+02  0.92541723299E+02 0.  0.
         13    1    3    3    0    0  0.12777690107E+02  0.15400026221E+02 -0.35260641632E+02  0.40543238455E+02  0.10566000000E+00 0.  1.
         22    1    1    0    0    0 -0.14214986817E+02  0.23910300311E+02 -0.48950872166E+01  0.28244117795E+02  0.00000000000E+00 0. -1.
</event>
<event>
 5    1  0.1758488E-003  0.9118800E+02  0.7818608E-02  0.1130116E+00
         25   -1    0    0    0    0  0.00000000000E+00  0.00000000000E+00  0.99999998245E-14  0.12500000000E+03  0.12500000000E+03 0.  0.
        -13    1    3    3    0    0  0.60336671896E+01  0.56555391113E+02  0.22405007906E+02  0.61130294839E+02  0.10566000000E+00 0. -1.
         23    2    1    0    0    0  0.11780602941E+02  0.24987547734E+02  0.85388365952E+01  0.96085092464E+02  0.91631179825E+02 0.  0.
         13    1    3    3    0    0  0.57469357517E+01 -0.31567843380E+02 -0.13866171311E+02  0.34954797626E+02  0.10566000000E+00 0.  1.
         22    1    1    0    0    0 -0.11780602941E+02 -0.24987547734E+02 -0.85388365952E+01  0.28914907536E+02  0.00000000000E+00 0. -1.
</event>
<event>
 5    1  0.1758488E-003  0.9118800E+02  0.7818608E-02  0.1130116E+00
         25   -1    0    0    0    0  0.00000000000E+00  0.00000000000E+00  0.99999998245E-14  0.12500000000E+03  0.12500000000E+03 0.  0.
        -13    1    3    3    0    0  0.15453747463E+02  0.40007764005E+02  0.44786133652E+02  0.62010067109E+02  0.10566000000E+00 0. -1.
         23    2    1    0    0    0  0.87560064431E+01  0.25518067330E+02  0.20312310369E+02  0.91229756270E+02  0.84749271781E+02 0.  0.
         13    1    3    3    0    0 -0.66977410196E+01 -0.14489696676E+02 -0.24473823283E+02  0.29219689160E+02  0.10566000000E+00 0.  1.
         22    1    1    0    0    0 -0.87560064431E+01 -0.25518067330E+02 -0.20312310369E+02  0.33770243730E+02  0.00000000000E+00 0. -1.
</event>
<event>
 5    1  0.1758488E-003  0.9118800E+02  0.7818608E-02  0.1130116E+00
         25   -1    0    0    0    0  0.00000000000E+00  0.00000000000E+00  0.99999998245E-14  0.12500000000E+03  0.12500000000E+03 0.  0.
        -13    1    3    3    0    0  0.12247835402E+01 -0.39856968282E+02 -0.40128331192E+01  0.40077325373E+02  0.10566000000E+00 0. -1.
         23    2    1    0    0    0  0.27791437829E+02  0.44440869657E+01  0.12352447489E+02  0.94264078271E+02  0.89112398507E+02 0.  0.
         13    1    3    3    0    0  0.26566654289E+02  0.44301055248E+02  0.16365280608E+02  0.54186752898E+02  0.10566000000E+00 0.  1.
         22    1    1    0    0    0 -0.27791437829E+02 -0.44440869657E+01 -0.12352447489E+02  0.30735921729E+02  0.00000000000E+00 0.  1.
</event>
<event>
 5    1  0.1758488E-003  0.9118800E+02  0.7818608E-02  0.1130116E+00
         25   -1    0    0    0    0  0.00000000000E+00  0.00000000000E+00  0.99999998245E-14  0.12500000000E+03  0.12500000000E+03 0.  0.
        -13    1    3    3    0    0 -0.13396273102E+02  0.10219170187E+02  0.59520286979E+02  0.61859253944E+02  0.10566000000E+00 0. -1.
         23    2    1    0    0    0 -0.10252354771E+02  0.12709840085E+02  0.39859282023E+02  0.81925492728E+02  0.69687683144E+02 0.  0.
         13    1    3    3    0    0  0.31439183304E+01  0.24906698974E+01 -0.19661004956E+02  0.20066238784E+02  0.10566000000E+00 0.  1.
         22    1    1    0    0    0  0.10252354771E+02 -0.12709840085E+02 -0.39859282023E+02  0.43074507272E+02  0.00000000000E+00 0. -1.
</event>
<event>
 5    1  0.1758488E-003  0.9118800E+02  0.7818608E-02  0.1130116E+00
         25   -1    0    0    0    0  0.00000000000E+00  0.00000000000E+00  0.99999998245E-14  0.12500000000E+03  0.12500000000E+03 0.  0.
        -13    1    3    3    0    0 -0.33126807645E+02 -0.12742447236E+02 -0.20653343114E+01  0.35553229335E+02  0.10566000000E+00 0. -1.
         23    2    1    0    0    0  0.26564671319E+02 -0.13105494998E+02 -0.27619705604E+01  0.95249970709E+02  0.90484764890E+02 0.  0.
         13    1    3    3    0    0  0.59691478964E+02 -0.36304776211E+00 -0.69663624899E+00  0.59696741374E+02  0.10566000000E+00 0.  1.
         22    1    1    0    0    0 -0.26564671319E+02  0.13105494998E+02  0.27619705604E+01  0.29750029291E+02  0.00000000000E+00 0.  1.
</event>
<event>
 5    1  0.1758488E-003  0.9118800E+02  0.7818608E-02  0.1130116E+00
         25   -1    0    0    0    0  0.00000000000E+00  0.00000000000E+00  0.99999998245E-14  0.12500000000E+03  0.12500000000E+03 0.  0.
        -13    1    3    3    0    0 -0.37890891147E+02 -0.34328919757E+01  0.32039570408E+02  0.49739819212E+02  0.10566000000E+00 0. -1.
         23    2    1    0    0    0 -0.10199244543E+02  0.25852279118E+02  0.13456551161E+02  0.94122116426E+02  0.88913042387E+02 0.  0.
         13    1    3    3    0    0  0.27691646604E+02  0.29285171094E+02 -0.18583019247E+02  0.44382297215E+02  0.10566000000E+00 0.  1.
         22    1    1    0    0    0  0.10199244543E+02 -0.25852279118E+02 -0.13456551161E+02  0.30877883574E+02  0.00000000000E+00 0. -1.
</event>
<event>
 5    1  0.1758488E-003  0.9118800E+02  0.7818608E-02  0.1130116E+00
         25   -1    0    0    0    0  0.00000000000E+00  0.00000000000E+00  0.99999998245E-14  0.12500000000E+03  0.12500000000E+03 0.  0.
        -13    1    3    3    0    0  0.30315017122E+02 -0.23194464378E+02 -0.27986759041E+02  0.47331314017E+02  0.10566000000E+00 0.  1.
         23    2    1    0    0    0 -0.15220823449E+02 -0.63785655307E+01 -0.23779211996E+02  0.96055043828E+02  0.91590179369E+02 0.  0.
         13    1    3    3    0    0 -0.45535840570E+02  0.16815898848E+02  0.42075470455E+01  0.48723729811E+02  0.10566000000E+00 0. -1.
         22    1    1    0    0    0  0.15220823449E+02  0.63785655307E+01  0.23779211996E+02  0.28944956172E+02  0.00000000000E+00 0. -1.
</event>
<event>
 5    1  0.1758488E-003  0.9118800E+02  0.7818608E-02  0.1130116E+00
         25   -1    0    0    0    0  0.00000000000E+00  0.00000000000E+00  0.99999998245E-14  0.12500000000E+03  0.12500000000E+03 0.  0.
        -13    1    3    3    0    0  0.12547121504E+02 -0.35604721718E+02 -0.21193575239E+02  0.43293247303E+02  0.10566000000E+00 0.  1.
         23    2    1    0    0    0  0.35195430478E+01  0.17931281514E+02 -0.20429402474E+02  0.97590539490E+02  0.93662345009E+02 0.  0.
         13    1    3    3    0    0 -0.90275784558E+01  0.53536003232E+02  0.76417276489E+00  0.54297292187E+02  0.10566000000E+00 0. -1.
         22    1    1    0    0    0 -0.35195430478E+01 -0.17931281514E+02  0.20429402474E+02  0.27409460510E+02  0.00000000000E+00 0. -1.
</event>
<event>
 5    1  0.1758488E-003  0.9118800E+02  0.7818608E-02  0.1130116E+00
         25   -1    0    0    0    0  0.00000000000E+00  0.00000000000E+00  0.99999998245E-14  0.12500000000E+03  0.12500000000E+03 0.  0.
        -13    1    3    3    0    0 -0.27165742881E+02  0.23862940269E+02  0.45045415272E+02  0.57762601271E+02  0.10566000000E+00 0.  1.
         23    2    1    0    0    0 -0.24293576526E+02  0.21652061125E+01  0.10981983420E+02  0.98251730191E+02  0.94540639662E+02 0.  0.
         13    1    3    3    0    0  0.28721663554E+01 -0.21697734156E+02 -0.34063431852E+02  0.40489128920E+02  0.10566000000E+00 0. -1.
         22    1    1    0    0    0  0.24293576526E+02 -0.21652061125E+01 -0.10981983420E+02  0.26748269809E+02  0.00000000000E+00 0.  1.
</event>
<event>
 5    1  0.1758488E-003  0.9118800E+02  0.7818608E-02  0.1130116E+00
         25   -1    0    0    0    0  0.00000000000E+00  0.00000000000E+00  0.99999998245E-14  0.12500000000E+03  0.12500000000E+03 0.  0.
        -13    1    3    3    0    0  0.48132386588E+02  0.74020654826E+01 -0.16299576496E+02  0.51353720119E+02  0.10566000000E+00 0. -1.
         23    2    1    0    0    0  0.11307461006E+02  0.27070547432E+02 -0.11928565402E+02  0.93330394931E+02  0.87792930996E+02 0.  0.
         13    1    3    3    0    0 -0.36824925582E+02  0.19668481949E+02  0.43710110938E+01  0.41976674812E+02  0.10566000000E+00 0.  1.
         22    1    1    0    0    0 -0.11307461006E+02 -0.27070547432E+02  0.11928565402E+02  0.31669605069E+02  0.00000000000E+00 0.  1.
</event>
<event>
 5    1  0.1758488E-003  0.9118800E+02  0.7818608E-02  0.1130116E+00
         25   -1    0    0    0    0  0.00000000000E+00  0.00000000000E+00  0.99999998245E-14  0.12500000000E+03  0.12500000000E+03 0.  0.
        -13    1    3    3    0    0  0.36607124418E+01  0.20000657433E+02  0.36131176925E+02  0.41459621602E+02  0.10566000000E+00 0. -1.
         23    2    1    0    0    0  0.23303560547E+02  0.20590809582E+02 -0.10592759006E+02  0.92148152003E+02  0.86093193696E+02 0.  0.
         13    1    3    3    0    0  0.19642848106E+02  0.59015214980E+00 -0.46723935932E+02  0.50688530401E+02  0.10566000000E+00 0.  1.
         22    1    1    0    0    0 -0.23303560547E+02 -0.20590809582E+02  0.10592759006E+02  0.32851847997E+02  0.00000000000E+00 0. -1.
</event>
<event>
 5    1  0.1758488E-003  0.9118800E+02  0.7818608E-02  0.1130116E+00
         25   -1    0    0    0    0  0.00000000000E+00  0.00000000000E+00  0.99999998245E-14  0.12500000000E+03  0.12500000000E+03 0.  0.
        -13    1    3    3    0    0  0.57420988603E+02  0.13711846514E+02 -0.41137603539E+01  0.59178702717E+02  0.10566000000E+00 0. -1.
         23    2    1    0    0    0  0.21381944176E+02  0.19561945672E+02  0.73631167111E+00  0.96010356848E+02  0.91529171371E+02 0.  0.
         13    1    3    3    0    0 -0.36039044427E+02  0.58500991578E+01  0.48500720250E+01  0.36831654131E+02  0.10566000000E+00 0.  1.
         22    1    1    0    0    0 -0.21381944176E+02 -0.19561945672E+02 -0.73631167111E+00  0.28989643152E+02  0.00000000000E+00 0. -1.
</event>
<event>
 5    1  0.1758488E-003  0.9118800E+02  0.7818608E-02  0.1130116E+00
         25   -1    0    0    0    0  0.00000000000E+00  0.00000000000E+00  0.99999998245E-14  0.12500000000E+03  0.12500000000E+03 0.  0.
        -13    1    3    3    0    0 -0.52358413129E+02 -0.10268189925E+02  0.16595534615E+02  0.55877205397E+02  0.10566000000E+00 0.  1.
         23    2    1    0    0    0 -0.19863134967E+02 -0.22334109641E+02 -0.16812094994E+01  0.95063683434E+02  0.90227051700E+02 0.  0.
         13    1    3    3    0    0  0.32495278163E+02 -0.12065919716E+02 -0.18276744115E+02  0.39186478037E+02  0.10566000000E+00 0. -1.
         22    1    1    0    0    0  0.19863134967E+02  0.22334109641E+02  0.16812094994E+01  0.29936316566E+02  0.00000000000E+00 0.  1.
</event>
<event>
 5    1  0.1758488E-003  0.9118800E+02  0.7818608E-02  0.1130116E+00
         25   -1    0    0    0    0  0.00000000000E+00  0.00000000000E+00  0.99999998245E-14  0.12500000000E+03  0.12500000000E+03 0.  0.
        -13    1    3    3    0    0 -0.41270242797E+02 -0.33979711724E+02 -0.15996437840E+01  0.53482929740E+02  0.10566000000E+00 0.  1.
         23    2    1    0    0    0 -0.23071710573E+02 -0.18371641999E+01  0.18350473879E+02  0.95463261983E+02  0.90778937512E+02 0.  0.
         13    1    3    3    0    0  0.18198532224E+02  0.32142547524E+02  0.19950117663E+02  0.41980332243E+02  0.10566000000E+00 0. -1.
         22    1    1    0    0    0  0.23071710573E+02  0.18371641999E+01 -0.18350473879E+02  0.29536738017E+02  0.00000000000E+00 0.  1.
</event>
<event>
 5    1  0.1758488E-003  0.9118800E+02  0.7818608E-02  0.1130116E+00
         25   -1    0    0    0    0  0.00000000000E+00  0.00000000000E+00  0.99999998245E-14  0.12500000000E+03  0.12500000000E+03 0.  0.
        -13    1    3    3    0    0 -0.95427875425E+01 -0.54602423076E+02  0.28256511834E+02  0.62216806612E+02  0.10566000000E+00 0.  1.
         23    2    1    0    0    0 -0.91467180558E+01 -0.27930760107E+02  0.14836830172E+02  0.92077039305E+02  0.85989882116E+02 0.  0.
         13    1    3    3    0    0  0.39606948678E+00  0.26671662969E+02 -0.13419681662E+02  0.29860232693E+02  0.10566000000E+00 0. -1.
         22    1    1    0    0    0  0.91467180558E+01  0.27930760107E+02 -0.14836830172E+02  0.32922960695E+02  0.00000000000E+00 0.  1.
</event>
<event>
 5    1  0.1758488E-003  0.9118800E+02  0.7818608E-02  0.1130116E+00
         25   -1    0    0    0    0  0.00000000000E+00  0.00000000000E+00  0.99999998245E-14  0.12500000000E+03  0.12500000000E+03 0.  0.
        -13    1    3    3    0    0 -0.23901427236E+02 -0.59846895126E+01 -0.26832613251E+02  0.36429315535E+02  0.10566000000E+00 0.  1.
         23    2    1    0    0    0 -0.38514988278E+01  0.52391731855E+01  0.28196665149E+02  0.96063260301E+02  0.91601392321E+02 0.  0.
         13    1    3    3    0    0  0.20049928408E+02  0.11223862698E+02  0.55029278400E+02  0.59633944765E+02  0.10566000000E+00 0. -1.
         22    1    1    0    0    0  0.38514988278E+01 -0.52391731855E+01 -0.28196665149E+02  0.28936739699E+02  0.00000000000E+00 0. -1.
</event>
<event>
 5    1  0.1758488E-003  0.9118800E+02  0.7818608E-02  0.1130116E+00
         25   -1    0    0    0    0  0.00000000000E+00  0.00000000000E+00  0.99999998245E-14  0.12500000000E+03  0.12500000000E+03 0.  0.
        -13    1    3    3    0    0  0.27428068385E+02  0.27520830147E+02 -0.26264988844E+02  0.46899422495E+02  0.10566000000E+00 0.  1.
         23    2    1    0    0    0 -0.17355067464E+02  0.22547995886E+02 -0.89224299739E+01  0.95180203861E+02  0.90388334231E+02 0.  0.
         13    1    3    3    0    0 -0.44783135849E+02 -0.49728342610E+01  0.17342558870E+02  0.48280781365E+02  0.10566000000E+00 0. -1.
         22    1    1    0    0    0  0.17355067464E+02 -0.22547995886E+02  0.89224299739E+01  0.29819796139E+02  0.00000000000E+00 0.  1.
</event>
<event>
 5    1  0.1758488E-003  0.9118800E+02  0.7818608E-02  0.1130116E+00
         25   -1    0    0    0    0  0.00000000000E+00  0.00000000000E+00  0.99999998245E-14  0.12500000000E+03  0.12500000000E+03 0.  0.
        -13    1    3    3    0    0 -0.58851289495E+02  0.28979625772E+01  0.11817003262E+01  0.58934540314E+02  0.10566000000E+00 0.  1.
         23    2    1    0    0    0 -0.26246139673E+02 -0.10579367767E+02 -0.83780706777E+01  0.95487715467E+02  0.90812603018E+02 0.  0.
         13    1    3    3    0    0  0.32605149822E+02 -0.13477330344E+02 -0.95597710039E+01  0.36553175153E+02  0.10566000000E+00 0. -1.
         22    1    1    0    0    0  0.26246139673E+02  0.10579367767E+02  0.83780706777E+01  0.29512284533E+02  0.00000000000E+00 0.  1.
</event>
<event>
 5    1  0.1758488E-003  0.9118800E+02  0.7818608E-02  0.1130116E+00
         25   -1    0    0    0    0  0.00000000000E+00  0.00000000000E+00  0.99999998245E-14  0.12500000000E+03  0.12500000000E+03 0.  0.
        -13    1    3    3    0    0 -0.73551318723E+01  0.58237878681E+01  0.33648630179E+02  0.34932162071E+02  0.10566000000E+00 0. -1.
         23    2    1    0    0    0 -0.54876266150E+01  0.50649942384E+01 -0.27698482319E+02  0.96312474221E+02  0.91940842694E+02 0.  0.
         13    1    3    3    0    0  0.18675052573E+01 -0.75879362966E+00 -0.61347112499E+02  0.61380312150E+02  0.10566000000E+00 0.  1.
         22    1    1    0    0    0  0.54876266150E+01 -0.50649942384E+01  0.27698482319E+02  0.28687525779E+02  0.00000000000E+00 0.  1.
</event>
<event>
 5    1  0.1758488E-003  0.9118800E+02  0.7818608E-02  0.1130116E+00
         25   -1    0    0    0    0  0.00000000000E+00  0.00000000000E+00  0.99999998245E-14  0.12500000000E+03  0.12500000000E+03 0.  0.
        -13    1    3    3    0    0 -0.23216422023E+02 -0.85370847588E+01  0.28503363338E+02  0.37740388887E+02  0.10566000000E+00 0. -1.
         23    2    1    0    0    0  0.28530824468E+02  0.50432337426E+01  0.99161735791E+01  0.94376926185E+02  0.89270552515E+02 0.  0.
         13    1    3    3    0    0  0.51747246491E+02  0.13580318501E+02 -0.18587189758E+02  0.56636537299E+02  0.10566000000E+00 0.  1.
         22    1    1    0    0    0 -0.28530824468E+02 -0.50432337426E+01 -0.99161735791E+01  0.30623073815E+02  0.00000000000E+00 0.  1.
</event>
<event>
 5    1  0.1758488E-003  0.9118800E+02  0.7818608E-02  0.1130116E+00
         25   -1    0    0    0    0  0.00000000000E+00  0.00000000000E+00  0.99999998245E-14  0.12500000000E+03  0.12500000000E+03 0.  0.
        -13    1    3    3    0    0 -0.13806229155E+02 -0.24537844267E+02  0.25050792605E+02  0.37686484831E+02  0.10566000000E+00 0. -1.
         23    2    1    0    0    0  0.25634394915E+02  0.11152569585E+02 -0.12320958809E+01  0.97017504199E+02  0.92894434977E+02 0.  0.
         13    1    3    3    0    0  0.39440624070E+02  0.35690413852E+02 -0.26282888486E+02  0.59331019367E+02  0.10566000000E+00 0.  1.
         22    1    1    0    0    0 -0.25634394915E+02 -0.11152569585E+02  0.12320958809E+01  0.27982495801E+02  0.00000000000E+00 0.  1.
</event>
<event>
 5    1  0.1758488E-003  0.9118800E+02  0.7818608E-02  0.1130116E+00
         25   -1    0    0    0    0  0.00000000000E+00  0.00000000000E+00  0.99999998245E-14  0.12500000000E+03  0.12500000000E+03 0.  0.
        -13    1    3    3    0    0  0.10923064022E+02  0.24519078415E+02 -0.23422575490E+02  0.35624805130E+02  0.10566000000E+00 0.  1.
         23    2    1    0    0    0 -0.20190314018E+02 -0.20992722430E+02  0.84800438375E+00  0.95861326616E+02  0.91325416254E+02 0.  0.
         13    1    3    3    0    0 -0.31113378040E+02 -0.45511800845E+02  0.24270579874E+02  0.60236521485E+02  0.10566000000E+00 0. -1.
         22    1    1    0    0    0  0.20190314018E+02  0.20992722430E+02 -0.84800438375E+00  0.29138673384E+02  0.00000000000E+00 0. -1.
</event>
<event>
 5    1  0.1758488E-003  0.9118800E+02  0.7818608E-02  0.1130116E+00
         25   -1    0    0    0    0  0.00000000000E+00  0.00000000000E+00  0.99999998245E-14  0.12500000000E+03  0.12500000000E+03 0.  0.
        -13    1    3    3    0    0  0.17058287724E+02 -0.43169634856E+02  0.18530897693E+02  0.49980074900E+02  0.10566000000E+00 0. -1.
         23    2    1    0    0    0  0.26040106889E+02  0.19113827775E+01  0.11450611704E+02  0.96489351826E+02  0.92181006484E+02 0.  0.
         13    1    3    3    0    0  0.89818191653E+01  0.45081017634E+02 -0.70802859889E+01  0.46509276925E+02  0.10566000000E+00 0.  1.
         22    1    1    0    0    0 -0.26040106889E+02 -0.19113827775E+01 -0.11450611704E+02  0.28510648174E+02  0.00000000000E+00 0.  1.
</event>
<event>
 5    1  0.1758488E-003  0.9118800E+02  0.7818608E-02  0.1130116E+00
         25   -1    0    0    0    0  0.00000000000E+00  0.00000000000E+00  0.99999998245E-14  0.12500000000E+03  0.12500000000E+03 0.  0.
        -13    1    3    3    0    0  0.49950127742E+01 -0.28884899949E+02 -0.13750238789E+02  0.32378508744E+02  0.10566000000E+00 0.  1.
         23    2    1    0    0    0 -0.21948590543E+02  0.22333354262E+02  0.51638624522E+01  0.93263824823E+02  0.87698096933E+02 0.  0.
         13    1    3    3    0    0 -0.26943603317E+02  0.51218254212E+02  0.18914101242E+02  0.60885316079E+02  0.10566000000E+00 0. -1.
         22    1    1    0    0    0  0.21948590543E+02 -0.22333354262E+02 -0.51638624522E+01  0.31736175177E+02  0.00000000000E+00 0. -1.
</event>
<event>
 5    1  0.1758488E-003  0.9118800E+02  0.7818608E-02  0.1130116E+00
         25   -1    0    0    0    0  0.00000000000E+00  0.00000000000E+00  0.99999998245E-14  0.12500000000E+03  0.12500000000E+03 0.  0.
        -13    1    3    3    0    0 -0.22100141790E+02 -0.47952579873E+02  0.31703818619E+01  0.52895450360E+02  0.10566000000E+00 0. -1.
         23    2    1    0    0    0 -0.16175020804E+02 -0.11614652241E+02 -0.20304543938E+02  0.96560486129E+02  0.92277416155E+02 0.  0.
         13    1    3    3    0    0  0.59251209858E+01  0.36337927632E+02 -0.23474925800E+02  0.43665035768E+02  0.10566000000E+00 0.  1.
         22    1    1    0    0    0  0.16175020804E+02  0.11614652241E+02  0.20304543938E+02  0.28439513871E+02  0.00000000000E+00 0. -1.
</event>
<event>
 5    1  0.1758488E-003  0.9118800E+02  0.7818608E-02  0.1130116E+00
         25   -1    0    0    0    0  0.00000000000E+00  0.00000000000E+00  0.99999998245E-14  0.12500000000E+03  0.12500000000E+03 0.  0.
        -13    1    3    3    0    0 -0.30148238472E+02  0.30587301720E+02  0.15702066721E+02  0.45728168264E+02  0.10566000000E+00 0.  1.
         23    2    1    0    0    0  0.97267016338E+01  0.48024117280E+01  0.28161800414E+02  0.94821217957E+02  0.89890513900E+02 0.  0.
         13    1    3    3    0    0  0.39874940106E+02 -0.25784889992E+02  0.12459733693E+02  0.49093049692E+02  0.10566000000E+00 0. -1.
         22    1    1    0    0    0 -0.97267016338E+01 -0.48024117280E+01 -0.28161800414E+02  0.30178782043E+02  0.00000000000E+00 0. -1.
</event>
<event>
 5    1  0.1758488E-003  0.9118800E+02  0.7818608E-02  0.1130116E+00
         25   -1    0    0    0    0  0.00000000000E+00  0.00000000000E+00  0.99999998245E-14  0.12500000000E+03  0.12500000000E+03 0.  0.
        -13    1    3    3    0    0  0.25850898899E+02  0.40457911116E+02  0.36326013252E+02  0.60205497661E+02  0.10566000000E+00 0.  1.
         23    2    1    0    0    0  0.18110885512E+02  0.21585220920E+02  0.69335883361E+01  0.95982753690E+02  0.91491466392E+02 0.  0.
         13    1    3    3    0    0 -0.77400133875E+01 -0.18872690197E+02 -0.29392424916E+02  0.35777256029E+02  0.10566000000E+00 0. -1.
         22    1    1    0    0    0 -0.18110885512E+02 -0.21585220920E+02 -0.69335883361E+01  0.29017246310E+02  0.00000000000E+00 0.  1.
</event>
<event>
 5    1  0.1758488E-003  0.9118800E+02  0.7818608E-02  0.1130116E+00
         25   -1    0    0    0    0  0.00000000000E+00  0.00000000000E+00  0.99999998245E-14  0.12500000000E+03  0.12500000000E+03 0.  0.
        -13    1    3    3    0    0  0.47471477355E+02 -0.10504651276E+02 -0.28174747102E+01  0.48701521419E+02  0.10566000000E+00 0. -1.
         23    2    1    0    0    0  0.88242340657E+01 -0.96383195661E+01  0.25314681982E+02  0.96511450813E+02  0.92210968454E+02 0.  0.
         13    1    3    3    0    0 -0.38647243289E+02  0.86633170965E+00  0.28132156693E+02  0.47809929395E+02  0.10566000000E+00 0.  1.
         22    1    1    0    0    0 -0.88242340657E+01  0.96383195661E+01 -0.25314681982E+02  0.28488549187E+02  0.00000000000E+00 0.  1.
</event>
<event>
 5    1  0.1758488E-003  0.9118800E+02  0.7818608E-02  0.1130116E+00
         25   -1    0    0    0    0  0.00000000000E+00  0.00000000000E+00  0.99999998245E-14  0.12500000000E+03  0.12500000000E+03 0.  0.
        -13    1    3    3    0    0  0.43881752680E+02 -0.28912877017E+01  0.24495714925E+02  0.50339040283E+02  0.10566000000E+00 0. -1.
         23    2    1    0    0    0  0.97183530427E+01  0.24745635334E+02  0.92492414691E+01  0.96851441925E+02  0.92670709942E+02 0.  0.
         13    1    3    3    0    0 -0.34163399638E+02  0.27636923036E+02 -0.15246473456E+02  0.46512401642E+02  0.10566000000E+00 0.  1.
         22    1    1    0    0    0 -0.97183530427E+01 -0.24745635334E+02 -0.92492414691E+01  0.28148558075E+02  0.00000000000E+00 0. -1.
</event>
<event>
 5    1  0.1758488E-003  0.9118800E+02  0.7818608E-02  0.1130116E+00
         25   -1    0    0    0    0  0.00000000000E+00  0.00000000000E+00  0.99999998245E-14  0.12500000000E+03  0.12500000000E+03 0.  0.
        -13    1    3    3    0    0  0.42610295549E+02 -0.17477175861E+02  0.99940325642E+01  0.47127283115E+02  0.10566000000E+00 0.  1.
         23    2    1    0    0    0 -0.64677675244E+01 -0.25517591232E+02  0.99445585902E+01  0.96859749031E+02  0.92681914405E+02 0.  0.
         13    1    3    3    0    0 -0.49078063073E+02 -0.80404153713E+01 -0.49473973987E-01  0.49732465916E+02  0.10566000000E+00 0. -1.
         22    1    1    0    0    0  0.64677675244E+01  0.25517591232E+02 -0.99445585902E+01  0.28140250969E+02  0.00000000000E+00 0. -1.
</event>
<event>
 5    1  0.1758488E-003  0.9118800E+02  0.7818608E-02  0.1130116E+00
         25   -1    0    0    0    0  0.00000000000E+00  0.00000000000E+00  0.99999998245E-14  0.12500000000E+03  0.12500000000E+03 0.  0.
        -13    1    3    3    0    0  0.16320171054E+02  0.35312286076E+02  0.25021428350E+02  0.46253524967E+02  0.10566000000E+00 0.  1.
         23    2    1    0    0    0  0.25499108889E+02  0.37482090582E+01 -0.12682937725E+02  0.96275262671E+02  0.91890237064E+02 0.  0.
         13    1    3    3    0    0  0.91789378355E+01 -0.31564077018E+02 -0.37704366075E+02  0.50021737704E+02  0.10566000000E+00 0. -1.
         22    1    1    0    0    0 -0.25499108889E+02 -0.37482090582E+01  0.12682937725E+02  0.28724737329E+02  0.00000000000E+00 0. -1.
</event>
<event>
 5    1  0.1758488E-003  0.9118800E+02  0.7818608E-02  0.1130116E+00
         25   -1    0    0    0    0  0.00000000000E+00  0.00000000000E+00  0.99999998245E-14  0.12500000000E+03  0.12500000000E+03 0.  0.
        -13    1    3    3    0    0  0.16126073809E+02 -0.42048006859E+00 -0.41338843187E+02  0.44374972452E+02  0.10566000000E+00 0.  1.
         23    2    1    0    0    0  0.26291144072E+02  0.30211409241E+01  0.99142627049E+01  0.96739707113E+02  0.92519872342E+02 0.  0.
         13    1    3    3    0    0  0.10165070262E+02  0.34416209927E+01  0.51253105892E+02  0.52364734661E+02  0.10566000000E+00 0. -1.
         22    1    1    0    0    0 -0.26291144072E+02 -0.30211409241E+01 -0.99142627049E+01  0.28260292887E+02  0.00000000000E+00 0. -1.
</event>
<event>
 5    1  0.1758488E-003  0.9118800E+02  0.7818608E-02  0.1130116E+00
         25   -1    0    0    0    0  0.00000000000E+00  0.00000000000E+00  0.99999998245E-14  0.12500000000E+03  0.12500000000E+03 0.  0.
        -13    1    3    3    0    0  0.29429257329E+02  0.17227675656E+02  0.18362100591E+02  0.38730503451E+02  0.10566000000E+00 0.  1.
         23    2    1    0    0    0 -0.15683172524E+02 -0.17332782860E+02  0.17894848968E+02  0.95561710619E+02  0.90914397401E+02 0.  0.
         13    1    3    3    0    0 -0.45112429852E+02 -0.34560458516E+02 -0.46725162345E+00  0.56831207168E+02  0.10566000000E+00 0. -1.
         22    1    1    0    0    0  0.15683172524E+02  0.17332782860E+02 -0.17894848968E+02  0.29438289381E+02  0.00000000000E+00 0. -1.
</event>
<event>
 5    1  0.1758488E-003  0.9118800E+02  0.7818608E-02  0.1130116E+00
         25   -1    0    0    0    0  0.00000000000E+00  0.00000000000E+00  0.99999998245E-14  0.12500000000E+03  0.12500000000E+03 0.  0.
        -13    1    3    3    0    0  0.45886954085E+02 -0.12735166061E+02 -0.62552609261E+01  0.48030578417E+02  0.10566000000E+00 0. -1.
         23    2    1    0    0    0 -0.14012472190E+02 -0.55835387598E+01 -0.70249628601E+01  0.10836042713E+03  0.10707523889E+03 0.  0.
         13    1    3    3    0    0 -0.59899426275E+02  0.71516273012E+01 -0.76970193403E+00  0.60329848717E+02  0.10566000000E+00 0.  1.
         22    1    1    0    0    0  0.14012472190E+02  0.55835387598E+01  0.70249628601E+01  0.16639572866E+02  0.00000000000E+00 0.  1.
</event>
<event>
 5    1  0.1758488E-003  0.9118800E+02  0.7818608E-02  0.1130116E+00
         25   -1    0    0    0    0  0.00000000000E+00  0.00000000000E+00  0.99999998245E-14  0.12500000000E+03  0.12500000000E+03 0.  0.
        -13    1    3    3    0    0  0.10994285999E+01 -0.32994626701E+02  0.25771029266E+02  0.41880917466E+02  0.10566000000E+00 0. -1.
         23    2    1    0    0    0 -0.15641179475E+02 -0.17525543067E+02 -0.20731769246E+02  0.93669544988E+02  0.88274493752E+02 0.  0.
         13    1    3    3    0    0 -0.16740608075E+02  0.15469083633E+02 -0.46502798512E+02  0.51788627522E+02  0.10566000000E+00 0.  1.
         22    1    1    0    0    0  0.15641179475E+02  0.17525543067E+02  0.20731769246E+02  0.31330455012E+02  0.00000000000E+00 0.  1.
</event>
<event>
 5    1  0.1758488E-003  0.9118800E+02  0.7818608E-02  0.1130116E+00
         25   -1    0    0    0    0  0.00000000000E+00  0.00000000000E+00  0.99999998245E-14  0.12500000000E+03  0.12500000000E+03 0.  0.
        -13    1    3    3    0    0  0.53596428598E+02  0.12439170398E+02 -0.19513004154E+02  0.58378751390E+02  0.10566000000E+00 0.  1.
         23    2    1    0    0    0  0.26133624408E+02  0.71455390219E+01  0.71069982742E+01  0.96990457393E+02  0.92858033299E+02 0.  0.
         13    1    3    3    0    0 -0.27462804190E+02 -0.52936313761E+01  0.26620002428E+02  0.38611706003E+02  0.10566000000E+00 0. -1.
         22    1    1    0    0    0 -0.26133624408E+02 -0.71455390219E+01 -0.71069982742E+01  0.28009542607E+02  0.00000000000E+00 0.  1.
</event>
<event>
 5    1  0.1758488E-003  0.9118800E+02  0.7818608E-02  0.1130116E+00
         25   -1    0    0    0    0  0.00000000000E+00  0.00000000000E+00  0.99999998245E-14  0.12500000000E+03  0.12500000000E+03 0.  0.
        -13    1    3    3    0    0 -0.74206018248E+01  0.32695413043E+02  0.30885066771E+02  0.45584579399E+02  0.10566000000E+00 0. -1.
         23    2    1    0    0    0 -0.32273076208E+02  0.76947391130E+00  0.94921055948E+01  0.91351172284E+02  0.84928164181E+02 0.  0.
         13    1    3    3    0    0 -0.24852474383E+02 -0.31925939131E+02 -0.21392961177E+02  0.45766592885E+02  0.10566000000E+00 0.  1.
         22    1    1    0    0    0  0.32273076208E+02 -0.76947391130E+00 -0.94921055948E+01  0.33648827716E+02  0.00000000000E+00 0.  1.
</event>
<event>
 5    1  0.1758488E-003  0.9118800E+02  0.7818608E-02  0.1130116E+00
         25   -1    0    0    0    0  0.00000000000E+00  0.00000000000E+00  0.99999998245E-14  0.12500000000E+03  0.12500000000E+03 0.  0.
        -13    1    3    3    0    0  0.27175729422E+02  0.22860319284E+02 -0.22243833742E+02  0.41903624795E+02  0.10566000000E+00 0. -1.
         23    2    1    0    0    0 -0.12902210580E+02  0.20293445899E+02  0.14985308334E+02  0.96665384241E+02  0.92419403051E+02 0.  0.
         13    1    3    3    0    0 -0.40077940003E+02 -0.25668733846E+01  0.37229142077E+02  0.54761759446E+02  0.10566000000E+00 0.  1.
         22    1    1    0    0    0  0.12902210580E+02 -0.20293445899E+02 -0.14985308334E+02  0.28334615759E+02  0.00000000000E+00 0.  1.
</event>
<event>
 5    1  0.1758488E-003  0.9118800E+02  0.7818608E-02  0.1130116E+00
         25   -1    0    0    0    0  0.00000000000E+00  0.00000000000E+00  0.99999998245E-14  0.12500000000E+03  0.12500000000E+03 0.  0.
        -13    1    3    3    0    0 -0.29447082760E+01 -0.58931063214E+02 -0.68326426709E+01  0.59398970431E+02  0.10566000000E+00 0. -1.
         23    2    1    0    0    0  0.40141032025E+01 -0.23927806582E+02 -0.15608756605E+02  0.96150628515E+02  0.91720538206E+02 0.  0.
         13    1    3    3    0    0  0.69588114786E+01  0.35003256633E+02 -0.87761139337E+01  0.36751658084E+02  0.10566000000E+00 0.  1.
         22    1    1    0    0    0 -0.40141032025E+01  0.23927806582E+02  0.15608756605E+02  0.28849371485E+02  0.00000000000E+00 0. -1.
</event>
<event>
 5    1  0.1758488E-003  0.9118800E+02  0.7818608E-02  0.1130116E+00
         25   -1    0    0    0    0  0.00000000000E+00  0.00000000000E+00  0.99999998245E-14  0.12500000000E+03  0.12500000000E+03 0.  0.
        -13    1    3    3    0    0 -0.27693665013E+02 -0.47712272571E+01  0.33821684020E+02  0.43972959479E+02  0.10566000000E+00 0. -1.
         23    2    1    0    0    0  0.16778995325E+02 -0.16478619560E+02  0.24771394001E+02  0.90842986848E+02  0.84176877538E+02 0.  0.
         13    1    3    3    0    0  0.44472660338E+02 -0.11707392303E+02 -0.90502900189E+01  0.46870027369E+02  0.10566000000E+00 0.  1.
         22    1    1    0    0    0 -0.16778995325E+02  0.16478619560E+02 -0.24771394001E+02  0.34157013152E+02  0.00000000000E+00 0.  1.
</event>
<event>
 5    1  0.1758488E-003  0.9118800E+02  0.7818608E-02  0.1130116E+00
         25   -1    0    0    0    0  0.00000000000E+00  0.00000000000E+00  0.99999998245E-14  0.12500000000E+03  0.12500000000E+03 0.  0.
        -13    1    3    3    0    0  0.40978572489E+02 -0.27596485142E+02 -0.23211276498E+02  0.54585565089E+02  0.10566000000E+00 0.  1.
         23    2    1    0    0    0  0.30062932318E+02 -0.64613859759E+01  0.74193009104E+01  0.93368126292E+02  0.87846636663E+02 0.  0.
         13    1    3    3    0    0 -0.10915640171E+02  0.21135099166E+02  0.30630577408E+02  0.38782561203E+02  0.10566000000E+00 0. -1.
         22    1    1    0    0    0 -0.30062932318E+02  0.64613859759E+01 -0.74193009104E+01  0.31631873708E+02  0.00000000000E+00 0. -1.
</event>
<event>
 5    1  0.1758488E-003  0.9118800E+02  0.7818608E-02  0.1130116E+00
         25   -1    0    0    0    0  0.00000000000E+00  0.00000000000E+00  0.99999998245E-14  0.12500000000E+03  0.12500000000E+03 0.  0.
        -13    1    3    3    0    0  0.37513500210E+02 -0.12915985315E+02  0.15542729959E+02  0.42610714536E+02  0.10566000000E+00 0.  1.
         23    2    1    0    0    0 -0.28339137957E+01 -0.27314741876E+02 -0.13532482400E+02  0.94385391215E+02  0.89282404783E+02 0.  0.
         13    1    3    3    0    0 -0.40347414006E+02 -0.14398756560E+02 -0.29075212359E+02  0.51774676679E+02  0.10566000000E+00 0. -1.
         22    1    1    0    0    0  0.28339137957E+01  0.27314741876E+02  0.13532482400E+02  0.30614608785E+02  0.00000000000E+00 0. -1.
</event>
<event>
 5    1  0.1758488E-003  0.9118800E+02  0.7818608E-02  0.1130116E+00
         25   -1    0    0    0    0  0.00000000000E+00  0.00000000000E+00  0.99999998245E-14  0.12500000000E+03  0.12500000000E+03 0.  0.
        -13    1    3    3    0    0  0.39030680637E+02  0.13258451246E+02 -0.46097936811E+02  0.61840209433E+02  0.10566000000E+00 0. -1.
         23    2    1    0    0    0  0.13229320630E+02  0.50857483275E+01 -0.25402883341E+02  0.95910719459E+02  0.91392996803E+02 0.  0.
         13    1    3    3    0    0 -0.25801360007E+02 -0.81727029180E+01  0.20695053471E+02  0.34070510025E+02  0.10566000000E+00 0.  1.
         22    1    1    0    0    0 -0.13229320630E+02 -0.50857483275E+01  0.25402883341E+02  0.29089280541E+02  0.00000000000E+00 0. -1.
</event>
<event>
 5    1  0.1758488E-003  0.9118800E+02  0.7818608E-02  0.1130116E+00
         25   -1    0    0    0    0  0.00000000000E+00  0.00000000000E+00  0.99999998245E-14  0.12500000000E+03  0.12500000000E+03 0.  0.
        -13    1    3    3    0    0 -0.36099801650E+02  0.48566480544E-01  0.44245279130E+01  0.36370120279E+02  0.10566000000E+00 0. -1.
         23    2    1    0    0    0  0.11178706538E+02  0.40706369899E+01 -0.28495287180E+02  0.94120962502E+02  0.88911420107E+02 0.  0.
         13    1    3    3    0    0  0.47278508187E+02  0.40220705093E+01 -0.32919815093E+02  0.57750842222E+02  0.10566000000E+00 0.  1.
         22    1    1    0    0    0 -0.11178706538E+02 -0.40706369899E+01  0.28495287180E+02  0.30879037498E+02  0.00000000000E+00 0.  1.
</event>
<event>
 5    1  0.1758488E-003  0.9118800E+02  0.7818608E-02  0.1130116E+00
         25   -1    0    0    0    0  0.00000000000E+00  0.00000000000E+00  0.99999998245E-14  0.12500000000E+03  0.12500000000E+03 0.  0.
        -13    1    3    3    0    0  0.77936301111E+00 -0.31104909906E+02  0.44953428993E+02  0.54671242616E+02  0.10566000000E+00 0. -1.
         23    2    1    0    0    0  0.21612366646E+02 -0.13383281385E+02  0.13993130736E+02  0.95982516986E+02  0.91491142995E+02 0.  0.
         13    1    3    3    0    0  0.20833003635E+02  0.17721628520E+02 -0.30960298257E+02  0.41311274370E+02  0.10566000000E+00 0.  1.
         22    1    1    0    0    0 -0.21612366646E+02  0.13383281385E+02 -0.13993130736E+02  0.29017483014E+02  0.00000000000E+00 0. -1.
</event>
<event>
 5    1  0.1758488E-003  0.9118800E+02  0.7818608E-02  0.1130116E+00
         25   -1    0    0    0    0  0.00000000000E+00  0.00000000000E+00  0.99999998245E-14  0.12500000000E+03  0.12500000000E+03 0.  0.
        -13    1    3    3    0    0 -0.52299912841E+00  0.50049915718E+02 -0.36456446547E+01  0.50185351253E+02  0.10566000000E+00 0.  1.
         23    2    1    0    0    0 -0.15830653053E+01  0.14606357028E+02  0.25155888003E+02  0.95868050827E+02  0.91334619432E+02 0.  0.
         13    1    3    3    0    0 -0.10600661769E+01 -0.35443558690E+02  0.28801532657E+02  0.45682699574E+02  0.10566000000E+00 0. -1.
         22    1    1    0    0    0  0.15830653053E+01 -0.14606357028E+02 -0.25155888003E+02  0.29131949173E+02  0.00000000000E+00 0. -1.
</event>
<event>
 5    1  0.1758488E-003  0.9118800E+02  0.7818608E-02  0.1130116E+00
         25   -1    0    0    0    0  0.00000000000E+00  0.00000000000E+00  0.99999998245E-14  0.12500000000E+03  0.12500000000E+03 0.  0.
        -13    1    3    3    0    0  0.15458579085E+02  0.71004655344E+01 -0.39175075427E+02  0.42709272728E+02  0.10566000000E+00 0. -1.
         23    2    1    0    0    0 -0.19606330689E+02 -0.19564986363E+02 -0.99759542648E+01  0.95559949763E+02  0.90911976333E+02 0.  0.
         13    1    3    3    0    0 -0.35064909774E+02 -0.26665451897E+02  0.29199121163E+02  0.52850677035E+02  0.10566000000E+00 0.  1.
         22    1    1    0    0    0  0.19606330689E+02  0.19564986363E+02  0.99759542648E+01  0.29440050237E+02  0.00000000000E+00 0.  1.
</event>
<event>
 5    1  0.1758488E-003  0.9118800E+02  0.7818608E-02  0.1130116E+00
         25   -1    0    0    0    0  0.00000000000E+00  0.00000000000E+00  0.99999998245E-14  0.12500000000E+03  0.12500000000E+03 0.  0.
        -13    1    3    3    0    0  0.27915567276E+02  0.16912311256E+02 -0.42568720409E+01  0.32915608637E+02  0.10566000000E+00 0. -1.
         23    2    1    0    0    0 -0.22356571080E+02 -0.63400839208E-01 -0.26394654052E+02  0.90409567036E+02  0.83530783302E+02 0.  0.
         13    1    3    3    0    0 -0.50272138355E+02 -0.16975712095E+02 -0.22137782011E+02  0.57493958399E+02  0.10566000000E+00 0.  1.
         22    1    1    0    0    0  0.22356571080E+02  0.63400839208E-01  0.26394654052E+02  0.34590432964E+02  0.00000000000E+00 0.  1.
</event>
<event>
 5    1  0.1758488E-003  0.9118800E+02  0.7818608E-02  0.1130116E+00
         25   -1    0    0    0    0  0.00000000000E+00  0.00000000000E+00  0.99999998245E-14  0.12500000000E+03  0.12500000000E+03 0.  0.
        -13    1    3    3    0    0 -0.38653906439E+02 -0.39387413745E+02 -0.22266341442E+02  0.59508772209E+02  0.10566000000E+00 0. -1.
         23    2    1    0    0    0 -0.10904119996E+02 -0.27835319005E+02 -0.36060871111E+01  0.94888396236E+02  0.89983882218E+02 0.  0.
         13    1    3    3    0    0  0.27749786444E+02  0.11552094740E+02  0.18660254331E+02  0.35379624027E+02  0.10566000000E+00 0.  1.
         22    1    1    0    0    0  0.10904119996E+02  0.27835319005E+02  0.36060871111E+01  0.30111603764E+02  0.00000000000E+00 0. -1.
</event>
<event>
 5    1  0.1758488E-003  0.9118800E+02  0.7818608E-02  0.1130116E+00
         25   -1    0    0    0    0  0.00000000000E+00  0.00000000000E+00  0.99999998245E-14  0.12500000000E+03  0.12500000000E+03 0.  0.
        -13    1    3    3    0    0 -0.10028270394E+02  0.45370061210E+02 -0.51817509835E+01  0.46753292596E+02  0.10566000000E+00 0. -1.
         23    2    1    0    0    0  0.24473412249E+02  0.13287036569E+02  0.86230724673E+01  0.95847802370E+02  0.91306903312E+02 0.  0.
         13    1    3    3    0    0  0.34501682643E+02 -0.32083024641E+02  0.13804823451E+02  0.49094509773E+02  0.10566000000E+00 0.  1.
         22    1    1    0    0    0 -0.24473412249E+02 -0.13287036569E+02 -0.86230724673E+01  0.29152197630E+02  0.00000000000E+00 0.  1.
</event>
<event>
 5    1  0.1758488E-003  0.9118800E+02  0.7818608E-02  0.1130116E+00
         25   -1    0    0    0    0  0.00000000000E+00  0.00000000000E+00  0.99999998245E-14  0.12500000000E+03  0.12500000000E+03 0.  0.
        -13    1    3    3    0    0  0.33312265532E+01 -0.69821717664E+01 -0.59957824793E+02  0.60454939508E+02  0.10566000000E+00 0.  1.
         23    2    1    0    0    0  0.10339041805E+02 -0.94547381377E+01 -0.23683279039E+02  0.97482994989E+02  0.93518708007E+02 0.  0.
         13    1    3    3    0    0  0.70078152520E+01 -0.24725663713E+01  0.36274545754E+02  0.37028055482E+02  0.10566000000E+00 0. -1.
         22    1    1    0    0    0 -0.10339041805E+02  0.94547381377E+01  0.23683279039E+02  0.27517005011E+02  0.00000000000E+00 0.  1.
</event>
<event>
 5    1  0.1758488E-003  0.9118800E+02  0.7818608E-02  0.1130116E+00
         25   -1    0    0    0    0  0.00000000000E+00  0.00000000000E+00  0.99999998245E-14  0.12500000000E+03  0.12500000000E+03 0.  0.
        -13    1    3    3    0    0  0.23148560240E+02 -0.38097282853E+02  0.13384420485E+02  0.46544738453E+02  0.10566000000E+00 0.  1.
         23    2    1    0    0    0  0.24118000559E+02 -0.15056128942E+01 -0.18084899226E+02  0.94817084284E+02  0.89884765511E+02 0.  0.
         13    1    3    3    0    0  0.96944031859E+00  0.36591669958E+02 -0.31469319710E+02  0.48272345830E+02  0.10566000000E+00 0. -1.
         22    1    1    0    0    0 -0.24118000559E+02  0.15056128942E+01  0.18084899226E+02  0.30182915716E+02  0.00000000000E+00 0.  1.
</event>
<event>
 5    1  0.1758488E-003  0.9118800E+02  0.7818608E-02  0.1130116E+00
         25   -1    0    0    0    0  0.00000000000E+00  0.00000000000E+00  0.99999998245E-14  0.12500000000E+03  0.12500000000E+03 0.  0.
        -13    1    3    3    0    0  0.47907777033E+02 -0.14151268926E+02 -0.84165588235E+01  0.50658297829E+02  0.10566000000E+00 0.  1.
         23    2    1    0    0    0  0.22258522737E+02  0.66300586047E+01  0.20102965447E+02  0.94283087210E+02  0.89139058794E+02 0.  0.
         13    1    3    3    0    0 -0.25649254296E+02  0.20781327531E+02  0.28519524271E+02  0.43624789381E+02  0.10566000000E+00 0. -1.
         22    1    1    0    0    0 -0.22258522737E+02 -0.66300586047E+01 -0.20102965447E+02  0.30716912790E+02  0.00000000000E+00 0.  1.
</event>
<event>
 5    1  0.1758488E-003  0.9118800E+02  0.7818608E-02  0.1130116E+00
         25   -1    0    0    0    0  0.00000000000E+00  0.00000000000E+00  0.99999998245E-14  0.12500000000E+03  0.12500000000E+03 0.  0.
        -13    1    3    3    0    0 -0.99186682521E+01 -0.19967693382E+02 -0.37893285694E+02  0.43965907515E+02  0.10566000000E+00 0. -1.
         23    2    1    0    0    0  0.22229056783E+02 -0.17978516386E+02  0.32600304478E+01  0.96225257335E+02  0.91822188679E+02 0.  0.
         13    1    3    3    0    0  0.32147725035E+02  0.19891769956E+01  0.41153316142E+02  0.52259349820E+02  0.10566000000E+00 0.  1.
         22    1    1    0    0    0 -0.22229056783E+02  0.17978516386E+02 -0.32600304478E+01  0.28774742665E+02  0.00000000000E+00 0.  1.
</event>
<event>
 5    1  0.1758488E-003  0.9118800E+02  0.7818608E-02  0.1130116E+00
         25   -1    0    0    0    0  0.00000000000E+00  0.00000000000E+00  0.99999998245E-14  0.12500000000E+03  0.12500000000E+03 0.  0.
        -13    1    3    3    0    0  0.28939237890E+02  0.12217441096E+02 -0.39091847197E+02  0.50149068166E+02  0.10566000000E+00 0. -1.
         23    2    1    0    0    0  0.88013193099E+00  0.27955922455E+02 -0.58202399041E+01  0.96431075886E+02  0.92101948793E+02 0.  0.
         13    1    3    3    0    0 -0.28059105959E+02  0.15738481359E+02  0.33271607293E+02  0.46282007720E+02  0.10566000000E+00 0.  1.
         22    1    1    0    0    0 -0.88013193099E+00 -0.27955922455E+02  0.58202399041E+01  0.28568924114E+02  0.00000000000E+00 0.  1.
</event>
<event>
 5    1  0.1758488E-003  0.9118800E+02  0.7818608E-02  0.1130116E+00
         25   -1    0    0    0    0  0.00000000000E+00  0.00000000000E+00  0.99999998245E-14  0.12500000000E+03  0.12500000000E+03 0.  0.
        -13    1    3    3    0    0 -0.22529684413E+02  0.11182614116E+02 -0.21457974836E+02  0.33061962832E+02  0.10566000000E+00 0.  1.
         23    2    1    0    0    0  0.26986265715E+02  0.98660651571E+01  0.13061668481E+02  0.93437285250E+02  0.87944990263E+02 0.  0.
         13    1    3    3    0    0  0.49515950128E+02 -0.13165489592E+01  0.34519643317E+02  0.60375322417E+02  0.10566000000E+00 0. -1.
         22    1    1    0    0    0 -0.26986265715E+02 -0.98660651571E+01 -0.13061668481E+02  0.31562714750E+02  0.00000000000E+00 0. -1.
</event>
<event>
 5    1  0.1758488E-003  0.9118800E+02  0.7818608E-02  0.1130116E+00
         25   -1    0    0    0    0  0.00000000000E+00  0.00000000000E+00  0.99999998245E-14  0.12500000000E+03  0.12500000000E+03 0.  0.
        -13    1    3    3    0    0 -0.59078864920E+02  0.21796802209E+01  0.14082398108E+02  0.60773253876E+02  0.10566000000E+00 0. -1.
         23    2    1    0    0    0 -0.24189160699E+02  0.56335485836E+01  0.15253923647E+02  0.95853223993E+02  0.91314325264E+02 0.  0.
         13    1    3    3    0    0  0.34889704221E+02  0.34538683628E+01  0.11715255386E+01  0.35079970118E+02  0.10566000000E+00 0.  1.
         22    1    1    0    0    0  0.24189160699E+02 -0.56335485836E+01 -0.15253923647E+02  0.29146776007E+02  0.00000000000E+00 0. -1.
</event>
<event>
 5    1  0.1758488E-003  0.9118800E+02  0.7818608E-02  0.1130116E+00
         25   -1    0    0    0    0  0.00000000000E+00  0.00000000000E+00  0.99999998245E-14  0.12500000000E+03  0.12500000000E+03 0.  0.
        -13    1    3    3    0    0 -0.41330791559E+01 -0.15183267606E+02  0.35958979280E+02  0.39251411610E+02  0.10566000000E+00 0.  1.
         23    2    1    0    0    0 -0.94516664885E+01 -0.15835172399E+02 -0.21337268367E+02  0.96797771264E+02  0.92598287328E+02 0.  0.
         13    1    3    3    0    0 -0.53185873326E+01 -0.65190479327E+00 -0.57296247646E+02  0.57546359654E+02  0.10566000000E+00 0. -1.
         22    1    1    0    0    0  0.94516664885E+01  0.15835172399E+02  0.21337268367E+02  0.28202228736E+02  0.00000000000E+00 0. -1.
</event>
<event>
 5    1  0.1758488E-003  0.9118800E+02  0.7818608E-02  0.1130116E+00
         25   -1    0    0    0    0  0.00000000000E+00  0.00000000000E+00  0.99999998245E-14  0.12500000000E+03  0.12500000000E+03 0.  0.
        -13    1    3    3    0    0 -0.94372175351E+01  0.52400553622E+02 -0.19458081659E+02  0.56687804690E+02  0.10566000000E+00 0.  1.
         23    2    1    0    0    0 -0.20567652079E+02  0.15255825227E+02 -0.13905960372E+02  0.95859920226E+02  0.91323491263E+02 0.  0.
         13    1    3    3    0    0 -0.11130434543E+02 -0.37144728396E+02  0.55521212866E+01  0.39172115536E+02  0.10566000000E+00 0. -1.
         22    1    1    0    0    0  0.20567652079E+02 -0.15255825227E+02  0.13905960372E+02  0.29140079774E+02  0.00000000000E+00 0. -1.
</event>
<event>
 5    1  0.1758488E-003  0.9118800E+02  0.7818608E-02  0.1130116E+00
         25   -1    0    0    0    0  0.00000000000E+00  0.00000000000E+00  0.99999998245E-14  0.12500000000E+03  0.12500000000E+03 0.  0.
        -13    1    3    3    0    0 -0.12079742039E+02 -0.28183639844E+02 -0.36835375326E+02  0.47928006030E+02  0.10566000000E+00 0. -1.
         23    2    1    0    0    0  0.24320948303E+02 -0.12413593313E+02 -0.95644461701E+01  0.96067588144E+02  0.91607297940E+02 0.  0.
         13    1    3    3    0    0  0.36400690342E+02  0.15770046531E+02  0.27270929156E+02  0.48139582113E+02  0.10566000000E+00 0.  1.
         22    1    1    0    0    0 -0.24320948303E+02  0.12413593313E+02  0.95644461701E+01  0.28932411856E+02  0.00000000000E+00 0.  1.
</event>
<event>
 5    1  0.1758488E-003  0.9118800E+02  0.7818608E-02  0.1130116E+00
         25   -1    0    0    0    0  0.00000000000E+00  0.00000000000E+00  0.99999998245E-14  0.12500000000E+03  0.12500000000E+03 0.  0.
        -13    1    3    3    0    0  0.32693393731E+02 -0.17692849232E+01  0.53015651777E+02  0.62310985068E+02  0.10566000000E+00 0.  1.
         23    2    1    0    0    0  0.15887491075E+02 -0.41008004422E+01  0.23901860026E+02  0.96008141666E+02  0.91526146082E+02 0.  0.
         13    1    3    3    0    0 -0.16805902655E+02 -0.23315155190E+01 -0.29113791751E+02  0.33697156598E+02  0.10566000000E+00 0. -1.
         22    1    1    0    0    0 -0.15887491075E+02  0.41008004422E+01 -0.23901860026E+02  0.28991858334E+02  0.00000000000E+00 0.  1.
</event>
<event>
 5    1  0.1758488E-003  0.9118800E+02  0.7818608E-02  0.1130116E+00
         25   -1    0    0    0    0  0.00000000000E+00  0.00000000000E+00  0.99999998245E-14  0.12500000000E+03  0.12500000000E+03 0.  0.
        -13    1    3    3    0    0  0.33471560940E+02  0.18743880197E+02 -0.30773055201E+02  0.49179980958E+02  0.10566000000E+00 0. -1.
         23    2    1    0    0    0 -0.10914092165E+02  0.22087295386E+02 -0.13339412999E+02  0.96983826735E+02  0.92849107070E+02 0.  0.
         13    1    3    3    0    0 -0.44385653104E+02  0.33434151890E+01  0.17433642202E+02  0.47803845777E+02  0.10566000000E+00 0.  1.
         22    1    1    0    0    0  0.10914092165E+02 -0.22087295386E+02  0.13339412999E+02  0.28016173265E+02  0.00000000000E+00 0. -1.
</event>
<event>
 5    1  0.1758488E-003  0.9118800E+02  0.7818608E-02  0.1130116E+00
         25   -1    0    0    0    0  0.00000000000E+00  0.00000000000E+00  0.99999998245E-14  0.12500000000E+03  0.12500000000E+03 0.  0.
        -13    1    3    3    0    0  0.42422673787E+01  0.28839849800E+02 -0.48882190683E+02  0.56914088757E+02  0.10566000000E+00 0.  1.
         23    2    1    0    0    0 -0.12763253531E+01 -0.46388620158E+01 -0.27637351324E+02  0.96946992400E+02  0.92799504847E+02 0.  0.
         13    1    3    3    0    0 -0.55185927318E+01 -0.33478711816E+02  0.21244839359E+02  0.40032903643E+02  0.10566000000E+00 0. -1.
         22    1    1    0    0    0  0.12763253531E+01  0.46388620158E+01  0.27637351324E+02  0.28053007600E+02  0.00000000000E+00 0.  1.
</event>
<event>
 5    1  0.1758488E-003  0.9118800E+02  0.7818608E-02  0.1130116E+00
         25   -1    0    0    0    0  0.00000000000E+00  0.00000000000E+00  0.99999998245E-14  0.12500000000E+03  0.12500000000E+03 0.  0.
        -13    1    3    3    0    0  0.25882930780E+02 -0.21647250723E+02  0.39268202103E+02  0.51773858559E+02  0.10566000000E+00 0.  1.
         23    2    1    0    0    0 -0.13886031289E+02 -0.15698670433E+02  0.18561138358E+02  0.97003822128E+02  0.92876022374E+02 0.  0.
         13    1    3    3    0    0 -0.39768962069E+02  0.59485802899E+01 -0.20707063745E+02  0.45229963569E+02  0.10566000000E+00 0. -1.
         22    1    1    0    0    0  0.13886031289E+02  0.15698670433E+02 -0.18561138358E+02  0.27996177872E+02  0.00000000000E+00 0.  1.
</event>
<event>
 5    1  0.1758488E-003  0.9118800E+02  0.7818608E-02  0.1130116E+00
         25   -1    0    0    0    0  0.00000000000E+00  0.00000000000E+00  0.99999998245E-14  0.12500000000E+03  0.12500000000E+03 0.  0.
        -13    1    3    3    0    0 -0.50188225649E+02 -0.30967553179E+02  0.96577421014E+01  0.59758936489E+02  0.10566000000E+00 0.  1.
         23    2    1    0    0    0 -0.24428542481E+02 -0.68040284771E+01 -0.68312457447E+01  0.98737585608E+02  0.95180861532E+02 0.  0.
         13    1    3    3    0    0  0.25759683168E+02  0.24163524702E+02 -0.16488987846E+02  0.38978649119E+02  0.10566000000E+00 0. -1.
         22    1    1    0    0    0  0.24428542481E+02  0.68040284771E+01  0.68312457447E+01  0.26262414392E+02  0.00000000000E+00 0.  1.
</event>
<event>
 5    1  0.1758488E-003  0.9118800E+02  0.7818608E-02  0.1130116E+00
         25   -1    0    0    0    0  0.00000000000E+00  0.00000000000E+00  0.99999998245E-14  0.12500000000E+03  0.12500000000E+03 0.  0.
        -13    1    3    3    0    0 -0.29524862173E+01  0.25928227949E+02  0.31452539058E+02  0.40868858029E+02  0.10566000000E+00 0.  1.
         23    2    1    0    0    0 -0.27170701813E+02 -0.75172735874E+01 -0.54941711212E+01  0.96278190246E+02  0.91894219413E+02 0.  0.
         13    1    3    3    0    0 -0.24218215596E+02 -0.33445501536E+02 -0.36946710179E+02  0.55409332217E+02  0.10566000000E+00 0. -1.
         22    1    1    0    0    0  0.27170701813E+02  0.75172735874E+01  0.54941711212E+01  0.28721809754E+02  0.00000000000E+00 0. -1.
</event>
<event>
 5    1  0.1758488E-003  0.9118800E+02  0.7818608E-02  0.1130116E+00
         25   -1    0    0    0    0  0.00000000000E+00  0.00000000000E+00  0.99999998245E-14  0.12500000000E+03  0.12500000000E+03 0.  0.
        -13    1    3    3    0    0  0.26088356361E+02  0.92084926305E+01  0.47553463429E+02  0.55015831561E+02  0.10566000000E+00 0. -1.
         23    2    1    0    0    0 -0.98957082570E+00  0.21559168513E+02  0.20345216255E+02  0.95340181696E+02  0.90609300979E+02 0.  0.
         13    1    3    3    0    0 -0.27077927187E+02  0.12350675882E+02 -0.27208247174E+02  0.40324350135E+02  0.10566000000E+00 0.  1.
         22    1    1    0    0    0  0.98957082570E+00 -0.21559168513E+02 -0.20345216255E+02  0.29659818304E+02  0.00000000000E+00 0. -1.
</event>
<event>
 5    1  0.1758488E-003  0.9118800E+02  0.7818608E-02  0.1130116E+00
         25   -1    0    0    0    0  0.00000000000E+00  0.00000000000E+00  0.99999998245E-14  0.12500000000E+03  0.12500000000E+03 0.  0.
        -13    1    3    3    0    0  0.14989178907E+02 -0.30157397169E+02 -0.26151556935E+02  0.42638705216E+02  0.10566000000E+00 0. -1.
         23    2    1    0    0    0 -0.26128569889E+02 -0.13196775377E+02  0.26185632652E+01  0.95610989837E+02  0.90982127142E+02 0.  0.
         13    1    3    3    0    0 -0.41117748796E+02  0.16960621791E+02  0.28770120201E+02  0.52972284621E+02  0.10566000000E+00 0.  1.
         22    1    1    0    0    0  0.26128569889E+02  0.13196775377E+02 -0.26185632652E+01  0.29389010163E+02  0.00000000000E+00 0.  1.
</event>
<event>
 5    1  0.1758488E-003  0.9118800E+02  0.7818608E-02  0.1130116E+00
         25   -1    0    0    0    0  0.00000000000E+00  0.00000000000E+00  0.99999998245E-14  0.12500000000E+03  0.12500000000E+03 0.  0.
        -13    1    3    3    0    0 -0.20088859557E+02 -0.25516402929E+02  0.10409663620E+02  0.34103098942E+02  0.10566000000E+00 0.  1.
         23    2    1    0    0    0  0.30052555329E+02  0.55808148715E+01 -0.18976130081E+01  0.94374805934E+02  0.89267583610E+02 0.  0.
         13    1    3    3    0    0  0.50141414886E+02  0.31097217800E+02 -0.12307276628E+02  0.60271706992E+02  0.10566000000E+00 0. -1.
         22    1    1    0    0    0 -0.30052555329E+02 -0.55808148715E+01  0.18976130081E+01  0.30625194066E+02  0.00000000000E+00 0. -1.
</event>
<event>
 5    1  0.1758488E-003  0.9118800E+02  0.7818608E-02  0.1130116E+00
         25   -1    0    0    0    0  0.00000000000E+00  0.00000000000E+00  0.99999998245E-14  0.12500000000E+03  0.12500000000E+03 0.  0.
        -13    1    3    3    0    0  0.19883371476E+02  0.19048403376E+02  0.52614492927E+02  0.59384224862E+02  0.10566000000E+00 0.  1.
         23    2    1    0    0    0  0.67130624170E+00  0.19514224487E+02  0.21486125914E+02  0.95967101140E+02  0.91470078633E+02 0.  0.
         13    1    3    3    0    0 -0.19212065234E+02  0.46582111045E+00 -0.31128367013E+02  0.36582876279E+02  0.10566000000E+00 0. -1.
         22    1    1    0    0    0 -0.67130624170E+00 -0.19514224487E+02 -0.21486125914E+02  0.29032898860E+02  0.00000000000E+00 0.  1.
</event>
<event>
 5    1  0.1758488E-003  0.9118800E+02  0.7818608E-02  0.1130116E+00
         25   -1    0    0    0    0  0.00000000000E+00  0.00000000000E+00  0.99999998245E-14  0.12500000000E+03  0.12500000000E+03 0.  0.
        -13    1    3    3    0    0  0.37919014804E+02 -0.44314810362E+02  0.96165223296E+01  0.59111274449E+02  0.10566000000E+00 0.  1.
         23    2    1    0    0    0  0.11757103227E+02 -0.27639372176E+02 -0.67887782759E+01  0.94206301277E+02  0.89031316508E+02 0.  0.
         13    1    3    3    0    0 -0.26161911577E+02  0.16675438186E+02 -0.16405300605E+02  0.35095026828E+02  0.10566000000E+00 0. -1.
         22    1    1    0    0    0 -0.11757103227E+02  0.27639372176E+02  0.67887782759E+01  0.30793698723E+02  0.00000000000E+00 0.  1.
</event>
<event>
 5    1  0.1758488E-003  0.9118800E+02  0.7818608E-02  0.1130116E+00
         25   -1    0    0    0    0  0.00000000000E+00  0.00000000000E+00  0.99999998245E-14  0.12500000000E+03  0.12500000000E+03 0.  0.
        -13    1    3    3    0    0  0.42269667582E+02 -0.56220507466E+01  0.24671596103E+02  0.49264907088E+02  0.10566000000E+00 0.  1.
         23    2    1    0    0    0  0.22586718141E+02  0.12127924331E+02 -0.13724561011E+02  0.95920626556E+02  0.91406545930E+02 0.  0.
         13    1    3    3    0    0 -0.19682949440E+02  0.17749975078E+02 -0.38396157114E+02  0.46655719468E+02  0.10566000000E+00 0. -1.
         22    1    1    0    0    0 -0.22586718141E+02 -0.12127924331E+02  0.13724561011E+02  0.29079373444E+02  0.00000000000E+00 0.  1.
</event>
<event>
 5    1  0.1758488E-003  0.9118800E+02  0.7818608E-02  0.1130116E+00
         25   -1    0    0    0    0  0.00000000000E+00  0.00000000000E+00  0.99999998245E-14  0.12500000000E+03  0.12500000000E+03 0.  0.
        -13    1    3    3    0    0  0.76728696119E+01 -0.58180176236E+02 -0.98297848860E+01  0.59501610649E+02  0.10566000000E+00 0. -1.
         23    2    1    0    0    0 -0.29915451281E+01 -0.30289550318E+02 -0.16898053049E+02  0.90186922033E+02  0.83196938094E+02 0.  0.
         13    1    3    3    0    0 -0.10664414740E+02  0.27890625918E+02 -0.70682681635E+01  0.30685311384E+02  0.10566000000E+00 0.  1.
         22    1    1    0    0    0  0.29915451281E+01  0.30289550318E+02  0.16898053049E+02  0.34813077967E+02  0.00000000000E+00 0.  1.
</event>
<event>
 5    1  0.1758488E-003  0.9118800E+02  0.7818608E-02  0.1130116E+00
         25   -1    0    0    0    0  0.00000000000E+00  0.00000000000E+00  0.99999998245E-14  0.12500000000E+03  0.12500000000E+03 0.  0.
        -13    1    3    3    0    0  0.14989302069E+01 -0.49940098436E+02 -0.93429637475E+01  0.50828755240E+02  0.10566000000E+00 0.  1.
         23    2    1    0    0    0  0.14499830360E+02 -0.67449177182E+01  0.15839770315E+02  0.10249139455E+03  0.99989242614E+02 0.  0.
         13    1    3    3    0    0  0.13000900153E+02  0.43195180718E+02  0.25182734063E+02  0.51662639315E+02  0.10566000000E+00 0. -1.
         22    1    1    0    0    0 -0.14499830360E+02  0.67449177182E+01 -0.15839770315E+02  0.22508605446E+02  0.00000000000E+00 0.  1.
</event>
<event>
 5    1  0.1758488E-003  0.9118800E+02  0.7818608E-02  0.1130116E+00
         25   -1    0    0    0    0  0.00000000000E+00  0.00000000000E+00  0.99999998245E-14  0.12500000000E+03  0.12500000000E+03 0.  0.
        -13    1    3    3    0    0  0.18656684602E+02 -0.92031324654E+01  0.37985621210E+02  0.43309215073E+02  0.10566000000E+00 0.  1.
         23    2    1    0    0    0 -0.19294710013E+02 -0.20875263533E+02  0.26695655865E+01  0.96448484410E+02  0.92125572468E+02 0.  0.
         13    1    3    3    0    0 -0.37951394615E+02 -0.11672131067E+02 -0.35316055624E+02  0.53139269337E+02  0.10566000000E+00 0. -1.
         22    1    1    0    0    0  0.19294710013E+02  0.20875263533E+02 -0.26695655865E+01  0.28551515590E+02  0.00000000000E+00 0. -1.
</event>
<event>
 5    1  0.1758488E-003  0.9118800E+02  0.7818608E-02  0.1130116E+00
         25   -1    0    0    0    0  0.00000000000E+00  0.00000000000E+00  0.99999998245E-14  0.12500000000E+03  0.12500000000E+03 0.  0.
        -13    1    3    3    0    0 -0.14211980201E+02 -0.22765120279E+02 -0.20677757121E+02  0.33879372576E+02  0.10566000000E+00 0. -1.
         23    2    1    0    0    0  0.35135735417E+01  0.31386360416E+02 -0.45903676130E+01  0.93085735258E+02  0.87443889521E+02 0.  0.
         13    1    3    3    0    0  0.17725553742E+02  0.54151480694E+02  0.16087389508E+02  0.59206362683E+02  0.10566000000E+00 0.  1.
         22    1    1    0    0    0 -0.35135735417E+01 -0.31386360416E+02  0.45903676130E+01  0.31914264742E+02  0.00000000000E+00 0.  1.
</event>
<event>
 5    1  0.1758488E-003  0.9118800E+02  0.7818608E-02  0.1130116E+00
         25   -1    0    0    0    0  0.00000000000E+00  0.00000000000E+00  0.99999998245E-14  0.12500000000E+03  0.12500000000E+03 0.  0.
        -13    1    3    3    0    0 -0.32768280346E+02 -0.50088989232E+02  0.52372641740E+01  0.60084167126E+02  0.10566000000E+00 0.  1.
         23    2    1    0    0    0 -0.13941362848E+02 -0.25368625222E+02 -0.95790798851E+01  0.94509222458E+02  0.89455606948E+02 0.  0.
         13    1    3    3    0    0  0.18826917499E+02  0.24720364010E+02 -0.14816344059E+02  0.34425055332E+02  0.10566000000E+00 0. -1.
         22    1    1    0    0    0  0.13941362848E+02  0.25368625222E+02  0.95790798851E+01  0.30490777542E+02  0.00000000000E+00 0.  1.
</event>
<event>
 5    1  0.1758488E-003  0.9118800E+02  0.7818608E-02  0.1130116E+00
         25   -1    0    0    0    0  0.00000000000E+00  0.00000000000E+00  0.99999998245E-14  0.12500000000E+03  0.12500000000E+03 0.  0.
        -13    1    3    3    0    0 -0.41772383905E+01 -0.41874108693E+02  0.36812188522E+02  0.55910988966E+02  0.10566000000E+00 0. -1.
         23    2    1    0    0    0 -0.17336732937E+02 -0.69604222946E+01  0.22209018587E+02  0.95978451212E+02  0.91485587953E+02 0.  0.
         13    1    3    3    0    0 -0.13159494547E+02  0.34913686399E+02 -0.14603169935E+02  0.40067462246E+02  0.10566000000E+00 0.  1.
         22    1    1    0    0    0  0.17336732937E+02  0.69604222946E+01 -0.22209018587E+02  0.29021548788E+02  0.00000000000E+00 0. -1.
</event>
<event>
 5    1  0.1758488E-003  0.9118800E+02  0.7818608E-02  0.1130116E+00
         25   -1    0    0    0    0  0.00000000000E+00  0.00000000000E+00  0.99999998245E-14  0.12500000000E+03  0.12500000000E+03 0.  0.
        -13    1    3    3    0    0 -0.25518045851E+02 -0.23633445954E+02  0.10677863349E+01  0.34797439036E+02  0.10566000000E+00 0.  1.
         23    2    1    0    0    0  0.96574339911E+01  0.26850765496E+02  0.26020974825E+01  0.96346892833E+02  0.91987625299E+02 0.  0.
         13    1    3    3    0    0  0.35175479843E+02  0.50484211451E+02  0.15343111476E+01  0.61549453797E+02  0.10566000000E+00 0. -1.
         22    1    1    0    0    0 -0.96574339911E+01 -0.26850765496E+02 -0.26020974825E+01  0.28653107167E+02  0.00000000000E+00 0. -1.
</event>
<event>
 5    1  0.1758488E-003  0.9118800E+02  0.7818608E-02  0.1130116E+00
         25   -1    0    0    0    0  0.00000000000E+00  0.00000000000E+00  0.99999998245E-14  0.12500000000E+03  0.12500000000E+03 0.  0.
        -13    1    3    3    0    0 -0.20969004433E+02 -0.38648001949E+02 -0.23040640861E+02  0.49641207649E+02  0.10566000000E+00 0. -1.
         23    2    1    0    0    0 -0.32570196217E+01 -0.14735050681E+02 -0.38838430793E+02  0.83332823447E+02  0.72167900495E+02 0.  0.
         13    1    3    3    0    0  0.17711984811E+02  0.23912951268E+02 -0.15797789932E+02  0.33691615798E+02  0.10566000000E+00 0.  1.
         22    1    1    0    0    0  0.32570196217E+01  0.14735050681E+02  0.38838430793E+02  0.41667176553E+02  0.00000000000E+00 0. -1.
</event>
<event>
 5    1  0.1758488E-003  0.9118800E+02  0.7818608E-02  0.1130116E+00
         25   -1    0    0    0    0  0.00000000000E+00  0.00000000000E+00  0.99999998245E-14  0.12500000000E+03  0.12500000000E+03 0.  0.
        -13    1    3    3    0    0 -0.31340429115E+02 -0.10580737480E+02 -0.14608054377E+02  0.36160488375E+02  0.10566000000E+00 0.  1.
         23    2    1    0    0    0  0.31925782666E+01  0.91225760799E+01  0.28560460236E+02  0.94848485291E+02  0.89928423331E+02 0.  0.
         13    1    3    3    0    0  0.34533007382E+02  0.19703313560E+02  0.43168514614E+02  0.58687996917E+02  0.10566000000E+00 0. -1.
         22    1    1    0    0    0 -0.31925782666E+01 -0.91225760799E+01 -0.28560460236E+02  0.30151514709E+02  0.00000000000E+00 0. -1.
</event>
<event>
 5    1  0.1758488E-003  0.9118800E+02  0.7818608E-02  0.1130116E+00
         25   -1    0    0    0    0  0.00000000000E+00  0.00000000000E+00  0.99999998245E-14  0.12500000000E+03  0.12500000000E+03 0.  0.
        -13    1    3    3    0    0 -0.69690788615E+01 -0.85646494551E+01 -0.36564492817E+02  0.38195478521E+02  0.10566000000E+00 0.  1.
         23    2    1    0    0    0  0.79697309910E+01  0.27695935734E+02  0.54502377156E+01  0.95669358013E+02  0.91062283648E+02 0.  0.
         13    1    3    3    0    0  0.14938809852E+02  0.36260585189E+02  0.42014730533E+02  0.57473879491E+02  0.10566000000E+00 0. -1.
         22    1    1    0    0    0 -0.79697309910E+01 -0.27695935734E+02 -0.54502377156E+01  0.29330641987E+02  0.00000000000E+00 0. -1.
</event>
<event>
 5    1  0.1758488E-003  0.9118800E+02  0.7818608E-02  0.1130116E+00
         25   -1    0    0    0    0  0.00000000000E+00  0.00000000000E+00  0.99999998245E-14  0.12500000000E+03  0.12500000000E+03 0.  0.
        -13    1    3    3    0    0  0.33438335012E+02 -0.76259555970E+01  0.92137075637E+01  0.35513110512E+02  0.10566000000E+00 0.  1.
         23    2    1    0    0    0 -0.15966113103E+02  0.23489585660E+01 -0.24148099203E+02  0.95955808341E+02  0.91454644963E+02 0.  0.
         13    1    3    3    0    0 -0.49404448115E+02  0.99749141630E+01 -0.33361806767E+02  0.60442697829E+02  0.10566000000E+00 0. -1.
         22    1    1    0    0    0  0.15966113103E+02 -0.23489585660E+01  0.24148099203E+02  0.29044191659E+02  0.00000000000E+00 0. -1.
</event>
<event>
 5    1  0.1758488E-003  0.9118800E+02  0.7818608E-02  0.1130116E+00
         25   -1    0    0    0    0  0.00000000000E+00  0.00000000000E+00  0.99999998245E-14  0.12500000000E+03  0.12500000000E+03 0.  0.
        -13    1    3    3    0    0 -0.28678964561E+02 -0.42072779067E+02  0.40971700223E+01  0.51082283748E+02  0.10566000000E+00 0. -1.
         23    2    1    0    0    0 -0.16751564229E+02 -0.82301715690E+01 -0.22513680051E+02  0.95755916537E+02  0.91181023981E+02 0.  0.
         13    1    3    3    0    0  0.11927400332E+02  0.33842607498E+02 -0.26610850073E+02  0.44673632789E+02  0.10566000000E+00 0.  1.
         22    1    1    0    0    0  0.16751564229E+02  0.82301715690E+01  0.22513680051E+02  0.29244083463E+02  0.00000000000E+00 0. -1.
</event>
<event>
 5    1  0.1758488E-003  0.9118800E+02  0.7818608E-02  0.1130116E+00
         25   -1    0    0    0    0  0.00000000000E+00  0.00000000000E+00  0.99999998245E-14  0.12500000000E+03  0.12500000000E+03 0.  0.
        -13    1    3    3    0    0  0.15053174512E+01  0.77194296928E+01 -0.43664671675E+02  0.44367446308E+02  0.10566000000E+00 0. -1.
         23    2    1    0    0    0  0.29501561276E+02  0.11510385988E+02 -0.39770916688E+01  0.93083728892E+02  0.87441021397E+02 0.  0.
         13    1    3    3    0    0  0.27996243825E+02  0.37909562950E+01  0.39687580006E+02  0.48716282583E+02  0.10566000000E+00 0.  1.
         22    1    1    0    0    0 -0.29501561276E+02 -0.11510385988E+02  0.39770916688E+01  0.31916271108E+02  0.00000000000E+00 0.  1.
</event>
<event>
 5    1  0.1758488E-003  0.9118800E+02  0.7818608E-02  0.1130116E+00
         25   -1    0    0    0    0  0.00000000000E+00  0.00000000000E+00  0.99999998245E-14  0.12500000000E+03  0.12500000000E+03 0.  0.
        -13    1    3    3    0    0 -0.13871914210E+02  0.43655807983E+02  0.50689125565E+01  0.46086490570E+02  0.10566000000E+00 0.  1.
         23    2    1    0    0    0 -0.30252495820E+02 -0.19034912321E+01  0.10137806597E+01  0.94670731406E+02  0.89681006080E+02 0.  0.
         13    1    3    3    0    0 -0.16380581610E+02 -0.45559299215E+02 -0.40551318968E+01  0.48584240836E+02  0.10566000000E+00 0. -1.
         22    1    1    0    0    0  0.30252495820E+02  0.19034912321E+01 -0.10137806597E+01  0.30329268594E+02  0.00000000000E+00 0.  1.
</event>
<event>
 5    1  0.1758488E-003  0.9118800E+02  0.7818608E-02  0.1130116E+00
         25   -1    0    0    0    0  0.00000000000E+00  0.00000000000E+00  0.99999998245E-14  0.12500000000E+03  0.12500000000E+03 0.  0.
        -13    1    3    3    0    0  0.31057939404E+02  0.15327913778E+02  0.15309032678E+02  0.37867112200E+02  0.10566000000E+00 0. -1.
         23    2    1    0    0    0 -0.22219954529E+02 -0.60311195112E+01  0.18658762855E+02  0.95364713379E+02  0.90643137328E+02 0.  0.
         13    1    3    3    0    0 -0.53277893933E+02 -0.21359033289E+02  0.33497301769E+01  0.57497601178E+02  0.10566000000E+00 0.  1.
         22    1    1    0    0    0  0.22219954529E+02  0.60311195112E+01 -0.18658762855E+02  0.29635286621E+02  0.00000000000E+00 0. -1.
</event>
<event>
 5    1  0.1758488E-003  0.9118800E+02  0.7818608E-02  0.1130116E+00
         25   -1    0    0    0    0  0.00000000000E+00  0.00000000000E+00  0.99999998245E-14  0.12500000000E+03  0.12500000000E+03 0.  0.
        -13    1    3    3    0    0  0.29768609040E+02  0.45094052934E+02 -0.12935680924E+02  0.55560657836E+02  0.10566000000E+00 0. -1.
         23    2    1    0    0    0 -0.59271789251E+01  0.26199634298E+02  0.52595184471E+00  0.98133126109E+02  0.94383693121E+02 0.  0.
         13    1    3    3    0    0 -0.35695787965E+02 -0.18894418636E+02  0.13461632768E+02  0.42572468273E+02  0.10566000000E+00 0.  1.
         22    1    1    0    0    0  0.59271789251E+01 -0.26199634298E+02 -0.52595184471E+00  0.26866873891E+02  0.00000000000E+00 0. -1.
</event>
<event>
 5    1  0.1758488E-003  0.9118800E+02  0.7818608E-02  0.1130116E+00
         25   -1    0    0    0    0  0.00000000000E+00  0.00000000000E+00  0.99999998245E-14  0.12500000000E+03  0.12500000000E+03 0.  0.
        -13    1    3    3    0    0 -0.49783629841E+02 -0.23814961830E+02 -0.25636853443E+02  0.60850814502E+02  0.10566000000E+00 0. -1.
         23    2    1    0    0    0 -0.13234255350E+02 -0.16375837608E+02 -0.13109801906E+02  0.10019716794E+03  0.97078792667E+02 0.  0.
         13    1    3    3    0    0  0.36549374491E+02  0.74391242220E+01  0.12527051537E+02  0.39346353441E+02  0.10566000000E+00 0.  1.
         22    1    1    0    0    0  0.13234255350E+02  0.16375837608E+02  0.13109801906E+02  0.24802832057E+02  0.00000000000E+00 0. -1.
</event>
<event>
 5    1  0.1758488E-003  0.9118800E+02  0.7818608E-02  0.1130116E+00
         25   -1    0    0    0    0  0.00000000000E+00  0.00000000000E+00  0.99999998245E-14  0.12500000000E+03  0.12500000000E+03 0.  0.
        -13    1    3    3    0    0 -0.52460738947E+01  0.41304897340E+01  0.32593131195E+02  0.33270190891E+02  0.10566000000E+00 0. -1.
         23    2    1    0    0    0  0.17449175358E+02 -0.41615900667E+01 -0.24134204488E+02  0.94929210538E+02  0.90040561052E+02 0.  0.
         13    1    3    3    0    0  0.22695249253E+02 -0.82920798007E+01 -0.56727335684E+02  0.61659019648E+02  0.10566000000E+00 0.  1.
         22    1    1    0    0    0 -0.17449175358E+02  0.41615900667E+01  0.24134204488E+02  0.30070789462E+02  0.00000000000E+00 0.  1.
</event>
<event>
 5    1  0.1758488E-003  0.9118800E+02  0.7818608E-02  0.1130116E+00
         25   -1    0    0    0    0  0.00000000000E+00  0.00000000000E+00  0.99999998245E-14  0.12500000000E+03  0.12500000000E+03 0.  0.
        -13    1    3    3    0    0 -0.39413969669E+02 -0.24057719519E+02 -0.24490178515E+02  0.52268679735E+02  0.10566000000E+00 0.  1.
         23    2    1    0    0    0 -0.22190394495E+02 -0.46506393453E+01  0.13751897939E+02  0.98482897008E+02  0.94845791958E+02 0.  0.
         13    1    3    3    0    0  0.17223575175E+02  0.19407080174E+02  0.38242076454E+02  0.46214217273E+02  0.10566000000E+00 0. -1.
         22    1    1    0    0    0  0.22190394495E+02  0.46506393453E+01 -0.13751897939E+02  0.26517102992E+02  0.00000000000E+00 0.  1.
</event>
<event>
 5    1  0.1758488E-003  0.9118800E+02  0.7818608E-02  0.1130116E+00
         25   -1    0    0    0    0  0.00000000000E+00  0.00000000000E+00  0.99999998245E-14  0.12500000000E+03  0.12500000000E+03 0.  0.
        -13    1    3    3    0    0 -0.20599181803E+02  0.32048062385E+02 -0.13739767841E+02  0.40499345402E+02  0.10566000000E+00 0.  1.
         23    2    1    0    0    0 -0.21851657304E+02 -0.13824173602E+02  0.15443054909E+02  0.94882054392E+02  0.89975072092E+02 0.  0.
         13    1    3    3    0    0 -0.12524755009E+01 -0.45872235988E+02  0.29182822751E+02  0.54382708990E+02  0.10566000000E+00 0. -1.
         22    1    1    0    0    0  0.21851657304E+02  0.13824173602E+02 -0.15443054909E+02  0.30117945608E+02  0.00000000000E+00 0. -1.
</event>
<event>
 5    1  0.1758488E-003  0.9118800E+02  0.7818608E-02  0.1130116E+00
         25   -1    0    0    0    0  0.00000000000E+00  0.00000000000E+00  0.99999998245E-14  0.12500000000E+03  0.12500000000E+03 0.  0.
        -13    1    3    3    0    0  0.27300768178E+02  0.14899047929E+02 -0.14706401308E+02  0.34403531444E+02  0.10566000000E+00 0. -1.
         23    2    1    0    0    0 -0.12116369188E+02 -0.14750485124E+02  0.21989875202E+02  0.95880628010E+02  0.91351830866E+02 0.  0.
         13    1    3    3    0    0 -0.39417137367E+02 -0.29649533053E+02  0.36696276510E+02  0.61477096566E+02  0.10566000000E+00 0.  1.
         22    1    1    0    0    0  0.12116369188E+02  0.14750485124E+02 -0.21989875202E+02  0.29119371990E+02  0.00000000000E+00 0.  1.
</event>
<event>
 5    1  0.1758488E-003  0.9118800E+02  0.7818608E-02  0.1130116E+00
         25   -1    0    0    0    0  0.00000000000E+00  0.00000000000E+00  0.99999998245E-14  0.12500000000E+03  0.12500000000E+03 0.  0.
        -13    1    3    3    0    0  0.15221184796E+02 -0.56423655023E+02 -0.85500464425E+01  0.59062913668E+02  0.10566000000E+00 0.  1.
         23    2    1    0    0    0 -0.37002082063E+01 -0.29507828664E+02  0.53566695309E+01  0.94782498421E+02  0.89836655132E+02 0.  0.
         13    1    3    3    0    0 -0.18921393002E+02  0.26915826359E+02  0.13906715973E+02  0.35719584753E+02  0.10566000000E+00 0. -1.
         22    1    1    0    0    0  0.37002082063E+01  0.29507828664E+02 -0.53566695309E+01  0.30217501579E+02  0.00000000000E+00 0.  1.
</event>
<event>
 5    1  0.1758488E-003  0.9118800E+02  0.7818608E-02  0.1130116E+00
         25   -1    0    0    0    0  0.00000000000E+00  0.00000000000E+00  0.99999998245E-14  0.12500000000E+03  0.12500000000E+03 0.  0.
        -13    1    3    3    0    0  0.54797857338E+02  0.43760331787E+01 -0.21471245383E+01  0.55014326707E+02  0.10566000000E+00 0.  1.
         23    2    1    0    0    0  0.18954305514E+02  0.21868522176E+02  0.52757091214E+01  0.95583489901E+02  0.90944337236E+02 0.  0.
         13    1    3    3    0    0 -0.35843551824E+02  0.17492488997E+02  0.74228336597E+01  0.40569163194E+02  0.10566000000E+00 0. -1.
         22    1    1    0    0    0 -0.18954305514E+02 -0.21868522176E+02 -0.52757091214E+01  0.29416510099E+02  0.00000000000E+00 0.  1.
</event>
<event>
 5    1  0.1758488E-003  0.9118800E+02  0.7818608E-02  0.1130116E+00
         25   -1    0    0    0    0  0.00000000000E+00  0.00000000000E+00  0.99999998245E-14  0.12500000000E+03  0.12500000000E+03 0.  0.
        -13    1    3    3    0    0 -0.18691250617E+02  0.51024663297E+02 -0.28979985041E+02  0.61585142780E+02  0.10566000000E+00 0.  1.
         23    2    1    0    0    0 -0.32903333790E+01  0.26304656940E+02 -0.86087802302E+01  0.97127569759E+02  0.93042422796E+02 0.  0.
         13    1    3    3    0    0  0.15400917238E+02 -0.24720006357E+02  0.20371204811E+02  0.35542426979E+02  0.10566000000E+00 0. -1.
         22    1    1    0    0    0  0.32903333790E+01 -0.26304656940E+02  0.86087802302E+01  0.27872430241E+02  0.00000000000E+00 0.  1.
</event>
<event>
 5    1  0.1758488E-003  0.9118800E+02  0.7818608E-02  0.1130116E+00
         25   -1    0    0    0    0  0.00000000000E+00  0.00000000000E+00  0.99999998245E-14  0.12500000000E+03  0.12500000000E+03 0.  0.
        -13    1    3    3    0    0  0.19877958879E+02 -0.36680399030E+02 -0.70995471363E+01  0.42320203872E+02  0.10566000000E+00 0.  1.
         23    2    1    0    0    0 -0.26588278624E+02 -0.96470786954E+01 -0.59830633681E+01  0.96089798776E+02  0.91637599783E+02 0.  0.
         13    1    3    3    0    0 -0.46466237503E+02  0.27033320335E+02  0.11164837682E+01  0.53769594903E+02  0.10566000000E+00 0. -1.
         22    1    1    0    0    0  0.26588278624E+02  0.96470786954E+01  0.59830633681E+01  0.28910201224E+02  0.00000000000E+00 0. -1.
</event>
<event>
 5    1  0.1758488E-003  0.9118800E+02  0.7818608E-02  0.1130116E+00
         25   -1    0    0    0    0  0.00000000000E+00  0.00000000000E+00  0.99999998245E-14  0.12500000000E+03  0.12500000000E+03 0.  0.
        -13    1    3    3    0    0  0.61077958955E+01  0.28333769583E+01  0.35710239559E+02  0.36339586804E+02  0.10566000000E+00 0.  1.
         23    2    1    0    0    0 -0.26007520413E+02 -0.38713366971E+01 -0.13468383227E+02  0.95457222328E+02  0.90770620698E+02 0.  0.
         13    1    3    3    0    0 -0.32115316308E+02 -0.67047136554E+01 -0.49178622786E+02  0.59117635524E+02  0.10566000000E+00 0. -1.
         22    1    1    0    0    0  0.26007520413E+02  0.38713366971E+01  0.13468383227E+02  0.29542777672E+02  0.00000000000E+00 0. -1.
</event>
<event>
 5    1  0.1758488E-003  0.9118800E+02  0.7818608E-02  0.1130116E+00
         25   -1    0    0    0    0  0.00000000000E+00  0.00000000000E+00  0.99999998245E-14  0.12500000000E+03  0.12500000000E+03 0.  0.
        -13    1    3    3    0    0 -0.23130967692E+02  0.43796403768E+02  0.17759987926E+02  0.52617439928E+02  0.10566000000E+00 0.  1.
         23    2    1    0    0    0 -0.28818721204E+02  0.29951435064E+01  0.72925424758E+01  0.95122403841E+02  0.90308365948E+02 0.  0.
         13    1    3    3    0    0 -0.56877535118E+01 -0.40801260262E+02 -0.10467445450E+02  0.42504963913E+02  0.10566000000E+00 0. -1.
         22    1    1    0    0    0  0.28818721204E+02 -0.29951435064E+01 -0.72925424758E+01  0.29877596159E+02  0.00000000000E+00 0.  1.
</event>
<event>
 5    1  0.1758488E-003  0.9118800E+02  0.7818608E-02  0.1130116E+00
         25   -1    0    0    0    0  0.00000000000E+00  0.00000000000E+00  0.99999998245E-14  0.12500000000E+03  0.12500000000E+03 0.  0.
        -13    1    3    3    0    0  0.32506976650E+02 -0.16773701323E+02  0.23636257934E+02  0.43551629592E+02  0.10566000000E+00 0.  1.
         23    2    1    0    0    0 -0.11515885989E+02  0.18834591779E+01  0.30952074573E+02  0.91921397113E+02  0.85763332948E+02 0.  0.
         13    1    3    3    0    0 -0.44022862639E+02  0.18657160500E+02  0.73158166390E+01  0.48369767521E+02  0.10566000000E+00 0. -1.
         22    1    1    0    0    0  0.11515885989E+02 -0.18834591779E+01 -0.30952074573E+02  0.33078602887E+02  0.00000000000E+00 0.  1.
</event>
<event>
 5    1  0.1758488E-003  0.9118800E+02  0.7818608E-02  0.1130116E+00
         25   -1    0    0    0    0  0.00000000000E+00  0.00000000000E+00  0.99999998245E-14  0.12500000000E+03  0.12500000000E+03 0.  0.
        -13    1    3    3    0    0  0.48283077299E+02  0.13896427509E+02 -0.25995336645E+02  0.56569735216E+02  0.10566000000E+00 0.  1.
         23    2    1    0    0    0  0.28317125545E+02  0.77496265803E+00  0.55420375045E+01  0.96135240414E+02  0.91699564358E+02 0.  0.
         13    1    3    3    0    0 -0.19965951754E+02 -0.13121464851E+02  0.31537374150E+02  0.39565505198E+02  0.10566000000E+00 0. -1.
         22    1    1    0    0    0 -0.28317125545E+02 -0.77496265803E+00 -0.55420375045E+01  0.28864759586E+02  0.00000000000E+00 0.  1.
</event>
<event>
 5    1  0.1758488E-003  0.9118800E+02  0.7818608E-02  0.1130116E+00
         25   -1    0    0    0    0  0.00000000000E+00  0.00000000000E+00  0.99999998245E-14  0.12500000000E+03  0.12500000000E+03 0.  0.
        -13    1    3    3    0    0  0.53983136973E+02  0.87620238034E+01  0.25265483917E+02  0.60243738099E+02  0.10566000000E+00 0. -1.
         23    2    1    0    0    0  0.26310778483E+02  0.12324111301E+02  0.32889055844E+01  0.95760340569E+02  0.91187088681E+02 0.  0.
         13    1    3    3    0    0 -0.27672358490E+02  0.35620874972E+01 -0.21976578332E+02  0.35516602470E+02  0.10566000000E+00 0.  1.
         22    1    1    0    0    0 -0.26310778483E+02 -0.12324111301E+02 -0.32889055844E+01  0.29239659431E+02  0.00000000000E+00 0. -1.
</event>
<event>
 5    1  0.1758488E-003  0.9118800E+02  0.7818608E-02  0.1130116E+00
         25   -1    0    0    0    0  0.00000000000E+00  0.00000000000E+00  0.99999998245E-14  0.12500000000E+03  0.12500000000E+03 0.  0.
        -13    1    3    3    0    0  0.36702650107E+02 -0.36939953420E+02  0.25889445969E+01  0.52137879528E+02  0.10566000000E+00 0. -1.
         23    2    1    0    0    0  0.10628414172E+02 -0.17342778874E+02  0.25781534542E+02  0.92160653322E+02  0.86111342635E+02 0.  0.
         13    1    3    3    0    0 -0.26074235935E+02  0.19597174545E+02  0.23192589945E+02  0.40022773794E+02  0.10566000000E+00 0.  1.
         22    1    1    0    0    0 -0.10628414172E+02  0.17342778874E+02 -0.25781534542E+02  0.32839346678E+02  0.00000000000E+00 0. -1.
</event>
<event>
 5    1  0.1758488E-003  0.9118800E+02  0.7818608E-02  0.1130116E+00
         25   -1    0    0    0    0  0.00000000000E+00  0.00000000000E+00  0.99999998245E-14  0.12500000000E+03  0.12500000000E+03 0.  0.
        -13    1    3    3    0    0  0.31767458388E+02 -0.20734372399E+02  0.41149027997E+02  0.55967305459E+02  0.10566000000E+00 0.  1.
         23    2    1    0    0    0  0.11842642893E+02 -0.26186643346E+02  0.77587681703E+01  0.95231107445E+02  0.90458702518E+02 0.  0.
         13    1    3    3    0    0 -0.19924815495E+02 -0.54522709474E+01 -0.33390259827E+02  0.39263801985E+02  0.10566000000E+00 0. -1.
         22    1    1    0    0    0 -0.11842642893E+02  0.26186643346E+02 -0.77587681703E+01  0.29768892555E+02  0.00000000000E+00 0. -1.
</event>
<event>
 5    1  0.1758488E-003  0.9118800E+02  0.7818608E-02  0.1130116E+00
         25   -1    0    0    0    0  0.00000000000E+00  0.00000000000E+00  0.99999998245E-14  0.12500000000E+03  0.12500000000E+03 0.  0.
        -13    1    3    3    0    0  0.68907255949E+01 -0.11259881440E+02  0.39441068672E+02  0.41591779131E+02  0.10566000000E+00 0. -1.
         23    2    1    0    0    0 -0.16236470139E+02 -0.14829998620E+02 -0.13306672706E+02  0.99297483388E+02  0.95913350724E+02 0.  0.
         13    1    3    3    0    0 -0.23127195734E+02 -0.35701171804E+01 -0.52747741379E+02  0.57705704257E+02  0.10566000000E+00 0.  1.
         22    1    1    0    0    0  0.16236470139E+02  0.14829998620E+02  0.13306672706E+02  0.25702516612E+02  0.00000000000E+00 0.  1.
</event>
<event>
 5    1  0.1758488E-003  0.9118800E+02  0.7818608E-02  0.1130116E+00
         25   -1    0    0    0    0  0.00000000000E+00  0.00000000000E+00  0.99999998245E-14  0.12500000000E+03  0.12500000000E+03 0.  0.
        -13    1    3    3    0    0 -0.15887374551E+02  0.42443375578E+02 -0.25017857653E+01  0.45388532656E+02  0.10566000000E+00 0.  1.
         23    2    1    0    0    0 -0.80476394219E+01 -0.54301737352E+01  0.22884896122E+02  0.10014100248E+03  0.97006446283E+02 0.  0.
         13    1    3    3    0    0  0.78397351290E+01 -0.47873549314E+02  0.25386681888E+02  0.54752469826E+02  0.10566000000E+00 0. -1.
         22    1    1    0    0    0  0.80476394219E+01  0.54301737352E+01 -0.22884896122E+02  0.24858997518E+02  0.00000000000E+00 0. -1.
</event>
<event>
 5    1  0.1758488E-003  0.9118800E+02  0.7818608E-02  0.1130116E+00
         25   -1    0    0    0    0  0.00000000000E+00  0.00000000000E+00  0.99999998245E-14  0.12500000000E+03  0.12500000000E+03 0.  0.
        -13    1    3    3    0    0  0.27904982128E+02 -0.27047798275E+01 -0.52513803215E+02  0.59529106776E+02  0.10566000000E+00 0.  1.
         23    2    1    0    0    0  0.13743901165E+02  0.12241608552E+02 -0.22411143000E+02  0.95999808109E+02  0.91514763985E+02 0.  0.
         13    1    3    3    0    0 -0.14161080963E+02  0.14946388380E+02  0.30102660215E+02  0.36470701332E+02  0.10566000000E+00 0. -1.
         22    1    1    0    0    0 -0.13743901165E+02 -0.12241608552E+02  0.22411143000E+02  0.29000191891E+02  0.00000000000E+00 0.  1.
</event>
<event>
 5    1  0.1758488E-003  0.9118800E+02  0.7818608E-02  0.1130116E+00
         25   -1    0    0    0    0  0.00000000000E+00  0.00000000000E+00  0.99999998245E-14  0.12500000000E+03  0.12500000000E+03 0.  0.
        -13    1    3    3    0    0 -0.79405614983E+01  0.36293332480E+02 -0.15002126625E+01  0.37182257886E+02  0.10566000000E+00 0. -1.
         23    2    1    0    0    0 -0.12837843784E+02 -0.20889920313E+02 -0.15152615912E+02  0.96176385156E+02  0.91755633555E+02 0.  0.
         13    1    3    3    0    0 -0.48972822858E+01 -0.57183252793E+02 -0.13652403249E+02  0.58994127270E+02  0.10566000000E+00 0.  1.
         22    1    1    0    0    0  0.12837843784E+02  0.20889920313E+02  0.15152615912E+02  0.28823614844E+02  0.00000000000E+00 0.  1.
</event>
<event>
 5    1  0.1758488E-003  0.9118800E+02  0.7818608E-02  0.1130116E+00
         25   -1    0    0    0    0  0.00000000000E+00  0.00000000000E+00  0.99999998245E-14  0.12500000000E+03  0.12500000000E+03 0.  0.
        -13    1    3    3    0    0 -0.13641760202E+02 -0.12793068756E+02 -0.28240346401E+02  0.33871648299E+02  0.10566000000E+00 0. -1.
         23    2    1    0    0    0  0.13829096089E+02  0.24103747082E+02  0.11754087796E+02  0.94827278844E+02  0.89898941657E+02 0.  0.
         13    1    3    3    0    0  0.27470856292E+02  0.36896815838E+02  0.39994434197E+02  0.60955630545E+02  0.10566000000E+00 0.  1.
         22    1    1    0    0    0 -0.13829096089E+02 -0.24103747082E+02 -0.11754087796E+02  0.30172721156E+02  0.00000000000E+00 0.  1.
</event>
<event>
 5    1  0.1758488E-003  0.9118800E+02  0.7818608E-02  0.1130116E+00
         25   -1    0    0    0    0  0.00000000000E+00  0.00000000000E+00  0.99999998245E-14  0.12500000000E+03  0.12500000000E+03 0.  0.
        -13    1    3    3    0    0  0.13742226152E+02  0.22382567751E+02 -0.25627785096E+02  0.36696357472E+02  0.10566000000E+00 0.  1.
         23    2    1    0    0    0  0.10044794621E+02 -0.13600136183E+02  0.22470918009E+02  0.96878766753E+02  0.92707560038E+02 0.  0.
         13    1    3    3    0    0 -0.36974315311E+01 -0.35982703934E+02  0.48098703105E+02  0.60182409281E+02  0.10566000000E+00 0. -1.
         22    1    1    0    0    0 -0.10044794621E+02  0.13600136183E+02 -0.22470918009E+02  0.28121233247E+02  0.00000000000E+00 0. -1.
</event>
<event>
 5    1  0.1758488E-003  0.9118800E+02  0.7818608E-02  0.1130116E+00
         25   -1    0    0    0    0  0.00000000000E+00  0.00000000000E+00  0.99999998245E-14  0.12500000000E+03  0.12500000000E+03 0.  0.
        -13    1    3    3    0    0  0.84265309825E+01  0.24901346588E+02 -0.21541972838E+02  0.33987516004E+02  0.10566000000E+00 0. -1.
         23    2    1    0    0    0  0.12534253805E+02 -0.21588152704E+02  0.17234779104E+02  0.94665309193E+02  0.89673448123E+02 0.  0.
         13    1    3    3    0    0  0.41077228222E+01 -0.46489499292E+02  0.38776751941E+02  0.60677793190E+02  0.10566000000E+00 0.  1.
         22    1    1    0    0    0 -0.12534253805E+02  0.21588152704E+02 -0.17234779104E+02  0.30334690807E+02  0.00000000000E+00 0.  1.
</event>
<event>
 5    1  0.1758488E-003  0.9118800E+02  0.7818608E-02  0.1130116E+00
         25   -1    0    0    0    0  0.00000000000E+00  0.00000000000E+00  0.99999998245E-14  0.12500000000E+03  0.12500000000E+03 0.  0.
        -13    1    3    3    0    0  0.11854702455E+02 -0.17050252112E+02  0.33337594138E+02  0.39276601359E+02  0.10566000000E+00 0.  1.
         23    2    1    0    0    0 -0.16739968242E+02  0.23110427463E+02  0.53528811642E+01  0.95966024540E+02  0.91468607374E+02 0.  0.
         13    1    3    3    0    0 -0.28594670697E+02  0.40160679575E+02 -0.27984712974E+02  0.56689423180E+02  0.10566000000E+00 0. -1.
         22    1    1    0    0    0  0.16739968242E+02 -0.23110427463E+02 -0.53528811642E+01  0.29033975460E+02  0.00000000000E+00 0. -1.
</event>
<event>
 5    1  0.1758488E-003  0.9118800E+02  0.7818608E-02  0.1130116E+00
         25   -1    0    0    0    0  0.00000000000E+00  0.00000000000E+00  0.99999998245E-14  0.12500000000E+03  0.12500000000E+03 0.  0.
        -13    1    3    3    0    0  0.29244044942E+02  0.33467681026E+02  0.57209797206E+01  0.44811166140E+02  0.10566000000E+00 0. -1.
         23    2    1    0    0    0 -0.59357270771E+01  0.27204898247E+01  0.27768185900E+02  0.96474466368E+02  0.92160819181E+02 0.  0.
         13    1    3    3    0    0 -0.35179772019E+02 -0.30747191202E+02  0.22047206179E+02  0.51663300228E+02  0.10566000000E+00 0.  1.
         22    1    1    0    0    0  0.59357270771E+01 -0.27204898247E+01 -0.27768185900E+02  0.28525533632E+02  0.00000000000E+00 0.  1.
</event>
<event>
 5    1  0.1758488E-003  0.9118800E+02  0.7818608E-02  0.1130116E+00
         25   -1    0    0    0    0  0.00000000000E+00  0.00000000000E+00  0.99999998245E-14  0.12500000000E+03  0.12500000000E+03 0.  0.
        -13    1    3    3    0    0 -0.28139840281E+02  0.39008259833E+02 -0.23046226130E+02  0.53335116472E+02  0.10566000000E+00 0.  1.
         23    2    1    0    0    0 -0.28730414524E+02  0.21278447532E+02  0.73226322305E+01  0.88505754004E+02  0.80631498193E+02 0.  0.
         13    1    3    3    0    0 -0.59057424281E+00 -0.17729812302E+02  0.30368858361E+02  0.35170637531E+02  0.10566000000E+00 0. -1.
         22    1    1    0    0    0  0.28730414524E+02 -0.21278447532E+02 -0.73226322305E+01  0.36494245996E+02  0.00000000000E+00 0.  1.
</event>
<event>
 5    1  0.1758488E-003  0.9118800E+02  0.7818608E-02  0.1130116E+00
         25   -1    0    0    0    0  0.00000000000E+00  0.00000000000E+00  0.99999998245E-14  0.12500000000E+03  0.12500000000E+03 0.  0.
        -13    1    3    3    0    0  0.23371836413E+01  0.10177469260E+02  0.35839163614E+02  0.37329614523E+02  0.10566000000E+00 0.  1.
         23    2    1    0    0    0 -0.24915200407E+02 -0.11205836527E+02 -0.10968535130E+02  0.95561135441E+02  0.90913606574E+02 0.  0.
         13    1    3    3    0    0 -0.27252384048E+02 -0.21383305787E+02 -0.46807698744E+02  0.58231520918E+02  0.10566000000E+00 0. -1.
         22    1    1    0    0    0  0.24915200407E+02  0.11205836527E+02  0.10968535130E+02  0.29438864559E+02  0.00000000000E+00 0. -1.
</event>
<event>
 5    1  0.1758488E-003  0.9118800E+02  0.7818608E-02  0.1130116E+00
         25   -1    0    0    0    0  0.00000000000E+00  0.00000000000E+00  0.99999998245E-14  0.12500000000E+03  0.12500000000E+03 0.  0.
        -13    1    3    3    0    0  0.36123398050E+01  0.51030208520E+01 -0.42440701046E+02  0.42898882153E+02  0.10566000000E+00 0.  1.
         23    2    1    0    0    0 -0.17044144055E+02 -0.23616657244E+02 -0.32508146456E+01  0.95694417907E+02  0.91096676541E+02 0.  0.
         13    1    3    3    0    0 -0.20656483860E+02 -0.28719678096E+02  0.39189886401E+02  0.52795535754E+02  0.10566000000E+00 0. -1.
         22    1    1    0    0    0  0.17044144055E+02  0.23616657244E+02  0.32508146456E+01  0.29305582093E+02  0.00000000000E+00 0. -1.
</event>
<event>
 5    1  0.1758488E-003  0.9118800E+02  0.7818608E-02  0.1130116E+00
         25   -1    0    0    0    0  0.00000000000E+00  0.00000000000E+00  0.99999998245E-14  0.12500000000E+03  0.12500000000E+03 0.  0.
        -13    1    3    3    0    0  0.44428848452E+02 -0.64711211020E+01 -0.30500498927E+02  0.54277892202E+02  0.10566000000E+00 0.  1.
         23    2    1    0    0    0  0.65340108085E+01 -0.16951868520E+02 -0.25174533976E+02  0.93954608966E+02  0.88677236321E+02 0.  0.
         13    1    3    3    0    0 -0.37894837644E+02 -0.10480747418E+02  0.53259649512E+01  0.39676716764E+02  0.10566000000E+00 0. -1.
         22    1    1    0    0    0 -0.65340108085E+01  0.16951868520E+02  0.25174533976E+02  0.31045391034E+02  0.00000000000E+00 0.  1.
</event>
<event>
 5    1  0.1758488E-003  0.9118800E+02  0.7818608E-02  0.1130116E+00
         25   -1    0    0    0    0  0.00000000000E+00  0.00000000000E+00  0.99999998245E-14  0.12500000000E+03  0.12500000000E+03 0.  0.
        -13    1    3    3    0    0 -0.48857110709E+01  0.16209926157E+02 -0.49870304455E+02  0.52665836262E+02  0.10566000000E+00 0. -1.
         23    2    1    0    0    0  0.64111081493E+01  0.26384920351E+02 -0.88048800139E+01  0.96455434113E+02  0.92135001645E+02 0.  0.
         13    1    3    3    0    0  0.11296819220E+02  0.10174994195E+02  0.41065424441E+02  0.43789597851E+02  0.10566000000E+00 0.  1.
         22    1    1    0    0    0 -0.64111081493E+01 -0.26384920351E+02  0.88048800139E+01  0.28544565887E+02  0.00000000000E+00 0. -1.
</event>
<event>
 5    1  0.1758488E-003  0.9118800E+02  0.7818608E-02  0.1130116E+00
         25   -1    0    0    0    0  0.00000000000E+00  0.00000000000E+00  0.99999998245E-14  0.12500000000E+03  0.12500000000E+03 0.  0.
        -13    1    3    3    0    0 -0.14592414463E+02  0.48081474430E+02 -0.35801058371E+01  0.50374547790E+02  0.10566000000E+00 0.  1.
         23    2    1    0    0    0  0.15490910133E+02  0.16361828509E+02 -0.17735069312E+02  0.96325788373E+02  0.91958942433E+02 0.  0.
         13    1    3    3    0    0  0.30083324597E+02 -0.31719645921E+02 -0.14154963475E+02  0.45951240583E+02  0.10566000000E+00 0. -1.
         22    1    1    0    0    0 -0.15490910133E+02 -0.16361828509E+02  0.17735069312E+02  0.28674211627E+02  0.00000000000E+00 0.  1.
</event>
<event>
 5    1  0.1758488E-003  0.9118800E+02  0.7818608E-02  0.1130116E+00
         25   -1    0    0    0    0  0.00000000000E+00  0.00000000000E+00  0.99999998245E-14  0.12500000000E+03  0.12500000000E+03 0.  0.
        -13    1    3    3    0    0  0.31616627963E+02 -0.58030824132E+01 -0.35090048103E+02  0.47587914108E+02  0.10566000000E+00 0.  1.
         23    2    1    0    0    0 -0.14905929414E+02 -0.76963393513E+01 -0.24448271081E+02  0.95349733054E+02  0.90622476591E+02 0.  0.
         13    1    3    3    0    0 -0.46522557378E+02 -0.18932569381E+01  0.10641777021E+02  0.47761818946E+02  0.10566000000E+00 0. -1.
         22    1    1    0    0    0  0.14905929414E+02  0.76963393513E+01  0.24448271081E+02  0.29650266946E+02  0.00000000000E+00 0.  1.
</event>
<event>
 5    1  0.1758488E-003  0.9118800E+02  0.7818608E-02  0.1130116E+00
         25   -1    0    0    0    0  0.00000000000E+00  0.00000000000E+00  0.99999998245E-14  0.12500000000E+03  0.12500000000E+03 0.  0.
        -13    1    3    3    0    0 -0.24753888255E+02  0.27426086658E+02 -0.19524258161E+02  0.41786995990E+02  0.10566000000E+00 0.  1.
         23    2    1    0    0    0 -0.78388200819E+01 -0.23094501346E+02 -0.17277629146E+02  0.95111548023E+02  0.90293338656E+02 0.  0.
         13    1    3    3    0    0  0.16915068173E+02 -0.50520588003E+02  0.22466290146E+01  0.53324552033E+02  0.10566000000E+00 0. -1.
         22    1    1    0    0    0  0.78388200819E+01  0.23094501346E+02  0.17277629146E+02  0.29888451977E+02  0.00000000000E+00 0. -1.
</event>
<event>
 5    1  0.1758488E-003  0.9118800E+02  0.7818608E-02  0.1130116E+00
         25   -1    0    0    0    0  0.00000000000E+00  0.00000000000E+00  0.99999998245E-14  0.12500000000E+03  0.12500000000E+03 0.  0.
        -13    1    3    3    0    0  0.53210591046E+02 -0.76090806916E+00  0.21481917659E+02  0.57388412862E+02  0.10566000000E+00 0. -1.
         23    2    1    0    0    0  0.18248241931E+02  0.92301760325E+01  0.23551328868E+02  0.93809303075E+02  0.88472175111E+02 0.  0.
         13    1    3    3    0    0 -0.34962349114E+02  0.99910841017E+01  0.20694112093E+01  0.36420890213E+02  0.10566000000E+00 0.  1.
         22    1    1    0    0    0 -0.18248241931E+02 -0.92301760325E+01 -0.23551328868E+02  0.31190696925E+02  0.00000000000E+00 0. -1.
</event>
<event>
 5    1  0.1758488E-003  0.9118800E+02  0.7818608E-02  0.1130116E+00
         25   -1    0    0    0    0  0.00000000000E+00  0.00000000000E+00  0.99999998245E-14  0.12500000000E+03  0.12500000000E+03 0.  0.
        -13    1    3    3    0    0 -0.89513202703E+01 -0.36609202523E+02  0.17075751616E+02  0.41375745325E+02  0.10566000000E+00 0.  1.
         23    2    1    0    0    0 -0.22453851314E+02  0.15392972035E+02  0.11693528249E+02  0.95371337698E+02  0.90652272031E+02 0.  0.
         13    1    3    3    0    0 -0.13502531044E+02  0.52002174557E+02 -0.53822233671E+01  0.53995592373E+02  0.10566000000E+00 0. -1.
         22    1    1    0    0    0  0.22453851314E+02 -0.15392972035E+02 -0.11693528249E+02  0.29628662302E+02  0.00000000000E+00 0. -1.
</event>
<event>
 5    1  0.1758488E-003  0.9118800E+02  0.7818608E-02  0.1130116E+00
         25   -1    0    0    0    0  0.00000000000E+00  0.00000000000E+00  0.99999998245E-14  0.12500000000E+03  0.12500000000E+03 0.  0.
        -13    1    3    3    0    0 -0.34359868163E+01  0.30818341837E+02  0.49455434665E+02  0.58373173469E+02  0.10566000000E+00 0.  1.
         23    2    1    0    0    0  0.14428384286E+02  0.14149707748E+02  0.21932475916E+02  0.95176753995E+02  0.90383563212E+02 0.  0.
         13    1    3    3    0    0  0.17864371102E+02 -0.16668634088E+02 -0.27522958749E+02  0.36803580526E+02  0.10566000000E+00 0. -1.
         22    1    1    0    0    0 -0.14428384286E+02 -0.14149707748E+02 -0.21932475916E+02  0.29823246005E+02  0.00000000000E+00 0.  1.
</event>
<event>
 5    1  0.1758488E-003  0.9118800E+02  0.7818608E-02  0.1130116E+00
         25   -1    0    0    0    0  0.00000000000E+00  0.00000000000E+00  0.99999998245E-14  0.12500000000E+03  0.12500000000E+03 0.  0.
        -13    1    3    3    0    0  0.58002296977E+01  0.56252997216E+02 -0.18951699145E+02  0.59642438120E+02  0.10566000000E+00 0.  1.
         23    2    1    0    0    0 -0.26696765843E+01  0.27605033014E+02  0.35460896479E+01  0.97040390336E+02  0.92925225768E+02 0.  0.
         13    1    3    3    0    0 -0.84699062820E+01 -0.28647964202E+02  0.22497788793E+02  0.37397952216E+02  0.10566000000E+00 0. -1.
         22    1    1    0    0    0  0.26696765843E+01 -0.27605033014E+02 -0.35460896479E+01  0.27959609664E+02  0.00000000000E+00 0.  1.
</event>
<event>
 5    1  0.1758488E-003  0.9118800E+02  0.7818608E-02  0.1130116E+00
         25   -1    0    0    0    0  0.00000000000E+00  0.00000000000E+00  0.99999998245E-14  0.12500000000E+03  0.12500000000E+03 0.  0.
        -13    1    3    3    0    0 -0.17011038307E+02 -0.38987984901E+02 -0.63195040748E+01  0.43004484495E+02  0.10566000000E+00 0.  1.
         23    2    1    0    0    0 -0.28695292932E+02  0.59827212409E+01 -0.17588809770E+02  0.90815514937E+02  0.84136072729E+02 0.  0.
         13    1    3    3    0    0 -0.11684254625E+02  0.44970706142E+02 -0.11269305695E+02  0.47811030442E+02  0.10566000000E+00 0. -1.
         22    1    1    0    0    0  0.28695292932E+02 -0.59827212409E+01  0.17588809770E+02  0.34184485063E+02  0.00000000000E+00 0. -1.
</event>
<event>
 5    1  0.1758488E-003  0.9118800E+02  0.7818608E-02  0.1130116E+00
         25   -1    0    0    0    0  0.00000000000E+00  0.00000000000E+00  0.99999998245E-14  0.12500000000E+03  0.12500000000E+03 0.  0.
        -13    1    3    3    0    0  0.75697551533E+01  0.16659907283E+02  0.33500314906E+02  0.38172450361E+02  0.10566000000E+00 0.  1.
         23    2    1    0    0    0 -0.24365788063E+02 -0.16828158057E+02 -0.14817187180E+00  0.95387494425E+02  0.90674547731E+02 0.  0.
         13    1    3    3    0    0 -0.31935543217E+02 -0.33488065340E+02 -0.33648486778E+02  0.57215044064E+02  0.10566000000E+00 0. -1.
         22    1    1    0    0    0  0.24365788063E+02  0.16828158057E+02  0.14817187180E+00  0.29612505575E+02  0.00000000000E+00 0. -1.
</event>
<event>
 5    1  0.1758488E-003  0.9118800E+02  0.7818608E-02  0.1130116E+00
         25   -1    0    0    0    0  0.00000000000E+00  0.00000000000E+00  0.99999998245E-14  0.12500000000E+03  0.12500000000E+03 0.  0.
        -13    1    3    3    0    0  0.10272424998E+02 -0.29509876519E+02 -0.22448166043E+02  0.38474496101E+02  0.10566000000E+00 0.  1.
         23    2    1    0    0    0 -0.31360981965E+02  0.18761875464E+01 -0.89882285449E+01  0.92322492110E+02  0.86345949688E+02 0.  0.
         13    1    3    3    0    0 -0.41633406962E+02  0.31386064065E+02  0.13459937498E+02  0.53847996010E+02  0.10566000000E+00 0. -1.
         22    1    1    0    0    0  0.31360981965E+02 -0.18761875464E+01  0.89882285449E+01  0.32677507890E+02  0.00000000000E+00 0. -1.
</event>
<event>
 5    1  0.1758488E-003  0.9118800E+02  0.7818608E-02  0.1130116E+00
         25   -1    0    0    0    0  0.00000000000E+00  0.00000000000E+00  0.99999998245E-14  0.12500000000E+03  0.12500000000E+03 0.  0.
        -13    1    3    3    0    0 -0.21680337217E+02 -0.24988560965E+01  0.31833047831E+02  0.38595795132E+02  0.10566000000E+00 0.  1.
         23    2    1    0    0    0  0.22094421332E+02 -0.17125862419E+02 -0.36434915509E+01  0.96808979297E+02  0.92613416005E+02 0.  0.
         13    1    3    3    0    0  0.43774758549E+02 -0.14627006323E+02 -0.35476539382E+02  0.58213184165E+02  0.10566000000E+00 0. -1.
         22    1    1    0    0    0 -0.22094421332E+02  0.17125862419E+02  0.36434915509E+01  0.28191020703E+02  0.00000000000E+00 0. -1.
</event>
<event>
 5    1  0.1758488E-003  0.9118800E+02  0.7818608E-02  0.1130116E+00
         25   -1    0    0    0    0  0.00000000000E+00  0.00000000000E+00  0.99999998245E-14  0.12500000000E+03  0.12500000000E+03 0.  0.
        -13    1    3    3    0    0 -0.12311162149E+02  0.87262392332E+01  0.45250426863E+02  0.47700359117E+02  0.10566000000E+00 0.  1.
         23    2    1    0    0    0  0.24506635436E+02 -0.13912852728E+00  0.14172929361E+02  0.96689816959E+02  0.92452443124E+02 0.  0.
         13    1    3    3    0    0  0.36817797586E+02 -0.88653677605E+01 -0.31077497501E+02  0.48989457841E+02  0.10566000000E+00 0. -1.
         22    1    1    0    0    0 -0.24506635436E+02  0.13912852728E+00 -0.14172929361E+02  0.28310183041E+02  0.00000000000E+00 0.  1.
</event>
<event>
 5    1  0.1758488E-003  0.9118800E+02  0.7818608E-02  0.1130116E+00
         25   -1    0    0    0    0  0.00000000000E+00  0.00000000000E+00  0.99999998245E-14  0.12500000000E+03  0.12500000000E+03 0.  0.
        -13    1    3    3    0    0 -0.30584196766E+02  0.97806160648E+01  0.72747879636E+01  0.32923961584E+02  0.10566000000E+00 0.  1.
         23    2    1    0    0    0  0.22966319808E+02 -0.35421645546E+01  0.24984655789E+02  0.90879158860E+02  0.84230574704E+02 0.  0.
         13    1    3    3    0    0  0.53550516574E+02 -0.13322780619E+02  0.17709867825E+02  0.57955197275E+02  0.10566000000E+00 0. -1.
         22    1    1    0    0    0 -0.22966319808E+02  0.35421645546E+01 -0.24984655789E+02  0.34120841140E+02  0.00000000000E+00 0. -1.
</event>
<event>
 5    1  0.1758488E-003  0.9118800E+02  0.7818608E-02  0.1130116E+00
         25   -1    0    0    0    0  0.00000000000E+00  0.00000000000E+00  0.99999998245E-14  0.12500000000E+03  0.12500000000E+03 0.  0.
        -13    1    3    3    0    0  0.75331181830E+01 -0.28704386137E+02 -0.18934251161E+02  0.35202367592E+02  0.10566000000E+00 0.  1.
         23    2    1    0    0    0 -0.45950324662E+01  0.61049552726E+01  0.28624035334E+02  0.95373656975E+02  0.90655470015E+02 0.  0.
         13    1    3    3    0    0 -0.12128150649E+02  0.34809341409E+02  0.47558286495E+02  0.60171289382E+02  0.10566000000E+00 0. -1.
         22    1    1    0    0    0  0.45950324662E+01 -0.61049552726E+01 -0.28624035334E+02  0.29626343025E+02  0.00000000000E+00 0. -1.
</event>
<event>
 5    1  0.1758488E-003  0.9118800E+02  0.7818608E-02  0.1130116E+00
         25   -1    0    0    0    0  0.00000000000E+00  0.00000000000E+00  0.99999998245E-14  0.12500000000E+03  0.12500000000E+03 0.  0.
        -13    1    3    3    0    0  0.87872700017E+01 -0.43193907161E+02  0.36866764158E+02  0.57463894694E+02  0.10566000000E+00 0.  1.
         23    2    1    0    0    0 -0.12601705017E+01 -0.40031534044E+01  0.25033380034E+02  0.99617262110E+02  0.96329203918E+02 0.  0.
         13    1    3    3    0    0 -0.10047440503E+02  0.39190753756E+02 -0.11833384124E+02  0.42153367416E+02  0.10566000000E+00 0. -1.
         22    1    1    0    0    0  0.12601705017E+01  0.40031534044E+01 -0.25033380034E+02  0.25382737890E+02  0.00000000000E+00 0.  1.
</event>
<event>
 5    1  0.1758488E-003  0.9118800E+02  0.7818608E-02  0.1130116E+00
         25   -1    0    0    0    0  0.00000000000E+00  0.00000000000E+00  0.99999998245E-14  0.12500000000E+03  0.12500000000E+03 0.  0.
        -13    1    3    3    0    0  0.33859125427E+02  0.22230902659E+02 -0.34640344893E+00  0.40506599057E+02  0.10566000000E+00 0.  1.
         23    2    1    0    0    0 -0.13496186354E+02  0.61931625949E+01 -0.24746362987E+02  0.96140256583E+02  0.91706401880E+02 0.  0.
         13    1    3    3    0    0 -0.47355311782E+02 -0.16037740064E+02 -0.24399959538E+02  0.55633657526E+02  0.10566000000E+00 0. -1.
         22    1    1    0    0    0  0.13496186354E+02 -0.61931625949E+01  0.24746362987E+02  0.28859743417E+02  0.00000000000E+00 0. -1.
</event>
<event>
 5    1  0.1758488E-003  0.9118800E+02  0.7818608E-02  0.1130116E+00
         25   -1    0    0    0    0  0.00000000000E+00  0.00000000000E+00  0.99999998245E-14  0.12500000000E+03  0.12500000000E+03 0.  0.
        -13    1    3    3    0    0  0.32125450166E+02  0.89031093987E+01  0.89216513239E+01  0.34509664324E+02  0.10566000000E+00 0. -1.
         23    2    1    0    0    0 -0.10214026046E+02 -0.25893511459E+02 -0.13914273266E+02  0.93880757331E+02  0.88573073408E+02 0.  0.
         13    1    3    3    0    0 -0.42339476212E+02 -0.34796620858E+02 -0.22835924590E+02  0.59371093008E+02  0.10566000000E+00 0.  1.
         22    1    1    0    0    0  0.10214026046E+02  0.25893511459E+02  0.13914273266E+02  0.31119242669E+02  0.00000000000E+00 0.  1.
</event>
<event>
 5    1  0.1758488E-003  0.9118800E+02  0.7818608E-02  0.1130116E+00
         25   -1    0    0    0    0  0.00000000000E+00  0.00000000000E+00  0.99999998245E-14  0.12500000000E+03  0.12500000000E+03 0.  0.
        -13    1    3    3    0    0  0.14297571157E+02  0.52512641060E+02  0.25077948789E+01  0.54482090739E+02  0.10566000000E+00 0.  1.
         23    2    1    0    0    0 -0.15420957630E+02  0.25775726250E+02  0.50641268028E+01  0.94539544025E+02  0.89497966492E+02 0.  0.
         13    1    3    3    0    0 -0.29718528787E+02 -0.26736914810E+02  0.25563319239E+01  0.40057453286E+02  0.10566000000E+00 0. -1.
         22    1    1    0    0    0  0.15420957630E+02 -0.25775726250E+02 -0.50641268028E+01  0.30460455975E+02  0.00000000000E+00 0.  1.
</event>
<event>
 5    1  0.1758488E-003  0.9118800E+02  0.7818608E-02  0.1130116E+00
         25   -1    0    0    0    0  0.00000000000E+00  0.00000000000E+00  0.99999998245E-14  0.12500000000E+03  0.12500000000E+03 0.  0.
        -13    1    3    3    0    0  0.44101092189E+02 -0.19594800737E+02  0.26740794465E+02  0.55171947589E+02  0.10566000000E+00 0.  1.
         23    2    1    0    0    0  0.26148878406E+02 -0.95098330620E+01 -0.84294985522E+01  0.95926692438E+02  0.91414840751E+02 0.  0.
         13    1    3    3    0    0 -0.17952213783E+02  0.10084967675E+02 -0.35170293017E+02  0.40754744848E+02  0.10566000000E+00 0. -1.
         22    1    1    0    0    0 -0.26148878406E+02  0.95098330620E+01  0.84294985522E+01  0.29073307562E+02  0.00000000000E+00 0. -1.
</event>
<event>
 5    1  0.1758488E-003  0.9118800E+02  0.7818608E-02  0.1130116E+00
         25   -1    0    0    0    0  0.00000000000E+00  0.00000000000E+00  0.99999998245E-14  0.12500000000E+03  0.12500000000E+03 0.  0.
        -13    1    3    3    0    0 -0.74889784181E+01 -0.10569312566E+02  0.39432954346E+02  0.41506194939E+02  0.10566000000E+00 0.  1.
         23    2    1    0    0    0 -0.54691323476E+01 -0.24342705263E+02 -0.13771708535E+02  0.96501953328E+02  0.92198092887E+02 0.  0.
         13    1    3    3    0    0  0.20198460705E+01 -0.13773392697E+02 -0.53204662880E+02  0.54995758389E+02  0.10566000000E+00 0. -1.
         22    1    1    0    0    0  0.54691323476E+01  0.24342705263E+02  0.13771708535E+02  0.28498046672E+02  0.00000000000E+00 0. -1.
</event>
<event>
 5    1  0.1758488E-003  0.9118800E+02  0.7818608E-02  0.1130116E+00
         25   -1    0    0    0    0  0.00000000000E+00  0.00000000000E+00  0.99999998245E-14  0.12500000000E+03  0.12500000000E+03 0.  0.
        -13    1    3    3    0    0  0.15121019443E+02  0.39891257156E+02  0.33343889791E+02  0.54145948851E+02  0.10566000000E+00 0.  1.
         23    2    1    0    0    0 -0.15411349256E+02  0.22554762576E+02  0.16477439780E+02  0.93098071806E+02  0.87461522692E+02 0.  0.
         13    1    3    3    0    0 -0.30532368699E+02 -0.17336494580E+02 -0.16866450011E+02  0.38952122955E+02  0.10566000000E+00 0. -1.
         22    1    1    0    0    0  0.15411349256E+02 -0.22554762576E+02 -0.16477439780E+02  0.31901928194E+02  0.00000000000E+00 0.  1.
</event>
<event>
 5    1  0.1758488E-003  0.9118800E+02  0.7818608E-02  0.1130116E+00
         25   -1    0    0    0    0  0.00000000000E+00  0.00000000000E+00  0.99999998245E-14  0.12500000000E+03  0.12500000000E+03 0.  0.
        -13    1    3    3    0    0  0.17118259699E+02 -0.32313196886E+02  0.41843054682E+02  0.55570044963E+02  0.10566000000E+00 0.  1.
         23    2    1    0    0    0  0.22236452811E+02  0.87310607725E-01  0.20866513095E+02  0.94506085435E+02  0.89451223349E+02 0.  0.
         13    1    3    3    0    0  0.51181931127E+01  0.32400507494E+02 -0.20976541587E+02  0.38936040471E+02  0.10566000000E+00 0. -1.
         22    1    1    0    0    0 -0.22236452811E+02 -0.87310607725E-01 -0.20866513095E+02  0.30493914565E+02  0.00000000000E+00 0.  1.
</event>
<event>
 5    1  0.1758488E-003  0.9118800E+02  0.7818608E-02  0.1130116E+00
         25   -1    0    0    0    0  0.00000000000E+00  0.00000000000E+00  0.99999998245E-14  0.12500000000E+03  0.12500000000E+03 0.  0.
        -13    1    3    3    0    0  0.36894882911E+02 -0.99236880482E+01 -0.88528531748E+01  0.39218568852E+02  0.10566000000E+00 0. -1.
         23    2    1    0    0    0 -0.44860141491E+01  0.25666834498E+02  0.10184712553E+02  0.97024312593E+02  0.92903595993E+02 0.  0.
         13    1    3    3    0    0 -0.41380897060E+02  0.35590522546E+02  0.19037565728E+02  0.57805743741E+02  0.10566000000E+00 0.  1.
         22    1    1    0    0    0  0.44860141491E+01 -0.25666834498E+02 -0.10184712553E+02  0.27975687407E+02  0.00000000000E+00 0.  1.
</event>
<event>
 5    1  0.1758488E-003  0.9118800E+02  0.7818608E-02  0.1130116E+00
         25   -1    0    0    0    0  0.00000000000E+00  0.00000000000E+00  0.99999998245E-14  0.12500000000E+03  0.12500000000E+03 0.  0.
        -13    1    3    3    0    0 -0.43174967878E+02 -0.36651944031E+02  0.52586671129E+01  0.56878006262E+02  0.10566000000E+00 0. -1.
         23    2    1    0    0    0 -0.28854457960E+02 -0.17019611866E+01 -0.41409771082E+01  0.95800272134E+02  0.91241810775E+02 0.  0.
         13    1    3    3    0    0  0.14320509918E+02  0.34949982844E+02 -0.93996442211E+01  0.38922265872E+02  0.10566000000E+00 0.  1.
         22    1    1    0    0    0  0.28854457960E+02  0.17019611866E+01  0.41409771082E+01  0.29199727866E+02  0.00000000000E+00 0. -1.
</event>
<event>
 5    1  0.1758488E-003  0.9118800E+02  0.7818608E-02  0.1130116E+00
         25   -1    0    0    0    0  0.00000000000E+00  0.00000000000E+00  0.99999998245E-14  0.12500000000E+03  0.12500000000E+03 0.  0.
        -13    1    3    3    0    0 -0.11699895467E+02  0.38320021753E+02 -0.69304417286E+01  0.40661453586E+02  0.10566000000E+00 0. -1.
         23    2    1    0    0    0 -0.22712551370E+02 -0.97529943101E+01  0.16518435864E+02  0.95270559858E+02  0.90513203261E+02 0.  0.
         13    1    3    3    0    0 -0.11012655904E+02 -0.48073016063E+02  0.23448877592E+02  0.54609106272E+02  0.10566000000E+00 0.  1.
         22    1    1    0    0    0  0.22712551370E+02  0.97529943101E+01 -0.16518435864E+02  0.29729440142E+02  0.00000000000E+00 0.  1.
</event>
<event>
 5    1  0.1758488E-003  0.9118800E+02  0.7818608E-02  0.1130116E+00
         25   -1    0    0    0    0  0.00000000000E+00  0.00000000000E+00  0.99999998245E-14  0.12500000000E+03  0.12500000000E+03 0.  0.
        -13    1    3    3    0    0  0.15955844402E+02  0.13273371731E+02 -0.42113689921E+02  0.46950456978E+02  0.10566000000E+00 0.  1.
         23    2    1    0    0    0 -0.20187787893E+02 -0.89775619854E+01 -0.21638211970E+02  0.94075000138E+02  0.88846778413E+02 0.  0.
         13    1    3    3    0    0 -0.36143632295E+02 -0.22250933716E+02  0.20475477950E+02  0.47124543160E+02  0.10566000000E+00 0. -1.
         22    1    1    0    0    0  0.20187787893E+02  0.89775619854E+01  0.21638211970E+02  0.30924999862E+02  0.00000000000E+00 0.  1.
</event>
<event>
 5    1  0.1758488E-003  0.9118800E+02  0.7818608E-02  0.1130116E+00
         25   -1    0    0    0    0  0.00000000000E+00  0.00000000000E+00  0.99999998245E-14  0.12500000000E+03  0.12500000000E+03 0.  0.
        -13    1    3    3    0    0 -0.35527010455E+02  0.56144950291E+01 -0.14714396948E+02  0.38861493382E+02  0.10566000000E+00 0.  1.
         23    2    1    0    0    0  0.19618287798E+02 -0.67944449823E+01 -0.20675824466E+02  0.95699293249E+02  0.91103366087E+02 0.  0.
         13    1    3    3    0    0  0.55145298253E+02 -0.12408940011E+02 -0.59614275181E+01  0.56837799867E+02  0.10566000000E+00 0. -1.
         22    1    1    0    0    0 -0.19618287798E+02  0.67944449823E+01  0.20675824466E+02  0.29300706751E+02  0.00000000000E+00 0. -1.
</event>
<event>
 5    1  0.1758488E-003  0.9118800E+02  0.7818608E-02  0.1130116E+00
         25   -1    0    0    0    0  0.00000000000E+00  0.00000000000E+00  0.99999998245E-14  0.12500000000E+03  0.12500000000E+03 0.  0.
        -13    1    3    3    0    0  0.29723753666E+01 -0.13721387172E+02 -0.33090287962E+02  0.35945650678E+02  0.10566000000E+00 0.  1.
         23    2    1    0    0    0 -0.19413458633E+02  0.17183366309E+02  0.13175208049E+02  0.95918449819E+02  0.91403569157E+02 0.  0.
         13    1    3    3    0    0 -0.22385834000E+02  0.30904753481E+02  0.46265496011E+02  0.59972799141E+02  0.10566000000E+00 0. -1.
         22    1    1    0    0    0  0.19413458633E+02 -0.17183366309E+02 -0.13175208049E+02  0.29081550181E+02  0.00000000000E+00 0. -1.
</event>
<event>
 5    1  0.1758488E-003  0.9118800E+02  0.7818608E-02  0.1130116E+00
         25   -1    0    0    0    0  0.00000000000E+00  0.00000000000E+00  0.99999998245E-14  0.12500000000E+03  0.12500000000E+03 0.  0.
        -13    1    3    3    0    0  0.32157028200E+02 -0.12504660144E+02 -0.16979552487E+01  0.34544684164E+02  0.10566000000E+00 0. -1.
         23    2    1    0    0    0 -0.24022168703E+02  0.90129759890E+01 -0.13737076276E+02  0.95896639541E+02  0.91373737393E+02 0.  0.
         13    1    3    3    0    0 -0.56179196903E+02  0.21517636133E+02 -0.12039121028E+02  0.61351955377E+02  0.10566000000E+00 0.  1.
         22    1    1    0    0    0  0.24022168703E+02 -0.90129759890E+01  0.13737076276E+02  0.29103360459E+02  0.00000000000E+00 0.  1.
</event>
<event>
 5    1  0.1758488E-003  0.9118800E+02  0.7818608E-02  0.1130116E+00
         25   -1    0    0    0    0  0.00000000000E+00  0.00000000000E+00  0.99999998245E-14  0.12500000000E+03  0.12500000000E+03 0.  0.
        -13    1    3    3    0    0 -0.43058654998E+02 -0.58880476472E+01  0.37946795644E+02  0.57694777398E+02  0.10566000000E+00 0.  1.
         23    2    1    0    0    0 -0.21697010483E+02  0.14292141945E+02  0.14828651050E+02  0.95084878786E+02  0.90256410834E+02 0.  0.
         13    1    3    3    0    0  0.21361644515E+02  0.20180189592E+02 -0.23118144594E+02  0.37390101389E+02  0.10566000000E+00 0. -1.
         22    1    1    0    0    0  0.21697010483E+02 -0.14292141945E+02 -0.14828651050E+02  0.29915121214E+02  0.00000000000E+00 0.  1.
</event>
<event>
 5    1  0.1758488E-003  0.9118800E+02  0.7818608E-02  0.1130116E+00
         25   -1    0    0    0    0  0.00000000000E+00  0.00000000000E+00  0.99999998245E-14  0.12500000000E+03  0.12500000000E+03 0.  0.
        -13    1    3    3    0    0  0.40584711485E+02  0.92146660348E+01  0.44585579944E+02  0.60991097543E+02  0.10566000000E+00 0.  1.
         23    2    1    0    0    0  0.23533096070E+02 -0.11764360205E+00  0.12903421919E+02  0.98161245412E+02  0.94420926457E+02 0.  0.
         13    1    3    3    0    0 -0.17051615416E+02 -0.93323096369E+01 -0.31682158025E+02  0.37170147869E+02  0.10566000000E+00 0. -1.
         22    1    1    0    0    0 -0.23533096070E+02  0.11764360205E+00 -0.12903421919E+02  0.26838754588E+02  0.00000000000E+00 0.  1.
</event>
<event>
 5    1  0.1758488E-003  0.9118800E+02  0.7818608E-02  0.1130116E+00
         25   -1    0    0    0    0  0.00000000000E+00  0.00000000000E+00  0.99999998245E-14  0.12500000000E+03  0.12500000000E+03 0.  0.
        -13    1    3    3    0    0  0.30679118048E+02 -0.15132744274E+02  0.10366358148E+02  0.35744660843E+02  0.10566000000E+00 0.  1.
         23    2    1    0    0    0 -0.11773662071E+02  0.25661175121E+02 -0.43538839482E+01  0.96433037744E+02  0.92104611371E+02 0.  0.
         13    1    3    3    0    0 -0.42452780119E+02  0.40793919395E+02 -0.14720242096E+02  0.60688376901E+02  0.10566000000E+00 0. -1.
         22    1    1    0    0    0  0.11773662071E+02 -0.25661175121E+02  0.43538839482E+01  0.28566962256E+02  0.00000000000E+00 0. -1.
</event>
<event>
 4    1  0.1758488E-003  0.9118800E+02  0.7818608E-02  0.1130116E+00
         25   -1    0    0    0    0  0.00000000000E+00  0.00000000000E+00  0.99999998245E-14  0.12500000000E+03  0.12500000000E+03 0.  0.
        -13    1    1    0    0    0 -0.44934654106E+02  0.98357085195E+01 -0.35852512843E+02  0.58320477903E+02  0.10566000000E+00 0.  1.
         13    1    1    0    0    0 -0.77279118663E+00  0.27962482600E+01  0.14298215006E+02  0.14589939237E+02  0.10566000000E+00 0. -1.
         22    1    1    0    0    0  0.45707445293E+02 -0.12631956780E+02  0.21554297837E+02  0.52089582860E+02  0.00000000000E+00 0.  1.
</event>
<event>
 5    1  0.1758488E-003  0.9118800E+02  0.7818608E-02  0.1130116E+00
         25   -1    0    0    0    0  0.00000000000E+00  0.00000000000E+00  0.99999998245E-14  0.12500000000E+03  0.12500000000E+03 0.  0.
        -13    1    3    3    0    0 -0.28258648549E+02 -0.36486041404E+02  0.29444287951E+02  0.54742667930E+02  0.10566000000E+00 0. -1.
         23    2    1    0    0    0  0.67628024084E+01 -0.16897757206E+02  0.23450105855E+02  0.95315371661E+02  0.90575067846E+02 0.  0.
         13    1    3    3    0    0  0.35021450958E+02  0.19588284197E+02 -0.59941820957E+01  0.40572703731E+02  0.10566000000E+00 0.  1.
         22    1    1    0    0    0 -0.67628024084E+01  0.16897757206E+02 -0.23450105855E+02  0.29684628339E+02  0.00000000000E+00 0. -1.
</event>
<event>
 5    1  0.1758488E-003  0.9118800E+02  0.7818608E-02  0.1130116E+00
         25   -1    0    0    0    0  0.00000000000E+00  0.00000000000E+00  0.99999998245E-14  0.12500000000E+03  0.12500000000E+03 0.  0.
        -13    1    3    3    0    0 -0.22388380276E+01  0.54672743818E+02 -0.22925513268E+02  0.59327157651E+02  0.10566000000E+00 0. -1.
         23    2    1    0    0    0 -0.77629452957E+01  0.28766420442E+02  0.12341330682E+01  0.95178978067E+02  0.90386639039E+02 0.  0.
         13    1    3    3    0    0 -0.55241072681E+01 -0.25906323377E+02  0.24159646336E+02  0.35851820416E+02  0.10566000000E+00 0.  1.
         22    1    1    0    0    0  0.77629452957E+01 -0.28766420442E+02 -0.12341330682E+01  0.29821021933E+02  0.00000000000E+00 0. -1.
</event>
<event>
 5    1  0.1758488E-003  0.9118800E+02  0.7818608E-02  0.1130116E+00
         25   -1    0    0    0    0  0.00000000000E+00  0.00000000000E+00  0.99999998245E-14  0.12500000000E+03  0.12500000000E+03 0.  0.
        -13    1    3    3    0    0  0.85861780197E+01  0.70429950365E+00  0.32448798076E+02  0.33573116498E+02  0.10566000000E+00 0.  1.
         23    2    1    0    0    0 -0.12764488440E+02 -0.80553980777E+01 -0.25175283372E+02  0.95646695311E+02  0.91031169539E+02 0.  0.
         13    1    3    3    0    0 -0.21350666460E+02 -0.87596975813E+01 -0.57624081447E+02  0.62073578813E+02  0.10566000000E+00 0. -1.
         22    1    1    0    0    0  0.12764488440E+02  0.80553980777E+01  0.25175283372E+02  0.29353304689E+02  0.00000000000E+00 0. -1.
</event>
<event>
 5    1  0.1758488E-003  0.9118800E+02  0.7818608E-02  0.1130116E+00
         25   -1    0    0    0    0  0.00000000000E+00  0.00000000000E+00  0.99999998245E-14  0.12500000000E+03  0.12500000000E+03 0.  0.
        -13    1    3    3    0    0 -0.16523437110E+02 -0.33607256494E+02 -0.40413593134E+02  0.55097561988E+02  0.10566000000E+00 0. -1.
         23    2    1    0    0    0 -0.25978964927E+02 -0.14059730634E+02 -0.75095713964E+01  0.94520887369E+02  0.89471905324E+02 0.  0.
         13    1    3    3    0    0 -0.94555278172E+01  0.19547525859E+02  0.32904021738E+02  0.39423325381E+02  0.10566000000E+00 0.  1.
         22    1    1    0    0    0  0.25978964927E+02  0.14059730634E+02  0.75095713964E+01  0.30479112631E+02  0.00000000000E+00 0. -1.
</event>
<event>
 5    1  0.1758488E-003  0.9118800E+02  0.7818608E-02  0.1130116E+00
         25   -1    0    0    0    0  0.00000000000E+00  0.00000000000E+00  0.99999998245E-14  0.12500000000E+03  0.12500000000E+03 0.  0.
        -13    1    3    3    0    0 -0.31159444257E+02  0.77051469688E+01  0.19213350119E+02  0.37409146516E+02  0.10566000000E+00 0.  1.
         23    2    1    0    0    0  0.12013659229E+02 -0.16951766661E+02 -0.16369917967E+02  0.98548825825E+02  0.94932641679E+02 0.  0.
         13    1    3    3    0    0  0.43173103486E+02 -0.24656913630E+02 -0.35583268085E+02  0.61139679309E+02  0.10566000000E+00 0. -1.
         22    1    1    0    0    0 -0.12013659229E+02  0.16951766661E+02  0.16369917967E+02  0.26451174175E+02  0.00000000000E+00 0. -1.
</event>
<event>
 5    1  0.1758488E-003  0.9118800E+02  0.7818608E-02  0.1130116E+00
         25   -1    0    0    0    0  0.00000000000E+00  0.00000000000E+00  0.99999998245E-14  0.12500000000E+03  0.12500000000E+03 0.  0.
        -13    1    3    3    0    0 -0.43674430431E+02  0.24851970207E+02  0.10793829344E+02  0.51396441634E+02  0.10566000000E+00 0.  1.
         23    2    1    0    0    0 -0.12081414484E+02 -0.60413926142E+01  0.23952247223E+02  0.97501470082E+02  0.93543399128E+02 0.  0.
         13    1    3    3    0    0  0.31593015947E+02 -0.30893362822E+02  0.13158417879E+02  0.46105028448E+02  0.10566000000E+00 0. -1.
         22    1    1    0    0    0  0.12081414484E+02  0.60413926142E+01 -0.23952247223E+02  0.27498529918E+02  0.00000000000E+00 0.  1.
</event>
<event>
 5    1  0.1758488E-003  0.9118800E+02  0.7818608E-02  0.1130116E+00
         25   -1    0    0    0    0  0.00000000000E+00  0.00000000000E+00  0.99999998245E-14  0.12500000000E+03  0.12500000000E+03 0.  0.
        -13    1    3    3    0    0 -0.28917916141E+02 -0.18359974633E+02 -0.16687680417E+02  0.38102813337E+02  0.10566000000E+00 0.  1.
         23    2    1    0    0    0 -0.12393000594E+02  0.33970321169E+01  0.30093472018E+02  0.92277785084E+02  0.86281204621E+02 0.  0.
         13    1    3    3    0    0  0.16524915547E+02  0.21757006750E+02  0.46781152435E+02  0.54174971746E+02  0.10566000000E+00 0. -1.
         22    1    1    0    0    0  0.12393000594E+02 -0.33970321169E+01 -0.30093472018E+02  0.32722214916E+02  0.00000000000E+00 0. -1.
</event>
<event>
 5    1  0.1758488E-003  0.9118800E+02  0.7818608E-02  0.1130116E+00
         25   -1    0    0    0    0  0.00000000000E+00  0.00000000000E+00  0.99999998245E-14  0.12500000000E+03  0.12500000000E+03 0.  0.
        -13    1    3    3    0    0  0.29142493511E+02 -0.98086560843E+01 -0.40829661857E+02  0.51113277273E+02  0.10566000000E+00 0.  1.
         23    2    1    0    0    0 -0.98050802008E+01 -0.17022187233E+02 -0.23561085327E+02  0.94323963788E+02  0.89196361736E+02 0.  0.
         13    1    3    3    0    0 -0.38947573711E+02 -0.72135311483E+01  0.17268576531E+02  0.43210686515E+02  0.10566000000E+00 0. -1.
         22    1    1    0    0    0  0.98050802008E+01  0.17022187233E+02  0.23561085327E+02  0.30676036212E+02  0.00000000000E+00 0.  1.
</event>
<event>
 5    1  0.1758488E-003  0.9118800E+02  0.7818608E-02  0.1130116E+00
         25   -1    0    0    0    0  0.00000000000E+00  0.00000000000E+00  0.99999998245E-14  0.12500000000E+03  0.12500000000E+03 0.  0.
        -13    1    3    3    0    0 -0.29318314650E+02  0.38640700390E+02  0.29873997604E+02  0.56966079358E+02  0.10566000000E+00 0.  1.
         23    2    1    0    0    0 -0.24028040192E+02  0.10310873649E+02 -0.51545698137E+00  0.98848011036E+02  0.95325771746E+02 0.  0.
         13    1    3    3    0    0  0.52902744577E+01 -0.28329826741E+02 -0.30389454586E+02  0.41881931678E+02  0.10566000000E+00 0. -1.
         22    1    1    0    0    0  0.24028040192E+02 -0.10310873649E+02  0.51545698137E+00  0.26151988964E+02  0.00000000000E+00 0.  1.
</event>
<event>
 5    1  0.1758488E-003  0.9118800E+02  0.7818608E-02  0.1130116E+00
         25   -1    0    0    0    0  0.00000000000E+00  0.00000000000E+00  0.99999998245E-14  0.12500000000E+03  0.12500000000E+03 0.  0.
        -13    1    3    3    0    0  0.32403652994E+02  0.89502531535E+01  0.13263166024E+02  0.36138988584E+02  0.10566000000E+00 0.  1.
         23    2    1    0    0    0 -0.92482678181E+01 -0.12252007128E+02 -0.24406363077E+02  0.96167506266E+02  0.91743536920E+02 0.  0.
         13    1    3    3    0    0 -0.41651920812E+02 -0.21202260281E+02 -0.37669529101E+02  0.60028517682E+02  0.10566000000E+00 0. -1.
         22    1    1    0    0    0  0.92482678181E+01  0.12252007128E+02  0.24406363077E+02  0.28832493734E+02  0.00000000000E+00 0. -1.
</event>
<event>
 5    1  0.1758488E-003  0.9118800E+02  0.7818608E-02  0.1130116E+00
         25   -1    0    0    0    0  0.00000000000E+00  0.00000000000E+00  0.99999998245E-14  0.12500000000E+03  0.12500000000E+03 0.  0.
        -13    1    3    3    0    0 -0.50267518251E+02  0.40886559411E+00  0.18539751939E+02  0.53579138928E+02  0.10566000000E+00 0. -1.
         23    2    1    0    0    0 -0.24240869506E+02  0.16302555224E+02 -0.87522342074E+01  0.94504186109E+02  0.89448569174E+02 0.  0.
         13    1    3    3    0    0  0.26026648746E+02  0.15893689630E+02 -0.27291986146E+02  0.40925047182E+02  0.10566000000E+00 0.  1.
         22    1    1    0    0    0  0.24240869506E+02 -0.16302555224E+02  0.87522342074E+01  0.30495813891E+02  0.00000000000E+00 0. -1.
</event>
<event>
 5    1  0.1758488E-003  0.9118800E+02  0.7818608E-02  0.1130116E+00
         25   -1    0    0    0    0  0.00000000000E+00  0.00000000000E+00  0.99999998245E-14  0.12500000000E+03  0.12500000000E+03 0.  0.
        -13    1    3    3    0    0  0.10444896643E+01 -0.24425087474E+02  0.48666166654E+02  0.54461755366E+02  0.10566000000E+00 0.  1.
         23    2    1    0    0    0  0.12071996084E+02  0.54462306302E+01  0.31926204434E+02  0.90435899446E+02  0.83570179260E+02 0.  0.
         13    1    3    3    0    0  0.11027506420E+02  0.29871318104E+02 -0.16739962220E+02  0.35974144080E+02  0.10566000000E+00 0. -1.
         22    1    1    0    0    0 -0.12071996084E+02 -0.54462306302E+01 -0.31926204434E+02  0.34564100554E+02  0.00000000000E+00 0.  1.
</event>
<event>
 5    1  0.1758488E-003  0.9118800E+02  0.7818608E-02  0.1130116E+00
         25   -1    0    0    0    0  0.00000000000E+00  0.00000000000E+00  0.99999998245E-14  0.12500000000E+03  0.12500000000E+03 0.  0.
        -13    1    3    3    0    0  0.59479626821E+02  0.10047352108E+02 -0.25219985690E+01  0.60375052231E+02  0.10566000000E+00 0. -1.
         23    2    1    0    0    0  0.29518360753E+02  0.58463127306E+01  0.10243620499E+02  0.93212506311E+02  0.87624919844E+02 0.  0.
         13    1    3    3    0    0 -0.29961266067E+02 -0.42010393778E+01  0.12765619068E+02  0.32837454079E+02  0.10566000000E+00 0.  1.
         22    1    1    0    0    0 -0.29518360753E+02 -0.58463127306E+01 -0.10243620499E+02  0.31787493689E+02  0.00000000000E+00 0. -1.
</event>
<event>
 5    1  0.1758488E-003  0.9118800E+02  0.7818608E-02  0.1130116E+00
         25   -1    0    0    0    0  0.00000000000E+00  0.00000000000E+00  0.99999998245E-14  0.12500000000E+03  0.12500000000E+03 0.  0.
        -13    1    3    3    0    0 -0.24967932491E+02  0.10661532301E+02 -0.18916728735E+02  0.33089571075E+02  0.10566000000E+00 0. -1.
         23    2    1    0    0    0  0.29121765519E+02 -0.31272054579E+01  0.73830088745E+01  0.94794612054E+02  0.89853508632E+02 0.  0.
         13    1    3    3    0    0  0.54089698010E+02 -0.13788737758E+02  0.26299737610E+02  0.61705040979E+02  0.10566000000E+00 0.  1.
         22    1    1    0    0    0 -0.29121765519E+02  0.31272054579E+01 -0.73830088745E+01  0.30205387946E+02  0.00000000000E+00 0.  1.
</event>
<event>
 5    1  0.1758488E-003  0.9118800E+02  0.7818608E-02  0.1130116E+00
         25   -1    0    0    0    0  0.00000000000E+00  0.00000000000E+00  0.99999998245E-14  0.12500000000E+03  0.12500000000E+03 0.  0.
        -13    1    3    3    0    0  0.38716448396E+02  0.53913094296E+01 -0.29630792347E+02  0.49051244764E+02  0.10566000000E+00 0.  1.
         23    2    1    0    0    0 -0.68713435790E+00 -0.16960397342E+02 -0.25264294693E+02  0.94562986054E+02  0.89530701513E+02 0.  0.
         13    1    3    3    0    0 -0.39403582754E+02 -0.22351706772E+02  0.43664976538E+01  0.45511741290E+02  0.10566000000E+00 0. -1.
         22    1    1    0    0    0  0.68713435790E+00  0.16960397342E+02  0.25264294693E+02  0.30437013946E+02  0.00000000000E+00 0.  1.
</event>
<event>
 5    1  0.1758488E-003  0.9118800E+02  0.7818608E-02  0.1130116E+00
         25   -1    0    0    0    0  0.00000000000E+00  0.00000000000E+00  0.99999998245E-14  0.12500000000E+03  0.12500000000E+03 0.  0.
        -13    1    3    3    0    0  0.17529849751E+02 -0.27364451813E+02 -0.25444815152E+02  0.41274188514E+02  0.10566000000E+00 0. -1.
         23    2    1    0    0    0  0.18006866835E+02  0.22904228252E+02 -0.55376083263E+01  0.95343364469E+02  0.90613691665E+02 0.  0.
         13    1    3    3    0    0  0.47701708393E+00  0.50268680065E+02  0.19907206826E+02  0.54069175955E+02  0.10566000000E+00 0.  1.
         22    1    1    0    0    0 -0.18006866835E+02 -0.22904228252E+02  0.55376083263E+01  0.29656635531E+02  0.00000000000E+00 0.  1.
</event>
<event>
 5    1  0.1758488E-003  0.9118800E+02  0.7818608E-02  0.1130116E+00
         25   -1    0    0    0    0  0.00000000000E+00  0.00000000000E+00  0.99999998245E-14  0.12500000000E+03  0.12500000000E+03 0.  0.
        -13    1    3    3    0    0  0.32546073209E+02  0.19199851782E+02  0.27720967273E+02  0.46865172360E+02  0.10566000000E+00 0. -1.
         23    2    1    0    0    0  0.14748242539E+02  0.19771113726E+02 -0.17028166319E+02  0.95027244969E+02  0.90176555946E+02 0.  0.
         13    1    3    3    0    0 -0.17797830670E+02  0.57126194442E+00 -0.44749133591E+02  0.48162072609E+02  0.10566000000E+00 0.  1.
         22    1    1    0    0    0 -0.14748242539E+02 -0.19771113726E+02  0.17028166319E+02  0.29972755031E+02  0.00000000000E+00 0. -1.
</event>
<event>
 5    1  0.1758488E-003  0.9118800E+02  0.7818608E-02  0.1130116E+00
         25   -1    0    0    0    0  0.00000000000E+00  0.00000000000E+00  0.99999998245E-14  0.12500000000E+03  0.12500000000E+03 0.  0.
        -13    1    3    3    0    0 -0.32078571425E+02 -0.29883739128E+02 -0.23796294553E+02  0.49883337974E+02  0.10566000000E+00 0.  1.
         23    2    1    0    0    0 -0.39360551298E-01 -0.32359762243E+02  0.40281994305E+01  0.92390459183E+02  0.86444287235E+02 0.  0.
         13    1    3    3    0    0  0.32039210874E+02 -0.24760231151E+01  0.27824493984E+02  0.42507121208E+02  0.10566000000E+00 0. -1.
         22    1    1    0    0    0  0.39360551298E-01  0.32359762243E+02 -0.40281994305E+01  0.32609540817E+02  0.00000000000E+00 0.  1.
</event>
<event>
 5    1  0.1758488E-003  0.9118800E+02  0.7818608E-02  0.1130116E+00
         25   -1    0    0    0    0  0.00000000000E+00  0.00000000000E+00  0.99999998245E-14  0.12500000000E+03  0.12500000000E+03 0.  0.
        -13    1    3    3    0    0 -0.41146910747E+02  0.24003333636E+02 -0.24100494661E+02  0.53386077741E+02  0.10566000000E+00 0.  1.
         23    2    1    0    0    0 -0.89437211541E+01  0.89952215232E+01 -0.32687171559E+02  0.89937836021E+02  0.82821851013E+02 0.  0.
         13    1    3    3    0    0  0.32203189593E+02 -0.15008112112E+02 -0.85866768983E+01  0.36551758280E+02  0.10566000000E+00 0. -1.
         22    1    1    0    0    0  0.89437211541E+01 -0.89952215232E+01  0.32687171559E+02  0.35062163979E+02  0.00000000000E+00 0.  1.
</event>
<event>
 5    1  0.1758488E-003  0.9118800E+02  0.7818608E-02  0.1130116E+00
         25   -1    0    0    0    0  0.00000000000E+00  0.00000000000E+00  0.99999998245E-14  0.12500000000E+03  0.12500000000E+03 0.  0.
        -13    1    3    3    0    0  0.24736262298E+02 -0.42471855683E+02 -0.71526239987E+01  0.49668021822E+02  0.10566000000E+00 0. -1.
         23    2    1    0    0    0 -0.98012712153E+01 -0.24901451894E+02  0.15018823091E+02  0.94312669212E+02  0.89180532085E+02 0.  0.
         13    1    3    3    0    0 -0.34537533513E+02  0.17570403789E+02  0.22171447089E+02  0.44644647390E+02  0.10566000000E+00 0.  1.
         22    1    1    0    0    0  0.98012712153E+01  0.24901451894E+02 -0.15018823091E+02  0.30687330788E+02  0.00000000000E+00 0. -1.
</event>
<event>
 5    1  0.1758488E-003  0.9118800E+02  0.7818608E-02  0.1130116E+00
         25   -1    0    0    0    0  0.00000000000E+00  0.00000000000E+00  0.99999998245E-14  0.12500000000E+03  0.12500000000E+03 0.  0.
        -13    1    3    3    0    0 -0.42717244451E+01 -0.39819854446E+02  0.36165451222E+02  0.53961277449E+02  0.10566000000E+00 0. -1.
         23    2    1    0    0    0 -0.45085594566E+01  0.10926041574E+01  0.29164037403E+02  0.95469304616E+02  0.90787257663E+02 0.  0.
         13    1    3    3    0    0 -0.23683501149E+00  0.40912458603E+02 -0.70014138182E+01  0.41508027167E+02  0.10566000000E+00 0.  1.
         22    1    1    0    0    0  0.45085594566E+01 -0.10926041574E+01 -0.29164037403E+02  0.29530695384E+02  0.00000000000E+00 0. -1.
</event>
<event>
 5    1  0.1758488E-003  0.9118800E+02  0.7818608E-02  0.1130116E+00
         25   -1    0    0    0    0  0.00000000000E+00  0.00000000000E+00  0.99999998245E-14  0.12500000000E+03  0.12500000000E+03 0.  0.
        -13    1    3    3    0    0  0.23689866167E+02 -0.26872950373E+02 -0.29029983325E+01  0.35941671972E+02  0.10566000000E+00 0.  1.
         23    2    1    0    0    0  0.47404210345E+02  0.43555736409E+01 -0.11368756393E+02  0.76057392774E+02  0.58218108810E+02 0.  0.
         13    1    3    3    0    0  0.23714344178E+02  0.31228524014E+02 -0.84657580609E+01  0.40115720802E+02  0.10566000000E+00 0. -1.
         22    1    1    0    0    0 -0.47404210345E+02 -0.43555736409E+01  0.11368756393E+02  0.48942607226E+02  0.00000000000E+00 0.  1.
</event>
<event>
 5    1  0.1758488E-003  0.9118800E+02  0.7818608E-02  0.1130116E+00
         25   -1    0    0    0    0  0.00000000000E+00  0.00000000000E+00  0.99999998245E-14  0.12500000000E+03  0.12500000000E+03 0.  0.
        -13    1    3    3    0    0  0.14120934624E+02  0.38546376697E+01 -0.44763617783E+02  0.47096195890E+02  0.10566000000E+00 0.  1.
         23    2    1    0    0    0 -0.22157715705E+02 -0.10776291997E+02 -0.17009529647E+02  0.95059777334E+02  0.90221640051E+02 0.  0.
         13    1    3    3    0    0 -0.36278650329E+02 -0.14630929667E+02  0.27754088137E+02  0.47963581444E+02  0.10566000000E+00 0. -1.
         22    1    1    0    0    0  0.22157715705E+02  0.10776291997E+02  0.17009529647E+02  0.29940222666E+02  0.00000000000E+00 0. -1.
</event>
<event>
 5    1  0.1758488E-003  0.9118800E+02  0.7818608E-02  0.1130116E+00
         25   -1    0    0    0    0  0.00000000000E+00  0.00000000000E+00  0.99999998245E-14  0.12500000000E+03  0.12500000000E+03 0.  0.
        -13    1    3    3    0    0 -0.21719158378E+02 -0.16470118353E+02 -0.35789808143E+02  0.44987866921E+02  0.10566000000E+00 0. -1.
         23    2    1    0    0    0 -0.28198576858E+02  0.12591302326E+01  0.10425482427E+02  0.94909539226E+02  0.90013247950E+02 0.  0.
         13    1    3    3    0    0 -0.64794184801E+01  0.17729248586E+02  0.46215290569E+02  0.49921672304E+02  0.10566000000E+00 0.  1.
         22    1    1    0    0    0  0.28198576858E+02 -0.12591302326E+01 -0.10425482427E+02  0.30090460774E+02  0.00000000000E+00 0.  1.
</event>
<event>
 5    1  0.1758488E-003  0.9118800E+02  0.7818608E-02  0.1130116E+00
         25   -1    0    0    0    0  0.00000000000E+00  0.00000000000E+00  0.99999998245E-14  0.12500000000E+03  0.12500000000E+03 0.  0.
        -13    1    3    3    0    0  0.41246504349E+02 -0.24508370658E+02 -0.28555108121E+01  0.48063494040E+02  0.10566000000E+00 0.  1.
         23    2    1    0    0    0  0.51917167425E+01 -0.11994073459E+02  0.25993864469E+02  0.95905452214E+02  0.91385792405E+02 0.  0.
         13    1    3    3    0    0 -0.36054787606E+02  0.12514297200E+02  0.28849375281E+02  0.47841958173E+02  0.10566000000E+00 0. -1.
         22    1    1    0    0    0 -0.51917167425E+01  0.11994073459E+02 -0.25993864469E+02  0.29094547786E+02  0.00000000000E+00 0. -1.
</event>
<event>
 5    1  0.1758488E-003  0.9118800E+02  0.7818608E-02  0.1130116E+00
         25   -1    0    0    0    0  0.00000000000E+00  0.00000000000E+00  0.99999998245E-14  0.12500000000E+03  0.12500000000E+03 0.  0.
        -13    1    3    3    0    0 -0.47004466359E+02 -0.33868918718E+02 -0.94507190363E+01  0.58701369381E+02  0.10566000000E+00 0.  1.
         23    2    1    0    0    0 -0.11944965279E+02 -0.19478584774E+02 -0.15925143080E+02  0.97148471452E+02  0.93070499424E+02 0.  0.
         13    1    3    3    0    0  0.35059501080E+02  0.14390333944E+02 -0.64744240436E+01  0.38447102072E+02  0.10566000000E+00 0. -1.
         22    1    1    0    0    0  0.11944965279E+02  0.19478584774E+02  0.15925143080E+02  0.27851528548E+02  0.00000000000E+00 0.  1.
</event>
<event>
 5    1  0.1758488E-003  0.9118800E+02  0.7818608E-02  0.1130116E+00
         25   -1    0    0    0    0  0.00000000000E+00  0.00000000000E+00  0.99999998245E-14  0.12500000000E+03  0.12500000000E+03 0.  0.
        -13    1    3    3    0    0 -0.54429957581E+01 -0.12375684766E+02 -0.59590351764E+02  0.61104868576E+02  0.10566000000E+00 0. -1.
         23    2    1    0    0    0  0.45064097315E+01  0.40731934886E+00 -0.28308653931E+02  0.96332012189E+02  0.91967402090E+02 0.  0.
         13    1    3    3    0    0  0.99494054897E+01  0.12783004115E+02  0.31281697833E+02  0.35227143613E+02  0.10566000000E+00 0.  1.
         22    1    1    0    0    0 -0.45064097315E+01 -0.40731934886E+00  0.28308653931E+02  0.28667987811E+02  0.00000000000E+00 0. -1.
</event>
<event>
 5    1  0.1758488E-003  0.9118800E+02  0.7818608E-02  0.1130116E+00
         25   -1    0    0    0    0  0.00000000000E+00  0.00000000000E+00  0.99999998245E-14  0.12500000000E+03  0.12500000000E+03 0.  0.
        -13    1    3    3    0    0 -0.35025078443E+02  0.82499806768E+01 -0.35982827000E+02  0.50888046770E+02  0.10566000000E+00 0.  1.
         23    2    1    0    0    0 -0.22741838350E+02  0.19186219495E+02  0.47991221417E+01  0.94861423335E+02  0.89946405341E+02 0.  0.
         13    1    3    3    0    0  0.12283240093E+02  0.10936238818E+02  0.40781949142E+02  0.43973376565E+02  0.10566000000E+00 0. -1.
         22    1    1    0    0    0  0.22741838350E+02 -0.19186219495E+02 -0.47991221417E+01  0.30138576665E+02  0.00000000000E+00 0. -1.
</event>
<event>
 5    1  0.1758488E-003  0.9118800E+02  0.7818608E-02  0.1130116E+00
         25   -1    0    0    0    0  0.00000000000E+00  0.00000000000E+00  0.99999998245E-14  0.12500000000E+03  0.12500000000E+03 0.  0.
        -13    1    3    3    0    0  0.34590890027E+02 -0.12166703373E+02 -0.74588653191E+01  0.37419302235E+02  0.10566000000E+00 0. -1.
         23    2    1    0    0    0 -0.64226257615E+01  0.26331655925E+02  0.96731817199E+01  0.96221941170E+02  0.91817674184E+02 0.  0.
         13    1    3    3    0    0 -0.41013515789E+02  0.38498359298E+02  0.17132047039E+02  0.58802638935E+02  0.10566000000E+00 0.  1.
         22    1    1    0    0    0  0.64226257615E+01 -0.26331655925E+02 -0.96731817199E+01  0.28778058830E+02  0.00000000000E+00 0.  1.
</event>
<event>
 5    1  0.1758488E-003  0.9118800E+02  0.7818608E-02  0.1130116E+00
         25   -1    0    0    0    0  0.00000000000E+00  0.00000000000E+00  0.99999998245E-14  0.12500000000E+03  0.12500000000E+03 0.  0.
        -13    1    3    3    0    0  0.57407542433E+01  0.39044311528E+02  0.31990053202E+02  0.50801468383E+02  0.10566000000E+00 0.  1.
         23    2    1    0    0    0  0.13689743971E+02  0.25049750346E+02 -0.91865130010E+01  0.95011817269E+02  0.90155168001E+02 0.  0.
         13    1    3    3    0    0  0.79489897276E+01 -0.13994561182E+02 -0.41176566203E+02  0.44210348886E+02  0.10566000000E+00 0. -1.
         22    1    1    0    0    0 -0.13689743971E+02 -0.25049750346E+02  0.91865130010E+01  0.29988182731E+02  0.00000000000E+00 0. -1.
</event>
<event>
 5    1  0.1758488E-003  0.9118800E+02  0.7818608E-02  0.1130116E+00
         25   -1    0    0    0    0  0.00000000000E+00  0.00000000000E+00  0.99999998245E-14  0.12500000000E+03  0.12500000000E+03 0.  0.
        -13    1    3    3    0    0 -0.20250665443E+02  0.48009323813E+02 -0.31812691085E+02  0.61049513527E+02  0.10566000000E+00 0.  1.
         23    2    1    0    0    0 -0.94149026575E+01  0.25877102592E+02 -0.58426901739E+01  0.96850366627E+02  0.92669259502E+02 0.  0.
         13    1    3    3    0    0  0.10835762785E+02 -0.22132221221E+02  0.25970000911E+02  0.35800853099E+02  0.10566000000E+00 0. -1.
         22    1    1    0    0    0  0.94149026575E+01 -0.25877102592E+02  0.58426901739E+01  0.28149633373E+02  0.00000000000E+00 0.  1.
</event>
<event>
 5    1  0.1758488E-003  0.9118800E+02  0.7818608E-02  0.1130116E+00
         25   -1    0    0    0    0  0.00000000000E+00  0.00000000000E+00  0.99999998245E-14  0.12500000000E+03  0.12500000000E+03 0.  0.
        -13    1    3    3    0    0  0.15777631134E+02 -0.49653898629E+02  0.74467557064E+01  0.52629921412E+02  0.10566000000E+00 0.  1.
         23    2    1    0    0    0  0.20699486994E+02 -0.64713691506E+01  0.17373950254E+02  0.97211485684E+02  0.93155093371E+02 0.  0.
         13    1    3    3    0    0  0.49218558595E+01  0.43182529478E+02  0.99271945474E+01  0.44581564271E+02  0.10566000000E+00 0. -1.
         22    1    1    0    0    0 -0.20699486994E+02  0.64713691506E+01 -0.17373950254E+02  0.27788514316E+02  0.00000000000E+00 0.  1.
</event>
<event>
 5    1  0.1758488E-003  0.9118800E+02  0.7818608E-02  0.1130116E+00
         25   -1    0    0    0    0  0.00000000000E+00  0.00000000000E+00  0.99999998245E-14  0.12500000000E+03  0.12500000000E+03 0.  0.
        -13    1    3    3    0    0 -0.22991263911E+02  0.33599481681E+01 -0.31268937739E+02  0.38956964709E+02  0.10566000000E+00 0. -1.
         23    2    1    0    0    0 -0.66166494296E+01  0.17668070745E+02  0.21717603772E+02  0.96232047568E+02  0.91831431939E+02 0.  0.
         13    1    3    3    0    0  0.16374614482E+02  0.14308122577E+02  0.52986541512E+02  0.57275082859E+02  0.10566000000E+00 0.  1.
         22    1    1    0    0    0  0.66166494296E+01 -0.17668070745E+02 -0.21717603772E+02  0.28767952432E+02  0.00000000000E+00 0.  1.
</event>
<event>
 5    1  0.1758488E-003  0.9118800E+02  0.7818608E-02  0.1130116E+00
         25   -1    0    0    0    0  0.00000000000E+00  0.00000000000E+00  0.99999998245E-14  0.12500000000E+03  0.12500000000E+03 0.  0.
        -13    1    3    3    0    0  0.19905925762E+02  0.34080697470E+02  0.73727005588E+01  0.40151060983E+02  0.10566000000E+00 0.  1.
         23    2    1    0    0    0  0.87970445832E+01 -0.29455454420E+01 -0.29805069011E+02  0.93784517141E+02  0.88437148785E+02 0.  0.
         13    1    3    3    0    0 -0.11108881179E+02 -0.37026242912E+02 -0.37177769570E+02  0.53633456158E+02  0.10566000000E+00 0. -1.
         22    1    1    0    0    0 -0.87970445832E+01  0.29455454420E+01  0.29805069011E+02  0.31215482859E+02  0.00000000000E+00 0.  1.
</event>
<event>
 5    1  0.1758488E-003  0.9118800E+02  0.7818608E-02  0.1130116E+00
         25   -1    0    0    0    0  0.00000000000E+00  0.00000000000E+00  0.99999998245E-14  0.12500000000E+03  0.12500000000E+03 0.  0.
        -13    1    3    3    0    0 -0.39739040223E+01 -0.20076073361E+02  0.11451312385E+02  0.23451745226E+02  0.10566000000E+00 0.  1.
         23    2    1    0    0    0  0.13571459040E+02  0.37770867506E+02  0.64254362974E+00  0.84859798270E+02  0.74765965302E+02 0.  0.
         13    1    3    3    0    0  0.17545363062E+02  0.57846940867E+02 -0.10808768755E+02  0.61408053044E+02  0.10566000000E+00 0. -1.
         22    1    1    0    0    0 -0.13571459040E+02 -0.37770867506E+02 -0.64254362974E+00  0.40140201730E+02  0.00000000000E+00 0. -1.
</event>
<event>
 5    1  0.1758488E-003  0.9118800E+02  0.7818608E-02  0.1130116E+00
         25   -1    0    0    0    0  0.00000000000E+00  0.00000000000E+00  0.99999998245E-14  0.12500000000E+03  0.12500000000E+03 0.  0.
        -13    1    3    3    0    0  0.37804818625E+02  0.31907628596E+02  0.32070816411E+02  0.58956335564E+02  0.10566000000E+00 0. -1.
         23    2    1    0    0    0  0.21265686466E+02  0.22781891819E+02  0.29117099104E+01  0.93699487699E+02  0.88316883577E+02 0.  0.
         13    1    3    3    0    0 -0.16539132159E+02 -0.91257367765E+01 -0.29159106501E+02  0.34743152135E+02  0.10566000000E+00 0.  1.
         22    1    1    0    0    0 -0.21265686466E+02 -0.22781891819E+02 -0.29117099104E+01  0.31300512301E+02  0.00000000000E+00 0. -1.
</event>
<event>
 5    1  0.1758488E-003  0.9118800E+02  0.7818608E-02  0.1130116E+00
         25   -1    0    0    0    0  0.00000000000E+00  0.00000000000E+00  0.99999998245E-14  0.12500000000E+03  0.12500000000E+03 0.  0.
        -13    1    3    3    0    0  0.24115917685E+02  0.10047034573E+02 -0.30774768038E+02  0.40368526122E+02  0.10566000000E+00 0.  1.
         23    2    1    0    0    0 -0.26821321006E+02  0.72381681848E+01 -0.95314689231E+01  0.95629551603E+02  0.91007625509E+02 0.  0.
         13    1    3    3    0    0 -0.50937238691E+02 -0.28088663880E+01  0.21243299115E+02  0.55261025481E+02  0.10566000000E+00 0. -1.
         22    1    1    0    0    0  0.26821321006E+02 -0.72381681848E+01  0.95314689231E+01  0.29370448397E+02  0.00000000000E+00 0.  1.
</event>
<event>
 5    1  0.1758488E-003  0.9118800E+02  0.7818608E-02  0.1130116E+00
         25   -1    0    0    0    0  0.00000000000E+00  0.00000000000E+00  0.99999998245E-14  0.12500000000E+03  0.12500000000E+03 0.  0.
        -13    1    3    3    0    0 -0.44544443501E+02  0.30038562550E+02 -0.11000046990E+02  0.54840996387E+02  0.10566000000E+00 0. -1.
         23    2    1    0    0    0 -0.10913943473E+02  0.97246785522E+01 -0.24571941866E+02  0.96408675055E+02  0.92071541551E+02 0.  0.
         13    1    3    3    0    0  0.33630500028E+02 -0.20313883998E+02 -0.13571894876E+02  0.41567678668E+02  0.10566000000E+00 0.  1.
         22    1    1    0    0    0  0.10913943473E+02 -0.97246785522E+01  0.24571941866E+02  0.28591324945E+02  0.00000000000E+00 0. -1.
</event>
<event>
 5    1  0.1758488E-003  0.9118800E+02  0.7818608E-02  0.1130116E+00
         25   -1    0    0    0    0  0.00000000000E+00  0.00000000000E+00  0.99999998245E-14  0.12500000000E+03  0.12500000000E+03 0.  0.
        -13    1    3    3    0    0  0.40259809172E+02  0.14494132151E+02 -0.14541342630E+02  0.45192852432E+02  0.10566000000E+00 0. -1.
         23    2    1    0    0    0 -0.65539679028E+01 -0.22091992544E+01 -0.27569288364E+02  0.96576405619E+02  0.92298978352E+02 0.  0.
         13    1    3    3    0    0 -0.46813777075E+02 -0.16703331406E+02 -0.13027945734E+02  0.51383553187E+02  0.10566000000E+00 0.  1.
         22    1    1    0    0    0  0.65539679028E+01  0.22091992544E+01  0.27569288364E+02  0.28423594381E+02  0.00000000000E+00 0.  1.
</event>
<event>
 5    1  0.1758488E-003  0.9118800E+02  0.7818608E-02  0.1130116E+00
         25   -1    0    0    0    0  0.00000000000E+00  0.00000000000E+00  0.99999998245E-14  0.12500000000E+03  0.12500000000E+03 0.  0.
        -13    1    3    3    0    0  0.67517688449E+01  0.14128758813E+00  0.46122639348E+02  0.46614540319E+02  0.10566000000E+00 0.  1.
         23    2    1    0    0    0 -0.27759197729E+02 -0.22807809097E+01  0.13989063534E+02  0.93831603848E+02  0.88503677675E+02 0.  0.
         13    1    3    3    0    0 -0.34510966574E+02 -0.24220684978E+01 -0.32133575814E+02  0.47217063529E+02  0.10566000000E+00 0. -1.
         22    1    1    0    0    0  0.27759197729E+02  0.22807809097E+01 -0.13989063534E+02  0.31168396152E+02  0.00000000000E+00 0.  1.
</event>
<event>
 5    1  0.1758488E-003  0.9118800E+02  0.7818608E-02  0.1130116E+00
         25   -1    0    0    0    0  0.00000000000E+00  0.00000000000E+00  0.99999998245E-14  0.12500000000E+03  0.12500000000E+03 0.  0.
        -13    1    3    3    0    0 -0.19491308871E+02 -0.36710061894E+02 -0.12725758810E+02  0.43468331773E+02  0.10566000000E+00 0.  1.
         23    2    1    0    0    0 -0.15677383284E+02  0.14980832315E+02 -0.19620879401E+02  0.95756460680E+02  0.91181769943E+02 0.  0.
         13    1    3    3    0    0  0.38139255872E+01  0.51690894209E+02 -0.68951205913E+01  0.52288128907E+02  0.10566000000E+00 0. -1.
         22    1    1    0    0    0  0.15677383284E+02 -0.14980832315E+02  0.19620879401E+02  0.29243539320E+02  0.00000000000E+00 0. -1.
</event>
<event>
 5    1  0.1758488E-003  0.9118800E+02  0.7818608E-02  0.1130116E+00
         25   -1    0    0    0    0  0.00000000000E+00  0.00000000000E+00  0.99999998245E-14  0.12500000000E+03  0.12500000000E+03 0.  0.
        -13    1    3    3    0    0 -0.33857630812E+02  0.10757498273E+02 -0.45084752066E+02  0.57399555452E+02  0.10566000000E+00 0.  1.
         23    2    1    0    0    0 -0.11668161833E+02  0.55771014391E+01 -0.42786698350E+02  0.80301547939E+02  0.66711220830E+02 0.  0.
         13    1    3    3    0    0  0.22189468979E+02 -0.51803968335E+01  0.22980537158E+01  0.22901992486E+02  0.10566000000E+00 0. -1.
         22    1    1    0    0    0  0.11668161833E+02 -0.55771014391E+01  0.42786698350E+02  0.44698452061E+02  0.00000000000E+00 0.  1.
</event>
<event>
 5    1  0.1758488E-003  0.9118800E+02  0.7818608E-02  0.1130116E+00
         25   -1    0    0    0    0  0.00000000000E+00  0.00000000000E+00  0.99999998245E-14  0.12500000000E+03  0.12500000000E+03 0.  0.
        -13    1    3    3    0    0  0.48676804025E+02 -0.82411256843E+01  0.80264881632E+01  0.50017827611E+02  0.10566000000E+00 0. -1.
         23    2    1    0    0    0  0.13967492639E+02  0.20111495788E+02  0.16289269196E+02  0.95590759881E+02  0.90954329035E+02 0.  0.
         13    1    3    3    0    0 -0.34709311386E+02  0.28352621473E+02  0.82627810330E+01  0.45572932270E+02  0.10566000000E+00 0.  1.
         22    1    1    0    0    0 -0.13967492639E+02 -0.20111495788E+02 -0.16289269196E+02  0.29409240119E+02  0.00000000000E+00 0.  1.
</event>
<event>
 5    1  0.1758488E-003  0.9118800E+02  0.7818608E-02  0.1130116E+00
         25   -1    0    0    0    0  0.00000000000E+00  0.00000000000E+00  0.99999998245E-14  0.12500000000E+03  0.12500000000E+03 0.  0.
        -13    1    3    3    0    0  0.76621829069E+01  0.67676662405E+01 -0.38442440209E+02  0.39778671754E+02  0.10566000000E+00 0. -1.
         23    2    1    0    0    0  0.30237520667E+02 -0.44962466470E+01  0.86726279992E+01  0.93223619363E+02  0.87640771566E+02 0.  0.
         13    1    3    3    0    0  0.22575337760E+02 -0.11263912888E+02  0.47115068209E+02  0.53444947608E+02  0.10566000000E+00 0.  1.
         22    1    1    0    0    0 -0.30237520667E+02  0.44962466470E+01 -0.86726279992E+01  0.31776380637E+02  0.00000000000E+00 0.  1.
</event>
<event>
 5    1  0.1758488E-003  0.9118800E+02  0.7818608E-02  0.1130116E+00
         25   -1    0    0    0    0  0.00000000000E+00  0.00000000000E+00  0.99999998245E-14  0.12500000000E+03  0.12500000000E+03 0.  0.
        -13    1    3    3    0    0 -0.36063909129E+02  0.75391230092E+01  0.16326365192E+02  0.40298948892E+02  0.10566000000E+00 0.  1.
         23    2    1    0    0    0  0.45334396251E+01 -0.14959390247E+02 -0.20267910551E+02  0.99404617028E+02  0.96052872196E+02 0.  0.
         13    1    3    3    0    0  0.40597348754E+02 -0.22498513256E+02 -0.36594275743E+02  0.59105668136E+02  0.10566000000E+00 0. -1.
         22    1    1    0    0    0 -0.45334396251E+01  0.14959390247E+02  0.20267910551E+02  0.25595382972E+02  0.00000000000E+00 0. -1.
</event>
<event>
 5    1  0.1758488E-003  0.9118800E+02  0.7818608E-02  0.1130116E+00
         25   -1    0    0    0    0  0.00000000000E+00  0.00000000000E+00  0.99999998245E-14  0.12500000000E+03  0.12500000000E+03 0.  0.
        -13    1    3    3    0    0  0.40722411463E+02 -0.14833954811E+02 -0.10393468942E+02  0.44569006848E+02  0.10566000000E+00 0. -1.
         23    2    1    0    0    0 -0.62093655155E+00  0.10894604659E+02 -0.26887899821E+02  0.95982123963E+02  0.91490606025E+02 0.  0.
         13    1    3    3    0    0 -0.41343348015E+02  0.25728559470E+02 -0.16494430879E+02  0.51413117116E+02  0.10566000000E+00 0.  1.
         22    1    1    0    0    0  0.62093655155E+00 -0.10894604659E+02  0.26887899821E+02  0.29017876037E+02  0.00000000000E+00 0.  1.
</event>
<event>
 5    1  0.1758488E-003  0.9118800E+02  0.7818608E-02  0.1130116E+00
         25   -1    0    0    0    0  0.00000000000E+00  0.00000000000E+00  0.99999998245E-14  0.12500000000E+03  0.12500000000E+03 0.  0.
        -13    1    3    3    0    0 -0.11737041322E+02 -0.49821425954E+02  0.12701952814E+02  0.52737874364E+02  0.10566000000E+00 0. -1.
         23    2    1    0    0    0  0.51993674310E+01 -0.12470983458E+02  0.25872498269E+02  0.95811902823E+02  0.91257743265E+02 0.  0.
         13    1    3    3    0    0  0.16936408753E+02  0.37350442496E+02  0.13170545455E+02  0.43074028459E+02  0.10566000000E+00 0.  1.
         22    1    1    0    0    0 -0.51993674310E+01  0.12470983458E+02 -0.25872498269E+02  0.29188097177E+02  0.00000000000E+00 0. -1.
</event>
<event>
 5    1  0.1758488E-003  0.9118800E+02  0.7818608E-02  0.1130116E+00
         25   -1    0    0    0    0  0.00000000000E+00  0.00000000000E+00  0.99999998245E-14  0.12500000000E+03  0.12500000000E+03 0.  0.
        -13    1    3    3    0    0  0.14249211456E+02  0.23795572039E+02  0.98852403819E+01  0.29444836852E+02  0.10566000000E+00 0.  1.
         23    2    1    0    0    0  0.38246076018E+02 -0.16686858096E+02 -0.12334705662E+02  0.81487260169E+02  0.68897133773E+02 0.  0.
         13    1    3    3    0    0  0.23996864562E+02 -0.40482430135E+02 -0.22219946044E+02  0.52042423317E+02  0.10566000000E+00 0. -1.
         22    1    1    0    0    0 -0.38246076018E+02  0.16686858096E+02  0.12334705662E+02  0.43512739831E+02  0.00000000000E+00 0. -1.
</event>
<event>
 5    1  0.1758488E-003  0.9118800E+02  0.7818608E-02  0.1130116E+00
         25   -1    0    0    0    0  0.00000000000E+00  0.00000000000E+00  0.99999998245E-14  0.12500000000E+03  0.12500000000E+03 0.  0.
        -13    1    3    3    0    0 -0.22681769167E+01 -0.15263014056E+02 -0.41711888383E+02  0.44474678426E+02  0.10566000000E+00 0. -1.
         23    2    1    0    0    0  0.24633001122E+02  0.10018397005E+02 -0.25627206798E+01  0.98284450968E+02  0.94583892613E+02 0.  0.
         13    1    3    3    0    0  0.26901178039E+02  0.25281411061E+02  0.39149167703E+02  0.53809772542E+02  0.10566000000E+00 0.  1.
         22    1    1    0    0    0 -0.24633001122E+02 -0.10018397005E+02  0.25627206798E+01  0.26715549032E+02  0.00000000000E+00 0.  1.
</event>
<event>
 5    1  0.1758488E-003  0.9118800E+02  0.7818608E-02  0.1130116E+00
         25   -1    0    0    0    0  0.00000000000E+00  0.00000000000E+00  0.99999998245E-14  0.12500000000E+03  0.12500000000E+03 0.  0.
        -13    1    3    3    0    0 -0.24562727383E+02  0.25552430676E+01  0.23809554466E+02  0.34303977780E+02  0.10566000000E+00 0.  1.
         23    2    1    0    0    0  0.26425214390E+02  0.18529526887E+01 -0.11284969115E+02  0.96206321577E+02  0.91796407305E+02 0.  0.
         13    1    3    3    0    0  0.50987941774E+02 -0.70229037885E+00 -0.35094523581E+02  0.61902343796E+02  0.10566000000E+00 0. -1.
         22    1    1    0    0    0 -0.26425214390E+02 -0.18529526887E+01  0.11284969115E+02  0.28793678423E+02  0.00000000000E+00 0. -1.
</event>
<event>
 5    1  0.1758488E-003  0.9118800E+02  0.7818608E-02  0.1130116E+00
         25   -1    0    0    0    0  0.00000000000E+00  0.00000000000E+00  0.99999998245E-14  0.12500000000E+03  0.12500000000E+03 0.  0.
        -13    1    3    3    0    0 -0.41489050917E+02  0.20437065143E+01 -0.46317224697E+02  0.62215870564E+02  0.10566000000E+00 0. -1.
         23    2    1    0    0    0 -0.18838697189E+02  0.50700239834E+01 -0.22407338137E+02  0.95289893010E+02  0.90539898677E+02 0.  0.
         13    1    3    3    0    0  0.22650353728E+02  0.30263174691E+01  0.23909886560E+02  0.33074022446E+02  0.10566000000E+00 0.  1.
         22    1    1    0    0    0  0.18838697189E+02 -0.50700239834E+01  0.22407338137E+02  0.29710106990E+02  0.00000000000E+00 0. -1.
</event>
<event>
 5    1  0.1758488E-003  0.9118800E+02  0.7818608E-02  0.1130116E+00
         25   -1    0    0    0    0  0.00000000000E+00  0.00000000000E+00  0.99999998245E-14  0.12500000000E+03  0.12500000000E+03 0.  0.
        -13    1    3    3    0    0 -0.27275351765E+02 -0.53496422823E+02 -0.61247669370E+01  0.60360053039E+02  0.10566000000E+00 0.  1.
         23    2    1    0    0    0 -0.20472801231E+02 -0.16712575079E+02 -0.65583337289E+01  0.97770282827E+02  0.93901920676E+02 0.  0.
         13    1    3    3    0    0  0.68025505333E+01  0.36783847744E+02 -0.43356679184E+00  0.37410229788E+02  0.10566000000E+00 0. -1.
         22    1    1    0    0    0  0.20472801231E+02  0.16712575079E+02  0.65583337289E+01  0.27229717173E+02  0.00000000000E+00 0.  1.
</event>
<event>
 5    1  0.1758488E-003  0.9118800E+02  0.7818608E-02  0.1130116E+00
         25   -1    0    0    0    0  0.00000000000E+00  0.00000000000E+00  0.99999998245E-14  0.12500000000E+03  0.12500000000E+03 0.  0.
        -13    1    3    3    0    0 -0.90648171018E+01 -0.39811255388E+02 -0.51851055250E+01  0.41158273142E+02  0.10566000000E+00 0.  1.
         23    2    1    0    0    0  0.11647473935E+01  0.93931344460E+01 -0.27329915867E+02  0.96077484333E+02  0.91620800494E+02 0.  0.
         13    1    3    3    0    0  0.10229564495E+02  0.49204389834E+02 -0.22144810342E+02  0.54919211191E+02  0.10566000000E+00 0. -1.
         22    1    1    0    0    0 -0.11647473935E+01 -0.93931344460E+01  0.27329915867E+02  0.28922515667E+02  0.00000000000E+00 0. -1.
</event>
<event>
 5    1  0.1758488E-003  0.9118800E+02  0.7818608E-02  0.1130116E+00
         25   -1    0    0    0    0  0.00000000000E+00  0.00000000000E+00  0.99999998245E-14  0.12500000000E+03  0.12500000000E+03 0.  0.
        -13    1    3    3    0    0 -0.14257903157E+02 -0.31495904978E+02  0.22983641676E+02  0.41515524584E+02  0.10566000000E+00 0. -1.
         23    2    1    0    0    0 -0.27758130596E+02  0.12334081746E+02  0.22187323442E+02  0.87384568218E+02  0.78874216664E+02 0.  0.
         13    1    3    3    0    0 -0.13500227439E+02  0.43829986723E+02 -0.79631823417E+00  0.45869043633E+02  0.10566000000E+00 0.  1.
         22    1    1    0    0    0  0.27758130596E+02 -0.12334081746E+02 -0.22187323442E+02  0.37615431782E+02  0.00000000000E+00 0.  1.
</event>
<event>
 5    1  0.1758488E-003  0.9118800E+02  0.7818608E-02  0.1130116E+00
         25   -1    0    0    0    0  0.00000000000E+00  0.00000000000E+00  0.99999998245E-14  0.12500000000E+03  0.12500000000E+03 0.  0.
        -13    1    3    3    0    0  0.49055973368E+02  0.60875093018E+01  0.31809140427E+01  0.49534590649E+02  0.10566000000E+00 0. -1.
         23    2    1    0    0    0  0.72932351819E+01  0.19589337455E+02  0.19550589028E+02  0.96379046964E+02  0.92031308483E+02 0.  0.
         13    1    3    3    0    0 -0.41762738186E+02  0.13501828153E+02  0.16369674986E+02  0.46844456315E+02  0.10566000000E+00 0.  1.
         22    1    1    0    0    0 -0.72932351819E+01 -0.19589337455E+02 -0.19550589028E+02  0.28620953036E+02  0.00000000000E+00 0. -1.
</event>
<event>
 5    1  0.1758488E-003  0.9118800E+02  0.7818608E-02  0.1130116E+00
         25   -1    0    0    0    0  0.00000000000E+00  0.00000000000E+00  0.99999998245E-14  0.12500000000E+03  0.12500000000E+03 0.  0.
        -13    1    3    3    0    0 -0.19673893137E+02 -0.49992175991E+01 -0.28870281286E+02  0.35292471624E+02  0.10566000000E+00 0.  1.
         23    2    1    0    0    0 -0.21880431233E+02 -0.47338338272E+00  0.26352607937E+02  0.90744528789E+02  0.84030543241E+02 0.  0.
         13    1    3    3    0    0 -0.22065380967E+01  0.45258342164E+01  0.55222889223E+02  0.55452057165E+02  0.10566000000E+00 0. -1.
         22    1    1    0    0    0  0.21880431233E+02  0.47338338272E+00 -0.26352607937E+02  0.34255471211E+02  0.00000000000E+00 0. -1.
</event>
<event>
 5    1  0.1758488E-003  0.9118800E+02  0.7818608E-02  0.1130116E+00
         25   -1    0    0    0    0  0.00000000000E+00  0.00000000000E+00  0.99999998245E-14  0.12500000000E+03  0.12500000000E+03 0.  0.
        -13    1    3    3    0    0  0.11313263616E+02  0.86084696705E+00 -0.20876185462E+02  0.23760414024E+02  0.10566000000E+00 0.  1.
         23    2    1    0    0    0 -0.11278964675E+02 -0.29288520897E+02  0.26242361002E+02  0.84089194442E+02  0.73466309356E+02 0.  0.
         13    1    3    3    0    0 -0.22592228291E+02 -0.30149367864E+02  0.47118546464E+02  0.60328780417E+02  0.10566000000E+00 0. -1.
         22    1    1    0    0    0  0.11278964675E+02  0.29288520897E+02 -0.26242361002E+02  0.40910805558E+02  0.00000000000E+00 0. -1.
</event>
<event>
 5    1  0.1758488E-003  0.9118800E+02  0.7818608E-02  0.1130116E+00
         25   -1    0    0    0    0  0.00000000000E+00  0.00000000000E+00  0.99999998245E-14  0.12500000000E+03  0.12500000000E+03 0.  0.
        -13    1    3    3    0    0  0.11381834379E+02  0.10003664983E+02  0.34696444223E+02  0.37861244996E+02  0.10566000000E+00 0. -1.
         23    2    1    0    0    0 -0.16711329874E+02  0.16326478627E+02 -0.16360089234E+02  0.96478517390E+02  0.92166313518E+02 0.  0.
         13    1    3    3    0    0 -0.28093164254E+02  0.63228136440E+01 -0.51056533457E+02  0.58617272393E+02  0.10566000000E+00 0.  1.
         22    1    1    0    0    0  0.16711329874E+02 -0.16326478627E+02  0.16360089234E+02  0.28521482610E+02  0.00000000000E+00 0.  1.
</event>
<event>
 5    1  0.1758488E-003  0.9118800E+02  0.7818608E-02  0.1130116E+00
         25   -1    0    0    0    0  0.00000000000E+00  0.00000000000E+00  0.99999998245E-14  0.12500000000E+03  0.12500000000E+03 0.  0.
        -13    1    3    3    0    0 -0.25259155790E+02  0.25046317024E+02 -0.42233790687E+02  0.55218178053E+02  0.10566000000E+00 0. -1.
         23    2    1    0    0    0 -0.17389957111E+02 -0.83027368366E+01 -0.24589188744E+02  0.93759413411E+02  0.88401659220E+02 0.  0.
         13    1    3    3    0    0  0.78691986787E+01 -0.33349053860E+02  0.17644601942E+02  0.38541235358E+02  0.10566000000E+00 0.  1.
         22    1    1    0    0    0  0.17389957111E+02  0.83027368366E+01  0.24589188744E+02  0.31240586589E+02  0.00000000000E+00 0. -1.
</event>
<event>
 5    1  0.1758488E-003  0.9118800E+02  0.7818608E-02  0.1130116E+00
         25   -1    0    0    0    0  0.00000000000E+00  0.00000000000E+00  0.99999998245E-14  0.12500000000E+03  0.12500000000E+03 0.  0.
        -13    1    3    3    0    0 -0.33347269537E+02 -0.43753619090E+02  0.19530787596E+02  0.58377070818E+02  0.10566000000E+00 0. -1.
         23    2    1    0    0    0 -0.38511409562E+01 -0.27599615058E+02  0.27112185785E+00  0.97131674878E+02  0.93047937750E+02 0.  0.
         13    1    3    3    0    0  0.29496128581E+02  0.16154004032E+02 -0.19259665738E+02  0.38754604061E+02  0.10566000000E+00 0.  1.
         22    1    1    0    0    0  0.38511409562E+01  0.27599615058E+02 -0.27112185785E+00  0.27868325122E+02  0.00000000000E+00 0. -1.
</event>
<event>
 5    1  0.1758488E-003  0.9118800E+02  0.7818608E-02  0.1130116E+00
         25   -1    0    0    0    0  0.00000000000E+00  0.00000000000E+00  0.99999998245E-14  0.12500000000E+03  0.12500000000E+03 0.  0.
        -13    1    3    3    0    0  0.36952248016E+02 -0.33231029520E+02  0.30728861352E+02  0.58429821499E+02  0.10566000000E+00 0.  1.
         23    2    1    0    0    0  0.74184230563E+01 -0.10558777434E+02  0.26015543599E+02  0.95959867592E+02  0.91460192969E+02 0.  0.
         13    1    3    3    0    0 -0.29533824960E+02  0.22672252086E+02 -0.47133177529E+01  0.37530046092E+02  0.10566000000E+00 0. -1.
         22    1    1    0    0    0 -0.74184230563E+01  0.10558777434E+02 -0.26015543599E+02  0.29040132408E+02  0.00000000000E+00 0. -1.
</event>
<event>
 5    1  0.1758488E-003  0.9118800E+02  0.7818608E-02  0.1130116E+00
         25   -1    0    0    0    0  0.00000000000E+00  0.00000000000E+00  0.99999998245E-14  0.12500000000E+03  0.12500000000E+03 0.  0.
        -13    1    3    3    0    0  0.93675610587E+00  0.37949890272E+02  0.35997510946E+02  0.52315424513E+02  0.10566000000E+00 0.  1.
         23    2    1    0    0    0 -0.21632739976E+02  0.21269979670E+02  0.47893384204E+01  0.94286399812E+02  0.89143703945E+02 0.  0.
         13    1    3    3    0    0 -0.22569496081E+02 -0.16679910602E+02 -0.31208172526E+02  0.41970975298E+02  0.10566000000E+00 0. -1.
         22    1    1    0    0    0  0.21632739976E+02 -0.21269979670E+02 -0.47893384204E+01  0.30713600188E+02  0.00000000000E+00 0.  1.
</event>
<event>
 5    1  0.1758488E-003  0.9118800E+02  0.7818608E-02  0.1130116E+00
         25   -1    0    0    0    0  0.00000000000E+00  0.00000000000E+00  0.99999998245E-14  0.12500000000E+03  0.12500000000E+03 0.  0.
        -13    1    3    3    0    0 -0.58132685084E+02  0.12830763069E+02 -0.11375723575E+02  0.60609040637E+02  0.10566000000E+00 0.  1.
         23    2    1    0    0    0 -0.23595354026E+02  0.30084313322E+01 -0.15281397724E+02  0.96727884637E+02  0.92503898076E+02 0.  0.
         13    1    3    3    0    0  0.34537331057E+02 -0.98223317371E+01 -0.39056741489E+01  0.36118844000E+02  0.10566000000E+00 0. -1.
         22    1    1    0    0    0  0.23595354026E+02 -0.30084313322E+01  0.15281397724E+02  0.28272115363E+02  0.00000000000E+00 0.  1.
</event>
<event>
 5    1  0.1758488E-003  0.9118800E+02  0.7818608E-02  0.1130116E+00
         25   -1    0    0    0    0  0.00000000000E+00  0.00000000000E+00  0.99999998245E-14  0.12500000000E+03  0.12500000000E+03 0.  0.
        -13    1    3    3    0    0  0.35624730838E+02  0.31904735493E+02  0.65398146498E+01  0.48268146161E+02  0.10566000000E+00 0.  1.
         23    2    1    0    0    0  0.11337825773E+02  0.72857568803E+01 -0.25975737752E+02  0.95736242580E+02  0.91154048977E+02 0.  0.
         13    1    3    3    0    0 -0.24286905065E+02 -0.24618978613E+02 -0.32515552402E+02  0.47468096419E+02  0.10566000000E+00 0. -1.
         22    1    1    0    0    0 -0.11337825773E+02 -0.72857568803E+01  0.25975737752E+02  0.29263757420E+02  0.00000000000E+00 0.  1.
</event>
<event>
 5    1  0.1758488E-003  0.9118800E+02  0.7818608E-02  0.1130116E+00
         25   -1    0    0    0    0  0.00000000000E+00  0.00000000000E+00  0.99999998245E-14  0.12500000000E+03  0.12500000000E+03 0.  0.
        -13    1    3    3    0    0  0.32549969580E+02  0.17310825105E+02  0.22959461666E+02  0.43431707651E+02  0.10566000000E+00 0. -1.
         23    2    1    0    0    0 -0.17935482503E+02  0.85728040690E+01 -0.83077023452E+01  0.10345487479E+03  0.10118655393E+03 0.  0.
         13    1    3    3    0    0 -0.50485452083E+02 -0.87380210361E+01 -0.31267164011E+02  0.60023167135E+02  0.10566000000E+00 0.  1.
         22    1    1    0    0    0  0.17935482503E+02 -0.85728040690E+01  0.83077023452E+01  0.21545125214E+02  0.00000000000E+00 0.  1.
</event>
<event>
 5    1  0.1758488E-003  0.9118800E+02  0.7818608E-02  0.1130116E+00
         25   -1    0    0    0    0  0.00000000000E+00  0.00000000000E+00  0.99999998245E-14  0.12500000000E+03  0.12500000000E+03 0.  0.
        -13    1    3    3    0    0  0.36147296494E+02 -0.89338978787E+00 -0.32770920711E+02  0.48799278657E+02  0.10566000000E+00 0.  1.
         23    2    1    0    0    0 -0.73762227957E+01 -0.16013303267E+02 -0.23205274935E+02  0.95856916274E+02  0.91319379479E+02 0.  0.
         13    1    3    3    0    0 -0.43523519289E+02 -0.15119913479E+02  0.95656457765E+01  0.47057637617E+02  0.10566000000E+00 0. -1.
         22    1    1    0    0    0  0.73762227957E+01  0.16013303267E+02  0.23205274935E+02  0.29143083726E+02  0.00000000000E+00 0. -1.
</event>
<event>
 5    1  0.1758488E-003  0.9118800E+02  0.7818608E-02  0.1130116E+00
         25   -1    0    0    0    0  0.00000000000E+00  0.00000000000E+00  0.99999998245E-14  0.12500000000E+03  0.12500000000E+03 0.  0.
        -13    1    3    3    0    0 -0.42768278544E+01 -0.58978246989E+02  0.20600839920E+00  0.59133564732E+02  0.10566000000E+00 0. -1.
         23    2    1    0    0    0 -0.26595768811E+01 -0.33028130622E+02 -0.14304412524E+02  0.88909184281E+02  0.81254514153E+02 0.  0.
         13    1    3    3    0    0  0.16172509733E+01  0.25950116367E+02 -0.14510420924E+02  0.29775619550E+02  0.10566000000E+00 0.  1.
         22    1    1    0    0    0  0.26595768811E+01  0.33028130622E+02  0.14304412524E+02  0.36090815719E+02  0.00000000000E+00 0. -1.
</event>
<event>
 5    1  0.1758488E-003  0.9118800E+02  0.7818608E-02  0.1130116E+00
         25   -1    0    0    0    0  0.00000000000E+00  0.00000000000E+00  0.99999998245E-14  0.12500000000E+03  0.12500000000E+03 0.  0.
        -13    1    3    3    0    0 -0.35960994052E+02  0.20758133026E+02  0.51294676080E+01  0.41837970576E+02  0.10566000000E+00 0. -1.
         23    2    1    0    0    0  0.86000425171E+01  0.38178884043E+00  0.27851158118E+02  0.95848782144E+02  0.91308244622E+02 0.  0.
         13    1    3    3    0    0  0.44561036569E+02 -0.20376344186E+02  0.22721690510E+02  0.54010811567E+02  0.10566000000E+00 0.  1.
         22    1    1    0    0    0 -0.86000425171E+01 -0.38178884043E+00 -0.27851158118E+02  0.29151217856E+02  0.00000000000E+00 0.  1.
</event>
<event>
 5    1  0.1758488E-003  0.9118800E+02  0.7818608E-02  0.1130116E+00
         25   -1    0    0    0    0  0.00000000000E+00  0.00000000000E+00  0.99999998245E-14  0.12500000000E+03  0.12500000000E+03 0.  0.
        -13    1    3    3    0    0 -0.16623339942E+02  0.21840351353E+02  0.25916405910E+02  0.37749273335E+02  0.10566000000E+00 0.  1.
         23    2    1    0    0    0 -0.13640032439E+02 -0.23290914925E+02 -0.10722507234E+02  0.95957111638E+02  0.91456426289E+02 0.  0.
         13    1    3    3    0    0  0.29833075026E+01 -0.45131266278E+02 -0.36638913144E+02  0.58207838303E+02  0.10566000000E+00 0. -1.
         22    1    1    0    0    0  0.13640032439E+02  0.23290914925E+02  0.10722507234E+02  0.29042888362E+02  0.00000000000E+00 0. -1.
</event>
<event>
 5    1  0.1758488E-003  0.9118800E+02  0.7818608E-02  0.1130116E+00
         25   -1    0    0    0    0  0.00000000000E+00  0.00000000000E+00  0.99999998245E-14  0.12500000000E+03  0.12500000000E+03 0.  0.
        -13    1    3    3    0    0  0.46723356411E+01  0.48255307049E+02  0.33496420121E+01  0.48596673183E+02  0.10566000000E+00 0.  1.
         23    2    1    0    0    0 -0.24730730363E+02  0.10227548229E+02  0.84492340431E+01  0.96935764344E+02  0.92784379536E+02 0.  0.
         13    1    3    3    0    0 -0.29403066004E+02 -0.38027758821E+02  0.50995920309E+01  0.48339091161E+02  0.10566000000E+00 0. -1.
         22    1    1    0    0    0  0.24730730363E+02 -0.10227548229E+02 -0.84492340431E+01  0.28064235656E+02  0.00000000000E+00 0. -1.
</event>
<event>
 5    1  0.1758488E-003  0.9118800E+02  0.7818608E-02  0.1130116E+00
         25   -1    0    0    0    0  0.00000000000E+00  0.00000000000E+00  0.99999998245E-14  0.12500000000E+03  0.12500000000E+03 0.  0.
        -13    1    3    3    0    0  0.68928008998E+01 -0.19041407924E+02  0.37747086612E+02  0.42836195346E+02  0.10566000000E+00 0.  1.
         23    2    1    0    0    0 -0.27805228088E+02 -0.14117801910E+02  0.73563178517E+00  0.93807305440E+02  0.88469352659E+02 0.  0.
         13    1    3    3    0    0 -0.34698028988E+02  0.49236060135E+01 -0.37011454827E+02  0.50971110094E+02  0.10566000000E+00 0. -1.
         22    1    1    0    0    0  0.27805228088E+02  0.14117801910E+02 -0.73563178517E+00  0.31192694560E+02  0.00000000000E+00 0. -1.
</event>
<event>
 5    1  0.1758488E-003  0.9118800E+02  0.7818608E-02  0.1130116E+00
         25   -1    0    0    0    0  0.00000000000E+00  0.00000000000E+00  0.99999998245E-14  0.12500000000E+03  0.12500000000E+03 0.  0.
        -13    1    3    3    0    0  0.10381283687E+02  0.43106467428E+02  0.12285599072E+02  0.46009626098E+02  0.10566000000E+00 0. -1.
         23    2    1    0    0    0 -0.13104748463E+02  0.19525819154E+02 -0.21285175067E+02  0.93281697341E+02  0.87723567730E+02 0.  0.
         13    1    3    3    0    0 -0.23486032151E+02 -0.23580648274E+02 -0.33570774139E+02  0.47272071242E+02  0.10566000000E+00 0.  1.
         22    1    1    0    0    0  0.13104748463E+02 -0.19525819154E+02  0.21285175067E+02  0.31718302659E+02  0.00000000000E+00 0.  1.
</event>
<event>
 5    1  0.1758488E-003  0.9118800E+02  0.7818608E-02  0.1130116E+00
         25   -1    0    0    0    0  0.00000000000E+00  0.00000000000E+00  0.99999998245E-14  0.12500000000E+03  0.12500000000E+03 0.  0.
        -13    1    3    3    0    0  0.19962630275E+02 -0.43356375261E+02 -0.12587466617E+02  0.49363320018E+02  0.10566000000E+00 0.  1.
         23    2    1    0    0    0 -0.83940837787E+01 -0.12062605953E+02 -0.27227675653E+02  0.94059518001E+02  0.88824993668E+02 0.  0.
         13    1    3    3    0    0 -0.28356714054E+02  0.31293769308E+02 -0.14640209036E+02  0.44696197983E+02  0.10566000000E+00 0. -1.
         22    1    1    0    0    0  0.83940837787E+01  0.12062605953E+02  0.27227675653E+02  0.30940481999E+02  0.00000000000E+00 0. -1.
</event>
<event>
 5    1  0.1758488E-003  0.9118800E+02  0.7818608E-02  0.1130116E+00
         25   -1    0    0    0    0  0.00000000000E+00  0.00000000000E+00  0.99999998245E-14  0.12500000000E+03  0.12500000000E+03 0.  0.
        -13    1    3    3    0    0 -0.38311764414E+02 -0.83532074006E+00  0.47291301090E+02  0.60868443188E+02  0.10566000000E+00 0.  1.
         23    2    1    0    0    0 -0.15594912247E+02  0.95424641819E+01  0.18340996231E+02  0.99103049342E+02  0.95659617057E+02 0.  0.
         13    1    3    3    0    0  0.22716852167E+02  0.10377784922E+02 -0.28950304859E+02  0.38234606154E+02  0.10566000000E+00 0. -1.
         22    1    1    0    0    0  0.15594912247E+02 -0.95424641819E+01 -0.18340996231E+02  0.25896950658E+02  0.00000000000E+00 0.  1.
</event>
<event>
 5    1  0.1758488E-003  0.9118800E+02  0.7818608E-02  0.1130116E+00
         25   -1    0    0    0    0  0.00000000000E+00  0.00000000000E+00  0.99999998245E-14  0.12500000000E+03  0.12500000000E+03 0.  0.
        -13    1    3    3    0    0  0.43293568607E+00 -0.41794066657E+02 -0.29974586446E+02  0.51433631387E+02  0.10566000000E+00 0. -1.
         23    2    1    0    0    0 -0.98870996262E+01  0.78233472468E+00 -0.28008715766E+02  0.95287124920E+02  0.90536076953E+02 0.  0.
         13    1    3    3    0    0 -0.10320035312E+02  0.42576401382E+02  0.19658706796E+01  0.43853493533E+02  0.10566000000E+00 0.  1.
         22    1    1    0    0    0  0.98870996262E+01 -0.78233472468E+00  0.28008715766E+02  0.29712875080E+02  0.00000000000E+00 0.  1.
</event>
<event>
 5    1  0.1758488E-003  0.9118800E+02  0.7818608E-02  0.1130116E+00
         25   -1    0    0    0    0  0.00000000000E+00  0.00000000000E+00  0.99999998245E-14  0.12500000000E+03  0.12500000000E+03 0.  0.
        -13    1    3    3    0    0 -0.14112588316E+02 -0.35824715854E+02  0.32346439652E+02  0.50287958173E+02  0.10566000000E+00 0. -1.
         23    2    1    0    0    0  0.15805522319E+02 -0.25105638135E+02  0.42763052729E+00  0.95330310587E+02  0.90595682275E+02 0.  0.
         13    1    3    3    0    0  0.29918110635E+02  0.10719077718E+02 -0.31918809125E+02  0.45042352415E+02  0.10566000000E+00 0.  1.
         22    1    1    0    0    0 -0.15805522319E+02  0.25105638135E+02 -0.42763052729E+00  0.29669689413E+02  0.00000000000E+00 0. -1.
</event>
<event>
 5    1  0.1758488E-003  0.9118800E+02  0.7818608E-02  0.1130116E+00
         25   -1    0    0    0    0  0.00000000000E+00  0.00000000000E+00  0.99999998245E-14  0.12500000000E+03  0.12500000000E+03 0.  0.
        -13    1    3    3    0    0 -0.22450991916E+01 -0.49673410436E+02 -0.17778014369E+02  0.52806790602E+02  0.10566000000E+00 0.  1.
         23    2    1    0    0    0 -0.15526129497E+02 -0.92723726452E+01 -0.23096260980E+02  0.95666148175E+02  0.91057877440E+02 0.  0.
         13    1    3    3    0    0 -0.13281030305E+02  0.40401037791E+02 -0.53182466115E+01  0.42859357573E+02  0.10566000000E+00 0. -1.
         22    1    1    0    0    0  0.15526129497E+02  0.92723726452E+01  0.23096260980E+02  0.29333851825E+02  0.00000000000E+00 0. -1.
</event>
<event>
 5    1  0.1758488E-003  0.9118800E+02  0.7818608E-02  0.1130116E+00
         25   -1    0    0    0    0  0.00000000000E+00  0.00000000000E+00  0.99999998245E-14  0.12500000000E+03  0.12500000000E+03 0.  0.
        -13    1    3    3    0    0  0.74699851442E+01 -0.31813670722E+02 -0.20342856123E+02  0.38493548579E+02  0.10566000000E+00 0.  1.
         23    2    1    0    0    0 -0.18112195649E+00 -0.16438633666E+02  0.29509001560E+02  0.91220677108E+02  0.84735879513E+02 0.  0.
         13    1    3    3    0    0 -0.76511071006E+01  0.15375037056E+02  0.49851857684E+02  0.52727128529E+02  0.10566000000E+00 0. -1.
         22    1    1    0    0    0  0.18112195649E+00  0.16438633666E+02 -0.29509001560E+02  0.33779322892E+02  0.00000000000E+00 0. -1.
</event>
<event>
 5    1  0.1758488E-003  0.9118800E+02  0.7818608E-02  0.1130116E+00
         25   -1    0    0    0    0  0.00000000000E+00  0.00000000000E+00  0.99999998245E-14  0.12500000000E+03  0.12500000000E+03 0.  0.
        -13    1    3    3    0    0  0.18389741012E+02 -0.36090540683E+02  0.29916983134E+02  0.50356198676E+02  0.10566000000E+00 0.  1.
         23    2    1    0    0    0 -0.51005071202E+01  0.23349725004E+01  0.29062362120E+02  0.95401213514E+02  0.90693458301E+02 0.  0.
         13    1    3    3    0    0 -0.23490248132E+02  0.38425513183E+02 -0.85462101395E+00  0.45045014838E+02  0.10566000000E+00 0. -1.
         22    1    1    0    0    0  0.51005071202E+01 -0.23349725004E+01 -0.29062362120E+02  0.29598786486E+02  0.00000000000E+00 0.  1.
</event>
<event>
 5    1  0.1758488E-003  0.9118800E+02  0.7818608E-02  0.1130116E+00
         25   -1    0    0    0    0  0.00000000000E+00  0.00000000000E+00  0.99999998245E-14  0.12500000000E+03  0.12500000000E+03 0.  0.
        -13    1    3    3    0    0 -0.51896746177E+02  0.26923471097E+02  0.15687247971E+02  0.60533019688E+02  0.10566000000E+00 0.  1.
         23    2    1    0    0    0 -0.28271381662E+02  0.24055966169E+01  0.52537653432E+01  0.96144151955E+02  0.91711711295E+02 0.  0.
         13    1    3    3    0    0  0.23625364515E+02 -0.24517874480E+02 -0.10433482628E+02  0.35611132266E+02  0.10566000000E+00 0. -1.
         22    1    1    0    0    0  0.28271381662E+02 -0.24055966169E+01 -0.52537653432E+01  0.28855848045E+02  0.00000000000E+00 0.  1.
</event>
<event>
 5    1  0.1758488E-003  0.9118800E+02  0.7818608E-02  0.1130116E+00
         25   -1    0    0    0    0  0.00000000000E+00  0.00000000000E+00  0.99999998245E-14  0.12500000000E+03  0.12500000000E+03 0.  0.
        -13    1    3    3    0    0 -0.22294912955E+02 -0.40975026021E+02  0.84032814796E+01  0.47398757418E+02  0.10566000000E+00 0.  1.
         23    2    1    0    0    0 -0.26088690687E+02  0.77170768605E+01 -0.32239857711E+01  0.97603519545E+02  0.93679666344E+02 0.  0.
         13    1    3    3    0    0 -0.37937777327E+01  0.48692102882E+02 -0.11627267251E+02  0.50204762128E+02  0.10566000000E+00 0. -1.
         22    1    1    0    0    0  0.26088690687E+02 -0.77170768605E+01  0.32239857711E+01  0.27396480455E+02  0.00000000000E+00 0. -1.
</event>
<event>
 5    1  0.1758488E-003  0.9118800E+02  0.7818608E-02  0.1130116E+00
         25   -1    0    0    0    0  0.00000000000E+00  0.00000000000E+00  0.99999998245E-14  0.12500000000E+03  0.12500000000E+03 0.  0.
        -13    1    3    3    0    0  0.87601948607E+01 -0.10696505564E+02  0.35091879110E+02  0.37717467953E+02  0.10566000000E+00 0.  1.
         23    2    1    0    0    0 -0.26793243986E+02 -0.50831048499E+01 -0.10475586559E+02  0.95786068529E+02  0.91222349960E+02 0.  0.
         13    1    3    3    0    0 -0.35553438847E+02  0.56134007140E+01 -0.45567465669E+02  0.58068600577E+02  0.10566000000E+00 0. -1.
         22    1    1    0    0    0  0.26793243986E+02  0.50831048499E+01  0.10475586559E+02  0.29213931471E+02  0.00000000000E+00 0. -1.
</event>
<event>
 5    1  0.1758488E-003  0.9118800E+02  0.7818608E-02  0.1130116E+00
         25   -1    0    0    0    0  0.00000000000E+00  0.00000000000E+00  0.99999998245E-14  0.12500000000E+03  0.12500000000E+03 0.  0.
        -13    1    3    3    0    0 -0.28829319694E+02  0.59067437815E+01 -0.12245695300E+02  0.31874559033E+02  0.10566000000E+00 0. -1.
         23    2    1    0    0    0 -0.25653586219E+01 -0.28828276420E+02 -0.33831546360E+02  0.80477824454E+02  0.67040704900E+02 0.  0.
         13    1    3    3    0    0  0.26263961072E+02 -0.34735020202E+02 -0.21585851060E+02  0.48603265422E+02  0.10566000000E+00 0.  1.
         22    1    1    0    0    0  0.25653586219E+01  0.28828276420E+02  0.33831546360E+02  0.44522175546E+02  0.00000000000E+00 0.  1.
</event>
<event>
 5    1  0.1758488E-003  0.9118800E+02  0.7818608E-02  0.1130116E+00
         25   -1    0    0    0    0  0.00000000000E+00  0.00000000000E+00  0.99999998245E-14  0.12500000000E+03  0.12500000000E+03 0.  0.
        -13    1    3    3    0    0  0.38985271537E+02  0.64492742666E+01 -0.97072593012E+01  0.40690128810E+02  0.10566000000E+00 0.  1.
         23    2    1    0    0    0  0.38638847751E+02 -0.13775156581E+02  0.22115345430E+02  0.78397382071E+02  0.63042410469E+02 0.  0.
         13    1    3    3    0    0 -0.34642378619E+00 -0.20224430848E+02  0.31822604731E+02  0.37707253261E+02  0.10566000000E+00 0. -1.
         22    1    1    0    0    0 -0.38638847751E+02  0.13775156581E+02 -0.22115345430E+02  0.46602617929E+02  0.00000000000E+00 0.  1.
</event>
<event>
 5    1  0.1758488E-003  0.9118800E+02  0.7818608E-02  0.1130116E+00
         25   -1    0    0    0    0  0.00000000000E+00  0.00000000000E+00  0.99999998245E-14  0.12500000000E+03  0.12500000000E+03 0.  0.
        -13    1    3    3    0    0 -0.89070780987E+01  0.38972056694E+02 -0.41047565224E+02  0.57298089132E+02  0.10566000000E+00 0.  1.
         23    2    1    0    0    0 -0.21189219035E+02  0.12385004805E+02 -0.18108343928E+02  0.94499451363E+02  0.89441952354E+02 0.  0.
         13    1    3    3    0    0 -0.12282140937E+02 -0.26587051890E+02  0.22939221297E+02  0.37201362232E+02  0.10566000000E+00 0. -1.
         22    1    1    0    0    0  0.21189219035E+02 -0.12385004805E+02  0.18108343928E+02  0.30500548637E+02  0.00000000000E+00 0. -1.
</event>
<event>
 5    1  0.1758488E-003  0.9118800E+02  0.7818608E-02  0.1130116E+00
         25   -1    0    0    0    0  0.00000000000E+00  0.00000000000E+00  0.99999998245E-14  0.12500000000E+03  0.12500000000E+03 0.  0.
        -13    1    3    3    0    0  0.22426530127E+02  0.50161182849E+01 -0.36553218645E+02  0.43177073239E+02  0.10566000000E+00 0.  1.
         23    2    1    0    0    0 -0.23465560348E+02  0.35128983955E+01 -0.99550701832E+00  0.10125207353E+03  0.98427731771E+02 0.  0.
         13    1    3    3    0    0 -0.45892090475E+02 -0.15032198894E+01  0.35557711626E+02  0.58075000287E+02  0.10566000000E+00 0. -1.
         22    1    1    0    0    0  0.23465560348E+02 -0.35128983955E+01  0.99550701832E+00  0.23747926474E+02  0.00000000000E+00 0. -1.
</event>
<event>
 5    1  0.1758488E-003  0.9118800E+02  0.7818608E-02  0.1130116E+00
         25   -1    0    0    0    0  0.00000000000E+00  0.00000000000E+00  0.99999998245E-14  0.12500000000E+03  0.12500000000E+03 0.  0.
        -13    1    3    3    0    0  0.43251006839E+02  0.36228114740E+02 -0.29511314912E+01  0.56496426712E+02  0.10566000000E+00 0. -1.
         23    2    1    0    0    0  0.27274150527E+02  0.27130037920E+01 -0.12563314624E+02  0.94849103647E+02  0.89929282838E+02 0.  0.
         13    1    3    3    0    0 -0.15976856312E+02 -0.33515110948E+02 -0.96121831326E+01  0.38352676935E+02  0.10566000000E+00 0.  1.
         22    1    1    0    0    0 -0.27274150527E+02 -0.27130037920E+01  0.12563314624E+02  0.30150896353E+02  0.00000000000E+00 0. -1.
</event>
<event>
 5    1  0.1758488E-003  0.9118800E+02  0.7818608E-02  0.1130116E+00
         25   -1    0    0    0    0  0.00000000000E+00  0.00000000000E+00  0.99999998245E-14  0.12500000000E+03  0.12500000000E+03 0.  0.
        -13    1    3    3    0    0  0.31487676991E+02 -0.66298482828E+00  0.50406114184E+02  0.59436528013E+02  0.10566000000E+00 0. -1.
         23    2    1    0    0    0  0.22075248098E+01  0.18191247910E+01  0.29164890384E+02  0.95695167431E+02  0.91097705008E+02 0.  0.
         13    1    3    3    0    0 -0.29280152181E+02  0.24821096193E+01 -0.21241223800E+02  0.36258639418E+02  0.10566000000E+00 0.  1.
         22    1    1    0    0    0 -0.22075248098E+01 -0.18191247910E+01 -0.29164890384E+02  0.29304832569E+02  0.00000000000E+00 0. -1.
</event>
<event>
 5    1  0.1758488E-003  0.9118800E+02  0.7818608E-02  0.1130116E+00
         25   -1    0    0    0    0  0.00000000000E+00  0.00000000000E+00  0.99999998245E-14  0.12500000000E+03  0.12500000000E+03 0.  0.
        -13    1    3    3    0    0  0.14573233867E+02  0.51261568145E+02  0.29536807858E+02  0.60930794321E+02  0.10566000000E+00 0.  1.
         23    2    1    0    0    0 -0.21338625706E+01  0.27002215126E+02  0.10806776264E+02  0.95837362870E+02  0.91292610421E+02 0.  0.
         13    1    3    3    0    0 -0.16707096438E+02 -0.24259353019E+02 -0.18730031594E+02  0.34906568549E+02  0.10566000000E+00 0. -1.
         22    1    1    0    0    0  0.21338625706E+01 -0.27002215126E+02 -0.10806776264E+02  0.29162637130E+02  0.00000000000E+00 0.  1.
</event>
<event>
 5    1  0.1758488E-003  0.9118800E+02  0.7818608E-02  0.1130116E+00
         25   -1    0    0    0    0  0.00000000000E+00  0.00000000000E+00  0.99999998245E-14  0.12500000000E+03  0.12500000000E+03 0.  0.
        -13    1    3    3    0    0  0.21738737793E+02 -0.40189399610E+02 -0.39978463568E+02  0.60712842753E+02  0.10566000000E+00 0.  1.
         23    2    1    0    0    0  0.15993587876E+02 -0.12216834997E+02 -0.24827597632E+02  0.93039782312E+02  0.87378175639E+02 0.  0.
         13    1    3    3    0    0 -0.57451499174E+01  0.27972564613E+02  0.15150865937E+02  0.32326939559E+02  0.10566000000E+00 0. -1.
         22    1    1    0    0    0 -0.15993587876E+02  0.12216834997E+02  0.24827597632E+02  0.31960217688E+02  0.00000000000E+00 0.  1.
</event>
<event>
 5    1  0.1758488E-003  0.9118800E+02  0.7818608E-02  0.1130116E+00
         25   -1    0    0    0    0  0.00000000000E+00  0.00000000000E+00  0.99999998245E-14  0.12500000000E+03  0.12500000000E+03 0.  0.
        -13    1    3    3    0    0 -0.20527012315E+02 -0.26220765396E+02 -0.11017291192E+02  0.35075328106E+02  0.10566000000E+00 0. -1.
         23    2    1    0    0    0  0.28391353618E+02  0.63122787203E+01  0.38116540058E+01  0.95666699313E+02  0.91058634013E+02 0.  0.
         13    1    3    3    0    0  0.48918365933E+02  0.32533044116E+02  0.14828945197E+02  0.60591371207E+02  0.10566000000E+00 0.  1.
         22    1    1    0    0    0 -0.28391353618E+02 -0.63122787203E+01 -0.38116540058E+01  0.29333300687E+02  0.00000000000E+00 0.  1.
</event>
<event>
 5    1  0.1758488E-003  0.9118800E+02  0.7818608E-02  0.1130116E+00
         25   -1    0    0    0    0  0.00000000000E+00  0.00000000000E+00  0.99999998245E-14  0.12500000000E+03  0.12500000000E+03 0.  0.
        -13    1    3    3    0    0  0.53171295415E+02  0.79910053398E+01 -0.26652895273E+02  0.60011922256E+02  0.10566000000E+00 0.  1.
         23    2    1    0    0    0  0.28551595067E+02 -0.64943964122E+01 -0.64013073260E+01  0.95027554302E+02  0.90176984733E+02 0.  0.
         13    1    3    3    0    0 -0.24619700348E+02 -0.14485401752E+02  0.20251587947E+02  0.35015632045E+02  0.10566000000E+00 0. -1.
         22    1    1    0    0    0 -0.28551595067E+02  0.64943964122E+01  0.64013073260E+01  0.29972445698E+02  0.00000000000E+00 0.  1.
</event>
<event>
 5    1  0.1758488E-003  0.9118800E+02  0.7818608E-02  0.1130116E+00
         25   -1    0    0    0    0  0.00000000000E+00  0.00000000000E+00  0.99999998245E-14  0.12500000000E+03  0.12500000000E+03 0.  0.
        -13    1    3    3    0    0  0.32696556212E+02  0.34528328961E+02 -0.22468724609E+02  0.52593963898E+02  0.10566000000E+00 0.  1.
         23    2    1    0    0    0 -0.55051903067E+01  0.19953611849E+02 -0.23742361669E+02  0.93501532041E+02  0.88036259634E+02 0.  0.
         13    1    3    3    0    0 -0.38201746519E+02 -0.14574717113E+02 -0.12736370601E+01  0.40907568143E+02  0.10566000000E+00 0. -1.
         22    1    1    0    0    0  0.55051903067E+01 -0.19953611849E+02  0.23742361669E+02  0.31498467959E+02  0.00000000000E+00 0.  1.
</event>
<event>
 5    1  0.1758488E-003  0.9118800E+02  0.7818608E-02  0.1130116E+00
         25   -1    0    0    0    0  0.00000000000E+00  0.00000000000E+00  0.99999998245E-14  0.12500000000E+03  0.12500000000E+03 0.  0.
        -13    1    3    3    0    0  0.34687391590E+02 -0.12919813764E+02 -0.99061117285E+01  0.38318128042E+02  0.10566000000E+00 0. -1.
         23    2    1    0    0    0 -0.90491815868E+01  0.24217262642E+02 -0.13552529104E+02  0.95810369266E+02  0.91255642656E+02 0.  0.
         13    1    3    3    0    0 -0.43736573177E+02  0.37137076406E+02 -0.36464173755E+01  0.57492241224E+02  0.10566000000E+00 0.  1.
         22    1    1    0    0    0  0.90491815868E+01 -0.24217262642E+02  0.13552529104E+02  0.29189630734E+02  0.00000000000E+00 0.  1.
</event>
<event>
 5    1  0.1758488E-003  0.9118800E+02  0.7818608E-02  0.1130116E+00
         25   -1    0    0    0    0  0.00000000000E+00  0.00000000000E+00  0.99999998245E-14  0.12500000000E+03  0.12500000000E+03 0.  0.
        -13    1    3    3    0    0  0.27410825180E+02  0.87615465826E+01 -0.27835373097E+02  0.40036698104E+02  0.10566000000E+00 0.  1.
         23    2    1    0    0    0 -0.24984907342E+02  0.91285155385E+01 -0.23697791778E+01  0.98294359319E+02  0.94596986368E+02 0.  0.
         13    1    3    3    0    0 -0.52395732521E+02  0.36696895582E+00  0.25465593919E+02  0.58257661216E+02  0.10566000000E+00 0. -1.
         22    1    1    0    0    0  0.24984907342E+02 -0.91285155385E+01  0.23697791778E+01  0.26705640681E+02  0.00000000000E+00 0. -1.
</event>
<event>
 5    1  0.1758488E-003  0.9118800E+02  0.7818608E-02  0.1130116E+00
         25   -1    0    0    0    0  0.00000000000E+00  0.00000000000E+00  0.99999998245E-14  0.12500000000E+03  0.12500000000E+03 0.  0.
        -13    1    3    3    0    0  0.70734203244E+01 -0.11807913966E+02  0.30032846992E+02  0.33036996985E+02  0.10566000000E+00 0. -1.
         23    2    1    0    0    0 -0.14712248510E+02 -0.19043131811E+01 -0.26613526539E+02  0.94531057456E+02  0.89486112688E+02 0.  0.
         13    1    3    3    0    0 -0.21785668835E+02  0.99036007849E+01 -0.56646373530E+02  0.61494060471E+02  0.10566000000E+00 0.  1.
         22    1    1    0    0    0  0.14712248510E+02  0.19043131811E+01  0.26613526539E+02  0.30468942544E+02  0.00000000000E+00 0.  1.
</event>
<event>
 5    1  0.1758488E-003  0.9118800E+02  0.7818608E-02  0.1130116E+00
         25   -1    0    0    0    0  0.00000000000E+00  0.00000000000E+00  0.99999998245E-14  0.12500000000E+03  0.12500000000E+03 0.  0.
        -13    1    3    3    0    0 -0.26629405233E+02 -0.30895074663E+02 -0.32108144253E+02  0.51909295439E+02  0.10566000000E+00 0.  1.
         23    2    1    0    0    0 -0.12367884622E+01 -0.37953329716E+02 -0.11629939491E+02  0.85285514295E+02  0.75474357062E+02 0.  0.
         13    1    3    3    0    0  0.25392616771E+02 -0.70582550524E+01  0.20478204762E+02  0.33376218857E+02  0.10566000000E+00 0. -1.
         22    1    1    0    0    0  0.12367884622E+01  0.37953329716E+02  0.11629939491E+02  0.39714485705E+02  0.00000000000E+00 0.  1.
</event>
<event>
 5    1  0.1758488E-003  0.9118800E+02  0.7818608E-02  0.1130116E+00
         25   -1    0    0    0    0  0.00000000000E+00  0.00000000000E+00  0.99999998245E-14  0.12500000000E+03  0.12500000000E+03 0.  0.
        -13    1    3    3    0    0  0.17534005011E+02 -0.71556554755E+01 -0.24567229709E+02  0.31019424183E+02  0.10566000000E+00 0. -1.
         23    2    1    0    0    0  0.93263583422E+00  0.10893714552E+02  0.31199562239E+02  0.91940122350E+02  0.85790620626E+02 0.  0.
         13    1    3    3    0    0 -0.16601369177E+02  0.18049370028E+02  0.55766791948E+02  0.60920698167E+02  0.10566000000E+00 0.  1.
         22    1    1    0    0    0 -0.93263583422E+00 -0.10893714552E+02 -0.31199562239E+02  0.33059877650E+02  0.00000000000E+00 0.  1.
</event>
<event>
 5    1  0.1758488E-003  0.9118800E+02  0.7818608E-02  0.1130116E+00
         25   -1    0    0    0    0  0.00000000000E+00  0.00000000000E+00  0.99999998245E-14  0.12500000000E+03  0.12500000000E+03 0.  0.
        -13    1    3    3    0    0  0.19966348456E+02  0.82999103324E+01 -0.31711346838E+02  0.38381822058E+02  0.10566000000E+00 0. -1.
         23    2    1    0    0    0 -0.79346338022E+01 -0.27954922825E+02  0.29693764154E+01  0.95789499833E+02  0.91227051680E+02 0.  0.
         13    1    3    3    0    0 -0.27900982258E+02 -0.36254833157E+02  0.34680723253E+02  0.57407677775E+02  0.10566000000E+00 0.  1.
         22    1    1    0    0    0  0.79346338022E+01  0.27954922825E+02 -0.29693764154E+01  0.29210500167E+02  0.00000000000E+00 0.  1.
</event>
<event>
 5    1  0.1758488E-003  0.9118800E+02  0.7818608E-02  0.1130116E+00
         25   -1    0    0    0    0  0.00000000000E+00  0.00000000000E+00  0.99999998245E-14  0.12500000000E+03  0.12500000000E+03 0.  0.
        -13    1    3    3    0    0  0.61486435619E+01  0.11332476003E+02  0.59084860196E+02  0.60475306518E+02  0.10566000000E+00 0.  1.
         23    2    1    0    0    0 -0.88549716117E+00 -0.51659054117E+01  0.29232849021E+02  0.95301007663E+02  0.90555242343E+02 0.  0.
         13    1    3    3    0    0 -0.70341407231E+01 -0.16498381415E+02 -0.29852011175E+02  0.34825701145E+02  0.10566000000E+00 0. -1.
         22    1    1    0    0    0  0.88549716117E+00  0.51659054117E+01 -0.29232849021E+02  0.29698992337E+02  0.00000000000E+00 0.  1.
</event>
<event>
 5    1  0.1758488E-003  0.9118800E+02  0.7818608E-02  0.1130116E+00
         25   -1    0    0    0    0  0.00000000000E+00  0.00000000000E+00  0.99999998245E-14  0.12500000000E+03  0.12500000000E+03 0.  0.
        -13    1    3    3    0    0  0.30285582622E+02 -0.11360337088E+02 -0.40114681575E+02  0.51531278030E+02  0.10566000000E+00 0.  1.
         23    2    1    0    0    0  0.45472199578E+01  0.16918098696E+02 -0.28592381017E+02  0.91467575019E+02  0.85099317006E+02 0.  0.
         13    1    3    3    0    0 -0.25738362664E+02  0.28278435784E+02  0.11522300558E+02  0.39936296989E+02  0.10566000000E+00 0. -1.
         22    1    1    0    0    0 -0.45472199578E+01 -0.16918098696E+02  0.28592381017E+02  0.33532424981E+02  0.00000000000E+00 0.  1.
</event>
<event>
 5    1  0.1758488E-003  0.9118800E+02  0.7818608E-02  0.1130116E+00
         25   -1    0    0    0    0  0.00000000000E+00  0.00000000000E+00  0.99999998245E-14  0.12500000000E+03  0.12500000000E+03 0.  0.
        -13    1    3    3    0    0  0.28367545388E+01  0.17690801795E+02  0.96663632291E+01  0.20358324749E+02  0.10566000000E+00 0. -1.
         23    2    1    0    0    0 -0.21984368898E+02 -0.36464088375E+02  0.14233287000E+02  0.80105360279E+02  0.66342596195E+02 0.  0.
         13    1    3    3    0    0 -0.24821123437E+02 -0.54154890170E+02  0.45669237705E+01  0.59747035531E+02  0.10566000000E+00 0.  1.
         22    1    1    0    0    0  0.21984368898E+02  0.36464088375E+02 -0.14233287000E+02  0.44894639721E+02  0.00000000000E+00 0.  1.
</event>
<event>
 5    1  0.1758488E-003  0.9118800E+02  0.7818608E-02  0.1130116E+00
         25   -1    0    0    0    0  0.00000000000E+00  0.00000000000E+00  0.99999998245E-14  0.12500000000E+03  0.12500000000E+03 0.  0.
        -13    1    3    3    0    0 -0.25051887642E+02 -0.17358529268E+02 -0.17028485836E+02  0.34912692630E+02  0.10566000000E+00 0.  1.
         23    2    1    0    0    0  0.67190231649E+01  0.25626918152E+02  0.12198238726E+02  0.95833559794E+02  0.91287403012E+02 0.  0.
         13    1    3    3    0    0  0.31770910807E+02  0.42985447420E+02  0.29226724561E+02  0.60920867164E+02  0.10566000000E+00 0. -1.
         22    1    1    0    0    0 -0.67190231649E+01 -0.25626918152E+02 -0.12198238726E+02  0.29166440206E+02  0.00000000000E+00 0. -1.
</event>
<event>
 5    1  0.1758488E-003  0.9118800E+02  0.7818608E-02  0.1130116E+00
         25   -1    0    0    0    0  0.00000000000E+00  0.00000000000E+00  0.99999998245E-14  0.12500000000E+03  0.12500000000E+03 0.  0.
        -13    1    3    3    0    0  0.49594357680E+02  0.51971711238E+01 -0.25728969197E+02  0.56112404344E+02  0.10566000000E+00 0. -1.
         23    2    1    0    0    0  0.18783690583E+02 -0.16520597889E+02 -0.16848089387E+02  0.94840170715E+02  0.89916865374E+02 0.  0.
         13    1    3    3    0    0 -0.30810667097E+02 -0.21717769012E+02  0.88808798098E+01  0.38727766371E+02  0.10566000000E+00 0.  1.
         22    1    1    0    0    0 -0.18783690583E+02  0.16520597889E+02  0.16848089387E+02  0.30159829285E+02  0.00000000000E+00 0. -1.
</event>
<event>
 5    1  0.1758488E-003  0.9118800E+02  0.7818608E-02  0.1130116E+00
         25   -1    0    0    0    0  0.00000000000E+00  0.00000000000E+00  0.99999998245E-14  0.12500000000E+03  0.12500000000E+03 0.  0.
        -13    1    3    3    0    0 -0.33948285440E+02  0.10215158142E+02 -0.48751301985E+02  0.60278820074E+02  0.10566000000E+00 0. -1.
         23    2    1    0    0    0 -0.23490079981E+02  0.88690602489E+01 -0.14746277262E+02  0.95881332786E+02  0.91352795231E+02 0.  0.
         13    1    3    3    0    0  0.10458205459E+02 -0.13460978935E+01  0.34005024724E+02  0.35602512712E+02  0.10566000000E+00 0.  1.
         22    1    1    0    0    0  0.23490079981E+02 -0.88690602489E+01  0.14746277262E+02  0.29118667214E+02  0.00000000000E+00 0. -1.
</event>
<event>
 5    1  0.1758488E-003  0.9118800E+02  0.7818608E-02  0.1130116E+00
         25   -1    0    0    0    0  0.00000000000E+00  0.00000000000E+00  0.99999998245E-14  0.12500000000E+03  0.12500000000E+03 0.  0.
        -13    1    3    3    0    0  0.51604189143E+02  0.23675967793E+02 -0.19324150463E+02  0.59974809239E+02  0.10566000000E+00 0. -1.
         23    2    1    0    0    0  0.14277335175E+02  0.88368132739E+01 -0.18310929974E+02  0.10015605255E+03  0.97025837470E+02 0.  0.
         13    1    3    3    0    0 -0.37326853968E+02 -0.14839154519E+02  0.10132204895E+01  0.40181243308E+02  0.10566000000E+00 0.  1.
         22    1    1    0    0    0 -0.14277335175E+02 -0.88368132739E+01  0.18310929974E+02  0.24843947453E+02  0.00000000000E+00 0. -1.
</event>
<event>
 5    1  0.1758488E-003  0.9118800E+02  0.7818608E-02  0.1130116E+00
         25   -1    0    0    0    0  0.00000000000E+00  0.00000000000E+00  0.99999998245E-14  0.12500000000E+03  0.12500000000E+03 0.  0.
        -13    1    3    3    0    0 -0.35195800163E+02  0.97322371413E+01  0.12563903707E+02  0.38617659552E+02  0.10566000000E+00 0. -1.
         23    2    1    0    0    0  0.23939128774E+02  0.94421482025E+01  0.85233165873E+01  0.97891274933E+02  0.94062844594E+02 0.  0.
         13    1    3    3    0    0  0.59134928937E+02 -0.29008893879E+00 -0.40405871196E+01  0.59273615381E+02  0.10566000000E+00 0.  1.
         22    1    1    0    0    0 -0.23939128774E+02 -0.94421482025E+01 -0.85233165873E+01  0.27108725067E+02  0.00000000000E+00 0.  1.
</event>
<event>
 5    1  0.1758488E-003  0.9118800E+02  0.7818608E-02  0.1130116E+00
         25   -1    0    0    0    0  0.00000000000E+00  0.00000000000E+00  0.99999998245E-14  0.12500000000E+03  0.12500000000E+03 0.  0.
        -13    1    3    3    0    0  0.31006257560E+02 -0.16386972065E+02  0.37562895919E+02  0.51389718574E+02  0.10566000000E+00 0.  1.
         23    2    1    0    0    0  0.23476104431E+02 -0.14908922039E+02 -0.67664832612E+01  0.96378526744E+02  0.92030601899E+02 0.  0.
         13    1    3    3    0    0 -0.75301531287E+01  0.14780500251E+01 -0.44329379180E+02  0.44988808170E+02  0.10566000000E+00 0. -1.
         22    1    1    0    0    0 -0.23476104431E+02  0.14908922039E+02  0.67664832612E+01  0.28621473256E+02  0.00000000000E+00 0.  1.
</event>
<event>
 5    1  0.1758488E-003  0.9118800E+02  0.7818608E-02  0.1130116E+00
         25   -1    0    0    0    0  0.00000000000E+00  0.00000000000E+00  0.99999998245E-14  0.12500000000E+03  0.12500000000E+03 0.  0.
        -13    1    3    3    0    0  0.12014296964E+02 -0.26657342200E+02 -0.47745939518E+02  0.55987883772E+02  0.10566000000E+00 0.  1.
         23    2    1    0    0    0  0.19753304002E+02  0.20918677259E+01 -0.22118341810E+02  0.95271394685E+02  0.90514356161E+02 0.  0.
         13    1    3    3    0    0  0.77390070387E+01  0.28749209926E+02  0.25627597709E+02  0.39283510913E+02  0.10566000000E+00 0. -1.
         22    1    1    0    0    0 -0.19753304002E+02 -0.20918677259E+01  0.22118341810E+02  0.29728605315E+02  0.00000000000E+00 0.  1.
</event>
<event>
 5    1  0.1758488E-003  0.9118800E+02  0.7818608E-02  0.1130116E+00
         25   -1    0    0    0    0  0.00000000000E+00  0.00000000000E+00  0.99999998245E-14  0.12500000000E+03  0.12500000000E+03 0.  0.
        -13    1    3    3    0    0  0.18718031450E+02  0.34571928499E+02 -0.45277810861E+02  0.59963941347E+02  0.10566000000E+00 0. -1.
         23    2    1    0    0    0  0.70178439561E+00  0.10475903532E+02 -0.28969842916E+02  0.94186222972E+02  0.89003122097E+02 0.  0.
         13    1    3    3    0    0 -0.18016247054E+02 -0.24096024966E+02  0.16307967946E+02  0.34222281625E+02  0.10566000000E+00 0.  1.
         22    1    1    0    0    0 -0.70178439561E+00 -0.10475903532E+02  0.28969842916E+02  0.30813777028E+02  0.00000000000E+00 0. -1.
</event>
<event>
 5    1  0.1758488E-003  0.9118800E+02  0.7818608E-02  0.1130116E+00
         25   -1    0    0    0    0  0.00000000000E+00  0.00000000000E+00  0.99999998245E-14  0.12500000000E+03  0.12500000000E+03 0.  0.
        -13    1    3    3    0    0 -0.15462996668E+02  0.15457521353E+02  0.30482481122E+02  0.37513091738E+02  0.10566000000E+00 0. -1.
         23    2    1    0    0    0  0.19409989063E+02  0.36060974324E+02  0.10279912440E+02  0.82776568775E+02  0.71197908633E+02 0.  0.
         13    1    3    3    0    0  0.34872985731E+02  0.20603452971E+02 -0.20202568682E+02  0.45263477038E+02  0.10566000000E+00 0.  1.
         22    1    1    0    0    0 -0.19409989063E+02 -0.36060974324E+02 -0.10279912440E+02  0.42223431225E+02  0.00000000000E+00 0.  1.
</event>
<event>
 5    1  0.1758488E-003  0.9118800E+02  0.7818608E-02  0.1130116E+00
         25   -1    0    0    0    0  0.00000000000E+00  0.00000000000E+00  0.99999998245E-14  0.12500000000E+03  0.12500000000E+03 0.  0.
        -13    1    3    3    0    0 -0.65912871576E+01 -0.41147979229E+02  0.40193171346E+02  0.57897352685E+02  0.10566000000E+00 0.  1.
         23    2    1    0    0    0  0.10619082435E+01 -0.63099434348E+01  0.29031275535E+02  0.95271932548E+02  0.90515098945E+02 0.  0.
         13    1    3    3    0    0  0.76531954011E+01  0.34838035794E+02 -0.11161895811E+02  0.37374579863E+02  0.10566000000E+00 0. -1.
         22    1    1    0    0    0 -0.10619082435E+01  0.63099434348E+01 -0.29031275535E+02  0.29728067452E+02  0.00000000000E+00 0.  1.
</event>
<event>
 5    1  0.1758488E-003  0.9118800E+02  0.7818608E-02  0.1130116E+00
         25   -1    0    0    0    0  0.00000000000E+00  0.00000000000E+00  0.99999998245E-14  0.12500000000E+03  0.12500000000E+03 0.  0.
        -13    1    3    3    0    0 -0.32770564578E+02 -0.85129997026E+01 -0.47712122174E+02  0.58505032545E+02  0.10566000000E+00 0.  1.
         23    2    1    0    0    0 -0.24713571625E+01  0.12768845840E+01 -0.29861921986E+02  0.95008794203E+02  0.90150976427E+02 0.  0.
         13    1    3    3    0    0  0.30299207416E+02  0.97898842866E+01  0.17850200188E+02  0.36503761658E+02  0.10566000000E+00 0. -1.
         22    1    1    0    0    0  0.24713571625E+01 -0.12768845840E+01  0.29861921986E+02  0.29991205797E+02  0.00000000000E+00 0.  1.
</event>
<event>
 5    1  0.1758488E-003  0.9118800E+02  0.7818608E-02  0.1130116E+00
         25   -1    0    0    0    0  0.00000000000E+00  0.00000000000E+00  0.99999998245E-14  0.12500000000E+03  0.12500000000E+03 0.  0.
        -13    1    3    3    0    0  0.23532821924E+02  0.98673779270E+00  0.12143777034E+02  0.26499997054E+02  0.10566000000E+00 0. -1.
         23    2    1    0    0    0 -0.21004898779E+02 -0.60700007957E+01  0.39936336169E+02  0.79470211630E+02  0.65134882418E+02 0.  0.
         13    1    3    3    0    0 -0.44537720703E+02 -0.70567385884E+01  0.27792559135E+02  0.52970214576E+02  0.10566000000E+00 0.  1.
         22    1    1    0    0    0  0.21004898779E+02  0.60700007957E+01 -0.39936336169E+02  0.45529788370E+02  0.00000000000E+00 0.  1.
</event>
<event>
 5    1  0.1758488E-003  0.9118800E+02  0.7818608E-02  0.1130116E+00
         25   -1    0    0    0    0  0.00000000000E+00  0.00000000000E+00  0.99999998245E-14  0.12500000000E+03  0.12500000000E+03 0.  0.
        -13    1    3    3    0    0 -0.39343267716E+02 -0.18360326256E+02 -0.13799426854E+02  0.45556883567E+02  0.10566000000E+00 0.  1.
         23    2    1    0    0    0  0.16111263572E+01 -0.28098459136E+02  0.11416857281E+02  0.94627911429E+02  0.89621302475E+02 0.  0.
         13    1    3    3    0    0  0.40954394073E+02 -0.97381328805E+01  0.25216284135E+02  0.49071027863E+02  0.10566000000E+00 0. -1.
         22    1    1    0    0    0 -0.16111263572E+01  0.28098459136E+02 -0.11416857281E+02  0.30372088571E+02  0.00000000000E+00 0. -1.
</event>
<event>
 5    1  0.1758488E-003  0.9118800E+02  0.7818608E-02  0.1130116E+00
         25   -1    0    0    0    0  0.00000000000E+00  0.00000000000E+00  0.99999998245E-14  0.12500000000E+03  0.12500000000E+03 0.  0.
        -13    1    3    3    0    0 -0.30701595972E+02 -0.45351141672E+01  0.16683904889E+02  0.35235196922E+02  0.10566000000E+00 0. -1.
         23    2    1    0    0    0  0.21434630586E+02 -0.65844143680E+01 -0.16579693658E+02  0.97113011229E+02  0.93022861745E+02 0.  0.
         13    1    3    3    0    0  0.52136226558E+02 -0.20493002009E+01 -0.33263598547E+02  0.61877814307E+02  0.10566000000E+00 0.  1.
         22    1    1    0    0    0 -0.21434630586E+02  0.65844143680E+01  0.16579693658E+02  0.27886988771E+02  0.00000000000E+00 0.  1.
</event>
<event>
 5    1  0.1758488E-003  0.9118800E+02  0.7818608E-02  0.1130116E+00
         25   -1    0    0    0    0  0.00000000000E+00  0.00000000000E+00  0.99999998245E-14  0.12500000000E+03  0.12500000000E+03 0.  0.
        -13    1    3    3    0    0 -0.31770240222E+02 -0.10553139439E+02 -0.10580154052E+02  0.35109368259E+02  0.10566000000E+00 0. -1.
         23    2    1    0    0    0  0.15983973119E+02  0.19357511756E+02  0.13625689629E+02  0.96436735552E+02  0.92109629725E+02 0.  0.
         13    1    3    3    0    0  0.47754213341E+02  0.29910651195E+02  0.24205843682E+02  0.61327367293E+02  0.10566000000E+00 0.  1.
         22    1    1    0    0    0 -0.15983973119E+02 -0.19357511756E+02 -0.13625689629E+02  0.28563264448E+02  0.00000000000E+00 0.  1.
</event>
<event>
 5    1  0.1758488E-003  0.9118800E+02  0.7818608E-02  0.1130116E+00
         25   -1    0    0    0    0  0.00000000000E+00  0.00000000000E+00  0.99999998245E-14  0.12500000000E+03  0.12500000000E+03 0.  0.
        -13    1    3    3    0    0  0.50523260068E+02 -0.24100670825E+02 -0.27779372326E+02  0.62491174041E+02  0.10566000000E+00 0. -1.
         23    2    1    0    0    0  0.24114677973E+02 -0.10991395090E+02 -0.12504885860E+02  0.95696405850E+02  0.91099404292E+02 0.  0.
         13    1    3    3    0    0 -0.26408582096E+02  0.13109275736E+02  0.15274486466E+02  0.33205231809E+02  0.10566000000E+00 0.  1.
         22    1    1    0    0    0 -0.24114677973E+02  0.10991395090E+02  0.12504885860E+02  0.29303594150E+02  0.00000000000E+00 0. -1.
</event>
<event>
 5    1  0.1758488E-003  0.9118800E+02  0.7818608E-02  0.1130116E+00
         25   -1    0    0    0    0  0.00000000000E+00  0.00000000000E+00  0.99999998245E-14  0.12500000000E+03  0.12500000000E+03 0.  0.
        -13    1    3    3    0    0 -0.43426265787E+02  0.30837928230E+01  0.17713957287E+01  0.43571772344E+02  0.10566000000E+00 0.  1.
         23    2    1    0    0    0 -0.26742339312E+01 -0.28266019965E+02 -0.70672218388E+01  0.95741410897E+02  0.91161136041E+02 0.  0.
         13    1    3    3    0    0  0.40752031855E+02 -0.31349812788E+02 -0.88386175675E+01  0.52169638553E+02  0.10566000000E+00 0. -1.
         22    1    1    0    0    0  0.26742339312E+01  0.28266019965E+02  0.70672218388E+01  0.29258589103E+02  0.00000000000E+00 0. -1.
</event>
<event>
 5    1  0.1758488E-003  0.9118800E+02  0.7818608E-02  0.1130116E+00
         25   -1    0    0    0    0  0.00000000000E+00  0.00000000000E+00  0.99999998245E-14  0.12500000000E+03  0.12500000000E+03 0.  0.
        -13    1    3    3    0    0 -0.26558756582E+02  0.30794082716E+02  0.14651385892E+00  0.40665411739E+02  0.10566000000E+00 0.  1.
         23    2    1    0    0    0 -0.15870580354E+02 -0.19749891140E+02 -0.16289685676E+02  0.94878788533E+02  0.89970534806E+02 0.  0.
         13    1    3    3    0    0  0.10688176228E+02 -0.50543973856E+02 -0.16436199535E+02  0.54213376795E+02  0.10566000000E+00 0. -1.
         22    1    1    0    0    0  0.15870580354E+02  0.19749891140E+02  0.16289685676E+02  0.30121211467E+02  0.00000000000E+00 0. -1.
</event>
<event>
 5    1  0.1758488E-003  0.9118800E+02  0.7818608E-02  0.1130116E+00
         25   -1    0    0    0    0  0.00000000000E+00  0.00000000000E+00  0.99999998245E-14  0.12500000000E+03  0.12500000000E+03 0.  0.
        -13    1    3    3    0    0  0.25212902340E+02 -0.52405716486E+02  0.12427409861E+02  0.59468489511E+02  0.10566000000E+00 0. -1.
         23    2    1    0    0    0 -0.62707764965E+00 -0.26278315557E+02  0.11712968086E+02  0.96222635349E+02  0.91818619229E+02 0.  0.
         13    1    3    3    0    0 -0.25839979990E+02  0.26127400929E+02 -0.71444177512E+00  0.36754145838E+02  0.10566000000E+00 0.  1.
         22    1    1    0    0    0  0.62707764965E+00  0.26278315557E+02 -0.11712968086E+02  0.28777364651E+02  0.00000000000E+00 0. -1.
</event>
<event>
 5    1  0.1758488E-003  0.9118800E+02  0.7818608E-02  0.1130116E+00
         25   -1    0    0    0    0  0.00000000000E+00  0.00000000000E+00  0.99999998245E-14  0.12500000000E+03  0.12500000000E+03 0.  0.
        -13    1    3    3    0    0 -0.29783072616E+02 -0.38470929960E+02  0.27414403890E+02  0.55844467686E+02  0.10566000000E+00 0.  1.
         23    2    1    0    0    0  0.57206400434E+01 -0.20476938339E+02  0.18909932204E+02  0.96546243444E+02  0.92258120840E+02 0.  0.
         13    1    3    3    0    0  0.35503712659E+02  0.17993991622E+02 -0.85044716869E+01  0.40701775757E+02  0.10566000000E+00 0. -1.
         22    1    1    0    0    0 -0.57206400434E+01  0.20476938339E+02 -0.18909932204E+02  0.28453756556E+02  0.00000000000E+00 0.  1.
</event>
<event>
 5    1  0.1758488E-003  0.9118800E+02  0.7818608E-02  0.1130116E+00
         25   -1    0    0    0    0  0.00000000000E+00  0.00000000000E+00  0.99999998245E-14  0.12500000000E+03  0.12500000000E+03 0.  0.
        -13    1    3    3    0    0 -0.50819756476E+01  0.59190765961E+01 -0.34215171023E+02  0.35093461448E+02  0.10566000000E+00 0.  1.
         23    2    1    0    0    0 -0.11353384151E+02  0.41164836399E+02 -0.36919255309E+01  0.82138905735E+02  0.70069440085E+02 0.  0.
         13    1    3    3    0    0 -0.62714085036E+01  0.35245759803E+02  0.30523245492E+02  0.47045444287E+02  0.10566000000E+00 0. -1.
         22    1    1    0    0    0  0.11353384151E+02 -0.41164836399E+02  0.36919255309E+01  0.42861094265E+02  0.00000000000E+00 0. -1.
</event>
<event>
 5    1  0.1758488E-003  0.9118800E+02  0.7818608E-02  0.1130116E+00
         25   -1    0    0    0    0  0.00000000000E+00  0.00000000000E+00  0.99999998245E-14  0.12500000000E+03  0.12500000000E+03 0.  0.
        -13    1    3    3    0    0 -0.48012578504E+02  0.22221472110E+02  0.60106169835E+01  0.53246034575E+02  0.10566000000E+00 0.  1.
         23    2    1    0    0    0 -0.26011793470E+02 -0.12247184565E+02 -0.55020262712E+01  0.95727500579E+02  0.91142060239E+02 0.  0.
         13    1    3    3    0    0  0.22000785034E+02 -0.34468656675E+02 -0.11512643255E+02  0.42481466004E+02  0.10566000000E+00 0. -1.
         22    1    1    0    0    0  0.26011793470E+02  0.12247184565E+02  0.55020262712E+01  0.29272499421E+02  0.00000000000E+00 0. -1.
</event>
<event>
 5    1  0.1758488E-003  0.9118800E+02  0.7818608E-02  0.1130116E+00
         25   -1    0    0    0    0  0.00000000000E+00  0.00000000000E+00  0.99999998245E-14  0.12500000000E+03  0.12500000000E+03 0.  0.
        -13    1    3    3    0    0 -0.37850552860E+02  0.88105106925E+01  0.26289526287E+02  0.46919503480E+02  0.10566000000E+00 0. -1.
         23    2    1    0    0    0 -0.75033803684E+01  0.27012413817E+02 -0.76374995425E+01  0.95943114131E+02  0.91437292899E+02 0.  0.
         13    1    3    3    0    0  0.30347172491E+02  0.18201903124E+02 -0.33927025829E+02  0.49023610650E+02  0.10566000000E+00 0.  1.
         22    1    1    0    0    0  0.75033803684E+01 -0.27012413817E+02  0.76374995425E+01  0.29056885869E+02  0.00000000000E+00 0. -1.
</event>
<event>
 5    1  0.1758488E-003  0.9118800E+02  0.7818608E-02  0.1130116E+00
         25   -1    0    0    0    0  0.00000000000E+00  0.00000000000E+00  0.99999998245E-14  0.12500000000E+03  0.12500000000E+03 0.  0.
        -13    1    3    3    0    0 -0.47403425305E+02  0.12095759549E+02  0.61807855195E+01  0.49311311110E+02  0.10566000000E+00 0. -1.
         23    2    1    0    0    0 -0.18495263855E+02 -0.18108079099E+02 -0.13819914673E+02  0.95657754767E+02  0.91046354632E+02 0.  0.
         13    1    3    3    0    0  0.28908161449E+02 -0.30203838648E+02 -0.20000700193E+02  0.46346443657E+02  0.10566000000E+00 0.  1.
         22    1    1    0    0    0  0.18495263855E+02  0.18108079099E+02  0.13819914673E+02  0.29342245233E+02  0.00000000000E+00 0.  1.
</event>
<event>
 5    1  0.1758488E-003  0.9118800E+02  0.7818608E-02  0.1130116E+00
         25   -1    0    0    0    0  0.00000000000E+00  0.00000000000E+00  0.99999998245E-14  0.12500000000E+03  0.12500000000E+03 0.  0.
        -13    1    3    3    0    0 -0.70214357773E+01 -0.33406923371E+02 -0.76111666463E+01  0.34975192798E+02  0.10566000000E+00 0.  1.
         23    2    1    0    0    0 -0.23876469787E+01  0.28007948061E+02 -0.20203304446E+01  0.96817953450E+02  0.92625527596E+02 0.  0.
         13    1    3    3    0    0  0.46337887986E+01  0.61414871432E+02  0.55908362017E+01  0.61842760652E+02  0.10566000000E+00 0. -1.
         22    1    1    0    0    0  0.23876469787E+01 -0.28007948061E+02  0.20203304446E+01  0.28182046550E+02  0.00000000000E+00 0. -1.
</event>
<event>
 5    1  0.1758488E-003  0.9118800E+02  0.7818608E-02  0.1130116E+00
         25   -1    0    0    0    0  0.00000000000E+00  0.00000000000E+00  0.99999998245E-14  0.12500000000E+03  0.12500000000E+03 0.  0.
        -13    1    3    3    0    0  0.30685795349E+02  0.40928465770E+02  0.13634517055E+02  0.52940235793E+02  0.10566000000E+00 0. -1.
         23    2    1    0    0    0  0.22441640206E+02 -0.40780410636E+01  0.13095468568E+02  0.98698879661E+02  0.95130015848E+02 0.  0.
         13    1    3    3    0    0 -0.82441551432E+01 -0.45006506833E+02 -0.53904848639E+00  0.45758643868E+02  0.10566000000E+00 0.  1.
         22    1    1    0    0    0 -0.22441640206E+02  0.40780410636E+01 -0.13095468568E+02  0.26301120339E+02  0.00000000000E+00 0.  1.
</event>
<event>
 5    1  0.1758488E-003  0.9118800E+02  0.7818608E-02  0.1130116E+00
         25   -1    0    0    0    0  0.00000000000E+00  0.00000000000E+00  0.99999998245E-14  0.12500000000E+03  0.12500000000E+03 0.  0.
        -13    1    3    3    0    0  0.31978682586E+00 -0.33923759188E+02 -0.84084351739E+01  0.34951919077E+02  0.10566000000E+00 0. -1.
         23    2    1    0    0    0  0.52769025874E+01  0.23383400324E+02  0.14631649681E+02  0.96915942529E+02  0.92757671554E+02 0.  0.
         13    1    3    3    0    0  0.49571157615E+01  0.57307159513E+02  0.23040084855E+02  0.61964023451E+02  0.10566000000E+00 0.  1.
         22    1    1    0    0    0 -0.52769025874E+01 -0.23383400324E+02 -0.14631649681E+02  0.28084057471E+02  0.00000000000E+00 0.  1.
</event>
<event>
 5    1  0.1758488E-003  0.9118800E+02  0.7818608E-02  0.1130116E+00
         25   -1    0    0    0    0  0.00000000000E+00  0.00000000000E+00  0.99999998245E-14  0.12500000000E+03  0.12500000000E+03 0.  0.
        -13    1    3    3    0    0 -0.54972284841E+02 -0.38325370539E+01  0.15622140838E+02  0.57277420414E+02  0.10566000000E+00 0. -1.
         23    2    1    0    0    0 -0.21663732550E+02 -0.18699279114E+02  0.16604654101E+01  0.96334035987E+02  0.91970152750E+02 0.  0.
         13    1    3    3    0    0  0.33308552291E+02 -0.14866742060E+02 -0.13961675427E+02  0.39056615573E+02  0.10566000000E+00 0.  1.
         22    1    1    0    0    0  0.21663732550E+02  0.18699279114E+02 -0.16604654101E+01  0.28665964013E+02  0.00000000000E+00 0. -1.
</event>
<event>
 5    1  0.1758488E-003  0.9118800E+02  0.7818608E-02  0.1130116E+00
         25   -1    0    0    0    0  0.00000000000E+00  0.00000000000E+00  0.99999998245E-14  0.12500000000E+03  0.12500000000E+03 0.  0.
        -13    1    3    3    0    0  0.30034718769E+02 -0.52723098935E+01 -0.21165073200E+00  0.30494877327E+02  0.10566000000E+00 0.  1.
         23    2    1    0    0    0 -0.31088764531E+02  0.76751339205E+01 -0.42238261724E+00  0.92975050854E+02  0.87285524077E+02 0.  0.
         13    1    3    3    0    0 -0.61123483299E+02  0.12947443814E+02 -0.21073188524E+00  0.62480173527E+02  0.10566000000E+00 0. -1.
         22    1    1    0    0    0  0.31088764531E+02 -0.76751339205E+01  0.42238261724E+00  0.32024949146E+02  0.00000000000E+00 0. -1.
</event>
<event>
 5    1  0.1758488E-003  0.9118800E+02  0.7818608E-02  0.1130116E+00
         25   -1    0    0    0    0  0.00000000000E+00  0.00000000000E+00  0.99999998245E-14  0.12500000000E+03  0.12500000000E+03 0.  0.
        -13    1    3    3    0    0 -0.10499673175E+02 -0.72898461923E+00  0.56941078743E+02  0.57905717920E+02  0.10566000000E+00 0. -1.
         23    2    1    0    0    0  0.10860339462E+02  0.10850223940E-01  0.34212919532E+02  0.89104722402E+02  0.81554770556E+02 0.  0.
         13    1    3    3    0    0  0.21360012638E+02  0.73983484317E+00 -0.22728159212E+02  0.31199004482E+02  0.10566000000E+00 0.  1.
         22    1    1    0    0    0 -0.10860339462E+02 -0.10850223940E-01 -0.34212919532E+02  0.35895277598E+02  0.00000000000E+00 0. -1.
</event>
<event>
 5    1  0.1758488E-003  0.9118800E+02  0.7818608E-02  0.1130116E+00
         25   -1    0    0    0    0  0.00000000000E+00  0.00000000000E+00  0.99999998245E-14  0.12500000000E+03  0.12500000000E+03 0.  0.
        -13    1    3    3    0    0 -0.37176528926E+02  0.37392998729E+02  0.68770793310E+01  0.53175521070E+02  0.10566000000E+00 0. -1.
         23    2    1    0    0    0 -0.29150081842E+02 -0.19917218886E+01 -0.55755685941E+01  0.95254728231E+02  0.90491336921E+02 0.  0.
         13    1    3    3    0    0  0.80264470843E+01 -0.39384720617E+02 -0.12452647925E+02  0.42079207161E+02  0.10566000000E+00 0.  1.
         22    1    1    0    0    0  0.29150081842E+02  0.19917218886E+01  0.55755685941E+01  0.29745271769E+02  0.00000000000E+00 0. -1.
</event>
<event>
 5    1  0.1758488E-003  0.9118800E+02  0.7818608E-02  0.1130116E+00
         25   -1    0    0    0    0  0.00000000000E+00  0.00000000000E+00  0.99999998245E-14  0.12500000000E+03  0.12500000000E+03 0.  0.
        -13    1    3    3    0    0  0.41831801799E+02 -0.11730708351E+01 -0.92447866800E+01  0.42857356215E+02  0.10566000000E+00 0. -1.
         23    2    1    0    0    0 -0.11050285624E+02 -0.19874597103E+02 -0.12513823375E+02  0.99044187590E+02  0.95582670488E+02 0.  0.
         13    1    3    3    0    0 -0.52882087423E+02 -0.18701526268E+02 -0.32690366953E+01  0.56186831375E+02  0.10566000000E+00 0.  1.
         22    1    1    0    0    0  0.11050285624E+02  0.19874597103E+02  0.12513823375E+02  0.25955812410E+02  0.00000000000E+00 0.  1.
</event>
<event>
 5    1  0.1758488E-003  0.9118800E+02  0.7818608E-02  0.1130116E+00
         25   -1    0    0    0    0  0.00000000000E+00  0.00000000000E+00  0.99999998245E-14  0.12500000000E+03  0.12500000000E+03 0.  0.
        -13    1    3    3    0    0  0.25081842252E+02 -0.91139028754E+01 -0.21459300682E+02  0.34244339476E+02  0.10566000000E+00 0.  1.
         23    2    1    0    0    0 -0.11359102733E+02  0.17932309453E+02  0.20090040193E+02  0.95773186076E+02  0.91204695707E+02 0.  0.
         13    1    3    3    0    0 -0.36440944984E+02  0.27046212329E+02  0.41549340875E+02  0.61528846599E+02  0.10566000000E+00 0. -1.
         22    1    1    0    0    0  0.11359102733E+02 -0.17932309453E+02 -0.20090040193E+02  0.29226813924E+02  0.00000000000E+00 0. -1.
</event>
<event>
 5    1  0.1758488E-003  0.9118800E+02  0.7818608E-02  0.1130116E+00
         25   -1    0    0    0    0  0.00000000000E+00  0.00000000000E+00  0.99999998245E-14  0.12500000000E+03  0.12500000000E+03 0.  0.
        -13    1    3    3    0    0  0.35009372610E+02  0.67248103049E+01  0.18503134633E+02  0.40165363181E+02  0.10566000000E+00 0. -1.
         23    2    1    0    0    0 -0.18098601773E+02 -0.16811560222E+02  0.54014476923E+01  0.99714360194E+02  0.96455119348E+02 0.  0.
         13    1    3    3    0    0 -0.53107974382E+02 -0.23536370527E+02 -0.13101686941E+02  0.59548997013E+02  0.10566000000E+00 0.  1.
         22    1    1    0    0    0  0.18098601773E+02  0.16811560222E+02 -0.54014476923E+01  0.25285639806E+02  0.00000000000E+00 0.  1.
</event>
<event>
 5    1  0.1758488E-003  0.9118800E+02  0.7818608E-02  0.1130116E+00
         25   -1    0    0    0    0  0.00000000000E+00  0.00000000000E+00  0.99999998245E-14  0.12500000000E+03  0.12500000000E+03 0.  0.
        -13    1    3    3    0    0  0.14647936711E+02 -0.39513748285E+02 -0.38623944730E+02  0.57163962633E+02  0.10566000000E+00 0.  1.
         23    2    1    0    0    0 -0.80523324964E+01 -0.25657468544E+02 -0.98111647296E+01  0.96374754079E+02  0.92025477557E+02 0.  0.
         13    1    3    3    0    0 -0.22700269208E+02  0.13856279741E+02  0.28812780001E+02  0.39210791445E+02  0.10566000000E+00 0. -1.
         22    1    1    0    0    0  0.80523324964E+01  0.25657468544E+02  0.98111647296E+01  0.28625245921E+02  0.00000000000E+00 0.  1.
</event>
<event>
 5    1  0.1758488E-003  0.9118800E+02  0.7818608E-02  0.1130116E+00
         25   -1    0    0    0    0  0.00000000000E+00  0.00000000000E+00  0.99999998245E-14  0.12500000000E+03  0.12500000000E+03 0.  0.
        -13    1    3    3    0    0 -0.10751839379E+02  0.27957074722E+02 -0.34497672043E+02  0.45686985208E+02  0.10566000000E+00 0. -1.
         23    2    1    0    0    0  0.20851925841E+02 -0.52285164283E+01 -0.24150855479E+02  0.92667291860E+02  0.86843669688E+02 0.  0.
         13    1    3    3    0    0  0.31603765220E+02 -0.33185591150E+02  0.10346816564E+02  0.46980306651E+02  0.10566000000E+00 0.  1.
         22    1    1    0    0    0 -0.20851925841E+02  0.52285164283E+01  0.24150855479E+02  0.32332708140E+02  0.00000000000E+00 0.  1.
</event>
<event>
 5    1  0.1758488E-003  0.9118800E+02  0.7818608E-02  0.1130116E+00
         25   -1    0    0    0    0  0.00000000000E+00  0.00000000000E+00  0.99999998245E-14  0.12500000000E+03  0.12500000000E+03 0.  0.
        -13    1    3    3    0    0  0.98141833173E+01  0.54819056422E+02  0.14223255326E+02  0.57478337635E+02  0.10566000000E+00 0.  1.
         23    2    1    0    0    0  0.13998168528E+02  0.17254817777E+02  0.19242658479E+02  0.95606848349E+02  0.90976436989E+02 0.  0.
         13    1    3    3    0    0  0.41839852103E+01 -0.37564238645E+02  0.50194031534E+01  0.38128510714E+02  0.10566000000E+00 0. -1.
         22    1    1    0    0    0 -0.13998168528E+02 -0.17254817777E+02 -0.19242658479E+02  0.29393151651E+02  0.00000000000E+00 0.  1.
</event>
<event>
 5    1  0.1758488E-003  0.9118800E+02  0.7818608E-02  0.1130116E+00
         25   -1    0    0    0    0  0.00000000000E+00  0.00000000000E+00  0.99999998245E-14  0.12500000000E+03  0.12500000000E+03 0.  0.
        -13    1    3    3    0    0 -0.27055300178E+02  0.13222565554E+02  0.12823828222E+02  0.32730524619E+02  0.10566000000E+00 0. -1.
         23    2    1    0    0    0  0.23763224200E+02 -0.15316415715E+02 -0.95466703088E+01  0.95160054814E+02  0.90360465379E+02 0.  0.
         13    1    3    3    0    0  0.50818524377E+02 -0.28538981269E+02 -0.22370498531E+02  0.62429530195E+02  0.10566000000E+00 0.  1.
         22    1    1    0    0    0 -0.23763224200E+02  0.15316415715E+02  0.95466703088E+01  0.29839945186E+02  0.00000000000E+00 0.  1.
</event>
<event>
 5    1  0.1758488E-003  0.9118800E+02  0.7818608E-02  0.1130116E+00
         25   -1    0    0    0    0  0.00000000000E+00  0.00000000000E+00  0.99999998245E-14  0.12500000000E+03  0.12500000000E+03 0.  0.
        -13    1    3    3    0    0 -0.43503494850E+02 -0.35605539001E+02  0.12867634492E+02  0.57670578748E+02  0.10566000000E+00 0.  1.
         23    2    1    0    0    0 -0.16116420242E+02 -0.19837116242E+02 -0.10900990757E+02  0.97213640366E+02  0.93157984583E+02 0.  0.
         13    1    3    3    0    0  0.27387074608E+02  0.15768422759E+02 -0.23768625248E+02  0.39543061618E+02  0.10566000000E+00 0. -1.
         22    1    1    0    0    0  0.16116420242E+02  0.19837116242E+02  0.10900990757E+02  0.27786359634E+02  0.00000000000E+00 0.  1.
</event>
<event>
 5    1  0.1758488E-003  0.9118800E+02  0.7818608E-02  0.1130116E+00
         25   -1    0    0    0    0  0.00000000000E+00  0.00000000000E+00  0.99999998245E-14  0.12500000000E+03  0.12500000000E+03 0.  0.
        -13    1    3    3    0    0  0.12176695241E+01 -0.13346415304E+02 -0.51642566500E+02  0.53353306920E+02  0.10566000000E+00 0.  1.
         23    2    1    0    0    0 -0.30889783480E+01  0.16918523562E+02 -0.28569868399E+02  0.91653101987E+02  0.85371397416E+02 0.  0.
         13    1    3    3    0    0 -0.43066478721E+01  0.30264938866E+02  0.23072698101E+02  0.38299795067E+02  0.10566000000E+00 0. -1.
         22    1    1    0    0    0  0.30889783480E+01 -0.16918523562E+02  0.28569868399E+02  0.33346898013E+02  0.00000000000E+00 0.  1.
</event>
<event>
 5    1  0.1758488E-003  0.9118800E+02  0.7818608E-02  0.1130116E+00
         25   -1    0    0    0    0  0.00000000000E+00  0.00000000000E+00  0.99999998245E-14  0.12500000000E+03  0.12500000000E+03 0.  0.
        -13    1    3    3    0    0  0.35566522699E+01 -0.22470687253E+02 -0.36817223335E+02  0.43279332933E+02  0.10566000000E+00 0. -1.
         23    2    1    0    0    0  0.20506430900E+02  0.14950991850E+02  0.16623277162E+01  0.99567556174E+02  0.96264682223E+02 0.  0.
         13    1    3    3    0    0  0.16949778630E+02  0.37421679102E+02  0.38479551051E+02  0.56288223241E+02  0.10566000000E+00 0.  1.
         22    1    1    0    0    0 -0.20506430900E+02 -0.14950991850E+02 -0.16623277162E+01  0.25432443826E+02  0.00000000000E+00 0.  1.
</event>
<event>
 5    1  0.1758488E-003  0.9118800E+02  0.7818608E-02  0.1130116E+00
         25   -1    0    0    0    0  0.00000000000E+00  0.00000000000E+00  0.99999998245E-14  0.12500000000E+03  0.12500000000E+03 0.  0.
        -13    1    3    3    0    0 -0.32442961040E+02  0.54000366701E+01 -0.24600322429E+01  0.32981343814E+02  0.10566000000E+00 0.  1.
         23    2    1    0    0    0  0.23775624375E+02 -0.86117812262E+01  0.17484615794E+02  0.94256628686E+02  0.89101948191E+02 0.  0.
         13    1    3    3    0    0  0.56218585415E+02 -0.14011817896E+02  0.19944648036E+02  0.61275284872E+02  0.10566000000E+00 0. -1.
         22    1    1    0    0    0 -0.23775624375E+02  0.86117812262E+01 -0.17484615794E+02  0.30743371314E+02  0.00000000000E+00 0. -1.
</event>
<event>
 5    1  0.1758488E-003  0.9118800E+02  0.7818608E-02  0.1130116E+00
         25   -1    0    0    0    0  0.00000000000E+00  0.00000000000E+00  0.99999998245E-14  0.12500000000E+03  0.12500000000E+03 0.  0.
        -13    1    3    3    0    0  0.25975132711E+02 -0.27121166966E+02 -0.12460069214E+02  0.39566775277E+02  0.10566000000E+00 0.  1.
         23    2    1    0    0    0 -0.60926070667E+01  0.18218852587E+02 -0.21867918808E+02  0.95892400933E+02  0.91367938760E+02 0.  0.
         13    1    3    3    0    0 -0.32067739778E+02  0.45340019553E+02 -0.94078495946E+01  0.56325625656E+02  0.10566000000E+00 0. -1.
         22    1    1    0    0    0  0.60926070667E+01 -0.18218852587E+02  0.21867918808E+02  0.29107599067E+02  0.00000000000E+00 0. -1.
</event>
<event>
 5    1  0.1758488E-003  0.9118800E+02  0.7818608E-02  0.1130116E+00
         25   -1    0    0    0    0  0.00000000000E+00  0.00000000000E+00  0.99999998245E-14  0.12500000000E+03  0.12500000000E+03 0.  0.
        -13    1    3    3    0    0  0.45848278044E+02 -0.52841072679E+01 -0.69550413858E+01  0.46673013122E+02  0.10566000000E+00 0. -1.
         23    2    1    0    0    0  0.15921222912E+01 -0.24850016345E+02  0.10309609408E+02  0.98049189031E+02  0.94272462882E+02 0.  0.
         13    1    3    3    0    0 -0.44256155752E+02 -0.19565909077E+02  0.17264650794E+02  0.51376175909E+02  0.10566000000E+00 0.  1.
         22    1    1    0    0    0 -0.15921222912E+01  0.24850016345E+02 -0.10309609408E+02  0.26950810969E+02  0.00000000000E+00 0. -1.
</event>
<event>
 5    1  0.1758488E-003  0.9118800E+02  0.7818608E-02  0.1130116E+00
         25   -1    0    0    0    0  0.00000000000E+00  0.00000000000E+00  0.99999998245E-14  0.12500000000E+03  0.12500000000E+03 0.  0.
        -13    1    3    3    0    0  0.36378490773E+02 -0.65729057414E+01  0.12217920068E+02  0.38934386031E+02  0.10566000000E+00 0. -1.
         23    2    1    0    0    0 -0.93232339356E+01 -0.25733895127E+02 -0.13181716700E+02  0.94620505196E+02  0.89610971978E+02 0.  0.
         13    1    3    3    0    0 -0.45701724709E+02 -0.19160989385E+02 -0.25399636768E+02  0.55686119164E+02  0.10566000000E+00 0.  1.
         22    1    1    0    0    0  0.93232339356E+01  0.25733895127E+02  0.13181716700E+02  0.30379494804E+02  0.00000000000E+00 0.  1.
</event>
<event>
 5    1  0.1758488E-003  0.9118800E+02  0.7818608E-02  0.1130116E+00
         25   -1    0    0    0    0  0.00000000000E+00  0.00000000000E+00  0.99999998245E-14  0.12500000000E+03  0.12500000000E+03 0.  0.
        -13    1    3    3    0    0  0.17072990751E+02  0.48441457466E+02  0.10785714088E+02  0.52482421886E+02  0.10566000000E+00 0.  1.
         23    2    1    0    0    0  0.83272681937E+01  0.95969236483E+01  0.26753984967E+02  0.95382099151E+02  0.90667109736E+02 0.  0.
         13    1    3    3    0    0 -0.87457225572E+01 -0.38844533818E+02  0.15968270878E+02  0.42899677265E+02  0.10566000000E+00 0. -1.
         22    1    1    0    0    0 -0.83272681937E+01 -0.95969236483E+01 -0.26753984967E+02  0.29617900849E+02  0.00000000000E+00 0.  1.
</event>
<event>
 5    1  0.1758488E-003  0.9118800E+02  0.7818608E-02  0.1130116E+00
         25   -1    0    0    0    0  0.00000000000E+00  0.00000000000E+00  0.99999998245E-14  0.12500000000E+03  0.12500000000E+03 0.  0.
        -13    1    3    3    0    0  0.41005484203E+02  0.25265758839E+02 -0.16617088661E+02  0.50950437722E+02  0.10566000000E+00 0.  1.
         23    2    1    0    0    0  0.42907408618E+00  0.29553058941E+02  0.10769618082E+01  0.95424211860E+02  0.90725150676E+02 0.  0.
         13    1    3    3    0    0 -0.40576410117E+02  0.42873001020E+01  0.17694050469E+02  0.44473774139E+02  0.10566000000E+00 0. -1.
         22    1    1    0    0    0 -0.42907408618E+00 -0.29553058941E+02 -0.10769618082E+01  0.29575788140E+02  0.00000000000E+00 0.  1.
</event>
<event>
 5    1  0.1758488E-003  0.9118800E+02  0.7818608E-02  0.1130116E+00
         25   -1    0    0    0    0  0.00000000000E+00  0.00000000000E+00  0.99999998245E-14  0.12500000000E+03  0.12500000000E+03 0.  0.
        -13    1    3    3    0    0 -0.16244067582E+02 -0.43812755422E+02  0.34060967707E+02  0.57823766346E+02  0.10566000000E+00 0. -1.
         23    2    1    0    0    0  0.15854958990E+01 -0.10595565218E+02  0.26693392603E+02  0.96236881111E+02  0.91838011073E+02 0.  0.
         13    1    3    3    0    0  0.17829563481E+02  0.33217190205E+02 -0.73675751038E+01  0.38413114765E+02  0.10566000000E+00 0.  1.
         22    1    1    0    0    0 -0.15854958990E+01  0.10595565218E+02 -0.26693392603E+02  0.28763118889E+02  0.00000000000E+00 0. -1.
</event>
<event>
 5    1  0.1758488E-003  0.9118800E+02  0.7818608E-02  0.1130116E+00
         25   -1    0    0    0    0  0.00000000000E+00  0.00000000000E+00  0.99999998245E-14  0.12500000000E+03  0.12500000000E+03 0.  0.
        -13    1    3    3    0    0 -0.28662369590E+02 -0.19272665955E+02 -0.47178013439E+01  0.34860233750E+02  0.10566000000E+00 0. -1.
         23    2    1    0    0    0  0.22750025041E+02 -0.17176841276E+01 -0.23408492052E+02  0.92312516489E+02  0.86331507123E+02 0.  0.
         13    1    3    3    0    0  0.51412394632E+02  0.17554981827E+02 -0.18690690708E+02  0.57452282739E+02  0.10566000000E+00 0.  1.
         22    1    1    0    0    0 -0.22750025041E+02  0.17176841276E+01  0.23408492052E+02  0.32687483511E+02  0.00000000000E+00 0.  1.
</event>
<event>
 5    1  0.1758488E-003  0.9118800E+02  0.7818608E-02  0.1130116E+00
         25   -1    0    0    0    0  0.00000000000E+00  0.00000000000E+00  0.99999998245E-14  0.12500000000E+03  0.12500000000E+03 0.  0.
        -13    1    3    3    0    0 -0.44887181108E+02 -0.13985157578E+02  0.34454008132E+02  0.58288365054E+02  0.10566000000E+00 0.  1.
         23    2    1    0    0    0 -0.28085876860E+02  0.55253633934E+01  0.78342303996E+01  0.95323051276E+02  0.90585665637E+02 0.  0.
         13    1    3    3    0    0  0.16801304248E+02  0.19510520972E+02 -0.26619777732E+02  0.37034686222E+02  0.10566000000E+00 0. -1.
         22    1    1    0    0    0  0.28085876860E+02 -0.55253633934E+01 -0.78342303996E+01  0.29676948724E+02  0.00000000000E+00 0.  1.
</event>
<event>
 5    1  0.1758488E-003  0.9118800E+02  0.7818608E-02  0.1130116E+00
         25   -1    0    0    0    0  0.00000000000E+00  0.00000000000E+00  0.99999998245E-14  0.12500000000E+03  0.12500000000E+03 0.  0.
        -13    1    3    3    0    0  0.30208930273E+02  0.23684490319E+02  0.46918784115E+02  0.60621102075E+02  0.10566000000E+00 0. -1.
         23    2    1    0    0    0  0.94057072981E+00  0.84956383533E+01  0.20213185895E+02  0.10305385163E+03  0.10068993449E+03 0.  0.
         13    1    3    3    0    0 -0.29268359543E+02 -0.15188851966E+02 -0.26705598220E+02  0.42432749554E+02  0.10566000000E+00 0.  1.
         22    1    1    0    0    0 -0.94057072981E+00 -0.84956383533E+01 -0.20213185895E+02  0.21946148371E+02  0.00000000000E+00 0. -1.
</event>
<event>
 5    1  0.1758488E-003  0.9118800E+02  0.7818608E-02  0.1130116E+00
         25   -1    0    0    0    0  0.00000000000E+00  0.00000000000E+00  0.99999998245E-14  0.12500000000E+03  0.12500000000E+03 0.  0.
        -13    1    3    3    0    0 -0.24918020983E+02  0.53199398864E+02  0.20950578494E+02  0.62370038580E+02  0.10566000000E+00 0.  1.
         23    2    1    0    0    0 -0.90122809992E+01  0.25796898469E+02  0.10323111987E+02  0.95789251627E+02  0.91226711585E+02 0.  0.
         13    1    3    3    0    0  0.15905739984E+02 -0.27402500394E+02 -0.10627466507E+02  0.33419213047E+02  0.10566000000E+00 0. -1.
         22    1    1    0    0    0  0.90122809992E+01 -0.25796898469E+02 -0.10323111987E+02  0.29210748373E+02  0.00000000000E+00 0.  1.
</event>
<event>
 5    1  0.1758488E-003  0.9118800E+02  0.7818608E-02  0.1130116E+00
         25   -1    0    0    0    0  0.00000000000E+00  0.00000000000E+00  0.99999998245E-14  0.12500000000E+03  0.12500000000E+03 0.  0.
        -13    1    3    3    0    0 -0.25751329718E+02  0.27726106262E+02 -0.67402337934E+01  0.38435788874E+02  0.10566000000E+00 0. -1.
         23    2    1    0    0    0  0.17469102548E+02  0.54064358454E+01  0.23127061377E+02  0.95516783413E+02  0.90852605099E+02 0.  0.
         13    1    3    3    0    0  0.43220432266E+02 -0.22319670417E+02  0.29867295171E+02  0.57080994539E+02  0.10566000000E+00 0.  1.
         22    1    1    0    0    0 -0.17469102548E+02 -0.54064358454E+01 -0.23127061377E+02  0.29483216587E+02  0.00000000000E+00 0.  1.
</event>
<event>
 5    1  0.1758488E-003  0.9118800E+02  0.7818608E-02  0.1130116E+00
         25   -1    0    0    0    0  0.00000000000E+00  0.00000000000E+00  0.99999998245E-14  0.12500000000E+03  0.12500000000E+03 0.  0.
        -13    1    3    3    0    0 -0.34185303121E+02  0.18519750832E+02 -0.29541399655E+01  0.38991719984E+02  0.10566000000E+00 0.  1.
         23    2    1    0    0    0  0.46739764738E+00 -0.24509443823E+02 -0.15958204772E+02  0.95749434251E+02  0.91172136987E+02 0.  0.
         13    1    3    3    0    0  0.34652700769E+02 -0.43029194655E+02 -0.13004064806E+02  0.56757714267E+02  0.10566000000E+00 0. -1.
         22    1    1    0    0    0 -0.46739764738E+00  0.24509443823E+02  0.15958204772E+02  0.29250565749E+02  0.00000000000E+00 0. -1.
</event>
<event>
 5    1  0.1758488E-003  0.9118800E+02  0.7818608E-02  0.1130116E+00
         25   -1    0    0    0    0  0.00000000000E+00  0.00000000000E+00  0.99999998245E-14  0.12500000000E+03  0.12500000000E+03 0.  0.
        -13    1    3    3    0    0  0.31663951747E+01  0.33718247872E+02  0.22304871206E+02  0.40552000463E+02  0.10566000000E+00 0.  1.
         23    2    1    0    0    0  0.26739128738E+02 -0.94429739068E+01  0.20938276866E+02  0.89750004256E+02  0.82537876541E+02 0.  0.
         13    1    3    3    0    0  0.23572733563E+02 -0.43161221779E+02 -0.13665943406E+01  0.49198003793E+02  0.10566000000E+00 0. -1.
         22    1    1    0    0    0 -0.26739128738E+02  0.94429739068E+01 -0.20938276866E+02  0.35249995744E+02  0.00000000000E+00 0. -1.
</event>
<event>
 5    1  0.1758488E-003  0.9118800E+02  0.7818608E-02  0.1130116E+00
         25   -1    0    0    0    0  0.00000000000E+00  0.00000000000E+00  0.99999998245E-14  0.12500000000E+03  0.12500000000E+03 0.  0.
        -13    1    3    3    0    0 -0.37819447483E+02  0.29915570812E+02 -0.26597299041E+02  0.55069769068E+02  0.10566000000E+00 0.  1.
         23    2    1    0    0    0 -0.10173785032E+02  0.84678852359E+00 -0.27986363192E+02  0.95209741905E+02  0.90429173811E+02 0.  0.
         13    1    3    3    0    0  0.27645662451E+02 -0.29068782288E+02 -0.13890641505E+01  0.40139972836E+02  0.10566000000E+00 0. -1.
         22    1    1    0    0    0  0.10173785032E+02 -0.84678852359E+00  0.27986363192E+02  0.29790258095E+02  0.00000000000E+00 0.  1.
</event>
<event>
 5    1  0.1758488E-003  0.9118800E+02  0.7818608E-02  0.1130116E+00
         25   -1    0    0    0    0  0.00000000000E+00  0.00000000000E+00  0.99999998245E-14  0.12500000000E+03  0.12500000000E+03 0.  0.
        -13    1    3    3    0    0  0.27415332974E+02 -0.73169444966E+01 -0.21667370825E+02  0.35701880642E+02  0.10566000000E+00 0.  1.
         23    2    1    0    0    0  0.21415455262E+02  0.36459195955E+02 -0.78800556520E+01  0.81988490251E+02  0.69800591422E+02 0.  0.
         13    1    3    3    0    0 -0.59998777123E+01  0.43776140452E+02  0.13787315173E+02  0.46286609610E+02  0.10566000000E+00 0. -1.
         22    1    1    0    0    0 -0.21415455262E+02 -0.36459195955E+02  0.78800556520E+01  0.43011509749E+02  0.00000000000E+00 0. -1.
</event>
<event>
 5    1  0.1758488E-003  0.9118800E+02  0.7818608E-02  0.1130116E+00
         25   -1    0    0    0    0  0.00000000000E+00  0.00000000000E+00  0.99999998245E-14  0.12500000000E+03  0.12500000000E+03 0.  0.
        -13    1    3    3    0    0  0.17791191965E+02 -0.11680104828E+02 -0.50155895371E+02  0.54484643385E+02  0.10566000000E+00 0.  1.
         23    2    1    0    0    0 -0.14016098660E+02 -0.92606714034E+01 -0.23827608903E+02  0.95845823583E+02  0.91304194295E+02 0.  0.
         13    1    3    3    0    0 -0.31807290625E+02  0.24194334249E+01  0.26328286467E+02  0.41361180198E+02  0.10566000000E+00 0. -1.
         22    1    1    0    0    0  0.14016098660E+02  0.92606714034E+01  0.23827608903E+02  0.29154176417E+02  0.00000000000E+00 0.  1.
</event>
<event>
 5    1  0.1758488E-003  0.9118800E+02  0.7818608E-02  0.1130116E+00
         25   -1    0    0    0    0  0.00000000000E+00  0.00000000000E+00  0.99999998245E-14  0.12500000000E+03  0.12500000000E+03 0.  0.
        -13    1    3    3    0    0  0.18527393964E+02 -0.31544964442E+02  0.28058529961E+02  0.46104678465E+02  0.10566000000E+00 0. -1.
         23    2    1    0    0    0  0.42102778148E+01 -0.22022186141E+02 -0.18623665063E+02  0.95853061532E+02  0.91314102870E+02 0.  0.
         13    1    3    3    0    0 -0.14317116149E+02  0.95227783010E+01 -0.46682195024E+02  0.49748383067E+02  0.10566000000E+00 0.  1.
         22    1    1    0    0    0 -0.42102778148E+01  0.22022186141E+02  0.18623665063E+02  0.29146938468E+02  0.00000000000E+00 0.  1.
</event>
<event>
 5    1  0.1758488E-003  0.9118800E+02  0.7818608E-02  0.1130116E+00
         25   -1    0    0    0    0  0.00000000000E+00  0.00000000000E+00  0.99999998245E-14  0.12500000000E+03  0.12500000000E+03 0.  0.
        -13    1    3    3    0    0  0.58843430419E+01  0.10090400377E+01  0.55448683272E+02  0.55769268379E+02  0.10566000000E+00 0. -1.
         23    2    1    0    0    0  0.18779387086E+02  0.13047205059E+02  0.23850140597E+02  0.91958750846E+02  0.85817758718E+02 0.  0.
         13    1    3    3    0    0  0.12895044044E+02  0.12038165021E+02 -0.31598542675E+02  0.36189482467E+02  0.10566000000E+00 0.  1.
         22    1    1    0    0    0 -0.18779387086E+02 -0.13047205059E+02 -0.23850140597E+02  0.33041249154E+02  0.00000000000E+00 0. -1.
</event>
<event>
 5    1  0.1758488E-003  0.9118800E+02  0.7818608E-02  0.1130116E+00
         25   -1    0    0    0    0  0.00000000000E+00  0.00000000000E+00  0.99999998245E-14  0.12500000000E+03  0.12500000000E+03 0.  0.
        -13    1    3    3    0    0 -0.39366135251E+02  0.12690738406E+02  0.41730497423E-01  0.41361338849E+02  0.10566000000E+00 0. -1.
         23    2    1    0    0    0  0.21585809741E+01 -0.16943644920E+02  0.22207521060E+02  0.96983566133E+02  0.92848756229E+02 0.  0.
         13    1    3    3    0    0  0.41524716225E+02 -0.29634383326E+02  0.22165790563E+02  0.55622227284E+02  0.10566000000E+00 0.  1.
         22    1    1    0    0    0 -0.21585809741E+01  0.16943644920E+02 -0.22207521060E+02  0.28016433867E+02  0.00000000000E+00 0.  1.
</event>
<event>
 5    1  0.1758488E-003  0.9118800E+02  0.7818608E-02  0.1130116E+00
         25   -1    0    0    0    0  0.00000000000E+00  0.00000000000E+00  0.99999998245E-14  0.12500000000E+03  0.12500000000E+03 0.  0.
        -13    1    3    3    0    0  0.33805798057E+02 -0.20632168708E+02  0.25574399485E+02  0.47144240804E+02  0.10566000000E+00 0. -1.
         23    2    1    0    0    0 -0.38221342886E+01 -0.19625496662E+02 -0.13087159337E+02  0.10110350299E+03  0.98238870860E+02 0.  0.
         13    1    3    3    0    0 -0.37627932346E+02  0.10066720461E+01 -0.38661558822E+02  0.53959262188E+02  0.10566000000E+00 0.  1.
         22    1    1    0    0    0  0.38221342886E+01  0.19625496662E+02  0.13087159337E+02  0.23896497008E+02  0.00000000000E+00 0.  1.
</event>
<event>
 5    1  0.1758488E-003  0.9118800E+02  0.7818608E-02  0.1130116E+00
         25   -1    0    0    0    0  0.00000000000E+00  0.00000000000E+00  0.99999998245E-14  0.12500000000E+03  0.12500000000E+03 0.  0.
        -13    1    3    3    0    0  0.16998378958E+01  0.63840523705E+01 -0.52053860148E+02  0.52471526506E+02  0.10566000000E+00 0.  1.
         23    2    1    0    0    0  0.24446472017E+02  0.19736200315E+01 -0.14766055088E+02  0.96372014515E+02  0.92021756279E+02 0.  0.
         13    1    3    3    0    0  0.22746634121E+02 -0.44104323391E+01  0.37287805059E+02  0.43900488009E+02  0.10566000000E+00 0. -1.
         22    1    1    0    0    0 -0.24446472017E+02 -0.19736200315E+01  0.14766055088E+02  0.28627985485E+02  0.00000000000E+00 0.  1.
</event>
<event>
 5    1  0.1758488E-003  0.9118800E+02  0.7818608E-02  0.1130116E+00
         25   -1    0    0    0    0  0.00000000000E+00  0.00000000000E+00  0.99999998245E-14  0.12500000000E+03  0.12500000000E+03 0.  0.
        -13    1    3    3    0    0 -0.24831735557E+02  0.35310104796E+02 -0.41102028431E+02  0.59605423383E+02  0.10566000000E+00 0.  1.
         23    2    1    0    0    0 -0.21996126758E+02  0.80105239962E+01 -0.19471104868E+02  0.94551321673E+02  0.89514414584E+02 0.  0.
         13    1    3    3    0    0  0.28356087989E+01 -0.27299580800E+02  0.21630923562E+02  0.34945898290E+02  0.10566000000E+00 0. -1.
         22    1    1    0    0    0  0.21996126758E+02 -0.80105239962E+01  0.19471104868E+02  0.30448678327E+02  0.00000000000E+00 0.  1.
</event>
<event>
 5    1  0.1758488E-003  0.9118800E+02  0.7818608E-02  0.1130116E+00
         25   -1    0    0    0    0  0.00000000000E+00  0.00000000000E+00  0.99999998245E-14  0.12500000000E+03  0.12500000000E+03 0.  0.
        -13    1    3    3    0    0  0.11499935443E+02 -0.16580524540E+02 -0.52525623052E+02  0.56268237490E+02  0.10566000000E+00 0. -1.
         23    2    1    0    0    0  0.82917939330E+01 -0.24484154763E+02 -0.14251174556E+02  0.95481808028E+02  0.90804471294E+02 0.  0.
         13    1    3    3    0    0 -0.32081415101E+01 -0.79036302223E+01  0.38274448496E+02  0.39213570538E+02  0.10566000000E+00 0.  1.
         22    1    1    0    0    0 -0.82917939330E+01  0.24484154763E+02  0.14251174556E+02  0.29518191972E+02  0.00000000000E+00 0. -1.
</event>
<event>
 5    1  0.1758488E-003  0.9118800E+02  0.7818608E-02  0.1130116E+00
         25   -1    0    0    0    0  0.00000000000E+00  0.00000000000E+00  0.99999998245E-14  0.12500000000E+03  0.12500000000E+03 0.  0.
        -13    1    3    3    0    0  0.14545441014E+02 -0.45823876347E+02  0.73186973904E+01  0.48630977712E+02  0.10566000000E+00 0.  1.
         23    2    1    0    0    0  0.10512640683E+02 -0.50632353291E+01  0.28109201591E+02  0.94565165020E+02  0.89533743667E+02 0.  0.
         13    1    3    3    0    0 -0.40328003306E+01  0.40760641018E+02  0.20790504201E+02  0.45934187308E+02  0.10566000000E+00 0. -1.
         22    1    1    0    0    0 -0.10512640683E+02  0.50632353291E+01 -0.28109201591E+02  0.30434834980E+02  0.00000000000E+00 0.  1.
</event>
<event>
 5    1  0.1758488E-003  0.9118800E+02  0.7818608E-02  0.1130116E+00
         25   -1    0    0    0    0  0.00000000000E+00  0.00000000000E+00  0.99999998245E-14  0.12500000000E+03  0.12500000000E+03 0.  0.
        -13    1    3    3    0    0  0.30969758513E+02  0.14493895205E+02  0.86143401090E+01  0.35262117919E+02  0.10566000000E+00 0.  1.
         23    2    1    0    0    0 -0.24288977162E+02  0.63449500853E+01 -0.14834044144E+02  0.95840753288E+02  0.91297252543E+02 0.  0.
         13    1    3    3    0    0 -0.55258735676E+02 -0.81489451195E+01 -0.23448384253E+02  0.60578635369E+02  0.10566000000E+00 0. -1.
         22    1    1    0    0    0  0.24288977162E+02 -0.63449500853E+01  0.14834044144E+02  0.29159246712E+02  0.00000000000E+00 0. -1.
</event>
<event>
 5    1  0.1758488E-003  0.9118800E+02  0.7818608E-02  0.1130116E+00
         25   -1    0    0    0    0  0.00000000000E+00  0.00000000000E+00  0.99999998245E-14  0.12500000000E+03  0.12500000000E+03 0.  0.
        -13    1    3    3    0    0  0.39910000896E+01 -0.29718716687E+02 -0.13281396340E+02  0.32795378577E+02  0.10566000000E+00 0.  1.
         23    2    1    0    0    0 -0.34166525303E+01  0.30295473431E+02 -0.10217006370E+01  0.94495359417E+02  0.89436233453E+02 0.  0.
         13    1    3    3    0    0 -0.74076526199E+01  0.60014190118E+02  0.12259695703E+02  0.61699980840E+02  0.10566000000E+00 0. -1.
         22    1    1    0    0    0  0.34166525303E+01 -0.30295473431E+02  0.10217006370E+01  0.30504640583E+02  0.00000000000E+00 0. -1.
</event>
<event>
 5    1  0.1758488E-003  0.9118800E+02  0.7818608E-02  0.1130116E+00
         25   -1    0    0    0    0  0.00000000000E+00  0.00000000000E+00  0.99999998245E-14  0.12500000000E+03  0.12500000000E+03 0.  0.
        -13    1    3    3    0    0 -0.51845408853E+02  0.16698174575E+02 -0.87556382239E+01  0.55167452525E+02  0.10566000000E+00 0. -1.
         23    2    1    0    0    0 -0.23153750037E+02 -0.94014982544E+01 -0.16941921047E+02  0.94808726444E+02  0.89873141766E+02 0.  0.
         13    1    3    3    0    0  0.28691658817E+02 -0.26099672829E+02 -0.81862828229E+01  0.39641273919E+02  0.10566000000E+00 0.  1.
         22    1    1    0    0    0  0.23153750037E+02  0.94014982544E+01  0.16941921047E+02  0.30191273556E+02  0.00000000000E+00 0.  1.
</event>
<event>
 5    1  0.1758488E-003  0.9118800E+02  0.7818608E-02  0.1130116E+00
         25   -1    0    0    0    0  0.00000000000E+00  0.00000000000E+00  0.99999998245E-14  0.12500000000E+03  0.12500000000E+03 0.  0.
        -13    1    3    3    0    0  0.70621772428E+00  0.26273555615E+02 -0.49612995603E+02  0.56144981653E+02  0.10566000000E+00 0.  1.
         23    2    1    0    0    0  0.42171412511E+01 -0.69294895301E+01 -0.27832754855E+02  0.96009236845E+02  0.91527641788E+02 0.  0.
         13    1    3    3    0    0  0.35109235268E+01 -0.33203045145E+02  0.21780240748E+02  0.39864255192E+02  0.10566000000E+00 0. -1.
         22    1    1    0    0    0 -0.42171412511E+01  0.69294895301E+01  0.27832754855E+02  0.28990763155E+02  0.00000000000E+00 0.  1.
</event>
<event>
 5    1  0.1758488E-003  0.9118800E+02  0.7818608E-02  0.1130116E+00
         25   -1    0    0    0    0  0.00000000000E+00  0.00000000000E+00  0.99999998245E-14  0.12500000000E+03  0.12500000000E+03 0.  0.
        -13    1    3    3    0    0  0.67924094638E+01 -0.49090771643E+02 -0.47132345677E+01  0.49782189897E+02  0.10566000000E+00 0.  1.
         23    2    1    0    0    0  0.17914308459E+02 -0.20603071625E+01  0.14571964988E+02  0.10181574938E+03  0.99140997298E+02 0.  0.
         13    1    3    3    0    0  0.11121898995E+02  0.47030464481E+02  0.19285199556E+02  0.52033559483E+02  0.10566000000E+00 0. -1.
         22    1    1    0    0    0 -0.17914308459E+02  0.20603071625E+01 -0.14571964988E+02  0.23184250619E+02  0.00000000000E+00 0. -1.
</event>
<event>
 5    1  0.1758488E-003  0.9118800E+02  0.7818608E-02  0.1130116E+00
         25   -1    0    0    0    0  0.00000000000E+00  0.00000000000E+00  0.99999998245E-14  0.12500000000E+03  0.12500000000E+03 0.  0.
        -13    1    3    3    0    0 -0.35006267327E+02 -0.67115216627E+01 -0.12513276819E+02  0.37776666555E+02  0.10566000000E+00 0.  1.
         23    2    1    0    0    0  0.43370032841E+01  0.14645838013E+02  0.24678509267E+02  0.95976923178E+02  0.91483500121E+02 0.  0.
         13    1    3    3    0    0  0.39343270611E+02  0.21357359675E+02  0.37191786086E+02  0.58200256623E+02  0.10566000000E+00 0. -1.
         22    1    1    0    0    0 -0.43370032841E+01 -0.14645838013E+02 -0.24678509267E+02  0.29023076822E+02  0.00000000000E+00 0. -1.
</event>
<event>
 5    1  0.1758488E-003  0.9118800E+02  0.7818608E-02  0.1130116E+00
         25   -1    0    0    0    0  0.00000000000E+00  0.00000000000E+00  0.99999998245E-14  0.12500000000E+03  0.12500000000E+03 0.  0.
        -13    1    3    3    0    0 -0.30099859875E+02  0.56930724448E+01 -0.28938127650E+02  0.42140705195E+02  0.10566000000E+00 0.  1.
         23    2    1    0    0    0 -0.14300745659E+02  0.77385607556E+01  0.23205994868E+02  0.96664247905E+02  0.92417866109E+02 0.  0.
         13    1    3    3    0    0  0.15799114216E+02  0.20454883108E+01  0.52144122518E+02  0.54523542710E+02  0.10566000000E+00 0. -1.
         22    1    1    0    0    0  0.14300745659E+02 -0.77385607556E+01 -0.23205994868E+02  0.28335752095E+02  0.00000000000E+00 0. -1.
</event>
<event>
 5    1  0.1758488E-003  0.9118800E+02  0.7818608E-02  0.1130116E+00
         25   -1    0    0    0    0  0.00000000000E+00  0.00000000000E+00  0.99999998245E-14  0.12500000000E+03  0.12500000000E+03 0.  0.
        -13    1    3    3    0    0  0.52307970603E+02 -0.30113559357E+02 -0.78775110916E+01  0.60868847458E+02  0.10566000000E+00 0. -1.
         23    2    1    0    0    0  0.30290092333E+02 -0.93774432225E+01 -0.11368713155E+02  0.91315080915E+02  0.84875027121E+02 0.  0.
         13    1    3    3    0    0 -0.22017878270E+02  0.20736116135E+02 -0.34912020632E+01  0.30446233458E+02  0.10566000000E+00 0.  1.
         22    1    1    0    0    0 -0.30290092333E+02  0.93774432225E+01  0.11368713155E+02  0.33684919085E+02  0.00000000000E+00 0. -1.
</event>
<event>
 5    1  0.1758488E-003  0.9118800E+02  0.7818608E-02  0.1130116E+00
         25   -1    0    0    0    0  0.00000000000E+00  0.00000000000E+00  0.99999998245E-14  0.12500000000E+03  0.12500000000E+03 0.  0.
        -13    1    3    3    0    0  0.20937178365E+02 -0.43569376662E+02  0.26032343146E+02  0.54903097129E+02  0.10566000000E+00 0.  1.
         23    2    1    0    0    0  0.16145012281E+02 -0.95203472534E+01  0.30114302470E+02  0.89529312854E+02  0.82202969614E+02 0.  0.
         13    1    3    3    0    0 -0.47921660837E+01  0.34049029409E+02  0.40819593239E+01  0.34626215725E+02  0.10566000000E+00 0. -1.
         22    1    1    0    0    0 -0.16145012281E+02  0.95203472534E+01 -0.30114302470E+02  0.35470687146E+02  0.00000000000E+00 0.  1.
</event>
<event>
 5    1  0.1758488E-003  0.9118800E+02  0.7818608E-02  0.1130116E+00
         25   -1    0    0    0    0  0.00000000000E+00  0.00000000000E+00  0.99999998245E-14  0.12500000000E+03  0.12500000000E+03 0.  0.
        -13    1    3    3    0    0 -0.21376444945E+02 -0.13547259174E+02  0.47860873437E+02  0.54140142221E+02  0.10566000000E+00 0.  1.
         23    2    1    0    0    0 -0.24865776034E+02 -0.13999473218E+02  0.63934053748E+01  0.95756749489E+02  0.91182165867E+02 0.  0.
         13    1    3    3    0    0 -0.34893310894E+01 -0.45221404454E+00 -0.41467468062E+02  0.41616607268E+02  0.10566000000E+00 0. -1.
         22    1    1    0    0    0  0.24865776034E+02  0.13999473218E+02 -0.63934053748E+01  0.29243250511E+02  0.00000000000E+00 0.  1.
</event>
<event>
 5    1  0.1758488E-003  0.9118800E+02  0.7818608E-02  0.1130116E+00
         25   -1    0    0    0    0  0.00000000000E+00  0.00000000000E+00  0.99999998245E-14  0.12500000000E+03  0.12500000000E+03 0.  0.
        -13    1    3    3    0    0 -0.39935001620E+02  0.22097850940E+02 -0.42690812484E+02  0.62495087848E+02  0.10566000000E+00 0. -1.
         23    2    1    0    0    0 -0.17373408820E+02  0.10130361447E+02 -0.19231908452E+02  0.97173288736E+02  0.93103824755E+02 0.  0.
         13    1    3    3    0    0  0.22561592799E+02 -0.11967489494E+02  0.23458904032E+02  0.34678200888E+02  0.10566000000E+00 0.  1.
         22    1    1    0    0    0  0.17373408820E+02 -0.10130361447E+02  0.19231908452E+02  0.27826711264E+02  0.00000000000E+00 0. -1.
</event>
<event>
 5    1  0.1758488E-003  0.9118800E+02  0.7818608E-02  0.1130116E+00
         25   -1    0    0    0    0  0.00000000000E+00  0.00000000000E+00  0.99999998245E-14  0.12500000000E+03  0.12500000000E+03 0.  0.
        -13    1    3    3    0    0 -0.25948296679E+02 -0.28214379085E+01  0.35606047380E+02  0.44148345229E+02  0.10566000000E+00 0.  1.
         23    2    1    0    0    0  0.85913364843E+01  0.26060683184E+02  0.11198982891E+02  0.95362397391E+02  0.90639943445E+02 0.  0.
         13    1    3    3    0    0  0.34539633163E+02  0.28882121093E+02 -0.24407064489E+02  0.51214052162E+02  0.10566000000E+00 0. -1.
         22    1    1    0    0    0 -0.85913364843E+01 -0.26060683184E+02 -0.11198982891E+02  0.29637602609E+02  0.00000000000E+00 0. -1.
</event>
<event>
 5    1  0.1758488E-003  0.9118800E+02  0.7818608E-02  0.1130116E+00
         25   -1    0    0    0    0  0.00000000000E+00  0.00000000000E+00  0.99999998245E-14  0.12500000000E+03  0.12500000000E+03 0.  0.
        -13    1    3    3    0    0  0.44514208851E+02  0.21144346644E+02 -0.26711016018E+02  0.56054328337E+02  0.10566000000E+00 0. -1.
         23    2    1    0    0    0  0.10003563986E+02  0.25284547916E+02 -0.41476526263E+01  0.97493951974E+02  0.93533352305E+02 0.  0.
         13    1    3    3    0    0 -0.34510644865E+02  0.41402012714E+01  0.22563363391E+02  0.41439623636E+02  0.10566000000E+00 0.  1.
         22    1    1    0    0    0 -0.10003563986E+02 -0.25284547916E+02  0.41476526263E+01  0.27506048026E+02  0.00000000000E+00 0. -1.
</event>
<event>
 5    1  0.1758488E-003  0.9118800E+02  0.7818608E-02  0.1130116E+00
         25   -1    0    0    0    0  0.00000000000E+00  0.00000000000E+00  0.99999998245E-14  0.12500000000E+03  0.12500000000E+03 0.  0.
        -13    1    3    3    0    0  0.12510477761E+02  0.50255001647E+02  0.18339038361E+02  0.54940046745E+02  0.10566000000E+00 0.  1.
         23    2    1    0    0    0  0.18191189985E+02  0.19192713176E+02 -0.93638606460E+01  0.96947165592E+02  0.92799738136E+02 0.  0.
         13    1    3    3    0    0  0.56807122234E+01 -0.31062288471E+02 -0.27702899007E+02  0.42007118847E+02  0.10566000000E+00 0. -1.
         22    1    1    0    0    0 -0.18191189985E+02 -0.19192713176E+02  0.93638606460E+01  0.28052834408E+02  0.00000000000E+00 0. -1.
</event>
<event>
 5    1  0.1758488E-003  0.9118800E+02  0.7818608E-02  0.1130116E+00
         25   -1    0    0    0    0  0.00000000000E+00  0.00000000000E+00  0.99999998245E-14  0.12500000000E+03  0.12500000000E+03 0.  0.
        -13    1    3    3    0    0 -0.50378679602E+02 -0.29043152508E+02  0.77066694660E+00  0.58156007064E+02  0.10566000000E+00 0. -1.
         23    2    1    0    0    0 -0.33357305911E+02 -0.14676838437E+01 -0.54926191164E+01  0.91161666438E+02  0.84648783863E+02 0.  0.
         13    1    3    3    0    0  0.17021373691E+02  0.27575468664E+02 -0.62632860630E+01  0.33005659374E+02  0.10566000000E+00 0.  1.
         22    1    1    0    0    0  0.33357305911E+02  0.14676838437E+01  0.54926191164E+01  0.33838333562E+02  0.00000000000E+00 0. -1.
</event>
<event>
 5    1  0.1758488E-003  0.9118800E+02  0.7818608E-02  0.1130116E+00
         25   -1    0    0    0    0  0.00000000000E+00  0.00000000000E+00  0.99999998245E-14  0.12500000000E+03  0.12500000000E+03 0.  0.
        -13    1    3    3    0    0 -0.55985477825E+00 -0.50745752941E+02  0.17705796056E+02  0.53748965171E+02  0.10566000000E+00 0.  1.
         23    2    1    0    0    0 -0.21293118847E+02 -0.26276532359E+02 -0.15249578005E+01  0.91144741039E+02  0.84623786607E+02 0.  0.
         13    1    3    3    0    0 -0.20733264069E+02  0.24469220582E+02 -0.19230753857E+02  0.37395775868E+02  0.10566000000E+00 0. -1.
         22    1    1    0    0    0  0.21293118847E+02  0.26276532359E+02  0.15249578005E+01  0.33855258961E+02  0.00000000000E+00 0. -1.
</event>
<event>
 5    1  0.1758488E-003  0.9118800E+02  0.7818608E-02  0.1130116E+00
         25   -1    0    0    0    0  0.00000000000E+00  0.00000000000E+00  0.99999998245E-14  0.12500000000E+03  0.12500000000E+03 0.  0.
        -13    1    3    3    0    0  0.33785643535E+02  0.49688238070E+01 -0.22387534665E+02  0.40833464113E+02  0.10566000000E+00 0. -1.
         23    2    1    0    0    0 -0.53431572348E+01  0.23595682471E+02  0.13672792897E+02  0.97210598673E+02  0.93153903130E+02 0.  0.
         13    1    3    3    0    0 -0.39128800769E+02  0.18626858664E+02  0.36060327562E+02  0.56377134560E+02  0.10566000000E+00 0.  1.
         22    1    1    0    0    0  0.53431572348E+01 -0.23595682471E+02 -0.13672792897E+02  0.27789401327E+02  0.00000000000E+00 0.  1.
</event>
<event>
 5    1  0.1758488E-003  0.9118800E+02  0.7818608E-02  0.1130116E+00
         25   -1    0    0    0    0  0.00000000000E+00  0.00000000000E+00  0.99999998245E-14  0.12500000000E+03  0.12500000000E+03 0.  0.
        -13    1    3    3    0    0  0.53550377593E+02 -0.75978001985E+01 -0.11985236422E+02  0.55398795694E+02  0.10566000000E+00 0.  1.
         23    2    1    0    0    0  0.23674144092E+02 -0.98194996127E+01  0.14643791542E+02  0.95481729355E+02  0.90804362994E+02 0.  0.
         13    1    3    3    0    0 -0.29876233502E+02 -0.22216994143E+01  0.26629027964E+02  0.40082933661E+02  0.10566000000E+00 0. -1.
         22    1    1    0    0    0 -0.23674144092E+02  0.98194996127E+01 -0.14643791542E+02  0.29518270645E+02  0.00000000000E+00 0.  1.
</event>
<event>
 5    1  0.1758488E-003  0.9118800E+02  0.7818608E-02  0.1130116E+00
         25   -1    0    0    0    0  0.00000000000E+00  0.00000000000E+00  0.99999998245E-14  0.12500000000E+03  0.12500000000E+03 0.  0.
        -13    1    3    3    0    0 -0.31892797199E+02  0.68007383826E+01  0.27507892735E+02  0.42662581761E+02  0.10566000000E+00 0.  1.
         23    2    1    0    0    0  0.66997889518E+01  0.27471806726E+02 -0.37770675978E+01  0.96471880951E+02  0.92157312449E+02 0.  0.
         13    1    3    3    0    0  0.38592586151E+02  0.20671068344E+02 -0.31284960333E+02  0.53809299191E+02  0.10566000000E+00 0. -1.
         22    1    1    0    0    0 -0.66997889518E+01 -0.27471806726E+02  0.37770675978E+01  0.28528119049E+02  0.00000000000E+00 0. -1.
</event>
<event>
 5    1  0.1758488E-003  0.9118800E+02  0.7818608E-02  0.1130116E+00
         25   -1    0    0    0    0  0.00000000000E+00  0.00000000000E+00  0.99999998245E-14  0.12500000000E+03  0.12500000000E+03 0.  0.
        -13    1    3    3    0    0 -0.93029903942E+01 -0.40503414045E+02  0.43968120301E+02  0.60500239226E+02  0.10566000000E+00 0. -1.
         23    2    1    0    0    0 -0.15137286396E+02 -0.16462059731E+02  0.18910786608E+02  0.95712550467E+02  0.91121554074E+02 0.  0.
         13    1    3    3    0    0 -0.58342960017E+01  0.24041354314E+02 -0.25057333693E+02  0.35212311241E+02  0.10566000000E+00 0.  1.
         22    1    1    0    0    0  0.15137286396E+02  0.16462059731E+02 -0.18910786608E+02  0.29287449533E+02  0.00000000000E+00 0. -1.
</event>
<event>
 5    1  0.1758488E-003  0.9118800E+02  0.7818608E-02  0.1130116E+00
         25   -1    0    0    0    0  0.00000000000E+00  0.00000000000E+00  0.99999998245E-14  0.12500000000E+03  0.12500000000E+03 0.  0.
        -13    1    3    3    0    0  0.40610822384E+02  0.86055654793E+01 -0.45196385801E+02  0.61367899633E+02  0.10566000000E+00 0. -1.
         23    2    1    0    0    0  0.13007826125E+02 -0.48860928100E+00 -0.25172883977E+02  0.96660692188E+02  0.92413056692E+02 0.  0.
         13    1    3    3    0    0 -0.27602996259E+02 -0.90941747603E+01  0.20023501824E+02  0.35292792555E+02  0.10566000000E+00 0.  1.
         22    1    1    0    0    0 -0.13007826125E+02  0.48860928100E+00  0.25172883977E+02  0.28339307812E+02  0.00000000000E+00 0. -1.
</event>
<event>
 5    1  0.1758488E-003  0.9118800E+02  0.7818608E-02  0.1130116E+00
         25   -1    0    0    0    0  0.00000000000E+00  0.00000000000E+00  0.99999998245E-14  0.12500000000E+03  0.12500000000E+03 0.  0.
        -13    1    3    3    0    0 -0.24613976016E+02  0.34364018017E+02  0.32753057002E+02  0.53474362610E+02  0.10566000000E+00 0. -1.
         23    2    1    0    0    0 -0.29288148836E+02  0.28337727719E+01  0.62723771567E+01  0.94913979233E+02  0.90019413508E+02 0.  0.
         13    1    3    3    0    0 -0.46741728204E+01 -0.31530245245E+02 -0.26480679846E+02  0.41439616623E+02  0.10566000000E+00 0.  1.
         22    1    1    0    0    0  0.29288148836E+02 -0.28337727719E+01 -0.62723771567E+01  0.30086020767E+02  0.00000000000E+00 0. -1.
</event>
<event>
 5    1  0.1758488E-003  0.9118800E+02  0.7818608E-02  0.1130116E+00
         25   -1    0    0    0    0  0.00000000000E+00  0.00000000000E+00  0.99999998245E-14  0.12500000000E+03  0.12500000000E+03 0.  0.
        -13    1    3    3    0    0  0.48394341325E+02 -0.77646126178E+01  0.30380927498E+02  0.57665530441E+02  0.10566000000E+00 0. -1.
         23    2    1    0    0    0  0.13562019841E+02  0.71619555006E+01  0.24615420623E+02  0.95997570426E+02  0.91511707483E+02 0.  0.
         13    1    3    3    0    0 -0.34832321485E+02  0.14926568118E+02 -0.57655068744E+01  0.38332039984E+02  0.10566000000E+00 0.  1.
         22    1    1    0    0    0 -0.13562019841E+02 -0.71619555006E+01 -0.24615420623E+02  0.29002429574E+02  0.00000000000E+00 0. -1.
</event>
<event>
 5    1  0.1758488E-003  0.9118800E+02  0.7818608E-02  0.1130116E+00
         25   -1    0    0    0    0  0.00000000000E+00  0.00000000000E+00  0.99999998245E-14  0.12500000000E+03  0.12500000000E+03 0.  0.
        -13    1    3    3    0    0 -0.14388817605E+02 -0.58685868972E+02  0.82105929157E+01  0.60979457928E+02  0.10566000000E+00 0. -1.
         23    2    1    0    0    0 -0.12155987612E+02 -0.25704578505E+02 -0.41357740781E+01  0.96266778493E+02  0.91878695155E+02 0.  0.
         13    1    3    3    0    0  0.22328299932E+01  0.32981290468E+02 -0.12346366994E+02  0.35287320565E+02  0.10566000000E+00 0.  1.
         22    1    1    0    0    0  0.12155987612E+02  0.25704578505E+02  0.41357740781E+01  0.28733221507E+02  0.00000000000E+00 0. -1.
</event>
<event>
 5    1  0.1758488E-003  0.9118800E+02  0.7818608E-02  0.1130116E+00
         25   -1    0    0    0    0  0.00000000000E+00  0.00000000000E+00  0.99999998245E-14  0.12500000000E+03  0.12500000000E+03 0.  0.
        -13    1    3    3    0    0  0.21635589648E+02  0.46205213557E+02  0.12846085108E+02  0.52612294817E+02  0.10566000000E+00 0.  1.
         23    2    1    0    0    0  0.27205695534E+02  0.27297838140E+01  0.64474237057E+01  0.96907814937E+02  0.92746718186E+02 0.  0.
         13    1    3    3    0    0  0.55701058856E+01 -0.43475429743E+02 -0.63986614021E+01  0.44295520120E+02  0.10566000000E+00 0. -1.
         22    1    1    0    0    0 -0.27205695534E+02 -0.27297838140E+01 -0.64474237057E+01  0.28092185063E+02  0.00000000000E+00 0.  1.
</event>
<event>
 5    1  0.1758488E-003  0.9118800E+02  0.7818608E-02  0.1130116E+00
         25   -1    0    0    0    0  0.00000000000E+00  0.00000000000E+00  0.99999998245E-14  0.12500000000E+03  0.12500000000E+03 0.  0.
        -13    1    3    3    0    0 -0.19378813508E+02  0.11642219161E+02 -0.25588521969E+02  0.34144740453E+02  0.10566000000E+00 0. -1.
         23    2    1    0    0    0  0.26996646836E+01 -0.17096832672E+02  0.23904069629E+02  0.95487385381E+02  0.90812148665E+02 0.  0.
         13    1    3    3    0    0  0.22078478192E+02 -0.28739051834E+02  0.49492591598E+02  0.61342644928E+02  0.10566000000E+00 0.  1.
         22    1    1    0    0    0 -0.26996646836E+01  0.17096832672E+02 -0.23904069629E+02  0.29512614619E+02  0.00000000000E+00 0.  1.
</event>
<event>
 5    1  0.1758488E-003  0.9118800E+02  0.7818608E-02  0.1130116E+00
         25   -1    0    0    0    0  0.00000000000E+00  0.00000000000E+00  0.99999998245E-14  0.12500000000E+03  0.12500000000E+03 0.  0.
        -13    1    3    3    0    0 -0.18945909845E+02  0.42121083696E+02 -0.25892873165E+02  0.52948892683E+02  0.10566000000E+00 0. -1.
         23    2    1    0    0    0 -0.20353511647E+02 -0.16490465132E+01 -0.18665964766E+02  0.97334081772E+02  0.93319453722E+02 0.  0.
         13    1    3    3    0    0 -0.14076018016E+01 -0.43770130209E+02  0.72269083988E+01  0.44385189088E+02  0.10566000000E+00 0.  1.
         22    1    1    0    0    0  0.20353511647E+02  0.16490465132E+01  0.18665964766E+02  0.27665918228E+02  0.00000000000E+00 0. -1.
</event>
<event>
 5    1  0.1758488E-003  0.9118800E+02  0.7818608E-02  0.1130116E+00
         25   -1    0    0    0    0  0.00000000000E+00  0.00000000000E+00  0.99999998245E-14  0.12500000000E+03  0.12500000000E+03 0.  0.
        -13    1    3    3    0    0 -0.19380934327E+02 -0.45811642286E+01 -0.32754084454E+02  0.38333391365E+02  0.10566000000E+00 0. -1.
         23    2    1    0    0    0 -0.65752857297E+01  0.26126449424E+02  0.13145279486E+02  0.95022940193E+02  0.90170588599E+02 0.  0.
         13    1    3    3    0    0  0.12805648597E+02  0.30707613652E+02  0.45899363940E+02  0.56689548828E+02  0.10566000000E+00 0.  1.
         22    1    1    0    0    0  0.65752857297E+01 -0.26126449424E+02 -0.13145279486E+02  0.29977059807E+02  0.00000000000E+00 0.  1.
</event>
<event>
 5    1  0.1758488E-003  0.9118800E+02  0.7818608E-02  0.1130116E+00
         25   -1    0    0    0    0  0.00000000000E+00  0.00000000000E+00  0.99999998245E-14  0.12500000000E+03  0.12500000000E+03 0.  0.
        -13    1    3    3    0    0 -0.39809921609E+02 -0.35700233311E+02 -0.16967407337E+02  0.56100272662E+02  0.10566000000E+00 0.  1.
         23    2    1    0    0    0 -0.28487739400E+02  0.82020290308E+00 -0.60261557873E+01  0.95870314412E+02  0.91337717307E+02 0.  0.
         13    1    3    3    0    0  0.11322182210E+02  0.36520436214E+02  0.10941251549E+02  0.39770041750E+02  0.10566000000E+00 0. -1.
         22    1    1    0    0    0  0.28487739400E+02 -0.82020290308E+00  0.60261557873E+01  0.29129685588E+02  0.00000000000E+00 0.  1.
</event>
<event>
 5    1  0.1758488E-003  0.9118800E+02  0.7818608E-02  0.1130116E+00
         25   -1    0    0    0    0  0.00000000000E+00  0.00000000000E+00  0.99999998245E-14  0.12500000000E+03  0.12500000000E+03 0.  0.
        -13    1    3    3    0    0 -0.62610764366E+00 -0.16741595297E+02  0.24420339014E+02  0.29614812940E+02  0.10566000000E+00 0.  1.
         23    2    1    0    0    0 -0.43631588394E+02 -0.45032658169E+01  0.25351251378E+02  0.74337579457E+02  0.54400320443E+02 0.  0.
         13    1    3    3    0    0 -0.43005480751E+02  0.12238329480E+02  0.93091236385E+00  0.44722766517E+02  0.10566000000E+00 0. -1.
         22    1    1    0    0    0  0.43631588394E+02  0.45032658169E+01 -0.25351251378E+02  0.50662420543E+02  0.00000000000E+00 0. -1.
</event>
<event>
 5    1  0.1758488E-003  0.9118800E+02  0.7818608E-02  0.1130116E+00
         25   -1    0    0    0    0  0.00000000000E+00  0.00000000000E+00  0.99999998245E-14  0.12500000000E+03  0.12500000000E+03 0.  0.
        -13    1    3    3    0    0  0.21121854511E+02 -0.40336206027E+02 -0.27858006432E+02  0.53378103573E+02  0.10566000000E+00 0. -1.
         23    2    1    0    0    0 -0.66153148502E+01 -0.72998937609E+01 -0.26711379917E+02  0.96529863777E+02  0.92235925454E+02 0.  0.
         13    1    3    3    0    0 -0.27737169361E+02  0.33036312266E+02  0.11466265150E+01  0.43151760204E+02  0.10566000000E+00 0.  1.
         22    1    1    0    0    0  0.66153148502E+01  0.72998937609E+01  0.26711379917E+02  0.28470136223E+02  0.00000000000E+00 0. -1.
</event>
<event>
 5    1  0.1758488E-003  0.9118800E+02  0.7818608E-02  0.1130116E+00
         25   -1    0    0    0    0  0.00000000000E+00  0.00000000000E+00  0.99999998245E-14  0.12500000000E+03  0.12500000000E+03 0.  0.
        -13    1    3    3    0    0 -0.12272308952E+02 -0.30481745004E+02 -0.17935980241E+02  0.37436037407E+02  0.10566000000E+00 0. -1.
         23    2    1    0    0    0  0.54513607210E+01  0.25608112987E+02 -0.10750686822E+02  0.96696819055E+02  0.92461909800E+02 0.  0.
         13    1    3    3    0    0  0.17723669673E+02  0.56089857990E+02  0.71852934190E+01  0.59260781649E+02  0.10566000000E+00 0.  1.
         22    1    1    0    0    0 -0.54513607210E+01 -0.25608112987E+02  0.10750686822E+02  0.28303180945E+02  0.00000000000E+00 0.  1.
</event>
<event>
 5    1  0.1758488E-003  0.9118800E+02  0.7818608E-02  0.1130116E+00
         25   -1    0    0    0    0  0.00000000000E+00  0.00000000000E+00  0.99999998245E-14  0.12500000000E+03  0.12500000000E+03 0.  0.
        -13    1    3    3    0    0  0.27744883870E+02  0.29974785965E+02 -0.40283041301E+02  0.57367246362E+02  0.10566000000E+00 0. -1.
         23    2    1    0    0    0  0.27663921076E+02  0.53639357941E+01 -0.13457172091E+02  0.93772450990E+02  0.88420092442E+02 0.  0.
         13    1    3    3    0    0 -0.80962794219E-01 -0.24610850171E+02  0.26825869210E+02  0.36405204628E+02  0.10566000000E+00 0.  1.
         22    1    1    0    0    0 -0.27663921076E+02 -0.53639357941E+01  0.13457172091E+02  0.31227549010E+02  0.00000000000E+00 0. -1.
</event>
<event>
 5    1  0.1758488E-003  0.9118800E+02  0.7818608E-02  0.1130116E+00
         25   -1    0    0    0    0  0.00000000000E+00  0.00000000000E+00  0.99999998245E-14  0.12500000000E+03  0.12500000000E+03 0.  0.
        -13    1    3    3    0    0 -0.36044831119E+02  0.10935041684E+02  0.15119586437E+02  0.40588397912E+02  0.10566000000E+00 0.  1.
         23    2    1    0    0    0  0.18711306221E+02 -0.52663799816E+01  0.18993916512E+02  0.97822498218E+02  0.93971402855E+02 0.  0.
         13    1    3    3    0    0  0.54756137340E+02 -0.16201421665E+02  0.38743300753E+01  0.57234100306E+02  0.10566000000E+00 0. -1.
         22    1    1    0    0    0 -0.18711306221E+02  0.52663799816E+01 -0.18993916512E+02  0.27177501782E+02  0.00000000000E+00 0. -1.
</event>
<event>
 5    1  0.1758488E-003  0.9118800E+02  0.7818608E-02  0.1130116E+00
         25   -1    0    0    0    0  0.00000000000E+00  0.00000000000E+00  0.99999998245E-14  0.12500000000E+03  0.12500000000E+03 0.  0.
        -13    1    3    3    0    0  0.52109342204E+02  0.20424001068E+02  0.19383857461E+02  0.59230637837E+02  0.10566000000E+00 0. -1.
         23    2    1    0    0    0  0.16912225890E+02  0.21831442104E+02  0.80392212599E+01  0.96237796897E+02  0.91839257533E+02 0.  0.
         13    1    3    3    0    0 -0.35197116314E+02  0.14074410360E+01 -0.11344636201E+02  0.37007159059E+02  0.10566000000E+00 0.  1.
         22    1    1    0    0    0 -0.16912225890E+02 -0.21831442104E+02 -0.80392212599E+01  0.28762203103E+02  0.00000000000E+00 0. -1.
</event>
<event>
 5    1  0.1758488E-003  0.9118800E+02  0.7818608E-02  0.1130116E+00
         25   -1    0    0    0    0  0.00000000000E+00  0.00000000000E+00  0.99999998245E-14  0.12500000000E+03  0.12500000000E+03 0.  0.
        -13    1    3    3    0    0 -0.44256046045E+01 -0.31747455811E+02  0.14232403100E+02  0.35072202506E+02  0.10566000000E+00 0. -1.
         23    2    1    0    0    0 -0.13756793696E+02  0.26095473108E+02 -0.53577894674E+00  0.95495591031E+02  0.90823442776E+02 0.  0.
         13    1    3    3    0    0 -0.93311890912E+01  0.57842928920E+02 -0.14768182046E+02  0.60423388525E+02  0.10566000000E+00 0.  1.
         22    1    1    0    0    0  0.13756793696E+02 -0.26095473108E+02  0.53577894674E+00  0.29504408969E+02  0.00000000000E+00 0.  1.
</event>
<event>
 5    1  0.1758488E-003  0.9118800E+02  0.7818608E-02  0.1130116E+00
         25   -1    0    0    0    0  0.00000000000E+00  0.00000000000E+00  0.99999998245E-14  0.12500000000E+03  0.12500000000E+03 0.  0.
        -13    1    3    3    0    0 -0.33448938139E+02  0.34031941778E+02  0.35907659872E+02  0.59719140360E+02  0.10566000000E+00 0.  1.
         23    2    1    0    0    0 -0.20879440059E+02  0.33078492135E+01  0.16598121791E+02  0.98122676276E+02  0.94369852543E+02 0.  0.
         13    1    3    3    0    0  0.12569498080E+02 -0.30724092565E+02 -0.19309538081E+02  0.38403535916E+02  0.10566000000E+00 0. -1.
         22    1    1    0    0    0  0.20879440059E+02 -0.33078492135E+01 -0.16598121791E+02  0.26877323724E+02  0.00000000000E+00 0.  1.
</event>
<event>
 5    1  0.1758488E-003  0.9118800E+02  0.7818608E-02  0.1130116E+00
         25   -1    0    0    0    0  0.00000000000E+00  0.00000000000E+00  0.99999998245E-14  0.12500000000E+03  0.12500000000E+03 0.  0.
        -13    1    3    3    0    0 -0.21712882247E+02 -0.46964415860E+02 -0.29210196810E+02  0.59416768461E+02  0.10566000000E+00 0. -1.
         23    2    1    0    0    0 -0.45412831186E+01 -0.14847971613E+02 -0.24296752372E+02  0.96165685560E+02  0.91741056185E+02 0.  0.
         13    1    3    3    0    0  0.17171599129E+02  0.32116444247E+02  0.49134444381E+01  0.36748917100E+02  0.10566000000E+00 0.  1.
         22    1    1    0    0    0  0.45412831186E+01  0.14847971613E+02  0.24296752372E+02  0.28834314440E+02  0.00000000000E+00 0. -1.
</event>
<event>
 5    1  0.1758488E-003  0.9118800E+02  0.7818608E-02  0.1130116E+00
         25   -1    0    0    0    0  0.00000000000E+00  0.00000000000E+00  0.99999998245E-14  0.12500000000E+03  0.12500000000E+03 0.  0.
        -13    1    3    3    0    0  0.21395955117E+02 -0.31815009785E+02  0.37187153029E+02  0.53412332447E+02  0.10566000000E+00 0.  1.
         23    2    1    0    0    0  0.61386431817E+01 -0.31443852927E+02  0.70888233483E+00  0.92954698610E+02  0.87256373134E+02 0.  0.
         13    1    3    3    0    0 -0.15257311935E+02  0.37115685805E+00 -0.36478270694E+02  0.39542366163E+02  0.10566000000E+00 0. -1.
         22    1    1    0    0    0 -0.61386431817E+01  0.31443852927E+02 -0.70888233483E+00  0.32045301390E+02  0.00000000000E+00 0.  1.
</event>
<event>
 5    1  0.1758488E-003  0.9118800E+02  0.7818608E-02  0.1130116E+00
         25   -1    0    0    0    0  0.00000000000E+00  0.00000000000E+00  0.99999998245E-14  0.12500000000E+03  0.12500000000E+03 0.  0.
        -13    1    3    3    0    0  0.11565937465E+02  0.12515145986E+02 -0.42810404852E+02  0.46077561959E+02  0.10566000000E+00 0.  1.
         23    2    1    0    0    0 -0.11327652181E+02  0.22977676595E+02  0.38497763409E+01  0.99094207144E+02  0.95648062113E+02 0.  0.
         13    1    3    3    0    0 -0.22893589646E+02  0.10462530609E+02  0.46660181193E+02  0.53016645184E+02  0.10566000000E+00 0. -1.
         22    1    1    0    0    0  0.11327652181E+02 -0.22977676595E+02 -0.38497763409E+01  0.25905792856E+02  0.00000000000E+00 0. -1.
</event>
<event>
 5    1  0.1758488E-003  0.9118800E+02  0.7818608E-02  0.1130116E+00
         25   -1    0    0    0    0  0.00000000000E+00  0.00000000000E+00  0.99999998245E-14  0.12500000000E+03  0.12500000000E+03 0.  0.
        -13    1    3    3    0    0 -0.37269231632E+02 -0.63686584231E+01 -0.18288448972E+02  0.42000404360E+02  0.10566000000E+00 0.  1.
         23    2    1    0    0    0  0.10040560077E+02  0.18718350077E+02 -0.20341645654E+02  0.95589593267E+02  0.90952725725E+02 0.  0.
         13    1    3    3    0    0  0.47309791709E+02  0.25087008500E+02 -0.20531966817E+01  0.53589188907E+02  0.10566000000E+00 0. -1.
         22    1    1    0    0    0 -0.10040560077E+02 -0.18718350077E+02  0.20341645654E+02  0.29410406733E+02  0.00000000000E+00 0. -1.
</event>
<event>
 5    1  0.1758488E-003  0.9118800E+02  0.7818608E-02  0.1130116E+00
         25   -1    0    0    0    0  0.00000000000E+00  0.00000000000E+00  0.99999998245E-14  0.12500000000E+03  0.12500000000E+03 0.  0.
        -13    1    3    3    0    0  0.36065866725E+02 -0.16900813608E+02  0.11159103296E+02  0.41363280741E+02  0.10566000000E+00 0.  1.
         23    2    1    0    0    0 -0.10674476175E+02  0.20339378306E+02  0.80540630698E+00  0.10201558287E+03  0.99392634121E+02 0.  0.
         13    1    3    3    0    0 -0.46740342900E+02  0.37240191914E+02 -0.10353696989E+02  0.60652302129E+02  0.10566000000E+00 0. -1.
         22    1    1    0    0    0  0.10674476175E+02 -0.20339378306E+02 -0.80540630698E+00  0.22984417130E+02  0.00000000000E+00 0. -1.
</event>
<event>
 5    1  0.1758488E-003  0.9118800E+02  0.7818608E-02  0.1130116E+00
         25   -1    0    0    0    0  0.00000000000E+00  0.00000000000E+00  0.99999998245E-14  0.12500000000E+03  0.12500000000E+03 0.  0.
        -13    1    3    3    0    0  0.34039915893E+02 -0.24647303265E+02  0.58244412727E+01  0.42428065151E+02  0.10566000000E+00 0. -1.
         23    2    1    0    0    0 -0.70165191981E+01 -0.99450374424E+00  0.28980164997E+02  0.95165949947E+02  0.90368620033E+02 0.  0.
         13    1    3    3    0    0 -0.41056435091E+02  0.23652799521E+02  0.23155723724E+02  0.52737884796E+02  0.10566000000E+00 0.  1.
         22    1    1    0    0    0  0.70165191981E+01  0.99450374424E+00 -0.28980164997E+02  0.29834050053E+02  0.00000000000E+00 0. -1.
</event>
<event>
 5    1  0.1758488E-003  0.9118800E+02  0.7818608E-02  0.1130116E+00
         25   -1    0    0    0    0  0.00000000000E+00  0.00000000000E+00  0.99999998245E-14  0.12500000000E+03  0.12500000000E+03 0.  0.
        -13    1    3    3    0    0 -0.18188004779E+02  0.66782175673E+01 -0.29000563262E+02  0.34877585083E+02  0.10566000000E+00 0.  1.
         23    2    1    0    0    0  0.29117677213E+02  0.36353911260E+01  0.75085980680E+01  0.94710823057E+02  0.89736869593E+02 0.  0.
         13    1    3    3    0    0  0.47305681992E+02 -0.30428264412E+01  0.36509161330E+02  0.59833237974E+02  0.10566000000E+00 0. -1.
         22    1    1    0    0    0 -0.29117677213E+02 -0.36353911260E+01 -0.75085980680E+01  0.30289176943E+02  0.00000000000E+00 0. -1.
</event>
<event>
 5    1  0.1758488E-003  0.9118800E+02  0.7818608E-02  0.1130116E+00
         25   -1    0    0    0    0  0.00000000000E+00  0.00000000000E+00  0.99999998245E-14  0.12500000000E+03  0.12500000000E+03 0.  0.
        -13    1    3    3    0    0 -0.24927112958E+02  0.34482831209E+00  0.39700286645E+02  0.46878606962E+02  0.10566000000E+00 0. -1.
         23    2    1    0    0    0  0.19399429973E+02  0.58161174759E+01  0.22469819087E+02  0.94750076436E+02  0.89791531389E+02 0.  0.
         13    1    3    3    0    0  0.44326542931E+02  0.54712891638E+01 -0.17230467558E+02  0.47871469474E+02  0.10566000000E+00 0.  1.
         22    1    1    0    0    0 -0.19399429973E+02 -0.58161174759E+01 -0.22469819087E+02  0.30249923564E+02  0.00000000000E+00 0.  1.
</event>
<event>
 5    1  0.1758488E-003  0.9118800E+02  0.7818608E-02  0.1130116E+00
         25   -1    0    0    0    0  0.00000000000E+00  0.00000000000E+00  0.99999998245E-14  0.12500000000E+03  0.12500000000E+03 0.  0.
        -13    1    3    3    0    0  0.16215785411E+02 -0.25047997723E+02  0.27012853896E+02  0.40249960572E+02  0.10566000000E+00 0.  1.
         23    2    1    0    0    0 -0.16228243714E+02  0.18152247119E+02  0.17270853422E+02  0.95147992573E+02  0.90343777556E+02 0.  0.
         13    1    3    3    0    0 -0.32444029125E+02  0.43200244842E+02 -0.97420004734E+01  0.54898032000E+02  0.10566000000E+00 0. -1.
         22    1    1    0    0    0  0.16228243714E+02 -0.18152247119E+02 -0.17270853422E+02  0.29852007427E+02  0.00000000000E+00 0. -1.
</event>
<event>
 5    1  0.1758488E-003  0.9118800E+02  0.7818608E-02  0.1130116E+00
         25   -1    0    0    0    0  0.00000000000E+00  0.00000000000E+00  0.99999998245E-14  0.12500000000E+03  0.12500000000E+03 0.  0.
        -13    1    3    3    0    0  0.25275684549E+02  0.25122022786E+01  0.14223793919E+01  0.25440238146E+02  0.10566000000E+00 0. -1.
         23    2    1    0    0    0 -0.35918588945E+02 -0.49041742929E+01  0.92748120352E+01  0.87580511821E+02  0.79184139543E+02 0.  0.
         13    1    3    3    0    0 -0.61194273495E+02 -0.74163765715E+01  0.78524326433E+01  0.62140273675E+02  0.10566000000E+00 0.  1.
         22    1    1    0    0    0  0.35918588945E+02  0.49041742929E+01 -0.92748120352E+01  0.37419488179E+02  0.00000000000E+00 0.  1.
</event>
<event>
 5    1  0.1758488E-003  0.9118800E+02  0.7818608E-02  0.1130116E+00
         25   -1    0    0    0    0  0.00000000000E+00  0.00000000000E+00  0.99999998245E-14  0.12500000000E+03  0.12500000000E+03 0.  0.
        -13    1    3    3    0    0 -0.27127572178E+02  0.46745968008E+02  0.16164449530E+02  0.56412687313E+02  0.10566000000E+00 0. -1.
         23    2    1    0    0    0 -0.39402789300E+01  0.27627126722E+02 -0.90712991270E+01  0.95655964885E+02  0.91043897221E+02 0.  0.
         13    1    3    3    0    0  0.23187293248E+02 -0.19118841286E+02 -0.25235748657E+02  0.39243277572E+02  0.10566000000E+00 0.  1.
         22    1    1    0    0    0  0.39402789300E+01 -0.27627126722E+02  0.90712991270E+01  0.29344035115E+02  0.00000000000E+00 0. -1.
</event>
<event>
 5    1  0.1758488E-003  0.9118800E+02  0.7818608E-02  0.1130116E+00
         25   -1    0    0    0    0  0.00000000000E+00  0.00000000000E+00  0.99999998245E-14  0.12500000000E+03  0.12500000000E+03 0.  0.
        -13    1    3    3    0    0  0.37042131858E+02  0.44797603901E+02 -0.11134957533E+02  0.59185667954E+02  0.10566000000E+00 0.  1.
         23    2    1    0    0    0  0.11229398986E+02  0.11506812862E+02 -0.16864575038E+02  0.10169935548E+03  0.98994135534E+02 0.  0.
         13    1    3    3    0    0 -0.25812732872E+02 -0.33290791039E+02 -0.57296175051E+01  0.42513687527E+02  0.10566000000E+00 0. -1.
         22    1    1    0    0    0 -0.11229398986E+02 -0.11506812862E+02  0.16864575038E+02  0.23300644520E+02  0.00000000000E+00 0.  1.
</event>
<event>
 5    1  0.1758488E-003  0.9118800E+02  0.7818608E-02  0.1130116E+00
         25   -1    0    0    0    0  0.00000000000E+00  0.00000000000E+00  0.99999998245E-14  0.12500000000E+03  0.12500000000E+03 0.  0.
        -13    1    3    3    0    0 -0.26412666191E+02 -0.66423592241E+01 -0.37304125583E+02  0.46188297445E+02  0.10566000000E+00 0.  1.
         23    2    1    0    0    0 -0.11699133474E+02 -0.26185294056E+02  0.57898541650E+01  0.95741466884E+02  0.91161212810E+02 0.  0.
         13    1    3    3    0    0  0.14713532717E+02 -0.19542934832E+02  0.43093979748E+02  0.49553169439E+02  0.10566000000E+00 0. -1.
         22    1    1    0    0    0  0.11699133474E+02  0.26185294056E+02 -0.57898541650E+01  0.29258533116E+02  0.00000000000E+00 0.  1.
</event>
<event>
 5    1  0.1758488E-003  0.9118800E+02  0.7818608E-02  0.1130116E+00
         25   -1    0    0    0    0  0.00000000000E+00  0.00000000000E+00  0.99999998245E-14  0.12500000000E+03  0.12500000000E+03 0.  0.
        -13    1    3    3    0    0  0.33577448157E+02  0.41607157997E+01  0.22324505415E+02  0.40535802530E+02  0.10566000000E+00 0.  1.
         23    2    1    0    0    0 -0.14855289889E+02 -0.21261824398E+02  0.12865276062E+02  0.96047277458E+02  0.91579579408E+02 0.  0.
         13    1    3    3    0    0 -0.48432738045E+02 -0.25422540198E+02 -0.94592293529E+01  0.55511474928E+02  0.10566000000E+00 0. -1.
         22    1    1    0    0    0  0.14855289889E+02  0.21261824398E+02 -0.12865276062E+02  0.28952722542E+02  0.00000000000E+00 0. -1.
</event>
<event>
 5    1  0.1758488E-003  0.9118800E+02  0.7818608E-02  0.1130116E+00
         25   -1    0    0    0    0  0.00000000000E+00  0.00000000000E+00  0.99999998245E-14  0.12500000000E+03  0.12500000000E+03 0.  0.
        -13    1    3    3    0    0  0.27762252700E+01  0.35863284449E+02 -0.30957432277E+02  0.47457943228E+02  0.10566000000E+00 0.  1.
         23    2    1    0    0    0  0.18130446578E+02 -0.10739046211E+02 -0.15288692353E+02  0.98965708757E+02  0.95479983187E+02 0.  0.
         13    1    3    3    0    0  0.15354221308E+02 -0.46602330660E+02  0.15668739924E+02  0.51507765529E+02  0.10566000000E+00 0. -1.
         22    1    1    0    0    0 -0.18130446578E+02  0.10739046211E+02  0.15288692353E+02  0.26034291243E+02  0.00000000000E+00 0.  1.
</event>
<event>
 4    1  0.1758488E-003  0.9118800E+02  0.7818608E-02  0.1130116E+00
         25   -1    0    0    0    0  0.00000000000E+00  0.00000000000E+00  0.99999998245E-14  0.12500000000E+03  0.12500000000E+03 0.  0.
        -13    1    1    0    0    0  0.25284169654E+01  0.14409708313E+02  0.24139775453E+01  0.14828049016E+02  0.10566000000E+00 0.  1.
         13    1    1    0    0    0  0.22214791978E+02  0.20301121199E+02  0.39988199340E+02  0.50046975484E+02  0.10566000000E+00 0. -1.
         22    1    1    0    0    0 -0.24743208943E+02 -0.34710829512E+02 -0.42402176886E+02  0.60124975500E+02  0.00000000000E+00 0. -1.
</event>
<event>
 5    1  0.1758488E-003  0.9118800E+02  0.7818608E-02  0.1130116E+00
         25   -1    0    0    0    0  0.00000000000E+00  0.00000000000E+00  0.99999998245E-14  0.12500000000E+03  0.12500000000E+03 0.  0.
        -13    1    3    3    0    0 -0.21627719445E+02 -0.12873433788E+02  0.36874387113E+02  0.44645438008E+02  0.10566000000E+00 0.  1.
         23    2    1    0    0    0  0.78157980664E+01  0.23272821975E+02  0.15775883103E+02  0.95817994760E+02  0.91266087295E+02 0.  0.
         13    1    3    3    0    0  0.29443517512E+02  0.36146255763E+02 -0.21098504009E+02  0.51172556753E+02  0.10566000000E+00 0. -1.
         22    1    1    0    0    0 -0.78157980664E+01 -0.23272821975E+02 -0.15775883103E+02  0.29182005240E+02  0.00000000000E+00 0.  1.
</event>
<event>
 5    1  0.1758488E-003  0.9118800E+02  0.7818608E-02  0.1130116E+00
         25   -1    0    0    0    0  0.00000000000E+00  0.00000000000E+00  0.99999998245E-14  0.12500000000E+03  0.12500000000E+03 0.  0.
        -13    1    3    3    0    0 -0.31824675018E+02  0.31332224159E+02  0.27631322757E+02  0.52516848459E+02  0.10566000000E+00 0. -1.
         23    2    1    0    0    0 -0.51206683652E+01  0.27614052990E+02 -0.66579981904E+01  0.96136768945E+02  0.91701647948E+02 0.  0.
         13    1    3    3    0    0  0.26704006653E+02 -0.37181711696E+01 -0.34289320947E+02  0.43619920486E+02  0.10566000000E+00 0.  1.
         22    1    1    0    0    0  0.51206683652E+01 -0.27614052990E+02  0.66579981904E+01  0.28863231055E+02  0.00000000000E+00 0.  1.
</event>
<event>
 5    1  0.1758488E-003  0.9118800E+02  0.7818608E-02  0.1130116E+00
         25   -1    0    0    0    0  0.00000000000E+00  0.00000000000E+00  0.99999998245E-14  0.12500000000E+03  0.12500000000E+03 0.  0.
        -13    1    3    3    0    0 -0.60314643718E+00  0.13343792796E+02 -0.46181357737E+02  0.48074416880E+02  0.10566000000E+00 0.  1.
         23    2    1    0    0    0 -0.21494485212E+02  0.20059389894E+02 -0.43946171118E+01  0.95272829314E+02  0.90516337357E+02 0.  0.
         13    1    3    3    0    0 -0.20891338775E+02  0.67155970978E+01  0.41786740626E+02  0.47198412434E+02  0.10566000000E+00 0. -1.
         22    1    1    0    0    0  0.21494485212E+02 -0.20059389894E+02  0.43946171118E+01  0.29727170686E+02  0.00000000000E+00 0. -1.
</event>
<event>
 5    1  0.1758488E-003  0.9118800E+02  0.7818608E-02  0.1130116E+00
         25   -1    0    0    0    0  0.00000000000E+00  0.00000000000E+00  0.99999998245E-14  0.12500000000E+03  0.12500000000E+03 0.  0.
        -13    1    3    3    0    0 -0.85769724013E+01  0.32699509260E+02  0.16117294891E+02  0.37451311326E+02  0.10566000000E+00 0. -1.
         23    2    1    0    0    0 -0.73069214603E+00 -0.72260493754E+01 -0.27179334185E+02  0.96866996120E+02  0.92691688031E+02 0.  0.
         13    1    3    3    0    0  0.78462802552E+01 -0.39925558635E+02 -0.43296629076E+02  0.59415684794E+02  0.10566000000E+00 0.  1.
         22    1    1    0    0    0  0.73069214603E+00  0.72260493754E+01  0.27179334185E+02  0.28133003880E+02  0.00000000000E+00 0.  1.
</event>
<event>
 5    1  0.1758488E-003  0.9118800E+02  0.7818608E-02  0.1130116E+00
         25   -1    0    0    0    0  0.00000000000E+00  0.00000000000E+00  0.99999998245E-14  0.12500000000E+03  0.12500000000E+03 0.  0.
        -13    1    3    3    0    0  0.23092265850E+01  0.20138000175E+02  0.29991809572E+02  0.36199328501E+02  0.10566000000E+00 0. -1.
         23    2    1    0    0    0 -0.25257994366E+02 -0.12579581911E+02 -0.10293199854E+02  0.94963986222E+02  0.90088825919E+02 0.  0.
         13    1    3    3    0    0 -0.27567220952E+02 -0.32717582086E+02 -0.40285009426E+02  0.58764657721E+02  0.10566000000E+00 0.  1.
         22    1    1    0    0    0  0.25257994366E+02  0.12579581911E+02  0.10293199854E+02  0.30036013778E+02  0.00000000000E+00 0.  1.
</event>
<event>
 5    1  0.1758488E-003  0.9118800E+02  0.7818608E-02  0.1130116E+00
         25   -1    0    0    0    0  0.00000000000E+00  0.00000000000E+00  0.99999998245E-14  0.12500000000E+03  0.12500000000E+03 0.  0.
        -13    1    3    3    0    0 -0.36633672113E+02 -0.65559127215E+01  0.84191403824E+01  0.38156244743E+02  0.10566000000E+00 0.  1.
         23    2    1    0    0    0  0.10187674800E+02  0.25955154629E+02 -0.48905192942E+01  0.96691415638E+02  0.92454604587E+02 0.  0.
         13    1    3    3    0    0  0.46821346912E+02  0.32511067350E+02 -0.13309659677E+02  0.58535170895E+02  0.10566000000E+00 0. -1.
         22    1    1    0    0    0 -0.10187674800E+02 -0.25955154629E+02  0.48905192942E+01  0.28308584362E+02  0.00000000000E+00 0. -1.
</event>
<event>
 5    1  0.1758488E-003  0.9118800E+02  0.7818608E-02  0.1130116E+00
         25   -1    0    0    0    0  0.00000000000E+00  0.00000000000E+00  0.99999998245E-14  0.12500000000E+03  0.12500000000E+03 0.  0.
        -13    1    3    3    0    0  0.12037727191E+02  0.30284698554E+02 -0.75394030956E+01  0.33450315477E+02  0.10566000000E+00 0. -1.
         23    2    1    0    0    0 -0.88972132330E+01 -0.26653906778E+02  0.74286777784E+01  0.95934962526E+02  0.91426148510E+02 0.  0.
         13    1    3    3    0    0 -0.20934940424E+02 -0.56938605332E+02  0.14968080874E+02  0.62484647049E+02  0.10566000000E+00 0.  1.
         22    1    1    0    0    0  0.88972132330E+01  0.26653906778E+02 -0.74286777784E+01  0.29065037474E+02  0.00000000000E+00 0.  1.
</event>
<event>
 5    1  0.1758488E-003  0.9118800E+02  0.7818608E-02  0.1130116E+00
         25   -1    0    0    0    0  0.00000000000E+00  0.00000000000E+00  0.99999998245E-14  0.12500000000E+03  0.12500000000E+03 0.  0.
        -13    1    3    3    0    0 -0.10995397817E+01 -0.42438569542E+02 -0.43448675295E+02  0.60745697143E+02  0.10566000000E+00 0. -1.
         23    2    1    0    0    0  0.87737175441E+01 -0.22786610117E+02 -0.16496515103E+02  0.95532344329E+02  0.90874012140E+02 0.  0.
         13    1    3    3    0    0  0.98732573258E+01  0.19651959424E+02  0.26952160192E+02  0.34786647187E+02  0.10566000000E+00 0.  1.
         22    1    1    0    0    0 -0.87737175441E+01  0.22786610117E+02  0.16496515103E+02  0.29467655671E+02  0.00000000000E+00 0. -1.
</event>
<event>
 5    1  0.1758488E-003  0.9118800E+02  0.7818608E-02  0.1130116E+00
         25   -1    0    0    0    0  0.00000000000E+00  0.00000000000E+00  0.99999998245E-14  0.12500000000E+03  0.12500000000E+03 0.  0.
        -13    1    3    3    0    0  0.61589562457E+02  0.82019292496E+01 -0.65112022526E+01  0.62473616559E+02  0.10566000000E+00 0.  1.
         23    2    1    0    0    0  0.32389114585E+02  0.43705816031E+01 -0.47115641721E+01  0.91979467538E+02  0.85847928831E+02 0.  0.
         13    1    3    3    0    0 -0.29200447873E+02 -0.38313476464E+01  0.17996380804E+01  0.29505850979E+02  0.10566000000E+00 0. -1.
         22    1    1    0    0    0 -0.32389114585E+02 -0.43705816031E+01  0.47115641721E+01  0.33020532462E+02  0.00000000000E+00 0.  1.
</event>
<event>
 5    1  0.1758488E-003  0.9118800E+02  0.7818608E-02  0.1130116E+00
         25   -1    0    0    0    0  0.00000000000E+00  0.00000000000E+00  0.99999998245E-14  0.12500000000E+03  0.12500000000E+03 0.  0.
        -13    1    3    3    0    0 -0.50189801208E+02 -0.15868285414E+02 -0.28719270325E+02  0.59963541250E+02  0.10566000000E+00 0.  1.
         23    2    1    0    0    0 -0.38377603880E+02 -0.47771044902E+01 -0.93588107586E+01  0.85209944136E+02  0.75349094446E+02 0.  0.
         13    1    3    3    0    0  0.11812197328E+02  0.11091180924E+02  0.19360459566E+02  0.25246402885E+02  0.10566000000E+00 0. -1.
         22    1    1    0    0    0  0.38377603880E+02  0.47771044902E+01  0.93588107586E+01  0.39790055864E+02  0.00000000000E+00 0.  1.
</event>
<event>
 5    1  0.1758488E-003  0.9118800E+02  0.7818608E-02  0.1130116E+00
         25   -1    0    0    0    0  0.00000000000E+00  0.00000000000E+00  0.99999998245E-14  0.12500000000E+03  0.12500000000E+03 0.  0.
        -13    1    3    3    0    0  0.37799639614E+02  0.82675836226E+01 -0.13807354959E+02  0.41083085435E+02  0.10566000000E+00 0.  1.
         23    2    1    0    0    0  0.32776593424E+01 -0.15611246752E+01  0.28331362757E+02  0.96436977109E+02  0.92109957536E+02 0.  0.
         13    1    3    3    0    0 -0.34521980271E+02 -0.98287082978E+01  0.42138717715E+02  0.55353891674E+02  0.10566000000E+00 0. -1.
         22    1    1    0    0    0 -0.32776593424E+01  0.15611246752E+01 -0.28331362757E+02  0.28563022891E+02  0.00000000000E+00 0. -1.
</event>
<event>
 5    1  0.1758488E-003  0.9118800E+02  0.7818608E-02  0.1130116E+00
         25   -1    0    0    0    0  0.00000000000E+00  0.00000000000E+00  0.99999998245E-14  0.12500000000E+03  0.12500000000E+03 0.  0.
        -13    1    3    3    0    0  0.17753705720E+02  0.27683307984E+02  0.21587980115E+02  0.39339695693E+02  0.10566000000E+00 0. -1.
         23    2    1    0    0    0  0.17101742499E+02 -0.24827534813E+02  0.10978517611E+02  0.92915674694E+02  0.87200451108E+02 0.  0.
         13    1    3    3    0    0 -0.65196322054E+00 -0.52510842797E+02 -0.10609462504E+02  0.53575979001E+02  0.10566000000E+00 0.  1.
         22    1    1    0    0    0 -0.17101742499E+02  0.24827534813E+02 -0.10978517611E+02  0.32084325306E+02  0.00000000000E+00 0.  1.
</event>
<event>
 5    1  0.1758488E-003  0.9118800E+02  0.7818608E-02  0.1130116E+00
         25   -1    0    0    0    0  0.00000000000E+00  0.00000000000E+00  0.99999998245E-14  0.12500000000E+03  0.12500000000E+03 0.  0.
        -13    1    3    3    0    0  0.35660160798E+02 -0.11902478515E+02  0.22450008962E+02  0.43787328411E+02  0.10566000000E+00 0. -1.
         23    2    1    0    0    0  0.12319445235E+02 -0.17146604537E+02 -0.22150732708E+02  0.94398860519E+02  0.89301260515E+02 0.  0.
         13    1    3    3    0    0 -0.23340715563E+02 -0.52441260219E+01 -0.44600741670E+02  0.50611532108E+02  0.10566000000E+00 0.  1.
         22    1    1    0    0    0 -0.12319445235E+02  0.17146604537E+02  0.22150732708E+02  0.30601139481E+02  0.00000000000E+00 0.  1.
</event>
<event>
 5    1  0.1758488E-003  0.9118800E+02  0.7818608E-02  0.1130116E+00
         25   -1    0    0    0    0  0.00000000000E+00  0.00000000000E+00  0.99999998245E-14  0.12500000000E+03  0.12500000000E+03 0.  0.
        -13    1    3    3    0    0 -0.44837306018E+02 -0.13509046429E+02  0.15452178063E+02  0.49311857776E+02  0.10566000000E+00 0. -1.
         23    2    1    0    0    0 -0.56106868217E+01 -0.28166339911E+02 -0.48899524179E+01  0.95866957844E+02  0.91333123570E+02 0.  0.
         13    1    3    3    0    0  0.39226619197E+02 -0.14657293483E+02 -0.20342130481E+02  0.46555100068E+02  0.10566000000E+00 0.  1.
         22    1    1    0    0    0  0.56106868217E+01  0.28166339911E+02  0.48899524179E+01  0.29133042156E+02  0.00000000000E+00 0.  1.
</event>
<event>
 5    1  0.1758488E-003  0.9118800E+02  0.7818608E-02  0.1130116E+00
         25   -1    0    0    0    0  0.00000000000E+00  0.00000000000E+00  0.99999998245E-14  0.12500000000E+03  0.12500000000E+03 0.  0.
        -13    1    3    3    0    0 -0.29025445961E+02  0.37074642544E+02 -0.69323531517E+00  0.47090310811E+02  0.10566000000E+00 0. -1.
         23    2    1    0    0    0 -0.83117283525E+01 -0.11776262362E+00 -0.26739821948E+02  0.96997914826E+02  0.92868071513E+02 0.  0.
         13    1    3    3    0    0  0.20713717608E+02 -0.37192405168E+02 -0.26046586633E+02  0.49907604016E+02  0.10566000000E+00 0.  1.
         22    1    1    0    0    0  0.83117283525E+01  0.11776262362E+00  0.26739821948E+02  0.28002085174E+02  0.00000000000E+00 0.  1.
</event>
<event>
 5    1  0.1758488E-003  0.9118800E+02  0.7818608E-02  0.1130116E+00
         25   -1    0    0    0    0  0.00000000000E+00  0.00000000000E+00  0.99999998245E-14  0.12500000000E+03  0.12500000000E+03 0.  0.
        -13    1    3    3    0    0  0.44186927863E+02  0.13268296535E+02 -0.32207363576E+02  0.56265955244E+02  0.10566000000E+00 0.  1.
         23    2    1    0    0    0  0.11468837984E+02  0.23677938176E+02 -0.12257404411E+02  0.95975476509E+02  0.91481523420E+02 0.  0.
         13    1    3    3    0    0 -0.32718089879E+02  0.10409641641E+02  0.19949959165E+02  0.39709521265E+02  0.10566000000E+00 0. -1.
         22    1    1    0    0    0 -0.11468837984E+02 -0.23677938176E+02  0.12257404411E+02  0.29024523491E+02  0.00000000000E+00 0.  1.
</event>
<event>
 5    1  0.1758488E-003  0.9118800E+02  0.7818608E-02  0.1130116E+00
         25   -1    0    0    0    0  0.00000000000E+00  0.00000000000E+00  0.99999998245E-14  0.12500000000E+03  0.12500000000E+03 0.  0.
        -13    1    3    3    0    0 -0.97288842557E+01 -0.36064996126E+02  0.12766692824E+01  0.37376144571E+02  0.10566000000E+00 0.  1.
         23    2    1    0    0    0 -0.21207647775E+02  0.19311628859E+02 -0.91704085315E+01  0.94886884486E+02  0.89981782164E+02 0.  0.
         13    1    3    3    0    0 -0.11478763520E+02  0.55376624985E+02 -0.10447077814E+02  0.57510739915E+02  0.10566000000E+00 0. -1.
         22    1    1    0    0    0  0.21207647775E+02 -0.19311628859E+02  0.91704085315E+01  0.30113115514E+02  0.00000000000E+00 0. -1.
</event>
<event>
 5    1  0.1758488E-003  0.9118800E+02  0.7818608E-02  0.1130116E+00
         25   -1    0    0    0    0  0.00000000000E+00  0.00000000000E+00  0.99999998245E-14  0.12500000000E+03  0.12500000000E+03 0.  0.
        -13    1    3    3    0    0  0.37198536471E+02 -0.11132262697E+02  0.45400123815E+02  0.59739775650E+02  0.10566000000E+00 0.  1.
         23    2    1    0    0    0  0.14186013641E+02 -0.16999478050E+02  0.15271615690E+02  0.98103020936E+02  0.94343813967E+02 0.  0.
         13    1    3    3    0    0 -0.23012522830E+02 -0.58672153531E+01 -0.30128508124E+02  0.38363245285E+02  0.10566000000E+00 0. -1.
         22    1    1    0    0    0 -0.14186013641E+02  0.16999478050E+02 -0.15271615690E+02  0.26896979064E+02  0.00000000000E+00 0.  1.
</event>
<event>
 5    1  0.1758488E-003  0.9118800E+02  0.7818608E-02  0.1130116E+00
         25   -1    0    0    0    0  0.00000000000E+00  0.00000000000E+00  0.99999998245E-14  0.12500000000E+03  0.12500000000E+03 0.  0.
        -13    1    3    3    0    0  0.93737237489E+01 -0.24716163976E+02 -0.24803529349E+02  0.36248885373E+02  0.10566000000E+00 0. -1.
         23    2    1    0    0    0  0.23287224855E+02  0.12507085677E+02  0.16718953486E+02  0.93723084563E+02  0.88350275273E+02 0.  0.
         13    1    3    3    0    0  0.13913501106E+02  0.37223249653E+02  0.41522482834E+02  0.57474199190E+02  0.10566000000E+00 0.  1.
         22    1    1    0    0    0 -0.23287224855E+02 -0.12507085677E+02 -0.16718953486E+02  0.31276915437E+02  0.00000000000E+00 0.  1.
</event>
<event>
 5    1  0.1758488E-003  0.9118800E+02  0.7818608E-02  0.1130116E+00
         25   -1    0    0    0    0  0.00000000000E+00  0.00000000000E+00  0.99999998245E-14  0.12500000000E+03  0.12500000000E+03 0.  0.
        -13    1    3    3    0    0  0.14220158444E+01  0.39961570850E+02 -0.10431956439E+02  0.41325369363E+02  0.10566000000E+00 0. -1.
         23    2    1    0    0    0 -0.15042584416E+02  0.29516211661E+01  0.25351415875E+02  0.95374239245E+02  0.90656272874E+02 0.  0.
         13    1    3    3    0    0 -0.16464600260E+02 -0.37009949684E+02  0.35783372314E+02  0.54048869882E+02  0.10566000000E+00 0.  1.
         22    1    1    0    0    0  0.15042584416E+02 -0.29516211661E+01 -0.25351415875E+02  0.29625760755E+02  0.00000000000E+00 0.  1.
</event>
<event>
 5    1  0.1758488E-003  0.9118800E+02  0.7818608E-02  0.1130116E+00
         25   -1    0    0    0    0  0.00000000000E+00  0.00000000000E+00  0.99999998245E-14  0.12500000000E+03  0.12500000000E+03 0.  0.
        -13    1    3    3    0    0 -0.24382239162E+02 -0.77316757506E+00  0.24873941059E+02  0.34839854801E+02  0.10566000000E+00 0.  1.
         23    2    1    0    0    0 -0.45211821378E+02  0.13107135679E+02 -0.91160793588E+01  0.77052020888E+02  0.60315878688E+02 0.  0.
         13    1    3    3    0    0 -0.20829582216E+02  0.13880303254E+02 -0.33990020418E+02  0.42212166087E+02  0.10566000000E+00 0. -1.
         22    1    1    0    0    0  0.45211821378E+02 -0.13107135679E+02  0.91160793588E+01  0.47947979112E+02  0.00000000000E+00 0. -1.
</event>
<event>
 5    1  0.1758488E-003  0.9118800E+02  0.7818608E-02  0.1130116E+00
         25   -1    0    0    0    0  0.00000000000E+00  0.00000000000E+00  0.99999998245E-14  0.12500000000E+03  0.12500000000E+03 0.  0.
        -13    1    3    3    0    0 -0.22937868581E+02 -0.44916752216E+02 -0.23489331658E+01  0.50489494905E+02  0.10566000000E+00 0.  1.
         23    2    1    0    0    0 -0.24869629346E+02 -0.57827762689E+01  0.17136926168E+02  0.94249175561E+02  0.89091491683E+02 0.  0.
         13    1    3    3    0    0 -0.19317607642E+01  0.39133975948E+02  0.19485859334E+02  0.43759680656E+02  0.10566000000E+00 0. -1.
         22    1    1    0    0    0  0.24869629346E+02  0.57827762689E+01 -0.17136926168E+02  0.30750824439E+02  0.00000000000E+00 0.  1.
</event>
<event>
 5    1  0.1758488E-003  0.9118800E+02  0.7818608E-02  0.1130116E+00
         25   -1    0    0    0    0  0.00000000000E+00  0.00000000000E+00  0.99999998245E-14  0.12500000000E+03  0.12500000000E+03 0.  0.
        -13    1    3    3    0    0  0.16644187164E+02 -0.37264787031E+02  0.25920030883E+02  0.48348241787E+02  0.10566000000E+00 0. -1.
         23    2    1    0    0    0 -0.16631581465E+02 -0.18959976510E+02 -0.72342726555E+01  0.98762147341E+02  0.95213112728E+02 0.  0.
         13    1    3    3    0    0 -0.33275768629E+02  0.18304810522E+02 -0.33154303539E+02  0.50413905555E+02  0.10566000000E+00 0.  1.
         22    1    1    0    0    0  0.16631581465E+02  0.18959976510E+02  0.72342726555E+01  0.26237852659E+02  0.00000000000E+00 0.  1.
</event>
<event>
 5    1  0.1758488E-003  0.9118800E+02  0.7818608E-02  0.1130116E+00
         25   -1    0    0    0    0  0.00000000000E+00  0.00000000000E+00  0.99999998245E-14  0.12500000000E+03  0.12500000000E+03 0.  0.
        -13    1    3    3    0    0 -0.28847119542E+02 -0.22972779792E+02 -0.30632083882E+02  0.47939969172E+02  0.10566000000E+00 0.  1.
         23    2    1    0    0    0  0.14280045336E+02 -0.22547480345E+02 -0.58675789566E+01  0.97673510150E+02  0.93773010709E+02 0.  0.
         13    1    3    3    0    0  0.43127164877E+02  0.42529944620E+00  0.24764504925E+02  0.49733540978E+02  0.10566000000E+00 0. -1.
         22    1    1    0    0    0 -0.14280045336E+02  0.22547480345E+02  0.58675789566E+01  0.27326489850E+02  0.00000000000E+00 0.  1.
</event>
<event>
 5    1  0.1758488E-003  0.9118800E+02  0.7818608E-02  0.1130116E+00
         25   -1    0    0    0    0  0.00000000000E+00  0.00000000000E+00  0.99999998245E-14  0.12500000000E+03  0.12500000000E+03 0.  0.
        -13    1    3    3    0    0  0.23170597721E+02 -0.13331700402E+02  0.29991335964E+02  0.40175891170E+02  0.10566000000E+00 0.  1.
         23    2    1    0    0    0  0.11779599020E+01  0.29250103997E+02  0.20446027591E+01  0.95654871379E+02  0.91042395864E+02 0.  0.
         13    1    3    3    0    0 -0.21992637819E+02  0.42581804399E+02 -0.27946733205E+02  0.55478980209E+02  0.10566000000E+00 0. -1.
         22    1    1    0    0    0 -0.11779599020E+01 -0.29250103997E+02 -0.20446027591E+01  0.29345128621E+02  0.00000000000E+00 0. -1.
</event>
<event>
 5    1  0.1758488E-003  0.9118800E+02  0.7818608E-02  0.1130116E+00
         25   -1    0    0    0    0  0.00000000000E+00  0.00000000000E+00  0.99999998245E-14  0.12500000000E+03  0.12500000000E+03 0.  0.
        -13    1    3    3    0    0 -0.76904288187E+01 -0.92114731608E+01 -0.34645446770E+02  0.36664861641E+02  0.10566000000E+00 0. -1.
         23    2    1    0    0    0 -0.21568287486E+02  0.17373263269E+02  0.14119578800E+02  0.93913285681E+02  0.88618967609E+02 0.  0.
         13    1    3    3    0    0 -0.13877858668E+02  0.26584736429E+02  0.48765025570E+02  0.57248424040E+02  0.10566000000E+00 0.  1.
         22    1    1    0    0    0  0.21568287486E+02 -0.17373263269E+02 -0.14119578800E+02  0.31086714319E+02  0.00000000000E+00 0.  1.
</event>
<event>
 5    1  0.1758488E-003  0.9118800E+02  0.7818608E-02  0.1130116E+00
         25   -1    0    0    0    0  0.00000000000E+00  0.00000000000E+00  0.99999998245E-14  0.12500000000E+03  0.12500000000E+03 0.  0.
        -13    1    3    3    0    0 -0.19819355918E+01 -0.16044179434E+02 -0.29747156109E+02  0.33856287791E+02  0.10566000000E+00 0. -1.
         23    2    1    0    0    0  0.98891396923E+01  0.15976852596E+02  0.22132443505E+02  0.95967260580E+02  0.91470296517E+02 0.  0.
         13    1    3    3    0    0  0.11871075284E+02  0.32021032029E+02  0.51879599614E+02  0.62110972789E+02  0.10566000000E+00 0.  1.
         22    1    1    0    0    0 -0.98891396923E+01 -0.15976852596E+02 -0.22132443505E+02  0.29032739420E+02  0.00000000000E+00 0.  1.
</event>
<event>
 5    1  0.1758488E-003  0.9118800E+02  0.7818608E-02  0.1130116E+00
         25   -1    0    0    0    0  0.00000000000E+00  0.00000000000E+00  0.99999998245E-14  0.12500000000E+03  0.12500000000E+03 0.  0.
        -13    1    3    3    0    0  0.23301022635E+02 -0.14854852345E+02  0.31195217594E+02  0.41674417318E+02  0.10566000000E+00 0.  1.
         23    2    1    0    0    0  0.19944803756E+01 -0.10163518939E+02 -0.22825558745E+02  0.99934461881E+02  0.96739937307E+02 0.  0.
         13    1    3    3    0    0 -0.21306542259E+02  0.46913334061E+01 -0.54020776339E+02  0.58260044563E+02  0.10566000000E+00 0. -1.
         22    1    1    0    0    0 -0.19944803756E+01  0.10163518939E+02  0.22825558745E+02  0.25065538119E+02  0.00000000000E+00 0. -1.
</event>
<event>
 5    1  0.1758488E-003  0.9118800E+02  0.7818608E-02  0.1130116E+00
         25   -1    0    0    0    0  0.00000000000E+00  0.00000000000E+00  0.99999998245E-14  0.12500000000E+03  0.12500000000E+03 0.  0.
        -13    1    3    3    0    0  0.79664240916E+01 -0.55603243954E+02 -0.30508629714E+01  0.56253920574E+02  0.10566000000E+00 0. -1.
         23    2    1    0    0    0 -0.15915510004E+02 -0.27509017586E+02 -0.23133831170E+01  0.93134638733E+02  0.87513768535E+02 0.  0.
         13    1    3    3    0    0 -0.23881934095E+02  0.28094226368E+02  0.73747985442E+00  0.36880718159E+02  0.10566000000E+00 0.  1.
         22    1    1    0    0    0  0.15915510004E+02  0.27509017586E+02  0.23133831170E+01  0.31865361267E+02  0.00000000000E+00 0. -1.
</event>
<event>
 5    1  0.1758488E-003  0.9118800E+02  0.7818608E-02  0.1130116E+00
         25   -1    0    0    0    0  0.00000000000E+00  0.00000000000E+00  0.99999998245E-14  0.12500000000E+03  0.12500000000E+03 0.  0.
        -13    1    3    3    0    0 -0.54970112598E+02  0.53846866821E+01 -0.59638547966E+01  0.55554359484E+02  0.10566000000E+00 0. -1.
         23    2    1    0    0    0 -0.22432792133E+02 -0.17187919424E+02  0.41762085512E+01  0.96432615540E+02  0.92104038376E+02 0.  0.
         13    1    3    3    0    0  0.32537320465E+02 -0.22572606106E+02  0.10140063348E+02  0.40878256056E+02  0.10566000000E+00 0.  1.
         22    1    1    0    0    0  0.22432792133E+02  0.17187919424E+02 -0.41762085512E+01  0.28567384460E+02  0.00000000000E+00 0. -1.
</event>
<event>
 5    1  0.1758488E-003  0.9118800E+02  0.7818608E-02  0.1130116E+00
         25   -1    0    0    0    0  0.00000000000E+00  0.00000000000E+00  0.99999998245E-14  0.12500000000E+03  0.12500000000E+03 0.  0.
        -13    1    3    3    0    0  0.14378327912E+02 -0.37477286600E+02 -0.39876329255E+01  0.40338513914E+02  0.10566000000E+00 0.  1.
         23    2    1    0    0    0 -0.28411036221E+02 -0.12193449372E+01 -0.39314069747E-01  0.96562782717E+02  0.92280527085E+02 0.  0.
         13    1    3    3    0    0 -0.42789364133E+02  0.36257941663E+02  0.39483188558E+01  0.56224268802E+02  0.10566000000E+00 0. -1.
         22    1    1    0    0    0  0.28411036221E+02  0.12193449372E+01  0.39314069747E-01  0.28437217283E+02  0.00000000000E+00 0.  1.
</event>
<event>
 5    1  0.1758488E-003  0.9118800E+02  0.7818608E-02  0.1130116E+00
         25   -1    0    0    0    0  0.00000000000E+00  0.00000000000E+00  0.99999998245E-14  0.12500000000E+03  0.12500000000E+03 0.  0.
        -13    1    3    3    0    0  0.30798468424E+01  0.45887105026E+02  0.30142259749E+01  0.46089137403E+02  0.10566000000E+00 0.  1.
         23    2    1    0    0    0 -0.14386476494E+02  0.63570337898E+01  0.25677661086E+02  0.94888127535E+02  0.89983508954E+02 0.  0.
         13    1    3    3    0    0 -0.17466323336E+02 -0.39530071236E+02  0.22663435111E+02  0.48798990132E+02  0.10566000000E+00 0. -1.
         22    1    1    0    0    0  0.14386476494E+02 -0.63570337898E+01 -0.25677661086E+02  0.30111872465E+02  0.00000000000E+00 0.  1.
</event>
<event>
 5    1  0.1758488E-003  0.9118800E+02  0.7818608E-02  0.1130116E+00
         25   -1    0    0    0    0  0.00000000000E+00  0.00000000000E+00  0.99999998245E-14  0.12500000000E+03  0.12500000000E+03 0.  0.
        -13    1    3    3    0    0  0.84021776331E+01  0.45302373960E+02 -0.39515701874E+02  0.60699287756E+02  0.10566000000E+00 0. -1.
         23    2    1    0    0    0  0.49748792829E+01  0.12181893017E+02 -0.24423286039E+02  0.97257526385E+02  0.93216852533E+02 0.  0.
         13    1    3    3    0    0 -0.34272983502E+01 -0.33120480943E+02  0.15092415835E+02  0.36558238629E+02  0.10566000000E+00 0.  1.
         22    1    1    0    0    0 -0.49748792829E+01 -0.12181893017E+02  0.24423286039E+02  0.27742473615E+02  0.00000000000E+00 0. -1.
</event>
<event>
 5    1  0.1758488E-003  0.9118800E+02  0.7818608E-02  0.1130116E+00
         25   -1    0    0    0    0  0.00000000000E+00  0.00000000000E+00  0.99999998245E-14  0.12500000000E+03  0.12500000000E+03 0.  0.
        -13    1    3    3    0    0 -0.28356581218E+02  0.12716340854E+02  0.10168185036E+02  0.32698687651E+02  0.10566000000E+00 0.  1.
         23    2    1    0    0    0  0.22270840777E+02 -0.21023191841E+02  0.67759489714E+01  0.93633163556E+02  0.88222961234E+02 0.  0.
         13    1    3    3    0    0  0.50627421995E+02 -0.33739532694E+02 -0.33922360647E+01  0.60934475905E+02  0.10566000000E+00 0. -1.
         22    1    1    0    0    0 -0.22270840777E+02  0.21023191841E+02 -0.67759489714E+01  0.31366836444E+02  0.00000000000E+00 0. -1.
</event>
<event>
 5    1  0.1758488E-003  0.9118800E+02  0.7818608E-02  0.1130116E+00
         25   -1    0    0    0    0  0.00000000000E+00  0.00000000000E+00  0.99999998245E-14  0.12500000000E+03  0.12500000000E+03 0.  0.
        -13    1    3    3    0    0 -0.26832355431E+02  0.25616704804E+02 -0.74951032442E+01  0.37846777930E+02  0.10566000000E+00 0.  1.
         23    2    1    0    0    0 -0.19302444751E+02 -0.27260386529E+00  0.33160086643E+02  0.86630089492E+02  0.77669314231E+02 0.  0.
         13    1    3    3    0    0  0.75299106799E+01 -0.25889308669E+02  0.40655189887E+02  0.48783311562E+02  0.10566000000E+00 0. -1.
         22    1    1    0    0    0  0.19302444751E+02  0.27260386529E+00 -0.33160086643E+02  0.38369910508E+02  0.00000000000E+00 0. -1.
</event>
<event>
 5    1  0.1758488E-003  0.9118800E+02  0.7818608E-02  0.1130116E+00
         25   -1    0    0    0    0  0.00000000000E+00  0.00000000000E+00  0.99999998245E-14  0.12500000000E+03  0.12500000000E+03 0.  0.
        -13    1    3    3    0    0 -0.31852145014E+02 -0.10103006368E+02 -0.25022827902E+02  0.41746652080E+02  0.10566000000E+00 0.  1.
         23    2    1    0    0    0 -0.14593050858E+02  0.54206480815E+01  0.24232456527E+02  0.96198046798E+02  0.91785138772E+02 0.  0.
         13    1    3    3    0    0  0.17259094156E+02  0.15523654449E+02  0.49255284428E+02  0.54451394718E+02  0.10566000000E+00 0. -1.
         22    1    1    0    0    0  0.14593050858E+02 -0.54206480815E+01 -0.24232456527E+02  0.28801953202E+02  0.00000000000E+00 0. -1.
</event>
<event>
 5    1  0.1758488E-003  0.9118800E+02  0.7818608E-02  0.1130116E+00
         25   -1    0    0    0    0  0.00000000000E+00  0.00000000000E+00  0.99999998245E-14  0.12500000000E+03  0.12500000000E+03 0.  0.
        -13    1    3    3    0    0 -0.48025364091E+02 -0.89437057759E+01  0.32673180043E+02  0.58770514097E+02  0.10566000000E+00 0.  1.
         23    2    1    0    0    0 -0.16352887759E+02  0.72700979644E+01  0.23400857372E+02  0.95540343040E+02  0.90885013946E+02 0.  0.
         13    1    3    3    0    0  0.31672476332E+02  0.16213803740E+02 -0.92723226710E+01  0.36769828942E+02  0.10566000000E+00 0. -1.
         22    1    1    0    0    0  0.16352887759E+02 -0.72700979644E+01 -0.23400857372E+02  0.29459656960E+02  0.00000000000E+00 0.  1.
</event>
<event>
 5    1  0.1758488E-003  0.9118800E+02  0.7818608E-02  0.1130116E+00
         25   -1    0    0    0    0  0.00000000000E+00  0.00000000000E+00  0.99999998245E-14  0.12500000000E+03  0.12500000000E+03 0.  0.
        -13    1    3    3    0    0 -0.22727305533E+01  0.23584973480E+01  0.36869686297E+02  0.37015034048E+02  0.10566000000E+00 0.  1.
         23    2    1    0    0    0 -0.14067382176E+02 -0.12195875463E+02 -0.20465348223E+02  0.97333032376E+02  0.93318048062E+02 0.  0.
         13    1    3    3    0    0 -0.11794651623E+02 -0.14554372811E+02 -0.57335034520E+02  0.60317998328E+02  0.10566000000E+00 0. -1.
         22    1    1    0    0    0  0.14067382176E+02  0.12195875463E+02  0.20465348223E+02  0.27666967624E+02  0.00000000000E+00 0. -1.
</event>
<event>
 5    1  0.1758488E-003  0.9118800E+02  0.7818608E-02  0.1130116E+00
         25   -1    0    0    0    0  0.00000000000E+00  0.00000000000E+00  0.99999998245E-14  0.12500000000E+03  0.12500000000E+03 0.  0.
        -13    1    3    3    0    0  0.28071502981E+02 -0.97057896634E+01 -0.15892156401E+02  0.33686546747E+02  0.10566000000E+00 0.  1.
         23    2    1    0    0    0 -0.30398621428E+02  0.86270927401E+00 -0.34378634036E+01  0.94395435687E+02  0.89296466457E+02 0.  0.
         13    1    3    3    0    0 -0.58470124409E+02  0.10568498937E+02  0.12454292997E+02  0.60708888940E+02  0.10566000000E+00 0. -1.
         22    1    1    0    0    0  0.30398621428E+02 -0.86270927401E+00  0.34378634036E+01  0.30604564313E+02  0.00000000000E+00 0. -1.
</event>
<event>
 5    1  0.1758488E-003  0.9118800E+02  0.7818608E-02  0.1130116E+00
         25   -1    0    0    0    0  0.00000000000E+00  0.00000000000E+00  0.99999998245E-14  0.12500000000E+03  0.12500000000E+03 0.  0.
        -13    1    3    3    0    0  0.31279463664E+02 -0.11341119840E+02  0.20808254075E+02  0.39243094271E+02  0.10566000000E+00 0. -1.
         23    2    1    0    0    0  0.13671495556E+02  0.19183921799E+02 -0.20663204799E+02  0.93664705540E+02  0.88267640645E+02 0.  0.
         13    1    3    3    0    0 -0.17607968107E+02  0.30525041638E+02 -0.41471458874E+02  0.54421611269E+02  0.10566000000E+00 0.  1.
         22    1    1    0    0    0 -0.13671495556E+02 -0.19183921799E+02  0.20663204799E+02  0.31335294460E+02  0.00000000000E+00 0. -1.
</event>
<event>
 5    1  0.1758488E-003  0.9118800E+02  0.7818608E-02  0.1130116E+00
         25   -1    0    0    0    0  0.00000000000E+00  0.00000000000E+00  0.99999998245E-14  0.12500000000E+03  0.12500000000E+03 0.  0.
        -13    1    3    3    0    0 -0.18182100297E+02  0.59498205308E+02  0.44092993895E+01  0.62370492152E+02  0.10566000000E+00 0.  1.
         23    2    1    0    0    0 -0.56459909888E+01  0.28095552827E+02  0.16580766750E+01  0.96294834591E+02  0.91916857256E+02 0.  0.
         13    1    3    3    0    0  0.12536109309E+02 -0.31402652482E+02 -0.27512227145E+01  0.33924342439E+02  0.10566000000E+00 0. -1.
         22    1    1    0    0    0  0.56459909888E+01 -0.28095552827E+02 -0.16580766750E+01  0.28705165409E+02  0.00000000000E+00 0.  1.
</event>
<event>
 5    1  0.1758488E-003  0.9118800E+02  0.7818608E-02  0.1130116E+00
         25   -1    0    0    0    0  0.00000000000E+00  0.00000000000E+00  0.99999998245E-14  0.12500000000E+03  0.12500000000E+03 0.  0.
        -13    1    3    3    0    0 -0.29292952087E+02  0.32566961463E+01  0.53503416941E+02  0.61084448923E+02  0.10566000000E+00 0.  1.
         23    2    1    0    0    0 -0.19601811364E+02  0.68351346920E+01  0.19888923782E+02  0.96250750198E+02  0.91856886238E+02 0.  0.
         13    1    3    3    0    0  0.96911407224E+01  0.35784385457E+01 -0.33614493160E+02  0.35166301275E+02  0.10566000000E+00 0. -1.
         22    1    1    0    0    0  0.19601811364E+02 -0.68351346920E+01 -0.19888923782E+02  0.28749249802E+02  0.00000000000E+00 0.  1.
</event>
<event>
 5    1  0.1758488E-003  0.9118800E+02  0.7818608E-02  0.1130116E+00
         25   -1    0    0    0    0  0.00000000000E+00  0.00000000000E+00  0.99999998245E-14  0.12500000000E+03  0.12500000000E+03 0.  0.
        -13    1    3    3    0    0  0.33523050705E+02  0.29781629178E+01 -0.16469200692E+02  0.37468788590E+02  0.10566000000E+00 0. -1.
         23    2    1    0    0    0 -0.88650424772E+01 -0.25390521161E+02  0.11627037669E+02  0.95700587926E+02  0.91105142454E+02 0.  0.
         13    1    3    3    0    0 -0.42388093182E+02 -0.28368684078E+02  0.28096238360E+02  0.58231799337E+02  0.10566000000E+00 0.  1.
         22    1    1    0    0    0  0.88650424772E+01  0.25390521161E+02 -0.11627037669E+02  0.29299412074E+02  0.00000000000E+00 0.  1.
</event>
<event>
 5    1  0.1758488E-003  0.9118800E+02  0.7818608E-02  0.1130116E+00
         25   -1    0    0    0    0  0.00000000000E+00  0.00000000000E+00  0.99999998245E-14  0.12500000000E+03  0.12500000000E+03 0.  0.
        -13    1    3    3    0    0  0.28821916364E+02  0.64094448827E+01  0.44177264714E+02  0.53135917497E+02  0.10566000000E+00 0. -1.
         23    2    1    0    0    0 -0.92927570386E+01  0.27654102121E+01  0.29170591942E+02  0.94260347086E+02  0.89107164536E+02 0.  0.
         13    1    3    3    0    0 -0.38114673403E+02 -0.36440346706E+01 -0.15006672773E+02  0.41124429589E+02  0.10566000000E+00 0.  1.
         22    1    1    0    0    0  0.92927570386E+01 -0.27654102121E+01 -0.29170591942E+02  0.30739652914E+02  0.00000000000E+00 0. -1.
</event>
<event>
 5    1  0.1758488E-003  0.9118800E+02  0.7818608E-02  0.1130116E+00
         25   -1    0    0    0    0  0.00000000000E+00  0.00000000000E+00  0.99999998245E-14  0.12500000000E+03  0.12500000000E+03 0.  0.
        -13    1    3    3    0    0 -0.37324715929E+02 -0.31419113114E+02 -0.18076713934E+02  0.52029547747E+02  0.10566000000E+00 0. -1.
         23    2    1    0    0    0 -0.32763157767E+02 -0.36440383817E+02  0.46776944331E+01  0.75773920481E+02  0.57606250705E+02 0.  0.
         13    1    3    3    0    0  0.45615581623E+01 -0.50212707028E+01  0.22754408367E+02  0.23744372734E+02  0.10566000000E+00 0.  1.
         22    1    1    0    0    0  0.32763157767E+02  0.36440383817E+02 -0.46776944331E+01  0.49226079519E+02  0.00000000000E+00 0. -1.
</event>
<event>
 5    1  0.1758488E-003  0.9118800E+02  0.7818608E-02  0.1130116E+00
         25   -1    0    0    0    0  0.00000000000E+00  0.00000000000E+00  0.99999998245E-14  0.12500000000E+03  0.12500000000E+03 0.  0.
        -13    1    3    3    0    0 -0.47436744674E+02  0.62412025640E+01  0.13923398189E+02  0.49830407743E+02  0.10566000000E+00 0. -1.
         23    2    1    0    0    0 -0.77834851706E+01 -0.28030409212E+01  0.30236843356E+02  0.93651852113E+02  0.88249436419E+02 0.  0.
         13    1    3    3    0    0  0.39653259503E+02 -0.90442434852E+01  0.16313445167E+02  0.43821444370E+02  0.10566000000E+00 0.  1.
         22    1    1    0    0    0  0.77834851706E+01  0.28030409212E+01 -0.30236843356E+02  0.31348147887E+02  0.00000000000E+00 0. -1.
</event>
<event>
 5    1  0.1758488E-003  0.9118800E+02  0.7818608E-02  0.1130116E+00
         25   -1    0    0    0    0  0.00000000000E+00  0.00000000000E+00  0.99999998245E-14  0.12500000000E+03  0.12500000000E+03 0.  0.
        -13    1    3    3    0    0  0.48531608947E+02  0.30049888408E+01 -0.15632297404E+02  0.51075697852E+02  0.10566000000E+00 0.  1.
         23    2    1    0    0    0  0.77781251534E+01  0.16613255460E+02 -0.23942989000E+02  0.94837669020E+02  0.89913387519E+02 0.  0.
         13    1    3    3    0    0 -0.40753483794E+02  0.13608266619E+02 -0.83106915965E+01  0.43761971168E+02  0.10566000000E+00 0. -1.
         22    1    1    0    0    0 -0.77781251534E+01 -0.16613255460E+02  0.23942989000E+02  0.30162330980E+02  0.00000000000E+00 0. -1.
</event>
<event>
 5    1  0.1758488E-003  0.9118800E+02  0.7818608E-02  0.1130116E+00
         25   -1    0    0    0    0  0.00000000000E+00  0.00000000000E+00  0.99999998245E-14  0.12500000000E+03  0.12500000000E+03 0.  0.
        -13    1    3    3    0    0  0.39457497481E+02 -0.19830108935E+01  0.23379060582E+02  0.45906623459E+02  0.10566000000E+00 0. -1.
         23    2    1    0    0    0  0.20222121370E+02  0.13145931726E+02 -0.18629501573E+02  0.94523647815E+02  0.89475761823E+02 0.  0.
         13    1    3    3    0    0 -0.19235376111E+02  0.15128942619E+02 -0.42008562155E+02  0.48617024356E+02  0.10566000000E+00 0.  1.
         22    1    1    0    0    0 -0.20222121370E+02 -0.13145931726E+02  0.18629501573E+02  0.30476352185E+02  0.00000000000E+00 0. -1.
</event>
<event>
 5    1  0.1758488E-003  0.9118800E+02  0.7818608E-02  0.1130116E+00
         25   -1    0    0    0    0  0.00000000000E+00  0.00000000000E+00  0.99999998245E-14  0.12500000000E+03  0.12500000000E+03 0.  0.
        -13    1    3    3    0    0  0.25597950993E+00 -0.30155746906E+02 -0.33091671018E+02  0.44771692528E+02  0.10566000000E+00 0.  1.
         23    2    1    0    0    0  0.29979173651E+02 -0.10098936414E+01 -0.60868012807E+01  0.94392486416E+02  0.89292337880E+02 0.  0.
         13    1    3    3    0    0  0.29723194141E+02  0.29145853265E+02  0.27004869738E+02  0.49620793888E+02  0.10566000000E+00 0. -1.
         22    1    1    0    0    0 -0.29979173651E+02  0.10098936414E+01  0.60868012807E+01  0.30607513584E+02  0.00000000000E+00 0. -1.
</event>
<event>
 5    1  0.1758488E-003  0.9118800E+02  0.7818608E-02  0.1130116E+00
         25   -1    0    0    0    0  0.00000000000E+00  0.00000000000E+00  0.99999998245E-14  0.12500000000E+03  0.12500000000E+03 0.  0.
        -13    1    3    3    0    0  0.50484966607E+01  0.38970638629E+02  0.36005279135E+01  0.39461030891E+02  0.10566000000E+00 0. -1.
         23    2    1    0    0    0  0.21844656922E+02 -0.12359589715E+02 -0.13994555119E+02  0.96263332362E+02  0.91874006609E+02 0.  0.
         13    1    3    3    0    0  0.16796160261E+02 -0.51330228344E+02 -0.17595083033E+02  0.56802301471E+02  0.10566000000E+00 0.  1.
         22    1    1    0    0    0 -0.21844656922E+02  0.12359589715E+02  0.13994555119E+02  0.28736667638E+02  0.00000000000E+00 0.  1.
</event>
<event>
 5    1  0.1758488E-003  0.9118800E+02  0.7818608E-02  0.1130116E+00
         25   -1    0    0    0    0  0.00000000000E+00  0.00000000000E+00  0.99999998245E-14  0.12500000000E+03  0.12500000000E+03 0.  0.
        -13    1    3    3    0    0 -0.31959755150E+02 -0.18468627476E+02  0.18315733849E+02  0.41206715721E+02  0.10566000000E+00 0.  1.
         23    2    1    0    0    0 -0.30658069076E+01 -0.14507246051E+02 -0.26475028762E+02  0.94655535794E+02  0.89659823492E+02 0.  0.
         13    1    3    3    0    0  0.28893948242E+02  0.39613814252E+01 -0.44790762612E+02  0.53448820073E+02  0.10566000000E+00 0. -1.
         22    1    1    0    0    0  0.30658069076E+01  0.14507246051E+02  0.26475028762E+02  0.30344464206E+02  0.00000000000E+00 0.  1.
</event>
<event>
 5    1  0.1758488E-003  0.9118800E+02  0.7818608E-02  0.1130116E+00
         25   -1    0    0    0    0  0.00000000000E+00  0.00000000000E+00  0.99999998245E-14  0.12500000000E+03  0.12500000000E+03 0.  0.
        -13    1    3    3    0    0 -0.37135321859E+02  0.90654897677E+01 -0.20747180732E+02  0.43493354741E+02  0.10566000000E+00 0.  1.
         23    2    1    0    0    0  0.85816717375E+01 -0.14806473796E+02 -0.24399645487E+02  0.95196989146E+02  0.90411543989E+02 0.  0.
         13    1    3    3    0    0  0.45716993596E+02 -0.23871963564E+02 -0.36524647546E+01  0.51703634405E+02  0.10566000000E+00 0. -1.
         22    1    1    0    0    0 -0.85816717375E+01  0.14806473796E+02  0.24399645487E+02  0.29803010854E+02  0.00000000000E+00 0. -1.
</event>
<event>
 5    1  0.1758488E-003  0.9118800E+02  0.7818608E-02  0.1130116E+00
         25   -1    0    0    0    0  0.00000000000E+00  0.00000000000E+00  0.99999998245E-14  0.12500000000E+03  0.12500000000E+03 0.  0.
        -13    1    3    3    0    0  0.90911228878E+01 -0.37119344948E+02  0.27156780546E+02  0.46882791922E+02  0.10566000000E+00 0.  1.
         23    2    1    0    0    0 -0.23917015225E+02 -0.15834382319E+02 -0.26583452176E+01  0.96193436859E+02  0.91778860391E+02 0.  0.
         13    1    3    3    0    0 -0.33008138113E+02  0.21284962628E+02 -0.29815125763E+02  0.49310644937E+02  0.10566000000E+00 0. -1.
         22    1    1    0    0    0  0.23917015225E+02  0.15834382319E+02  0.26583452176E+01  0.28806563141E+02  0.00000000000E+00 0.  1.
</event>
<event>
 5    1  0.1758488E-003  0.9118800E+02  0.7818608E-02  0.1130116E+00
         25   -1    0    0    0    0  0.00000000000E+00  0.00000000000E+00  0.99999998245E-14  0.12500000000E+03  0.12500000000E+03 0.  0.
        -13    1    3    3    0    0 -0.13531367006E+02 -0.30020222243E+01 -0.47940645080E+02  0.49904174627E+02  0.10566000000E+00 0.  1.
         23    2    1    0    0    0 -0.27934824611E+02  0.15646066068E+02 -0.17144558425E+02  0.88680725598E+02  0.80902295391E+02 0.  0.
         13    1    3    3    0    0 -0.14403457606E+02  0.18648088293E+02  0.30796086655E+02  0.38776550972E+02  0.10566000000E+00 0. -1.
         22    1    1    0    0    0  0.27934824611E+02 -0.15646066068E+02  0.17144558425E+02  0.36319274402E+02  0.00000000000E+00 0.  1.
</event>
<event>
 5    1  0.1758488E-003  0.9118800E+02  0.7818608E-02  0.1130116E+00
         25   -1    0    0    0    0  0.00000000000E+00  0.00000000000E+00  0.99999998245E-14  0.12500000000E+03  0.12500000000E+03 0.  0.
        -13    1    3    3    0    0  0.13710766522E+02  0.28109722905E+02  0.14449904378E+02  0.34452177595E+02  0.10566000000E+00 0. -1.
         23    2    1    0    0    0 -0.19306286222E+02 -0.16390891585E+02 -0.13267546562E+02  0.96409410527E+02  0.92072540053E+02 0.  0.
         13    1    3    3    0    0 -0.33017052744E+02 -0.44500614491E+02 -0.27717450940E+02  0.61957232932E+02  0.10566000000E+00 0.  1.
         22    1    1    0    0    0  0.19306286222E+02  0.16390891585E+02  0.13267546562E+02  0.28590589473E+02  0.00000000000E+00 0.  1.
</event>
<event>
 5    1  0.1758488E-003  0.9118800E+02  0.7818608E-02  0.1130116E+00
         25   -1    0    0    0    0  0.00000000000E+00  0.00000000000E+00  0.99999998245E-14  0.12500000000E+03  0.12500000000E+03 0.  0.
        -13    1    3    3    0    0  0.15878357265E+02  0.16972781534E+02 -0.45247116498E+02  0.50867575703E+02  0.10566000000E+00 0.  1.
         23    2    1    0    0    0  0.40599750604E+01 -0.17205044037E+02 -0.30136935206E+02  0.90061027471E+02  0.83007571147E+02 0.  0.
         13    1    3    3    0    0 -0.11818382205E+02 -0.34177825572E+02  0.15110181292E+02  0.39193451768E+02  0.10566000000E+00 0. -1.
         22    1    1    0    0    0 -0.40599750604E+01  0.17205044037E+02  0.30136935206E+02  0.34938972529E+02  0.00000000000E+00 0. -1.
</event>
<event>
 5    1  0.1758488E-003  0.9118800E+02  0.7818608E-02  0.1130116E+00
         25   -1    0    0    0    0  0.00000000000E+00  0.00000000000E+00  0.99999998245E-14  0.12500000000E+03  0.12500000000E+03 0.  0.
        -13    1    3    3    0    0  0.43655439321E+02 -0.21837091635E+02 -0.30229901075E+02  0.57415277030E+02  0.10566000000E+00 0.  1.
         23    2    1    0    0    0  0.77294133435E+01 -0.95650016680E+01 -0.26774201221E+02  0.95536616987E+02  0.90879889122E+02 0.  0.
         13    1    3    3    0    0 -0.35926025977E+02  0.12272089967E+02  0.34556998542E+01  0.38121339958E+02  0.10566000000E+00 0. -1.
         22    1    1    0    0    0 -0.77294133435E+01  0.95650016680E+01  0.26774201221E+02  0.29463383013E+02  0.00000000000E+00 0.  1.
</event>
<event>
 5    1  0.1758488E-003  0.9118800E+02  0.7818608E-02  0.1130116E+00
         25   -1    0    0    0    0  0.00000000000E+00  0.00000000000E+00  0.99999998245E-14  0.12500000000E+03  0.12500000000E+03 0.  0.
        -13    1    3    3    0    0  0.11326131138E+02 -0.12728177968E+02  0.48888654253E+02  0.51772574203E+02  0.10566000000E+00 0. -1.
         23    2    1    0    0    0  0.24683404645E+02 -0.13418194868E+02  0.65803095684E+01  0.96144863674E+02  0.91712681340E+02 0.  0.
         13    1    3    3    0    0  0.13357273507E+02 -0.69001689964E+00 -0.42308344685E+02  0.44372289471E+02  0.10566000000E+00 0.  1.
         22    1    1    0    0    0 -0.24683404645E+02  0.13418194868E+02 -0.65803095684E+01  0.28855136326E+02  0.00000000000E+00 0. -1.
</event>
<event>
 5    1  0.1758488E-003  0.9118800E+02  0.7818608E-02  0.1130116E+00
         25   -1    0    0    0    0  0.00000000000E+00  0.00000000000E+00  0.99999998245E-14  0.12500000000E+03  0.12500000000E+03 0.  0.
        -13    1    3    3    0    0  0.26488716588E+02 -0.43375101657E+02  0.19320681096E+02  0.54372340692E+02  0.10566000000E+00 0.  1.
         23    2    1    0    0    0 -0.76445938670E+00 -0.15803243396E+02  0.26821900535E+02  0.93859331281E+02  0.88542830428E+02 0.  0.
         13    1    3    3    0    0 -0.27253175975E+02  0.27571858261E+02  0.75012194389E+01  0.39486990589E+02  0.10566000000E+00 0. -1.
         22    1    1    0    0    0  0.76445938670E+00  0.15803243396E+02 -0.26821900535E+02  0.31140668719E+02  0.00000000000E+00 0.  1.
</event>
<event>
 5    1  0.1758488E-003  0.9118800E+02  0.7818608E-02  0.1130116E+00
         25   -1    0    0    0    0  0.00000000000E+00  0.00000000000E+00  0.99999998245E-14  0.12500000000E+03  0.12500000000E+03 0.  0.
        -13    1    3    3    0    0 -0.20113490836E+02 -0.42270145837E+02 -0.31249280570E+02  0.56283624998E+02  0.10566000000E+00 0.  1.
         23    2    1    0    0    0  0.99446945210E+01 -0.23876593986E+02 -0.15130550180E+02  0.95034649372E+02  0.90186819121E+02 0.  0.
         13    1    3    3    0    0  0.30058185357E+02  0.18393551852E+02  0.16118730390E+02  0.38751024374E+02  0.10566000000E+00 0. -1.
         22    1    1    0    0    0 -0.99446945210E+01  0.23876593986E+02  0.15130550180E+02  0.29965350628E+02  0.00000000000E+00 0.  1.
</event>
<event>
 5    1  0.1758488E-003  0.9118800E+02  0.7818608E-02  0.1130116E+00
         25   -1    0    0    0    0  0.00000000000E+00  0.00000000000E+00  0.99999998245E-14  0.12500000000E+03  0.12500000000E+03 0.  0.
        -13    1    3    3    0    0 -0.46567619999E+02 -0.38204599065E+02 -0.12435748235E+02  0.61504419518E+02  0.10566000000E+00 0. -1.
         23    2    1    0    0    0 -0.20646308437E+02 -0.20414006461E+02  0.15716781286E+01  0.95923000774E+02  0.91409792656E+02 0.  0.
         13    1    3    3    0    0  0.25921311562E+02  0.17790592604E+02  0.14007426363E+02  0.34418581256E+02  0.10566000000E+00 0.  1.
         22    1    1    0    0    0  0.20646308437E+02  0.20414006461E+02 -0.15716781286E+01  0.29076999226E+02  0.00000000000E+00 0. -1.
</event>
<event>
 5    1  0.1758488E-003  0.9118800E+02  0.7818608E-02  0.1130116E+00
         25   -1    0    0    0    0  0.00000000000E+00  0.00000000000E+00  0.99999998245E-14  0.12500000000E+03  0.12500000000E+03 0.  0.
        -13    1    3    3    0    0 -0.12231701376E+02 -0.34076658727E+02  0.45459317578E+01  0.36489859524E+02  0.10566000000E+00 0. -1.
         23    2    1    0    0    0  0.23170125875E+02  0.11324864724E+02  0.15235301414E+02  0.95046340737E+02  0.90203022035E+02 0.  0.
         13    1    3    3    0    0  0.35401827251E+02  0.45401523450E+02  0.10689369656E+02  0.58556481213E+02  0.10566000000E+00 0.  1.
         22    1    1    0    0    0 -0.23170125875E+02 -0.11324864724E+02 -0.15235301414E+02  0.29953659263E+02  0.00000000000E+00 0.  1.
</event>
<event>
 4    1  0.1758488E-003  0.9118800E+02  0.7818608E-02  0.1130116E+00
         25   -1    0    0    0    0  0.00000000000E+00  0.00000000000E+00  0.99999998245E-14  0.12500000000E+03  0.12500000000E+03 0.  0.
        -13    1    1    0    0    0 -0.25372990115E+02  0.31458232901E+02  0.22247228708E+02  0.46134145639E+02  0.10566000000E+00 0.  1.
         13    1    1    0    0    0 -0.18125036554E+02  0.51135681530E+01 -0.56894732088E+01  0.19673504994E+02  0.10566000000E+00 0. -1.
         22    1    1    0    0    0  0.43498026668E+02 -0.36571801054E+02 -0.16557755499E+02  0.59192349367E+02  0.00000000000E+00 0.  1.
</event>
<event>
 5    1  0.1758488E-003  0.9118800E+02  0.7818608E-02  0.1130116E+00
         25   -1    0    0    0    0  0.00000000000E+00  0.00000000000E+00  0.99999998245E-14  0.12500000000E+03  0.12500000000E+03 0.  0.
        -13    1    3    3    0    0 -0.35159112248E+02  0.12873355034E+02  0.26382757680E+02  0.45803356981E+02  0.10566000000E+00 0. -1.
         23    2    1    0    0    0 -0.18325406994E+02  0.16448276655E+02 -0.18713452799E+02  0.94071701274E+02  0.88842137067E+02 0.  0.
         13    1    3    3    0    0  0.16833705255E+02  0.35749216206E+01 -0.45096210479E+02  0.48268344293E+02  0.10566000000E+00 0.  1.
         22    1    1    0    0    0  0.18325406994E+02 -0.16448276655E+02  0.18713452799E+02  0.30928298726E+02  0.00000000000E+00 0.  1.
</event>
<event>
 5    1  0.1758488E-003  0.9118800E+02  0.7818608E-02  0.1130116E+00
         25   -1    0    0    0    0  0.00000000000E+00  0.00000000000E+00  0.99999998245E-14  0.12500000000E+03  0.12500000000E+03 0.  0.
        -13    1    3    3    0    0 -0.35891668186E+02  0.10519109454E+02  0.47609021056E+01  0.37703326933E+02  0.10566000000E+00 0. -1.
         23    2    1    0    0    0  0.21137612345E+02  0.11003869435E+02 -0.13530685650E+02  0.97596291267E+02  0.93670020907E+02 0.  0.
         13    1    3    3    0    0  0.57029280531E+02  0.48475998070E+00 -0.18291587755E+02  0.59892964334E+02  0.10566000000E+00 0.  1.
         22    1    1    0    0    0 -0.21137612345E+02 -0.11003869435E+02  0.13530685650E+02  0.27403708733E+02  0.00000000000E+00 0.  1.
</event>
<event>
 5    1  0.1758488E-003  0.9118800E+02  0.7818608E-02  0.1130116E+00
         25   -1    0    0    0    0  0.00000000000E+00  0.00000000000E+00  0.99999998245E-14  0.12500000000E+03  0.12500000000E+03 0.  0.
        -13    1    3    3    0    0  0.14460501083E+02 -0.45314462376E+02 -0.91661765496E+01  0.48441062628E+02  0.10566000000E+00 0.  1.
         23    2    1    0    0    0  0.12592566087E+02 -0.40769940513E+00 -0.25737324947E+02  0.96344305367E+02  0.91984109181E+02 0.  0.
         13    1    3    3    0    0 -0.18679349964E+01  0.44906762971E+02 -0.16571148398E+02  0.47903242739E+02  0.10566000000E+00 0. -1.
         22    1    1    0    0    0 -0.12592566087E+02  0.40769940513E+00  0.25737324947E+02  0.28655694633E+02  0.00000000000E+00 0. -1.
</event>
<event>
 5    1  0.1758488E-003  0.9118800E+02  0.7818608E-02  0.1130116E+00
         25   -1    0    0    0    0  0.00000000000E+00  0.00000000000E+00  0.99999998245E-14  0.12500000000E+03  0.12500000000E+03 0.  0.
        -13    1    3    3    0    0  0.47142920413E+02 -0.19897874018E+02  0.44011235036E+01  0.51359141227E+02  0.10566000000E+00 0. -1.
         23    2    1    0    0    0  0.18071059642E+01 -0.27467743641E+02  0.24489850905E+01  0.97364151892E+02  0.93359723505E+02 0.  0.
         13    1    3    3    0    0 -0.45335814449E+02 -0.75698696227E+01 -0.19521384131E+01  0.46005010665E+02  0.10566000000E+00 0.  1.
         22    1    1    0    0    0 -0.18071059642E+01  0.27467743641E+02 -0.24489850905E+01  0.27635848108E+02  0.00000000000E+00 0. -1.
</event>
<event>
 5    1  0.1758488E-003  0.9118800E+02  0.7818608E-02  0.1130116E+00
         25   -1    0    0    0    0  0.00000000000E+00  0.00000000000E+00  0.99999998245E-14  0.12500000000E+03  0.12500000000E+03 0.  0.
        -13    1    3    3    0    0  0.26864541298E+02 -0.28655842079E+02 -0.20776764082E+02  0.44435863378E+02  0.10566000000E+00 0.  1.
         23    2    1    0    0    0  0.70021058383E+00 -0.24788360400E+02  0.20069814609E+02  0.93097796869E+02  0.87461129751E+02 0.  0.
         13    1    3    3    0    0 -0.26164330715E+02  0.38674816785E+01  0.40846578691E+02  0.48661933491E+02  0.10566000000E+00 0. -1.
         22    1    1    0    0    0 -0.70021058383E+00  0.24788360400E+02 -0.20069814609E+02  0.31902203131E+02  0.00000000000E+00 0.  1.
</event>
<event>
 5    1  0.1758488E-003  0.9118800E+02  0.7818608E-02  0.1130116E+00
         25   -1    0    0    0    0  0.00000000000E+00  0.00000000000E+00  0.99999998245E-14  0.12500000000E+03  0.12500000000E+03 0.  0.
        -13    1    3    3    0    0  0.28050358728E+00 -0.28456605898E+02 -0.21021551562E+02  0.35380416838E+02  0.10566000000E+00 0. -1.
         23    2    1    0    0    0 -0.18037038928E+02  0.22243047194E+02  0.60915648942E+01  0.95722105871E+02  0.91134661177E+02 0.  0.
         13    1    3    3    0    0 -0.18317542515E+02  0.50699653092E+02  0.27113116457E+02  0.60341689034E+02  0.10566000000E+00 0.  1.
         22    1    1    0    0    0  0.18037038928E+02 -0.22243047194E+02 -0.60915648942E+01  0.29277894129E+02  0.00000000000E+00 0.  1.
</event>
<event>
 5    1  0.1758488E-003  0.9118800E+02  0.7818608E-02  0.1130116E+00
         25   -1    0    0    0    0  0.00000000000E+00  0.00000000000E+00  0.99999998245E-14  0.12500000000E+03  0.12500000000E+03 0.  0.
        -13    1    3    3    0    0  0.91041286579E+00  0.35777734763E+02  0.65625359664E+01  0.36386167683E+02  0.10566000000E+00 0. -1.
         23    2    1    0    0    0 -0.75763201583E+01 -0.22124995861E+02  0.17333317495E+02  0.95890551974E+02  0.91365409174E+02 0.  0.
         13    1    3    3    0    0 -0.84867330241E+01 -0.57902730623E+02  0.10770781529E+02  0.59504384291E+02  0.10566000000E+00 0.  1.
         22    1    1    0    0    0  0.75763201583E+01  0.22124995861E+02 -0.17333317495E+02  0.29109448026E+02  0.00000000000E+00 0.  1.
</event>
<event>
 5    1  0.1758488E-003  0.9118800E+02  0.7818608E-02  0.1130116E+00
         25   -1    0    0    0    0  0.00000000000E+00  0.00000000000E+00  0.99999998245E-14  0.12500000000E+03  0.12500000000E+03 0.  0.
        -13    1    3    3    0    0 -0.53267831081E+02  0.23880505871E+02  0.36601775014E+01  0.58490584303E+02  0.10566000000E+00 0. -1.
         23    2    1    0    0    0 -0.26070340075E+02  0.40887298650E+01 -0.12491041178E+02  0.95803999362E+02  0.91246916883E+02 0.  0.
         13    1    3    3    0    0  0.27197491006E+02 -0.19791776006E+02 -0.16151218679E+02  0.37313415059E+02  0.10566000000E+00 0.  1.
         22    1    1    0    0    0  0.26070340075E+02 -0.40887298650E+01  0.12491041178E+02  0.29196000638E+02  0.00000000000E+00 0. -1.
</event>
<event>
 5    1  0.1758488E-003  0.9118800E+02  0.7818608E-02  0.1130116E+00
         25   -1    0    0    0    0  0.00000000000E+00  0.00000000000E+00  0.99999998245E-14  0.12500000000E+03  0.12500000000E+03 0.  0.
        -13    1    3    3    0    0  0.34516191562E+02 -0.19013654804E+02 -0.14107726295E+02  0.41856010969E+02  0.10566000000E+00 0. -1.
         23    2    1    0    0    0 -0.61909443153E+01 -0.19472445582E+02  0.21063088564E+02  0.95654512642E+02  0.91041903322E+02 0.  0.
         13    1    3    3    0    0 -0.40707135878E+02 -0.45879077813E+00  0.35170814859E+02  0.53798501673E+02  0.10566000000E+00 0.  1.
         22    1    1    0    0    0  0.61909443153E+01  0.19472445582E+02 -0.21063088564E+02  0.29345487358E+02  0.00000000000E+00 0.  1.
</event>
<event>
 5    1  0.1758488E-003  0.9118800E+02  0.7818608E-02  0.1130116E+00
         25   -1    0    0    0    0  0.00000000000E+00  0.00000000000E+00  0.99999998245E-14  0.12500000000E+03  0.12500000000E+03 0.  0.
        -13    1    3    3    0    0 -0.20237789457E+02 -0.42671638238E+01  0.30682809935E+02  0.37003010671E+02  0.10566000000E+00 0.  1.
         23    2    1    0    0    0  0.13709533348E+02 -0.31986971818E+02  0.54091034667E+00  0.90194680655E+02  0.83208594291E+02 0.  0.
         13    1    3    3    0    0  0.33947322805E+02 -0.27719807994E+02 -0.30141899588E+02  0.53191669984E+02  0.10566000000E+00 0. -1.
         22    1    1    0    0    0 -0.13709533348E+02  0.31986971818E+02 -0.54091034667E+00  0.34805319345E+02  0.00000000000E+00 0. -1.
</event>
<event>
 5    1  0.1758488E-003  0.9118800E+02  0.7818608E-02  0.1130116E+00
         25   -1    0    0    0    0  0.00000000000E+00  0.00000000000E+00  0.99999998245E-14  0.12500000000E+03  0.12500000000E+03 0.  0.
        -13    1    3    3    0    0 -0.25119272992E+02 -0.23633055770E+01  0.57051592043E+02  0.62381555026E+02  0.10566000000E+00 0. -1.
         23    2    1    0    0    0 -0.11316286028E+02 -0.37486181289E+01  0.27497315903E+02  0.95029800648E+02  0.90180098480E+02 0.  0.
         13    1    3    3    0    0  0.13802986964E+02 -0.13853125518E+01 -0.29554276139E+02  0.32648245621E+02  0.10566000000E+00 0.  1.
         22    1    1    0    0    0  0.11316286028E+02  0.37486181289E+01 -0.27497315903E+02  0.29970199352E+02  0.00000000000E+00 0. -1.
</event>
<event>
 5    1  0.1758488E-003  0.9118800E+02  0.7818608E-02  0.1130116E+00
         25   -1    0    0    0    0  0.00000000000E+00  0.00000000000E+00  0.99999998245E-14  0.12500000000E+03  0.12500000000E+03 0.  0.
        -13    1    3    3    0    0  0.19452687107E+02 -0.57637997637E+02 -0.15641941866E+01  0.60852310348E+02  0.10566000000E+00 0. -1.
         23    2    1    0    0    0  0.90573153711E+00 -0.30163620493E+02  0.43068511481E+01  0.94516999529E+02  0.89466473510E+02 0.  0.
         13    1    3    3    0    0 -0.18546955569E+02  0.27474377143E+02  0.58710453347E+01  0.33664689181E+02  0.10566000000E+00 0.  1.
         22    1    1    0    0    0 -0.90573153711E+00  0.30163620493E+02 -0.43068511481E+01  0.30483000471E+02  0.00000000000E+00 0. -1.
</event>
<event>
 5    1  0.1758488E-003  0.9118800E+02  0.7818608E-02  0.1130116E+00
         25   -1    0    0    0    0  0.00000000000E+00  0.00000000000E+00  0.99999998245E-14  0.12500000000E+03  0.12500000000E+03 0.  0.
        -13    1    3    3    0    0  0.11044274833E+02 -0.23195913183E+02  0.34579707366E+02  0.43078924320E+02  0.10566000000E+00 0.  1.
         23    2    1    0    0    0  0.16836576328E+02 -0.17061393015E+02 -0.17171862253E+02  0.95513828881E+02  0.90848540001E+02 0.  0.
         13    1    3    3    0    0  0.57923014950E+01  0.61345201689E+01 -0.51751569619E+02  0.52434904561E+02  0.10566000000E+00 0. -1.
         22    1    1    0    0    0 -0.16836576328E+02  0.17061393015E+02  0.17171862253E+02  0.29486171119E+02  0.00000000000E+00 0. -1.
</event>
<event>
 5    1  0.1758488E-003  0.9118800E+02  0.7818608E-02  0.1130116E+00
         25   -1    0    0    0    0  0.00000000000E+00  0.00000000000E+00  0.99999998245E-14  0.12500000000E+03  0.12500000000E+03 0.  0.
        -13    1    3    3    0    0  0.21289710741E+02 -0.36886245661E+02 -0.46734544016E+00  0.42591976688E+02  0.10566000000E+00 0. -1.
         23    2    1    0    0    0  0.18037938711E+02  0.15003755275E+02  0.15380757652E+02  0.96945631156E+02  0.92797671248E+02 0.  0.
         13    1    3    3    0    0 -0.32517720296E+01  0.51890000936E+02  0.15848103092E+02  0.54353654469E+02  0.10566000000E+00 0.  1.
         22    1    1    0    0    0 -0.18037938711E+02 -0.15003755275E+02 -0.15380757652E+02  0.28054368844E+02  0.00000000000E+00 0.  1.
</event>
<event>
 5    1  0.1758488E-003  0.9118800E+02  0.7818608E-02  0.1130116E+00
         25   -1    0    0    0    0  0.00000000000E+00  0.00000000000E+00  0.99999998245E-14  0.12500000000E+03  0.12500000000E+03 0.  0.
        -13    1    3    3    0    0  0.65010305242E+01  0.44443758291E+02 -0.53403820561E+01  0.45233194597E+02  0.10566000000E+00 0. -1.
         23    2    1    0    0    0  0.29592052656E+02  0.20277727662E+00 -0.15131591114E+00  0.95406865737E+02  0.90701248251E+02 0.  0.
         13    1    3    3    0    0  0.23091022131E+02 -0.44240981014E+02  0.51890661449E+01  0.50173671140E+02  0.10566000000E+00 0.  1.
         22    1    1    0    0    0 -0.29592052656E+02 -0.20277727662E+00  0.15131591114E+00  0.29593134263E+02  0.00000000000E+00 0. -1.
</event>
<event>
 5    1  0.1758488E-003  0.9118800E+02  0.7818608E-02  0.1130116E+00
         25   -1    0    0    0    0  0.00000000000E+00  0.00000000000E+00  0.99999998245E-14  0.12500000000E+03  0.12500000000E+03 0.  0.
        -13    1    3    3    0    0  0.29205541696E+02 -0.40399795273E+01 -0.21004438643E+02  0.36200589872E+02  0.10566000000E+00 0. -1.
         23    2    1    0    0    0 -0.27942772499E+02  0.46073657775E+01 -0.94644203458E+01  0.95140301294E+02  0.90333135247E+02 0.  0.
         13    1    3    3    0    0 -0.57148314195E+02  0.86473453047E+01  0.11540018297E+02  0.58939711422E+02  0.10566000000E+00 0.  1.
         22    1    1    0    0    0  0.27942772499E+02 -0.46073657775E+01  0.94644203458E+01  0.29859698706E+02  0.00000000000E+00 0.  1.
</event>
<event>
 5    1  0.1758488E-003  0.9118800E+02  0.7818608E-02  0.1130116E+00
         25   -1    0    0    0    0  0.00000000000E+00  0.00000000000E+00  0.99999998245E-14  0.12500000000E+03  0.12500000000E+03 0.  0.
        -13    1    3    3    0    0 -0.21835580703E+01 -0.39184742450E+02  0.98594351143E+01  0.40465189874E+02  0.10566000000E+00 0. -1.
         23    2    1    0    0    0  0.21906343194E+02  0.79472268074E+01  0.19918275942E+02  0.94344103299E+02  0.89224580833E+02 0.  0.
         13    1    3    3    0    0  0.24089901264E+02  0.47131969258E+02  0.10058840827E+02  0.53878913425E+02  0.10566000000E+00 0.  1.
         22    1    1    0    0    0 -0.21906343194E+02 -0.79472268074E+01 -0.19918275942E+02  0.30655896701E+02  0.00000000000E+00 0.  1.
</event>
<event>
 5    1  0.1758488E-003  0.9118800E+02  0.7818608E-02  0.1130116E+00
         25   -1    0    0    0    0  0.00000000000E+00  0.00000000000E+00  0.99999998245E-14  0.12500000000E+03  0.12500000000E+03 0.  0.
        -13    1    3    3    0    0 -0.16793637701E+01 -0.33883301962E+02  0.35554379395E+01  0.34110859232E+02  0.10566000000E+00 0. -1.
         23    2    1    0    0    0  0.15043183709E+02  0.25217715489E+02  0.23212630654E+01  0.95544630153E+02  0.90890910097E+02 0.  0.
         13    1    3    3    0    0  0.16722547479E+02  0.59101017452E+02 -0.12341748741E+01  0.61433770922E+02  0.10566000000E+00 0.  1.
         22    1    1    0    0    0 -0.15043183709E+02 -0.25217715489E+02 -0.23212630654E+01  0.29455369847E+02  0.00000000000E+00 0.  1.
</event>
<event>
 5    1  0.1758488E-003  0.9118800E+02  0.7818608E-02  0.1130116E+00
         25   -1    0    0    0    0  0.00000000000E+00  0.00000000000E+00  0.99999998245E-14  0.12500000000E+03  0.12500000000E+03 0.  0.
        -13    1    3    3    0    0  0.59812658098E+02 -0.52726000712E+01  0.34128633889E+01  0.60141609397E+02  0.10566000000E+00 0.  1.
         23    2    1    0    0    0  0.22144902991E+02  0.48669021509E+01 -0.82751024032E+01  0.10086370400E+03  0.97933273196E+02 0.  0.
         13    1    3    3    0    0 -0.37667755107E+02  0.10139502222E+02 -0.11687965792E+02  0.40722094599E+02  0.10566000000E+00 0. -1.
         22    1    1    0    0    0 -0.22144902991E+02 -0.48669021509E+01  0.82751024032E+01  0.24136296004E+02  0.00000000000E+00 0.  1.
</event>
<event>
 5    1  0.1758488E-003  0.9118800E+02  0.7818608E-02  0.1130116E+00
         25   -1    0    0    0    0  0.00000000000E+00  0.00000000000E+00  0.99999998245E-14  0.12500000000E+03  0.12500000000E+03 0.  0.
        -13    1    3    3    0    0 -0.31508097421E+02 -0.18779797698E+02  0.12447082983E+02  0.38734765308E+02  0.10566000000E+00 0.  1.
         23    2    1    0    0    0 -0.40533685334E+01  0.28946662276E+02 -0.21355563775E+01  0.95693010144E+02  0.91094744831E+02 0.  0.
         13    1    3    3    0    0  0.27454728888E+02  0.47726459974E+02 -0.14582639361E+02  0.56958244835E+02  0.10566000000E+00 0. -1.
         22    1    1    0    0    0  0.40533685334E+01 -0.28946662276E+02  0.21355563775E+01  0.29306989856E+02  0.00000000000E+00 0. -1.
</event>
<event>
 5    1  0.1758488E-003  0.9118800E+02  0.7818608E-02  0.1130116E+00
         25   -1    0    0    0    0  0.00000000000E+00  0.00000000000E+00  0.99999998245E-14  0.12500000000E+03  0.12500000000E+03 0.  0.
        -13    1    3    3    0    0 -0.13185230801E+02  0.20892469485E+02 -0.27252597283E+02  0.36783974978E+02  0.10566000000E+00 0. -1.
         23    2    1    0    0    0  0.79324399834E+01 -0.28262202928E+02 -0.30996083696E+01  0.95482491798E+02  0.90805412556E+02 0.  0.
         13    1    3    3    0    0  0.21117670785E+02 -0.49154672413E+02  0.24152988914E+02  0.58698516820E+02  0.10566000000E+00 0.  1.
         22    1    1    0    0    0 -0.79324399834E+01  0.28262202928E+02  0.30996083696E+01  0.29517508202E+02  0.00000000000E+00 0.  1.
</event>
<event>
 5    1  0.1758488E-003  0.9118800E+02  0.7818608E-02  0.1130116E+00
         25   -1    0    0    0    0  0.00000000000E+00  0.00000000000E+00  0.99999998245E-14  0.12500000000E+03  0.12500000000E+03 0.  0.
        -13    1    3    3    0    0  0.28153513999E+02  0.15213690467E+02 -0.14396188782E+02  0.35090428091E+02  0.10566000000E+00 0.  1.
         23    2    1    0    0    0 -0.67391809316E+01 -0.93498902957E+01  0.27679123950E+02  0.95017156392E+02  0.90162570383E+02 0.  0.
         13    1    3    3    0    0 -0.34892694930E+02 -0.24563580763E+02  0.42075312732E+02  0.59926728301E+02  0.10566000000E+00 0. -1.
         22    1    1    0    0    0  0.67391809316E+01  0.93498902957E+01 -0.27679123950E+02  0.29982843608E+02  0.00000000000E+00 0. -1.
</event>
<event>
 5    1  0.1758488E-003  0.9118800E+02  0.7818608E-02  0.1130116E+00
         25   -1    0    0    0    0  0.00000000000E+00  0.00000000000E+00  0.99999998245E-14  0.12500000000E+03  0.12500000000E+03 0.  0.
        -13    1    3    3    0    0  0.42641857399E+02 -0.15246581601E+02 -0.24873001927E+02  0.51666852448E+02  0.10566000000E+00 0. -1.
         23    2    1    0    0    0 -0.15732722485E+01 -0.86843683213E+01 -0.27177076111E+02  0.96425765021E+02  0.92094740649E+02 0.  0.
         13    1    3    3    0    0 -0.44215129648E+02  0.65622132795E+01 -0.23040741840E+01  0.44758912573E+02  0.10566000000E+00 0.  1.
         22    1    1    0    0    0  0.15732722485E+01  0.86843683213E+01  0.27177076111E+02  0.28574234979E+02  0.00000000000E+00 0. -1.
</event>
<event>
 5    1  0.1758488E-003  0.9118800E+02  0.7818608E-02  0.1130116E+00
         25   -1    0    0    0    0  0.00000000000E+00  0.00000000000E+00  0.99999998245E-14  0.12500000000E+03  0.12500000000E+03 0.  0.
        -13    1    3    3    0    0  0.26783171878E+02 -0.54696390333E+02  0.11062075487E+02  0.61898417504E+02  0.10566000000E+00 0. -1.
         23    2    1    0    0    0  0.16186728399E+02 -0.23994417051E+02  0.99394442346E+01  0.94397144290E+02  0.89298858182E+02 0.  0.
         13    1    3    3    0    0 -0.10596443480E+02  0.30701973282E+02 -0.11226312525E+01  0.32498726787E+02  0.10566000000E+00 0.  1.
         22    1    1    0    0    0 -0.16186728399E+02  0.23994417051E+02 -0.99394442346E+01  0.30602855710E+02  0.00000000000E+00 0. -1.
</event>
<event>
 5    1  0.1758488E-003  0.9118800E+02  0.7818608E-02  0.1130116E+00
         25   -1    0    0    0    0  0.00000000000E+00  0.00000000000E+00  0.99999998245E-14  0.12500000000E+03  0.12500000000E+03 0.  0.
        -13    1    3    3    0    0  0.61817417674E+01  0.16041083910E+02 -0.86771752906E+01  0.19257072450E+02  0.10566000000E+00 0.  1.
         23    2    1    0    0    0 -0.38625565514E+02 -0.11435700890E+02 -0.28738437497E+02  0.75516595147E+02  0.57045146916E+02 0.  0.
         13    1    3    3    0    0 -0.44807307282E+02 -0.27476784800E+02 -0.20061262206E+02  0.56259522697E+02  0.10566000000E+00 0. -1.
         22    1    1    0    0    0  0.38625565514E+02  0.11435700890E+02  0.28738437497E+02  0.49483404853E+02  0.00000000000E+00 0. -1.
</event>
<event>
 5    1  0.1758488E-003  0.9118800E+02  0.7818608E-02  0.1130116E+00
         25   -1    0    0    0    0  0.00000000000E+00  0.00000000000E+00  0.99999998245E-14  0.12500000000E+03  0.12500000000E+03 0.  0.
        -13    1    3    3    0    0  0.76270206507E+01 -0.61549692729E+02  0.35197861516E+01  0.62120336264E+02  0.10566000000E+00 0. -1.
         23    2    1    0    0    0  0.17792750165E+01 -0.28557182056E+02  0.61626083357E+01  0.95731310107E+02  0.91147284801E+02 0.  0.
         13    1    3    3    0    0 -0.58477456342E+01  0.32992510673E+02  0.26428221841E+01  0.33610973842E+02  0.10566000000E+00 0.  1.
         22    1    1    0    0    0 -0.17792750165E+01  0.28557182056E+02 -0.61626083357E+01  0.29268689893E+02  0.00000000000E+00 0. -1.
</event>
<event>
 5    1  0.1758488E-003  0.9118800E+02  0.7818608E-02  0.1130116E+00
         25   -1    0    0    0    0  0.00000000000E+00  0.00000000000E+00  0.99999998245E-14  0.12500000000E+03  0.12500000000E+03 0.  0.
        -13    1    3    3    0    0 -0.11740660829E+02 -0.31914392870E+02  0.20877066346E+02  0.39902815091E+02  0.10566000000E+00 0. -1.
         23    2    1    0    0    0 -0.54444182657E-01 -0.14393564897E+02 -0.28217125550E+02  0.93323765234E+02  0.87783491094E+02 0.  0.
         13    1    3    3    0    0  0.11686216646E+02  0.17520827972E+02 -0.49094191896E+02  0.53420950144E+02  0.10566000000E+00 0.  1.
         22    1    1    0    0    0  0.54444182657E-01  0.14393564897E+02  0.28217125550E+02  0.31676234766E+02  0.00000000000E+00 0.  1.
</event>
<event>
 5    1  0.1758488E-003  0.9118800E+02  0.7818608E-02  0.1130116E+00
         25   -1    0    0    0    0  0.00000000000E+00  0.00000000000E+00  0.99999998245E-14  0.12500000000E+03  0.12500000000E+03 0.  0.
        -13    1    3    3    0    0 -0.23044725102E+01  0.21003324116E+02 -0.40823017227E+02  0.45967163465E+02  0.10566000000E+00 0.  1.
         23    2    1    0    0    0 -0.43838784804E+01 -0.23061352594E+02 -0.16080697514E+02  0.96545945693E+02  0.92257717418E+02 0.  0.
         13    1    3    3    0    0 -0.20794059701E+01 -0.44064676710E+02  0.24742319713E+02  0.50578782227E+02  0.10566000000E+00 0. -1.
         22    1    1    0    0    0  0.43838784804E+01  0.23061352594E+02  0.16080697514E+02  0.28454054307E+02  0.00000000000E+00 0. -1.
</event>
<event>
 5    1  0.1758488E-003  0.9118800E+02  0.7818608E-02  0.1130116E+00
         25   -1    0    0    0    0  0.00000000000E+00  0.00000000000E+00  0.99999998245E-14  0.12500000000E+03  0.12500000000E+03 0.  0.
        -13    1    3    3    0    0  0.27017277782E+02  0.29991409604E+02  0.31585948121E+02  0.51255255648E+02  0.10566000000E+00 0. -1.
         23    2    1    0    0    0 -0.53081037082E+01 -0.63380300904E+00  0.28622125663E+02  0.95882930287E+02  0.91354981100E+02 0.  0.
         13    1    3    3    0    0 -0.32325381490E+02 -0.30625212613E+02 -0.29638224583E+01  0.44627674639E+02  0.10566000000E+00 0.  1.
         22    1    1    0    0    0  0.53081037082E+01  0.63380300904E+00 -0.28622125663E+02  0.29117069713E+02  0.00000000000E+00 0. -1.
</event>
<event>
 5    1  0.1758488E-003  0.9118800E+02  0.7818608E-02  0.1130116E+00
         25   -1    0    0    0    0  0.00000000000E+00  0.00000000000E+00  0.99999998245E-14  0.12500000000E+03  0.12500000000E+03 0.  0.
        -13    1    3    3    0    0  0.20278324600E+01 -0.62929464221E+01  0.49131007272E+02  0.49573988328E+02  0.10566000000E+00 0. -1.
         23    2    1    0    0    0  0.26905840712E+02 -0.85990721157E+01  0.12041700406E+02  0.94293797787E+02  0.89154077006E+02 0.  0.
         13    1    3    3    0    0  0.24878008252E+02 -0.23061256936E+01 -0.37089306865E+02  0.44719809459E+02  0.10566000000E+00 0.  1.
         22    1    1    0    0    0 -0.26905840712E+02  0.85990721157E+01 -0.12041700406E+02  0.30706202213E+02  0.00000000000E+00 0. -1.
</event>
<event>
 5    1  0.1758488E-003  0.9118800E+02  0.7818608E-02  0.1130116E+00
         25   -1    0    0    0    0  0.00000000000E+00  0.00000000000E+00  0.99999998245E-14  0.12500000000E+03  0.12500000000E+03 0.  0.
        -13    1    3    3    0    0 -0.95603617990E+01  0.33307656102E+02  0.16380044960E+02  0.38329068730E+02  0.10566000000E+00 0. -1.
         23    2    1    0    0    0  0.32048047335E+02  0.38480214376E+00  0.60499182485E+01  0.92383640278E+02  0.86434426414E+02 0.  0.
         13    1    3    3    0    0  0.41608409134E+02 -0.32922853958E+02 -0.10330126712E+02  0.54054571549E+02  0.10566000000E+00 0.  1.
         22    1    1    0    0    0 -0.32048047335E+02 -0.38480214376E+00 -0.60499182485E+01  0.32616359722E+02  0.00000000000E+00 0.  1.
</event>
<event>
 5    1  0.1758488E-003  0.9118800E+02  0.7818608E-02  0.1130116E+00
         25   -1    0    0    0    0  0.00000000000E+00  0.00000000000E+00  0.99999998245E-14  0.12500000000E+03  0.12500000000E+03 0.  0.
        -13    1    3    3    0    0  0.13146859125E+02  0.32062962645E+02  0.14610748861E+02  0.37607959593E+02  0.10566000000E+00 0. -1.
         23    2    1    0    0    0 -0.29766606921E+02  0.74655657584E+00  0.16862304877E+02  0.90780918188E+02  0.84084657024E+02 0.  0.
         13    1    3    3    0    0 -0.42913466046E+02 -0.31316406069E+02  0.22515560169E+01  0.53172958595E+02  0.10566000000E+00 0.  1.
         22    1    1    0    0    0  0.29766606921E+02 -0.74655657584E+00 -0.16862304877E+02  0.34219081812E+02  0.00000000000E+00 0.  1.
</event>
<event>
 4    1  0.1758488E-003  0.9118800E+02  0.7818608E-02  0.1130116E+00
         25   -1    0    0    0    0  0.00000000000E+00  0.00000000000E+00  0.99999998245E-14  0.12500000000E+03  0.12500000000E+03 0.  0.
        -13    1    1    0    0    0  0.60359628532E+01  0.22762346275E+02  0.84278742202E+00  0.23564352530E+02  0.10566000000E+00 0.  1.
         13    1    1    0    0    0  0.42396483261E+02  0.81289435734E+01  0.60010864534E+01  0.43584007608E+02  0.10566000000E+00 0. -1.
         22    1    1    0    0    0 -0.48432446114E+02 -0.30891289848E+02 -0.68438738754E+01  0.57851639862E+02  0.00000000000E+00 0. -1.
</event>
<event>
 5    1  0.1758488E-003  0.9118800E+02  0.7818608E-02  0.1130116E+00
         25   -1    0    0    0    0  0.00000000000E+00  0.00000000000E+00  0.99999998245E-14  0.12500000000E+03  0.12500000000E+03 0.  0.
        -13    1    3    3    0    0 -0.17743766518E+02 -0.50737575853E+02  0.10794556610E+01  0.53761689354E+02  0.10566000000E+00 0. -1.
         23    2    1    0    0    0 -0.23010607988E+02 -0.10849221615E+02  0.13926368180E+02  0.95997630781E+02  0.91511789925E+02 0.  0.
         13    1    3    3    0    0 -0.52668414706E+01  0.39888354238E+02  0.12846912519E+02  0.42235941427E+02  0.10566000000E+00 0.  1.
         22    1    1    0    0    0  0.23010607988E+02  0.10849221615E+02 -0.13926368180E+02  0.29002369219E+02  0.00000000000E+00 0. -1.
</event>
<event>
 5    1  0.1758488E-003  0.9118800E+02  0.7818608E-02  0.1130116E+00
         25   -1    0    0    0    0  0.00000000000E+00  0.00000000000E+00  0.99999998245E-14  0.12500000000E+03  0.12500000000E+03 0.  0.
        -13    1    3    3    0    0 -0.35908823067E+02  0.24455766765E+02  0.10948561847E+02  0.44804132317E+02  0.10566000000E+00 0.  1.
         23    2    1    0    0    0 -0.15106828418E+02 -0.22669878769E+02  0.88377045635E+01  0.96360085716E+02  0.92005551077E+02 0.  0.
         13    1    3    3    0    0  0.20801994650E+02 -0.47125645534E+02 -0.21108572836E+01  0.51555953399E+02  0.10566000000E+00 0. -1.
         22    1    1    0    0    0  0.15106828418E+02  0.22669878769E+02 -0.88377045635E+01  0.28639914284E+02  0.00000000000E+00 0. -1.
</event>
<event>
 5    1  0.1758488E-003  0.9118800E+02  0.7818608E-02  0.1130116E+00
         25   -1    0    0    0    0  0.00000000000E+00  0.00000000000E+00  0.99999998245E-14  0.12500000000E+03  0.12500000000E+03 0.  0.
        -13    1    3    3    0    0 -0.33332503136E+01 -0.48914226226E+01 -0.38602455413E+02  0.39053774477E+02  0.10566000000E+00 0.  1.
         23    2    1    0    0    0  0.24932699563E+02 -0.11828767913E+02  0.99525856149E+01  0.95663789981E+02  0.91054640164E+02 0.  0.
         13    1    3    3    0    0  0.28265949876E+02 -0.69373452907E+01  0.48555041028E+02  0.56610015504E+02  0.10566000000E+00 0. -1.
         22    1    1    0    0    0 -0.24932699563E+02  0.11828767913E+02 -0.99525856149E+01  0.29336210019E+02  0.00000000000E+00 0. -1.
</event>
<event>
 5    1  0.1758488E-003  0.9118800E+02  0.7818608E-02  0.1130116E+00
         25   -1    0    0    0    0  0.00000000000E+00  0.00000000000E+00  0.99999998245E-14  0.12500000000E+03  0.12500000000E+03 0.  0.
        -13    1    3    3    0    0  0.31074917079E+02  0.68878073339E+01 -0.14846211452E+02  0.35121411132E+02  0.10566000000E+00 0.  1.
         23    2    1    0    0    0 -0.18321296491E+02 -0.31068324404E+01  0.20993866793E+02  0.96963153603E+02  0.92821271274E+02 0.  0.
         13    1    3    3    0    0 -0.49396213570E+02 -0.99946397743E+01  0.35840078245E+02  0.61841742472E+02  0.10566000000E+00 0. -1.
         22    1    1    0    0    0  0.18321296491E+02  0.31068324404E+01 -0.20993866793E+02  0.28036846397E+02  0.00000000000E+00 0. -1.
</event>
<event>
 5    1  0.1758488E-003  0.9118800E+02  0.7818608E-02  0.1130116E+00
         25   -1    0    0    0    0  0.00000000000E+00  0.00000000000E+00  0.99999998245E-14  0.12500000000E+03  0.12500000000E+03 0.  0.
        -13    1    3    3    0    0 -0.13559979162E+02  0.52341438820E+01  0.36105181788E+02  0.38921261709E+02  0.10566000000E+00 0.  1.
         23    2    1    0    0    0  0.99732532677E+01 -0.29033766835E+02 -0.47888081495E+00  0.94297317312E+02  0.89159011480E+02 0.  0.
         13    1    3    3    0    0  0.23533232430E+02 -0.34267910717E+02 -0.36584062603E+02  0.55376055603E+02  0.10566000000E+00 0. -1.
         22    1    1    0    0    0 -0.99732532677E+01  0.29033766835E+02  0.47888081495E+00  0.30702682688E+02  0.00000000000E+00 0. -1.
</event>
<event>
 5    1  0.1758488E-003  0.9118800E+02  0.7818608E-02  0.1130116E+00
         25   -1    0    0    0    0  0.00000000000E+00  0.00000000000E+00  0.99999998245E-14  0.12500000000E+03  0.12500000000E+03 0.  0.
        -13    1    3    3    0    0  0.20418002249E+02  0.21577789079E+02 -0.22376933298E+02  0.37191855361E+02  0.10566000000E+00 0.  1.
         23    2    1    0    0    0 -0.23417957394E+01 -0.28297471989E+02  0.51206579623E+00  0.96601177144E+02  0.92332520197E+02 0.  0.
         13    1    3    3    0    0 -0.22759797988E+02 -0.49875261068E+02  0.22888999094E+02  0.59409321782E+02  0.10566000000E+00 0. -1.
         22    1    1    0    0    0  0.23417957394E+01  0.28297471989E+02 -0.51206579623E+00  0.28398822856E+02  0.00000000000E+00 0. -1.
</event>
<event>
 5    1  0.1758488E-003  0.9118800E+02  0.7818608E-02  0.1130116E+00
         25   -1    0    0    0    0  0.00000000000E+00  0.00000000000E+00  0.99999998245E-14  0.12500000000E+03  0.12500000000E+03 0.  0.
        -13    1    3    3    0    0  0.13320744245E+02  0.50944663073E+01  0.38714899336E+02  0.41258337446E+02  0.10566000000E+00 0.  1.
         23    2    1    0    0    0  0.25551153244E+02 -0.42318560566E+01 -0.13571694772E+02  0.95760284940E+02  0.91187012425E+02 0.  0.
         13    1    3    3    0    0  0.12230408999E+02 -0.93263223639E+01 -0.52286594108E+02  0.54501947494E+02  0.10566000000E+00 0. -1.
         22    1    1    0    0    0 -0.25551153244E+02  0.42318560566E+01  0.13571694772E+02  0.29239715060E+02  0.00000000000E+00 0. -1.
</event>
<event>
 5    1  0.1758488E-003  0.9118800E+02  0.7818608E-02  0.1130116E+00
         25   -1    0    0    0    0  0.00000000000E+00  0.00000000000E+00  0.99999998245E-14  0.12500000000E+03  0.12500000000E+03 0.  0.
        -13    1    3    3    0    0 -0.18899132565E+02 -0.32164074222E+02  0.11104692928E+02  0.38923389515E+02  0.10566000000E+00 0. -1.
         23    2    1    0    0    0 -0.79826648659E+01  0.79691446151E+01 -0.27254699460E+02  0.95503409572E+02  0.90834202770E+02 0.  0.
         13    1    3    3    0    0  0.10916467699E+02  0.40133218837E+02 -0.38359392388E+02  0.56580020057E+02  0.10566000000E+00 0.  1.
         22    1    1    0    0    0  0.79826648659E+01 -0.79691446151E+01  0.27254699460E+02  0.29496590428E+02  0.00000000000E+00 0.  1.
</event>
<event>
 5    1  0.1758488E-003  0.9118800E+02  0.7818608E-02  0.1130116E+00
         25   -1    0    0    0    0  0.00000000000E+00  0.00000000000E+00  0.99999998245E-14  0.12500000000E+03  0.12500000000E+03 0.  0.
        -13    1    3    3    0    0  0.10683240374E+02  0.25397145955E+02  0.39681591459E+02  0.48309279774E+02  0.10566000000E+00 0. -1.
         23    2    1    0    0    0  0.28052615286E+02 -0.56430551637E+01  0.98343894571E+01  0.94742628800E+02  0.89781162834E+02 0.  0.
         13    1    3    3    0    0  0.17369374912E+02 -0.31040201118E+02 -0.29847202002E+02  0.46433349025E+02  0.10566000000E+00 0.  1.
         22    1    1    0    0    0 -0.28052615286E+02  0.56430551637E+01 -0.98343894571E+01  0.30257371200E+02  0.00000000000E+00 0. -1.
</event>
<event>
 5    1  0.1758488E-003  0.9118800E+02  0.7818608E-02  0.1130116E+00
         25   -1    0    0    0    0  0.00000000000E+00  0.00000000000E+00  0.99999998245E-14  0.12500000000E+03  0.12500000000E+03 0.  0.
        -13    1    3    3    0    0 -0.31307271618E+02 -0.32232170067E+01  0.49690417862E+02  0.58819071528E+02  0.10566000000E+00 0.  1.
         23    2    1    0    0    0 -0.20777708537E+02  0.10790672476E+02  0.16489370894E+02  0.96363464996E+02  0.92010142099E+02 0.  0.
         13    1    3    3    0    0  0.10529563080E+02  0.14013889483E+02 -0.33201046969E+02  0.37544393469E+02  0.10566000000E+00 0. -1.
         22    1    1    0    0    0  0.20777708537E+02 -0.10790672476E+02 -0.16489370894E+02  0.28636535004E+02  0.00000000000E+00 0.  1.
</event>
<event>
 5    1  0.1758488E-003  0.9118800E+02  0.7818608E-02  0.1130116E+00
         25   -1    0    0    0    0  0.00000000000E+00  0.00000000000E+00  0.99999998245E-14  0.12500000000E+03  0.12500000000E+03 0.  0.
        -13    1    3    3    0    0  0.43843425563E+02 -0.24350924473E+02 -0.26140500106E+02  0.56555728248E+02  0.10566000000E+00 0.  1.
         23    2    1    0    0    0  0.21091687652E+02 -0.20191227071E+02  0.50314708349E+01  0.95371286943E+02  0.90652202046E+02 0.  0.
         13    1    3    3    0    0 -0.22751737911E+02  0.41596974015E+01  0.31171970941E+02  0.38815558695E+02  0.10566000000E+00 0. -1.
         22    1    1    0    0    0 -0.21091687652E+02  0.20191227071E+02 -0.50314708349E+01  0.29628713057E+02  0.00000000000E+00 0. -1.
</event>
<event>
 5    1  0.1758488E-003  0.9118800E+02  0.7818608E-02  0.1130116E+00
         25   -1    0    0    0    0  0.00000000000E+00  0.00000000000E+00  0.99999998245E-14  0.12500000000E+03  0.12500000000E+03 0.  0.
        -13    1    3    3    0    0 -0.11816065757E+02 -0.31127366471E+01 -0.59432301611E+02  0.60675515476E+02  0.10566000000E+00 0. -1.
         23    2    1    0    0    0  0.44492557300E+01  0.21334911502E+01 -0.29041090701E+02  0.95542698525E+02  0.90888253539E+02 0.  0.
         13    1    3    3    0    0  0.16265321487E+02  0.52462277972E+01  0.30391210910E+02  0.34867183049E+02  0.10566000000E+00 0.  1.
         22    1    1    0    0    0 -0.44492557300E+01 -0.21334911502E+01  0.29041090701E+02  0.29457301475E+02  0.00000000000E+00 0. -1.
</event>
<event>
 5    1  0.1758488E-003  0.9118800E+02  0.7818608E-02  0.1130116E+00
         25   -1    0    0    0    0  0.00000000000E+00  0.00000000000E+00  0.99999998245E-14  0.12500000000E+03  0.12500000000E+03 0.  0.
        -13    1    3    3    0    0 -0.12778639426E+02  0.47559552772E+02 -0.28322273348E+02  0.56809920058E+02  0.10566000000E+00 0. -1.
         23    2    1    0    0    0  0.13032454035E+02  0.22109905989E+02 -0.13814207160E+02  0.95853385780E+02  0.91314546733E+02 0.  0.
         13    1    3    3    0    0  0.25811093461E+02 -0.25449646783E+02  0.14508066188E+02  0.39043465722E+02  0.10566000000E+00 0.  1.
         22    1    1    0    0    0 -0.13032454035E+02 -0.22109905989E+02  0.13814207160E+02  0.29146614220E+02  0.00000000000E+00 0. -1.
</event>
<event>
 5    1  0.1758488E-003  0.9118800E+02  0.7818608E-02  0.1130116E+00
         25   -1    0    0    0    0  0.00000000000E+00  0.00000000000E+00  0.99999998245E-14  0.12500000000E+03  0.12500000000E+03 0.  0.
        -13    1    3    3    0    0  0.30175696156E+02 -0.22675176442E+02  0.27337170999E+02  0.46605454052E+02  0.10566000000E+00 0. -1.
         23    2    1    0    0    0  0.19475110668E+02  0.20654907438E+02  0.14905146767E+02  0.92936492130E+02  0.87230287358E+02 0.  0.
         13    1    3    3    0    0 -0.10700585488E+02  0.43330083880E+02 -0.12432024232E+02  0.46331038078E+02  0.10566000000E+00 0.  1.
         22    1    1    0    0    0 -0.19475110668E+02 -0.20654907438E+02 -0.14905146767E+02  0.32063507870E+02  0.00000000000E+00 0. -1.
</event>
<event>
 5    1  0.1758488E-003  0.9118800E+02  0.7818608E-02  0.1130116E+00
         25   -1    0    0    0    0  0.00000000000E+00  0.00000000000E+00  0.99999998245E-14  0.12500000000E+03  0.12500000000E+03 0.  0.
        -13    1    3    3    0    0 -0.23933447977E+02  0.23786124183E+02 -0.22717467782E+02  0.40677808965E+02  0.10566000000E+00 0. -1.
         23    2    1    0    0    0  0.26066265362E+02  0.47453922025E+01 -0.14467064104E+02  0.94812835826E+02  0.89878857116E+02 0.  0.
         13    1    3    3    0    0  0.49999713339E+02 -0.19040731981E+02  0.82504036774E+01  0.54135026861E+02  0.10566000000E+00 0.  1.
         22    1    1    0    0    0 -0.26066265362E+02 -0.47453922025E+01  0.14467064104E+02  0.30187164174E+02  0.00000000000E+00 0.  1.
</event>
<event>
 5    1  0.1758488E-003  0.9118800E+02  0.7818608E-02  0.1130116E+00
         25   -1    0    0    0    0  0.00000000000E+00  0.00000000000E+00  0.99999998245E-14  0.12500000000E+03  0.12500000000E+03 0.  0.
        -13    1    3    3    0    0  0.37015595598E+02  0.13329627788E+02  0.57439816677E+01  0.39759750802E+02  0.10566000000E+00 0.  1.
         23    2    1    0    0    0  0.42561805352E+01 -0.29801952476E+02  0.75913519513E+01  0.93953259937E+02  0.88675334700E+02 0.  0.
         13    1    3    3    0    0 -0.32759415063E+02 -0.43131580264E+02  0.18473702836E+01  0.54193509134E+02  0.10566000000E+00 0. -1.
         22    1    1    0    0    0 -0.42561805352E+01  0.29801952476E+02 -0.75913519513E+01  0.31046740063E+02  0.00000000000E+00 0. -1.
</event>
<event>
 5    1  0.1758488E-003  0.9118800E+02  0.7818608E-02  0.1130116E+00
         25   -1    0    0    0    0  0.00000000000E+00  0.00000000000E+00  0.99999998245E-14  0.12500000000E+03  0.12500000000E+03 0.  0.
        -13    1    3    3    0    0  0.25040090085E+02 -0.58288970570E+01 -0.27845704826E+02  0.37899559281E+02  0.10566000000E+00 0. -1.
         23    2    1    0    0    0  0.46756635219E+01 -0.17786421119E+02  0.23937485615E+02  0.94813549013E+02  0.89879848984E+02 0.  0.
         13    1    3    3    0    0 -0.20364426563E+02 -0.11957524062E+02  0.51783190441E+02  0.56913989732E+02  0.10566000000E+00 0.  1.
         22    1    1    0    0    0 -0.46756635219E+01  0.17786421119E+02 -0.23937485615E+02  0.30186450987E+02  0.00000000000E+00 0.  1.
</event>
<event>
 5    1  0.1758488E-003  0.9118800E+02  0.7818608E-02  0.1130116E+00
         25   -1    0    0    0    0  0.00000000000E+00  0.00000000000E+00  0.99999998245E-14  0.12500000000E+03  0.12500000000E+03 0.  0.
        -13    1    3    3    0    0  0.75351411399E+01  0.30277011410E+02  0.22635771021E+02  0.38546920313E+02  0.10566000000E+00 0. -1.
         23    2    1    0    0    0  0.21216558187E+02 -0.20841453192E+02  0.25433663628E+01  0.95150758387E+02  0.90347604266E+02 0.  0.
         13    1    3    3    0    0  0.13681417047E+02 -0.51118464602E+02 -0.20092404658E+02  0.56603838073E+02  0.10566000000E+00 0.  1.
         22    1    1    0    0    0 -0.21216558187E+02  0.20841453192E+02 -0.25433663628E+01  0.29849241613E+02  0.00000000000E+00 0.  1.
</event>
<event>
 5    1  0.1758488E-003  0.9118800E+02  0.7818608E-02  0.1130116E+00
         25   -1    0    0    0    0  0.00000000000E+00  0.00000000000E+00  0.99999998245E-14  0.12500000000E+03  0.12500000000E+03 0.  0.
        -13    1    3    3    0    0  0.31521515138E+02 -0.93225488107E+01 -0.38435053838E+01  0.33095309798E+02  0.10566000000E+00 0. -1.
         23    2    1    0    0    0 -0.27170054208E+02  0.10527820482E+02 -0.66347114761E+01  0.95115786004E+02  0.90299205428E+02 0.  0.
         13    1    3    3    0    0 -0.58691569346E+02  0.19850369293E+02 -0.27912060923E+01  0.62020476206E+02  0.10566000000E+00 0.  1.
         22    1    1    0    0    0  0.27170054208E+02 -0.10527820482E+02  0.66347114761E+01  0.29884213996E+02  0.00000000000E+00 0.  1.
</event>
<event>
 5    1  0.1758488E-003  0.9118800E+02  0.7818608E-02  0.1130116E+00
         25   -1    0    0    0    0  0.00000000000E+00  0.00000000000E+00  0.99999998245E-14  0.12500000000E+03  0.12500000000E+03 0.  0.
        -13    1    3    3    0    0 -0.44342527629E+02 -0.22418306291E+02 -0.25663360308E+02  0.55923693010E+02  0.10566000000E+00 0.  1.
         23    2    1    0    0    0 -0.18537732078E+02  0.81436536897E+01 -0.20382606020E+02  0.96269924571E+02  0.91882975261E+02 0.  0.
         13    1    3    3    0    0  0.25804795552E+02  0.30561959981E+02  0.52807542880E+01  0.40346231562E+02  0.10566000000E+00 0. -1.
         22    1    1    0    0    0  0.18537732078E+02 -0.81436536897E+01  0.20382606020E+02  0.28730075429E+02  0.00000000000E+00 0. -1.
</event>
<event>
 5    1  0.1758488E-003  0.9118800E+02  0.7818608E-02  0.1130116E+00
         25   -1    0    0    0    0  0.00000000000E+00  0.00000000000E+00  0.99999998245E-14  0.12500000000E+03  0.12500000000E+03 0.  0.
        -13    1    3    3    0    0  0.83891866097E+01 -0.48222121096E+02 -0.38155142268E+02  0.62061078466E+02  0.10566000000E+00 0.  1.
         23    2    1    0    0    0  0.63482810930E+01 -0.24989958212E+02 -0.13905552996E+02  0.95705579227E+02  0.91111990467E+02 0.  0.
         13    1    3    3    0    0 -0.20409055168E+01  0.23232162884E+02  0.24249589272E+02  0.33644500761E+02  0.10566000000E+00 0. -1.
         22    1    1    0    0    0 -0.63482810930E+01  0.24989958212E+02  0.13905552996E+02  0.29294420773E+02  0.00000000000E+00 0.  1.
</event>
<event>
 5    1  0.1758488E-003  0.9118800E+02  0.7818608E-02  0.1130116E+00
         25   -1    0    0    0    0  0.00000000000E+00  0.00000000000E+00  0.99999998245E-14  0.12500000000E+03  0.12500000000E+03 0.  0.
        -13    1    3    3    0    0  0.53879295283E+01  0.31137682600E+02  0.43369024349E+02  0.53660679266E+02  0.10566000000E+00 0. -1.
         23    2    1    0    0    0  0.19695541692E+02  0.20956690886E+02  0.50651342648E+01  0.95798067863E+02  0.91238790904E+02 0.  0.
         13    1    3    3    0    0  0.14307612164E+02 -0.10180991714E+02 -0.38303890084E+02  0.42137388596E+02  0.10566000000E+00 0.  1.
         22    1    1    0    0    0 -0.19695541692E+02 -0.20956690886E+02 -0.50651342648E+01  0.29201932137E+02  0.00000000000E+00 0.  1.
</event>
<event>
 5    1  0.1758488E-003  0.9118800E+02  0.7818608E-02  0.1130116E+00
         25   -1    0    0    0    0  0.00000000000E+00  0.00000000000E+00  0.99999998245E-14  0.12500000000E+03  0.12500000000E+03 0.  0.
        -13    1    3    3    0    0 -0.25869248836E+02  0.26784869213E+01  0.20302226213E+02  0.32993694561E+02  0.10566000000E+00 0. -1.
         23    2    1    0    0    0  0.30055194901E+02 -0.25716094531E+01 -0.46888762244E+01  0.94472742083E+02  0.89404616887E+02 0.  0.
         13    1    3    3    0    0  0.55924443737E+02 -0.52500963744E+01 -0.24991102437E+02  0.61479047522E+02  0.10566000000E+00 0.  1.
         22    1    1    0    0    0 -0.30055194901E+02  0.25716094531E+01  0.46888762244E+01  0.30527257917E+02  0.00000000000E+00 0.  1.
</event>
<event>
 5    1  0.1758488E-003  0.9118800E+02  0.7818608E-02  0.1130116E+00
         25   -1    0    0    0    0  0.00000000000E+00  0.00000000000E+00  0.99999998245E-14  0.12500000000E+03  0.12500000000E+03 0.  0.
        -13    1    3    3    0    0 -0.14850871229E+00  0.17243688831E+02  0.19969318361E+01  0.17359889404E+02  0.10566000000E+00 0.  1.
         23    2    1    0    0    0 -0.25313114591E+02 -0.74587333529E+01 -0.43012257663E+02  0.74537729116E+02  0.54858292709E+02 0.  0.
         13    1    3    3    0    0 -0.25164605878E+02 -0.24702422183E+02 -0.45009189499E+02  0.57177839712E+02  0.10566000000E+00 0. -1.
         22    1    1    0    0    0  0.25313114591E+02  0.74587333529E+01  0.43012257663E+02  0.50462270884E+02  0.00000000000E+00 0. -1.
</event>
<event>
 5    1  0.1758488E-003  0.9118800E+02  0.7818608E-02  0.1130116E+00
         25   -1    0    0    0    0  0.00000000000E+00  0.00000000000E+00  0.99999998245E-14  0.12500000000E+03  0.12500000000E+03 0.  0.
        -13    1    3    3    0    0  0.16732243745E+02  0.10760808845E+02 -0.39777220487E+02  0.44474727896E+02  0.10566000000E+00 0.  1.
         23    2    1    0    0    0 -0.50143048873E+01  0.28524134274E+02  0.32531375810E+01  0.95856348999E+02  0.91318602977E+02 0.  0.
         13    1    3    3    0    0 -0.21746548632E+02  0.17763325428E+02  0.43030358068E+02  0.51381621103E+02  0.10566000000E+00 0. -1.
         22    1    1    0    0    0  0.50143048873E+01 -0.28524134274E+02 -0.32531375810E+01  0.29143651001E+02  0.00000000000E+00 0. -1.
</event>
<event>
 5    1  0.1758488E-003  0.9118800E+02  0.7818608E-02  0.1130116E+00
         25   -1    0    0    0    0  0.00000000000E+00  0.00000000000E+00  0.99999998245E-14  0.12500000000E+03  0.12500000000E+03 0.  0.
        -13    1    3    3    0    0  0.54547054484E+02  0.18705358779E+02  0.22210791032E+02  0.61794837990E+02  0.10566000000E+00 0. -1.
         23    2    1    0    0    0  0.22203061488E+02  0.13524013892E+02  0.13579695594E+02  0.95669418288E+02  0.91062366386E+02 0.  0.
         13    1    3    3    0    0 -0.32343992997E+02 -0.51813448874E+01 -0.86310954383E+01  0.33874580297E+02  0.10566000000E+00 0.  1.
         22    1    1    0    0    0 -0.22203061488E+02 -0.13524013892E+02 -0.13579695594E+02  0.29330581712E+02  0.00000000000E+00 0. -1.
</event>
<event>
 5    1  0.1758488E-003  0.9118800E+02  0.7818608E-02  0.1130116E+00
         25   -1    0    0    0    0  0.00000000000E+00  0.00000000000E+00  0.99999998245E-14  0.12500000000E+03  0.12500000000E+03 0.  0.
        -13    1    3    3    0    0  0.43420787241E+01  0.28165351933E+02  0.21414933351E+02  0.35647597838E+02  0.10566000000E+00 0.  1.
         23    2    1    0    0    0  0.41072148953E+01 -0.26965217140E+01 -0.29449702840E+02  0.95143251334E+02  0.90337217322E+02 0.  0.
         13    1    3    3    0    0 -0.23486382882E+00 -0.30861873647E+02 -0.50864636191E+02  0.59495653496E+02  0.10566000000E+00 0. -1.
         22    1    1    0    0    0 -0.41072148953E+01  0.26965217140E+01  0.29449702840E+02  0.29856748666E+02  0.00000000000E+00 0. -1.
</event>
<event>
 5    1  0.1758488E-003  0.9118800E+02  0.7818608E-02  0.1130116E+00
         25   -1    0    0    0    0  0.00000000000E+00  0.00000000000E+00  0.99999998245E-14  0.12500000000E+03  0.12500000000E+03 0.  0.
        -13    1    3    3    0    0 -0.38990263332E+02 -0.11432167569E+01  0.25446367567E+02  0.46573343939E+02  0.10566000000E+00 0.  1.
         23    2    1    0    0    0  0.12637487381E+02 -0.70461613278E+01  0.22021630163E+02  0.98650300347E+02  0.95066161628E+02 0.  0.
         13    1    3    3    0    0  0.51627750714E+02 -0.59029445709E+01 -0.34247374034E+01  0.52076956408E+02  0.10566000000E+00 0. -1.
         22    1    1    0    0    0 -0.12637487381E+02  0.70461613278E+01 -0.22021630163E+02  0.26349699653E+02  0.00000000000E+00 0. -1.
</event>
<event>
 5    1  0.1758488E-003  0.9118800E+02  0.7818608E-02  0.1130116E+00
         25   -1    0    0    0    0  0.00000000000E+00  0.00000000000E+00  0.99999998245E-14  0.12500000000E+03  0.12500000000E+03 0.  0.
        -13    1    3    3    0    0 -0.39579338989E+02 -0.42399500023E+02 -0.37013680701E+01  0.58120159727E+02  0.10566000000E+00 0.  1.
         23    2    1    0    0    0 -0.33011409040E+02 -0.14389434314E+02 -0.10112504763E+02  0.87595833130E+02  0.79208322053E+02 0.  0.
         13    1    3    3    0    0  0.65679299492E+01  0.28010065709E+02 -0.64111366925E+01  0.29475673403E+02  0.10566000000E+00 0. -1.
         22    1    1    0    0    0  0.33011409040E+02  0.14389434314E+02  0.10112504763E+02  0.37404166870E+02  0.00000000000E+00 0.  1.
</event>
<event>
 5    1  0.1758488E-003  0.9118800E+02  0.7818608E-02  0.1130116E+00
         25   -1    0    0    0    0  0.00000000000E+00  0.00000000000E+00  0.99999998245E-14  0.12500000000E+03  0.12500000000E+03 0.  0.
        -13    1    3    3    0    0  0.56201437934E+01 -0.20277785964E+01  0.36821872817E+02  0.37303610872E+02  0.10566000000E+00 0.  1.
         23    2    1    0    0    0  0.18018829399E+00  0.23729073998E+02 -0.16039910765E+02  0.96357720796E+02  0.92002338009E+02 0.  0.
         13    1    3    3    0    0 -0.54399554994E+01  0.25756852594E+02 -0.52861783582E+02  0.59054109924E+02  0.10566000000E+00 0. -1.
         22    1    1    0    0    0 -0.18018829399E+00 -0.23729073998E+02  0.16039910765E+02  0.28642279204E+02  0.00000000000E+00 0. -1.
</event>
<event>
 5    1  0.1758488E-003  0.9118800E+02  0.7818608E-02  0.1130116E+00
         25   -1    0    0    0    0  0.00000000000E+00  0.00000000000E+00  0.99999998245E-14  0.12500000000E+03  0.12500000000E+03 0.  0.
        -13    1    3    3    0    0  0.26403521585E+02 -0.32372132949E+02 -0.45666463205E+02  0.61891340020E+02  0.10566000000E+00 0.  1.
         23    2    1    0    0    0  0.17527959450E+02 -0.12422430525E+02 -0.19349830128E+02  0.96086991360E+02  0.91633770194E+02 0.  0.
         13    1    3    3    0    0 -0.88755621349E+01  0.19949702424E+02  0.26316633077E+02  0.34195651340E+02  0.10566000000E+00 0. -1.
         22    1    1    0    0    0 -0.17527959450E+02  0.12422430525E+02  0.19349830128E+02  0.28913008640E+02  0.00000000000E+00 0.  1.
</event>
<event>
 5    1  0.1758488E-003  0.9118800E+02  0.7818608E-02  0.1130116E+00
         25   -1    0    0    0    0  0.00000000000E+00  0.00000000000E+00  0.99999998245E-14  0.12500000000E+03  0.12500000000E+03 0.  0.
        -13    1    3    3    0    0 -0.20107314062E+02 -0.22908621119E+02  0.31754627624E+02  0.44016775665E+02  0.10566000000E+00 0. -1.
         23    2    1    0    0    0 -0.26673675542E+01 -0.21441242145E+02 -0.18074592088E+02  0.96830289431E+02  0.92642173754E+02 0.  0.
         13    1    3    3    0    0  0.17439946508E+02  0.14673789747E+01 -0.49829219712E+02  0.52813513766E+02  0.10566000000E+00 0.  1.
         22    1    1    0    0    0  0.26673675542E+01  0.21441242145E+02  0.18074592088E+02  0.28169710569E+02  0.00000000000E+00 0. -1.
</event>
<event>
 5    1  0.1758488E-003  0.9118800E+02  0.7818608E-02  0.1130116E+00
         25   -1    0    0    0    0  0.00000000000E+00  0.00000000000E+00  0.99999998245E-14  0.12500000000E+03  0.12500000000E+03 0.  0.
        -13    1    3    3    0    0 -0.16663116237E+02  0.31147559124E+02  0.31357621620E+02  0.47234960356E+02  0.10566000000E+00 0. -1.
         23    2    1    0    0    0 -0.16723401808E+02  0.10692509654E+02 -0.16440489241E+02  0.99226144696E+02  0.95820332780E+02 0.  0.
         13    1    3    3    0    0 -0.60285570136E-01 -0.20455049470E+02 -0.47798110861E+02  0.51991184340E+02  0.10566000000E+00 0.  1.
         22    1    1    0    0    0  0.16723401808E+02 -0.10692509654E+02  0.16440489241E+02  0.25773855304E+02  0.00000000000E+00 0.  1.
</event>
<event>
 5    1  0.1758488E-003  0.9118800E+02  0.7818608E-02  0.1130116E+00
         25   -1    0    0    0    0  0.00000000000E+00  0.00000000000E+00  0.99999998245E-14  0.12500000000E+03  0.12500000000E+03 0.  0.
        -13    1    3    3    0    0 -0.33356223200E+02 -0.79769508594E+01  0.46169723381E+02  0.57514553744E+02  0.10566000000E+00 0.  1.
         23    2    1    0    0    0 -0.24084152259E+02 -0.13988119086E+02  0.98826263766E+01  0.95446993898E+02  0.90756534059E+02 0.  0.
         13    1    3    3    0    0  0.92720709416E+01 -0.60111682266E+01 -0.36287097005E+02  0.37932440154E+02  0.10566000000E+00 0. -1.
         22    1    1    0    0    0  0.24084152259E+02  0.13988119086E+02 -0.98826263766E+01  0.29553006102E+02  0.00000000000E+00 0.  1.
</event>
<event>
 5    1  0.1758488E-003  0.9118800E+02  0.7818608E-02  0.1130116E+00
         25   -1    0    0    0    0  0.00000000000E+00  0.00000000000E+00  0.99999998245E-14  0.12500000000E+03  0.12500000000E+03 0.  0.
        -13    1    3    3    0    0 -0.35613461888E+01 -0.48400086234E+02 -0.10610805056E+02  0.49677478621E+02  0.10566000000E+00 0.  1.
         23    2    1    0    0    0  0.18172442428E+02 -0.37242480357E+02 -0.23563498823E+02  0.77329479930E+02  0.60888176049E+02 0.  0.
         13    1    3    3    0    0  0.21733788617E+02  0.11157605877E+02 -0.12952693767E+02  0.27652001309E+02  0.10566000000E+00 0. -1.
         22    1    1    0    0    0 -0.18172442428E+02  0.37242480357E+02  0.23563498823E+02  0.47670520070E+02  0.00000000000E+00 0.  1.
</event>
<event>
 5    1  0.1758488E-003  0.9118800E+02  0.7818608E-02  0.1130116E+00
         25   -1    0    0    0    0  0.00000000000E+00  0.00000000000E+00  0.99999998245E-14  0.12500000000E+03  0.12500000000E+03 0.  0.
        -13    1    3    3    0    0  0.34355247545E+02  0.33851822652E+02  0.26766780067E+02  0.55160679926E+02  0.10566000000E+00 0.  1.
         23    2    1    0    0    0 -0.19619681756E+01  0.12355787195E+02  0.24579773758E+02  0.97419570810E+02  0.93433894826E+02 0.  0.
         13    1    3    3    0    0 -0.36317215721E+02 -0.21496035457E+02 -0.21870063087E+01  0.42258890883E+02  0.10566000000E+00 0. -1.
         22    1    1    0    0    0  0.19619681756E+01 -0.12355787195E+02 -0.24579773758E+02  0.27580429190E+02  0.00000000000E+00 0.  1.
</event>
<event>
 5    1  0.1758488E-003  0.9118800E+02  0.7818608E-02  0.1130116E+00
         25   -1    0    0    0    0  0.00000000000E+00  0.00000000000E+00  0.99999998245E-14  0.12500000000E+03  0.12500000000E+03 0.  0.
        -13    1    3    3    0    0 -0.27205331023E+02  0.35363895470E+02 -0.39069038891E+01  0.44788505232E+02  0.10566000000E+00 0.  1.
         23    2    1    0    0    0  0.20657127486E+02  0.15680442587E+02  0.79366134774E+01  0.97878366030E+02  0.94045688405E+02 0.  0.
         13    1    3    3    0    0  0.47862458509E+02 -0.19683452883E+02  0.11843517367E+02  0.53089860798E+02  0.10566000000E+00 0. -1.
         22    1    1    0    0    0 -0.20657127486E+02 -0.15680442587E+02 -0.79366134774E+01  0.27121633970E+02  0.00000000000E+00 0. -1.
</event>
<event>
 5    1  0.1758488E-003  0.9118800E+02  0.7818608E-02  0.1130116E+00
         25   -1    0    0    0    0  0.00000000000E+00  0.00000000000E+00  0.99999998245E-14  0.12500000000E+03  0.12500000000E+03 0.  0.
        -13    1    3    3    0    0  0.21783643649E+02  0.34659755363E+02 -0.20644935906E+02  0.45848122263E+02  0.10566000000E+00 0.  1.
         23    2    1    0    0    0 -0.21653852035E+02  0.19533946827E+02 -0.11220942109E+01  0.95815698021E+02  0.91262941576E+02 0.  0.
         13    1    3    3    0    0 -0.43437495684E+02 -0.15125808537E+02  0.19522841695E+02  0.49967575758E+02  0.10566000000E+00 0. -1.
         22    1    1    0    0    0  0.21653852035E+02 -0.19533946827E+02  0.11220942109E+01  0.29184301979E+02  0.00000000000E+00 0.  1.
</event>
<event>
 5    1  0.1758488E-003  0.9118800E+02  0.7818608E-02  0.1130116E+00
         25   -1    0    0    0    0  0.00000000000E+00  0.00000000000E+00  0.99999998245E-14  0.12500000000E+03  0.12500000000E+03 0.  0.
        -13    1    3    3    0    0  0.35084744102E+02  0.31471933557E+02 -0.44395374139E+01  0.47340706871E+02  0.10566000000E+00 0.  1.
         23    2    1    0    0    0  0.46659685282E+01  0.88019029666E+01  0.26751295016E+02  0.96453957487E+02  0.92132998278E+02 0.  0.
         13    1    3    3    0    0 -0.30418775574E+02 -0.22670030590E+02  0.31190832430E+02  0.49113250616E+02  0.10566000000E+00 0. -1.
         22    1    1    0    0    0 -0.46659685282E+01 -0.88019029666E+01 -0.26751295016E+02  0.28546042513E+02  0.00000000000E+00 0. -1.
</event>
<event>
 5    1  0.1758488E-003  0.9118800E+02  0.7818608E-02  0.1130116E+00
         25   -1    0    0    0    0  0.00000000000E+00  0.00000000000E+00  0.99999998245E-14  0.12500000000E+03  0.12500000000E+03 0.  0.
        -13    1    3    3    0    0 -0.15167951901E+02 -0.14110843789E+02 -0.19968632459E+02  0.28773948697E+02  0.10566000000E+00 0. -1.
         23    2    1    0    0    0  0.28480798046E+02  0.80969297483E+01  0.17650976307E+02  0.90528662729E+02  0.83708814842E+02 0.  0.
         13    1    3    3    0    0  0.43648749947E+02  0.22207773537E+02  0.37619608766E+02  0.61754714032E+02  0.10566000000E+00 0.  1.
         22    1    1    0    0    0 -0.28480798046E+02 -0.80969297483E+01 -0.17650976307E+02  0.34471337271E+02  0.00000000000E+00 0.  1.
</event>
<event>
 5    1  0.1758488E-003  0.9118800E+02  0.7818608E-02  0.1130116E+00
         25   -1    0    0    0    0  0.00000000000E+00  0.00000000000E+00  0.99999998245E-14  0.12500000000E+03  0.12500000000E+03 0.  0.
        -13    1    3    3    0    0 -0.33976557048E+02 -0.15875612958E+02  0.10182185863E+02  0.38860385852E+02  0.10566000000E+00 0.  1.
         23    2    1    0    0    0  0.23771281061E+02 -0.13306895176E+02  0.75744927215E+01  0.96724211726E+02  0.92498934759E+02 0.  0.
         13    1    3    3    0    0  0.57747838108E+02  0.25687177820E+01 -0.26076931414E+01  0.57863825874E+02  0.10566000000E+00 0. -1.
         22    1    1    0    0    0 -0.23771281061E+02  0.13306895176E+02 -0.75744927215E+01  0.28275788274E+02  0.00000000000E+00 0. -1.
</event>
<event>
 5    1  0.1758488E-003  0.9118800E+02  0.7818608E-02  0.1130116E+00
         25   -1    0    0    0    0  0.00000000000E+00  0.00000000000E+00  0.99999998245E-14  0.12500000000E+03  0.12500000000E+03 0.  0.
        -13    1    3    3    0    0 -0.20456480870E+02  0.25160579342E+02 -0.24762093618E+02  0.40800671646E+02  0.10566000000E+00 0.  1.
         23    2    1    0    0    0 -0.13581463981E+02 -0.10130049796E+02  0.20370679353E+02  0.98503988035E+02  0.94873584357E+02 0.  0.
         13    1    3    3    0    0  0.68750168893E+01 -0.35290629138E+02  0.45132772971E+02  0.57703316389E+02  0.10566000000E+00 0. -1.
         22    1    1    0    0    0  0.13581463981E+02  0.10130049796E+02 -0.20370679353E+02  0.26496011965E+02  0.00000000000E+00 0. -1.
</event>
<event>
 5    1  0.1758488E-003  0.9118800E+02  0.7818608E-02  0.1130116E+00
         25   -1    0    0    0    0  0.00000000000E+00  0.00000000000E+00  0.99999998245E-14  0.12500000000E+03  0.12500000000E+03 0.  0.
        -13    1    3    3    0    0 -0.21731649945E+02 -0.40269119748E+02 -0.15553372885E+02  0.48329961584E+02  0.10566000000E+00 0.  1.
         23    2    1    0    0    0  0.20442789639E+02 -0.18386464572E+02 -0.72694846736E+01  0.96560324631E+02  0.92277197388E+02 0.  0.
         13    1    3    3    0    0  0.42174439583E+02  0.21882655176E+02  0.82838882111E+01  0.48230363047E+02  0.10566000000E+00 0. -1.
         22    1    1    0    0    0 -0.20442789639E+02  0.18386464572E+02  0.72694846736E+01  0.28439675369E+02  0.00000000000E+00 0.  1.
</event>
<event>
 5    1  0.1758488E-003  0.9118800E+02  0.7818608E-02  0.1130116E+00
         25   -1    0    0    0    0  0.00000000000E+00  0.00000000000E+00  0.99999998245E-14  0.12500000000E+03  0.12500000000E+03 0.  0.
        -13    1    3    3    0    0 -0.26460026558E+02 -0.53384665975E+00 -0.37885041348E+02  0.46213694071E+02  0.10566000000E+00 0.  1.
         23    2    1    0    0    0  0.13639066918E+02  0.19144912004E+02 -0.19267971538E+02  0.94605814220E+02  0.89590476922E+02 0.  0.
         13    1    3    3    0    0  0.40099093476E+02  0.19678758664E+02  0.18617069810E+02  0.48392120149E+02  0.10566000000E+00 0. -1.
         22    1    1    0    0    0 -0.13639066918E+02 -0.19144912004E+02  0.19267971538E+02  0.30394185780E+02  0.00000000000E+00 0.  1.
</event>
<event>
 5    1  0.1758488E-003  0.9118800E+02  0.7818608E-02  0.1130116E+00
         25   -1    0    0    0    0  0.00000000000E+00  0.00000000000E+00  0.99999998245E-14  0.12500000000E+03  0.12500000000E+03 0.  0.
        -13    1    3    3    0    0  0.23299405692E+02 -0.22313415036E+02 -0.22107956475E+02  0.39109125530E+02  0.10566000000E+00 0.  1.
         23    2    1    0    0    0  0.12523817497E+02  0.27859385449E+02 -0.14726557558E+01  0.94419612866E+02  0.89330304021E+02 0.  0.
         13    1    3    3    0    0 -0.10775588196E+02  0.50172800485E+02  0.20635300719E+02  0.55310487336E+02  0.10566000000E+00 0. -1.
         22    1    1    0    0    0 -0.12523817497E+02 -0.27859385449E+02  0.14726557558E+01  0.30580387134E+02  0.00000000000E+00 0. -1.
</event>
<event>
 5    1  0.1758488E-003  0.9118800E+02  0.7818608E-02  0.1130116E+00
         25   -1    0    0    0    0  0.00000000000E+00  0.00000000000E+00  0.99999998245E-14  0.12500000000E+03  0.12500000000E+03 0.  0.
        -13    1    3    3    0    0  0.78025609697E+01  0.38942332408E+02  0.20325370158E+02  0.44615210940E+02  0.10566000000E+00 0.  1.
         23    2    1    0    0    0 -0.79795412928E+01  0.23399692414E+02 -0.21689425508E+02  0.92111554260E+02  0.86040040475E+02 0.  0.
         13    1    3    3    0    0 -0.15782102263E+02 -0.15542639995E+02 -0.42014795667E+02  0.47496343320E+02  0.10566000000E+00 0. -1.
         22    1    1    0    0    0  0.79795412928E+01 -0.23399692414E+02  0.21689425508E+02  0.32888445740E+02  0.00000000000E+00 0. -1.
</event>
<event>
 5    1  0.1758488E-003  0.9118800E+02  0.7818608E-02  0.1130116E+00
         25   -1    0    0    0    0  0.00000000000E+00  0.00000000000E+00  0.99999998245E-14  0.12500000000E+03  0.12500000000E+03 0.  0.
        -13    1    3    3    0    0 -0.44694621816E+02 -0.42865884861E+01 -0.18897838872E+02  0.48714715828E+02  0.10566000000E+00 0.  1.
         23    2    1    0    0    0  0.58912284249E+01 -0.36685268758E+01 -0.24427498442E+02  0.99605761640E+02  0.96314279367E+02 0.  0.
         13    1    3    3    0    0  0.50585850241E+02  0.61806161028E+00 -0.55296595697E+01  0.50891045811E+02  0.10566000000E+00 0. -1.
         22    1    1    0    0    0 -0.58912284249E+01  0.36685268758E+01  0.24427498442E+02  0.25394238360E+02  0.00000000000E+00 0. -1.
</event>
<event>
 5    1  0.1758488E-003  0.9118800E+02  0.7818608E-02  0.1130116E+00
         25   -1    0    0    0    0  0.00000000000E+00  0.00000000000E+00  0.99999998245E-14  0.12500000000E+03  0.12500000000E+03 0.  0.
        -13    1    3    3    0    0 -0.21681555906E+02  0.35011301268E+02 -0.38031559580E+01  0.41356453453E+02  0.10566000000E+00 0. -1.
         23    2    1    0    0    0  0.15192864292E+02 -0.12436898521E+01 -0.23747062829E+02  0.96781338039E+02  0.92576101181E+02 0.  0.
         13    1    3    3    0    0  0.36874420198E+02 -0.36254991120E+02 -0.19943906871E+02  0.55424884586E+02  0.10566000000E+00 0.  1.
         22    1    1    0    0    0 -0.15192864292E+02  0.12436898521E+01  0.23747062829E+02  0.28218661961E+02  0.00000000000E+00 0. -1.
</event>
<event>
 5    1  0.1758488E-003  0.9118800E+02  0.7818608E-02  0.1130116E+00
         25   -1    0    0    0    0  0.00000000000E+00  0.00000000000E+00  0.99999998245E-14  0.12500000000E+03  0.12500000000E+03 0.  0.
        -13    1    3    3    0    0  0.39635144137E+02 -0.38603460908E+02 -0.75607934456E+00  0.55333124481E+02  0.10566000000E+00 0. -1.
         23    2    1    0    0    0  0.88467986104E+01 -0.33912470316E+02 -0.11240143800E+02  0.88194262387E+02  0.80147149649E+02 0.  0.
         13    1    3    3    0    0 -0.30788345526E+02  0.46909905918E+01 -0.10484064455E+02  0.32861137907E+02  0.10566000000E+00 0.  1.
         22    1    1    0    0    0 -0.88467986104E+01  0.33912470316E+02  0.11240143800E+02  0.36805737613E+02  0.00000000000E+00 0. -1.
</event>
<event>
 5    1  0.1758488E-003  0.9118800E+02  0.7818608E-02  0.1130116E+00
         25   -1    0    0    0    0  0.00000000000E+00  0.00000000000E+00  0.99999998245E-14  0.12500000000E+03  0.12500000000E+03 0.  0.
        -13    1    3    3    0    0  0.41665982247E+02 -0.31455164205E+02 -0.20732952728E+02  0.56172483696E+02  0.10566000000E+00 0. -1.
         23    2    1    0    0    0  0.74604913763E+01 -0.12546920714E+02 -0.25572170885E+02  0.95554795386E+02  0.90904889013E+02 0.  0.
         13    1    3    3    0    0 -0.34205490871E+02  0.18908243491E+02 -0.48392181573E+01  0.39382311690E+02  0.10566000000E+00 0.  1.
         22    1    1    0    0    0 -0.74604913763E+01  0.12546920714E+02  0.25572170885E+02  0.29445204614E+02  0.00000000000E+00 0. -1.
</event>
<event>
 5    1  0.1758488E-003  0.9118800E+02  0.7818608E-02  0.1130116E+00
         25   -1    0    0    0    0  0.00000000000E+00  0.00000000000E+00  0.99999998245E-14  0.12500000000E+03  0.12500000000E+03 0.  0.
        -13    1    3    3    0    0 -0.17792620052E+02  0.29521125089E+02  0.66281001944E+01  0.35100100158E+02  0.10566000000E+00 0.  1.
         23    2    1    0    0    0 -0.26839712440E+01 -0.28943283573E+02 -0.67082756279E+00  0.95924797933E+02  0.91412250182E+02 0.  0.
         13    1    3    3    0    0  0.15108648808E+02 -0.58464408662E+02 -0.72989277572E+01  0.60824697775E+02  0.10566000000E+00 0. -1.
         22    1    1    0    0    0  0.26839712440E+01  0.28943283573E+02  0.67082756279E+00  0.29075202067E+02  0.00000000000E+00 0. -1.
</event>
<event>
 5    1  0.1758488E-003  0.9118800E+02  0.7818608E-02  0.1130116E+00
         25   -1    0    0    0    0  0.00000000000E+00  0.00000000000E+00  0.99999998245E-14  0.12500000000E+03  0.12500000000E+03 0.  0.
        -13    1    3    3    0    0  0.19416986873E+02 -0.40414848415E+01  0.32044146892E+02  0.37685428125E+02  0.10566000000E+00 0. -1.
         23    2    1    0    0    0 -0.21698503574E+02 -0.15231522197E+02 -0.91513244420E+01  0.96954125708E+02  0.92809112844E+02 0.  0.
         13    1    3    3    0    0 -0.41115490446E+02 -0.11190037356E+02 -0.41195471334E+02  0.59268697582E+02  0.10566000000E+00 0.  1.
         22    1    1    0    0    0  0.21698503574E+02  0.15231522197E+02  0.91513244420E+01  0.28045874292E+02  0.00000000000E+00 0.  1.
</event>
<event>
 5    1  0.1758488E-003  0.9118800E+02  0.7818608E-02  0.1130116E+00
         25   -1    0    0    0    0  0.00000000000E+00  0.00000000000E+00  0.99999998245E-14  0.12500000000E+03  0.12500000000E+03 0.  0.
        -13    1    3    3    0    0  0.34753020040E+02 -0.22183987627E+01 -0.16627329211E+02  0.38589803520E+02  0.10566000000E+00 0.  1.
         23    2    1    0    0    0 -0.57889430283E+01  0.38600069612E+01  0.26209707323E+02  0.97882472954E+02  0.94051146928E+02 0.  0.
         13    1    3    3    0    0 -0.40541963068E+02  0.60784057239E+01  0.42837036534E+02  0.59292669434E+02  0.10566000000E+00 0. -1.
         22    1    1    0    0    0  0.57889430283E+01 -0.38600069612E+01 -0.26209707323E+02  0.27117527046E+02  0.00000000000E+00 0. -1.
</event>
<event>
 5    1  0.1758488E-003  0.9118800E+02  0.7818608E-02  0.1130116E+00
         25   -1    0    0    0    0  0.00000000000E+00  0.00000000000E+00  0.99999998245E-14  0.12500000000E+03  0.12500000000E+03 0.  0.
        -13    1    3    3    0    0  0.88416459699E+01  0.29433620383E+02  0.49665119107E+02  0.58405033450E+02  0.10566000000E+00 0.  1.
         23    2    1    0    0    0 -0.70973227923E+01  0.22667215700E+02  0.15704949165E+02  0.96525097249E+02  0.92229465532E+02 0.  0.
         13    1    3    3    0    0 -0.15938968762E+02 -0.67664046831E+01 -0.33960169942E+02  0.38120063800E+02  0.10566000000E+00 0. -1.
         22    1    1    0    0    0  0.70973227923E+01 -0.22667215700E+02 -0.15704949165E+02  0.28474902751E+02  0.00000000000E+00 0.  1.
</event>
<event>
 5    1  0.1758488E-003  0.9118800E+02  0.7818608E-02  0.1130116E+00
         25   -1    0    0    0    0  0.00000000000E+00  0.00000000000E+00  0.99999998245E-14  0.12500000000E+03  0.12500000000E+03 0.  0.
        -13    1    3    3    0    0 -0.42008507515E+01 -0.92239733904E+01 -0.49595001364E+02  0.50620195145E+02  0.10566000000E+00 0.  1.
         23    2    1    0    0    0  0.21989237347E+02 -0.16554460631E+02 -0.19005072718E+02  0.91551987878E+02  0.85223218489E+02 0.  0.
         13    1    3    3    0    0  0.26190088098E+02 -0.73304872404E+01  0.30589928646E+02  0.40931792734E+02  0.10566000000E+00 0. -1.
         22    1    1    0    0    0 -0.21989237347E+02  0.16554460631E+02  0.19005072718E+02  0.33448012122E+02  0.00000000000E+00 0.  1.
</event>
<event>
 4    1  0.1758488E-003  0.9118800E+02  0.7818608E-02  0.1130116E+00
         25   -1    0    0    0    0  0.00000000000E+00  0.00000000000E+00  0.99999998245E-14  0.12500000000E+03  0.12500000000E+03 0.  0.
        -13    1    1    0    0    0 -0.12739183696E+02 -0.52832381713E+02  0.17723420833E+02  0.57163608780E+02  0.10566000000E+00 0.  1.
         13    1    1    0    0    0  0.50232378902E+01  0.77108526439E+01  0.10575176529E+02  0.14019118733E+02  0.10566000000E+00 0. -1.
         22    1    1    0    0    0  0.77159458055E+01  0.45121529069E+02 -0.28298597362E+02  0.53817272487E+02  0.00000000000E+00 0.  1.
</event>
<event>
 5    1  0.1758488E-003  0.9118800E+02  0.7818608E-02  0.1130116E+00
         25   -1    0    0    0    0  0.00000000000E+00  0.00000000000E+00  0.99999998245E-14  0.12500000000E+03  0.12500000000E+03 0.  0.
        -13    1    3    3    0    0 -0.26134326780E+02  0.45038605805E+02 -0.13631700727E+01  0.52089811343E+02  0.10566000000E+00 0.  1.
         23    2    1    0    0    0 -0.26261165435E+02 -0.60545017920E+00 -0.62604593510E+01  0.97996134884E+02  0.94202089791E+02 0.  0.
         13    1    3    3    0    0 -0.12683865485E+00 -0.45644055984E+02 -0.48972892784E+01  0.45906323540E+02  0.10566000000E+00 0. -1.
         22    1    1    0    0    0  0.26261165435E+02  0.60545017920E+00  0.62604593510E+01  0.27003865116E+02  0.00000000000E+00 0. -1.
</event>
<event>
 5    1  0.1758488E-003  0.9118800E+02  0.7818608E-02  0.1130116E+00
         25   -1    0    0    0    0  0.00000000000E+00  0.00000000000E+00  0.99999998245E-14  0.12500000000E+03  0.12500000000E+03 0.  0.
        -13    1    3    3    0    0  0.41723097426E+02  0.80911118816E+00 -0.21379361574E+02  0.46888802342E+02  0.10566000000E+00 0. -1.
         23    2    1    0    0    0  0.19800205261E+02  0.29227302030E+02  0.18617361485E+01  0.89648205507E+02  0.82383562540E+02 0.  0.
         13    1    3    3    0    0 -0.21922892165E+02  0.28418190842E+02  0.23241097723E+02  0.42759403165E+02  0.10566000000E+00 0.  1.
         22    1    1    0    0    0 -0.19800205261E+02 -0.29227302030E+02 -0.18617361485E+01  0.35351794493E+02  0.00000000000E+00 0.  1.
</event>
<event>
 5    1  0.1758488E-003  0.9118800E+02  0.7818608E-02  0.1130116E+00
         25   -1    0    0    0    0  0.00000000000E+00  0.00000000000E+00  0.99999998245E-14  0.12500000000E+03  0.12500000000E+03 0.  0.
        -13    1    3    3    0    0  0.29994163800E+02 -0.43913175380E+02 -0.24922739330E+02  0.58729642717E+02  0.10566000000E+00 0.  1.
         23    2    1    0    0    0 -0.11673489748E+00 -0.25391217795E+02 -0.15250746591E+02  0.95380532757E+02  0.90664950170E+02 0.  0.
         13    1    3    3    0    0 -0.30110898698E+02  0.18521957584E+02  0.96719927384E+01  0.36650890040E+02  0.10566000000E+00 0. -1.
         22    1    1    0    0    0  0.11673489748E+00  0.25391217795E+02  0.15250746591E+02  0.29619467243E+02  0.00000000000E+00 0.  1.
</event>
<event>
 5    1  0.1758488E-003  0.9118800E+02  0.7818608E-02  0.1130116E+00
         25   -1    0    0    0    0  0.00000000000E+00  0.00000000000E+00  0.99999998245E-14  0.12500000000E+03  0.12500000000E+03 0.  0.
        -13    1    3    3    0    0  0.26319722411E+01 -0.23803662047E+01  0.37435997701E+02  0.37603969326E+02  0.10566000000E+00 0. -1.
         23    2    1    0    0    0 -0.20074632105E+02 -0.18586208522E+02 -0.12591508134E+02  0.94883823641E+02  0.89977530029E+02 0.  0.
         13    1    3    3    0    0 -0.22706604347E+02 -0.16205842318E+02 -0.50027505835E+02  0.57279854315E+02  0.10566000000E+00 0.  1.
         22    1    1    0    0    0  0.20074632105E+02  0.18586208522E+02  0.12591508134E+02  0.30116176359E+02  0.00000000000E+00 0.  1.
</event>
<event>
 5    1  0.1758488E-003  0.9118800E+02  0.7818608E-02  0.1130116E+00
         25   -1    0    0    0    0  0.00000000000E+00  0.00000000000E+00  0.99999998245E-14  0.12500000000E+03  0.12500000000E+03 0.  0.
        -13    1    3    3    0    0  0.18422962834E+02  0.26005345803E+02 -0.18000527869E+02  0.36602100179E+02  0.10566000000E+00 0.  1.
         23    2    1    0    0    0 -0.14491536554E+02 -0.19109242456E+02 -0.21818180624E+02  0.92577773292E+02  0.86714723795E+02 0.  0.
         13    1    3    3    0    0 -0.32914499389E+02 -0.45114588259E+02 -0.38176527553E+01  0.55975673113E+02  0.10566000000E+00 0. -1.
         22    1    1    0    0    0  0.14491536554E+02  0.19109242456E+02  0.21818180624E+02  0.32422226708E+02  0.00000000000E+00 0. -1.
</event>
<event>
 5    1  0.1758488E-003  0.9118800E+02  0.7818608E-02  0.1130116E+00
         25   -1    0    0    0    0  0.00000000000E+00  0.00000000000E+00  0.99999998245E-14  0.12500000000E+03  0.12500000000E+03 0.  0.
        -13    1    3    3    0    0  0.50199306608E+02  0.78629562754E+01 -0.31066398490E+02  0.59556097459E+02  0.10566000000E+00 0.  1.
         23    2    1    0    0    0  0.22279759061E+02  0.14874795571E+02 -0.64195017962E+01  0.97452636961E+02  0.93478121720E+02 0.  0.
         13    1    3    3    0    0 -0.27919547548E+02  0.70118392960E+01  0.24646896694E+02  0.37896539502E+02  0.10566000000E+00 0. -1.
         22    1    1    0    0    0 -0.22279759061E+02 -0.14874795571E+02  0.64195017962E+01  0.27547363039E+02  0.00000000000E+00 0.  1.
</event>
<event>
 5    1  0.1758488E-003  0.9118800E+02  0.7818608E-02  0.1130116E+00
         25   -1    0    0    0    0  0.00000000000E+00  0.00000000000E+00  0.99999998245E-14  0.12500000000E+03  0.12500000000E+03 0.  0.
        -13    1    3    3    0    0  0.45092412250E+00 -0.27601652472E+02 -0.31294384692E+02  0.41730135742E+02  0.10566000000E+00 0. -1.
         23    2    1    0    0    0 -0.17890759380E+02  0.17139972562E+02  0.15342950989E+01  0.10017638237E+03  0.97052025189E+02 0.  0.
         13    1    3    3    0    0 -0.18341683503E+02  0.44741625034E+02  0.32828679791E+02  0.58446246631E+02  0.10566000000E+00 0.  1.
         22    1    1    0    0    0  0.17890759380E+02 -0.17139972562E+02 -0.15342950989E+01  0.24823617627E+02  0.00000000000E+00 0.  1.
</event>
<event>
 5    1  0.1758488E-003  0.9118800E+02  0.7818608E-02  0.1130116E+00
         25   -1    0    0    0    0  0.00000000000E+00  0.00000000000E+00  0.99999998245E-14  0.12500000000E+03  0.12500000000E+03 0.  0.
        -13    1    3    3    0    0 -0.31667583935E+02 -0.16314900308E+02 -0.21580772361E+01  0.35688657942E+02  0.10566000000E+00 0. -1.
         23    2    1    0    0    0  0.95296309714E+01  0.25417387430E+02 -0.12295981702E+02  0.95199855433E+02  0.90415506736E+02 0.  0.
         13    1    3    3    0    0  0.41197214906E+02  0.41732287737E+02 -0.10137904466E+02  0.59511197491E+02  0.10566000000E+00 0.  1.
         22    1    1    0    0    0 -0.95296309714E+01 -0.25417387430E+02  0.12295981702E+02  0.29800144567E+02  0.00000000000E+00 0.  1.
</event>
<event>
 5    1  0.1758488E-003  0.9118800E+02  0.7818608E-02  0.1130116E+00
         25   -1    0    0    0    0  0.00000000000E+00  0.00000000000E+00  0.99999998245E-14  0.12500000000E+03  0.12500000000E+03 0.  0.
        -13    1    3    3    0    0 -0.99805526559E+01 -0.42587842250E+02  0.38050115276E+02  0.57975496336E+02  0.10566000000E+00 0. -1.
         23    2    1    0    0    0 -0.16216782060E+02 -0.88756513160E+01  0.23193279717E+02  0.95340441158E+02  0.90609658920E+02 0.  0.
         13    1    3    3    0    0 -0.62362294040E+01  0.33712190934E+02 -0.14856835559E+02  0.37364944823E+02  0.10566000000E+00 0.  1.
         22    1    1    0    0    0  0.16216782060E+02  0.88756513160E+01 -0.23193279717E+02  0.29659558842E+02  0.00000000000E+00 0. -1.
</event>
<event>
 5    1  0.1758488E-003  0.9118800E+02  0.7818608E-02  0.1130116E+00
         25   -1    0    0    0    0  0.00000000000E+00  0.00000000000E+00  0.99999998245E-14  0.12500000000E+03  0.12500000000E+03 0.  0.
        -13    1    3    3    0    0  0.37714053611E+02 -0.14549122296E+01  0.22390082738E+02  0.43883864671E+02  0.10566000000E+00 0.  1.
         23    2    1    0    0    0 -0.11769844967E+02  0.12047095770E+02  0.24556704222E+02  0.95222601032E+02  0.90446947201E+02 0.  0.
         13    1    3    3    0    0 -0.49483898578E+02  0.13502008000E+02  0.21666214840E+01  0.51338736361E+02  0.10566000000E+00 0. -1.
         22    1    1    0    0    0  0.11769844967E+02 -0.12047095770E+02 -0.24556704222E+02  0.29777398968E+02  0.00000000000E+00 0.  1.
</event>
<event>
 5    1  0.1758488E-003  0.9118800E+02  0.7818608E-02  0.1130116E+00
         25   -1    0    0    0    0  0.00000000000E+00  0.00000000000E+00  0.99999998245E-14  0.12500000000E+03  0.12500000000E+03 0.  0.
        -13    1    3    3    0    0 -0.48840856264E+02 -0.65569120404E+01  0.25567096859E+02  0.55516753705E+02  0.10566000000E+00 0. -1.
         23    2    1    0    0    0 -0.25622217841E+02  0.11545104737E+02 -0.32443567737E+01  0.96710190150E+02  0.92479984524E+02 0.  0.
         13    1    3    3    0    0  0.23218638424E+02  0.18102016778E+02 -0.28811453633E+02  0.41193436445E+02  0.10566000000E+00 0.  1.
         22    1    1    0    0    0  0.25622217841E+02 -0.11545104737E+02  0.32443567737E+01  0.28289809850E+02  0.00000000000E+00 0. -1.
</event>
<event>
 5    1  0.1758488E-003  0.9118800E+02  0.7818608E-02  0.1130116E+00
         25   -1    0    0    0    0  0.00000000000E+00  0.00000000000E+00  0.99999998245E-14  0.12500000000E+03  0.12500000000E+03 0.  0.
        -13    1    3    3    0    0 -0.13979112155E+02 -0.15781390570E+02  0.32327624253E+02  0.38594744705E+02  0.10566000000E+00 0.  1.
         23    2    1    0    0    0  0.29275036169E+02  0.19817610194E+01 -0.37520563151E+00  0.95655564434E+02  0.91043347415E+02 0.  0.
         13    1    3    3    0    0  0.43254148324E+02  0.17763151590E+02 -0.32702829885E+02  0.57060819729E+02  0.10566000000E+00 0. -1.
         22    1    1    0    0    0 -0.29275036169E+02 -0.19817610194E+01  0.37520563151E+00  0.29344435566E+02  0.00000000000E+00 0. -1.
</event>
<event>
 5    1  0.1758488E-003  0.9118800E+02  0.7818608E-02  0.1130116E+00
         25   -1    0    0    0    0  0.00000000000E+00  0.00000000000E+00  0.99999998245E-14  0.12500000000E+03  0.12500000000E+03 0.  0.
        -13    1    3    3    0    0 -0.26474301252E+02 -0.12510917565E+02  0.33961882840E+02  0.44842305194E+02  0.10566000000E+00 0. -1.
         23    2    1    0    0    0  0.28889922115E+01 -0.30350865631E+02 -0.18311436283E+01  0.94457007227E+02  0.89382614678E+02 0.  0.
         13    1    3    3    0    0  0.29363293463E+02 -0.17839948067E+02 -0.35793026468E+02  0.49614702033E+02  0.10566000000E+00 0.  1.
         22    1    1    0    0    0 -0.28889922115E+01  0.30350865631E+02  0.18311436283E+01  0.30542992773E+02  0.00000000000E+00 0. -1.
</event>
<event>
 5    1  0.1758488E-003  0.9118800E+02  0.7818608E-02  0.1130116E+00
         25   -1    0    0    0    0  0.00000000000E+00  0.00000000000E+00  0.99999998245E-14  0.12500000000E+03  0.12500000000E+03 0.  0.
        -13    1    3    3    0    0 -0.52060955786E+02  0.21574114283E+02 -0.15556229379E+02  0.58461893238E+02  0.10566000000E+00 0.  1.
         23    2    1    0    0    0 -0.17611293605E+02  0.21719190438E+02  0.16881564159E+01  0.96986953615E+02  0.92853316600E+02 0.  0.
         13    1    3    3    0    0  0.34449662182E+02  0.14507615481E+00  0.17244385795E+02  0.38525060376E+02  0.10566000000E+00 0. -1.
         22    1    1    0    0    0  0.17611293605E+02 -0.21719190438E+02 -0.16881564159E+01  0.28013046385E+02  0.00000000000E+00 0.  1.
</event>
<event>
 5    1  0.1758488E-003  0.9118800E+02  0.7818608E-02  0.1130116E+00
         25   -1    0    0    0    0  0.00000000000E+00  0.00000000000E+00  0.99999998245E-14  0.12500000000E+03  0.12500000000E+03 0.  0.
        -13    1    3    3    0    0 -0.32826720929E+01 -0.26638552927E+02  0.44375858836E+02  0.51861512218E+02  0.10566000000E+00 0. -1.
         23    2    1    0    0    0  0.73636226629E+01 -0.29764139217E+02  0.35909039494E+01  0.94128953480E+02  0.88922653862E+02 0.  0.
         13    1    3    3    0    0  0.10646294756E+02 -0.31255862907E+01 -0.40784954886E+02  0.42267441262E+02  0.10566000000E+00 0.  1.
         22    1    1    0    0    0 -0.73636226629E+01  0.29764139217E+02 -0.35909039494E+01  0.30871046520E+02  0.00000000000E+00 0. -1.
</event>
<event>
 5    1  0.1758488E-003  0.9118800E+02  0.7818608E-02  0.1130116E+00
         25   -1    0    0    0    0  0.00000000000E+00  0.00000000000E+00  0.99999998245E-14  0.12500000000E+03  0.12500000000E+03 0.  0.
        -13    1    3    3    0    0  0.30861103770E+02 -0.47663389197E+01  0.26321505040E+02  0.40840647695E+02  0.10566000000E+00 0.  1.
         23    2    1    0    0    0 -0.20251992448E+02 -0.67842830500E+01  0.25146725453E+02  0.92007159934E+02  0.85888241241E+02 0.  0.
         13    1    3    3    0    0 -0.51113096218E+02 -0.20179441303E+01 -0.11747795868E+01  0.51166512238E+02  0.10566000000E+00 0. -1.
         22    1    1    0    0    0  0.20251992448E+02  0.67842830500E+01 -0.25146725453E+02  0.32992840066E+02  0.00000000000E+00 0.  1.
</event>
<event>
 5    1  0.1758488E-003  0.9118800E+02  0.7818608E-02  0.1130116E+00
         25   -1    0    0    0    0  0.00000000000E+00  0.00000000000E+00  0.99999998245E-14  0.12500000000E+03  0.12500000000E+03 0.  0.
        -13    1    3    3    0    0 -0.51181337686E+02 -0.24741441870E+02 -0.18883168061E+02  0.59902032296E+02  0.10566000000E+00 0.  1.
         23    2    1    0    0    0 -0.22924637941E+02 -0.33973915512E+01 -0.18549196199E+02  0.95315762201E+02  0.90575606817E+02 0.  0.
         13    1    3    3    0    0  0.28256699745E+02  0.21344050319E+02  0.33397186182E+00  0.35413729905E+02  0.10566000000E+00 0. -1.
         22    1    1    0    0    0  0.22924637941E+02  0.33973915512E+01  0.18549196199E+02  0.29684237799E+02  0.00000000000E+00 0.  1.
</event>
<event>
 5    1  0.1758488E-003  0.9118800E+02  0.7818608E-02  0.1130116E+00
         25   -1    0    0    0    0  0.00000000000E+00  0.00000000000E+00  0.99999998245E-14  0.12500000000E+03  0.12500000000E+03 0.  0.
        -13    1    3    3    0    0 -0.10741028841E+02 -0.30869422910E+02 -0.10074607199E+02  0.34202336845E+02  0.10566000000E+00 0.  1.
         23    2    1    0    0    0 -0.60513811063E+01  0.28509619290E+02  0.44648230344E+01  0.95515220027E+02  0.90850454081E+02 0.  0.
         13    1    3    3    0    0  0.46896477347E+01  0.59379042200E+02  0.14539430234E+02  0.61312883182E+02  0.10566000000E+00 0. -1.
         22    1    1    0    0    0  0.60513811063E+01 -0.28509619290E+02 -0.44648230344E+01  0.29484779973E+02  0.00000000000E+00 0. -1.
</event>
<event>
 5    1  0.1758488E-003  0.9118800E+02  0.7818608E-02  0.1130116E+00
         25   -1    0    0    0    0  0.00000000000E+00  0.00000000000E+00  0.99999998245E-14  0.12500000000E+03  0.12500000000E+03 0.  0.
        -13    1    3    3    0    0  0.13809042044E+02 -0.30976238447E+02 -0.13326936936E+02  0.36439475883E+02  0.10566000000E+00 0. -1.
         23    2    1    0    0    0 -0.81781081246E+01 -0.27688328485E+02  0.28892820377E+02  0.84154926171E+02  0.73578064277E+02 0.  0.
         13    1    3    3    0    0 -0.21987150169E+02  0.32879099624E+01  0.42219757314E+02  0.47715450287E+02  0.10566000000E+00 0.  1.
         22    1    1    0    0    0  0.81781081246E+01  0.27688328485E+02 -0.28892820377E+02  0.40845073829E+02  0.00000000000E+00 0. -1.
</event>
<event>
 5    1  0.1758488E-003  0.9118800E+02  0.7818608E-02  0.1130116E+00
         25   -1    0    0    0    0  0.00000000000E+00  0.00000000000E+00  0.99999998245E-14  0.12500000000E+03  0.12500000000E+03 0.  0.
        -13    1    3    3    0    0 -0.37761387110E+02  0.63877387840E+01  0.22837290476E+01  0.38366028536E+02  0.10566000000E+00 0.  1.
         23    2    1    0    0    0  0.18249186144E+02 -0.13282977840E+01 -0.18853307135E+02  0.98727498028E+02  0.95167612700E+02 0.  0.
         13    1    3    3    0    0  0.56010573255E+02 -0.77160365679E+01 -0.21137036182E+02  0.60361469492E+02  0.10566000000E+00 0. -1.
         22    1    1    0    0    0 -0.18249186144E+02  0.13282977840E+01  0.18853307135E+02  0.26272501972E+02  0.00000000000E+00 0. -1.
</event>
<event>
 5    1  0.1758488E-003  0.9118800E+02  0.7818608E-02  0.1130116E+00
         25   -1    0    0    0    0  0.00000000000E+00  0.00000000000E+00  0.99999998245E-14  0.12500000000E+03  0.12500000000E+03 0.  0.
        -13    1    3    3    0    0 -0.28514548046E+02 -0.22706250262E+02 -0.33096357877E+02  0.49234472882E+02  0.10566000000E+00 0.  1.
         23    2    1    0    0    0 -0.42189177505E+02 -0.77201476481E+01 -0.82284980005E+01  0.81328091894E+02  0.68607747183E+02 0.  0.
         13    1    3    3    0    0 -0.13674629460E+02  0.14986102614E+02  0.24867859876E+02  0.32093619012E+02  0.10566000000E+00 0. -1.
         22    1    1    0    0    0  0.42189177505E+02  0.77201476481E+01  0.82284980005E+01  0.43671908106E+02  0.00000000000E+00 0.  1.
</event>
<event>
 5    1  0.1758488E-003  0.9118800E+02  0.7818608E-02  0.1130116E+00
         25   -1    0    0    0    0  0.00000000000E+00  0.00000000000E+00  0.99999998245E-14  0.12500000000E+03  0.12500000000E+03 0.  0.
        -13    1    3    3    0    0 -0.33158600144E+02 -0.17484015332E+02  0.27279003914E+02  0.46360961749E+02  0.10566000000E+00 0.  1.
         23    2    1    0    0    0  0.14519066170E+02 -0.19197611434E+02  0.17952544550E+02  0.94972588805E+02  0.90100761381E+02 0.  0.
         13    1    3    3    0    0  0.47677666315E+02 -0.17135961017E+01 -0.93264593640E+01  0.48611627057E+02  0.10566000000E+00 0. -1.
         22    1    1    0    0    0 -0.14519066170E+02  0.19197611434E+02 -0.17952544550E+02  0.30027411195E+02  0.00000000000E+00 0. -1.
</event>
<event>
 5    1  0.1758488E-003  0.9118800E+02  0.7818608E-02  0.1130116E+00
         25   -1    0    0    0    0  0.00000000000E+00  0.00000000000E+00  0.99999998245E-14  0.12500000000E+03  0.12500000000E+03 0.  0.
        -13    1    3    3    0    0 -0.40960387907E+02  0.22823839660E+02  0.31010404199E+02  0.56216877955E+02  0.10566000000E+00 0. -1.
         23    2    1    0    0    0 -0.17338177107E+02 -0.77622244019E+01  0.22063823605E+02  0.95885109907E+02  0.91357963400E+02 0.  0.
         13    1    3    3    0    0  0.23622210800E+02 -0.30586064062E+02 -0.89465805943E+01  0.39668231952E+02  0.10566000000E+00 0.  1.
         22    1    1    0    0    0  0.17338177107E+02  0.77622244019E+01 -0.22063823605E+02  0.29114890093E+02  0.00000000000E+00 0.  1.
</event>
<event>
 5    1  0.1758488E-003  0.9118800E+02  0.7818608E-02  0.1130116E+00
         25   -1    0    0    0    0  0.00000000000E+00  0.00000000000E+00  0.99999998245E-14  0.12500000000E+03  0.12500000000E+03 0.  0.
        -13    1    3    3    0    0 -0.16350861100E+02  0.57171427253E+02 -0.65527185113E+01  0.59823674551E+02  0.10566000000E+00 0.  1.
         23    2    1    0    0    0 -0.15136498383E+01  0.25910219084E+02 -0.14417675477E+02  0.95309935080E+02  0.90567564668E+02 0.  0.
         13    1    3    3    0    0  0.14837211262E+02 -0.31261208169E+02 -0.78649569657E+01  0.35486260529E+02  0.10566000000E+00 0. -1.
         22    1    1    0    0    0  0.15136498383E+01 -0.25910219084E+02  0.14417675477E+02  0.29690064920E+02  0.00000000000E+00 0.  1.
</event>
<event>
 5    1  0.1758488E-003  0.9118800E+02  0.7818608E-02  0.1130116E+00
         25   -1    0    0    0    0  0.00000000000E+00  0.00000000000E+00  0.99999998245E-14  0.12500000000E+03  0.12500000000E+03 0.  0.
        -13    1    3    3    0    0 -0.51080359741E+02 -0.48880510221E+01  0.14360094491E+02  0.53285266931E+02  0.10566000000E+00 0. -1.
         23    2    1    0    0    0 -0.10371546479E+02  0.56602560302E+01  0.25591445460E+02  0.96812599349E+02  0.92618301848E+02 0.  0.
         13    1    3    3    0    0  0.40708813262E+02  0.10548307052E+02  0.11231350970E+02  0.43527332419E+02  0.10566000000E+00 0.  1.
         22    1    1    0    0    0  0.10371546479E+02 -0.56602560302E+01 -0.25591445460E+02  0.28187400651E+02  0.00000000000E+00 0. -1.
</event>
<event>
 5    1  0.1758488E-003  0.9118800E+02  0.7818608E-02  0.1130116E+00
         25   -1    0    0    0    0  0.00000000000E+00  0.00000000000E+00  0.99999998245E-14  0.12500000000E+03  0.12500000000E+03 0.  0.
        -13    1    3    3    0    0 -0.51375590481E+02 -0.11303322675E+02  0.29442715998E+02  0.60283505954E+02  0.10566000000E+00 0.  1.
         23    2    1    0    0    0 -0.22879573346E+02 -0.15689891261E+02  0.82810249115E+01  0.96047919974E+02  0.91580456394E+02 0.  0.
         13    1    3    3    0    0  0.28496017135E+02 -0.43865685865E+01 -0.21161691086E+02  0.35764414020E+02  0.10566000000E+00 0. -1.
         22    1    1    0    0    0  0.22879573346E+02  0.15689891261E+02 -0.82810249115E+01  0.28952080026E+02  0.00000000000E+00 0.  1.
</event>
<event>
 5    1  0.1758488E-003  0.9118800E+02  0.7818608E-02  0.1130116E+00
         25   -1    0    0    0    0  0.00000000000E+00  0.00000000000E+00  0.99999998245E-14  0.12500000000E+03  0.12500000000E+03 0.  0.
        -13    1    3    3    0    0  0.98311148462E+01 -0.31784817290E+02  0.11269557046E+02  0.35127475135E+02  0.10566000000E+00 0. -1.
         23    2    1    0    0    0  0.79929445744E+01  0.23658471384E+02 -0.14313808802E+02  0.96216401309E+02  0.91810131942E+02 0.  0.
         13    1    3    3    0    0 -0.18381702718E+01  0.55443288674E+02 -0.25583365849E+02  0.61088926174E+02  0.10566000000E+00 0.  1.
         22    1    1    0    0    0 -0.79929445744E+01 -0.23658471384E+02  0.14313808802E+02  0.28783598691E+02  0.00000000000E+00 0.  1.
</event>
<event>
 5    1  0.1758488E-003  0.9118800E+02  0.7818608E-02  0.1130116E+00
         25   -1    0    0    0    0  0.00000000000E+00  0.00000000000E+00  0.99999998245E-14  0.12500000000E+03  0.12500000000E+03 0.  0.
        -13    1    3    3    0    0  0.34146805342E+02 -0.61356782937E+01 -0.10529533489E+02  0.36256490491E+02  0.10566000000E+00 0.  1.
         23    2    1    0    0    0  0.17238802813E+02  0.30103591342E+02 -0.28505330599E+02  0.80100596812E+02  0.66333620457E+02 0.  0.
         13    1    3    3    0    0 -0.16908002529E+02  0.36239269636E+02 -0.17975797110E+02  0.43844106320E+02  0.10566000000E+00 0. -1.
         22    1    1    0    0    0 -0.17238802813E+02 -0.30103591342E+02  0.28505330599E+02  0.44899403188E+02  0.00000000000E+00 0.  1.
</event>
<event>
 5    1  0.1758488E-003  0.9118800E+02  0.7818608E-02  0.1130116E+00
         25   -1    0    0    0    0  0.00000000000E+00  0.00000000000E+00  0.99999998245E-14  0.12500000000E+03  0.12500000000E+03 0.  0.
        -13    1    3    3    0    0  0.31171112913E+02 -0.37048281751E+02  0.97398713004E+01  0.49387141220E+02  0.10566000000E+00 0. -1.
         23    2    1    0    0    0  0.16467002439E+02 -0.17095552768E+00  0.27552736823E+02  0.92901017126E+02  0.87179437263E+02 0.  0.
         13    1    3    3    0    0 -0.14704110473E+02  0.36877326223E+02  0.17812865522E+02  0.43513875906E+02  0.10566000000E+00 0.  1.
         22    1    1    0    0    0 -0.16467002439E+02  0.17095552768E+00 -0.27552736823E+02  0.32098982874E+02  0.00000000000E+00 0. -1.
</event>
<event>
 5    1  0.1758488E-003  0.9118800E+02  0.7818608E-02  0.1130116E+00
         25   -1    0    0    0    0  0.00000000000E+00  0.00000000000E+00  0.99999998245E-14  0.12500000000E+03  0.12500000000E+03 0.  0.
        -13    1    3    3    0    0 -0.48876563135E+02 -0.33486989634E+02 -0.97320655947E+01  0.60041828448E+02  0.10566000000E+00 0. -1.
         23    2    1    0    0    0 -0.18222022628E+02 -0.20851731532E+02  0.58810382041E+01  0.96690577065E+02  0.92453470818E+02 0.  0.
         13    1    3    3    0    0  0.30654540506E+02  0.12635258102E+02  0.15613103799E+02  0.36648748617E+02  0.10566000000E+00 0.  1.
         22    1    1    0    0    0  0.18222022628E+02  0.20851731532E+02 -0.58810382041E+01  0.28309422935E+02  0.00000000000E+00 0.  1.
</event>
<event>
 5    1  0.1758488E-003  0.9118800E+02  0.7818608E-02  0.1130116E+00
         25   -1    0    0    0    0  0.00000000000E+00  0.00000000000E+00  0.99999998245E-14  0.12500000000E+03  0.12500000000E+03 0.  0.
        -13    1    3    3    0    0  0.20257216129E+02 -0.45506866391E+02 -0.27172502246E+02  0.56741393500E+02  0.10566000000E+00 0.  1.
         23    2    1    0    0    0  0.10047021533E+02 -0.27093802384E+02  0.54749517511E+01  0.95589255943E+02  0.90952262126E+02 0.  0.
         13    1    3    3    0    0 -0.10210194596E+02  0.18413064007E+02  0.32647453998E+02  0.38847862443E+02  0.10566000000E+00 0. -1.
         22    1    1    0    0    0 -0.10047021533E+02  0.27093802384E+02 -0.54749517511E+01  0.29410744057E+02  0.00000000000E+00 0.  1.
</event>
<event>
 5    1  0.1758488E-003  0.9118800E+02  0.7818608E-02  0.1130116E+00
         25   -1    0    0    0    0  0.00000000000E+00  0.00000000000E+00  0.99999998245E-14  0.12500000000E+03  0.12500000000E+03 0.  0.
        -13    1    3    3    0    0  0.16194404312E+02 -0.10383016775E+02 -0.32105616594E+02  0.37427898008E+02  0.10566000000E+00 0.  1.
         23    2    1    0    0    0  0.17966609536E+01  0.24708000008E+02  0.13533534110E+02  0.96771117619E+02  0.92562300127E+02 0.  0.
         13    1    3    3    0    0 -0.14397743359E+02  0.35091016783E+02  0.45639150704E+02  0.59343219611E+02  0.10566000000E+00 0. -1.
         22    1    1    0    0    0 -0.17966609536E+01 -0.24708000008E+02 -0.13533534110E+02  0.28228882381E+02  0.00000000000E+00 0. -1.
</event>
<event>
 5    1  0.1758488E-003  0.9118800E+02  0.7818608E-02  0.1130116E+00
         25   -1    0    0    0    0  0.00000000000E+00  0.00000000000E+00  0.99999998245E-14  0.12500000000E+03  0.12500000000E+03 0.  0.
        -13    1    3    3    0    0 -0.13653645803E+02  0.33275135093E+01  0.37449083779E+02  0.39999242865E+02  0.10566000000E+00 0.  1.
         23    2    1    0    0    0  0.89255506738E+01  0.28961774516E+02 -0.47843302694E+01  0.94318740996E+02  0.89189042202E+02 0.  0.
         13    1    3    3    0    0  0.22579196477E+02  0.25634261007E+02 -0.42233414049E+02  0.54319498130E+02  0.10566000000E+00 0. -1.
         22    1    1    0    0    0 -0.89255506738E+01 -0.28961774516E+02  0.47843302694E+01  0.30681259004E+02  0.00000000000E+00 0. -1.
</event>
<event>
 5    1  0.1758488E-003  0.9118800E+02  0.7818608E-02  0.1130116E+00
         25   -1    0    0    0    0  0.00000000000E+00  0.00000000000E+00  0.99999998245E-14  0.12500000000E+03  0.12500000000E+03 0.  0.
        -13    1    3    3    0    0 -0.36809312784E+02  0.18423259236E+02 -0.60424664903E+01  0.41603660342E+02  0.10566000000E+00 0. -1.
         23    2    1    0    0    0  0.19222535068E+02  0.18385886276E+02 -0.64182283152E+01  0.97636880234E+02  0.93724170087E+02 0.  0.
         13    1    3    3    0    0  0.56031847853E+02 -0.37372960045E-01 -0.37576182490E+00  0.56033219892E+02  0.10566000000E+00 0.  1.
         22    1    1    0    0    0 -0.19222535068E+02 -0.18385886276E+02  0.64182283152E+01  0.27363119766E+02  0.00000000000E+00 0. -1.
</event>
<event>
 5    1  0.1758488E-003  0.9118800E+02  0.7818608E-02  0.1130116E+00
         25   -1    0    0    0    0  0.00000000000E+00  0.00000000000E+00  0.99999998245E-14  0.12500000000E+03  0.12500000000E+03 0.  0.
        -13    1    3    3    0    0  0.36084636152E+01 -0.42723768708E+02 -0.24035183321E+02  0.49153256490E+02  0.10566000000E+00 0.  1.
         23    2    1    0    0    0 -0.24630047235E+02 -0.76560371846E+01 -0.15281309681E+02  0.95020464351E+02  0.90167156370E+02 0.  0.
         13    1    3    3    0    0 -0.28238510850E+02  0.35067731523E+02  0.87538736404E+01  0.45867207861E+02  0.10566000000E+00 0. -1.
         22    1    1    0    0    0  0.24630047235E+02  0.76560371846E+01  0.15281309681E+02  0.29979535649E+02  0.00000000000E+00 0.  1.
</event>
<event>
 5    1  0.1758488E-003  0.9118800E+02  0.7818608E-02  0.1130116E+00
         25   -1    0    0    0    0  0.00000000000E+00  0.00000000000E+00  0.99999998245E-14  0.12500000000E+03  0.12500000000E+03 0.  0.
        -13    1    3    3    0    0  0.68786361111E+01 -0.33600702769E+02 -0.34375193638E+02  0.48559118227E+02  0.10566000000E+00 0.  1.
         23    2    1    0    0    0 -0.20730252295E+02 -0.19279384444E+02  0.22408469440E+01  0.96601770834E+02  0.92333323932E+02 0.  0.
         13    1    3    3    0    0 -0.27608888406E+02  0.14321318325E+02  0.36616040582E+02  0.48042652607E+02  0.10566000000E+00 0. -1.
         22    1    1    0    0    0  0.20730252295E+02  0.19279384444E+02 -0.22408469440E+01  0.28398229166E+02  0.00000000000E+00 0.  1.
</event>
<event>
 5    1  0.1758488E-003  0.9118800E+02  0.7818608E-02  0.1130116E+00
         25   -1    0    0    0    0  0.00000000000E+00  0.00000000000E+00  0.99999998245E-14  0.12500000000E+03  0.12500000000E+03 0.  0.
        -13    1    3    3    0    0  0.15458665952E+02  0.48084182735E+02 -0.34723361603E+02  0.61292593250E+02  0.10566000000E+00 0.  1.
         23    2    1    0    0    0  0.14042064867E+02  0.23833873683E+02 -0.11050426683E+02  0.95211662512E+02  0.90431828622E+02 0.  0.
         13    1    3    3    0    0 -0.14166010847E+01 -0.24250309053E+02  0.23672934920E+02  0.33919069261E+02  0.10566000000E+00 0. -1.
         22    1    1    0    0    0 -0.14042064867E+02 -0.23833873683E+02  0.11050426683E+02  0.29788337488E+02  0.00000000000E+00 0.  1.
</event>
<event>
 5    1  0.1758488E-003  0.9118800E+02  0.7818608E-02  0.1130116E+00
         25   -1    0    0    0    0  0.00000000000E+00  0.00000000000E+00  0.99999998245E-14  0.12500000000E+03  0.12500000000E+03 0.  0.
        -13    1    3    3    0    0  0.40341798773E+02  0.12657335368E+00 -0.54627161123E+01  0.40710308036E+02  0.10566000000E+00 0. -1.
         23    2    1    0    0    0 -0.59562430235E+01  0.21721583967E+02 -0.21100393149E+02  0.94136905015E+02  0.88933830761E+02 0.  0.
         13    1    3    3    0    0 -0.46298041797E+02  0.21595010613E+02 -0.15637677037E+02  0.53426596979E+02  0.10566000000E+00 0.  1.
         22    1    1    0    0    0  0.59562430235E+01 -0.21721583967E+02  0.21100393149E+02  0.30863094985E+02  0.00000000000E+00 0.  1.
</event>
<event>
 5    1  0.1758488E-003  0.9118800E+02  0.7818608E-02  0.1130116E+00
         25   -1    0    0    0    0  0.00000000000E+00  0.00000000000E+00  0.99999998245E-14  0.12500000000E+03  0.12500000000E+03 0.  0.
        -13    1    3    3    0    0  0.27597925914E+01  0.38596023233E+02  0.40782500107E+02  0.56218261656E+02  0.10566000000E+00 0.  1.
         23    2    1    0    0    0  0.15278195846E+02  0.45112908281E+01  0.23937323059E+02  0.96246383732E+02  0.91850944106E+02 0.  0.
         13    1    3    3    0    0  0.12518403255E+02 -0.34084732405E+02 -0.16845177049E+02  0.40028122077E+02  0.10566000000E+00 0. -1.
         22    1    1    0    0    0 -0.15278195846E+02 -0.45112908281E+01 -0.23937323059E+02  0.28753616268E+02  0.00000000000E+00 0.  1.
</event>
<event>
 5    1  0.1758488E-003  0.9118800E+02  0.7818608E-02  0.1130116E+00
         25   -1    0    0    0    0  0.00000000000E+00  0.00000000000E+00  0.99999998245E-14  0.12500000000E+03  0.12500000000E+03 0.  0.
        -13    1    3    3    0    0  0.31774321460E+02  0.25993142001E+01  0.65117598293E+01  0.32538870888E+02  0.10566000000E+00 0.  1.
         23    2    1    0    0    0 -0.27313414552E+02 -0.39175985337E+01 -0.12157254922E+02  0.94847569915E+02  0.89927150955E+02 0.  0.
         13    1    3    3    0    0 -0.59087736012E+02 -0.65169127338E+01 -0.18669014752E+02  0.62308699027E+02  0.10566000000E+00 0. -1.
         22    1    1    0    0    0  0.27313414552E+02  0.39175985337E+01  0.12157254922E+02  0.30152430085E+02  0.00000000000E+00 0. -1.
</event>
<event>
 5    1  0.1758488E-003  0.9118800E+02  0.7818608E-02  0.1130116E+00
         25   -1    0    0    0    0  0.00000000000E+00  0.00000000000E+00  0.99999998245E-14  0.12500000000E+03  0.12500000000E+03 0.  0.
        -13    1    3    3    0    0 -0.18034985217E+01  0.23740739476E+02 -0.40628453891E+02  0.47090951863E+02  0.10566000000E+00 0. -1.
         23    2    1    0    0    0 -0.21580311082E+01 -0.20496537730E+02 -0.21279135981E+02  0.95376246266E+02  0.90659040181E+02 0.  0.
         13    1    3    3    0    0 -0.35453258646E+00 -0.44237277206E+02  0.19349317909E+02  0.48285294403E+02  0.10566000000E+00 0.  1.
         22    1    1    0    0    0  0.21580311082E+01  0.20496537730E+02  0.21279135981E+02  0.29623753734E+02  0.00000000000E+00 0. -1.
</event>
<event>
 5    1  0.1758488E-003  0.9118800E+02  0.7818608E-02  0.1130116E+00
         25   -1    0    0    0    0  0.00000000000E+00  0.00000000000E+00  0.99999998245E-14  0.12500000000E+03  0.12500000000E+03 0.  0.
        -13    1    3    3    0    0  0.30816747396E+02 -0.26404298687E+02  0.37616329980E+02  0.55334061431E+02  0.10566000000E+00 0.  1.
         23    2    1    0    0    0  0.33124808767E+02 -0.63633121278E+01  0.94664900527E+01  0.89966314339E+02  0.82864821154E+02 0.  0.
         13    1    3    3    0    0  0.23080613704E+01  0.20040986559E+02 -0.28149839927E+02  0.34632252909E+02  0.10566000000E+00 0. -1.
         22    1    1    0    0    0 -0.33124808767E+02  0.63633121278E+01 -0.94664900527E+01  0.35033685661E+02  0.00000000000E+00 0.  1.
</event>
<event>
 5    1  0.1758488E-003  0.9118800E+02  0.7818608E-02  0.1130116E+00
         25   -1    0    0    0    0  0.00000000000E+00  0.00000000000E+00  0.99999998245E-14  0.12500000000E+03  0.12500000000E+03 0.  0.
        -13    1    3    3    0    0  0.41823767289E+00  0.32869661687E+02  0.18832405815E+02  0.37884828823E+02  0.10566000000E+00 0.  1.
         23    2    1    0    0    0  0.44641312131E+00 -0.66580913758E-01 -0.29019907264E+02  0.95976582984E+02  0.91483035291E+02 0.  0.
         13    1    3    3    0    0  0.28175448418E-01 -0.32936242601E+02 -0.47852313078E+02  0.58091754161E+02  0.10566000000E+00 0. -1.
         22    1    1    0    0    0 -0.44641312131E+00  0.66580913758E-01  0.29019907264E+02  0.29023417016E+02  0.00000000000E+00 0. -1.
</event>
<event>
 5    1  0.1758488E-003  0.9118800E+02  0.7818608E-02  0.1130116E+00
         25   -1    0    0    0    0  0.00000000000E+00  0.00000000000E+00  0.99999998245E-14  0.12500000000E+03  0.12500000000E+03 0.  0.
        -13    1    3    3    0    0 -0.27586356316E+02  0.24777974119E+02  0.18516634239E+02  0.41446736468E+02  0.10566000000E+00 0. -1.
         23    2    1    0    0    0  0.23902179066E+02  0.16888847739E+02  0.44992723019E+01  0.95389346625E+02  0.90677101058E+02 0.  0.
         13    1    3    3    0    0  0.51488535382E+02 -0.78891263805E+01 -0.14017361937E+02  0.53942610157E+02  0.10566000000E+00 0.  1.
         22    1    1    0    0    0 -0.23902179066E+02 -0.16888847739E+02 -0.44992723019E+01  0.29610653375E+02  0.00000000000E+00 0.  1.
</event>
<event>
 5    1  0.1758488E-003  0.9118800E+02  0.7818608E-02  0.1130116E+00
         25   -1    0    0    0    0  0.00000000000E+00  0.00000000000E+00  0.99999998245E-14  0.12500000000E+03  0.12500000000E+03 0.  0.
        -13    1    3    3    0    0  0.12279137983E+02  0.18974161971E+02 -0.37744201885E+02  0.43993544892E+02  0.10566000000E+00 0.  1.
         23    2    1    0    0    0  0.14007402291E+02 -0.24115600063E+02 -0.95279265464E+01  0.95528812891E+02  0.90869154407E+02 0.  0.
         13    1    3    3    0    0  0.17282643079E+01 -0.43089762034E+02  0.28216275339E+02  0.51535267999E+02  0.10566000000E+00 0. -1.
         22    1    1    0    0    0 -0.14007402291E+02  0.24115600063E+02  0.95279265464E+01  0.29471187109E+02  0.00000000000E+00 0. -1.
</event>
<event>
 5    1  0.1758488E-003  0.9118800E+02  0.7818608E-02  0.1130116E+00
         25   -1    0    0    0    0  0.00000000000E+00  0.00000000000E+00  0.99999998245E-14  0.12500000000E+03  0.12500000000E+03 0.  0.
        -13    1    3    3    0    0  0.50108918546E+02 -0.17270423422E+02  0.24079912392E+02  0.58215329493E+02  0.10566000000E+00 0. -1.
         23    2    1    0    0    0  0.27439571297E+02 -0.70042695612E+01 -0.47333383445E+01  0.96287731595E+02  0.91907197209E+02 0.  0.
         13    1    3    3    0    0 -0.22669347249E+02  0.10266153861E+02 -0.28813250737E+02  0.38072402103E+02  0.10566000000E+00 0.  1.
         22    1    1    0    0    0 -0.27439571297E+02  0.70042695612E+01  0.47333383445E+01  0.28712268405E+02  0.00000000000E+00 0. -1.
</event>
<event>
 5    1  0.1758488E-003  0.9118800E+02  0.7818608E-02  0.1130116E+00
         25   -1    0    0    0    0  0.00000000000E+00  0.00000000000E+00  0.99999998245E-14  0.12500000000E+03  0.12500000000E+03 0.  0.
        -13    1    3    3    0    0 -0.29421211559E+02 -0.41347185306E+02  0.26735626326E+02  0.57358541660E+02  0.10566000000E+00 0. -1.
         23    2    1    0    0    0 -0.48744449608E+01 -0.28844876196E+02  0.87983860537E-03  0.95746160984E+02  0.91167649119E+02 0.  0.
         13    1    3    3    0    0  0.24546766598E+02  0.12502309110E+02 -0.26734746487E+02  0.38387619323E+02  0.10566000000E+00 0.  1.
         22    1    1    0    0    0  0.48744449608E+01  0.28844876196E+02 -0.87983860537E-03  0.29253839016E+02  0.00000000000E+00 0.  1.
</event>
<event>
 5    1  0.1758488E-003  0.9118800E+02  0.7818608E-02  0.1130116E+00
         25   -1    0    0    0    0  0.00000000000E+00  0.00000000000E+00  0.99999998245E-14  0.12500000000E+03  0.12500000000E+03 0.  0.
        -13    1    3    3    0    0  0.24582124673E+02  0.46027058893E+02 -0.10951418814E+02  0.53317124283E+02  0.10566000000E+00 0.  1.
         23    2    1    0    0    0  0.27654793060E+02  0.56147740734E+01  0.39645831936E+01  0.96503839083E+02  0.92200649514E+02 0.  0.
         13    1    3    3    0    0  0.30726683876E+01 -0.40412284819E+02  0.14916002007E+02  0.43186714800E+02  0.10566000000E+00 0. -1.
         22    1    1    0    0    0 -0.27654793060E+02 -0.56147740734E+01 -0.39645831936E+01  0.28496160917E+02  0.00000000000E+00 0.  1.
</event>
<event>
 5    1  0.1758488E-003  0.9118800E+02  0.7818608E-02  0.1130116E+00
         25   -1    0    0    0    0  0.00000000000E+00  0.00000000000E+00  0.99999998245E-14  0.12500000000E+03  0.12500000000E+03 0.  0.
        -13    1    3    3    0    0 -0.20502199610E+02  0.22857169764E+02  0.97871314037E+01  0.32227154755E+02  0.10566000000E+00 0. -1.
         23    2    1    0    0    0  0.19222557010E+02 -0.97858438974E+01 -0.23204946072E+02  0.93318160391E+02  0.87775509670E+02 0.  0.
         13    1    3    3    0    0  0.39724756620E+02 -0.32643013662E+02 -0.32992077476E+02  0.61091005636E+02  0.10566000000E+00 0.  1.
         22    1    1    0    0    0 -0.19222557010E+02  0.97858438974E+01  0.23204946072E+02  0.31681839609E+02  0.00000000000E+00 0.  1.
</event>
<event>
 5    1  0.1758488E-003  0.9118800E+02  0.7818608E-02  0.1130116E+00
         25   -1    0    0    0    0  0.00000000000E+00  0.00000000000E+00  0.99999998245E-14  0.12500000000E+03  0.12500000000E+03 0.  0.
        -13    1    3    3    0    0  0.19182026782E+02  0.19055110622E+02  0.27556071145E+02  0.38605642247E+02  0.10566000000E+00 0. -1.
         23    2    1    0    0    0  0.35511819342E+01 -0.27138136144E+02 -0.49140782384E+01  0.97192851793E+02  0.93130086160E+02 0.  0.
         13    1    3    3    0    0 -0.15630844848E+02 -0.46193246766E+02 -0.32470149383E+02  0.58587209546E+02  0.10566000000E+00 0.  1.
         22    1    1    0    0    0 -0.35511819342E+01  0.27138136144E+02  0.49140782384E+01  0.27807148207E+02  0.00000000000E+00 0.  1.
</event>
<event>
 5    1  0.1758488E-003  0.9118800E+02  0.7818608E-02  0.1130116E+00
         25   -1    0    0    0    0  0.00000000000E+00  0.00000000000E+00  0.99999998245E-14  0.12500000000E+03  0.12500000000E+03 0.  0.
        -13    1    3    3    0    0  0.59726087538E+01 -0.16089688936E+02  0.36117449050E+02  0.39987891108E+02  0.10566000000E+00 0.  1.
         23    2    1    0    0    0  0.16555535947E+02 -0.15160765565E+02 -0.18673953700E+02  0.95799809422E+02  0.91241176864E+02 0.  0.
         13    1    3    3    0    0  0.10582927193E+02  0.92892337102E+00 -0.54791402749E+02  0.55811918314E+02  0.10566000000E+00 0. -1.
         22    1    1    0    0    0 -0.16555535947E+02  0.15160765565E+02  0.18673953700E+02  0.29200190578E+02  0.00000000000E+00 0. -1.
</event>
<event>
 5    1  0.1758488E-003  0.9118800E+02  0.7818608E-02  0.1130116E+00
         25   -1    0    0    0    0  0.00000000000E+00  0.00000000000E+00  0.99999998245E-14  0.12500000000E+03  0.12500000000E+03 0.  0.
        -13    1    3    3    0    0 -0.25930911675E+02 -0.20027172858E+02  0.23044494463E+02  0.40056955976E+02  0.10566000000E+00 0.  1.
         23    2    1    0    0    0  0.84555574927E+01 -0.19111580574E+02 -0.20618502481E+02  0.95642350075E+02  0.91025202657E+02 0.  0.
         13    1    3    3    0    0  0.34386469167E+02  0.91559228449E+00 -0.43662996944E+02  0.55585394099E+02  0.10566000000E+00 0. -1.
         22    1    1    0    0    0 -0.84555574927E+01  0.19111580574E+02  0.20618502481E+02  0.29357649925E+02  0.00000000000E+00 0. -1.
</event>
<event>
 5    1  0.1758488E-003  0.9118800E+02  0.7818608E-02  0.1130116E+00
         25   -1    0    0    0    0  0.00000000000E+00  0.00000000000E+00  0.99999998245E-14  0.12500000000E+03  0.12500000000E+03 0.  0.
        -13    1    3    3    0    0 -0.51652690714E+02 -0.21889848047E+02 -0.25523284415E+02  0.61632906120E+02  0.10566000000E+00 0.  1.
         23    2    1    0    0    0 -0.29046799970E+02 -0.66106067542E+01 -0.76742163683E+01  0.94237842939E+02  0.89075590005E+02 0.  0.
         13    1    3    3    0    0  0.22605890743E+02  0.15279241293E+02  0.17849068046E+02  0.32604936819E+02  0.10566000000E+00 0. -1.
         22    1    1    0    0    0  0.29046799970E+02  0.66106067542E+01  0.76742163683E+01  0.30762157061E+02  0.00000000000E+00 0.  1.
</event>
<event>
 5    1  0.1758488E-003  0.9118800E+02  0.7818608E-02  0.1130116E+00
         25   -1    0    0    0    0  0.00000000000E+00  0.00000000000E+00  0.99999998245E-14  0.12500000000E+03  0.12500000000E+03 0.  0.
        -13    1    3    3    0    0 -0.41083783969E+02  0.15367605064E+01  0.15594329244E+02  0.43970822220E+02  0.10566000000E+00 0. -1.
         23    2    1    0    0    0 -0.99582806380E+01  0.26394058496E+02 -0.13915656824E+02  0.93544329891E+02  0.88097006037E+02 0.  0.
         13    1    3    3    0    0  0.31125503331E+02  0.24857297990E+02 -0.29509986068E+02  0.49573507671E+02  0.10566000000E+00 0.  1.
         22    1    1    0    0    0  0.99582806380E+01 -0.26394058496E+02  0.13915656824E+02  0.31455670109E+02  0.00000000000E+00 0.  1.
</event>
<event>
 5    1  0.1758488E-003  0.9118800E+02  0.7818608E-02  0.1130116E+00
         25   -1    0    0    0    0  0.00000000000E+00  0.00000000000E+00  0.99999998245E-14  0.12500000000E+03  0.12500000000E+03 0.  0.
        -13    1    3    3    0    0 -0.79769565446E+01  0.22113723096E+02 -0.29642657669E+02  0.37833145555E+02  0.10566000000E+00 0. -1.
         23    2    1    0    0    0  0.19642767684E+02  0.13265754413E+02  0.19105200987E+02  0.94556162082E+02  0.89521173587E+02 0.  0.
         13    1    3    3    0    0  0.27619724228E+02 -0.88479686823E+01  0.48747858656E+02  0.56723016527E+02  0.10566000000E+00 0.  1.
         22    1    1    0    0    0 -0.19642767684E+02 -0.13265754413E+02 -0.19105200987E+02  0.30443837918E+02  0.00000000000E+00 0.  1.
</event>
<event>
 5    1  0.1758488E-003  0.9118800E+02  0.7818608E-02  0.1130116E+00
         25   -1    0    0    0    0  0.00000000000E+00  0.00000000000E+00  0.99999998245E-14  0.12500000000E+03  0.12500000000E+03 0.  0.
        -13    1    3    3    0    0  0.53755003438E+02 -0.30178039508E+01 -0.24677094884E+02  0.59225650788E+02  0.10566000000E+00 0. -1.
         23    2    1    0    0    0  0.29576828890E+02 -0.15822628209E+02 -0.12058095205E+02  0.89355336576E+02  0.81937989627E+02 0.  0.
         13    1    3    3    0    0 -0.24178174548E+02 -0.12804824258E+02  0.12618999679E+02  0.30129685788E+02  0.10566000000E+00 0.  1.
         22    1    1    0    0    0 -0.29576828890E+02  0.15822628209E+02  0.12058095205E+02  0.35644663424E+02  0.00000000000E+00 0. -1.
</event>
<event>
 5    1  0.1758488E-003  0.9118800E+02  0.7818608E-02  0.1130116E+00
         25   -1    0    0    0    0  0.00000000000E+00  0.00000000000E+00  0.99999998245E-14  0.12500000000E+03  0.12500000000E+03 0.  0.
        -13    1    3    3    0    0 -0.26257424462E+02 -0.21078429623E+02  0.54916602396E+00  0.33675885766E+02  0.10566000000E+00 0.  1.
         23    2    1    0    0    0  0.24722688466E+02  0.14442901623E+02 -0.45026065960E+01  0.96015828485E+02  0.91536643598E+02 0.  0.
         13    1    3    3    0    0  0.50980112928E+02  0.35521331246E+02 -0.50517726200E+01  0.62339942719E+02  0.10566000000E+00 0. -1.
         22    1    1    0    0    0 -0.24722688466E+02 -0.14442901623E+02  0.45026065960E+01  0.28984171515E+02  0.00000000000E+00 0. -1.
</event>
<event>
 5    1  0.1758488E-003  0.9118800E+02  0.7818608E-02  0.1130116E+00
         25   -1    0    0    0    0  0.00000000000E+00  0.00000000000E+00  0.99999998245E-14  0.12500000000E+03  0.12500000000E+03 0.  0.
        -13    1    3    3    0    0  0.20680447982E+02 -0.21055984887E+02 -0.37355587135E+02  0.47607630508E+02  0.10566000000E+00 0. -1.
         23    2    1    0    0    0  0.25484284149E+02  0.10147324716E+02  0.13262073758E+01  0.97537739287E+02  0.93591852325E+02 0.  0.
         13    1    3    3    0    0  0.48038361666E+01  0.31203309603E+02  0.38681794511E+02  0.49930108779E+02  0.10566000000E+00 0.  1.
         22    1    1    0    0    0 -0.25484284149E+02 -0.10147324716E+02 -0.13262073758E+01  0.27462260713E+02  0.00000000000E+00 0. -1.
</event>
<event>
 5    1  0.1758488E-003  0.9118800E+02  0.7818608E-02  0.1130116E+00
         25   -1    0    0    0    0  0.00000000000E+00  0.00000000000E+00  0.99999998245E-14  0.12500000000E+03  0.12500000000E+03 0.  0.
        -13    1    3    3    0    0 -0.90612537025E+01  0.10420914584E+02  0.56211240373E+02  0.57882782308E+02  0.10566000000E+00 0.  1.
         23    2    1    0    0    0 -0.87891656611E+01  0.20437470796E+02  0.21313219686E+02  0.94191024377E+02  0.89009865152E+02 0.  0.
         13    1    3    3    0    0  0.27208804145E+00  0.10016556211E+02 -0.34898020687E+02  0.36308242069E+02  0.10566000000E+00 0. -1.
         22    1    1    0    0    0  0.87891656611E+01 -0.20437470796E+02 -0.21313219686E+02  0.30808975623E+02  0.00000000000E+00 0.  1.
</event>
<event>
 5    1  0.1758488E-003  0.9118800E+02  0.7818608E-02  0.1130116E+00
         25   -1    0    0    0    0  0.00000000000E+00  0.00000000000E+00  0.99999998245E-14  0.12500000000E+03  0.12500000000E+03 0.  0.
        -13    1    3    3    0    0 -0.41823930708E+02  0.11193072643E+02 -0.12242890540E+01  0.43313232421E+02  0.10566000000E+00 0. -1.
         23    2    1    0    0    0 -0.97174983828E+01  0.12790359655E+01  0.32580263867E+02  0.90977370744E+02  0.84376197391E+02 0.  0.
         13    1    3    3    0    0  0.32106432325E+02 -0.99140366771E+01  0.33804552921E+02  0.47664138323E+02  0.10566000000E+00 0.  1.
         22    1    1    0    0    0  0.97174983828E+01 -0.12790359655E+01 -0.32580263867E+02  0.34022629256E+02  0.00000000000E+00 0.  1.
</event>
<event>
 5    1  0.1758488E-003  0.9118800E+02  0.7818608E-02  0.1130116E+00
         25   -1    0    0    0    0  0.00000000000E+00  0.00000000000E+00  0.99999998245E-14  0.12500000000E+03  0.12500000000E+03 0.  0.
        -13    1    3    3    0    0 -0.36574634995E+02 -0.11725025911E+02 -0.36277661905E+02  0.52832377147E+02  0.10566000000E+00 0.  1.
         23    2    1    0    0    0 -0.27869437697E+02 -0.13924127126E+02  0.35357132511E+01  0.93645763573E+02  0.88240811947E+02 0.  0.
         13    1    3    3    0    0  0.87051972981E+01 -0.21991012145E+01  0.39813375156E+02  0.40813386426E+02  0.10566000000E+00 0. -1.
         22    1    1    0    0    0  0.27869437697E+02  0.13924127126E+02 -0.35357132511E+01  0.31354236427E+02  0.00000000000E+00 0.  1.
</event>
<event>
 5    1  0.1758488E-003  0.9118800E+02  0.7818608E-02  0.1130116E+00
         25   -1    0    0    0    0  0.00000000000E+00  0.00000000000E+00  0.99999998245E-14  0.12500000000E+03  0.12500000000E+03 0.  0.
        -13    1    3    3    0    0  0.24057099627E+02 -0.94694642183E+01 -0.20015981704E+02  0.32696566833E+02  0.10566000000E+00 0.  1.
         23    2    1    0    0    0 -0.13381102302E+02  0.19212705892E+02  0.19736709364E+02  0.94377791343E+02  0.89271763933E+02 0.  0.
         13    1    3    3    0    0 -0.37438201930E+02  0.28682170110E+02  0.39752691067E+02  0.61681224510E+02  0.10566000000E+00 0. -1.
         22    1    1    0    0    0  0.13381102302E+02 -0.19212705892E+02 -0.19736709364E+02  0.30622208657E+02  0.00000000000E+00 0. -1.
</event>
<event>
 5    1  0.1758488E-003  0.9118800E+02  0.7818608E-02  0.1130116E+00
         25   -1    0    0    0    0  0.00000000000E+00  0.00000000000E+00  0.99999998245E-14  0.12500000000E+03  0.12500000000E+03 0.  0.
        -13    1    3    3    0    0 -0.27249504900E+02  0.36643268007E+02 -0.26782381551E+02  0.52939321237E+02  0.10566000000E+00 0. -1.
         23    2    1    0    0    0 -0.10772046470E+02 -0.28791251967E+01 -0.27030706712E+02  0.95759865725E+02  0.91186437760E+02 0.  0.
         13    1    3    3    0    0  0.16477458429E+02 -0.39522393203E+02 -0.24832516122E+00  0.42820544488E+02  0.10566000000E+00 0.  1.
         22    1    1    0    0    0  0.10772046470E+02  0.28791251967E+01  0.27030706712E+02  0.29240134275E+02  0.00000000000E+00 0. -1.
</event>
<event>
 5    1  0.1758488E-003  0.9118800E+02  0.7818608E-02  0.1130116E+00
         25   -1    0    0    0    0  0.00000000000E+00  0.00000000000E+00  0.99999998245E-14  0.12500000000E+03  0.12500000000E+03 0.  0.
        -13    1    3    3    0    0  0.67151284628E+01  0.27159593371E+02  0.23410125659E+02  0.36479879520E+02  0.10566000000E+00 0.  1.
         23    2    1    0    0    0 -0.15057762332E+02 -0.24015219396E+02  0.43961944235E+00  0.96651098181E+02  0.92400078708E+02 0.  0.
         13    1    3    3    0    0 -0.21772890795E+02 -0.51174812767E+02 -0.22970506217E+02  0.60171218661E+02  0.10566000000E+00 0. -1.
         22    1    1    0    0    0  0.15057762332E+02  0.24015219396E+02 -0.43961944235E+00  0.28348901819E+02  0.00000000000E+00 0. -1.
</event>
<event>
 5    1  0.1758488E-003  0.9118800E+02  0.7818608E-02  0.1130116E+00
         25   -1    0    0    0    0  0.00000000000E+00  0.00000000000E+00  0.99999998245E-14  0.12500000000E+03  0.12500000000E+03 0.  0.
        -13    1    3    3    0    0 -0.50320009578E+02 -0.34691922486E+02  0.83472077514E+01  0.61687274952E+02  0.10566000000E+00 0.  1.
         23    2    1    0    0    0 -0.61738522082E+01 -0.87545564171E+01 -0.24396691904E+01  0.11401315810E+03  0.11348255163E+03 0.  0.
         13    1    3    3    0    0  0.44146157370E+02  0.25937366069E+02 -0.10786876942E+02  0.52325883149E+02  0.10566000000E+00 0. -1.
         22    1    1    0    0    0  0.61738522082E+01  0.87545564171E+01  0.24396691904E+01  0.10986841899E+02  0.00000000000E+00 0.  1.
</event>
<event>
 5    1  0.1758488E-003  0.9118800E+02  0.7818608E-02  0.1130116E+00
         25   -1    0    0    0    0  0.00000000000E+00  0.00000000000E+00  0.99999998245E-14  0.12500000000E+03  0.12500000000E+03 0.  0.
        -13    1    3    3    0    0 -0.47761178562E+02  0.36371878236E+02  0.43250606558E+01  0.60189376286E+02  0.10566000000E+00 0.  1.
         23    2    1    0    0    0 -0.14814770503E+02  0.25848369828E+02 -0.10374780627E+01  0.95189062266E+02  0.90400583884E+02 0.  0.
         13    1    3    3    0    0  0.32946408058E+02 -0.10523508408E+02 -0.53625387186E+01  0.34999685980E+02  0.10566000000E+00 0. -1.
         22    1    1    0    0    0  0.14814770503E+02 -0.25848369828E+02  0.10374780627E+01  0.29810937734E+02  0.00000000000E+00 0.  1.
</event>
<event>
 5    1  0.1758488E-003  0.9118800E+02  0.7818608E-02  0.1130116E+00
         25   -1    0    0    0    0  0.00000000000E+00  0.00000000000E+00  0.99999998245E-14  0.12500000000E+03  0.12500000000E+03 0.  0.
        -13    1    3    3    0    0 -0.43214710508E+02 -0.29349203482E+02  0.18190976511E+01  0.52270519699E+02  0.10566000000E+00 0. -1.
         23    2    1    0    0    0 -0.12715115787E+01 -0.25796719170E+02  0.13365150799E+02  0.95918825376E+02  0.91404082754E+02 0.  0.
         13    1    3    3    0    0  0.41943198929E+02  0.35524843122E+01  0.11546053148E+02  0.43648305677E+02  0.10566000000E+00 0.  1.
         22    1    1    0    0    0  0.12715115787E+01  0.25796719170E+02 -0.13365150799E+02  0.29081174624E+02  0.00000000000E+00 0.  1.
</event>
<event>
 5    1  0.1758488E-003  0.9118800E+02  0.7818608E-02  0.1130116E+00
         25   -1    0    0    0    0  0.00000000000E+00  0.00000000000E+00  0.99999998245E-14  0.12500000000E+03  0.12500000000E+03 0.  0.
        -13    1    3    3    0    0 -0.35835903388E+02  0.14659952443E+02  0.75179508296E+00  0.38725993043E+02  0.10566000000E+00 0.  1.
         23    2    1    0    0    0 -0.16448417345E+01 -0.25539550842E+02 -0.16851260894E+02  0.94357885920E+02  0.89243887634E+02 0.  0.
         13    1    3    3    0    0  0.34191061654E+02 -0.40199503285E+02 -0.17603055977E+02  0.55631892877E+02  0.10566000000E+00 0. -1.
         22    1    1    0    0    0  0.16448417345E+01  0.25539550842E+02  0.16851260894E+02  0.30642114080E+02  0.00000000000E+00 0. -1.
</event>
<event>
 5    1  0.1758488E-003  0.9118800E+02  0.7818608E-02  0.1130116E+00
         25   -1    0    0    0    0  0.00000000000E+00  0.00000000000E+00  0.99999998245E-14  0.12500000000E+03  0.12500000000E+03 0.  0.
        -13    1    3    3    0    0  0.20564719299E+02 -0.15386761786E+02 -0.21410762350E+02  0.33437883105E+02  0.10566000000E+00 0. -1.
         23    2    1    0    0    0 -0.13697664793E+02 -0.12900483334E+02  0.26566081515E+02  0.92445350899E+02  0.86523625240E+02 0.  0.
         13    1    3    3    0    0 -0.34262384092E+02  0.24862784522E+01  0.47976843865E+02  0.59007467794E+02  0.10566000000E+00 0.  1.
         22    1    1    0    0    0  0.13697664793E+02  0.12900483334E+02 -0.26566081515E+02  0.32554649101E+02  0.00000000000E+00 0.  1.
</event>
<event>
 5    1  0.1758488E-003  0.9118800E+02  0.7818608E-02  0.1130116E+00
         25   -1    0    0    0    0  0.00000000000E+00  0.00000000000E+00  0.99999998245E-14  0.12500000000E+03  0.12500000000E+03 0.  0.
        -13    1    3    3    0    0 -0.68156364444E+01  0.11635193557E+02  0.25887876828E+02  0.29189449463E+02  0.10566000000E+00 0.  1.
         23    2    1    0    0    0  0.10146388469E+02  0.47638047420E+02  0.70097165979E+00  0.76288357427E+02  0.58711918353E+02 0.  0.
         13    1    3    3    0    0  0.16962024914E+02  0.36002853862E+02 -0.25186905168E+02  0.47098907964E+02  0.10566000000E+00 0. -1.
         22    1    1    0    0    0 -0.10146388469E+02 -0.47638047420E+02 -0.70097165979E+00  0.48711642573E+02  0.00000000000E+00 0. -1.
</event>
<event>
 5    1  0.1758488E-003  0.9118800E+02  0.7818608E-02  0.1130116E+00
         25   -1    0    0    0    0  0.00000000000E+00  0.00000000000E+00  0.99999998245E-14  0.12500000000E+03  0.12500000000E+03 0.  0.
        -13    1    3    3    0    0 -0.31885905978E+02  0.26915010634E+02  0.30887455901E+02  0.51915073857E+02  0.10566000000E+00 0.  1.
         23    2    1    0    0    0 -0.31489360643E+02  0.41883680902E+00 -0.11440307608E+01  0.93487080993E+02  0.88015738639E+02 0.  0.
         13    1    3    3    0    0  0.39654533543E+00 -0.26496173825E+02 -0.32031486662E+02  0.41572007136E+02  0.10566000000E+00 0. -1.
         22    1    1    0    0    0  0.31489360643E+02 -0.41883680902E+00  0.11440307608E+01  0.31512919007E+02  0.00000000000E+00 0. -1.
</event>
<event>
 5    1  0.1758488E-003  0.9118800E+02  0.7818608E-02  0.1130116E+00
         25   -1    0    0    0    0  0.00000000000E+00  0.00000000000E+00  0.99999998245E-14  0.12500000000E+03  0.12500000000E+03 0.  0.
        -13    1    3    3    0    0  0.33736315745E+02  0.22611812261E+02  0.43276814759E+02  0.59349194716E+02  0.10566000000E+00 0. -1.
         23    2    1    0    0    0  0.14139794692E+02 -0.30744114366E+01  0.24011917626E+02  0.96965057737E+02  0.92823835486E+02 0.  0.
         13    1    3    3    0    0 -0.19596521053E+02 -0.25686223698E+02 -0.19264897134E+02  0.37615863021E+02  0.10566000000E+00 0.  1.
         22    1    1    0    0    0 -0.14139794692E+02  0.30744114366E+01 -0.24011917626E+02  0.28034942263E+02  0.00000000000E+00 0. -1.
</event>
<event>
 5    1  0.1758488E-003  0.9118800E+02  0.7818608E-02  0.1130116E+00
         25   -1    0    0    0    0  0.00000000000E+00  0.00000000000E+00  0.99999998245E-14  0.12500000000E+03  0.12500000000E+03 0.  0.
        -13    1    3    3    0    0  0.84980996478E+00  0.27464775775E+02  0.42081574853E+02  0.50258394239E+02  0.10566000000E+00 0. -1.
         23    2    1    0    0    0 -0.22324239131E+02  0.17922254789E+02  0.36496082353E+01  0.96140018888E+02  0.91706077890E+02 0.  0.
         13    1    3    3    0    0 -0.23174049096E+02 -0.95425209861E+01 -0.38431966618E+02  0.45881624649E+02  0.10566000000E+00 0.  1.
         22    1    1    0    0    0  0.22324239131E+02 -0.17922254789E+02 -0.36496082353E+01  0.28859981112E+02  0.00000000000E+00 0. -1.
</event>
<event>
 5    1  0.1758488E-003  0.9118800E+02  0.7818608E-02  0.1130116E+00
         25   -1    0    0    0    0  0.00000000000E+00  0.00000000000E+00  0.99999998245E-14  0.12500000000E+03  0.12500000000E+03 0.  0.
        -13    1    3    3    0    0  0.14055156640E+02  0.46992232894E+02  0.12928270327E+01  0.49066281155E+02  0.10566000000E+00 0. -1.
         23    2    1    0    0    0  0.27299287887E+02  0.97008157453E+01 -0.15600857306E+02  0.92094929054E+02  0.86015883786E+02 0.  0.
         13    1    3    3    0    0  0.13244131247E+02 -0.37291417149E+02 -0.16893684339E+02  0.43028647899E+02  0.10566000000E+00 0.  1.
         22    1    1    0    0    0 -0.27299287887E+02 -0.97008157453E+01  0.15600857306E+02  0.32905070946E+02  0.00000000000E+00 0. -1.
</event>
<event>
 5    1  0.1758488E-003  0.9118800E+02  0.7818608E-02  0.1130116E+00
         25   -1    0    0    0    0  0.00000000000E+00  0.00000000000E+00  0.99999998245E-14  0.12500000000E+03  0.12500000000E+03 0.  0.
        -13    1    3    3    0    0 -0.37437638242E+02  0.46751786644E+02  0.11466368419E+02  0.60981924210E+02  0.10566000000E+00 0.  1.
         23    2    1    0    0    0 -0.17091221583E+02  0.24146968721E+02 -0.40769220230E+01  0.95136858055E+02  0.90328370481E+02 0.  0.
         13    1    3    3    0    0  0.20346416659E+02 -0.22604817923E+02 -0.15543290443E+02  0.34154933846E+02  0.10566000000E+00 0. -1.
         22    1    1    0    0    0  0.17091221583E+02 -0.24146968721E+02  0.40769220230E+01  0.29863141945E+02  0.00000000000E+00 0.  1.
</event>
<event>
 5    1  0.1758488E-003  0.9118800E+02  0.7818608E-02  0.1130116E+00
         25   -1    0    0    0    0  0.00000000000E+00  0.00000000000E+00  0.99999998245E-14  0.12500000000E+03  0.12500000000E+03 0.  0.
        -13    1    3    3    0    0 -0.55460283968E+02  0.16793422093E+02 -0.16343618459E+02  0.60207866195E+02  0.10566000000E+00 0.  1.
         23    2    1    0    0    0 -0.30208567964E+02  0.88109745513E+01  0.35530587072E+01  0.93332744401E+02  0.87796276118E+02 0.  0.
         13    1    3    3    0    0  0.25251716004E+02 -0.79824475415E+01  0.19896677166E+02  0.33124878206E+02  0.10566000000E+00 0. -1.
         22    1    1    0    0    0  0.30208567964E+02 -0.88109745513E+01 -0.35530587072E+01  0.31667255599E+02  0.00000000000E+00 0.  1.
</event>
<event>
 5    1  0.1758488E-003  0.9118800E+02  0.7818608E-02  0.1130116E+00
         25   -1    0    0    0    0  0.00000000000E+00  0.00000000000E+00  0.99999998245E-14  0.12500000000E+03  0.12500000000E+03 0.  0.
        -13    1    3    3    0    0  0.17569684320E+02  0.46929533129E+02  0.26638028830E+02  0.56750952687E+02  0.10566000000E+00 0.  1.
         23    2    1    0    0    0  0.72360961958E+01  0.28245135351E+02 -0.54932822001E+01  0.95329730226E+02  0.90594881514E+02 0.  0.
         13    1    3    3    0    0 -0.10333588124E+02 -0.18684397779E+02 -0.32131311031E+02  0.38578777539E+02  0.10566000000E+00 0. -1.
         22    1    1    0    0    0 -0.72360961958E+01 -0.28245135351E+02  0.54932822001E+01  0.29670269774E+02  0.00000000000E+00 0.  1.
</event>
<event>
 5    1  0.1758488E-003  0.9118800E+02  0.7818608E-02  0.1130116E+00
         25   -1    0    0    0    0  0.00000000000E+00  0.00000000000E+00  0.99999998245E-14  0.12500000000E+03  0.12500000000E+03 0.  0.
        -13    1    3    3    0    0 -0.25756666111E+02  0.31465984902E+02  0.41403821603E+01  0.40873805591E+02  0.10566000000E+00 0. -1.
         23    2    1    0    0    0 -0.50640913695E+01 -0.99524159305E+01 -0.26397567435E+02  0.96337704719E+02  0.91975138923E+02 0.  0.
         13    1    3    3    0    0  0.20692574742E+02 -0.41418400832E+02 -0.30537949596E+02  0.55463899128E+02  0.10566000000E+00 0.  1.
         22    1    1    0    0    0  0.50640913695E+01  0.99524159305E+01  0.26397567435E+02  0.28662295281E+02  0.00000000000E+00 0.  1.
</event>
<event>
 5    1  0.1758488E-003  0.9118800E+02  0.7818608E-02  0.1130116E+00
         25   -1    0    0    0    0  0.00000000000E+00  0.00000000000E+00  0.99999998245E-14  0.12500000000E+03  0.12500000000E+03 0.  0.
        -13    1    3    3    0    0 -0.41784910297E+02  0.18784777290E+01  0.23837193525E+02  0.48142812197E+02  0.10566000000E+00 0.  1.
         23    2    1    0    0    0 -0.10851575534E+01 -0.24526152975E+02  0.77245134389E+01  0.99263297520E+02  0.95868787308E+02 0.  0.
         13    1    3    3    0    0  0.40699752743E+02 -0.26404630704E+02 -0.16112680086E+02  0.51120485322E+02  0.10566000000E+00 0. -1.
         22    1    1    0    0    0  0.10851575534E+01  0.24526152975E+02 -0.77245134389E+01  0.25736702480E+02  0.00000000000E+00 0. -1.
</event>
<event>
 5    1  0.1758488E-003  0.9118800E+02  0.7818608E-02  0.1130116E+00
         25   -1    0    0    0    0  0.00000000000E+00  0.00000000000E+00  0.99999998245E-14  0.12500000000E+03  0.12500000000E+03 0.  0.
        -13    1    3    3    0    0  0.12473331666E+01 -0.39769320752E+02  0.23754057865E+02  0.46340275594E+02  0.10566000000E+00 0.  1.
         23    2    1    0    0    0  0.26934715913E+02 -0.21889216114E+01 -0.60688273545E+00  0.97969672481E+02  0.94166969370E+02 0.  0.
         13    1    3    3    0    0  0.25687382746E+02  0.37580399140E+02 -0.24360940601E+02  0.51629396887E+02  0.10566000000E+00 0. -1.
         22    1    1    0    0    0 -0.26934715913E+02  0.21889216114E+01  0.60688273545E+00  0.27030327519E+02  0.00000000000E+00 0. -1.
</event>
<event>
 5    1  0.1758488E-003  0.9118800E+02  0.7818608E-02  0.1130116E+00
         25   -1    0    0    0    0  0.00000000000E+00  0.00000000000E+00  0.99999998245E-14  0.12500000000E+03  0.12500000000E+03 0.  0.
        -13    1    3    3    0    0  0.12026897579E+02  0.35030490254E+02  0.34149923293E+01  0.37194822885E+02  0.10566000000E+00 0.  1.
         23    2    1    0    0    0 -0.78521320373E+00 -0.78972369626E+01 -0.30564136817E+02  0.93422327971E+02  0.87923728269E+02 0.  0.
         13    1    3    3    0    0 -0.12812110783E+02 -0.42927727216E+02 -0.33979129146E+02  0.56227505086E+02  0.10566000000E+00 0. -1.
         22    1    1    0    0    0  0.78521320373E+00  0.78972369626E+01  0.30564136817E+02  0.31577672029E+02  0.00000000000E+00 0. -1.
</event>
<event>
 5    1  0.1758488E-003  0.9118800E+02  0.7818608E-02  0.1130116E+00
         25   -1    0    0    0    0  0.00000000000E+00  0.00000000000E+00  0.99999998245E-14  0.12500000000E+03  0.12500000000E+03 0.  0.
        -13    1    3    3    0    0  0.30292552552E+01  0.14888289878E+02 -0.52074479200E+02  0.54245738182E+02  0.10566000000E+00 0.  1.
         23    2    1    0    0    0 -0.37656376880E+00 -0.15522765596E+02 -0.27193794650E+02  0.93685458338E+02  0.88297024778E+02 0.  0.
         13    1    3    3    0    0 -0.34058190240E+01 -0.30411055475E+02  0.24880684550E+02  0.39439720157E+02  0.10566000000E+00 0. -1.
         22    1    1    0    0    0  0.37656376880E+00  0.15522765596E+02  0.27193794650E+02  0.31314541662E+02  0.00000000000E+00 0.  1.
</event>
<event>
 5    1  0.1758488E-003  0.9118800E+02  0.7818608E-02  0.1130116E+00
         25   -1    0    0    0    0  0.00000000000E+00  0.00000000000E+00  0.99999998245E-14  0.12500000000E+03  0.12500000000E+03 0.  0.
        -13    1    3    3    0    0 -0.40408457386E+02 -0.54743419449E+01  0.18826820124E+02  0.44914053125E+02  0.10566000000E+00 0.  1.
         23    2    1    0    0    0 -0.12913469055E+02  0.17239955970E+02 -0.18548087241E+02  0.96574565876E+02  0.92296486763E+02 0.  0.
         13    1    3    3    0    0  0.27494988331E+02  0.22714297915E+02 -0.37374907365E+02  0.51660512751E+02  0.10566000000E+00 0. -1.
         22    1    1    0    0    0  0.12913469055E+02 -0.17239955970E+02  0.18548087241E+02  0.28425434124E+02  0.00000000000E+00 0.  1.
</event>
<event>
 5    1  0.1758488E-003  0.9118800E+02  0.7818608E-02  0.1130116E+00
         25   -1    0    0    0    0  0.00000000000E+00  0.00000000000E+00  0.99999998245E-14  0.12500000000E+03  0.12500000000E+03 0.  0.
        -13    1    3    3    0    0 -0.16992910524E+02 -0.35226838165E+02 -0.10805178833E+02  0.40576497986E+02  0.10566000000E+00 0.  1.
         23    2    1    0    0    0  0.26828604390E+02 -0.27856956002E+02 -0.10135520610E+02  0.85018594456E+02  0.75030984360E+02 0.  0.
         13    1    3    3    0    0  0.43821514914E+02  0.73698821627E+01  0.66965822339E+00  0.44442096470E+02  0.10566000000E+00 0. -1.
         22    1    1    0    0    0 -0.26828604390E+02  0.27856956002E+02  0.10135520610E+02  0.39981405544E+02  0.00000000000E+00 0.  1.
</event>
<event>
 5    1  0.1758488E-003  0.9118800E+02  0.7818608E-02  0.1130116E+00
         25   -1    0    0    0    0  0.00000000000E+00  0.00000000000E+00  0.99999998245E-14  0.12500000000E+03  0.12500000000E+03 0.  0.
        -13    1    3    3    0    0  0.31773373655E+02  0.25141727942E+02 -0.38179782741E+02  0.55671902532E+02  0.10566000000E+00 0.  1.
         23    2    1    0    0    0  0.52104631405E+01  0.27647312763E+02 -0.84372478736E+01  0.95628074955E+02  0.91005597293E+02 0.  0.
         13    1    3    3    0    0 -0.26562910515E+02  0.25055848209E+01  0.29742534867E+02  0.39956172423E+02  0.10566000000E+00 0. -1.
         22    1    1    0    0    0 -0.52104631405E+01 -0.27647312763E+02  0.84372478736E+01  0.29371925045E+02  0.00000000000E+00 0.  1.
</event>
<event>
 5    1  0.1758488E-003  0.9118800E+02  0.7818608E-02  0.1130116E+00
         25   -1    0    0    0    0  0.00000000000E+00  0.00000000000E+00  0.99999998245E-14  0.12500000000E+03  0.12500000000E+03 0.  0.
        -13    1    3    3    0    0 -0.48336212626E+02 -0.46242168669E+00 -0.21019554574E+02  0.52710872914E+02  0.10566000000E+00 0.  1.
         23    2    1    0    0    0 -0.98767531294E+01 -0.20810925474E+02 -0.16926955440E+02  0.96413872386E+02  0.92078597386E+02 0.  0.
         13    1    3    3    0    0  0.38459459496E+02 -0.20348503788E+02  0.40925991338E+01  0.43702999472E+02  0.10566000000E+00 0. -1.
         22    1    1    0    0    0  0.98767531294E+01  0.20810925474E+02  0.16926955440E+02  0.28586127614E+02  0.00000000000E+00 0. -1.
</event>
<event>
 5    1  0.1758488E-003  0.9118800E+02  0.7818608E-02  0.1130116E+00
         25   -1    0    0    0    0  0.00000000000E+00  0.00000000000E+00  0.99999998245E-14  0.12500000000E+03  0.12500000000E+03 0.  0.
        -13    1    3    3    0    0  0.35348762032E+02  0.38737732143E+02  0.26360740142E+01  0.52508160499E+02  0.10566000000E+00 0.  1.
         23    2    1    0    0    0  0.23200142299E+02  0.43474676533E+01 -0.18808786083E+02  0.94818589967E+02  0.89886859394E+02 0.  0.
         13    1    3    3    0    0 -0.12148619733E+02 -0.34390264490E+02 -0.21444860097E+02  0.42310429468E+02  0.10566000000E+00 0. -1.
         22    1    1    0    0    0 -0.23200142299E+02 -0.43474676533E+01  0.18808786083E+02  0.30181410033E+02  0.00000000000E+00 0.  1.
</event>
<event>
 5    1  0.1758488E-003  0.9118800E+02  0.7818608E-02  0.1130116E+00
         25   -1    0    0    0    0  0.00000000000E+00  0.00000000000E+00  0.99999998245E-14  0.12500000000E+03  0.12500000000E+03 0.  0.
        -13    1    3    3    0    0 -0.30758536897E+02 -0.13758452759E+02 -0.15200731090E+02  0.36965605690E+02  0.10566000000E+00 0.  1.
         23    2    1    0    0    0  0.27506357368E+01  0.49359707258E+01  0.28974914746E+02  0.95479236316E+02  0.90800931047E+02 0.  0.
         13    1    3    3    0    0  0.33509172633E+02  0.18694423485E+02  0.44175645835E+02  0.58513630626E+02  0.10566000000E+00 0. -1.
         22    1    1    0    0    0 -0.27506357368E+01 -0.49359707258E+01 -0.28974914746E+02  0.29520763684E+02  0.00000000000E+00 0. -1.
</event>
<event>
 5    1  0.1758488E-003  0.9118800E+02  0.7818608E-02  0.1130116E+00
         25   -1    0    0    0    0  0.00000000000E+00  0.00000000000E+00  0.99999998245E-14  0.12500000000E+03  0.12500000000E+03 0.  0.
        -13    1    3    3    0    0  0.30637293337E+02 -0.15338065365E+02 -0.46306214499E+02  0.57603616704E+02  0.10566000000E+00 0.  1.
         23    2    1    0    0    0  0.76580417842E+01 -0.22864636149E+02 -0.17542701108E+02  0.95180819053E+02  0.90389184991E+02 0.  0.
         13    1    3    3    0    0 -0.22979251553E+02 -0.75265707840E+01  0.28763513391E+02  0.37577202349E+02  0.10566000000E+00 0. -1.
         22    1    1    0    0    0 -0.76580417842E+01  0.22864636149E+02  0.17542701108E+02  0.29819180947E+02  0.00000000000E+00 0.  1.
</event>
<event>
 5    1  0.1758488E-003  0.9118800E+02  0.7818608E-02  0.1130116E+00
         25   -1    0    0    0    0  0.00000000000E+00  0.00000000000E+00  0.99999998245E-14  0.12500000000E+03  0.12500000000E+03 0.  0.
        -13    1    3    3    0    0  0.28473462208E+02  0.17883092004E+02  0.46962187549E+01  0.33950090786E+02  0.10566000000E+00 0.  1.
         23    2    1    0    0    0 -0.17723861090E+02 -0.16952681149E+02 -0.16355736806E+02  0.95520536360E+02  0.90857768462E+02 0.  0.
         13    1    3    3    0    0 -0.46197323298E+02 -0.34835773153E+02 -0.21051955561E+02  0.61570445573E+02  0.10566000000E+00 0. -1.
         22    1    1    0    0    0  0.17723861090E+02  0.16952681149E+02  0.16355736806E+02  0.29479463640E+02  0.00000000000E+00 0. -1.
</event>
<event>
 5    1  0.1758488E-003  0.9118800E+02  0.7818608E-02  0.1130116E+00
         25   -1    0    0    0    0  0.00000000000E+00  0.00000000000E+00  0.99999998245E-14  0.12500000000E+03  0.12500000000E+03 0.  0.
        -13    1    3    3    0    0  0.13751078199E+02  0.16770438574E+00 -0.34285583445E+02  0.36940934917E+02  0.10566000000E+00 0.  1.
         23    2    1    0    0    0 -0.26260845991E+02  0.11737202694E+02  0.67964508894E+01  0.95443516719E+02  0.90751744776E+02 0.  0.
         13    1    3    3    0    0 -0.40011924189E+02  0.11569498309E+02  0.41082034334E+02  0.58502581802E+02  0.10566000000E+00 0. -1.
         22    1    1    0    0    0  0.26260845991E+02 -0.11737202694E+02 -0.67964508894E+01  0.29556483281E+02  0.00000000000E+00 0. -1.
</event>
<event>
 5    1  0.1758488E-003  0.9118800E+02  0.7818608E-02  0.1130116E+00
         25   -1    0    0    0    0  0.00000000000E+00  0.00000000000E+00  0.99999998245E-14  0.12500000000E+03  0.12500000000E+03 0.  0.
        -13    1    3    3    0    0 -0.19708131231E+02  0.19475270787E+02  0.23234445413E+02  0.36160022491E+02  0.10566000000E+00 0.  1.
         23    2    1    0    0    0  0.21674870916E+02 -0.19070109733E+02  0.42271388154E+01  0.95822306174E+02  0.91271992108E+02 0.  0.
         13    1    3    3    0    0  0.41383002147E+02 -0.38545380520E+02 -0.19007306597E+02  0.59662283683E+02  0.10566000000E+00 0. -1.
         22    1    1    0    0    0 -0.21674870916E+02  0.19070109733E+02 -0.42271388154E+01  0.29177693826E+02  0.00000000000E+00 0. -1.
</event>
<event>
 5    1  0.1758488E-003  0.9118800E+02  0.7818608E-02  0.1130116E+00
         25   -1    0    0    0    0  0.00000000000E+00  0.00000000000E+00  0.99999998245E-14  0.12500000000E+03  0.12500000000E+03 0.  0.
        -13    1    3    3    0    0  0.18969691862E+02 -0.44334759995E+02  0.28730614049E+02  0.56132695471E+02  0.10566000000E+00 0.  1.
         23    2    1    0    0    0 -0.90014320076E+01 -0.29160320171E+02  0.11007514911E+02  0.92557505719E+02  0.86685502996E+02 0.  0.
         13    1    3    3    0    0 -0.27971123869E+02  0.15174439824E+02 -0.17723099138E+02  0.36424810248E+02  0.10566000000E+00 0. -1.
         22    1    1    0    0    0  0.90014320076E+01  0.29160320171E+02 -0.11007514911E+02  0.32442494281E+02  0.00000000000E+00 0.  1.
</event>
<event>
 5    1  0.1758488E-003  0.9118800E+02  0.7818608E-02  0.1130116E+00
         25   -1    0    0    0    0  0.00000000000E+00  0.00000000000E+00  0.99999998245E-14  0.12500000000E+03  0.12500000000E+03 0.  0.
        -13    1    3    3    0    0 -0.16538081860E+02  0.48585024226E+02 -0.35125573234E+02  0.62191878809E+02  0.10566000000E+00 0. -1.
         23    2    1    0    0    0 -0.60812565998E+01  0.24500312233E+02 -0.12603532200E+02  0.96784826684E+02  0.92580811571E+02 0.  0.
         13    1    3    3    0    0  0.10456825261E+02 -0.24084711993E+02  0.22522041035E+02  0.34592947876E+02  0.10566000000E+00 0.  1.
         22    1    1    0    0    0  0.60812565998E+01 -0.24500312233E+02  0.12603532200E+02  0.28215173316E+02  0.00000000000E+00 0. -1.
</event>
<event>
 5    1  0.1758488E-003  0.9118800E+02  0.7818608E-02  0.1130116E+00
         25   -1    0    0    0    0  0.00000000000E+00  0.00000000000E+00  0.99999998245E-14  0.12500000000E+03  0.12500000000E+03 0.  0.
        -13    1    3    3    0    0 -0.10858298579E+02 -0.49605680771E+02  0.82592303997E+01  0.51447568102E+02  0.10566000000E+00 0.  1.
         23    2    1    0    0    0  0.15429431498E+02 -0.13321766434E+02  0.18570388827E+02  0.97424718343E+02  0.93440781170E+02 0.  0.
         13    1    3    3    0    0  0.26287730077E+02  0.36283914336E+02  0.10311158427E+02  0.45977150241E+02  0.10566000000E+00 0. -1.
         22    1    1    0    0    0 -0.15429431498E+02  0.13321766434E+02 -0.18570388827E+02  0.27575281657E+02  0.00000000000E+00 0.  1.
</event>
<event>
 5    1  0.1758488E-003  0.9118800E+02  0.7818608E-02  0.1130116E+00
         25   -1    0    0    0    0  0.00000000000E+00  0.00000000000E+00  0.99999998245E-14  0.12500000000E+03  0.12500000000E+03 0.  0.
        -13    1    3    3    0    0  0.35853656384E+02  0.20387238418E+02  0.39220737543E+02  0.56915741090E+02  0.10566000000E+00 0. -1.
         23    2    1    0    0    0  0.25895699971E+02  0.14553567194E+02  0.27514154435E+01  0.95167737564E+02  0.90371092674E+02 0.  0.
         13    1    3    3    0    0 -0.99579564132E+01 -0.58336712232E+01 -0.36469322099E+02  0.38251996474E+02  0.10566000000E+00 0.  1.
         22    1    1    0    0    0 -0.25895699971E+02 -0.14553567194E+02 -0.27514154435E+01  0.29832262436E+02  0.00000000000E+00 0. -1.
</event>
<event>
 5    1  0.1758488E-003  0.9118800E+02  0.7818608E-02  0.1130116E+00
         25   -1    0    0    0    0  0.00000000000E+00  0.00000000000E+00  0.99999998245E-14  0.12500000000E+03  0.12500000000E+03 0.  0.
        -13    1    3    3    0    0  0.26557042307E+02  0.22567335088E+02  0.24978801902E+02  0.42877882615E+02  0.10566000000E+00 0. -1.
         23    2    1    0    0    0 -0.13614327900E+02 -0.14515271736E+02  0.18316802231E+02  0.97952850766E+02  0.94144637083E+02 0.  0.
         13    1    3    3    0    0 -0.40171370206E+02 -0.37082606824E+02 -0.66619996711E+01  0.55074968151E+02  0.10566000000E+00 0.  1.
         22    1    1    0    0    0  0.13614327900E+02  0.14515271736E+02 -0.18316802231E+02  0.27047149234E+02  0.00000000000E+00 0.  1.
</event>
<event>
 5    1  0.1758488E-003  0.9118800E+02  0.7818608E-02  0.1130116E+00
         25   -1    0    0    0    0  0.00000000000E+00  0.00000000000E+00  0.99999998245E-14  0.12500000000E+03  0.12500000000E+03 0.  0.
        -13    1    3    3    0    0  0.14279069186E+02  0.46945260630E+01  0.58879038148E+02  0.60767447610E+02  0.10566000000E+00 0. -1.
         23    2    1    0    0    0  0.25928657251E+01  0.11727531863E+02  0.26243702364E+02  0.96138436112E+02  0.91703920462E+02 0.  0.
         13    1    3    3    0    0 -0.11686203461E+02  0.70330057998E+01 -0.32635335784E+02  0.35370988503E+02  0.10566000000E+00 0.  1.
         22    1    1    0    0    0 -0.25928657251E+01 -0.11727531863E+02 -0.26243702364E+02  0.28861563888E+02  0.00000000000E+00 0. -1.
</event>
<event>
 5    1  0.1758488E-003  0.9118800E+02  0.7818608E-02  0.1130116E+00
         25   -1    0    0    0    0  0.00000000000E+00  0.00000000000E+00  0.99999998245E-14  0.12500000000E+03  0.12500000000E+03 0.  0.
        -13    1    3    3    0    0  0.25605091642E+02 -0.12984848909E+02 -0.54581062797E+02  0.61671148841E+02  0.10566000000E+00 0. -1.
         23    2    1    0    0    0  0.18013579928E+02 -0.39236840086E+01 -0.22197367319E+02  0.96145061534E+02  0.91712951013E+02 0.  0.
         13    1    3    3    0    0 -0.75915117148E+01  0.90611649008E+01  0.32383695479E+02  0.34473912693E+02  0.10566000000E+00 0.  1.
         22    1    1    0    0    0 -0.18013579928E+02  0.39236840086E+01  0.22197367319E+02  0.28854938466E+02  0.00000000000E+00 0. -1.
</event>
<event>
 5    1  0.1758488E-003  0.9118800E+02  0.7818608E-02  0.1130116E+00
         25   -1    0    0    0    0  0.00000000000E+00  0.00000000000E+00  0.99999998245E-14  0.12500000000E+03  0.12500000000E+03 0.  0.
        -13    1    3    3    0    0  0.40267551535E+02 -0.52752236268E+01  0.23587729395E+01  0.40680199911E+02  0.10566000000E+00 0.  1.
         23    2    1    0    0    0 -0.96403715478E+01  0.15256548760E+02  0.20568975521E+02  0.97636122394E+02  0.93723159349E+02 0.  0.
         13    1    3    3    0    0 -0.49907923083E+02  0.20531772387E+02  0.18210202582E+02  0.56955922483E+02  0.10566000000E+00 0. -1.
         22    1    1    0    0    0  0.96403715478E+01 -0.15256548760E+02 -0.20568975521E+02  0.27363877606E+02  0.00000000000E+00 0.  1.
</event>
<event>
 5    1  0.1758488E-003  0.9118800E+02  0.7818608E-02  0.1130116E+00
         25   -1    0    0    0    0  0.00000000000E+00  0.00000000000E+00  0.99999998245E-14  0.12500000000E+03  0.12500000000E+03 0.  0.
        -13    1    3    3    0    0  0.33743948626E+02 -0.10020811097E+02  0.18172666901E+02  0.39614741073E+02  0.10566000000E+00 0.  1.
         23    2    1    0    0    0 -0.11293701230E+02  0.24290456143E+02  0.49055034437E+01  0.97766970217E+02  0.93897510906E+02 0.  0.
         13    1    3    3    0    0 -0.45037649856E+02  0.34311267240E+02 -0.13267163458E+02  0.58152229144E+02  0.10566000000E+00 0. -1.
         22    1    1    0    0    0  0.11293701230E+02 -0.24290456143E+02 -0.49055034437E+01  0.27233029783E+02  0.00000000000E+00 0. -1.
</event>
<event>
 5    1  0.1758488E-003  0.9118800E+02  0.7818608E-02  0.1130116E+00
         25   -1    0    0    0    0  0.00000000000E+00  0.00000000000E+00  0.99999998245E-14  0.12500000000E+03  0.12500000000E+03 0.  0.
        -13    1    3    3    0    0 -0.43455701177E+02 -0.37560034810E+02 -0.21732356636E+02  0.61412219214E+02  0.10566000000E+00 0. -1.
         23    2    1    0    0    0 -0.24440582641E+02 -0.16402316665E+02 -0.31343507187E+01  0.95399286728E+02  0.90690802631E+02 0.  0.
         13    1    3    3    0    0  0.19015118537E+02  0.21157718145E+02  0.18598005917E+02  0.33987067514E+02  0.10566000000E+00 0.  1.
         22    1    1    0    0    0  0.24440582641E+02  0.16402316665E+02  0.31343507187E+01  0.29600713272E+02  0.00000000000E+00 0. -1.
</event>
<event>
 5    1  0.1758488E-003  0.9118800E+02  0.7818608E-02  0.1130116E+00
         25   -1    0    0    0    0  0.00000000000E+00  0.00000000000E+00  0.99999998245E-14  0.12500000000E+03  0.12500000000E+03 0.  0.
        -13    1    3    3    0    0  0.35896379714E+01  0.12548078350E+02 -0.39676738033E+02  0.41768342989E+02  0.10566000000E+00 0. -1.
         23    2    1    0    0    0  0.25389734318E+02 -0.13701654440E+02  0.25249451958E+01  0.96038831319E+02  0.91568050267E+02 0.  0.
         13    1    3    3    0    0  0.21800096346E+02 -0.26249732789E+02  0.42201683229E+02  0.54270488330E+02  0.10566000000E+00 0.  1.
         22    1    1    0    0    0 -0.25389734318E+02  0.13701654440E+02 -0.25249451958E+01  0.28961168681E+02  0.00000000000E+00 0. -1.
</event>
<event>
 5    1  0.1758488E-003  0.9118800E+02  0.7818608E-02  0.1130116E+00
         25   -1    0    0    0    0  0.00000000000E+00  0.00000000000E+00  0.99999998245E-14  0.12500000000E+03  0.12500000000E+03 0.  0.
        -13    1    3    3    0    0  0.33049680680E+02 -0.21119315909E+02 -0.16628901803E+02  0.42600920609E+02  0.10566000000E+00 0. -1.
         23    2    1    0    0    0 -0.10567185268E+02 -0.23937481722E+02  0.13372491575E+02  0.95614766181E+02  0.90987315299E+02 0.  0.
         13    1    3    3    0    0 -0.43616865948E+02 -0.28181658128E+01  0.30001393378E+02  0.53013845572E+02  0.10566000000E+00 0.  1.
         22    1    1    0    0    0  0.10567185268E+02  0.23937481722E+02 -0.13372491575E+02  0.29385233819E+02  0.00000000000E+00 0. -1.
</event>
<event>
 5    1  0.1758488E-003  0.9118800E+02  0.7818608E-02  0.1130116E+00
         25   -1    0    0    0    0  0.00000000000E+00  0.00000000000E+00  0.99999998245E-14  0.12500000000E+03  0.12500000000E+03 0.  0.
        -13    1    3    3    0    0  0.32562479489E+02 -0.46281929497E+02  0.68068037661E+01  0.56997156157E+02  0.10566000000E+00 0. -1.
         23    2    1    0    0    0  0.12618183058E+02 -0.15825917343E+02  0.20779552980E+02  0.95991931717E+02  0.91504004991E+02 0.  0.
         13    1    3    3    0    0 -0.19944296431E+02  0.30456012153E+02  0.13972749214E+02  0.38994775561E+02  0.10566000000E+00 0.  1.
         22    1    1    0    0    0 -0.12618183058E+02  0.15825917343E+02 -0.20779552980E+02  0.29008068283E+02  0.00000000000E+00 0. -1.
</event>
<event>
 5    1  0.1758488E-003  0.9118800E+02  0.7818608E-02  0.1130116E+00
         25   -1    0    0    0    0  0.00000000000E+00  0.00000000000E+00  0.99999998245E-14  0.12500000000E+03  0.12500000000E+03 0.  0.
        -13    1    3    3    0    0 -0.11168487555E+02  0.43674527056E+02 -0.98588984189E+01  0.46145514082E+02  0.10566000000E+00 0. -1.
         23    2    1    0    0    0 -0.27898771472E+02 -0.32303344111E+01 -0.71523835209E+01  0.96018400664E+02  0.91540156030E+02 0.  0.
         13    1    3    3    0    0 -0.16730283916E+02 -0.46904861467E+02  0.27065148980E+01  0.49872886582E+02  0.10566000000E+00 0.  1.
         22    1    1    0    0    0  0.27898771472E+02  0.32303344111E+01  0.71523835209E+01  0.28981599336E+02  0.00000000000E+00 0.  1.
</event>
<event>
 5    1  0.1758488E-003  0.9118800E+02  0.7818608E-02  0.1130116E+00
         25   -1    0    0    0    0  0.00000000000E+00  0.00000000000E+00  0.99999998245E-14  0.12500000000E+03  0.12500000000E+03 0.  0.
        -13    1    3    3    0    0 -0.17091719661E+02 -0.24034712464E+02 -0.28059596511E+02  0.40708063140E+02  0.10566000000E+00 0.  1.
         23    2    1    0    0    0  0.10932419644E+02 -0.20263460984E+02  0.18690260771E+02  0.95344452492E+02  0.90615192561E+02 0.  0.
         13    1    3    3    0    0  0.28024139305E+02  0.37712514797E+01  0.46749857282E+02  0.54636389352E+02  0.10566000000E+00 0. -1.
         22    1    1    0    0    0 -0.10932419644E+02  0.20263460984E+02 -0.18690260771E+02  0.29655547508E+02  0.00000000000E+00 0. -1.
</event>
<event>
 5    1  0.1758488E-003  0.9118800E+02  0.7818608E-02  0.1130116E+00
         25   -1    0    0    0    0  0.00000000000E+00  0.00000000000E+00  0.99999998245E-14  0.12500000000E+03  0.12500000000E+03 0.  0.
        -13    1    3    3    0    0 -0.53808032707E+02  0.17463021098E+01 -0.36776085677E+01  0.53961930318E+02  0.10566000000E+00 0.  1.
         23    2    1    0    0    0 -0.18165715853E+02  0.44712649325E+00 -0.23911216108E+02  0.94967693890E+02  0.90093970233E+02 0.  0.
         13    1    3    3    0    0  0.35642316854E+02 -0.12991756165E+01 -0.20233607540E+02  0.41005763572E+02  0.10566000000E+00 0. -1.
         22    1    1    0    0    0  0.18165715853E+02 -0.44712649325E+00  0.23911216108E+02  0.30032306110E+02  0.00000000000E+00 0.  1.
</event>
<event>
 5    1  0.1758488E-003  0.9118800E+02  0.7818608E-02  0.1130116E+00
         25   -1    0    0    0    0  0.00000000000E+00  0.00000000000E+00  0.99999998245E-14  0.12500000000E+03  0.12500000000E+03 0.  0.
        -13    1    3    3    0    0 -0.19480624921E+02  0.32605494957E+02  0.29342973071E+01  0.38095069411E+02  0.10566000000E+00 0. -1.
         23    2    1    0    0    0  0.28736802378E+02  0.16266803745E+01 -0.44314760068E+01  0.95878051584E+02  0.91348305381E+02 0.  0.
         13    1    3    3    0    0  0.48217427299E+02 -0.30978814582E+02 -0.73657733138E+01  0.57782982173E+02  0.10566000000E+00 0.  1.
         22    1    1    0    0    0 -0.28736802378E+02 -0.16266803745E+01  0.44314760068E+01  0.29121948416E+02  0.00000000000E+00 0.  1.
</event>
<event>
 5    1  0.1758488E-003  0.9118800E+02  0.7818608E-02  0.1130116E+00
         25   -1    0    0    0    0  0.00000000000E+00  0.00000000000E+00  0.99999998245E-14  0.12500000000E+03  0.12500000000E+03 0.  0.
        -13    1    3    3    0    0  0.51570572345E+02  0.30505132017E+02 -0.15511685319E+02  0.61892734282E+02  0.10566000000E+00 0.  1.
         23    2    1    0    0    0  0.26703586980E+02  0.87917028793E+01 -0.83370035611E+01  0.95676268562E+02  0.91071769174E+02 0.  0.
         13    1    3    3    0    0 -0.24866985366E+02 -0.21713429138E+02  0.71746817576E+01  0.33783534280E+02  0.10566000000E+00 0. -1.
         22    1    1    0    0    0 -0.26703586980E+02 -0.87917028793E+01  0.83370035611E+01  0.29323731438E+02  0.00000000000E+00 0.  1.
</event>
<event>
 5    1  0.1758488E-003  0.9118800E+02  0.7818608E-02  0.1130116E+00
         25   -1    0    0    0    0  0.00000000000E+00  0.00000000000E+00  0.99999998245E-14  0.12500000000E+03  0.12500000000E+03 0.  0.
        -13    1    3    3    0    0 -0.21440165546E+02  0.55772729339E+02 -0.28808443146E+01  0.59821304437E+02  0.10566000000E+00 0. -1.
         23    2    1    0    0    0 -0.95173201445E+01  0.24711456767E+02  0.11578390826E+02  0.96098536155E+02  0.91649517395E+02 0.  0.
         13    1    3    3    0    0  0.11922845401E+02 -0.31061272572E+02  0.14459235141E+02  0.36277231718E+02  0.10566000000E+00 0.  1.
         22    1    1    0    0    0  0.95173201445E+01 -0.24711456767E+02 -0.11578390826E+02  0.28901463845E+02  0.00000000000E+00 0. -1.
</event>
<event>
 5    1  0.1758488E-003  0.9118800E+02  0.7818608E-02  0.1130116E+00
         25   -1    0    0    0    0  0.00000000000E+00  0.00000000000E+00  0.99999998245E-14  0.12500000000E+03  0.12500000000E+03 0.  0.
        -13    1    3    3    0    0 -0.11771763027E+02  0.40863059211E+02  0.22849559487E+01  0.42586338192E+02  0.10566000000E+00 0. -1.
         23    2    1    0    0    0 -0.16537774665E+02 -0.58397537588E+01 -0.23132060889E+02  0.95970825782E+02  0.91475168463E+02 0.  0.
         13    1    3    3    0    0 -0.47660116381E+01 -0.46702812970E+02 -0.25417016838E+02  0.53384487590E+02  0.10566000000E+00 0.  1.
         22    1    1    0    0    0  0.16537774665E+02  0.58397537588E+01  0.23132060889E+02  0.29029174218E+02  0.00000000000E+00 0.  1.
</event>
<event>
 5    1  0.1758488E-003  0.9118800E+02  0.7818608E-02  0.1130116E+00
         25   -1    0    0    0    0  0.00000000000E+00  0.00000000000E+00  0.99999998245E-14  0.12500000000E+03  0.12500000000E+03 0.  0.
        -13    1    3    3    0    0 -0.51229648843E+02 -0.17983360672E+02  0.11596846321E+02  0.55519151563E+02  0.10566000000E+00 0. -1.
         23    2    1    0    0    0 -0.19188357481E+02 -0.17353583163E+02 -0.13120726769E+02  0.95991494655E+02  0.91503407935E+02 0.  0.
         13    1    3    3    0    0  0.32041291362E+02  0.62977750931E+00 -0.24717573090E+02  0.40472343092E+02  0.10566000000E+00 0.  1.
         22    1    1    0    0    0  0.19188357481E+02  0.17353583163E+02  0.13120726769E+02  0.29008505345E+02  0.00000000000E+00 0. -1.
</event>
<event>
 5    1  0.1758488E-003  0.9118800E+02  0.7818608E-02  0.1130116E+00
         25   -1    0    0    0    0  0.00000000000E+00  0.00000000000E+00  0.99999998245E-14  0.12500000000E+03  0.12500000000E+03 0.  0.
        -13    1    3    3    0    0  0.15655866603E+02 -0.56572076908E+02 -0.85102750004E+01  0.59312241480E+02  0.10566000000E+00 0.  1.
         23    2    1    0    0    0 -0.34494301370E+01 -0.28998361241E+02  0.48056200737E+01  0.95404434332E+02  0.90697897346E+02 0.  0.
         13    1    3    3    0    0 -0.19105296740E+02  0.27573715667E+02  0.13315895074E+02  0.36092192852E+02  0.10566000000E+00 0. -1.
         22    1    1    0    0    0  0.34494301370E+01  0.28998361241E+02 -0.48056200737E+01  0.29595565668E+02  0.00000000000E+00 0.  1.
</event>
<event>
 5    1  0.1758488E-003  0.9118800E+02  0.7818608E-02  0.1130116E+00
         25   -1    0    0    0    0  0.00000000000E+00  0.00000000000E+00  0.99999998245E-14  0.12500000000E+03  0.12500000000E+03 0.  0.
        -13    1    3    3    0    0 -0.45658724050E+02  0.19522039845E+02  0.10263549524E+02  0.50706811519E+02  0.10566000000E+00 0.  1.
         23    2    1    0    0    0 -0.29464729575E+02 -0.12734929462E+02 -0.90586673479E+01  0.91647216437E+02  0.85362779413E+02 0.  0.
         13    1    3    3    0    0  0.16193994475E+02 -0.32256969307E+02 -0.19322216872E+02  0.40940404918E+02  0.10566000000E+00 0. -1.
         22    1    1    0    0    0  0.29464729575E+02  0.12734929462E+02  0.90586673479E+01  0.33352783563E+02  0.00000000000E+00 0.  1.
</event>
<event>
 5    1  0.1758488E-003  0.9118800E+02  0.7818608E-02  0.1130116E+00
         25   -1    0    0    0    0  0.00000000000E+00  0.00000000000E+00  0.99999998245E-14  0.12500000000E+03  0.12500000000E+03 0.  0.
        -13    1    3    3    0    0  0.23296583813E+02 -0.13326556850E+02  0.53504405409E+02  0.59858671026E+02  0.10566000000E+00 0.  1.
         23    2    1    0    0    0  0.58107966533E+01  0.50539168615E+01  0.28494658339E+02  0.95483005111E+02  0.90806119165E+02 0.  0.
         13    1    3    3    0    0 -0.17485787160E+02  0.18380473711E+02 -0.25009747070E+02  0.35624334085E+02  0.10566000000E+00 0. -1.
         22    1    1    0    0    0 -0.58107966533E+01 -0.50539168615E+01 -0.28494658339E+02  0.29516994889E+02  0.00000000000E+00 0.  1.
</event>
<event>
 5    1  0.1758488E-003  0.9118800E+02  0.7818608E-02  0.1130116E+00
         25   -1    0    0    0    0  0.00000000000E+00  0.00000000000E+00  0.99999998245E-14  0.12500000000E+03  0.12500000000E+03 0.  0.
        -13    1    3    3    0    0  0.21991737447E+02 -0.27061837212E+02  0.17722515533E+02  0.39116214925E+02  0.10566000000E+00 0. -1.
         23    2    1    0    0    0 -0.19079313077E+02  0.11096342628E+02  0.19987385836E+02  0.95223421960E+02  0.90448081738E+02 0.  0.
         13    1    3    3    0    0 -0.41071050523E+02  0.38158179840E+02  0.22648703027E+01  0.56107207035E+02  0.10566000000E+00 0.  1.
         22    1    1    0    0    0  0.19079313077E+02 -0.11096342628E+02 -0.19987385836E+02  0.29776578040E+02  0.00000000000E+00 0.  1.
</event>
<event>
 5    1  0.1758488E-003  0.9118800E+02  0.7818608E-02  0.1130116E+00
         25   -1    0    0    0    0  0.00000000000E+00  0.00000000000E+00  0.99999998245E-14  0.12500000000E+03  0.12500000000E+03 0.  0.
        -13    1    3    3    0    0  0.43734920635E+02 -0.38448243934E+02  0.12402573249E+02  0.59538607070E+02  0.10566000000E+00 0.  1.
         23    2    1    0    0    0  0.11383982456E+02 -0.25127477695E+02  0.12942029662E+02  0.94529008489E+02  0.89483250513E+02 0.  0.
         13    1    3    3    0    0 -0.32350938179E+02  0.13320766239E+02  0.53945641375E+00  0.34990401420E+02  0.10566000000E+00 0. -1.
         22    1    1    0    0    0 -0.11383982456E+02  0.25127477695E+02 -0.12942029662E+02  0.30470991511E+02  0.00000000000E+00 0.  1.
</event>
<event>
 5    1  0.1758488E-003  0.9118800E+02  0.7818608E-02  0.1130116E+00
         25   -1    0    0    0    0  0.00000000000E+00  0.00000000000E+00  0.99999998245E-14  0.12500000000E+03  0.12500000000E+03 0.  0.
        -13    1    3    3    0    0  0.33236093977E+02 -0.43884215595E+02  0.14915990168E+02  0.57034728438E+02  0.10566000000E+00 0. -1.
         23    2    1    0    0    0  0.21782225520E+02 -0.68809039935E+01  0.18034669373E+02  0.95895679225E+02  0.91372423665E+02 0.  0.
         13    1    3    3    0    0 -0.11453868457E+02  0.37003311602E+02  0.31186792048E+01  0.38860950788E+02  0.10566000000E+00 0.  1.
         22    1    1    0    0    0 -0.21782225520E+02  0.68809039935E+01 -0.18034669373E+02  0.29104320775E+02  0.00000000000E+00 0. -1.
</event>
<event>
 5    1  0.1758488E-003  0.9118800E+02  0.7818608E-02  0.1130116E+00
         25   -1    0    0    0    0  0.00000000000E+00  0.00000000000E+00  0.99999998245E-14  0.12500000000E+03  0.12500000000E+03 0.  0.
        -13    1    3    3    0    0 -0.12141776201E+02 -0.57323041031E+02  0.15762406764E+02  0.60677989365E+02  0.10566000000E+00 0.  1.
         23    2    1    0    0    0 -0.14125705791E+02 -0.22755705610E+02  0.12461638518E+02  0.95459347731E+02  0.90773547539E+02 0.  0.
         13    1    3    3    0    0 -0.19839295898E+01  0.34567335421E+02 -0.33007682453E+01  0.34781358366E+02  0.10566000000E+00 0. -1.
         22    1    1    0    0    0  0.14125705791E+02  0.22755705610E+02 -0.12461638518E+02  0.29540652269E+02  0.00000000000E+00 0.  1.
</event>
<event>
 5    1  0.1758488E-003  0.9118800E+02  0.7818608E-02  0.1130116E+00
         25   -1    0    0    0    0  0.00000000000E+00  0.00000000000E+00  0.99999998245E-14  0.12500000000E+03  0.12500000000E+03 0.  0.
        -13    1    3    3    0    0  0.21758259981E+02 -0.21386526281E+02  0.50541549359E+02  0.59036130966E+02  0.10566000000E+00 0. -1.
         23    2    1    0    0    0  0.10658097843E+02  0.42664512273E+01  0.27286467429E+02  0.95396808272E+02  0.90687386488E+02 0.  0.
         13    1    3    3    0    0 -0.11100162139E+02  0.25652977509E+02 -0.23255081930E+02  0.36360677306E+02  0.10566000000E+00 0.  1.
         22    1    1    0    0    0 -0.10658097843E+02 -0.42664512273E+01 -0.27286467429E+02  0.29603191728E+02  0.00000000000E+00 0. -1.
</event>
<event>
 5    1  0.1758488E-003  0.9118800E+02  0.7818608E-02  0.1130116E+00
         25   -1    0    0    0    0  0.00000000000E+00  0.00000000000E+00  0.99999998245E-14  0.12500000000E+03  0.12500000000E+03 0.  0.
        -13    1    3    3    0    0 -0.41613983281E+00  0.25943232216E+02 -0.53082635200E+02  0.59084700168E+02  0.10566000000E+00 0.  1.
         23    2    1    0    0    0  0.10160912411E+02  0.51182396212E+01 -0.33682156336E+02  0.89448232487E+02  0.82079584074E+02 0.  0.
         13    1    3    3    0    0  0.10577052244E+02 -0.20824992594E+02  0.19400478863E+02  0.30363532319E+02  0.10566000000E+00 0. -1.
         22    1    1    0    0    0 -0.10160912411E+02 -0.51182396212E+01  0.33682156336E+02  0.35551767513E+02  0.00000000000E+00 0.  1.
</event>
<event>
 5    1  0.1758488E-003  0.9118800E+02  0.7818608E-02  0.1130116E+00
         25   -1    0    0    0    0  0.00000000000E+00  0.00000000000E+00  0.99999998245E-14  0.12500000000E+03  0.12500000000E+03 0.  0.
        -13    1    3    3    0    0  0.50156865991E+01 -0.27224594704E+01  0.39429637377E+02  0.39840637110E+02  0.10566000000E+00 0. -1.
         23    2    1    0    0    0 -0.18758805374E+02  0.23310706954E+02 -0.29106638182E+01  0.94937501740E+02  0.90052070687E+02 0.  0.
         13    1    3    3    0    0 -0.23774491973E+02  0.26033166425E+02 -0.42340301195E+02  0.55096864630E+02  0.10566000000E+00 0.  1.
         22    1    1    0    0    0  0.18758805374E+02 -0.23310706954E+02  0.29106638182E+01  0.30062498260E+02  0.00000000000E+00 0.  1.
</event>
<event>
 5    1  0.1758488E-003  0.9118800E+02  0.7818608E-02  0.1130116E+00
         25   -1    0    0    0    0  0.00000000000E+00  0.00000000000E+00  0.99999998245E-14  0.12500000000E+03  0.12500000000E+03 0.  0.
        -13    1    3    3    0    0  0.91934285382E+00  0.39411886329E+02 -0.89805685077E+01  0.40432706440E+02  0.10566000000E+00 0.  1.
         23    2    1    0    0    0  0.18716163497E+02 -0.15219244255E+02 -0.12175656845E+02  0.97978401392E+02  0.94178555669E+02 0.  0.
         13    1    3    3    0    0  0.17796820643E+02 -0.54631130585E+02 -0.31950883371E+01  0.57545694952E+02  0.10566000000E+00 0. -1.
         22    1    1    0    0    0 -0.18716163497E+02  0.15219244255E+02  0.12175656845E+02  0.27021598608E+02  0.00000000000E+00 0. -1.
</event>
<event>
 5    1  0.1758488E-003  0.9118800E+02  0.7818608E-02  0.1130116E+00
         25   -1    0    0    0    0  0.00000000000E+00  0.00000000000E+00  0.99999998245E-14  0.12500000000E+03  0.12500000000E+03 0.  0.
        -13    1    3    3    0    0  0.46991173213E+02  0.22483955554E+02  0.29822894379E+02  0.60025951142E+02  0.10566000000E+00 0. -1.
         23    2    1    0    0    0  0.17759928410E+02  0.44413398485E+01  0.23916340408E+02  0.94881369631E+02  0.89974120767E+02 0.  0.
         13    1    3    3    0    0 -0.29231244803E+02 -0.18042615705E+02 -0.59065539714E+01  0.34855418489E+02  0.10566000000E+00 0.  1.
         22    1    1    0    0    0 -0.17759928410E+02 -0.44413398485E+01 -0.23916340408E+02  0.30118630369E+02  0.00000000000E+00 0. -1.
</event>
<event>
 5    1  0.1758488E-003  0.9118800E+02  0.7818608E-02  0.1130116E+00
         25   -1    0    0    0    0  0.00000000000E+00  0.00000000000E+00  0.99999998245E-14  0.12500000000E+03  0.12500000000E+03 0.  0.
        -13    1    3    3    0    0  0.27367128621E+02 -0.46367247531E+02 -0.53119503953E+01  0.54102766598E+02  0.10566000000E+00 0. -1.
         23    2    1    0    0    0  0.25895469890E+02 -0.53205455861E+01 -0.12428301162E+02  0.95787909422E+02  0.91224872461E+02 0.  0.
         13    1    3    3    0    0 -0.14716587317E+01  0.41046701945E+02 -0.71163507672E+01  0.41685142824E+02  0.10566000000E+00 0.  1.
         22    1    1    0    0    0 -0.25895469890E+02  0.53205455861E+01  0.12428301162E+02  0.29212090578E+02  0.00000000000E+00 0. -1.
</event>
<event>
 5    1  0.1758488E-003  0.9118800E+02  0.7818608E-02  0.1130116E+00
         25   -1    0    0    0    0  0.00000000000E+00  0.00000000000E+00  0.99999998245E-14  0.12500000000E+03  0.12500000000E+03 0.  0.
        -13    1    3    3    0    0 -0.14726765953E+01  0.19799162249E+02 -0.31602807420E+02  0.37321899777E+02  0.10566000000E+00 0.  1.
         23    2    1    0    0    0  0.18295768152E+02 -0.23413328521E+02  0.15213492165E+01  0.95247124708E+02  0.90480833202E+02 0.  0.
         13    1    3    3    0    0  0.19768444748E+02 -0.43212490770E+02  0.33124156637E+02  0.57925224930E+02  0.10566000000E+00 0. -1.
         22    1    1    0    0    0 -0.18295768152E+02  0.23413328521E+02 -0.15213492165E+01  0.29752875292E+02  0.00000000000E+00 0. -1.
</event>
<event>
 5    1  0.1758488E-003  0.9118800E+02  0.7818608E-02  0.1130116E+00
         25   -1    0    0    0    0  0.00000000000E+00  0.00000000000E+00  0.99999998245E-14  0.12500000000E+03  0.12500000000E+03 0.  0.
        -13    1    3    3    0    0  0.28781752891E+02  0.60893422218E+01 -0.17177250216E+02  0.34066676932E+02  0.10566000000E+00 0. -1.
         23    2    1    0    0    0 -0.28883256413E+02 -0.70760217125E+01 -0.16640770389E+01  0.95216082584E+02  0.90437938090E+02 0.  0.
         13    1    3    3    0    0 -0.57665009303E+02 -0.13165363934E+02  0.15513173178E+02  0.61149405652E+02  0.10566000000E+00 0.  1.
         22    1    1    0    0    0  0.28883256413E+02  0.70760217125E+01  0.16640770389E+01  0.29783917416E+02  0.00000000000E+00 0.  1.
</event>
<event>
 5    1  0.1758488E-003  0.9118800E+02  0.7818608E-02  0.1130116E+00
         25   -1    0    0    0    0  0.00000000000E+00  0.00000000000E+00  0.99999998245E-14  0.12500000000E+03  0.12500000000E+03 0.  0.
        -13    1    3    3    0    0 -0.42771662613E+02  0.63331624138E+00 -0.35438724147E+02  0.55549352339E+02  0.10566000000E+00 0.  1.
         23    2    1    0    0    0 -0.29619647216E+02  0.40248170678E+01  0.16657565136E+01  0.95061773626E+02  0.90224405826E+02 0.  0.
         13    1    3    3    0    0  0.13152015397E+02  0.33915008264E+01  0.37104480660E+02  0.39512421287E+02  0.10566000000E+00 0. -1.
         22    1    1    0    0    0  0.29619647216E+02 -0.40248170678E+01 -0.16657565136E+01  0.29938226374E+02  0.00000000000E+00 0.  1.
</event>
<event>
 5    1  0.1758488E-003  0.9118800E+02  0.7818608E-02  0.1130116E+00
         25   -1    0    0    0    0  0.00000000000E+00  0.00000000000E+00  0.99999998245E-14  0.12500000000E+03  0.12500000000E+03 0.  0.
        -13    1    3    3    0    0  0.50390204487E+02 -0.27471364703E+02 -0.18271530609E+02  0.60230462241E+02  0.10566000000E+00 0. -1.
         23    2    1    0    0    0  0.20057601128E+02 -0.21604503699E+02 -0.12737990790E+01  0.95492636391E+02  0.90819376224E+02 0.  0.
         13    1    3    3    0    0 -0.30332603359E+02  0.58668610043E+01  0.16997731531E+02  0.35262174150E+02  0.10566000000E+00 0.  1.
         22    1    1    0    0    0 -0.20057601128E+02  0.21604503699E+02  0.12737990790E+01  0.29507363609E+02  0.00000000000E+00 0. -1.
</event>
<event>
 5    1  0.1758488E-003  0.9118800E+02  0.7818608E-02  0.1130116E+00
         25   -1    0    0    0    0  0.00000000000E+00  0.00000000000E+00  0.99999998245E-14  0.12500000000E+03  0.12500000000E+03 0.  0.
        -13    1    3    3    0    0 -0.53170911341E+02  0.69646261251E+01  0.25115436020E+02  0.59215269318E+02  0.10566000000E+00 0. -1.
         23    2    1    0    0    0 -0.19920486387E+02  0.14998117815E+02  0.18237132073E+02  0.94107245151E+02  0.88892132879E+02 0.  0.
         13    1    3    3    0    0  0.33250424954E+02  0.80334916895E+01 -0.68783039471E+01  0.34891975833E+02  0.10566000000E+00 0.  1.
         22    1    1    0    0    0  0.19920486387E+02 -0.14998117815E+02 -0.18237132073E+02  0.30892754849E+02  0.00000000000E+00 0. -1.
</event>
<event>
 5    1  0.1758488E-003  0.9118800E+02  0.7818608E-02  0.1130116E+00
         25   -1    0    0    0    0  0.00000000000E+00  0.00000000000E+00  0.99999998245E-14  0.12500000000E+03  0.12500000000E+03 0.  0.
        -13    1    3    3    0    0  0.21738572852E+00  0.22459652876E+02  0.22611146313E+02  0.31870964302E+02  0.10566000000E+00 0. -1.
         23    2    1    0    0    0 -0.17012660766E+02 -0.30275113067E+02  0.11202417788E+02  0.88510175913E+02  0.80638353023E+02 0.  0.
         13    1    3    3    0    0 -0.17230046495E+02 -0.52734765944E+02 -0.11408728526E+02  0.56639211612E+02  0.10566000000E+00 0.  1.
         22    1    1    0    0    0  0.17012660766E+02  0.30275113067E+02 -0.11202417788E+02  0.36489824087E+02  0.00000000000E+00 0.  1.
</event>
<event>
 5    1  0.1758488E-003  0.9118800E+02  0.7818608E-02  0.1130116E+00
         25   -1    0    0    0    0  0.00000000000E+00  0.00000000000E+00  0.99999998245E-14  0.12500000000E+03  0.12500000000E+03 0.  0.
        -13    1    3    3    0    0  0.33042028371E+02  0.31667301174E+02 -0.30038686686E+02  0.54744200281E+02  0.10566000000E+00 0. -1.
         23    2    1    0    0    0 -0.43242640153E+01  0.20822452926E+02 -0.21858104498E+02  0.94503270054E+02  0.89447289023E+02 0.  0.
         13    1    3    3    0    0 -0.37366292387E+02 -0.10844848248E+02  0.81805821878E+01  0.39759069773E+02  0.10566000000E+00 0.  1.
         22    1    1    0    0    0  0.43242640153E+01 -0.20822452926E+02  0.21858104498E+02  0.30496729946E+02  0.00000000000E+00 0. -1.
</event>
<event>
 5    1  0.1758488E-003  0.9118800E+02  0.7818608E-02  0.1130116E+00
         25   -1    0    0    0    0  0.00000000000E+00  0.00000000000E+00  0.99999998245E-14  0.12500000000E+03  0.12500000000E+03 0.  0.
        -13    1    3    3    0    0 -0.31958103086E+02  0.46740595806E+02  0.86911964799E+01  0.57284829662E+02  0.10566000000E+00 0.  1.
         23    2    1    0    0    0 -0.21912849348E+02  0.72584491988E+01  0.13420501614E+02  0.98298540960E+02  0.94602511806E+02 0.  0.
         13    1    3    3    0    0  0.10045253738E+02 -0.39482146607E+02  0.47293051339E+01  0.41013711298E+02  0.10566000000E+00 0. -1.
         22    1    1    0    0    0  0.21912849348E+02 -0.72584491988E+01 -0.13420501614E+02  0.26701459040E+02  0.00000000000E+00 0.  1.
</event>
<event>
 5    1  0.1758488E-003  0.9118800E+02  0.7818608E-02  0.1130116E+00
         25   -1    0    0    0    0  0.00000000000E+00  0.00000000000E+00  0.99999998245E-14  0.12500000000E+03  0.12500000000E+03 0.  0.
        -13    1    3    3    0    0  0.48369165030E+02 -0.33770923965E+02 -0.79870518188E+01  0.59530291381E+02  0.10566000000E+00 0. -1.
         23    2    1    0    0    0  0.14698557695E+02 -0.22565271355E+02  0.55369543620E+01  0.97506420145E+02  0.93550013556E+02 0.  0.
         13    1    3    3    0    0 -0.33670607335E+02  0.11205652610E+02  0.13524006181E+02  0.37976128765E+02  0.10566000000E+00 0.  1.
         22    1    1    0    0    0 -0.14698557695E+02  0.22565271355E+02 -0.55369543620E+01  0.27493579855E+02  0.00000000000E+00 0. -1.
</event>
<event>
 5    1  0.1758488E-003  0.9118800E+02  0.7818608E-02  0.1130116E+00
         25   -1    0    0    0    0  0.00000000000E+00  0.00000000000E+00  0.99999998245E-14  0.12500000000E+03  0.12500000000E+03 0.  0.
        -13    1    3    3    0    0  0.11425261065E+02  0.35221186917E+01 -0.50715826975E+02  0.52106124211E+02  0.10566000000E+00 0.  1.
         23    2    1    0    0    0 -0.19885954409E+02  0.63778303781E+01 -0.18969935265E+02  0.96786770000E+02  0.92583435344E+02 0.  0.
         13    1    3    3    0    0 -0.31311215473E+02  0.28557116864E+01  0.31745891710E+02  0.44680645789E+02  0.10566000000E+00 0. -1.
         22    1    1    0    0    0  0.19885954409E+02 -0.63778303781E+01  0.18969935265E+02  0.28213230000E+02  0.00000000000E+00 0.  1.
</event>
<event>
 5    1  0.1758488E-003  0.9118800E+02  0.7818608E-02  0.1130116E+00
         25   -1    0    0    0    0  0.00000000000E+00  0.00000000000E+00  0.99999998245E-14  0.12500000000E+03  0.12500000000E+03 0.  0.
        -13    1    3    3    0    0  0.46946386125E+01  0.36169437757E+02 -0.62875360488E+01  0.37010973142E+02  0.10566000000E+00 0. -1.
         23    2    1    0    0    0 -0.32170099936E+02  0.38410614781E+01  0.13521113509E+02  0.89893168846E+02  0.82754409015E+02 0.  0.
         13    1    3    3    0    0 -0.36864738548E+02 -0.32328376279E+02  0.19808649558E+02  0.52882195703E+02  0.10566000000E+00 0.  1.
         22    1    1    0    0    0  0.32170099936E+02 -0.38410614781E+01 -0.13521113509E+02  0.35106831154E+02  0.00000000000E+00 0.  1.
</event>
<event>
 5    1  0.1758488E-003  0.9118800E+02  0.7818608E-02  0.1130116E+00
         25   -1    0    0    0    0  0.00000000000E+00  0.00000000000E+00  0.99999998245E-14  0.12500000000E+03  0.12500000000E+03 0.  0.
        -13    1    3    3    0    0  0.13025453946E+02 -0.32596056398E+02  0.14403142695E+02  0.37942417250E+02  0.10566000000E+00 0. -1.
         23    2    1    0    0    0 -0.34521402826E+01  0.23801011269E+02  0.14916537933E+02  0.96699672902E+02  0.92465767857E+02 0.  0.
         13    1    3    3    0    0 -0.16477594228E+02  0.56397067668E+02  0.51339523796E+00  0.58757255652E+02  0.10566000000E+00 0.  1.
         22    1    1    0    0    0  0.34521402826E+01 -0.23801011269E+02 -0.14916537933E+02  0.28300327098E+02  0.00000000000E+00 0.  1.
</event>
<event>
 5    1  0.1758488E-003  0.9118800E+02  0.7818608E-02  0.1130116E+00
         25   -1    0    0    0    0  0.00000000000E+00  0.00000000000E+00  0.99999998245E-14  0.12500000000E+03  0.12500000000E+03 0.  0.
        -13    1    3    3    0    0  0.63192697500E+01 -0.29201812598E+01  0.39652127288E+02  0.40258700815E+02  0.10566000000E+00 0.  1.
         23    2    1    0    0    0 -0.10824798102E+02 -0.27424675927E+02 -0.60746969768E+01  0.94896992724E+02  0.89995823132E+02 0.  0.
         13    1    3    3    0    0 -0.17144067852E+02 -0.24504494668E+02 -0.45726824265E+02  0.54638291910E+02  0.10566000000E+00 0. -1.
         22    1    1    0    0    0  0.10824798102E+02  0.27424675927E+02  0.60746969768E+01  0.30103007276E+02  0.00000000000E+00 0. -1.
</event>
<event>
 5    1  0.1758488E-003  0.9118800E+02  0.7818608E-02  0.1130116E+00
         25   -1    0    0    0    0  0.00000000000E+00  0.00000000000E+00  0.99999998245E-14  0.12500000000E+03  0.12500000000E+03 0.  0.
        -13    1    3    3    0    0 -0.31668425989E+02  0.18876765565E+02  0.18708376095E+02  0.41342907287E+02  0.10566000000E+00 0.  1.
         23    2    1    0    0    0  0.20458384022E+02  0.20892111876E+02  0.44480161378E+01  0.95422801637E+02  0.90723207666E+02 0.  0.
         13    1    3    3    0    0  0.52126810012E+02  0.20153463106E+01 -0.14260359957E+02  0.54079894350E+02  0.10566000000E+00 0. -1.
         22    1    1    0    0    0 -0.20458384022E+02 -0.20892111876E+02 -0.44480161378E+01  0.29577198363E+02  0.00000000000E+00 0. -1.
</event>
<event>
 5    1  0.1758488E-003  0.9118800E+02  0.7818608E-02  0.1130116E+00
         25   -1    0    0    0    0  0.00000000000E+00  0.00000000000E+00  0.99999998245E-14  0.12500000000E+03  0.12500000000E+03 0.  0.
        -13    1    3    3    0    0  0.23598747038E+02  0.34042535019E+02 -0.11113697020E+02  0.42887299725E+02  0.10566000000E+00 0.  1.
         23    2    1    0    0    0  0.28614052570E-01  0.20726676686E+02  0.27819981856E+02  0.90307820252E+02  0.83378384866E+02 0.  0.
         13    1    3    3    0    0 -0.23570132985E+02 -0.13315858332E+02  0.38933678876E+02  0.47420520526E+02  0.10566000000E+00 0. -1.
         22    1    1    0    0    0 -0.28614052570E-01 -0.20726676686E+02 -0.27819981856E+02  0.34692179748E+02  0.00000000000E+00 0.  1.
</event>
<event>
 5    1  0.1758488E-003  0.9118800E+02  0.7818608E-02  0.1130116E+00
         25   -1    0    0    0    0  0.00000000000E+00  0.00000000000E+00  0.99999998245E-14  0.12500000000E+03  0.12500000000E+03 0.  0.
        -13    1    3    3    0    0  0.24728203058E+01  0.24223494517E+01  0.37430999511E+02  0.37590869976E+02  0.10566000000E+00 0. -1.
         23    2    1    0    0    0 -0.18896391508E+02  0.28827727699E+02 -0.30034893932E+01  0.90400398198E+02  0.83517061427E+02 0.  0.
         13    1    3    3    0    0 -0.21369211814E+02  0.26405378247E+02 -0.40434488905E+02  0.52809528221E+02  0.10566000000E+00 0.  1.
         22    1    1    0    0    0  0.18896391508E+02 -0.28827727699E+02  0.30034893932E+01  0.34599601802E+02  0.00000000000E+00 0.  1.
</event>
<event>
 5    1  0.1758488E-003  0.9118800E+02  0.7818608E-02  0.1130116E+00
         25   -1    0    0    0    0  0.00000000000E+00  0.00000000000E+00  0.99999998245E-14  0.12500000000E+03  0.12500000000E+03 0.  0.
        -13    1    3    3    0    0  0.25354238516E+02 -0.39527293225E+02 -0.18974782705E+02  0.50648769612E+02  0.10566000000E+00 0. -1.
         23    2    1    0    0    0 -0.64712265138E+01 -0.39533186077E+02 -0.10976700666E+02  0.83464021241E+02  0.72394787866E+02 0.  0.
         13    1    3    3    0    0 -0.31825465030E+02 -0.58928516738E-02  0.79980820391E+01  0.32815251629E+02  0.10566000000E+00 0.  1.
         22    1    1    0    0    0  0.64712265138E+01  0.39533186077E+02  0.10976700666E+02  0.41535978759E+02  0.00000000000E+00 0.  1.
</event>
<event>
 5    1  0.1758488E-003  0.9118800E+02  0.7818608E-02  0.1130116E+00
         25   -1    0    0    0    0  0.00000000000E+00  0.00000000000E+00  0.99999998245E-14  0.12500000000E+03  0.12500000000E+03 0.  0.
        -13    1    3    3    0    0 -0.98125393330E+01 -0.23777392495E+02 -0.54575170816E+02  0.60333330387E+02  0.10566000000E+00 0.  1.
         23    2    1    0    0    0 -0.15453195121E+02 -0.10508612488E+02 -0.20910400218E+02  0.96955802505E+02  0.92811371212E+02 0.  0.
         13    1    3    3    0    0 -0.56406557876E+01  0.13268780007E+02  0.33664770598E+02  0.36622472118E+02  0.10566000000E+00 0. -1.
         22    1    1    0    0    0  0.15453195121E+02  0.10508612488E+02  0.20910400218E+02  0.28044197495E+02  0.00000000000E+00 0.  1.
</event>
<event>
 5    1  0.1758488E-003  0.9118800E+02  0.7818608E-02  0.1130116E+00
         25   -1    0    0    0    0  0.00000000000E+00  0.00000000000E+00  0.99999998245E-14  0.12500000000E+03  0.12500000000E+03 0.  0.
        -13    1    3    3    0    0  0.26289724710E+02 -0.47885925308E+02  0.74809420389E+01  0.55137891923E+02  0.10566000000E+00 0. -1.
         23    2    1    0    0    0 -0.83878344072E+01 -0.27381720951E+02 -0.11545918921E+01  0.96339094733E+02  0.91977028019E+02 0.  0.
         13    1    3    3    0    0 -0.34677559117E+02  0.20504204357E+02 -0.86355339310E+01  0.41201202809E+02  0.10566000000E+00 0.  1.
         22    1    1    0    0    0  0.83878344072E+01  0.27381720951E+02  0.11545918921E+01  0.28660905267E+02  0.00000000000E+00 0. -1.
</event>
<event>
 5    1  0.1758488E-003  0.9118800E+02  0.7818608E-02  0.1130116E+00
         25   -1    0    0    0    0  0.00000000000E+00  0.00000000000E+00  0.99999998245E-14  0.12500000000E+03  0.12500000000E+03 0.  0.
        -13    1    3    3    0    0  0.34211394570E+02 -0.13754358147E+02 -0.39144146398E+02  0.53776177326E+02  0.10566000000E+00 0.  1.
         23    2    1    0    0    0 -0.59664085735E+01 -0.44591901700E+01 -0.27328439521E+02  0.96674640075E+02  0.92431920994E+02 0.  0.
         13    1    3    3    0    0 -0.40177803144E+02  0.92951679770E+01  0.11815706877E+02  0.42898462749E+02  0.10566000000E+00 0. -1.
         22    1    1    0    0    0  0.59664085735E+01  0.44591901700E+01  0.27328439521E+02  0.28325359925E+02  0.00000000000E+00 0.  1.
</event>
<event>
 5    1  0.1758488E-003  0.9118800E+02  0.7818608E-02  0.1130116E+00
         25   -1    0    0    0    0  0.00000000000E+00  0.00000000000E+00  0.99999998245E-14  0.12500000000E+03  0.12500000000E+03 0.  0.
        -13    1    3    3    0    0 -0.11743031569E+02 -0.19639740252E+02  0.18951921250E+02  0.29712029057E+02  0.10566000000E+00 0. -1.
         23    2    1    0    0    0  0.26950324526E+02  0.38613145373E+01 -0.21410969944E+02  0.90363900682E+02  0.83462417713E+02 0.  0.
         13    1    3    3    0    0  0.38693356096E+02  0.23501054789E+02 -0.40362891193E+02  0.60651871625E+02  0.10566000000E+00 0.  1.
         22    1    1    0    0    0 -0.26950324526E+02 -0.38613145373E+01  0.21410969944E+02  0.34636099318E+02  0.00000000000E+00 0.  1.
</event>
<event>
 5    1  0.1758488E-003  0.9118800E+02  0.7818608E-02  0.1130116E+00
         25   -1    0    0    0    0  0.00000000000E+00  0.00000000000E+00  0.99999998245E-14  0.12500000000E+03  0.12500000000E+03 0.  0.
        -13    1    3    3    0    0 -0.82477574668E+00 -0.62157489901E+01  0.35986935473E+02  0.36529255115E+02  0.10566000000E+00 0.  1.
         23    2    1    0    0    0 -0.20211291740E+02 -0.36971634243E+01 -0.20301180479E+02  0.96115691803E+02  0.91672912851E+02 0.  0.
         13    1    3    3    0    0 -0.19386515994E+02  0.25185855658E+01 -0.56288115952E+02  0.59586436687E+02  0.10566000000E+00 0. -1.
         22    1    1    0    0    0  0.20211291740E+02  0.36971634243E+01  0.20301180479E+02  0.28884308197E+02  0.00000000000E+00 0. -1.
</event>
<event>
 5    1  0.1758488E-003  0.9118800E+02  0.7818608E-02  0.1130116E+00
         25   -1    0    0    0    0  0.00000000000E+00  0.00000000000E+00  0.99999998245E-14  0.12500000000E+03  0.12500000000E+03 0.  0.
        -13    1    3    3    0    0 -0.19821803944E+02  0.26070792108E+02  0.13965395179E+02  0.35603841636E+02  0.10566000000E+00 0. -1.
         23    2    1    0    0    0 -0.85266060317E+01 -0.97775281566E+01 -0.29324685435E+02  0.92933814646E+02  0.87226450470E+02 0.  0.
         13    1    3    3    0    0  0.11295197912E+02 -0.35848320265E+02 -0.43290080614E+02  0.57329973010E+02  0.10566000000E+00 0.  1.
         22    1    1    0    0    0  0.85266060317E+01  0.97775281566E+01  0.29324685435E+02  0.32066185354E+02  0.00000000000E+00 0.  1.
</event>
<event>
 5    1  0.1758488E-003  0.9118800E+02  0.7818608E-02  0.1130116E+00
         25   -1    0    0    0    0  0.00000000000E+00  0.00000000000E+00  0.99999998245E-14  0.12500000000E+03  0.12500000000E+03 0.  0.
        -13    1    3    3    0    0 -0.25906320392E+02 -0.77402945119E+01 -0.74688822669E+01  0.28050756883E+02  0.10566000000E+00 0.  1.
         23    2    1    0    0    0  0.10063752656E+02 -0.38043701390E+02  0.18211077153E+02  0.81638200406E+02  0.69170442398E+02 0.  0.
         13    1    3    3    0    0  0.35970073048E+02 -0.30303406878E+02  0.25679959420E+02  0.53587443523E+02  0.10566000000E+00 0. -1.
         22    1    1    0    0    0 -0.10063752656E+02  0.38043701390E+02 -0.18211077153E+02  0.43361799594E+02  0.00000000000E+00 0. -1.
</event>
<event>
 5    1  0.1758488E-003  0.9118800E+02  0.7818608E-02  0.1130116E+00
         25   -1    0    0    0    0  0.00000000000E+00  0.00000000000E+00  0.99999998245E-14  0.12500000000E+03  0.12500000000E+03 0.  0.
        -13    1    3    3    0    0 -0.37890286239E+02 -0.46802292624E+02 -0.13364244755E+02  0.61682595504E+02  0.10566000000E+00 0.  1.
         23    2    1    0    0    0 -0.16524352430E+02 -0.22387382342E+02  0.98331355984E+00  0.97157298678E+02  0.93082354233E+02 0.  0.
         13    1    3    3    0    0  0.21365933810E+02  0.24414910282E+02  0.14347558315E+02  0.35474703174E+02  0.10566000000E+00 0. -1.
         22    1    1    0    0    0  0.16524352430E+02  0.22387382342E+02 -0.98331355984E+00  0.27842701322E+02  0.00000000000E+00 0.  1.
</event>
<event>
 5    1  0.1758488E-003  0.9118800E+02  0.7818608E-02  0.1130116E+00
         25   -1    0    0    0    0  0.00000000000E+00  0.00000000000E+00  0.99999998245E-14  0.12500000000E+03  0.12500000000E+03 0.  0.
        -13    1    3    3    0    0 -0.53925006738E+01 -0.97557666561E+01 -0.29305796442E+02  0.31354344447E+02  0.10566000000E+00 0.  1.
         23    2    1    0    0    0  0.93163234615E+01  0.18781651612E+01  0.29987365523E+02  0.93542672106E+02  0.88094653790E+02 0.  0.
         13    1    3    3    0    0  0.14708824135E+02  0.11633931817E+02  0.59293161966E+02  0.62188327658E+02  0.10566000000E+00 0. -1.
         22    1    1    0    0    0 -0.93163234615E+01 -0.18781651612E+01 -0.29987365523E+02  0.31457327894E+02  0.00000000000E+00 0. -1.
</event>
<event>
 5    1  0.1758488E-003  0.9118800E+02  0.7818608E-02  0.1130116E+00
         25   -1    0    0    0    0  0.00000000000E+00  0.00000000000E+00  0.99999998245E-14  0.12500000000E+03  0.12500000000E+03 0.  0.
        -13    1    3    3    0    0 -0.41722370461E+02 -0.17488995832E+02 -0.26110371135E+02  0.52233933577E+02  0.10566000000E+00 0.  1.
         23    2    1    0    0    0 -0.15907259759E+02 -0.19886783684E+02  0.10798673230E+02  0.97338900566E+02  0.93325908201E+02 0.  0.
         13    1    3    3    0    0  0.25815110702E+02 -0.23977878520E+01  0.36909044365E+02  0.45104966989E+02  0.10566000000E+00 0. -1.
         22    1    1    0    0    0  0.15907259759E+02  0.19886783684E+02 -0.10798673230E+02  0.27661099434E+02  0.00000000000E+00 0.  1.
</event>
<event>
 5    1  0.1758488E-003  0.9118800E+02  0.7818608E-02  0.1130116E+00
         25   -1    0    0    0    0  0.00000000000E+00  0.00000000000E+00  0.99999998245E-14  0.12500000000E+03  0.12500000000E+03 0.  0.
        -13    1    3    3    0    0 -0.36125465178E+01  0.62224862745E+01  0.39586569529E+02  0.40235276548E+02  0.10566000000E+00 0. -1.
         23    2    1    0    0    0 -0.20105228139E+02  0.24066655075E+02 -0.70819242513E+01  0.92850696180E+02  0.87107255984E+02 0.  0.
         13    1    3    3    0    0 -0.16492681621E+02  0.17844168800E+02 -0.46668493781E+02  0.52615419632E+02  0.10566000000E+00 0.  1.
         22    1    1    0    0    0  0.20105228139E+02 -0.24066655075E+02  0.70819242513E+01  0.32149303820E+02  0.00000000000E+00 0.  1.
</event>
<event>
 5    1  0.1758488E-003  0.9118800E+02  0.7818608E-02  0.1130116E+00
         25   -1    0    0    0    0  0.00000000000E+00  0.00000000000E+00  0.99999998245E-14  0.12500000000E+03  0.12500000000E+03 0.  0.
        -13    1    3    3    0    0  0.44356617742E+02  0.24763692953E+02 -0.13221225236E+02  0.52493447086E+02  0.10566000000E+00 0. -1.
         23    2    1    0    0    0  0.43606613245E+01  0.30507602163E+02 -0.41671192717E+01  0.93901864365E+02  0.88602856000E+02 0.  0.
         13    1    3    3    0    0 -0.39995956417E+02  0.57439092098E+01  0.90541059646E+01  0.41408417279E+02  0.10566000000E+00 0.  1.
         22    1    1    0    0    0 -0.43606613245E+01 -0.30507602163E+02  0.41671192717E+01  0.31098135635E+02  0.00000000000E+00 0. -1.
</event>
<event>
 5    1  0.1758488E-003  0.9118800E+02  0.7818608E-02  0.1130116E+00
         25   -1    0    0    0    0  0.00000000000E+00  0.00000000000E+00  0.99999998245E-14  0.12500000000E+03  0.12500000000E+03 0.  0.
        -13    1    3    3    0    0 -0.24149767881E+02  0.28364003451E+02 -0.75625485725E+01  0.38012251781E+02  0.10566000000E+00 0.  1.
         23    2    1    0    0    0  0.24664083525E+02  0.45790723308E+01  0.13806507492E+02  0.96366024226E+02  0.92013618864E+02 0.  0.
         13    1    3    3    0    0  0.48813851406E+02 -0.23784931121E+02  0.21369056064E+02  0.58353772445E+02  0.10566000000E+00 0. -1.
         22    1    1    0    0    0 -0.24664083525E+02 -0.45790723308E+01 -0.13806507492E+02  0.28633975774E+02  0.00000000000E+00 0. -1.
</event>
<event>
 5    1  0.1758488E-003  0.9118800E+02  0.7818608E-02  0.1130116E+00
         25   -1    0    0    0    0  0.00000000000E+00  0.00000000000E+00  0.99999998245E-14  0.12500000000E+03  0.12500000000E+03 0.  0.
        -13    1    3    3    0    0  0.40040692478E+02  0.91944239798E+01  0.18576065069E+02  0.45087424454E+02  0.10566000000E+00 0. -1.
         23    2    1    0    0    0  0.76445925549E+01  0.97940649521E+01 -0.23633618962E+02  0.98299598339E+02  0.94603908929E+02 0.  0.
         13    1    3    3    0    0 -0.32396099923E+02  0.59964097236E+00 -0.42209684031E+02  0.53212173885E+02  0.10566000000E+00 0.  1.
         22    1    1    0    0    0 -0.76445925549E+01 -0.97940649521E+01  0.23633618962E+02  0.26700401661E+02  0.00000000000E+00 0.  1.
</event>
<event>
 5    1  0.1758488E-003  0.9118800E+02  0.7818608E-02  0.1130116E+00
         25   -1    0    0    0    0  0.00000000000E+00  0.00000000000E+00  0.99999998245E-14  0.12500000000E+03  0.12500000000E+03 0.  0.
        -13    1    3    3    0    0  0.50237948398E+02 -0.21228817500E+02 -0.10428758000E+01  0.54549178781E+02  0.10566000000E+00 0.  1.
         23    2    1    0    0    0  0.23681691229E+02  0.12506425798E+02 -0.53199549305E+01  0.97695511245E+02  0.93802333720E+02 0.  0.
         13    1    3    3    0    0 -0.26556257168E+02  0.33735243298E+02 -0.42770791305E+01  0.43146332464E+02  0.10566000000E+00 0. -1.
         22    1    1    0    0    0 -0.23681691229E+02 -0.12506425798E+02  0.53199549305E+01  0.27304488755E+02  0.00000000000E+00 0.  1.
</event>
<event>
 5    1  0.1758488E-003  0.9118800E+02  0.7818608E-02  0.1130116E+00
         25   -1    0    0    0    0  0.00000000000E+00  0.00000000000E+00  0.99999998245E-14  0.12500000000E+03  0.12500000000E+03 0.  0.
        -13    1    3    3    0    0 -0.22340488843E+01  0.52077053347E+01  0.37198392628E+02  0.37627685916E+02  0.10566000000E+00 0. -1.
         23    2    1    0    0    0  0.83430228355E+00 -0.19428232726E+02 -0.18219369654E+02  0.98352341233E+02  0.94673572386E+02 0.  0.
         13    1    3    3    0    0  0.30683511679E+01 -0.24635938061E+02 -0.55417762282E+02  0.60724655317E+02  0.10566000000E+00 0.  1.
         22    1    1    0    0    0 -0.83430228355E+00  0.19428232726E+02  0.18219369654E+02  0.26647658767E+02  0.00000000000E+00 0.  1.
</event>
<event>
 5    1  0.1758488E-003  0.9118800E+02  0.7818608E-02  0.1130116E+00
         25   -1    0    0    0    0  0.00000000000E+00  0.00000000000E+00  0.99999998245E-14  0.12500000000E+03  0.12500000000E+03 0.  0.
        -13    1    3    3    0    0  0.11845124867E+02  0.44281043072E+02 -0.33544146036E+02  0.56800868444E+02  0.10566000000E+00 0.  1.
         23    2    1    0    0    0  0.42958626645E+01  0.56230927123E+01 -0.27443549978E+02  0.96658827775E+02  0.92410534810E+02 0.  0.
         13    1    3    3    0    0 -0.75492622024E+01 -0.38657950359E+02  0.61005960580E+01  0.39857959332E+02  0.10566000000E+00 0. -1.
         22    1    1    0    0    0 -0.42958626645E+01 -0.56230927123E+01  0.27443549978E+02  0.28341172225E+02  0.00000000000E+00 0. -1.
</event>
<event>
 5    1  0.1758488E-003  0.9118800E+02  0.7818608E-02  0.1130116E+00
         25   -1    0    0    0    0  0.00000000000E+00  0.00000000000E+00  0.99999998245E-14  0.12500000000E+03  0.12500000000E+03 0.  0.
        -13    1    3    3    0    0  0.42612040721E+02  0.19793629435E+01 -0.22808774527E+02  0.48373083957E+02  0.10566000000E+00 0. -1.
         23    2    1    0    0    0  0.13034647426E+02 -0.27371006714E+02 -0.29244220059E+01  0.94543042073E+02  0.89502852012E+02 0.  0.
         13    1    3    3    0    0 -0.29577393295E+02 -0.29350369658E+02  0.19884352521E+02  0.46169958116E+02  0.10566000000E+00 0.  1.
         22    1    1    0    0    0 -0.13034647426E+02  0.27371006714E+02  0.29244220059E+01  0.30456957927E+02  0.00000000000E+00 0.  1.
</event>
<event>
 5    1  0.1758488E-003  0.9118800E+02  0.7818608E-02  0.1130116E+00
         25   -1    0    0    0    0  0.00000000000E+00  0.00000000000E+00  0.99999998245E-14  0.12500000000E+03  0.12500000000E+03 0.  0.
        -13    1    3    3    0    0 -0.43907204480E+02  0.57083148144E+01  0.40681004517E+02  0.60128052985E+02  0.10566000000E+00 0.  1.
         23    2    1    0    0    0 -0.23516033036E+02  0.13467620862E+02  0.14310447452E+02  0.94354127069E+02  0.89238622621E+02 0.  0.
         13    1    3    3    0    0  0.20391171444E+02  0.77593060481E+01 -0.26370557065E+02  0.34226074084E+02  0.10566000000E+00 0. -1.
         22    1    1    0    0    0  0.23516033036E+02 -0.13467620862E+02 -0.14310447452E+02  0.30645872931E+02  0.00000000000E+00 0.  1.
</event>
<event>
 5    1  0.1758488E-003  0.9118800E+02  0.7818608E-02  0.1130116E+00
         25   -1    0    0    0    0  0.00000000000E+00  0.00000000000E+00  0.99999998245E-14  0.12500000000E+03  0.12500000000E+03 0.  0.
        -13    1    3    3    0    0 -0.59631556721E+02  0.15795643714E+02  0.55715076076E+01  0.61939307215E+02  0.10566000000E+00 0.  1.
         23    2    1    0    0    0 -0.28011800871E+02  0.37720151055E+01  0.72855487469E+01  0.95811503867E+02  0.91257196794E+02 0.  0.
         13    1    3    3    0    0  0.31619755850E+02 -0.12023628608E+02  0.17140411393E+01  0.33872196651E+02  0.10566000000E+00 0. -1.
         22    1    1    0    0    0  0.28011800871E+02 -0.37720151055E+01 -0.72855487469E+01  0.29188496133E+02  0.00000000000E+00 0.  1.
</event>
<event>
 5    1  0.1758488E-003  0.9118800E+02  0.7818608E-02  0.1130116E+00
         25   -1    0    0    0    0  0.00000000000E+00  0.00000000000E+00  0.99999998245E-14  0.12500000000E+03  0.12500000000E+03 0.  0.
        -13    1    3    3    0    0  0.30884393132E+02  0.33035436034E+02 -0.26263400533E+02  0.52296875095E+02  0.10566000000E+00 0. -1.
         23    2    1    0    0    0  0.22501029702E+02  0.15361635788E+02  0.11968278894E+02  0.95242380952E+02  0.90474279428E+02 0.  0.
         13    1    3    3    0    0 -0.83833634305E+01 -0.17673800246E+02  0.38231679427E+02  0.42945505857E+02  0.10566000000E+00 0.  1.
         22    1    1    0    0    0 -0.22501029702E+02 -0.15361635788E+02 -0.11968278894E+02  0.29757619048E+02  0.00000000000E+00 0. -1.
</event>
<event>
 5    1  0.1758488E-003  0.9118800E+02  0.7818608E-02  0.1130116E+00
         25   -1    0    0    0    0  0.00000000000E+00  0.00000000000E+00  0.99999998245E-14  0.12500000000E+03  0.12500000000E+03 0.  0.
        -13    1    3    3    0    0 -0.30109184452E+02 -0.11882646119E+02  0.29554646426E+02  0.43832049422E+02  0.10566000000E+00 0. -1.
         23    2    1    0    0    0 -0.49386460715E+01  0.27458873354E+02  0.48026730149E+01  0.96690185112E+02  0.92452940883E+02 0.  0.
         13    1    3    3    0    0  0.25170538380E+02  0.39341519474E+02 -0.24751973411E+02  0.52858135690E+02  0.10566000000E+00 0.  1.
         22    1    1    0    0    0  0.49386460715E+01 -0.27458873354E+02 -0.48026730149E+01  0.28309814888E+02  0.00000000000E+00 0.  1.
</event>
<event>
 5    1  0.1758488E-003  0.9118800E+02  0.7818608E-02  0.1130116E+00
         25   -1    0    0    0    0  0.00000000000E+00  0.00000000000E+00  0.99999998245E-14  0.12500000000E+03  0.12500000000E+03 0.  0.
        -13    1    3    3    0    0 -0.46259011496E+02  0.33362459732E+02 -0.13200682064E+02  0.58542454978E+02  0.10566000000E+00 0.  1.
         23    2    1    0    0    0 -0.20542891610E+02  0.18857574499E+02  0.92352505159E+01  0.95624698065E+02  0.91000958875E+02 0.  0.
         13    1    3    3    0    0  0.25716119885E+02 -0.14504885232E+02  0.22435932579E+02  0.37082243086E+02  0.10566000000E+00 0. -1.
         22    1    1    0    0    0  0.20542891610E+02 -0.18857574499E+02 -0.92352505159E+01  0.29375301935E+02  0.00000000000E+00 0.  1.
</event>
<event>
 5    1  0.1758488E-003  0.9118800E+02  0.7818608E-02  0.1130116E+00
         25   -1    0    0    0    0  0.00000000000E+00  0.00000000000E+00  0.99999998245E-14  0.12500000000E+03  0.12500000000E+03 0.  0.
        -13    1    3    3    0    0  0.17586715837E+02 -0.18593981942E+02 -0.29107465515E+02  0.38759314379E+02  0.10566000000E+00 0.  1.
         23    2    1    0    0    0  0.80394553049E+01 -0.15467781706E+02  0.25404701190E+02  0.94189547957E+02  0.89007791734E+02 0.  0.
         13    1    3    3    0    0 -0.95472605324E+01  0.31262002360E+01  0.54512166705E+02  0.55430233578E+02  0.10566000000E+00 0. -1.
         22    1    1    0    0    0 -0.80394553049E+01  0.15467781706E+02 -0.25404701190E+02  0.30810452043E+02  0.00000000000E+00 0. -1.
</event>
<event>
 5    1  0.1758488E-003  0.9118800E+02  0.7818608E-02  0.1130116E+00
         25   -1    0    0    0    0  0.00000000000E+00  0.00000000000E+00  0.99999998245E-14  0.12500000000E+03  0.12500000000E+03 0.  0.
        -13    1    3    3    0    0 -0.28771115427E+02  0.82649179547E+00  0.25656473415E+02  0.38558085582E+02  0.10566000000E+00 0. -1.
         23    2    1    0    0    0 -0.87476635129E+01 -0.84948769806E+01 -0.26844516865E+02  0.95515891780E+02  0.90851378332E+02 0.  0.
         13    1    3    3    0    0  0.20023451914E+02 -0.93213687760E+01 -0.52500990280E+02  0.56957806198E+02  0.10566000000E+00 0.  1.
         22    1    1    0    0    0  0.87476635129E+01  0.84948769806E+01  0.26844516865E+02  0.29484108220E+02  0.00000000000E+00 0.  1.
</event>
<event>
 5    1  0.1758488E-003  0.9118800E+02  0.7818608E-02  0.1130116E+00
         25   -1    0    0    0    0  0.00000000000E+00  0.00000000000E+00  0.99999998245E-14  0.12500000000E+03  0.12500000000E+03 0.  0.
        -13    1    3    3    0    0  0.39262025516E+02  0.40934427625E+02  0.91796053487E+00  0.56727311131E+02  0.10566000000E+00 0.  1.
         23    2    1    0    0    0  0.16578227793E+02  0.34814670451E+01  0.14636413250E+02  0.10261288669E+03  0.10014100894E+03 0.  0.
         13    1    3    3    0    0 -0.22683797723E+02 -0.37452960580E+02  0.13718452715E+02  0.45885575558E+02  0.10566000000E+00 0. -1.
         22    1    1    0    0    0 -0.16578227793E+02 -0.34814670451E+01 -0.14636413250E+02  0.22387113311E+02  0.00000000000E+00 0.  1.
</event>
<event>
 5    1  0.1758488E-003  0.9118800E+02  0.7818608E-02  0.1130116E+00
         25   -1    0    0    0    0  0.00000000000E+00  0.00000000000E+00  0.99999998245E-14  0.12500000000E+03  0.12500000000E+03 0.  0.
        -13    1    3    3    0    0 -0.16095853289E+01  0.34203073946E+02  0.10131126761E+02  0.35708429338E+02  0.10566000000E+00 0. -1.
         23    2    1    0    0    0  0.20665113245E+02 -0.20784868381E+02  0.51027908503E+01  0.95249434737E+02  0.90484024469E+02 0.  0.
         13    1    3    3    0    0  0.22274698574E+02 -0.54987942327E+02 -0.50283359109E+01  0.59541005399E+02  0.10566000000E+00 0.  1.
         22    1    1    0    0    0 -0.20665113245E+02  0.20784868381E+02 -0.51027908503E+01  0.29750565263E+02  0.00000000000E+00 0.  1.
</event>
<event>
 5    1  0.1758488E-003  0.9118800E+02  0.7818608E-02  0.1130116E+00
         25   -1    0    0    0    0  0.00000000000E+00  0.00000000000E+00  0.99999998245E-14  0.12500000000E+03  0.12500000000E+03 0.  0.
        -13    1    3    3    0    0  0.27025216675E+02 -0.20510479543E+01  0.36417898960E+02  0.45396515976E+02  0.10566000000E+00 0.  1.
         23    2    1    0    0    0 -0.19867435034E+02 -0.88653438994E+01  0.19717550920E+02  0.95638611893E+02  0.91020069069E+02 0.  0.
         13    1    3    3    0    0 -0.46892651709E+02 -0.68142959450E+01 -0.16700348040E+02  0.50242095918E+02  0.10566000000E+00 0. -1.
         22    1    1    0    0    0  0.19867435034E+02  0.88653438994E+01 -0.19717550920E+02  0.29361388107E+02  0.00000000000E+00 0.  1.
</event>
<event>
 5    1  0.1758488E-003  0.9118800E+02  0.7818608E-02  0.1130116E+00
         25   -1    0    0    0    0  0.00000000000E+00  0.00000000000E+00  0.99999998245E-14  0.12500000000E+03  0.12500000000E+03 0.  0.
        -13    1    3    3    0    0 -0.31423315981E+02 -0.48549033452E+02  0.18047692967E+02  0.60581877008E+02  0.10566000000E+00 0. -1.
         23    2    1    0    0    0 -0.14705301064E+02 -0.12518187870E+02  0.15235338470E+02  0.10040190159E+03  0.97342053596E+02 0.  0.
         13    1    3    3    0    0  0.16718014918E+02  0.36030845582E+02 -0.28123544965E+01  0.39820024585E+02  0.10566000000E+00 0.  1.
         22    1    1    0    0    0  0.14705301064E+02  0.12518187870E+02 -0.15235338470E+02  0.24598098407E+02  0.00000000000E+00 0. -1.
</event>
<event>
 5    1  0.1758488E-003  0.9118800E+02  0.7818608E-02  0.1130116E+00
         25   -1    0    0    0    0  0.00000000000E+00  0.00000000000E+00  0.99999998245E-14  0.12500000000E+03  0.12500000000E+03 0.  0.
        -13    1    3    3    0    0  0.15668730851E+02 -0.29684333341E+02 -0.17668844047E+01  0.33612524703E+02  0.10566000000E+00 0. -1.
         23    2    1    0    0    0 -0.13436108495E+02  0.24125605631E+02 -0.10593810903E+02  0.95422936454E+02  0.90723393420E+02 0.  0.
         13    1    3    3    0    0 -0.29104839346E+02  0.53809938972E+02 -0.88269264978E+01  0.61810411752E+02  0.10566000000E+00 0.  1.
         22    1    1    0    0    0  0.13436108495E+02 -0.24125605631E+02  0.10593810903E+02  0.29577063546E+02  0.00000000000E+00 0.  1.
</event>
<event>
 5    1  0.1758488E-003  0.9118800E+02  0.7818608E-02  0.1130116E+00
         25   -1    0    0    0    0  0.00000000000E+00  0.00000000000E+00  0.99999998245E-14  0.12500000000E+03  0.12500000000E+03 0.  0.
        -13    1    3    3    0    0  0.29034622680E+02 -0.63649784185E+01  0.16026421839E+02  0.33769507332E+02  0.10566000000E+00 0. -1.
         23    2    1    0    0    0 -0.28813756320E+02 -0.12944267644E+02  0.59689967618E+01  0.92853218817E+02  0.87110875924E+02 0.  0.
         13    1    3    3    0    0 -0.57848379000E+02 -0.65792892253E+01 -0.10057425077E+02  0.59083711485E+02  0.10566000000E+00 0.  1.
         22    1    1    0    0    0  0.28813756320E+02  0.12944267644E+02 -0.59689967618E+01  0.32146781183E+02  0.00000000000E+00 0.  1.
</event>
<event>
 5    1  0.1758488E-003  0.9118800E+02  0.7818608E-02  0.1130116E+00
         25   -1    0    0    0    0  0.00000000000E+00  0.00000000000E+00  0.99999998245E-14  0.12500000000E+03  0.12500000000E+03 0.  0.
        -13    1    3    3    0    0  0.30981040898E+02  0.82372609728E+01  0.19911993671E+02  0.37738256709E+02  0.10566000000E+00 0. -1.
         23    2    1    0    0    0 -0.26416657965E+02  0.36292883976E+01  0.11614593106E+02  0.95915462436E+02  0.91399483636E+02 0.  0.
         13    1    3    3    0    0 -0.57397698863E+02 -0.46079725752E+01 -0.82974005654E+01  0.58177205727E+02  0.10566000000E+00 0.  1.
         22    1    1    0    0    0  0.26416657965E+02 -0.36292883976E+01 -0.11614593106E+02  0.29084537564E+02  0.00000000000E+00 0.  1.
</event>
<event>
 5    1  0.1758488E-003  0.9118800E+02  0.7818608E-02  0.1130116E+00
         25   -1    0    0    0    0  0.00000000000E+00  0.00000000000E+00  0.99999998245E-14  0.12500000000E+03  0.12500000000E+03 0.  0.
        -13    1    3    3    0    0 -0.21742170004E+02 -0.35984559282E+02 -0.36351418397E+02  0.55579197967E+02  0.10566000000E+00 0.  1.
         23    2    1    0    0    0  0.72166534303E+01 -0.24144446382E+02 -0.61578870362E+01  0.99058644011E+02  0.95601574269E+02 0.  0.
         13    1    3    3    0    0  0.28958823434E+02  0.11840112900E+02  0.30193531361E+02  0.43479446044E+02  0.10566000000E+00 0. -1.
         22    1    1    0    0    0 -0.72166534303E+01  0.24144446382E+02  0.61578870362E+01  0.25941355989E+02  0.00000000000E+00 0.  1.
</event>
<event>
 5    1  0.1758488E-003  0.9118800E+02  0.7818608E-02  0.1130116E+00
         25   -1    0    0    0    0  0.00000000000E+00  0.00000000000E+00  0.99999998245E-14  0.12500000000E+03  0.12500000000E+03 0.  0.
        -13    1    3    3    0    0 -0.17842403923E+02  0.36536108220E+02 -0.43360264304E+02  0.59442091704E+02  0.10566000000E+00 0.  1.
         23    2    1    0    0    0  0.22883556846E+01  0.18554511719E+02 -0.30223883702E+02  0.89461434710E+02  0.82099687438E+02 0.  0.
         13    1    3    3    0    0  0.20130759608E+02 -0.17981596502E+02  0.13136380602E+02  0.30019343006E+02  0.10566000000E+00 0. -1.
         22    1    1    0    0    0 -0.22883556846E+01 -0.18554511719E+02  0.30223883702E+02  0.35538565290E+02  0.00000000000E+00 0.  1.
</event>
<event>
 5    1  0.1758488E-003  0.9118800E+02  0.7818608E-02  0.1130116E+00
         25   -1    0    0    0    0  0.00000000000E+00  0.00000000000E+00  0.99999998245E-14  0.12500000000E+03  0.12500000000E+03 0.  0.
        -13    1    3    3    0    0  0.55687131163E+02 -0.51158094576E-01  0.12367553039E+02  0.57044077050E+02  0.10566000000E+00 0.  1.
         23    2    1    0    0    0  0.17652894372E+02 -0.10424772813E+02  0.19031288459E+02  0.97026968196E+02  0.92907168986E+02 0.  0.
         13    1    3    3    0    0 -0.38034236791E+02 -0.10373614718E+02  0.66637354197E+01  0.39982891146E+02  0.10566000000E+00 0. -1.
         22    1    1    0    0    0 -0.17652894372E+02  0.10424772813E+02 -0.19031288459E+02  0.27973031804E+02  0.00000000000E+00 0.  1.
</event>
<event>
 5    1  0.1758488E-003  0.9118800E+02  0.7818608E-02  0.1130116E+00
         25   -1    0    0    0    0  0.00000000000E+00  0.00000000000E+00  0.99999998245E-14  0.12500000000E+03  0.12500000000E+03 0.  0.
        -13    1    3    3    0    0  0.40579977375E+02 -0.11448862906E+02 -0.20541525132E+02  0.46901774427E+02  0.10566000000E+00 0.  1.
         23    2    1    0    0    0  0.16499172349E+02  0.25272222442E+02 -0.14535501147E+01  0.94783767222E+02  0.89838420543E+02 0.  0.
         13    1    3    3    0    0 -0.24080805026E+02  0.36721085348E+02  0.19087975017E+02  0.47881992796E+02  0.10566000000E+00 0. -1.
         22    1    1    0    0    0 -0.16499172349E+02 -0.25272222442E+02  0.14535501147E+01  0.30216232778E+02  0.00000000000E+00 0.  1.
</event>
<event>
 5    1  0.1758488E-003  0.9118800E+02  0.7818608E-02  0.1130116E+00
         25   -1    0    0    0    0  0.00000000000E+00  0.00000000000E+00  0.99999998245E-14  0.12500000000E+03  0.12500000000E+03 0.  0.
        -13    1    3    3    0    0  0.47850597837E+01  0.57018875446E+02  0.12443908601E+02  0.58556903773E+02  0.10566000000E+00 0.  1.
         23    2    1    0    0    0  0.11189097891E+02  0.21966387987E+02  0.17804638125E+02  0.94590737405E+02  0.89569438713E+02 0.  0.
         13    1    3    3    0    0  0.64040381075E+01 -0.35052487459E+02  0.53607295243E+01  0.36033833632E+02  0.10566000000E+00 0. -1.
         22    1    1    0    0    0 -0.11189097891E+02 -0.21966387987E+02 -0.17804638125E+02  0.30409262595E+02  0.00000000000E+00 0.  1.
</event>
<event>
 5    1  0.1758488E-003  0.9118800E+02  0.7818608E-02  0.1130116E+00
         25   -1    0    0    0    0  0.00000000000E+00  0.00000000000E+00  0.99999998245E-14  0.12500000000E+03  0.12500000000E+03 0.  0.
        -13    1    3    3    0    0 -0.86335221504E+01  0.35480828926E+02 -0.27056476774E+02  0.45447673488E+02  0.10566000000E+00 0.  1.
         23    2    1    0    0    0  0.19684616244E+02 -0.53204230129E+01 -0.21410455730E+02  0.95433149774E+02  0.90737464388E+02 0.  0.
         13    1    3    3    0    0  0.28318138394E+02 -0.40801251939E+02  0.56460210437E+01  0.49985476286E+02  0.10566000000E+00 0. -1.
         22    1    1    0    0    0 -0.19684616244E+02  0.53204230129E+01  0.21410455730E+02  0.29566850226E+02  0.00000000000E+00 0. -1.
</event>
<event>
 5    1  0.1758488E-003  0.9118800E+02  0.7818608E-02  0.1130116E+00
         25   -1    0    0    0    0  0.00000000000E+00  0.00000000000E+00  0.99999998245E-14  0.12500000000E+03  0.12500000000E+03 0.  0.
        -13    1    3    3    0    0  0.25529757567E+02  0.22066574760E+02  0.72051338881E+01  0.34505468573E+02  0.10566000000E+00 0.  1.
         23    2    1    0    0    0 -0.21488864536E+02 -0.68737159624E+01 -0.18891425605E+02  0.95573732286E+02  0.90930924726E+02 0.  0.
         13    1    3    3    0    0 -0.47018622103E+02 -0.28940290723E+02 -0.26096559493E+02  0.61068263713E+02  0.10566000000E+00 0. -1.
         22    1    1    0    0    0  0.21488864536E+02  0.68737159624E+01  0.18891425605E+02  0.29426267714E+02  0.00000000000E+00 0. -1.
</event>
<event>
 5    1  0.1758488E-003  0.9118800E+02  0.7818608E-02  0.1130116E+00
         25   -1    0    0    0    0  0.00000000000E+00  0.00000000000E+00  0.99999998245E-14  0.12500000000E+03  0.12500000000E+03 0.  0.
        -13    1    3    3    0    0  0.39377741951E+02  0.12415797381E+02 -0.19161461220E+02  0.45518472578E+02  0.10566000000E+00 0. -1.
         23    2    1    0    0    0 -0.13059967397E+02 -0.13041035704E+02 -0.80786201070E+01  0.10485315252E+03  0.10289940782E+03 0.  0.
         13    1    3    3    0    0 -0.52437709347E+02 -0.25456833085E+02  0.11082841113E+02  0.59334679939E+02  0.10566000000E+00 0.  1.
         22    1    1    0    0    0  0.13059967397E+02  0.13041035704E+02  0.80786201070E+01  0.20146847482E+02  0.00000000000E+00 0.  1.
</event>
<event>
 5    1  0.1758488E-003  0.9118800E+02  0.7818608E-02  0.1130116E+00
         25   -1    0    0    0    0  0.00000000000E+00  0.00000000000E+00  0.99999998245E-14  0.12500000000E+03  0.12500000000E+03 0.  0.
        -13    1    3    3    0    0  0.16294271082E+02 -0.35092491060E+02  0.51764249756E+01  0.39035787919E+02  0.10566000000E+00 0. -1.
         23    2    1    0    0    0  0.36086025897E+02 -0.15695412392E+01 -0.18312714070E+02  0.84502836872E+02  0.74166766264E+02 0.  0.
         13    1    3    3    0    0  0.19791754816E+02  0.33522949821E+02 -0.23489139046E+02  0.45467048953E+02  0.10566000000E+00 0.  1.
         22    1    1    0    0    0 -0.36086025897E+02  0.15695412392E+01  0.18312714070E+02  0.40497163128E+02  0.00000000000E+00 0.  1.
</event>
<event>
 5    1  0.1758488E-003  0.9118800E+02  0.7818608E-02  0.1130116E+00
         25   -1    0    0    0    0  0.00000000000E+00  0.00000000000E+00  0.99999998245E-14  0.12500000000E+03  0.12500000000E+03 0.  0.
        -13    1    3    3    0    0 -0.13524613490E+02 -0.18133409614E+02 -0.26243995516E+02  0.34648148276E+02  0.10566000000E+00 0.  1.
         23    2    1    0    0    0 -0.89358384839E+01  0.50917989535E+01  0.28720048405E+02  0.94493987374E+02  0.89434315804E+02 0.  0.
         13    1    3    3    0    0  0.45887750058E+01  0.23225208568E+02  0.54964043921E+02  0.59845839097E+02  0.10566000000E+00 0. -1.
         22    1    1    0    0    0  0.89358384839E+01 -0.50917989535E+01 -0.28720048405E+02  0.30506012626E+02  0.00000000000E+00 0. -1.
</event>
<event>
 5    1  0.1758488E-003  0.9118800E+02  0.7818608E-02  0.1130116E+00
         25   -1    0    0    0    0  0.00000000000E+00  0.00000000000E+00  0.99999998245E-14  0.12500000000E+03  0.12500000000E+03 0.  0.
        -13    1    3    3    0    0 -0.15016090289E+02 -0.21752008474E+01 -0.19383792637E+02  0.24616194818E+02  0.10566000000E+00 0.  1.
         23    2    1    0    0    0 -0.91102520203E+01  0.79382724655E+01  0.39004020729E+02  0.84167090544E+02  0.73598727136E+02 0.  0.
         13    1    3    3    0    0  0.59058382692E+01  0.10113473313E+02  0.58387813366E+02  0.59550895726E+02  0.10566000000E+00 0. -1.
         22    1    1    0    0    0  0.91102520203E+01 -0.79382724655E+01 -0.39004020729E+02  0.40832909456E+02  0.00000000000E+00 0. -1.
</event>
<event>
 5    1  0.1758488E-003  0.9118800E+02  0.7818608E-02  0.1130116E+00
         25   -1    0    0    0    0  0.00000000000E+00  0.00000000000E+00  0.99999998245E-14  0.12500000000E+03  0.12500000000E+03 0.  0.
        -13    1    3    3    0    0 -0.39336028190E+02  0.23415359203E+02  0.20706390314E+02  0.50243088323E+02  0.10566000000E+00 0. -1.
         23    2    1    0    0    0  0.85658257072E+01  0.17308320047E+02  0.17986573389E+02  0.98609317265E+02  0.95012258769E+02 0.  0.
         13    1    3    3    0    0  0.47901853897E+02 -0.61070391554E+01 -0.27198169252E+01  0.48366228943E+02  0.10566000000E+00 0.  1.
         22    1    1    0    0    0 -0.85658257072E+01 -0.17308320047E+02 -0.17986573389E+02  0.26390682735E+02  0.00000000000E+00 0. -1.
</event>
<event>
 5    1  0.1758488E-003  0.9118800E+02  0.7818608E-02  0.1130116E+00
         25   -1    0    0    0    0  0.00000000000E+00  0.00000000000E+00  0.99999998245E-14  0.12500000000E+03  0.12500000000E+03 0.  0.
        -13    1    3    3    0    0  0.95700044016E+01 -0.31018773218E+02 -0.11626437911E+02  0.34480929494E+02  0.10566000000E+00 0.  1.
         23    2    1    0    0    0 -0.23144437134E+02  0.18483910763E+02  0.18309889917E+01  0.95323874107E+02  0.90586801062E+02 0.  0.
         13    1    3    3    0    0 -0.32714441536E+02  0.49502683981E+02  0.13457426903E+02  0.60842944613E+02  0.10566000000E+00 0. -1.
         22    1    1    0    0    0  0.23144437134E+02 -0.18483910763E+02 -0.18309889917E+01  0.29676125893E+02  0.00000000000E+00 0. -1.
</event>
<event>
 5    1  0.1758488E-003  0.9118800E+02  0.7818608E-02  0.1130116E+00
         25   -1    0    0    0    0  0.00000000000E+00  0.00000000000E+00  0.99999998245E-14  0.12500000000E+03  0.12500000000E+03 0.  0.
        -13    1    3    3    0    0  0.58586906913E+01  0.46552201629E+02  0.37448858952E+01  0.47068748311E+02  0.10566000000E+00 0. -1.
         23    2    1    0    0    0  0.27538337259E+02  0.60330945055E+01  0.13015536828E+02  0.93949034681E+02  0.88669378425E+02 0.  0.
         13    1    3    3    0    0  0.21679646568E+02 -0.40519107124E+02  0.92706509324E+01  0.46880286370E+02  0.10566000000E+00 0.  1.
         22    1    1    0    0    0 -0.27538337259E+02 -0.60330945055E+01 -0.13015536828E+02  0.31050965319E+02  0.00000000000E+00 0. -1.
</event>
<event>
 5    1  0.1758488E-003  0.9118800E+02  0.7818608E-02  0.1130116E+00
         25   -1    0    0    0    0  0.00000000000E+00  0.00000000000E+00  0.99999998245E-14  0.12500000000E+03  0.12500000000E+03 0.  0.
        -13    1    3    3    0    0  0.19207756176E+02 -0.51614387107E+02  0.12585102514E+02  0.56492289944E+02  0.10566000000E+00 0.  1.
         23    2    1    0    0    0  0.79529675026E+01 -0.18441170382E+02  0.24341612878E+02  0.93443058217E+02  0.87953195248E+02 0.  0.
         13    1    3    3    0    0 -0.11254788674E+02  0.33173216726E+02  0.11756510364E+02  0.36950768273E+02  0.10566000000E+00 0. -1.
         22    1    1    0    0    0 -0.79529675026E+01  0.18441170382E+02 -0.24341612878E+02  0.31556941783E+02  0.00000000000E+00 0.  1.
</event>
<event>
 5    1  0.1758488E-003  0.9118800E+02  0.7818608E-02  0.1130116E+00
         25   -1    0    0    0    0  0.00000000000E+00  0.00000000000E+00  0.99999998245E-14  0.12500000000E+03  0.12500000000E+03 0.  0.
        -13    1    3    3    0    0 -0.35692410102E+02 -0.35871631057E+02  0.25195712005E+02  0.56529258982E+02  0.10566000000E+00 0. -1.
         23    2    1    0    0    0 -0.12885083074E+01 -0.15737836006E+02  0.23827637603E+02  0.96415108019E+02  0.92080274786E+02 0.  0.
         13    1    3    3    0    0  0.34403901794E+02  0.20133795050E+02 -0.13680744020E+01  0.39885849037E+02  0.10566000000E+00 0.  1.
         22    1    1    0    0    0  0.12885083074E+01  0.15737836006E+02 -0.23827637603E+02  0.28584891981E+02  0.00000000000E+00 0. -1.
</event>
<event>
 5    1  0.1758488E-003  0.9118800E+02  0.7818608E-02  0.1130116E+00
         25   -1    0    0    0    0  0.00000000000E+00  0.00000000000E+00  0.99999998245E-14  0.12500000000E+03  0.12500000000E+03 0.  0.
        -13    1    3    3    0    0  0.30181524807E+02  0.73487212636E+01  0.37007012394E+01  0.31283134395E+02  0.10566000000E+00 0. -1.
         23    2    1    0    0    0 -0.29737816295E+02 -0.71237035107E+01  0.89207533014E+01  0.93146197885E+02  0.87530277455E+02 0.  0.
         13    1    3    3    0    0 -0.59919341101E+02 -0.14472424774E+02  0.52200520620E+01  0.61863063491E+02  0.10566000000E+00 0.  1.
         22    1    1    0    0    0  0.29737816295E+02  0.71237035107E+01 -0.89207533014E+01  0.31853802115E+02  0.00000000000E+00 0.  1.
</event>
<event>
 5    1  0.1758488E-003  0.9118800E+02  0.7818608E-02  0.1130116E+00
         25   -1    0    0    0    0  0.00000000000E+00  0.00000000000E+00  0.99999998245E-14  0.12500000000E+03  0.12500000000E+03 0.  0.
        -13    1    3    3    0    0 -0.28705057271E+02  0.25296222373E+02  0.96912942781E+00  0.38273091790E+02  0.10566000000E+00 0.  1.
         23    2    1    0    0    0 -0.22658694677E+02 -0.26318923426E+02  0.13946660911E+01  0.90243025617E+02  0.83281188777E+02 0.  0.
         13    1    3    3    0    0  0.60463625940E+01 -0.51615145799E+02  0.42553666330E+00  0.51969933827E+02  0.10566000000E+00 0. -1.
         22    1    1    0    0    0  0.22658694677E+02  0.26318923426E+02 -0.13946660911E+01  0.34756974383E+02  0.00000000000E+00 0. -1.
</event>
<event>
 5    1  0.1758488E-003  0.9118800E+02  0.7818608E-02  0.1130116E+00
         25   -1    0    0    0    0  0.00000000000E+00  0.00000000000E+00  0.99999998245E-14  0.12500000000E+03  0.12500000000E+03 0.  0.
        -13    1    3    3    0    0  0.21741344505E+02  0.10868793812E+02 -0.56482422591E+02  0.61490584366E+02  0.10566000000E+00 0. -1.
         23    2    1    0    0    0  0.11459515531E+02 -0.28471942828E+01 -0.25489646353E+02  0.96908202573E+02  0.92747240624E+02 0.  0.
         13    1    3    3    0    0 -0.10281828974E+02 -0.13715988095E+02  0.30992776239E+02  0.35417618207E+02  0.10566000000E+00 0.  1.
         22    1    1    0    0    0 -0.11459515531E+02  0.28471942828E+01  0.25489646353E+02  0.28091797427E+02  0.00000000000E+00 0. -1.
</event>
<event>
 5    1  0.1758488E-003  0.9118800E+02  0.7818608E-02  0.1130116E+00
         25   -1    0    0    0    0  0.00000000000E+00  0.00000000000E+00  0.99999998245E-14  0.12500000000E+03  0.12500000000E+03 0.  0.
        -13    1    3    3    0    0  0.19255564304E+02 -0.57358082068E+02 -0.97658185400E+01  0.61287100690E+02  0.10566000000E+00 0. -1.
         23    2    1    0    0    0  0.14782022641E+02 -0.23382248970E+02  0.13221657964E+01  0.97305490027E+02  0.93281147649E+02 0.  0.
         13    1    3    3    0    0 -0.44735416636E+01  0.33975833098E+02  0.11087984336E+02  0.36018389336E+02  0.10566000000E+00 0.  1.
         22    1    1    0    0    0 -0.14782022641E+02  0.23382248970E+02 -0.13221657964E+01  0.27694509973E+02  0.00000000000E+00 0. -1.
</event>
<event>
 5    1  0.1758488E-003  0.9118800E+02  0.7818608E-02  0.1130116E+00
         25   -1    0    0    0    0  0.00000000000E+00  0.00000000000E+00  0.99999998245E-14  0.12500000000E+03  0.12500000000E+03 0.  0.
        -13    1    3    3    0    0  0.43121384651E+01 -0.43018795478E+01  0.59506693152E+02  0.59817709750E+02  0.10566000000E+00 0. -1.
         23    2    1    0    0    0  0.89189323428E+01 -0.12593710287E+02  0.24859543293E+02  0.95740031004E+02  0.91159243914E+02 0.  0.
         13    1    3    3    0    0  0.46067938777E+01 -0.82918307389E+01 -0.34647149859E+02  0.35922321253E+02  0.10566000000E+00 0.  1.
         22    1    1    0    0    0 -0.89189323428E+01  0.12593710287E+02 -0.24859543293E+02  0.29259968996E+02  0.00000000000E+00 0. -1.
</event>
<event>
 5    1  0.1758488E-003  0.9118800E+02  0.7818608E-02  0.1130116E+00
         25   -1    0    0    0    0  0.00000000000E+00  0.00000000000E+00  0.99999998245E-14  0.12500000000E+03  0.12500000000E+03 0.  0.
        -13    1    3    3    0    0  0.77068501827E+01 -0.38059753413E+02  0.24296181052E+01  0.38908284179E+02  0.10566000000E+00 0.  1.
         23    2    1    0    0    0 -0.22144279494E+02  0.58080200411E+01  0.19791575505E+02  0.94737669090E+02  0.89774257294E+02 0.  0.
         13    1    3    3    0    0 -0.29851129677E+02  0.43867773454E+02  0.17361957400E+02  0.55829384911E+02  0.10566000000E+00 0. -1.
         22    1    1    0    0    0  0.22144279494E+02 -0.58080200411E+01 -0.19791575505E+02  0.30262330910E+02  0.00000000000E+00 0. -1.
</event>
<event>
 5    1  0.1758488E-003  0.9118800E+02  0.7818608E-02  0.1130116E+00
         25   -1    0    0    0    0  0.00000000000E+00  0.00000000000E+00  0.99999998245E-14  0.12500000000E+03  0.12500000000E+03 0.  0.
        -13    1    3    3    0    0 -0.37719181815E+02 -0.44458427974E+02 -0.18588409720E+02  0.61195004981E+02  0.10566000000E+00 0.  1.
         23    2    1    0    0    0 -0.10542520804E+02 -0.24929089048E+02 -0.12398751285E+02  0.95228650365E+02  0.90455307148E+02 0.  0.
         13    1    3    3    0    0  0.27176661011E+02  0.19529338926E+02  0.61896584352E+01  0.34033645384E+02  0.10566000000E+00 0. -1.
         22    1    1    0    0    0  0.10542520804E+02  0.24929089048E+02  0.12398751285E+02  0.29771349635E+02  0.00000000000E+00 0.  1.
</event>
<event>
 5    1  0.1758488E-003  0.9118800E+02  0.7818608E-02  0.1130116E+00
         25   -1    0    0    0    0  0.00000000000E+00  0.00000000000E+00  0.99999998245E-14  0.12500000000E+03  0.12500000000E+03 0.  0.
        -13    1    3    3    0    0 -0.25631772320E+02 -0.40812450552E+02 -0.11684290089E+02  0.49590096504E+02  0.10566000000E+00 0.  1.
         23    2    1    0    0    0 -0.17164804828E+02  0.35169473796E+01 -0.22969553378E+02  0.96110558572E+02  0.91665913201E+02 0.  0.
         13    1    3    3    0    0  0.84669674926E+01  0.44329397931E+02 -0.11285263289E+02  0.46520462068E+02  0.10566000000E+00 0. -1.
         22    1    1    0    0    0  0.17164804828E+02 -0.35169473796E+01  0.22969553378E+02  0.28889441428E+02  0.00000000000E+00 0.  1.
</event>
<event>
 5    1  0.1758488E-003  0.9118800E+02  0.7818608E-02  0.1130116E+00
         25   -1    0    0    0    0  0.00000000000E+00  0.00000000000E+00  0.99999998245E-14  0.12500000000E+03  0.12500000000E+03 0.  0.
        -13    1    3    3    0    0  0.39096584670E+02 -0.26796288278E+02 -0.85465987502E+01  0.48162636063E+02  0.10566000000E+00 0. -1.
         23    2    1    0    0    0  0.23491137536E+02  0.95764424515E+01  0.16255194989E+02  0.94870725915E+02  0.89959332361E+02 0.  0.
         13    1    3    3    0    0 -0.15605447134E+02  0.36372730729E+02  0.24801793739E+02  0.46708089852E+02  0.10566000000E+00 0.  1.
         22    1    1    0    0    0 -0.23491137536E+02 -0.95764424515E+01 -0.16255194989E+02  0.30129274085E+02  0.00000000000E+00 0.  1.
</event>
<event>
 5    1  0.1758488E-003  0.9118800E+02  0.7818608E-02  0.1130116E+00
         25   -1    0    0    0    0  0.00000000000E+00  0.00000000000E+00  0.99999998245E-14  0.12500000000E+03  0.12500000000E+03 0.  0.
        -13    1    3    3    0    0 -0.31612704637E+02 -0.61246810017E+01  0.10436394597E+02  0.33849731284E+02  0.10566000000E+00 0.  1.
         23    2    1    0    0    0  0.21179107204E+02 -0.21219835993E+02 -0.11379286966E+02  0.92932505658E+02  0.87224574602E+02 0.  0.
         13    1    3    3    0    0  0.52791811841E+02 -0.15095154991E+02 -0.21815681562E+02  0.59082774374E+02  0.10566000000E+00 0. -1.
         22    1    1    0    0    0 -0.21179107204E+02  0.21219835993E+02  0.11379286966E+02  0.32067494342E+02  0.00000000000E+00 0. -1.
</event>
<event>
 5    1  0.1758488E-003  0.9118800E+02  0.7818608E-02  0.1130116E+00
         25   -1    0    0    0    0  0.00000000000E+00  0.00000000000E+00  0.99999998245E-14  0.12500000000E+03  0.12500000000E+03 0.  0.
        -13    1    3    3    0    0 -0.36016006416E+01  0.16853424742E+02  0.57321711155E+02  0.59856488257E+02  0.10566000000E+00 0. -1.
         23    2    1    0    0    0 -0.14379764529E+02  0.60080552854E+01  0.26667385031E+02  0.94112724617E+02  0.88899837762E+02 0.  0.
         13    1    3    3    0    0 -0.10778163887E+02 -0.10845369456E+02 -0.30654326124E+02  0.34256236360E+02  0.10566000000E+00 0.  1.
         22    1    1    0    0    0  0.14379764529E+02 -0.60080552854E+01 -0.26667385031E+02  0.30887275383E+02  0.00000000000E+00 0. -1.
</event>
<event>
 5    1  0.1758488E-003  0.9118800E+02  0.7818608E-02  0.1130116E+00
         25   -1    0    0    0    0  0.00000000000E+00  0.00000000000E+00  0.99999998245E-14  0.12500000000E+03  0.12500000000E+03 0.  0.
        -13    1    3    3    0    0 -0.27624918547E+02  0.10287733936E+02  0.42153744472E+02  0.51438535470E+02  0.10566000000E+00 0. -1.
         23    2    1    0    0    0  0.28268989376E+01  0.25451850477E+02  0.12800211918E+02  0.96370758385E+02  0.92020049969E+02 0.  0.
         13    1    3    3    0    0  0.30451817484E+02  0.15164116541E+02 -0.29353532555E+02  0.44932222915E+02  0.10566000000E+00 0.  1.
         22    1    1    0    0    0 -0.28268989376E+01 -0.25451850477E+02 -0.12800211918E+02  0.28629241615E+02  0.00000000000E+00 0. -1.
</event>
<event>
 5    1  0.1758488E-003  0.9118800E+02  0.7818608E-02  0.1130116E+00
         25   -1    0    0    0    0  0.00000000000E+00  0.00000000000E+00  0.99999998245E-14  0.12500000000E+03  0.12500000000E+03 0.  0.
        -13    1    3    3    0    0 -0.20599051966E+02  0.27047759863E+02 -0.48937435350E+01  0.34349121464E+02  0.10566000000E+00 0.  1.
         23    2    1    0    0    0  0.16982356176E+01 -0.28747577139E+02  0.64314114286E+01  0.95492878003E+02  0.90819708768E+02 0.  0.
         13    1    3    3    0    0  0.22297287584E+02 -0.55795337002E+02  0.11325154964E+02  0.61143756539E+02  0.10566000000E+00 0. -1.
         22    1    1    0    0    0 -0.16982356176E+01  0.28747577139E+02 -0.64314114286E+01  0.29507121997E+02  0.00000000000E+00 0. -1.
</event>
<event>
 5    1  0.1758488E-003  0.9118800E+02  0.7818608E-02  0.1130116E+00
         25   -1    0    0    0    0  0.00000000000E+00  0.00000000000E+00  0.99999998245E-14  0.12500000000E+03  0.12500000000E+03 0.  0.
        -13    1    3    3    0    0  0.21478313890E+02 -0.29760284329E+02 -0.17587178896E+02  0.40697819554E+02  0.10566000000E+00 0. -1.
         23    2    1    0    0    0  0.78185365927E+01  0.11759456057E+01  0.27117841449E+02  0.96753058796E+02  0.92537909524E+02 0.  0.
         13    1    3    3    0    0 -0.13659777298E+02  0.30936229935E+02  0.44705020345E+02  0.56055239242E+02  0.10566000000E+00 0.  1.
         22    1    1    0    0    0 -0.78185365927E+01 -0.11759456057E+01 -0.27117841449E+02  0.28246941204E+02  0.00000000000E+00 0.  1.
</event>
<event>
 5    1  0.1758488E-003  0.9118800E+02  0.7818608E-02  0.1130116E+00
         25   -1    0    0    0    0  0.00000000000E+00  0.00000000000E+00  0.99999998245E-14  0.12500000000E+03  0.12500000000E+03 0.  0.
        -13    1    3    3    0    0 -0.26113185768E+02  0.19215856778E+02 -0.32479548567E+02  0.45892045736E+02  0.10566000000E+00 0.  1.
         23    2    1    0    0    0 -0.24576195140E+02 -0.19387696680E+02 -0.50048162344E+01  0.93299521523E+02  0.87748962277E+02 0.  0.
         13    1    3    3    0    0  0.15369906277E+01 -0.38603553458E+02  0.27474732332E+02  0.47407475787E+02  0.10566000000E+00 0. -1.
         22    1    1    0    0    0  0.24576195140E+02  0.19387696680E+02  0.50048162344E+01  0.31700478477E+02  0.00000000000E+00 0.  1.
</event>
<event>
 5    1  0.1758488E-003  0.9118800E+02  0.7818608E-02  0.1130116E+00
         25   -1    0    0    0    0  0.00000000000E+00  0.00000000000E+00  0.99999998245E-14  0.12500000000E+03  0.12500000000E+03 0.  0.
        -13    1    3    3    0    0 -0.18494250523E+02  0.38767019176E+02 -0.27235325576E+02  0.50859543858E+02  0.10566000000E+00 0.  1.
         23    2    1    0    0    0  0.76623222345E+01  0.26126456128E+02  0.80904325127E+01  0.96596514473E+02  0.92326207646E+02 0.  0.
         13    1    3    3    0    0  0.26156572757E+02 -0.12640563048E+02  0.35325758088E+02  0.45736970616E+02  0.10566000000E+00 0. -1.
         22    1    1    0    0    0 -0.76623222345E+01 -0.26126456128E+02 -0.80904325127E+01  0.28403485527E+02  0.00000000000E+00 0.  1.
</event>
<event>
 5    1  0.1758488E-003  0.9118800E+02  0.7818608E-02  0.1130116E+00
         25   -1    0    0    0    0  0.00000000000E+00  0.00000000000E+00  0.99999998245E-14  0.12500000000E+03  0.12500000000E+03 0.  0.
        -13    1    3    3    0    0  0.33312396429E+02  0.33154639140E+02  0.15772637238E+02  0.49575529264E+02  0.10566000000E+00 0. -1.
         23    2    1    0    0    0  0.20845099960E+02 -0.10156911834E+02  0.19365737877E+02  0.94788862090E+02  0.89845509194E+02 0.  0.
         13    1    3    3    0    0 -0.12467296469E+02 -0.43311550973E+02  0.35931006393E+01  0.45213332826E+02  0.10566000000E+00 0.  1.
         22    1    1    0    0    0 -0.20845099960E+02  0.10156911834E+02 -0.19365737877E+02  0.30211137910E+02  0.00000000000E+00 0. -1.
</event>
<event>
 5    1  0.1758488E-003  0.9118800E+02  0.7818608E-02  0.1130116E+00
         25   -1    0    0    0    0  0.00000000000E+00  0.00000000000E+00  0.99999998245E-14  0.12500000000E+03  0.12500000000E+03 0.  0.
        -13    1    3    3    0    0  0.23100127906E+02  0.30277068443E+02  0.38152291540E+02  0.53906634996E+02  0.10566000000E+00 0.  1.
         23    2    1    0    0    0 -0.12476622115E+02  0.16707875364E+02  0.20067812407E+02  0.96059780695E+02  0.91596643900E+02 0.  0.
         13    1    3    3    0    0 -0.35576750021E+02 -0.13569193079E+02 -0.18084479132E+02  0.42153145700E+02  0.10566000000E+00 0. -1.
         22    1    1    0    0    0  0.12476622115E+02 -0.16707875364E+02 -0.20067812407E+02  0.28940219305E+02  0.00000000000E+00 0. -1.
</event>
<event>
 5    1  0.1758488E-003  0.9118800E+02  0.7818608E-02  0.1130116E+00
         25   -1    0    0    0    0  0.00000000000E+00  0.00000000000E+00  0.99999998245E-14  0.12500000000E+03  0.12500000000E+03 0.  0.
        -13    1    3    3    0    0  0.22725612203E+02  0.25303215687E+02 -0.78640712094E+01  0.34907892433E+02  0.10566000000E+00 0.  1.
         23    2    1    0    0    0 -0.29348821348E+02 -0.38885025902E+01  0.15978937215E+01  0.95351609972E+02  0.90625065479E+02 0.  0.
         13    1    3    3    0    0 -0.52074433550E+02 -0.29191718277E+02  0.94619649309E+01  0.60443717539E+02  0.10566000000E+00 0. -1.
         22    1    1    0    0    0  0.29348821348E+02  0.38885025902E+01 -0.15978937215E+01  0.29648390028E+02  0.00000000000E+00 0. -1.
</event>
<event>
 5    1  0.1758488E-003  0.9118800E+02  0.7818608E-02  0.1130116E+00
         25   -1    0    0    0    0  0.00000000000E+00  0.00000000000E+00  0.99999998245E-14  0.12500000000E+03  0.12500000000E+03 0.  0.
        -13    1    3    3    0    0 -0.22764760738E+02  0.10936895824E+02 -0.28504959440E+02  0.38084037317E+02  0.10566000000E+00 0.  1.
         23    2    1    0    0    0  0.10491420938E+01  0.23142345864E+02  0.20595128662E+02  0.94002771158E+02  0.88745100088E+02 0.  0.
         13    1    3    3    0    0  0.23813902831E+02  0.12205450041E+02  0.49100088102E+02  0.55918733841E+02  0.10566000000E+00 0. -1.
         22    1    1    0    0    0 -0.10491420938E+01 -0.23142345864E+02 -0.20595128662E+02  0.30997228842E+02  0.00000000000E+00 0. -1.
</event>
<event>
 5    1  0.1758488E-003  0.9118800E+02  0.7818608E-02  0.1130116E+00
         25   -1    0    0    0    0  0.00000000000E+00  0.00000000000E+00  0.99999998245E-14  0.12500000000E+03  0.12500000000E+03 0.  0.
        -13    1    3    3    0    0 -0.98689972039E+01 -0.15077727553E+02 -0.39529996481E+02  0.43443834543E+02  0.10566000000E+00 0.  1.
         23    2    1    0    0    0 -0.26731762541E+02 -0.80950267852E+01  0.92907592525E+01  0.95564735526E+02  0.90918556310E+02 0.  0.
         13    1    3    3    0    0 -0.16862765337E+02  0.69827007673E+01  0.48820755734E+02  0.52120900983E+02  0.10566000000E+00 0. -1.
         22    1    1    0    0    0  0.26731762541E+02  0.80950267852E+01 -0.92907592525E+01  0.29435264474E+02  0.00000000000E+00 0. -1.
</event>
<event>
 5    1  0.1758488E-003  0.9118800E+02  0.7818608E-02  0.1130116E+00
         25   -1    0    0    0    0  0.00000000000E+00  0.00000000000E+00  0.99999998245E-14  0.12500000000E+03  0.12500000000E+03 0.  0.
        -13    1    3    3    0    0 -0.47359605968E+02  0.14726130277E+02  0.24657943869E+01  0.49657652949E+02  0.10566000000E+00 0. -1.
         23    2    1    0    0    0 -0.17553122240E+02 -0.18212489873E+02  0.14712872855E+02  0.95737814241E+02  0.91156204179E+02 0.  0.
         13    1    3    3    0    0  0.29806483729E+02 -0.32938620150E+02  0.12247078468E+02  0.46080161292E+02  0.10566000000E+00 0.  1.
         22    1    1    0    0    0  0.17553122240E+02  0.18212489873E+02 -0.14712872855E+02  0.29262185759E+02  0.00000000000E+00 0. -1.
</event>
<event>
 5    1  0.1758488E-003  0.9118800E+02  0.7818608E-02  0.1130116E+00
         25   -1    0    0    0    0  0.00000000000E+00  0.00000000000E+00  0.99999998245E-14  0.12500000000E+03  0.12500000000E+03 0.  0.
        -13    1    3    3    0    0 -0.35919980130E+01 -0.33258142398E+02  0.10544898079E+02  0.35074385597E+02  0.10566000000E+00 0. -1.
         23    2    1    0    0    0  0.76097652489E+01  0.63496368365E+01 -0.30335167726E+02  0.93086855121E+02  0.87445490337E+02 0.  0.
         13    1    3    3    0    0  0.11201763262E+02  0.39607779234E+02 -0.40880065805E+02  0.58012469524E+02  0.10566000000E+00 0.  1.
         22    1    1    0    0    0 -0.76097652489E+01 -0.63496368365E+01  0.30335167726E+02  0.31913144879E+02  0.00000000000E+00 0.  1.
</event>
<event>
 5    1  0.1758488E-003  0.9118800E+02  0.7818608E-02  0.1130116E+00
         25   -1    0    0    0    0  0.00000000000E+00  0.00000000000E+00  0.99999998245E-14  0.12500000000E+03  0.12500000000E+03 0.  0.
        -13    1    3    3    0    0 -0.39064775140E+02  0.17275840049E+02  0.97236680073E+01  0.43807216183E+02  0.10566000000E+00 0.  1.
         23    2    1    0    0    0  0.20621387609E+01 -0.10263370563E+02  0.26849253497E+02  0.96182095758E+02  0.91763412858E+02 0.  0.
         13    1    3    3    0    0  0.41126913900E+02 -0.27539210612E+02  0.17125585490E+02  0.52374879575E+02  0.10566000000E+00 0. -1.
         22    1    1    0    0    0 -0.20621387609E+01  0.10263370563E+02 -0.26849253497E+02  0.28817904242E+02  0.00000000000E+00 0. -1.
</event>
<event>
 5    1  0.1758488E-003  0.9118800E+02  0.7818608E-02  0.1130116E+00
         25   -1    0    0    0    0  0.00000000000E+00  0.00000000000E+00  0.99999998245E-14  0.12500000000E+03  0.12500000000E+03 0.  0.
        -13    1    3    3    0    0 -0.90536098176E+01  0.25770580687E+02  0.27230386749E+02  0.38569363570E+02  0.10566000000E+00 0.  1.
         23    2    1    0    0    0 -0.10994779561E+02 -0.26987792605E+02  0.77200810763E+01  0.94853262546E+02  0.89935063443E+02 0.  0.
         13    1    3    3    0    0 -0.19411697436E+01 -0.52758373292E+02 -0.19510305673E+02  0.56283898976E+02  0.10566000000E+00 0. -1.
         22    1    1    0    0    0  0.10994779561E+02  0.26987792605E+02 -0.77200810763E+01  0.30146737454E+02  0.00000000000E+00 0. -1.
</event>
<event>
 5    1  0.1758488E-003  0.9118800E+02  0.7818608E-02  0.1130116E+00
         25   -1    0    0    0    0  0.00000000000E+00  0.00000000000E+00  0.99999998245E-14  0.12500000000E+03  0.12500000000E+03 0.  0.
        -13    1    3    3    0    0 -0.53314893057E+02 -0.89542825947E+00 -0.30740633580E+01  0.53411053566E+02  0.10566000000E+00 0.  1.
         23    2    1    0    0    0 -0.19295590057E+02 -0.29906009996E+01  0.21895586178E+02  0.95662648653E+02  0.91053073332E+02 0.  0.
         13    1    3    3    0    0  0.34019303000E+02 -0.20951727402E+01  0.24969649536E+02  0.42251595087E+02  0.10566000000E+00 0. -1.
         22    1    1    0    0    0  0.19295590057E+02  0.29906009996E+01 -0.21895586178E+02  0.29337351347E+02  0.00000000000E+00 0.  1.
</event>
<event>
 5    1  0.1758488E-003  0.9118800E+02  0.7818608E-02  0.1130116E+00
         25   -1    0    0    0    0  0.00000000000E+00  0.00000000000E+00  0.99999998245E-14  0.12500000000E+03  0.12500000000E+03 0.  0.
        -13    1    3    3    0    0 -0.52210538160E+01 -0.36591807145E+02 -0.29219271518E+02  0.47116841417E+02  0.10566000000E+00 0.  1.
         23    2    1    0    0    0 -0.14517211366E+02  0.12845444985E+02 -0.17761091077E+02  0.98709103496E+02  0.95143448929E+02 0.  0.
         13    1    3    3    0    0 -0.92961575504E+01  0.49437252130E+02  0.11458180440E+02  0.51592262079E+02  0.10566000000E+00 0. -1.
         22    1    1    0    0    0  0.14517211366E+02 -0.12845444985E+02  0.17761091077E+02  0.26290896504E+02  0.00000000000E+00 0. -1.
</event>
<event>
 5    1  0.1758488E-003  0.9118800E+02  0.7818608E-02  0.1130116E+00
         25   -1    0    0    0    0  0.00000000000E+00  0.00000000000E+00  0.99999998245E-14  0.12500000000E+03  0.12500000000E+03 0.  0.
        -13    1    3    3    0    0 -0.49314512491E+02  0.29581360065E+02  0.18857332724E+01  0.57537337091E+02  0.10566000000E+00 0.  1.
         23    2    1    0    0    0 -0.14723608583E+02  0.22602182246E+02  0.13693397593E+02  0.94748513596E+02  0.89789355711E+02 0.  0.
         13    1    3    3    0    0  0.34590903907E+02 -0.69791778193E+01  0.11807664321E+02  0.37211176505E+02  0.10566000000E+00 0. -1.
         22    1    1    0    0    0  0.14723608583E+02 -0.22602182246E+02 -0.13693397593E+02  0.30251486404E+02  0.00000000000E+00 0.  1.
</event>
<event>
 5    1  0.1758488E-003  0.9118800E+02  0.7818608E-02  0.1130116E+00
         25   -1    0    0    0    0  0.00000000000E+00  0.00000000000E+00  0.99999998245E-14  0.12500000000E+03  0.12500000000E+03 0.  0.
        -13    1    3    3    0    0  0.36270929047E+02 -0.33581152283E+01 -0.13832191702E+02  0.38964059377E+02  0.10566000000E+00 0.  1.
         23    2    1    0    0    0 -0.78495251796E+01  0.27777950423E+02  0.40564681505E+01  0.95850651653E+02  0.91310803923E+02 0.  0.
         13    1    3    3    0    0 -0.44120454227E+02  0.31136065651E+02  0.17888659853E+02  0.56886592276E+02  0.10566000000E+00 0. -1.
         22    1    1    0    0    0  0.78495251796E+01 -0.27777950423E+02 -0.40564681505E+01  0.29149348347E+02  0.00000000000E+00 0. -1.
</event>
<event>
 5    1  0.1758488E-003  0.9118800E+02  0.7818608E-02  0.1130116E+00
         25   -1    0    0    0    0  0.00000000000E+00  0.00000000000E+00  0.99999998245E-14  0.12500000000E+03  0.12500000000E+03 0.  0.
        -13    1    3    3    0    0  0.46608068687E+02  0.28626402005E+02  0.23217329215E+02  0.59420859119E+02  0.10566000000E+00 0.  1.
         23    2    1    0    0    0  0.18702230192E+02  0.16851603468E+02 -0.32150357311E+01  0.99621142493E+02  0.96334239102E+02 0.  0.
         13    1    3    3    0    0 -0.27905838495E+02 -0.11774798537E+02 -0.26432364946E+02  0.40200283375E+02  0.10566000000E+00 0. -1.
         22    1    1    0    0    0 -0.18702230192E+02 -0.16851603468E+02  0.32150357311E+01  0.25378857507E+02  0.00000000000E+00 0.  1.
</event>
<event>
 5    1  0.1758488E-003  0.9118800E+02  0.7818608E-02  0.1130116E+00
         25   -1    0    0    0    0  0.00000000000E+00  0.00000000000E+00  0.99999998245E-14  0.12500000000E+03  0.12500000000E+03 0.  0.
        -13    1    3    3    0    0  0.96712286939E+01  0.20246064237E+02 -0.49025718949E+02  0.53916306106E+02  0.10566000000E+00 0.  1.
         23    2    1    0    0    0  0.21073131207E+02 -0.67798292088E+01 -0.20752183252E+02  0.94657026305E+02  0.89661901476E+02 0.  0.
         13    1    3    3    0    0  0.11401902513E+02 -0.27025893446E+02  0.28273535698E+02  0.40740720199E+02  0.10566000000E+00 0. -1.
         22    1    1    0    0    0 -0.21073131207E+02  0.67798292088E+01  0.20752183252E+02  0.30342973695E+02  0.00000000000E+00 0.  1.
</event>
<event>
 5    1  0.1758488E-003  0.9118800E+02  0.7818608E-02  0.1130116E+00
         25   -1    0    0    0    0  0.00000000000E+00  0.00000000000E+00  0.99999998245E-14  0.12500000000E+03  0.12500000000E+03 0.  0.
        -13    1    3    3    0    0  0.16945870924E+02  0.41005843148E+02  0.25805504734E+01  0.44444483554E+02  0.10566000000E+00 0. -1.
         23    2    1    0    0    0  0.12019833019E+01  0.25719571165E+01 -0.28524573962E+02  0.96334497267E+02  0.91970779689E+02 0.  0.
         13    1    3    3    0    0 -0.15743887622E+02 -0.38433886031E+02 -0.31105124435E+02  0.51890013712E+02  0.10566000000E+00 0.  1.
         22    1    1    0    0    0 -0.12019833019E+01 -0.25719571165E+01  0.28524573962E+02  0.28665502733E+02  0.00000000000E+00 0.  1.
</event>
<event>
 5    1  0.1758488E-003  0.9118800E+02  0.7818608E-02  0.1130116E+00
         25   -1    0    0    0    0  0.00000000000E+00  0.00000000000E+00  0.99999998245E-14  0.12500000000E+03  0.12500000000E+03 0.  0.
        -13    1    3    3    0    0  0.35443429738E+02  0.29166852105E+02 -0.15278288205E+02  0.48377466116E+02  0.10566000000E+00 0.  1.
         23    2    1    0    0    0  0.11415425156E+02 -0.17643018712E+02  0.23180097710E+01  0.10385854286E+03  0.10168399931E+03 0.  0.
         13    1    3    3    0    0 -0.24028004582E+02 -0.46809870817E+02  0.17596297976E+02  0.55481076743E+02  0.10566000000E+00 0. -1.
         22    1    1    0    0    0 -0.11415425156E+02  0.17643018712E+02 -0.23180097710E+01  0.21141457141E+02  0.00000000000E+00 0. -1.
</event>
<event>
 5    1  0.1758488E-003  0.9118800E+02  0.7818608E-02  0.1130116E+00
         25   -1    0    0    0    0  0.00000000000E+00  0.00000000000E+00  0.99999998245E-14  0.12500000000E+03  0.12500000000E+03 0.  0.
        -13    1    3    3    0    0  0.26326495067E+02  0.30770774326E+02 -0.44733791253E+02  0.60341098259E+02  0.10566000000E+00 0.  1.
         23    2    1    0    0    0  0.13596063539E+01  0.16714494286E+02 -0.24057686674E+02  0.95674326320E+02  0.91069103323E+02 0.  0.
         13    1    3    3    0    0 -0.24966888714E+02 -0.14056280041E+02  0.20676104579E+02  0.35333228061E+02  0.10566000000E+00 0. -1.
         22    1    1    0    0    0 -0.13596063539E+01 -0.16714494286E+02  0.24057686674E+02  0.29325673680E+02  0.00000000000E+00 0.  1.
</event>
<event>
 5    1  0.1758488E-003  0.9118800E+02  0.7818608E-02  0.1130116E+00
         25   -1    0    0    0    0  0.00000000000E+00  0.00000000000E+00  0.99999998245E-14  0.12500000000E+03  0.12500000000E+03 0.  0.
        -13    1    3    3    0    0 -0.27575641738E+01 -0.19897021640E+02  0.30853497710E+02  0.36816370207E+02  0.10566000000E+00 0. -1.
         23    2    1    0    0    0 -0.20998905719E+02  0.21658402540E+02 -0.47020851154E+01  0.94468867588E+02  0.89399199643E+02 0.  0.
         13    1    3    3    0    0 -0.18241341545E+02  0.41555424180E+02 -0.35555582825E+02  0.57652497380E+02  0.10566000000E+00 0.  1.
         22    1    1    0    0    0  0.20998905719E+02 -0.21658402540E+02  0.47020851154E+01  0.30531132412E+02  0.00000000000E+00 0.  1.
</event>
<event>
 5    1  0.1758488E-003  0.9118800E+02  0.7818608E-02  0.1130116E+00
         25   -1    0    0    0    0  0.00000000000E+00  0.00000000000E+00  0.99999998245E-14  0.12500000000E+03  0.12500000000E+03 0.  0.
        -13    1    3    3    0    0  0.40286822948E+02  0.10034710061E+02 -0.10362723105E+02  0.42791596178E+02  0.10566000000E+00 0.  1.
         23    2    1    0    0    0 -0.57609276948E+01  0.22540843211E+02  0.15479010567E+02  0.97055811539E+02  0.92945967556E+02 0.  0.
         13    1    3    3    0    0 -0.46047750643E+02  0.12506133150E+02  0.25841733672E+02  0.54264215362E+02  0.10566000000E+00 0. -1.
         22    1    1    0    0    0  0.57609276948E+01 -0.22540843211E+02 -0.15479010567E+02  0.27944188461E+02  0.00000000000E+00 0. -1.
</event>
<event>
 5    1  0.1758488E-003  0.9118800E+02  0.7818608E-02  0.1130116E+00
         25   -1    0    0    0    0  0.00000000000E+00  0.00000000000E+00  0.99999998245E-14  0.12500000000E+03  0.12500000000E+03 0.  0.
        -13    1    3    3    0    0 -0.52358912314E+02 -0.21099302171E+02  0.20066482831E+02  0.59910860017E+02  0.10566000000E+00 0.  1.
         23    2    1    0    0    0 -0.23415209443E+02 -0.16443254246E+02 -0.15672588131E+01  0.96345001419E+02  0.91985055062E+02 0.  0.
         13    1    3    3    0    0  0.28943702870E+02  0.46560479250E+01 -0.21633741644E+02  0.36434141402E+02  0.10566000000E+00 0. -1.
         22    1    1    0    0    0  0.23415209443E+02  0.16443254246E+02  0.15672588131E+01  0.28654998581E+02  0.00000000000E+00 0.  1.
</event>
<event>
 5    1  0.1758488E-003  0.9118800E+02  0.7818608E-02  0.1130116E+00
         25   -1    0    0    0    0  0.00000000000E+00  0.00000000000E+00  0.99999998245E-14  0.12500000000E+03  0.12500000000E+03 0.  0.
        -13    1    3    3    0    0  0.31563797811E+02  0.10527116072E+02 -0.39900867124E+02  0.51953670384E+02  0.10566000000E+00 0.  1.
         23    2    1    0    0    0  0.95359028549E+00 -0.16225334215E+02 -0.24856244980E+02  0.95301452572E+02  0.90555856481E+02 0.  0.
         13    1    3    3    0    0 -0.30610207525E+02 -0.26752450287E+02  0.15044622144E+02  0.43347782188E+02  0.10566000000E+00 0. -1.
         22    1    1    0    0    0 -0.95359028549E+00  0.16225334215E+02  0.24856244980E+02  0.29698547428E+02  0.00000000000E+00 0.  1.
</event>
<event>
 5    1  0.1758488E-003  0.9118800E+02  0.7818608E-02  0.1130116E+00
         25   -1    0    0    0    0  0.00000000000E+00  0.00000000000E+00  0.99999998245E-14  0.12500000000E+03  0.12500000000E+03 0.  0.
        -13    1    3    3    0    0 -0.30744947876E+02  0.43760611769E+00 -0.21406239993E+02  0.37465738931E+02  0.10566000000E+00 0. -1.
         23    2    1    0    0    0  0.21832536323E+02  0.19177240045E+02 -0.74021225140E+01  0.95013042906E+02  0.90156867328E+02 0.  0.
         13    1    3    3    0    0  0.52577484199E+02  0.18739633928E+02  0.14004117479E+02  0.57547303975E+02  0.10566000000E+00 0.  1.
         22    1    1    0    0    0 -0.21832536323E+02 -0.19177240045E+02  0.74021225140E+01  0.29986957094E+02  0.00000000000E+00 0.  1.
</event>
<event>
 5    1  0.1758488E-003  0.9118800E+02  0.7818608E-02  0.1130116E+00
         25   -1    0    0    0    0  0.00000000000E+00  0.00000000000E+00  0.99999998245E-14  0.12500000000E+03  0.12500000000E+03 0.  0.
        -13    1    3    3    0    0 -0.40579646936E+02  0.23031516432E+02  0.42277731191E+01  0.46851293730E+02  0.10566000000E+00 0.  1.
         23    2    1    0    0    0  0.38577364471E+01  0.22881206659E+02 -0.17132654532E+02  0.96156290114E+02  0.91728253709E+02 0.  0.
         13    1    3    3    0    0  0.44437383383E+02 -0.15030977236E+00 -0.21360427651E+02  0.49304996384E+02  0.10566000000E+00 0. -1.
         22    1    1    0    0    0 -0.38577364471E+01 -0.22881206659E+02  0.17132654532E+02  0.28843709886E+02  0.00000000000E+00 0. -1.
</event>
<event>
 5    1  0.1758488E-003  0.9118800E+02  0.7818608E-02  0.1130116E+00
         25   -1    0    0    0    0  0.00000000000E+00  0.00000000000E+00  0.99999998245E-14  0.12500000000E+03  0.12500000000E+03 0.  0.
        -13    1    3    3    0    0  0.29161499418E+02  0.25695198190E+02  0.44364122738E+02  0.58981546340E+02  0.10566000000E+00 0. -1.
         23    2    1    0    0    0  0.49767870831E+01  0.32820954434E+01  0.29062071757E+02  0.95332769341E+02  0.90599074694E+02 0.  0.
         13    1    3    3    0    0 -0.24184712335E+02 -0.22413102746E+02 -0.15302050981E+02  0.36351223002E+02  0.10566000000E+00 0.  1.
         22    1    1    0    0    0 -0.49767870831E+01 -0.32820954434E+01 -0.29062071757E+02  0.29667230659E+02  0.00000000000E+00 0. -1.
</event>
<event>
 5    1  0.1758488E-003  0.9118800E+02  0.7818608E-02  0.1130116E+00
         25   -1    0    0    0    0  0.00000000000E+00  0.00000000000E+00  0.99999998245E-14  0.12500000000E+03  0.12500000000E+03 0.  0.
        -13    1    3    3    0    0 -0.44728703855E+01  0.49743539583E+02 -0.24010780129E+02  0.55416198229E+02  0.10566000000E+00 0.  1.
         23    2    1    0    0    0 -0.11070535615E+02  0.26303649785E+02  0.77408960676E+01  0.95430417272E+02  0.90733700012E+02 0.  0.
         13    1    3    3    0    0 -0.65976652294E+01 -0.23439889799E+02  0.31751676196E+02  0.40014219042E+02  0.10566000000E+00 0. -1.
         22    1    1    0    0    0  0.11070535615E+02 -0.26303649785E+02 -0.77408960676E+01  0.29569582728E+02  0.00000000000E+00 0.  1.
</event>
<event>
 5    1  0.1758488E-003  0.9118800E+02  0.7818608E-02  0.1130116E+00
         25   -1    0    0    0    0  0.00000000000E+00  0.00000000000E+00  0.99999998245E-14  0.12500000000E+03  0.12500000000E+03 0.  0.
        -13    1    3    3    0    0 -0.11482724615E+02 -0.30122164156E+02  0.27403429919E+02  0.42310245490E+02  0.10566000000E+00 0. -1.
         23    2    1    0    0    0  0.25790303103E+02 -0.12601628949E+01 -0.38825483715E+01  0.98888662874E+02  0.95379063313E+02 0.  0.
         13    1    3    3    0    0  0.37273027718E+02  0.28862001261E+02 -0.31285978291E+02  0.56578417384E+02  0.10566000000E+00 0.  1.
         22    1    1    0    0    0 -0.25790303103E+02  0.12601628949E+01  0.38825483715E+01  0.26111337126E+02  0.00000000000E+00 0.  1.
</event>
<event>
 5    1  0.1758488E-003  0.9118800E+02  0.7818608E-02  0.1130116E+00
         25   -1    0    0    0    0  0.00000000000E+00  0.00000000000E+00  0.99999998245E-14  0.12500000000E+03  0.12500000000E+03 0.  0.
        -13    1    3    3    0    0  0.11542108205E+02  0.15921882801E+02 -0.38204113879E+02  0.42968501196E+02  0.10566000000E+00 0. -1.
         23    2    1    0    0    0  0.22250366441E+02  0.13353188136E+02  0.13441852172E+02  0.95775526866E+02  0.91207903805E+02 0.  0.
         13    1    3    3    0    0  0.10708258237E+02 -0.25686946655E+01  0.51645966051E+02  0.52807025670E+02  0.10566000000E+00 0.  1.
         22    1    1    0    0    0 -0.22250366441E+02 -0.13353188136E+02 -0.13441852172E+02  0.29224473134E+02  0.00000000000E+00 0.  1.
</event>
<event>
 5    1  0.1758488E-003  0.9118800E+02  0.7818608E-02  0.1130116E+00
         25   -1    0    0    0    0  0.00000000000E+00  0.00000000000E+00  0.99999998245E-14  0.12500000000E+03  0.12500000000E+03 0.  0.
        -13    1    3    3    0    0  0.44924809841E+02 -0.90797495948E+01  0.11641779059E+02  0.47288715098E+02  0.10566000000E+00 0.  1.
         23    2    1    0    0    0  0.27015961073E+01 -0.29713857102E+02  0.42217752667E+01  0.94866375727E+02  0.89953287498E+02 0.  0.
         13    1    3    3    0    0 -0.42223213733E+02 -0.20634107508E+02 -0.74200037918E+01  0.47577660629E+02  0.10566000000E+00 0. -1.
         22    1    1    0    0    0 -0.27015961073E+01  0.29713857102E+02 -0.42217752667E+01  0.30133624273E+02  0.00000000000E+00 0. -1.
</event>
<event>
 4    1  0.1758488E-003  0.9118800E+02  0.7818608E-02  0.1130116E+00
         25   -1    0    0    0    0  0.00000000000E+00  0.00000000000E+00  0.99999998245E-14  0.12500000000E+03  0.12500000000E+03 0.  0.
        -13    1    1    0    0    0  0.26910351163E+01  0.65660879572E+01 -0.16429477770E+02  0.17896761855E+02  0.10566000000E+00 0.  1.
         13    1    1    0    0    0  0.46534495171E+02 -0.20635369601E+02 -0.59067162225E+01  0.51246250399E+02  0.10566000000E+00 0. -1.
         22    1    1    0    0    0 -0.49225530287E+02  0.14069281644E+02  0.22336193993E+02  0.55856987746E+02  0.00000000000E+00 0. -1.
</event>
<event>
 4    1  0.1758488E-003  0.9118800E+02  0.7818608E-02  0.1130116E+00
         25   -1    0    0    0    0  0.00000000000E+00  0.00000000000E+00  0.99999998245E-14  0.12500000000E+03  0.12500000000E+03 0.  0.
        -13    1    1    0    0    0  0.14824642173E+02  0.12960850388E+02 -0.58922433418E+02  0.62125823796E+02  0.10566000000E+00 0. -1.
         13    1    1    0    0    0 -0.46848699940E+01 -0.14665704954E+00  0.68715936070E+01  0.83186223550E+01  0.10566000000E+00 0.  1.
         22    1    1    0    0    0 -0.10139772179E+02 -0.12814193338E+02  0.52050839811E+02  0.54555553849E+02  0.00000000000E+00 0. -1.
</event>
<event>
 5    1  0.1758488E-003  0.9118800E+02  0.7818608E-02  0.1130116E+00
         25   -1    0    0    0    0  0.00000000000E+00  0.00000000000E+00  0.99999998245E-14  0.12500000000E+03  0.12500000000E+03 0.  0.
        -13    1    3    3    0    0  0.19813374469E+02  0.35353596858E+02 -0.88814034893E+01  0.41488999875E+02  0.10566000000E+00 0. -1.
         23    2    1    0    0    0  0.16839001449E+02 -0.10379762202E+02  0.20961140444E+02  0.96178812621E+02  0.91758940466E+02 0.  0.
         13    1    3    3    0    0 -0.29743730195E+01 -0.45733359060E+02  0.29842543934E+02  0.54689812747E+02  0.10566000000E+00 0.  1.
         22    1    1    0    0    0 -0.16839001449E+02  0.10379762202E+02 -0.20961140444E+02  0.28821187379E+02  0.00000000000E+00 0.  1.
</event>
<event>
 5    1  0.1758488E-003  0.9118800E+02  0.7818608E-02  0.1130116E+00
         25   -1    0    0    0    0  0.00000000000E+00  0.00000000000E+00  0.99999998245E-14  0.12500000000E+03  0.12500000000E+03 0.  0.
        -13    1    3    3    0    0  0.12988175811E+02 -0.41634277077E+02  0.35518040730E+02  0.56246316501E+02  0.10566000000E+00 0.  1.
         23    2    1    0    0    0 -0.11991269814E+01 -0.32614319753E+01  0.26670922167E+02  0.98103663199E+02  0.94344664925E+02 0.  0.
         13    1    3    3    0    0 -0.14187302792E+02  0.38372845102E+02 -0.88471185624E+01  0.41857346698E+02  0.10566000000E+00 0. -1.
         22    1    1    0    0    0  0.11991269814E+01  0.32614319753E+01 -0.26670922167E+02  0.26896336801E+02  0.00000000000E+00 0.  1.
</event>
<event>
 5    1  0.1758488E-003  0.9118800E+02  0.7818608E-02  0.1130116E+00
         25   -1    0    0    0    0  0.00000000000E+00  0.00000000000E+00  0.99999998245E-14  0.12500000000E+03  0.12500000000E+03 0.  0.
        -13    1    3    3    0    0  0.16984189937E+02  0.27710220814E+02 -0.16800908564E+02  0.36586892981E+02  0.10566000000E+00 0.  1.
         23    2    1    0    0    0 -0.45796966767E+01 -0.25176469322E+02 -0.18000408295E+02  0.93713534429E+02  0.88336762490E+02 0.  0.
         13    1    3    3    0    0 -0.21563886614E+02 -0.52886690136E+02 -0.11994997308E+01  0.57126641448E+02  0.10566000000E+00 0. -1.
         22    1    1    0    0    0  0.45796966767E+01  0.25176469322E+02  0.18000408295E+02  0.31286465571E+02  0.00000000000E+00 0. -1.
</event>
<event>
 5    1  0.1758488E-003  0.9118800E+02  0.7818608E-02  0.1130116E+00
         25   -1    0    0    0    0  0.00000000000E+00  0.00000000000E+00  0.99999998245E-14  0.12500000000E+03  0.12500000000E+03 0.  0.
        -13    1    3    3    0    0  0.62520163503E+01  0.33023662118E+02 -0.20069414781E+02  0.39146424381E+02  0.10566000000E+00 0.  1.
         23    2    1    0    0    0 -0.17434129418E+02 -0.17718906701E+02 -0.16305780603E+02  0.95271444631E+02  0.90514425136E+02 0.  0.
         13    1    3    3    0    0 -0.23686145768E+02 -0.50742568820E+02  0.37636341784E+01  0.56125020250E+02  0.10566000000E+00 0. -1.
         22    1    1    0    0    0  0.17434129418E+02  0.17718906701E+02  0.16305780603E+02  0.29728555369E+02  0.00000000000E+00 0. -1.
</event>
<event>
 5    1  0.1758488E-003  0.9118800E+02  0.7818608E-02  0.1130116E+00
         25   -1    0    0    0    0  0.00000000000E+00  0.00000000000E+00  0.99999998245E-14  0.12500000000E+03  0.12500000000E+03 0.  0.
        -13    1    3    3    0    0 -0.29211535930E+02  0.20923882065E+02  0.49538912272E+02  0.61198346915E+02  0.10566000000E+00 0.  1.
         23    2    1    0    0    0 -0.21081960245E+02  0.84223815917E+01  0.18204746996E+02  0.95900199784E+02  0.91378607704E+02 0.  0.
         13    1    3    3    0    0  0.81295756850E+01 -0.12501500473E+02 -0.31334165277E+02  0.34701852868E+02  0.10566000000E+00 0. -1.
         22    1    1    0    0    0  0.21081960245E+02 -0.84223815917E+01 -0.18204746996E+02  0.29099800216E+02  0.00000000000E+00 0.  1.
</event>
<event>
 5    1  0.1758488E-003  0.9118800E+02  0.7818608E-02  0.1130116E+00
         25   -1    0    0    0    0  0.00000000000E+00  0.00000000000E+00  0.99999998245E-14  0.12500000000E+03  0.12500000000E+03 0.  0.
        -13    1    3    3    0    0 -0.31156805259E+02 -0.52905515471E+01 -0.14891886876E+02  0.34935882820E+02  0.10566000000E+00 0. -1.
         23    2    1    0    0    0  0.17998256727E+02 -0.59667471522E+01  0.21672995414E+02  0.96203159080E+02  0.91792100803E+02 0.  0.
         13    1    3    3    0    0  0.49155061986E+02 -0.67619560514E+00  0.36564882290E+02  0.61267276260E+02  0.10566000000E+00 0.  1.
         22    1    1    0    0    0 -0.17998256727E+02  0.59667471522E+01 -0.21672995414E+02  0.28796840920E+02  0.00000000000E+00 0.  1.
</event>
<event>
 5    1  0.1758488E-003  0.9118800E+02  0.7818608E-02  0.1130116E+00
         25   -1    0    0    0    0  0.00000000000E+00  0.00000000000E+00  0.99999998245E-14  0.12500000000E+03  0.12500000000E+03 0.  0.
        -13    1    3    3    0    0  0.95324964927E+01 -0.31860535151E+02  0.15269355107E+02  0.36594078194E+02  0.10566000000E+00 0. -1.
         23    2    1    0    0    0  0.20921494007E+02  0.21567827321E+02 -0.43492850764E+01  0.94638900423E+02  0.89636628148E+02 0.  0.
         13    1    3    3    0    0  0.11388997514E+02  0.53428362472E+02 -0.19618640184E+02  0.58044822228E+02  0.10566000000E+00 0.  1.
         22    1    1    0    0    0 -0.20921494007E+02 -0.21567827321E+02  0.43492850764E+01  0.30361099577E+02  0.00000000000E+00 0.  1.
</event>
<event>
 5    1  0.1758488E-003  0.9118800E+02  0.7818608E-02  0.1130116E+00
         25   -1    0    0    0    0  0.00000000000E+00  0.00000000000E+00  0.99999998245E-14  0.12500000000E+03  0.12500000000E+03 0.  0.
        -13    1    3    3    0    0  0.29880300914E+02 -0.20202786345E+02 -0.49340358417E+01  0.36405230840E+02  0.10566000000E+00 0.  1.
         23    2    1    0    0    0 -0.62480711289E+01  0.26837093206E+02 -0.93997951072E+01  0.95886015170E+02  0.91359202014E+02 0.  0.
         13    1    3    3    0    0 -0.36128372043E+02  0.47039879551E+02 -0.44657592654E+01  0.59480784330E+02  0.10566000000E+00 0. -1.
         22    1    1    0    0    0  0.62480711289E+01 -0.26837093206E+02  0.93997951072E+01  0.29113984830E+02  0.00000000000E+00 0. -1.
</event>
<event>
 5    1  0.1758488E-003  0.9118800E+02  0.7818608E-02  0.1130116E+00
         25   -1    0    0    0    0  0.00000000000E+00  0.00000000000E+00  0.99999998245E-14  0.12500000000E+03  0.12500000000E+03 0.  0.
        -13    1    3    3    0    0 -0.37532247805E+00 -0.30433171459E+02 -0.25191000773E+02  0.39508435504E+02  0.10566000000E+00 0. -1.
         23    2    1    0    0    0 -0.84449217339E+01 -0.94158253945E+01  0.26360830031E+02  0.95761877097E+02  0.91189194943E+02 0.  0.
         13    1    3    3    0    0 -0.80695992558E+01  0.21017346064E+02  0.51551830804E+02  0.56253441593E+02  0.10566000000E+00 0.  1.
         22    1    1    0    0    0  0.84449217339E+01  0.94158253945E+01 -0.26360830031E+02  0.29238122903E+02  0.00000000000E+00 0.  1.
</event>
<event>
 5    1  0.1758488E-003  0.9118800E+02  0.7818608E-02  0.1130116E+00
         25   -1    0    0    0    0  0.00000000000E+00  0.00000000000E+00  0.99999998245E-14  0.12500000000E+03  0.12500000000E+03 0.  0.
        -13    1    3    3    0    0  0.14259549046E+02  0.59469980933E+02  0.29431952052E+01  0.61226521485E+02  0.10566000000E+00 0.  1.
         23    2    1    0    0    0  0.15157950423E+02  0.25206707326E+02  0.62431499668E+00  0.95580086261E+02  0.90939658924E+02 0.  0.
         13    1    3    3    0    0  0.89840137705E+00 -0.34263273607E+02 -0.23188802085E+01  0.34353564775E+02  0.10566000000E+00 0. -1.
         22    1    1    0    0    0 -0.15157950423E+02 -0.25206707326E+02 -0.62431499668E+00  0.29419913739E+02  0.00000000000E+00 0.  1.
</event>
<event>
 5    1  0.1758488E-003  0.9118800E+02  0.7818608E-02  0.1130116E+00
         25   -1    0    0    0    0  0.00000000000E+00  0.00000000000E+00  0.99999998245E-14  0.12500000000E+03  0.12500000000E+03 0.  0.
        -13    1    3    3    0    0  0.12946225498E+02 -0.45872744491E+02 -0.12778417732E+01  0.47681836012E+02  0.10566000000E+00 0. -1.
         23    2    1    0    0    0 -0.23487411080E+02 -0.16808274634E+02 -0.86106680337E+01  0.94861649358E+02  0.89946719449E+02 0.  0.
         13    1    3    3    0    0 -0.36433636578E+02  0.29064469858E+02 -0.73328262605E+01  0.47179813347E+02  0.10566000000E+00 0.  1.
         22    1    1    0    0    0  0.23487411080E+02  0.16808274634E+02  0.86106680337E+01  0.30138350642E+02  0.00000000000E+00 0. -1.
</event>
<event>
 5    1  0.1758488E-003  0.9118800E+02  0.7818608E-02  0.1130116E+00
         25   -1    0    0    0    0  0.00000000000E+00  0.00000000000E+00  0.99999998245E-14  0.12500000000E+03  0.12500000000E+03 0.  0.
        -13    1    3    3    0    0  0.23310359755E+02  0.25861484657E+02  0.18863572561E+02  0.39598419089E+02  0.10566000000E+00 0. -1.
         23    2    1    0    0    0 -0.42133300362E+00  0.85613281826E+01 -0.28450585539E+02  0.95286203890E+02  0.90534805309E+02 0.  0.
         13    1    3    3    0    0 -0.23731692758E+02 -0.17300156474E+02 -0.47314158101E+02  0.55687784801E+02  0.10566000000E+00 0.  1.
         22    1    1    0    0    0  0.42133300362E+00 -0.85613281826E+01  0.28450585539E+02  0.29713796110E+02  0.00000000000E+00 0.  1.
</event>
<event>
 5    1  0.1758488E-003  0.9118800E+02  0.7818608E-02  0.1130116E+00
         25   -1    0    0    0    0  0.00000000000E+00  0.00000000000E+00  0.99999998245E-14  0.12500000000E+03  0.12500000000E+03 0.  0.
        -13    1    3    3    0    0  0.11029307490E+02 -0.34725263106E+02  0.48315706031E+02  0.60513702042E+02  0.10566000000E+00 0. -1.
         23    2    1    0    0    0  0.15717128209E+02 -0.12836728420E+02  0.24201206310E+02  0.93416648333E+02  0.87915653232E+02 0.  0.
         13    1    3    3    0    0  0.46878207195E+01  0.21888534686E+02 -0.24114499721E+02  0.32902946291E+02  0.10566000000E+00 0.  1.
         22    1    1    0    0    0 -0.15717128209E+02  0.12836728420E+02 -0.24201206310E+02  0.31583351667E+02  0.00000000000E+00 0. -1.
</event>
<event>
 5    1  0.1758488E-003  0.9118800E+02  0.7818608E-02  0.1130116E+00
         25   -1    0    0    0    0  0.00000000000E+00  0.00000000000E+00  0.99999998245E-14  0.12500000000E+03  0.12500000000E+03 0.  0.
        -13    1    3    3    0    0 -0.27476601621E+02 -0.21794890995E+02  0.47471172288E+02  0.59021218833E+02  0.10566000000E+00 0.  1.
         23    2    1    0    0    0 -0.17694507757E+02 -0.20291110451E+02  0.12590647970E+02  0.95278809169E+02  0.90524594958E+02 0.  0.
         13    1    3    3    0    0  0.97820938639E+01  0.15037805444E+01 -0.34880524318E+02  0.36257590336E+02  0.10566000000E+00 0. -1.
         22    1    1    0    0    0  0.17694507757E+02  0.20291110451E+02 -0.12590647970E+02  0.29721190831E+02  0.00000000000E+00 0.  1.
</event>
<event>
 5    1  0.1758488E-003  0.9118800E+02  0.7818608E-02  0.1130116E+00
         25   -1    0    0    0    0  0.00000000000E+00  0.00000000000E+00  0.99999998245E-14  0.12500000000E+03  0.12500000000E+03 0.  0.
        -13    1    3    3    0    0  0.28734515727E+02 -0.51617167516E+02  0.40612306287E+01  0.59215784506E+02  0.10566000000E+00 0. -1.
         23    2    1    0    0    0  0.25435507201E+02 -0.17040362146E+02  0.50836469469E+01  0.93964819399E+02  0.88691627845E+02 0.  0.
         13    1    3    3    0    0 -0.32990085264E+01  0.34576805370E+02  0.10224163181E+01  0.34749034893E+02  0.10566000000E+00 0.  1.
         22    1    1    0    0    0 -0.25435507201E+02  0.17040362146E+02 -0.50836469469E+01  0.31035180601E+02  0.00000000000E+00 0. -1.
</event>
<event>
 5    1  0.1758488E-003  0.9118800E+02  0.7818608E-02  0.1130116E+00
         25   -1    0    0    0    0  0.00000000000E+00  0.00000000000E+00  0.99999998245E-14  0.12500000000E+03  0.12500000000E+03 0.  0.
        -13    1    3    3    0    0 -0.19601891289E+02 -0.55491311358E+02 -0.20797378553E+02  0.62418441962E+02  0.10566000000E+00 0. -1.
         23    2    1    0    0    0 -0.95713332719E+01 -0.24534964968E+02 -0.11509720692E+02  0.96258938833E+02  0.91868028761E+02 0.  0.
         13    1    3    3    0    0  0.10030558017E+02  0.30956346389E+02  0.92876578612E+01  0.33840496871E+02  0.10566000000E+00 0.  1.
         22    1    1    0    0    0  0.95713332719E+01  0.24534964968E+02  0.11509720692E+02  0.28741061167E+02  0.00000000000E+00 0. -1.
</event>
<event>
 5    1  0.1758488E-003  0.9118800E+02  0.7818608E-02  0.1130116E+00
         25   -1    0    0    0    0  0.00000000000E+00  0.00000000000E+00  0.99999998245E-14  0.12500000000E+03  0.12500000000E+03 0.  0.
        -13    1    3    3    0    0  0.41801313217E+02  0.21466194286E+00 -0.15335033945E+02  0.44526063115E+02  0.10566000000E+00 0.  1.
         23    2    1    0    0    0  0.42921086715E+01  0.25872682245E+02  0.10440173888E+02  0.96772086259E+02  0.92563608209E+02 0.  0.
         13    1    3    3    0    0 -0.37509204546E+02  0.25658020302E+02  0.25775207833E+02  0.52246023143E+02  0.10566000000E+00 0. -1.
         22    1    1    0    0    0 -0.42921086715E+01 -0.25872682245E+02 -0.10440173888E+02  0.28227913741E+02  0.00000000000E+00 0. -1.
</event>
<event>
 5    1  0.1758488E-003  0.9118800E+02  0.7818608E-02  0.1130116E+00
         25   -1    0    0    0    0  0.00000000000E+00  0.00000000000E+00  0.99999998245E-14  0.12500000000E+03  0.12500000000E+03 0.  0.
        -13    1    3    3    0    0 -0.23127360230E+02  0.37181505159E+02 -0.25166435632E+02  0.50504452908E+02  0.10566000000E+00 0. -1.
         23    2    1    0    0    0 -0.26164396520E+02  0.14885223136E+00 -0.26598861540E+02  0.87689180691E+02  0.79355498693E+02 0.  0.
         13    1    3    3    0    0 -0.30370362898E+01 -0.37032652928E+02 -0.14324259081E+01  0.37184727783E+02  0.10566000000E+00 0.  1.
         22    1    1    0    0    0  0.26164396520E+02 -0.14885223136E+00  0.26598861540E+02  0.37310819309E+02  0.00000000000E+00 0. -1.
</event>
<event>
 5    1  0.1758488E-003  0.9118800E+02  0.7818608E-02  0.1130116E+00
         25   -1    0    0    0    0  0.00000000000E+00  0.00000000000E+00  0.99999998245E-14  0.12500000000E+03  0.12500000000E+03 0.  0.
        -13    1    3    3    0    0 -0.34191900440E+02 -0.19750163290E+01  0.16861825905E+02  0.38174848815E+02  0.10566000000E+00 0.  1.
         23    2    1    0    0    0  0.21750549920E+02 -0.14789259189E+02  0.12904820832E+02  0.95702508471E+02  0.91107777482E+02 0.  0.
         13    1    3    3    0    0  0.55942450359E+02 -0.12814242860E+02 -0.39570050729E+01  0.57527659656E+02  0.10566000000E+00 0. -1.
         22    1    1    0    0    0 -0.21750549920E+02  0.14789259189E+02 -0.12904820832E+02  0.29297491529E+02  0.00000000000E+00 0. -1.
</event>
<event>
 5    1  0.1758488E-003  0.9118800E+02  0.7818608E-02  0.1130116E+00
         25   -1    0    0    0    0  0.00000000000E+00  0.00000000000E+00  0.99999998245E-14  0.12500000000E+03  0.12500000000E+03 0.  0.
        -13    1    3    3    0    0 -0.25895061783E+02  0.25409637144E+02 -0.42961074515E+02  0.56230498593E+02  0.10566000000E+00 0. -1.
         23    2    1    0    0    0 -0.16950846226E+02 -0.52771851678E+01 -0.28748140134E+02  0.91211903986E+02  0.84722936661E+02 0.  0.
         13    1    3    3    0    0  0.89442155565E+01 -0.30686822312E+02  0.14212934381E+02  0.34981405393E+02  0.10566000000E+00 0.  1.
         22    1    1    0    0    0  0.16950846226E+02  0.52771851678E+01  0.28748140134E+02  0.33788096014E+02  0.00000000000E+00 0. -1.
</event>
<event>
 5    1  0.1758488E-003  0.9118800E+02  0.7818608E-02  0.1130116E+00
         25   -1    0    0    0    0  0.00000000000E+00  0.00000000000E+00  0.99999998245E-14  0.12500000000E+03  0.12500000000E+03 0.  0.
        -13    1    3    3    0    0 -0.20383267137E+01  0.34303355175E+02  0.44433537742E+01  0.34650101137E+02  0.10566000000E+00 0. -1.
         23    2    1    0    0    0 -0.14443411815E+02 -0.24013135582E+02 -0.86123653597E+01  0.95684207969E+02  0.91082665706E+02 0.  0.
         13    1    3    3    0    0 -0.12405085102E+02 -0.58316490757E+02 -0.13055719134E+02  0.61034106831E+02  0.10566000000E+00 0.  1.
         22    1    1    0    0    0  0.14443411815E+02  0.24013135582E+02  0.86123653597E+01  0.29315792031E+02  0.00000000000E+00 0.  1.
</event>
<event>
 5    1  0.1758488E-003  0.9118800E+02  0.7818608E-02  0.1130116E+00
         25   -1    0    0    0    0  0.00000000000E+00  0.00000000000E+00  0.99999998245E-14  0.12500000000E+03  0.12500000000E+03 0.  0.
        -13    1    3    3    0    0  0.40407977267E+01  0.42691253143E+02  0.76545138863E+01  0.43560003307E+02  0.10566000000E+00 0.  1.
         23    2    1    0    0    0  0.30807082464E+01  0.56911480763E+01 -0.28782827114E+02  0.95498626026E+02  0.90827619733E+02 0.  0.
         13    1    3    3    0    0 -0.96008948034E+00 -0.37000105067E+02 -0.36437341000E+02  0.51938622719E+02  0.10566000000E+00 0. -1.
         22    1    1    0    0    0 -0.30807082464E+01 -0.56911480763E+01  0.28782827114E+02  0.29501373974E+02  0.00000000000E+00 0. -1.
</event>
<event>
 5    1  0.1758488E-003  0.9118800E+02  0.7818608E-02  0.1130116E+00
         25   -1    0    0    0    0  0.00000000000E+00  0.00000000000E+00  0.99999998245E-14  0.12500000000E+03  0.12500000000E+03 0.  0.
        -13    1    3    3    0    0 -0.34572292633E+02 -0.44223762670E+01  0.50635857073E+01  0.35220049603E+02  0.10566000000E+00 0.  1.
         23    2    1    0    0    0  0.14815737928E+02  0.25879937219E+02 -0.69138371408E+01  0.94388263937E+02  0.89286426651E+02 0.  0.
         13    1    3    3    0    0  0.49388030561E+02  0.30302313486E+02 -0.11977422848E+02  0.59168214334E+02  0.10566000000E+00 0. -1.
         22    1    1    0    0    0 -0.14815737928E+02 -0.25879937219E+02  0.69138371408E+01  0.30611736063E+02  0.00000000000E+00 0. -1.
</event>
<event>
 5    1  0.1758488E-003  0.9118800E+02  0.7818608E-02  0.1130116E+00
         25   -1    0    0    0    0  0.00000000000E+00  0.00000000000E+00  0.99999998245E-14  0.12500000000E+03  0.12500000000E+03 0.  0.
        -13    1    3    3    0    0  0.82429870399E+01  0.38619308405E+02 -0.43870183384E+02  0.59025434952E+02  0.10566000000E+00 0.  1.
         23    2    1    0    0    0  0.19262881042E+02  0.21157030206E+02 -0.24711231988E+02  0.87193605044E+02  0.78570995036E+02 0.  0.
         13    1    3    3    0    0  0.11019894002E+02 -0.17462278199E+02  0.19158951396E+02  0.28168170092E+02  0.10566000000E+00 0. -1.
         22    1    1    0    0    0 -0.19262881042E+02 -0.21157030206E+02  0.24711231988E+02  0.37806394956E+02  0.00000000000E+00 0.  1.
</event>
<event>
 5    1  0.1758488E-003  0.9118800E+02  0.7818608E-02  0.1130116E+00
         25   -1    0    0    0    0  0.00000000000E+00  0.00000000000E+00  0.99999998245E-14  0.12500000000E+03  0.12500000000E+03 0.  0.
        -13    1    3    3    0    0 -0.28107021580E+02 -0.43026590513E+02 -0.15529021303E+02  0.53688488710E+02  0.10566000000E+00 0.  1.
         23    2    1    0    0    0 -0.16013528984E+02 -0.16613568409E+02  0.16275173745E+02  0.96763055296E+02  0.92551411788E+02 0.  0.
         13    1    3    3    0    0  0.12093492596E+02  0.26413022104E+02  0.31804195048E+02  0.43074566585E+02  0.10566000000E+00 0. -1.
         22    1    1    0    0    0  0.16013528984E+02  0.16613568409E+02 -0.16275173745E+02  0.28236944704E+02  0.00000000000E+00 0.  1.
</event>
<event>
 5    1  0.1758488E-003  0.9118800E+02  0.7818608E-02  0.1130116E+00
         25   -1    0    0    0    0  0.00000000000E+00  0.00000000000E+00  0.99999998245E-14  0.12500000000E+03  0.12500000000E+03 0.  0.
        -13    1    3    3    0    0 -0.11705736288E+02  0.21437528871E+02 -0.20666499799E+02  0.31995425987E+02  0.10566000000E+00 0.  1.
         23    2    1    0    0    0  0.13282480911E+02 -0.20287206042E+02  0.18548243242E+02  0.94470795040E+02  0.89401894610E+02 0.  0.
         13    1    3    3    0    0  0.24988217199E+02 -0.41724734913E+02  0.39214743041E+02  0.62475369052E+02  0.10566000000E+00 0. -1.
         22    1    1    0    0    0 -0.13282480911E+02  0.20287206042E+02 -0.18548243242E+02  0.30529204960E+02  0.00000000000E+00 0. -1.
</event>
<event>
 5    1  0.1758488E-003  0.9118800E+02  0.7818608E-02  0.1130116E+00
         25   -1    0    0    0    0  0.00000000000E+00  0.00000000000E+00  0.99999998245E-14  0.12500000000E+03  0.12500000000E+03 0.  0.
        -13    1    3    3    0    0  0.15658924476E+02 -0.30277409437E+02  0.88894727595E+01  0.35227224244E+02  0.10566000000E+00 0. -1.
         23    2    1    0    0    0  0.18242742402E+01  0.28120602499E+02  0.95521120956E+01  0.95245351507E+02  0.90478383478E+02 0.  0.
         13    1    3    3    0    0 -0.13834650236E+02  0.58398011936E+02  0.66263933615E+00  0.60018127263E+02  0.10566000000E+00 0.  1.
         22    1    1    0    0    0 -0.18242742402E+01 -0.28120602499E+02 -0.95521120956E+01  0.29754648493E+02  0.00000000000E+00 0.  1.
</event>
<event>
 5    1  0.1758488E-003  0.9118800E+02  0.7818608E-02  0.1130116E+00
         25   -1    0    0    0    0  0.00000000000E+00  0.00000000000E+00  0.99999998245E-14  0.12500000000E+03  0.12500000000E+03 0.  0.
        -13    1    3    3    0    0 -0.26764658599E+02 -0.31751479389E+02 -0.20181909904E+02  0.46171680116E+02  0.10566000000E+00 0.  1.
         23    2    1    0    0    0  0.17414258857E+02 -0.24651865730E+02 -0.11529254482E+01  0.94795693476E+02  0.89855013043E+02 0.  0.
         13    1    3    3    0    0  0.44178917456E+02  0.70996136586E+01  0.19028984456E+02  0.48624013359E+02  0.10566000000E+00 0. -1.
         22    1    1    0    0    0 -0.17414258857E+02  0.24651865730E+02  0.11529254482E+01  0.30204306524E+02  0.00000000000E+00 0.  1.
</event>
<event>
 5    1  0.1758488E-003  0.9118800E+02  0.7818608E-02  0.1130116E+00
         25   -1    0    0    0    0  0.00000000000E+00  0.00000000000E+00  0.99999998245E-14  0.12500000000E+03  0.12500000000E+03 0.  0.
        -13    1    3    3    0    0 -0.30145458925E+00 -0.33943797022E+02 -0.47902504804E+01  0.34281626199E+02  0.10566000000E+00 0.  1.
         23    2    1    0    0    0 -0.17447916505E+01  0.26412315911E+02 -0.13510348429E+02  0.95281584088E+02  0.90528426596E+02 0.  0.
         13    1    3    3    0    0 -0.14433370612E+01  0.60356112932E+02 -0.87200979485E+01  0.60999957889E+02  0.10566000000E+00 0. -1.
         22    1    1    0    0    0  0.17447916505E+01 -0.26412315911E+02  0.13510348429E+02  0.29718415912E+02  0.00000000000E+00 0. -1.
</event>
<event>
 5    1  0.1758488E-003  0.9118800E+02  0.7818608E-02  0.1130116E+00
         25   -1    0    0    0    0  0.00000000000E+00  0.00000000000E+00  0.99999998245E-14  0.12500000000E+03  0.12500000000E+03 0.  0.
        -13    1    3    3    0    0 -0.28999792644E+02  0.59112782310E+01  0.51474763514E+02  0.59376709463E+02  0.10566000000E+00 0.  1.
         23    2    1    0    0    0 -0.24786072657E+02  0.29788798617E+01  0.15719655348E+02  0.95498632451E+02  0.90827628576E+02 0.  0.
         13    1    3    3    0    0  0.42137199866E+01 -0.29323983693E+01 -0.35755108167E+02  0.36121922988E+02  0.10566000000E+00 0. -1.
         22    1    1    0    0    0  0.24786072657E+02 -0.29788798617E+01 -0.15719655348E+02  0.29501367549E+02  0.00000000000E+00 0.  1.
</event>
<event>
 5    1  0.1758488E-003  0.9118800E+02  0.7818608E-02  0.1130116E+00
         25   -1    0    0    0    0  0.00000000000E+00  0.00000000000E+00  0.99999998245E-14  0.12500000000E+03  0.12500000000E+03 0.  0.
        -13    1    3    3    0    0  0.35169869769E+02 -0.24608307732E+02 -0.77206252404E+01  0.43613160481E+02  0.10566000000E+00 0. -1.
         23    2    1    0    0    0 -0.17677989989E+02 -0.20151875504E+02 -0.91688021688E+01  0.96668456632E+02  0.92423558458E+02 0.  0.
         13    1    3    3    0    0 -0.52847859758E+02  0.44564322275E+01 -0.14481769285E+01  0.53055296151E+02  0.10566000000E+00 0.  1.
         22    1    1    0    0    0  0.17677989989E+02  0.20151875504E+02  0.91688021688E+01  0.28331543368E+02  0.00000000000E+00 0.  1.
</event>
<event>
 5    1  0.1758488E-003  0.9118800E+02  0.7818608E-02  0.1130116E+00
         25   -1    0    0    0    0  0.00000000000E+00  0.00000000000E+00  0.99999998245E-14  0.12500000000E+03  0.12500000000E+03 0.  0.
        -13    1    3    3    0    0 -0.24291898533E+02 -0.34025657721E+01  0.30570549321E+02  0.39194941485E+02  0.10566000000E+00 0.  1.
         23    2    1    0    0    0 -0.18196355872E+02 -0.46955279999E+01 -0.24223170018E+02  0.94341929024E+02  0.89221534710E+02 0.  0.
         13    1    3    3    0    0  0.60955426611E+01 -0.12929622278E+01 -0.54793719339E+02  0.55146987539E+02  0.10566000000E+00 0. -1.
         22    1    1    0    0    0  0.18196355872E+02  0.46955279999E+01  0.24223170018E+02  0.30658070976E+02  0.00000000000E+00 0. -1.
</event>
<event>
 5    1  0.1758488E-003  0.9118800E+02  0.7818608E-02  0.1130116E+00
         25   -1    0    0    0    0  0.00000000000E+00  0.00000000000E+00  0.99999998245E-14  0.12500000000E+03  0.12500000000E+03 0.  0.
        -13    1    3    3    0    0  0.28759762037E+02 -0.15385593577E+02  0.16751730490E+01  0.32659727049E+02  0.10566000000E+00 0.  1.
         23    2    1    0    0    0 -0.20304495623E+02  0.18300637773E+01 -0.26315080942E+02  0.91711786457E+02  0.85457279469E+02 0.  0.
         13    1    3    3    0    0 -0.49064257660E+02  0.17215657354E+02 -0.27990253991E+02  0.59052059408E+02  0.10566000000E+00 0. -1.
         22    1    1    0    0    0  0.20304495623E+02 -0.18300637773E+01  0.26315080942E+02  0.33288213543E+02  0.00000000000E+00 0. -1.
</event>
<event>
 5    1  0.1758488E-003  0.9118800E+02  0.7818608E-02  0.1130116E+00
         25   -1    0    0    0    0  0.00000000000E+00  0.00000000000E+00  0.99999998245E-14  0.12500000000E+03  0.12500000000E+03 0.  0.
        -13    1    3    3    0    0  0.50293147220E+02  0.81553171041E+01  0.21299398894E+02  0.55223051452E+02  0.10566000000E+00 0.  1.
         23    2    1    0    0    0  0.21906057041E+02  0.23051517165E+02  0.96747410100E+00  0.93185164077E+02  0.87585906510E+02 0.  0.
         13    1    3    3    0    0 -0.28387090179E+02  0.14896200061E+02 -0.20331924793E+02  0.37962112625E+02  0.10566000000E+00 0. -1.
         22    1    1    0    0    0 -0.21906057041E+02 -0.23051517165E+02 -0.96747410100E+00  0.31814835923E+02  0.00000000000E+00 0.  1.
</event>
<event>
 5    1  0.1758488E-003  0.9118800E+02  0.7818608E-02  0.1130116E+00
         25   -1    0    0    0    0  0.00000000000E+00  0.00000000000E+00  0.99999998245E-14  0.12500000000E+03  0.12500000000E+03 0.  0.
        -13    1    3    3    0    0  0.19335183458E+02  0.40954762963E+02 -0.28633460927E+02  0.53581976236E+02  0.10566000000E+00 0. -1.
         23    2    1    0    0    0  0.94438881877E+01  0.18581234521E+02  0.11954339089E+02  0.10097177652E+03  0.98071117720E+02 0.  0.
         13    1    3    3    0    0 -0.98912952699E+01 -0.22373528442E+02  0.40587800016E+02  0.47389800287E+02  0.10566000000E+00 0.  1.
         22    1    1    0    0    0 -0.94438881877E+01 -0.18581234521E+02 -0.11954339089E+02  0.24028223477E+02  0.00000000000E+00 0. -1.
</event>
<event>
 5    1  0.1758488E-003  0.9118800E+02  0.7818608E-02  0.1130116E+00
         25   -1    0    0    0    0  0.00000000000E+00  0.00000000000E+00  0.99999998245E-14  0.12500000000E+03  0.12500000000E+03 0.  0.
        -13    1    3    3    0    0 -0.17679479892E+02 -0.39050110181E+01 -0.32921480855E+02  0.37571906873E+02  0.10566000000E+00 0.  1.
         23    2    1    0    0    0  0.87939397282E+01  0.26538904941E+02  0.88786501871E+01  0.95666106966E+02  0.91057820869E+02 0.  0.
         13    1    3    3    0    0  0.26473419620E+02  0.30443915959E+02  0.41800131043E+02  0.58094200093E+02  0.10566000000E+00 0. -1.
         22    1    1    0    0    0 -0.87939397282E+01 -0.26538904941E+02 -0.88786501871E+01  0.29333893034E+02  0.00000000000E+00 0. -1.
</event>
<event>
 5    1  0.1758488E-003  0.9118800E+02  0.7818608E-02  0.1130116E+00
         25   -1    0    0    0    0  0.00000000000E+00  0.00000000000E+00  0.99999998245E-14  0.12500000000E+03  0.12500000000E+03 0.  0.
        -13    1    3    3    0    0 -0.26481253511E+02 -0.29324476732E+02  0.25373669770E+02  0.46957597945E+02  0.10566000000E+00 0.  1.
         23    2    1    0    0    0  0.16257550300E+01  0.13534796773E+02  0.22996905983E+02  0.98266285558E+02  0.94559882559E+02 0.  0.
         13    1    3    3    0    0  0.28107008541E+02  0.42859273505E+02 -0.23767637873E+01  0.51308687613E+02  0.10566000000E+00 0. -1.
         22    1    1    0    0    0 -0.16257550300E+01 -0.13534796773E+02 -0.22996905983E+02  0.26733714442E+02  0.00000000000E+00 0. -1.
</event>
<event>
 5    1  0.1758488E-003  0.9118800E+02  0.7818608E-02  0.1130116E+00
         25   -1    0    0    0    0  0.00000000000E+00  0.00000000000E+00  0.99999998245E-14  0.12500000000E+03  0.12500000000E+03 0.  0.
        -13    1    3    3    0    0  0.45562321548E+02 -0.37012184879E+01 -0.29329492657E+02  0.54312562697E+02  0.10566000000E+00 0. -1.
         23    2    1    0    0    0  0.79913636728E+01 -0.14820421009E+02 -0.26508674451E+02  0.93595914384E+02  0.88170168402E+02 0.  0.
         13    1    3    3    0    0 -0.37570957875E+02 -0.11119202521E+02  0.28208182061E+01  0.39283351687E+02  0.10566000000E+00 0.  1.
         22    1    1    0    0    0 -0.79913636728E+01  0.14820421009E+02  0.26508674451E+02  0.31404085616E+02  0.00000000000E+00 0. -1.
</event>
<event>
 5    1  0.1758488E-003  0.9118800E+02  0.7818608E-02  0.1130116E+00
         25   -1    0    0    0    0  0.00000000000E+00  0.00000000000E+00  0.99999998245E-14  0.12500000000E+03  0.12500000000E+03 0.  0.
        -13    1    3    3    0    0 -0.31759376308E+02 -0.99957258039E+01 -0.17384738448E+02  0.37560788234E+02  0.10566000000E+00 0. -1.
         23    2    1    0    0    0  0.24702225912E+02  0.38396354330E+01 -0.15218431282E+02  0.95733237010E+02  0.91149927331E+02 0.  0.
         13    1    3    3    0    0  0.56461602220E+02  0.13835361237E+02  0.21663071665E+01  0.58172448775E+02  0.10566000000E+00 0.  1.
         22    1    1    0    0    0 -0.24702225912E+02 -0.38396354330E+01  0.15218431282E+02  0.29266762990E+02  0.00000000000E+00 0.  1.
</event>
<event>
 5    1  0.1758488E-003  0.9118800E+02  0.7818608E-02  0.1130116E+00
         25   -1    0    0    0    0  0.00000000000E+00  0.00000000000E+00  0.99999998245E-14  0.12500000000E+03  0.12500000000E+03 0.  0.
        -13    1    3    3    0    0 -0.36365125592E+02  0.12740768983E+02 -0.11698159744E+02  0.40269189948E+02  0.10566000000E+00 0. -1.
         23    2    1    0    0    0  0.12381046328E+02 -0.15165554808E+02 -0.19958535659E+02  0.97042398055E+02  0.92927926448E+02 0.  0.
         13    1    3    3    0    0  0.48746171921E+02 -0.27906323792E+02 -0.82603759154E+01  0.56773208107E+02  0.10566000000E+00 0.  1.
         22    1    1    0    0    0 -0.12381046328E+02  0.15165554808E+02  0.19958535659E+02  0.27957601945E+02  0.00000000000E+00 0.  1.
</event>
<event>
 5    1  0.1758488E-003  0.9118800E+02  0.7818608E-02  0.1130116E+00
         25   -1    0    0    0    0  0.00000000000E+00  0.00000000000E+00  0.99999998245E-14  0.12500000000E+03  0.12500000000E+03 0.  0.
        -13    1    3    3    0    0  0.14494435435E+02  0.10316828323E+02  0.58727052036E+02  0.61362883000E+02  0.10566000000E+00 0.  1.
         23    2    1    0    0    0  0.51606815766E+01  0.12477795107E+02  0.23226019281E+02  0.98134111280E+02  0.94384997855E+02 0.  0.
         13    1    3    3    0    0 -0.93337538582E+01  0.21609667840E+01 -0.35501032755E+02  0.36771228280E+02  0.10566000000E+00 0. -1.
         22    1    1    0    0    0 -0.51606815766E+01 -0.12477795107E+02 -0.23226019281E+02  0.26865888720E+02  0.00000000000E+00 0.  1.
</event>
<event>
 5    1  0.1758488E-003  0.9118800E+02  0.7818608E-02  0.1130116E+00
         25   -1    0    0    0    0  0.00000000000E+00  0.00000000000E+00  0.99999998245E-14  0.12500000000E+03  0.12500000000E+03 0.  0.
        -13    1    3    3    0    0  0.80590838612E+01 -0.24412273116E+02  0.22773999125E+02  0.34344928469E+02  0.10566000000E+00 0. -1.
         23    2    1    0    0    0 -0.10741751398E+02  0.10157204857E+01 -0.28465916135E+02  0.94557836927E+02  0.89523512173E+02 0.  0.
         13    1    3    3    0    0 -0.18800835259E+02  0.25427993602E+02 -0.51239915260E+02  0.60212908457E+02  0.10566000000E+00 0.  1.
         22    1    1    0    0    0  0.10741751398E+02 -0.10157204857E+01  0.28465916135E+02  0.30442163073E+02  0.00000000000E+00 0.  1.
</event>
<event>
 5    1  0.1758488E-003  0.9118800E+02  0.7818608E-02  0.1130116E+00
         25   -1    0    0    0    0  0.00000000000E+00  0.00000000000E+00  0.99999998245E-14  0.12500000000E+03  0.12500000000E+03 0.  0.
        -13    1    3    3    0    0  0.27181026800E+02  0.27737401550E+02  0.10825741334E+02  0.40315995611E+02  0.10566000000E+00 0. -1.
         23    2    1    0    0    0 -0.22297826037E+02  0.53976798036E+01  0.18994395699E+02  0.95215523150E+02  0.90437164858E+02 0.  0.
         13    1    3    3    0    0 -0.49478852838E+02 -0.22339721746E+02  0.81686543655E+01  0.54899527539E+02  0.10566000000E+00 0.  1.
         22    1    1    0    0    0  0.22297826037E+02 -0.53976798036E+01 -0.18994395699E+02  0.29784476850E+02  0.00000000000E+00 0.  1.
</event>
<event>
 5    1  0.1758488E-003  0.9118800E+02  0.7818608E-02  0.1130116E+00
         25   -1    0    0    0    0  0.00000000000E+00  0.00000000000E+00  0.99999998245E-14  0.12500000000E+03  0.12500000000E+03 0.  0.
        -13    1    3    3    0    0 -0.17363662005E+02  0.52305314684E+02 -0.12975677182E+02  0.56619096291E+02  0.10566000000E+00 0. -1.
         23    2    1    0    0    0 -0.18593273374E+02  0.13211845533E+02 -0.17852555877E+02  0.96034910176E+02  0.91562697339E+02 0.  0.
         13    1    3    3    0    0 -0.12296113689E+01 -0.39093469151E+02 -0.48768786956E+01  0.39415813885E+02  0.10566000000E+00 0.  1.
         22    1    1    0    0    0  0.18593273374E+02 -0.13211845533E+02  0.17852555877E+02  0.28965089824E+02  0.00000000000E+00 0. -1.
</event>
<event>
 5    1  0.1758488E-003  0.9118800E+02  0.7818608E-02  0.1130116E+00
         25   -1    0    0    0    0  0.00000000000E+00  0.00000000000E+00  0.99999998245E-14  0.12500000000E+03  0.12500000000E+03 0.  0.
        -13    1    3    3    0    0 -0.44483382467E+02 -0.16966000138E+02  0.26641732368E+02  0.54556480312E+02  0.10566000000E+00 0.  1.
         23    2    1    0    0    0 -0.27813619469E+02 -0.82936365831E+01 -0.87999062229E+01  0.94671462526E+02  0.89682025131E+02 0.  0.
         13    1    3    3    0    0  0.16669762998E+02  0.86723635551E+01 -0.35441638591E+02  0.40114982215E+02  0.10566000000E+00 0. -1.
         22    1    1    0    0    0  0.27813619469E+02  0.82936365831E+01  0.87999062229E+01  0.30328537474E+02  0.00000000000E+00 0.  1.
</event>
<event>
 5    1  0.1758488E-003  0.9118800E+02  0.7818608E-02  0.1130116E+00
         25   -1    0    0    0    0  0.00000000000E+00  0.00000000000E+00  0.99999998245E-14  0.12500000000E+03  0.12500000000E+03 0.  0.
        -13    1    3    3    0    0 -0.41516136700E+02  0.25292674408E+02 -0.10637279195E+01  0.48625627670E+02  0.10566000000E+00 0.  1.
         23    2    1    0    0    0  0.24947562062E+01  0.31046599581E+02  0.51048063482E+01  0.93437772545E+02  0.87945682875E+02 0.  0.
         13    1    3    3    0    0  0.44010892906E+02  0.57539251728E+01  0.61685342678E+01  0.44812144875E+02  0.10566000000E+00 0. -1.
         22    1    1    0    0    0 -0.24947562062E+01 -0.31046599581E+02 -0.51048063482E+01  0.31562227455E+02  0.00000000000E+00 0.  1.
</event>
<event>
 5    1  0.1758488E-003  0.9118800E+02  0.7818608E-02  0.1130116E+00
         25   -1    0    0    0    0  0.00000000000E+00  0.00000000000E+00  0.99999998245E-14  0.12500000000E+03  0.12500000000E+03 0.  0.
        -13    1    3    3    0    0  0.64510220465E+01 -0.30387784893E+02  0.38296391150E+02  0.49311843358E+02  0.10566000000E+00 0.  1.
         23    2    1    0    0    0  0.16498016937E+02  0.11170760879E+02  0.22633347255E+02  0.94846411997E+02  0.89925541418E+02 0.  0.
         13    1    3    3    0    0  0.10046994890E+02  0.41558545773E+02 -0.15663043895E+02  0.45534568639E+02  0.10566000000E+00 0. -1.
         22    1    1    0    0    0 -0.16498016937E+02 -0.11170760879E+02 -0.22633347255E+02  0.30153588003E+02  0.00000000000E+00 0.  1.
</event>
<event>
 5    1  0.1758488E-003  0.9118800E+02  0.7818608E-02  0.1130116E+00
         25   -1    0    0    0    0  0.00000000000E+00  0.00000000000E+00  0.99999998245E-14  0.12500000000E+03  0.12500000000E+03 0.  0.
        -13    1    3    3    0    0 -0.18738314146E+02 -0.54578377824E+01 -0.30149870244E+02  0.35915710352E+02  0.10566000000E+00 0. -1.
         23    2    1    0    0    0 -0.94842725276E+01 -0.31773559681E+01  0.28220582109E+02  0.95059254002E+02  0.90220914984E+02 0.  0.
         13    1    3    3    0    0  0.92540416186E+01  0.22804818143E+01  0.58370452353E+02  0.59143543650E+02  0.10566000000E+00 0.  1.
         22    1    1    0    0    0  0.94842725276E+01  0.31773559681E+01 -0.28220582109E+02  0.29940745998E+02  0.00000000000E+00 0.  1.
</event>
<event>
 5    1  0.1758488E-003  0.9118800E+02  0.7818608E-02  0.1130116E+00
         25   -1    0    0    0    0  0.00000000000E+00  0.00000000000E+00  0.99999998245E-14  0.12500000000E+03  0.12500000000E+03 0.  0.
        -13    1    3    3    0    0  0.47982140088E+02  0.30122785867E+02 -0.25511770917E+02  0.62133160351E+02  0.10566000000E+00 0. -1.
         23    2    1    0    0    0  0.21511290856E+02  0.16740353231E+02 -0.79370654444E+01  0.96610352794E+02  0.92344941381E+02 0.  0.
         13    1    3    3    0    0 -0.26470849232E+02 -0.13382432636E+02  0.17574705473E+02  0.34477192444E+02  0.10566000000E+00 0.  1.
         22    1    1    0    0    0 -0.21511290856E+02 -0.16740353231E+02  0.79370654444E+01  0.28389647206E+02  0.00000000000E+00 0. -1.
</event>
<event>
 5    1  0.1758488E-003  0.9118800E+02  0.7818608E-02  0.1130116E+00
         25   -1    0    0    0    0  0.00000000000E+00  0.00000000000E+00  0.99999998245E-14  0.12500000000E+03  0.12500000000E+03 0.  0.
        -13    1    3    3    0    0 -0.35023055972E+02 -0.91003042805E+01  0.17037024216E+02  0.39996266648E+02  0.10566000000E+00 0. -1.
         23    2    1    0    0    0  0.16848336837E+02 -0.23377727773E+02  0.11085090821E+02  0.94125028769E+02  0.88917136663E+02 0.  0.
         13    1    3    3    0    0  0.51871392809E+02 -0.14277423493E+02 -0.59519333947E+01  0.54128762121E+02  0.10566000000E+00 0.  1.
         22    1    1    0    0    0 -0.16848336837E+02  0.23377727773E+02 -0.11085090821E+02  0.30874971231E+02  0.00000000000E+00 0.  1.
</event>
<event>
 5    1  0.1758488E-003  0.9118800E+02  0.7818608E-02  0.1130116E+00
         25   -1    0    0    0    0  0.00000000000E+00  0.00000000000E+00  0.99999998245E-14  0.12500000000E+03  0.12500000000E+03 0.  0.
        -13    1    3    3    0    0 -0.29399216891E+02  0.14354419395E+02 -0.14842217012E+02  0.35925838610E+02  0.10566000000E+00 0.  1.
         23    2    1    0    0    0  0.35790548249E+01 -0.10069830091E+02  0.27865888569E+02  0.95155086577E+02  0.90353592315E+02 0.  0.
         13    1    3    3    0    0  0.32978271716E+02 -0.24424249487E+02  0.42708105581E+02  0.59229247967E+02  0.10566000000E+00 0. -1.
         22    1    1    0    0    0 -0.35790548249E+01  0.10069830091E+02 -0.27865888569E+02  0.29844913423E+02  0.00000000000E+00 0. -1.
</event>
<event>
 5    1  0.1758488E-003  0.9118800E+02  0.7818608E-02  0.1130116E+00
         25   -1    0    0    0    0  0.00000000000E+00  0.00000000000E+00  0.99999998245E-14  0.12500000000E+03  0.12500000000E+03 0.  0.
        -13    1    3    3    0    0  0.47810609526E+02 -0.12572226791E+02 -0.18154264791E+02  0.52664065205E+02  0.10566000000E+00 0.  1.
         23    2    1    0    0    0  0.24657920427E+02 -0.58553410545E+01  0.16411802797E+02  0.94806534983E+02  0.89870093723E+02 0.  0.
         13    1    3    3    0    0 -0.23152689099E+02  0.67168857370E+01  0.34566067588E+02  0.42142469779E+02  0.10566000000E+00 0. -1.
         22    1    1    0    0    0 -0.24657920427E+02  0.58553410545E+01 -0.16411802797E+02  0.30193465017E+02  0.00000000000E+00 0. -1.
</event>
<event>
 5    1  0.1758488E-003  0.9118800E+02  0.7818608E-02  0.1130116E+00
         25   -1    0    0    0    0  0.00000000000E+00  0.00000000000E+00  0.99999998245E-14  0.12500000000E+03  0.12500000000E+03 0.  0.
        -13    1    3    3    0    0 -0.36294889287E+02 -0.27636936514E+02  0.15918508264E+02  0.48316967181E+02  0.10566000000E+00 0.  1.
         23    2    1    0    0    0  0.32708103564E+01 -0.13884147889E+02  0.29401220573E+02  0.92321267862E+02  0.86344177369E+02 0.  0.
         13    1    3    3    0    0  0.39565699643E+02  0.13752788624E+02  0.13482712308E+02  0.44004300681E+02  0.10566000000E+00 0. -1.
         22    1    1    0    0    0 -0.32708103564E+01  0.13884147889E+02 -0.29401220573E+02  0.32678732138E+02  0.00000000000E+00 0.  1.
</event>
<event>
 5    1  0.1758488E-003  0.9118800E+02  0.7818608E-02  0.1130116E+00
         25   -1    0    0    0    0  0.00000000000E+00  0.00000000000E+00  0.99999998245E-14  0.12500000000E+03  0.12500000000E+03 0.  0.
        -13    1    3    3    0    0 -0.13995152907E+02 -0.33902468340E+02  0.96234230560E+01  0.37919165336E+02  0.10566000000E+00 0. -1.
         23    2    1    0    0    0 -0.20882232569E+01  0.87875045070E+01 -0.27702255092E+02  0.95862466662E+02  0.91326976659E+02 0.  0.
         13    1    3    3    0    0  0.11906929650E+02  0.42689972847E+02 -0.37325678148E+02  0.57943301326E+02  0.10566000000E+00 0.  1.
         22    1    1    0    0    0  0.20882232569E+01 -0.87875045070E+01  0.27702255092E+02  0.29137533338E+02  0.00000000000E+00 0.  1.
</event>
<event>
 5    1  0.1758488E-003  0.9118800E+02  0.7818608E-02  0.1130116E+00
         25   -1    0    0    0    0  0.00000000000E+00  0.00000000000E+00  0.99999998245E-14  0.12500000000E+03  0.12500000000E+03 0.  0.
        -13    1    3    3    0    0  0.23784355637E+01 -0.31461206980E+02  0.53712720430E+02  0.62293916239E+02  0.10566000000E+00 0.  1.
         23    2    1    0    0    0  0.97314948083E+00 -0.11059167509E+02  0.25942673218E+02  0.96781663770E+02  0.92576540994E+02 0.  0.
         13    1    3    3    0    0 -0.14052860828E+01  0.20402039471E+02 -0.27770047212E+02  0.34487747531E+02  0.10566000000E+00 0. -1.
         22    1    1    0    0    0 -0.97314948083E+00  0.11059167509E+02 -0.25942673218E+02  0.28218336230E+02  0.00000000000E+00 0.  1.
</event>
<event>
 5    1  0.1758488E-003  0.9118800E+02  0.7818608E-02  0.1130116E+00
         25   -1    0    0    0    0  0.00000000000E+00  0.00000000000E+00  0.99999998245E-14  0.12500000000E+03  0.12500000000E+03 0.  0.
        -13    1    3    3    0    0 -0.34036236495E+02  0.41260590664E+01 -0.68506135725E+01  0.34963292587E+02  0.10566000000E+00 0. -1.
         23    2    1    0    0    0  0.42549409397E+01 -0.24144704843E+02 -0.28630650205E+02  0.87306692563E+02  0.78750702478E+02 0.  0.
         13    1    3    3    0    0  0.38291177435E+02 -0.28270763909E+02 -0.21780036633E+02  0.52343399976E+02  0.10566000000E+00 0.  1.
         22    1    1    0    0    0 -0.42549409397E+01  0.24144704843E+02  0.28630650205E+02  0.37693307437E+02  0.00000000000E+00 0.  1.
</event>
<event>
 5    1  0.1758488E-003  0.9118800E+02  0.7818608E-02  0.1130116E+00
         25   -1    0    0    0    0  0.00000000000E+00  0.00000000000E+00  0.99999998245E-14  0.12500000000E+03  0.12500000000E+03 0.  0.
        -13    1    3    3    0    0 -0.35051607361E+02 -0.43222527598E+02 -0.23409088075E+02  0.60372167752E+02  0.10566000000E+00 0. -1.
         23    2    1    0    0    0 -0.64021129258E+01 -0.26037381864E+02 -0.96430442294E+01  0.96505779424E+02  0.92203280071E+02 0.  0.
         13    1    3    3    0    0  0.28649494435E+02  0.17185145734E+02  0.13766043846E+02  0.36133611672E+02  0.10566000000E+00 0.  1.
         22    1    1    0    0    0  0.64021129258E+01  0.26037381864E+02  0.96430442294E+01  0.28494220576E+02  0.00000000000E+00 0. -1.
</event>
<event>
 5    1  0.1758488E-003  0.9118800E+02  0.7818608E-02  0.1130116E+00
         25   -1    0    0    0    0  0.00000000000E+00  0.00000000000E+00  0.99999998245E-14  0.12500000000E+03  0.12500000000E+03 0.  0.
        -13    1    3    3    0    0  0.37608712302E+02  0.19398405258E+02 -0.10892211704E+02  0.43696279103E+02  0.10566000000E+00 0. -1.
         23    2    1    0    0    0 -0.98330060010E+01  0.97701168652E+01 -0.26945901182E+02  0.94697775971E+02  0.89718693664E+02 0.  0.
         13    1    3    3    0    0 -0.47441718303E+02 -0.96282883923E+01 -0.16053689478E+02  0.51001496868E+02  0.10566000000E+00 0.  1.
         22    1    1    0    0    0  0.98330060010E+01 -0.97701168652E+01  0.26945901182E+02  0.30302224029E+02  0.00000000000E+00 0. -1.
</event>
<event>
 5    1  0.1758488E-003  0.9118800E+02  0.7818608E-02  0.1130116E+00
         25   -1    0    0    0    0  0.00000000000E+00  0.00000000000E+00  0.99999998245E-14  0.12500000000E+03  0.12500000000E+03 0.  0.
        -13    1    3    3    0    0 -0.97076303033E+01  0.34261058609E+02  0.17745033828E+02  0.39786374712E+02  0.10566000000E+00 0. -1.
         23    2    1    0    0    0 -0.21106550143E+02 -0.11262321226E+02 -0.14775183496E+02  0.96881813969E+02  0.92711668588E+02 0.  0.
         13    1    3    3    0    0 -0.11398919839E+02 -0.45523379836E+02 -0.32520217324E+02  0.57095439257E+02  0.10566000000E+00 0.  1.
         22    1    1    0    0    0  0.21106550143E+02  0.11262321226E+02  0.14775183496E+02  0.28118186031E+02  0.00000000000E+00 0.  1.
</event>
<event>
 5    1  0.1758488E-003  0.9118800E+02  0.7818608E-02  0.1130116E+00
         25   -1    0    0    0    0  0.00000000000E+00  0.00000000000E+00  0.99999998245E-14  0.12500000000E+03  0.12500000000E+03 0.  0.
        -13    1    3    3    0    0 -0.87077410341E+00  0.39265315951E+02 -0.46877178151E+02  0.61155574396E+02  0.10566000000E+00 0. -1.
         23    2    1    0    0    0 -0.57063368456E+01  0.12767882973E+02 -0.26870024721E+02  0.94708427834E+02  0.89733533077E+02 0.  0.
         13    1    3    3    0    0 -0.48355627422E+01 -0.26497432978E+02  0.20007153430E+02  0.33552853438E+02  0.10566000000E+00 0.  1.
         22    1    1    0    0    0  0.57063368456E+01 -0.12767882973E+02  0.26870024721E+02  0.30291572166E+02  0.00000000000E+00 0. -1.
</event>
<event>
 5    1  0.1758488E-003  0.9118800E+02  0.7818608E-02  0.1130116E+00
         25   -1    0    0    0    0  0.00000000000E+00  0.00000000000E+00  0.99999998245E-14  0.12500000000E+03  0.12500000000E+03 0.  0.
        -13    1    3    3    0    0 -0.49329367755E+02 -0.37913638796E+00  0.21311401036E+02  0.53737484549E+02  0.10566000000E+00 0. -1.
         23    2    1    0    0    0 -0.30229081035E+02 -0.64228766411E+01 -0.11370169590E+02  0.92070811715E+02  0.85980828845E+02 0.  0.
         13    1    3    3    0    0  0.19100286720E+02 -0.60437402531E+01 -0.32681570626E+02  0.38333327167E+02  0.10566000000E+00 0.  1.
         22    1    1    0    0    0  0.30229081035E+02  0.64228766411E+01  0.11370169590E+02  0.32929188285E+02  0.00000000000E+00 0. -1.
</event>
<event>
 5    1  0.1758488E-003  0.9118800E+02  0.7818608E-02  0.1130116E+00
         25   -1    0    0    0    0  0.00000000000E+00  0.00000000000E+00  0.99999998245E-14  0.12500000000E+03  0.12500000000E+03 0.  0.
        -13    1    3    3    0    0  0.14730646897E+02  0.70135034800E+00  0.56304826481E+02  0.58204196579E+02  0.10566000000E+00 0.  1.
         23    2    1    0    0    0 -0.64079307247E+01 -0.96763684499E+01  0.25535850452E+02  0.96950519775E+02  0.92804256065E+02 0.  0.
         13    1    3    3    0    0 -0.21138577622E+02 -0.10377718798E+02 -0.30768976029E+02  0.38746323196E+02  0.10566000000E+00 0. -1.
         22    1    1    0    0    0  0.64079307247E+01  0.96763684499E+01 -0.25535850452E+02  0.28049480225E+02  0.00000000000E+00 0.  1.
</event>
<event>
 5    1  0.1758488E-003  0.9118800E+02  0.7818608E-02  0.1130116E+00
         25   -1    0    0    0    0  0.00000000000E+00  0.00000000000E+00  0.99999998245E-14  0.12500000000E+03  0.12500000000E+03 0.  0.
        -13    1    3    3    0    0 -0.31761216493E+02  0.15071994571E+02  0.15431789628E+02  0.38393895200E+02  0.10566000000E+00 0.  1.
         23    2    1    0    0    0  0.23503564823E+02 -0.17501254324E+00  0.17398134683E+02  0.95757167045E+02  0.91182738286E+02 0.  0.
         13    1    3    3    0    0  0.55264781316E+02 -0.15247007115E+02  0.19663450556E+01  0.57363271845E+02  0.10566000000E+00 0. -1.
         22    1    1    0    0    0 -0.23503564823E+02  0.17501254324E+00 -0.17398134683E+02  0.29242832955E+02  0.00000000000E+00 0. -1.
</event>
<event>
 5    1  0.1758488E-003  0.9118800E+02  0.7818608E-02  0.1130116E+00
         25   -1    0    0    0    0  0.00000000000E+00  0.00000000000E+00  0.99999998245E-14  0.12500000000E+03  0.12500000000E+03 0.  0.
        -13    1    3    3    0    0 -0.90216458280E+01  0.39406762432E+02  0.13611008059E+02  0.42656227250E+02  0.10566000000E+00 0.  1.
         23    2    1    0    0    0 -0.22366705726E+02 -0.66814351942E+01 -0.13767282871E+02  0.97899277151E+02  0.94073478132E+02 0.  0.
         13    1    3    3    0    0 -0.13345059898E+02 -0.46088197626E+02 -0.27378290930E+02  0.55243049901E+02  0.10566000000E+00 0. -1.
         22    1    1    0    0    0  0.22366705726E+02  0.66814351942E+01  0.13767282871E+02  0.27100722849E+02  0.00000000000E+00 0. -1.
</event>
<event>
 5    1  0.1758488E-003  0.9118800E+02  0.7818608E-02  0.1130116E+00
         25   -1    0    0    0    0  0.00000000000E+00  0.00000000000E+00  0.99999998245E-14  0.12500000000E+03  0.12500000000E+03 0.  0.
        -13    1    3    3    0    0  0.11634597368E+01  0.42799444222E+02 -0.96310149410E+01  0.43885233018E+02  0.10566000000E+00 0. -1.
         23    2    1    0    0    0 -0.11609680286E+02  0.13808957204E+02  0.27133631978E+02  0.92416170272E+02  0.86481457944E+02 0.  0.
         13    1    3    3    0    0 -0.12773140023E+02 -0.28990487018E+02  0.36764646919E+02  0.48530937254E+02  0.10566000000E+00 0.  1.
         22    1    1    0    0    0  0.11609680286E+02 -0.13808957204E+02 -0.27133631978E+02  0.32583829728E+02  0.00000000000E+00 0.  1.
</event>
<event>
 5    1  0.1758488E-003  0.9118800E+02  0.7818608E-02  0.1130116E+00
         25   -1    0    0    0    0  0.00000000000E+00  0.00000000000E+00  0.99999998245E-14  0.12500000000E+03  0.12500000000E+03 0.  0.
        -13    1    3    3    0    0 -0.15049625052E+02 -0.13728512520E+02  0.61916535765E+01  0.21291101622E+02  0.10566000000E+00 0. -1.
         23    2    1    0    0    0 -0.33609261758E+01  0.42927255208E+02  0.14129837321E+02  0.79682262113E+02  0.65540563991E+02 0.  0.
         13    1    3    3    0    0  0.11688698876E+02  0.56655767729E+02  0.79381837441E+01  0.58391160491E+02  0.10566000000E+00 0.  1.
         22    1    1    0    0    0  0.33609261758E+01 -0.42927255208E+02 -0.14129837321E+02  0.45317737887E+02  0.00000000000E+00 0.  1.
</event>
<event>
 5    1  0.1758488E-003  0.9118800E+02  0.7818608E-02  0.1130116E+00
         25   -1    0    0    0    0  0.00000000000E+00  0.00000000000E+00  0.99999998245E-14  0.12500000000E+03  0.12500000000E+03 0.  0.
        -13    1    3    3    0    0 -0.24166323935E+02 -0.51048973657E+02  0.26316891893E+02  0.62310503825E+02  0.10566000000E+00 0.  1.
         23    2    1    0    0    0 -0.14002321894E+02 -0.21772103010E+02  0.12823036202E+02  0.96111944590E+02  0.91667803222E+02 0.  0.
         13    1    3    3    0    0  0.10164002041E+02  0.29276870647E+02 -0.13493855692E+02  0.33801440765E+02  0.10566000000E+00 0. -1.
         22    1    1    0    0    0  0.14002321894E+02  0.21772103010E+02 -0.12823036202E+02  0.28888055410E+02  0.00000000000E+00 0.  1.
</event>
<event>
 5    1  0.1758488E-003  0.9118800E+02  0.7818608E-02  0.1130116E+00
         25   -1    0    0    0    0  0.00000000000E+00  0.00000000000E+00  0.99999998245E-14  0.12500000000E+03  0.12500000000E+03 0.  0.
        -13    1    3    3    0    0 -0.17281284414E+02  0.13750592980E+02  0.23519632996E+02  0.32263073297E+02  0.10566000000E+00 0.  1.
         23    2    1    0    0    0 -0.19791918818E+02 -0.12965136814E+02 -0.26775339822E+02  0.89268590209E+02  0.81805547197E+02 0.  0.
         13    1    3    3    0    0 -0.25106344033E+01 -0.26715729793E+02 -0.50294972818E+02  0.57005516911E+02  0.10566000000E+00 0. -1.
         22    1    1    0    0    0  0.19791918818E+02  0.12965136814E+02  0.26775339822E+02  0.35731409791E+02  0.00000000000E+00 0. -1.
</event>
<event>
 5    1  0.1758488E-003  0.9118800E+02  0.7818608E-02  0.1130116E+00
         25   -1    0    0    0    0  0.00000000000E+00  0.00000000000E+00  0.99999998245E-14  0.12500000000E+03  0.12500000000E+03 0.  0.
        -13    1    3    3    0    0  0.30590984070E+02  0.15145779870E+02 -0.69773433448E+01  0.34841030961E+02  0.10566000000E+00 0.  1.
         23    2    1    0    0    0 -0.25731173033E+02 -0.41103036645E+01  0.10545251472E+02  0.96889678222E+02  0.92722271087E+02 0.  0.
         13    1    3    3    0    0 -0.56322157102E+02 -0.19256083535E+02  0.17522594817E+02  0.62048647261E+02  0.10566000000E+00 0. -1.
         22    1    1    0    0    0  0.25731173033E+02  0.41103036645E+01 -0.10545251472E+02  0.28110321778E+02  0.00000000000E+00 0. -1.
</event>
<event>
 5    1  0.1758488E-003  0.9118800E+02  0.7818608E-02  0.1130116E+00
         25   -1    0    0    0    0  0.00000000000E+00  0.00000000000E+00  0.99999998245E-14  0.12500000000E+03  0.12500000000E+03 0.  0.
        -13    1    3    3    0    0  0.27452639103E+02 -0.25936527135E+02 -0.86206715338E+01  0.38738585096E+02  0.10566000000E+00 0. -1.
         23    2    1    0    0    0  0.98133858871E+01  0.27025070096E+02  0.40056981676E+01  0.95970660116E+02  0.91474942083E+02 0.  0.
         13    1    3    3    0    0 -0.17639253216E+02  0.52961597231E+02  0.12626369701E+02  0.57232075020E+02  0.10566000000E+00 0.  1.
         22    1    1    0    0    0 -0.98133858871E+01 -0.27025070096E+02 -0.40056981676E+01  0.29029339884E+02  0.00000000000E+00 0.  1.
</event>
<event>
 5    1  0.1758488E-003  0.9118800E+02  0.7818608E-02  0.1130116E+00
         25   -1    0    0    0    0  0.00000000000E+00  0.00000000000E+00  0.99999998245E-14  0.12500000000E+03  0.12500000000E+03 0.  0.
        -13    1    3    3    0    0  0.48082956872E+01 -0.32252083586E+02 -0.50250551568E+02  0.59903636784E+02  0.10566000000E+00 0.  1.
         23    2    1    0    0    0  0.33036119799E+01 -0.28806623647E+01 -0.27676749491E+02  0.96978320355E+02  0.92841693698E+02 0.  0.
         13    1    3    3    0    0 -0.15046837073E+01  0.29371421221E+02  0.22573802077E+02  0.37074683571E+02  0.10566000000E+00 0. -1.
         22    1    1    0    0    0 -0.33036119799E+01  0.28806623647E+01  0.27676749491E+02  0.28021679645E+02  0.00000000000E+00 0.  1.
</event>
<event>
 5    1  0.1758488E-003  0.9118800E+02  0.7818608E-02  0.1130116E+00
         25   -1    0    0    0    0  0.00000000000E+00  0.00000000000E+00  0.99999998245E-14  0.12500000000E+03  0.12500000000E+03 0.  0.
        -13    1    3    3    0    0 -0.15868425745E+02 -0.28855588255E+02 -0.10813840969E+02  0.34661249684E+02  0.10566000000E+00 0.  1.
         23    2    1    0    0    0  0.93403598506E+01  0.26890759767E+02 -0.47097436296E+01  0.96146283289E+02  0.91714616186E+02 0.  0.
         13    1    3    3    0    0  0.25208785596E+02  0.55746348022E+02  0.61040973396E+01  0.61485033604E+02  0.10566000000E+00 0. -1.
         22    1    1    0    0    0 -0.93403598506E+01 -0.26890759767E+02  0.47097436296E+01  0.28853716711E+02  0.00000000000E+00 0. -1.
</event>
<event>
 5    1  0.1758488E-003  0.9118800E+02  0.7818608E-02  0.1130116E+00
         25   -1    0    0    0    0  0.00000000000E+00  0.00000000000E+00  0.99999998245E-14  0.12500000000E+03  0.12500000000E+03 0.  0.
        -13    1    3    3    0    0  0.23055981343E+02  0.57635681854E+02  0.23738172169E+01  0.62121624823E+02  0.10566000000E+00 0. -1.
         23    2    1    0    0    0  0.14048728333E+02  0.27731593160E+02 -0.28332210671E+01  0.93784055860E+02  0.88436496793E+02 0.  0.
         13    1    3    3    0    0 -0.90072530107E+01 -0.29904088694E+02 -0.52070382840E+01  0.31662431037E+02  0.10566000000E+00 0.  1.
         22    1    1    0    0    0 -0.14048728333E+02 -0.27731593160E+02  0.28332210671E+01  0.31215944140E+02  0.00000000000E+00 0. -1.
</event>
<event>
 5    1  0.1758488E-003  0.9118800E+02  0.7818608E-02  0.1130116E+00
         25   -1    0    0    0    0  0.00000000000E+00  0.00000000000E+00  0.99999998245E-14  0.12500000000E+03  0.12500000000E+03 0.  0.
        -13    1    3    3    0    0  0.19932584678E+02 -0.14186935394E+02  0.43807177840E+02  0.50176259946E+02  0.10566000000E+00 0.  1.
         23    2    1    0    0    0  0.69136887303E+00  0.20104195351E+02  0.22196777213E+02  0.95044139467E+02  0.90199971545E+02 0.  0.
         13    1    3    3    0    0 -0.19241215805E+02  0.34291130745E+02 -0.21610400627E+02  0.44867879521E+02  0.10566000000E+00 0. -1.
         22    1    1    0    0    0 -0.69136887303E+00 -0.20104195351E+02 -0.22196777213E+02  0.29955860533E+02  0.00000000000E+00 0.  1.
</event>
<event>
 5    1  0.1758488E-003  0.9118800E+02  0.7818608E-02  0.1130116E+00
         25   -1    0    0    0    0  0.00000000000E+00  0.00000000000E+00  0.99999998245E-14  0.12500000000E+03  0.12500000000E+03 0.  0.
        -13    1    3    3    0    0  0.28329466265E+02 -0.16445725537E+02 -0.10106347100E+02  0.34280752078E+02  0.10566000000E+00 0.  1.
         23    2    1    0    0    0  0.27536359256E+01  0.98738410444E+01  0.32738229712E+02  0.90694505798E+02  0.83956098346E+02 0.  0.
         13    1    3    3    0    0 -0.25575830339E+02  0.26319566582E+02  0.42844576812E+02  0.56413753720E+02  0.10566000000E+00 0. -1.
         22    1    1    0    0    0 -0.27536359256E+01 -0.98738410444E+01 -0.32738229712E+02  0.34305494202E+02  0.00000000000E+00 0. -1.
</event>
<event>
 5    1  0.1758488E-003  0.9118800E+02  0.7818608E-02  0.1130116E+00
         25   -1    0    0    0    0  0.00000000000E+00  0.00000000000E+00  0.99999998245E-14  0.12500000000E+03  0.12500000000E+03 0.  0.
        -13    1    3    3    0    0 -0.53091043645E+01 -0.28805094413E+02 -0.53798327107E+02  0.61255132168E+02  0.10566000000E+00 0.  1.
         23    2    1    0    0    0 -0.10167863521E+02 -0.95131674070E+01 -0.26881855532E+02  0.94725919345E+02  0.89757895676E+02 0.  0.
         13    1    3    3    0    0 -0.48587591566E+01  0.19291927006E+02  0.26916471576E+02  0.33470787177E+02  0.10566000000E+00 0. -1.
         22    1    1    0    0    0  0.10167863521E+02  0.95131674070E+01  0.26881855532E+02  0.30274080655E+02  0.00000000000E+00 0.  1.
</event>
<event>
 5    1  0.1758488E-003  0.9118800E+02  0.7818608E-02  0.1130116E+00
         25   -1    0    0    0    0  0.00000000000E+00  0.00000000000E+00  0.99999998245E-14  0.12500000000E+03  0.12500000000E+03 0.  0.
        -13    1    3    3    0    0  0.25718658961E+02  0.52837620494E+01  0.17296485499E+02  0.31441169425E+02  0.10566000000E+00 0. -1.
         23    2    1    0    0    0 -0.18581654273E+02 -0.14098656087E+02 -0.21378368170E+02  0.93360078942E+02  0.87835185065E+02 0.  0.
         13    1    3    3    0    0 -0.44300313234E+02 -0.19382418136E+02 -0.38674853669E+02  0.61918909517E+02  0.10566000000E+00 0.  1.
         22    1    1    0    0    0  0.18581654273E+02  0.14098656087E+02  0.21378368170E+02  0.31639921058E+02  0.00000000000E+00 0.  1.
</event>
<event>
 5    1  0.1758488E-003  0.9118800E+02  0.7818608E-02  0.1130116E+00
         25   -1    0    0    0    0  0.00000000000E+00  0.00000000000E+00  0.99999998245E-14  0.12500000000E+03  0.12500000000E+03 0.  0.
        -13    1    3    3    0    0 -0.38052255858E+02  0.79126680216E+00  0.37295978321E+02  0.53287910843E+02  0.10566000000E+00 0.  1.
         23    2    1    0    0    0  0.80651867871E+00 -0.13961927772E+02  0.24519475735E+02  0.96772520661E+02  0.92564194834E+02 0.  0.
         13    1    3    3    0    0  0.38858774537E+02 -0.14753194575E+02 -0.12776502586E+02  0.43484609818E+02  0.10566000000E+00 0. -1.
         22    1    1    0    0    0 -0.80651867871E+00  0.13961927772E+02 -0.24519475735E+02  0.28227479339E+02  0.00000000000E+00 0.  1.
</event>
<event>
 5    1  0.1758488E-003  0.9118800E+02  0.7818608E-02  0.1130116E+00
         25   -1    0    0    0    0  0.00000000000E+00  0.00000000000E+00  0.99999998245E-14  0.12500000000E+03  0.12500000000E+03 0.  0.
        -13    1    3    3    0    0 -0.30403831838E+02 -0.48519366895E+02 -0.18671733786E+02  0.60225964176E+02  0.10566000000E+00 0. -1.
         23    2    1    0    0    0 -0.22276581430E+02 -0.22607845553E+02  0.13855084118E+00  0.93260750527E+02  0.87693714894E+02 0.  0.
         13    1    3    3    0    0  0.81272504080E+01  0.25911521342E+02  0.18810284627E+02  0.33034786351E+02  0.10566000000E+00 0.  1.
         22    1    1    0    0    0  0.22276581430E+02  0.22607845553E+02 -0.13855084118E+00  0.31739249473E+02  0.00000000000E+00 0. -1.
</event>
<event>
 4    1  0.1758488E-003  0.9118800E+02  0.7818608E-02  0.1130116E+00
         25   -1    0    0    0    0  0.00000000000E+00  0.00000000000E+00  0.99999998245E-14  0.12500000000E+03  0.12500000000E+03 0.  0.
        -13    1    1    0    0    0  0.31419622907E+02  0.44898267624E+02 -0.10515473338E+02  0.55799941602E+02  0.10566000000E+00 0.  1.
         13    1    1    0    0    0  0.57104752205E+01 -0.90860178513E+01  0.13831943623E+02  0.17507115013E+02  0.10566000000E+00 0. -1.
         22    1    1    0    0    0 -0.37130098127E+02 -0.35812249772E+02 -0.33164702850E+01  0.51692943385E+02  0.00000000000E+00 0.  1.
</event>
<event>
 5    1  0.1758488E-003  0.9118800E+02  0.7818608E-02  0.1130116E+00
         25   -1    0    0    0    0  0.00000000000E+00  0.00000000000E+00  0.99999998245E-14  0.12500000000E+03  0.12500000000E+03 0.  0.
        -13    1    3    3    0    0 -0.33481657974E+02 -0.23713972744E+02  0.29886949503E+02  0.50760366810E+02  0.10566000000E+00 0.  1.
         23    2    1    0    0    0 -0.84512560174E+01  0.13994819441E+02  0.23357986076E+02  0.96489050999E+02  0.92180598553E+02 0.  0.
         13    1    3    3    0    0  0.25030401957E+02  0.37708792185E+02 -0.65289634276E+01  0.45728684189E+02  0.10566000000E+00 0. -1.
         22    1    1    0    0    0  0.84512560174E+01 -0.13994819441E+02 -0.23357986076E+02  0.28510949001E+02  0.00000000000E+00 0.  1.
</event>
<event>
 5    1  0.1758488E-003  0.9118800E+02  0.7818608E-02  0.1130116E+00
         25   -1    0    0    0    0  0.00000000000E+00  0.00000000000E+00  0.99999998245E-14  0.12500000000E+03  0.12500000000E+03 0.  0.
        -13    1    3    3    0    0  0.52330827860E+02 -0.22442746696E+02  0.61949099171E+01  0.57276351985E+02  0.10566000000E+00 0.  1.
         23    2    1    0    0    0  0.15330643899E+02 -0.24135038424E+02 -0.50074597470E+01  0.95972368764E+02  0.91477276911E+02 0.  0.
         13    1    3    3    0    0 -0.37000183961E+02 -0.16922917277E+01 -0.11202369664E+02  0.38696016779E+02  0.10566000000E+00 0. -1.
         22    1    1    0    0    0 -0.15330643899E+02  0.24135038424E+02  0.50074597470E+01  0.29027631236E+02  0.00000000000E+00 0.  1.
</event>
<event>
 5    1  0.1758488E-003  0.9118800E+02  0.7818608E-02  0.1130116E+00
         25   -1    0    0    0    0  0.00000000000E+00  0.00000000000E+00  0.99999998245E-14  0.12500000000E+03  0.12500000000E+03 0.  0.
        -13    1    3    3    0    0 -0.57777027704E+02  0.60706950843E+01 -0.11818327785E+02  0.59285093445E+02  0.10566000000E+00 0.  1.
         23    2    1    0    0    0 -0.23226134490E+02  0.74449254816E+01 -0.18353651049E+02  0.94475636852E+02  0.89408664082E+02 0.  0.
         13    1    3    3    0    0  0.34550893214E+02  0.13742303972E+01 -0.65353232643E+01  0.35190543407E+02  0.10566000000E+00 0. -1.
         22    1    1    0    0    0  0.23226134490E+02 -0.74449254816E+01  0.18353651049E+02  0.30524363148E+02  0.00000000000E+00 0.  1.
</event>
<event>
 5    1  0.1758488E-003  0.9118800E+02  0.7818608E-02  0.1130116E+00
         25   -1    0    0    0    0  0.00000000000E+00  0.00000000000E+00  0.99999998245E-14  0.12500000000E+03  0.12500000000E+03 0.  0.
        -13    1    3    3    0    0  0.82255037561E+01 -0.53313082452E+02  0.23966343844E+02  0.59028302312E+02  0.10566000000E+00 0.  1.
         23    2    1    0    0    0 -0.77326157309E+01 -0.20050554861E+02  0.19115603132E+02  0.96238491358E+02  0.91840202741E+02 0.  0.
         13    1    3    3    0    0 -0.15958119487E+02  0.33262527591E+02 -0.48507407120E+01  0.37210189045E+02  0.10566000000E+00 0. -1.
         22    1    1    0    0    0  0.77326157309E+01  0.20050554861E+02 -0.19115603132E+02  0.28761508642E+02  0.00000000000E+00 0.  1.
</event>
<event>
 5    1  0.1758488E-003  0.9118800E+02  0.7818608E-02  0.1130116E+00
         25   -1    0    0    0    0  0.00000000000E+00  0.00000000000E+00  0.99999998245E-14  0.12500000000E+03  0.12500000000E+03 0.  0.
        -13    1    3    3    0    0 -0.34968356848E+01 -0.36938215387E+02  0.29187976842E+02  0.47208143068E+02  0.10566000000E+00 0. -1.
         23    2    1    0    0    0 -0.12660722655E+02 -0.20953230809E+02 -0.15827015208E+02  0.95848221497E+02  0.91307477099E+02 0.  0.
         13    1    3    3    0    0 -0.91638869700E+01  0.15984984577E+02 -0.45014992050E+02  0.48640078429E+02  0.10566000000E+00 0.  1.
         22    1    1    0    0    0  0.12660722655E+02  0.20953230809E+02  0.15827015208E+02  0.29151778503E+02  0.00000000000E+00 0. -1.
</event>
<event>
 5    1  0.1758488E-003  0.9118800E+02  0.7818608E-02  0.1130116E+00
         25   -1    0    0    0    0  0.00000000000E+00  0.00000000000E+00  0.99999998245E-14  0.12500000000E+03  0.12500000000E+03 0.  0.
        -13    1    3    3    0    0  0.47472572893E+02 -0.86179266006E+01 -0.73062656418E+01  0.48798632334E+02  0.10566000000E+00 0.  1.
         23    2    1    0    0    0  0.25339250813E+02  0.22279968048E+02  0.88807280430E+01  0.90109572394E+02  0.83080642140E+02 0.  0.
         13    1    3    3    0    0 -0.22133322081E+02  0.30897894649E+02  0.16186993685E+02  0.41310940060E+02  0.10566000000E+00 0. -1.
         22    1    1    0    0    0 -0.25339250813E+02 -0.22279968048E+02 -0.88807280430E+01  0.34890427606E+02  0.00000000000E+00 0.  1.
</event>
<event>
 5    1  0.1758488E-003  0.9118800E+02  0.7818608E-02  0.1130116E+00
         25   -1    0    0    0    0  0.00000000000E+00  0.00000000000E+00  0.99999998245E-14  0.12500000000E+03  0.12500000000E+03 0.  0.
        -13    1    3    3    0    0 -0.24831843969E+02  0.16313866135E+02 -0.12876280200E+02  0.32381668564E+02  0.10566000000E+00 0.  1.
         23    2    1    0    0    0  0.23199457533E+02 -0.12674293032E+02  0.14546417792E+02  0.94826322659E+02  0.89897612120E+02 0.  0.
         13    1    3    3    0    0  0.48031301502E+02 -0.28988159167E+02  0.27422697992E+02  0.62444654095E+02  0.10566000000E+00 0. -1.
         22    1    1    0    0    0 -0.23199457533E+02  0.12674293032E+02 -0.14546417792E+02  0.30173677341E+02  0.00000000000E+00 0. -1.
</event>
<event>
 5    1  0.1758488E-003  0.9118800E+02  0.7818608E-02  0.1130116E+00
         25   -1    0    0    0    0  0.00000000000E+00  0.00000000000E+00  0.99999998245E-14  0.12500000000E+03  0.12500000000E+03 0.  0.
        -13    1    3    3    0    0  0.49742257163E+02 -0.23411133032E+01 -0.34826931481E+02  0.60767584118E+02  0.10566000000E+00 0.  1.
         23    2    1    0    0    0  0.22839685668E+02 -0.11400402155E+02 -0.15015790576E+02  0.95384220805E+02  0.90670034748E+02 0.  0.
         13    1    3    3    0    0 -0.26902571494E+02 -0.90592888515E+01  0.19811140905E+02  0.34616636687E+02  0.10566000000E+00 0. -1.
         22    1    1    0    0    0 -0.22839685668E+02  0.11400402155E+02  0.15015790576E+02  0.29615779195E+02  0.00000000000E+00 0.  1.
</event>
<event>
 5    1  0.1758488E-003  0.9118800E+02  0.7818608E-02  0.1130116E+00
         25   -1    0    0    0    0  0.00000000000E+00  0.00000000000E+00  0.99999998245E-14  0.12500000000E+03  0.12500000000E+03 0.  0.
        -13    1    3    3    0    0  0.22556705875E+02 -0.48252268333E+01  0.55452987326E+02  0.60059410265E+02  0.10566000000E+00 0.  1.
         23    2    1    0    0    0  0.49686675683E+01 -0.13269570272E+02  0.26029981769E+02  0.95363382388E+02  0.90641301828E+02 0.  0.
         13    1    3    3    0    0 -0.17588038307E+02 -0.84443434387E+01 -0.29423005558E+02  0.35303972123E+02  0.10566000000E+00 0. -1.
         22    1    1    0    0    0 -0.49686675683E+01  0.13269570272E+02 -0.26029981769E+02  0.29636617612E+02  0.00000000000E+00 0.  1.
</event>
<event>
 5    1  0.1758488E-003  0.9118800E+02  0.7818608E-02  0.1130116E+00
         25   -1    0    0    0    0  0.00000000000E+00  0.00000000000E+00  0.99999998245E-14  0.12500000000E+03  0.12500000000E+03 0.  0.
        -13    1    3    3    0    0  0.15449994268E+02 -0.49238573570E+02 -0.20531903444E+02  0.55540162704E+02  0.10566000000E+00 0.  1.
         23    2    1    0    0    0  0.26028297401E+02 -0.15849469038E+02 -0.40210256511E+01  0.94261643152E+02  0.89108982645E+02 0.  0.
         13    1    3    3    0    0  0.10578303134E+02  0.33389104532E+02  0.16510877793E+02  0.38721480449E+02  0.10566000000E+00 0. -1.
         22    1    1    0    0    0 -0.26028297401E+02  0.15849469038E+02  0.40210256511E+01  0.30738356848E+02  0.00000000000E+00 0.  1.
</event>
<event>
 5    1  0.1758488E-003  0.9118800E+02  0.7818608E-02  0.1130116E+00
         25   -1    0    0    0    0  0.00000000000E+00  0.00000000000E+00  0.99999998245E-14  0.12500000000E+03  0.12500000000E+03 0.  0.
        -13    1    3    3    0    0 -0.32151644779E+02  0.11757441516E+02  0.41940449274E+02  0.54138508866E+02  0.10566000000E+00 0. -1.
         23    2    1    0    0    0 -0.19865130789E+02  0.21698315746E+02  0.39092182281E+01  0.95323033938E+02  0.90585641713E+02 0.  0.
         13    1    3    3    0    0  0.12286513990E+02  0.99408742308E+01 -0.38031231046E+02  0.41184525072E+02  0.10566000000E+00 0.  1.
         22    1    1    0    0    0  0.19865130789E+02 -0.21698315746E+02 -0.39092182281E+01  0.29676966062E+02  0.00000000000E+00 0. -1.
</event>
<event>
 5    1  0.1758488E-003  0.9118800E+02  0.7818608E-02  0.1130116E+00
         25   -1    0    0    0    0  0.00000000000E+00  0.00000000000E+00  0.99999998245E-14  0.12500000000E+03  0.12500000000E+03 0.  0.
        -13    1    3    3    0    0  0.65408216376E+01  0.13523626982E+02 -0.29370211861E+02  0.32989261029E+02  0.10566000000E+00 0.  1.
         23    2    1    0    0    0  0.86589537269E+00  0.90911107528E+00  0.30519001480E+02  0.94455185234E+02  0.89380066617E+02 0.  0.
         13    1    3    3    0    0 -0.56749262649E+01 -0.12614515907E+02  0.59889213341E+02  0.61465924205E+02  0.10566000000E+00 0. -1.
         22    1    1    0    0    0 -0.86589537269E+00 -0.90911107528E+00 -0.30519001480E+02  0.30544814766E+02  0.00000000000E+00 0. -1.
</event>
<event>
 5    1  0.1758488E-003  0.9118800E+02  0.7818608E-02  0.1130116E+00
         25   -1    0    0    0    0  0.00000000000E+00  0.00000000000E+00  0.99999998245E-14  0.12500000000E+03  0.12500000000E+03 0.  0.
        -13    1    3    3    0    0  0.27269955943E+01 -0.59018114708E+02 -0.17682839277E+02  0.61670644051E+02  0.10566000000E+00 0. -1.
         23    2    1    0    0    0 -0.59089747068E+01 -0.27374791484E+02 -0.77596485412E+01  0.95939591600E+02  0.91432477271E+02 0.  0.
         13    1    3    3    0    0 -0.86359703012E+01  0.31643323224E+02  0.99231907358E+01  0.34268947549E+02  0.10566000000E+00 0.  1.
         22    1    1    0    0    0  0.59089747068E+01  0.27374791484E+02  0.77596485412E+01  0.29060408400E+02  0.00000000000E+00 0. -1.
</event>
<event>
 5    1  0.1758488E-003  0.9118800E+02  0.7818608E-02  0.1130116E+00
         25   -1    0    0    0    0  0.00000000000E+00  0.00000000000E+00  0.99999998245E-14  0.12500000000E+03  0.12500000000E+03 0.  0.
        -13    1    3    3    0    0 -0.40085603109E+02  0.21962456338E+02  0.32221908199E+02  0.55923765941E+02  0.10566000000E+00 0. -1.
         23    2    1    0    0    0 -0.27419493062E+02 -0.70104349305E+01  0.85123796489E+01  0.95446059400E+02  0.90755246956E+02 0.  0.
         13    1    3    3    0    0  0.12666110047E+02 -0.28972891268E+02 -0.23709528550E+02  0.39522293459E+02  0.10566000000E+00 0.  1.
         22    1    1    0    0    0  0.27419493062E+02  0.70104349305E+01 -0.85123796489E+01  0.29553940600E+02  0.00000000000E+00 0. -1.
</event>
<event>
 5    1  0.1758488E-003  0.9118800E+02  0.7818608E-02  0.1130116E+00
         25   -1    0    0    0    0  0.00000000000E+00  0.00000000000E+00  0.99999998245E-14  0.12500000000E+03  0.12500000000E+03 0.  0.
        -13    1    3    3    0    0 -0.39860128442E+01 -0.34232251066E+02 -0.20970281860E+02  0.40342275553E+02  0.10566000000E+00 0.  1.
         23    2    1    0    0    0  0.19345153779E+02  0.16024939350E+02 -0.14147811121E+02  0.96169560957E+02  0.91746336380E+02 0.  0.
         13    1    3    3    0    0  0.23331166623E+02  0.50257190416E+02  0.68224707391E+01  0.55827285404E+02  0.10566000000E+00 0. -1.
         22    1    1    0    0    0 -0.19345153779E+02 -0.16024939350E+02  0.14147811121E+02  0.28830439043E+02  0.00000000000E+00 0. -1.
</event>
<event>
 5    1  0.1758488E-003  0.9118800E+02  0.7818608E-02  0.1130116E+00
         25   -1    0    0    0    0  0.00000000000E+00  0.00000000000E+00  0.99999998245E-14  0.12500000000E+03  0.12500000000E+03 0.  0.
        -13    1    3    3    0    0  0.13230117937E+02 -0.61054665072E+01  0.10890158686E+02  0.18191191884E+02  0.10566000000E+00 0.  1.
         23    2    1    0    0    0 -0.46158906475E+02 -0.61770939587E+01  0.87218425557E+01  0.77619923235E+02  0.61481548522E+02 0.  0.
         13    1    3    3    0    0 -0.59389024412E+02 -0.71627451485E-01 -0.21683161306E+01  0.59428731351E+02  0.10566000000E+00 0. -1.
         22    1    1    0    0    0  0.46158906475E+02  0.61770939587E+01 -0.87218425557E+01  0.47380076765E+02  0.00000000000E+00 0. -1.
</event>
<event>
 5    1  0.1758488E-003  0.9118800E+02  0.7818608E-02  0.1130116E+00
         25   -1    0    0    0    0  0.00000000000E+00  0.00000000000E+00  0.99999998245E-14  0.12500000000E+03  0.12500000000E+03 0.  0.
        -13    1    3    3    0    0  0.14890809365E+02  0.45548109089E+01 -0.33926781020E+02  0.37329882673E+02  0.10566000000E+00 0.  1.
         23    2    1    0    0    0  0.11220630142E+02 -0.10915586120E+02  0.23414363780E+02  0.96834684587E+02  0.92648103848E+02 0.  0.
         13    1    3    3    0    0 -0.36701792229E+01 -0.15470397029E+02  0.57341144800E+02  0.59504801914E+02  0.10566000000E+00 0. -1.
         22    1    1    0    0    0 -0.11220630142E+02  0.10915586120E+02 -0.23414363780E+02  0.28165315413E+02  0.00000000000E+00 0. -1.
</event>
<event>
 5    1  0.1758488E-003  0.9118800E+02  0.7818608E-02  0.1130116E+00
         25   -1    0    0    0    0  0.00000000000E+00  0.00000000000E+00  0.99999998245E-14  0.12500000000E+03  0.12500000000E+03 0.  0.
        -13    1    3    3    0    0  0.20471041954E+02 -0.32666977918E+02 -0.35827125734E+02  0.52628785920E+02  0.10566000000E+00 0. -1.
         23    2    1    0    0    0  0.18869202299E+02 -0.10417668758E+02  0.81633405788E+01  0.10195190361E+03  0.99312516345E+02 0.  0.
         13    1    3    3    0    0 -0.16018396550E+01  0.22249309160E+02  0.43990466312E+02  0.49323117692E+02  0.10566000000E+00 0.  1.
         22    1    1    0    0    0 -0.18869202299E+02  0.10417668758E+02 -0.81633405788E+01  0.23048096389E+02  0.00000000000E+00 0.  1.
</event>
<event>
 5    1  0.1758488E-003  0.9118800E+02  0.7818608E-02  0.1130116E+00
         25   -1    0    0    0    0  0.00000000000E+00  0.00000000000E+00  0.99999998245E-14  0.12500000000E+03  0.12500000000E+03 0.  0.
        -13    1    3    3    0    0  0.30262723258E+02  0.36983678828E+02 -0.12770536561E+02  0.49464357742E+02  0.10566000000E+00 0.  1.
         23    2    1    0    0    0 -0.17063118395E+01  0.22093705937E+02  0.18141967102E+02  0.96361314408E+02  0.92007220380E+02 0.  0.
         13    1    3    3    0    0 -0.31969035098E+02 -0.14889972892E+02  0.30912503663E+02  0.46896956666E+02  0.10566000000E+00 0. -1.
         22    1    1    0    0    0  0.17063118395E+01 -0.22093705937E+02 -0.18141967102E+02  0.28638685592E+02  0.00000000000E+00 0. -1.
</event>
<event>
 5    1  0.1758488E-003  0.9118800E+02  0.7818608E-02  0.1130116E+00
         25   -1    0    0    0    0  0.00000000000E+00  0.00000000000E+00  0.99999998245E-14  0.12500000000E+03  0.12500000000E+03 0.  0.
        -13    1    3    3    0    0 -0.40555066409E+02  0.32887663330E+01  0.14783471327E+02  0.43290779434E+02  0.10566000000E+00 0.  1.
         23    2    1    0    0    0  0.12670926332E+02  0.20586923133E+02  0.72527283443E+01  0.99761619572E+02  0.96516345211E+02 0.  0.
         13    1    3    3    0    0  0.53225992742E+02  0.17298156800E+02 -0.75307429831E+01  0.56470840138E+02  0.10566000000E+00 0. -1.
         22    1    1    0    0    0 -0.12670926332E+02 -0.20586923133E+02 -0.72527283443E+01  0.25238380428E+02  0.00000000000E+00 0. -1.
</event>
<event>
 5    1  0.1758488E-003  0.9118800E+02  0.7818608E-02  0.1130116E+00
         25   -1    0    0    0    0  0.00000000000E+00  0.00000000000E+00  0.99999998245E-14  0.12500000000E+03  0.12500000000E+03 0.  0.
        -13    1    3    3    0    0  0.87424233324E+01 -0.42815552066E+02  0.41603490350E+02  0.60336249783E+02  0.10566000000E+00 0.  1.
         23    2    1    0    0    0  0.85330028648E+01 -0.25208467961E+02  0.98939693109E+01  0.96606873657E+02  0.92340231829E+02 0.  0.
         13    1    3    3    0    0 -0.20942046761E+00  0.17607084106E+02 -0.31709521040E+02  0.36270623874E+02  0.10566000000E+00 0. -1.
         22    1    1    0    0    0 -0.85330028648E+01  0.25208467961E+02 -0.98939693109E+01  0.28393126343E+02  0.00000000000E+00 0.  1.
</event>
<event>
 5    1  0.1758488E-003  0.9118800E+02  0.7818608E-02  0.1130116E+00
         25   -1    0    0    0    0  0.00000000000E+00  0.00000000000E+00  0.99999998245E-14  0.12500000000E+03  0.12500000000E+03 0.  0.
        -13    1    3    3    0    0 -0.16812943562E+02 -0.10303439923E+02  0.31260319680E+02  0.36960177164E+02  0.10566000000E+00 0.  1.
         23    2    1    0    0    0  0.25542099773E+02 -0.22368908721E+02  0.27767876453E+02  0.81138605803E+02  0.68261639672E+02 0.  0.
         13    1    3    3    0    0  0.42355043335E+02 -0.12065468798E+02 -0.34924432271E+01  0.44178428639E+02  0.10566000000E+00 0. -1.
         22    1    1    0    0    0 -0.25542099773E+02  0.22368908721E+02 -0.27767876453E+02  0.43861394197E+02  0.00000000000E+00 0.  1.
</event>
<event>
 5    1  0.1758488E-003  0.9118800E+02  0.7818608E-02  0.1130116E+00
         25   -1    0    0    0    0  0.00000000000E+00  0.00000000000E+00  0.99999998245E-14  0.12500000000E+03  0.12500000000E+03 0.  0.
        -13    1    3    3    0    0 -0.52291682767E+02  0.49299681880E+01 -0.17270462420E+02  0.55290186373E+02  0.10566000000E+00 0.  1.
         23    2    1    0    0    0 -0.19014755687E+02  0.22613380372E+02 -0.43014861821E+01  0.95143196938E+02  0.90337142055E+02 0.  0.
         13    1    3    3    0    0  0.33276927081E+02  0.17683412184E+02  0.12968976238E+02  0.39853010565E+02  0.10566000000E+00 0. -1.
         22    1    1    0    0    0  0.19014755687E+02 -0.22613380372E+02  0.43014861821E+01  0.29856803062E+02  0.00000000000E+00 0.  1.
</event>
<event>
 5    1  0.1758488E-003  0.9118800E+02  0.7818608E-02  0.1130116E+00
         25   -1    0    0    0    0  0.00000000000E+00  0.00000000000E+00  0.99999998245E-14  0.12500000000E+03  0.12500000000E+03 0.  0.
        -13    1    3    3    0    0 -0.31358756267E+02 -0.52586667858E+01 -0.13213977002E+02  0.34433203790E+02  0.10566000000E+00 0.  1.
         23    2    1    0    0    0  0.14516036470E+02  0.16235151643E+02  0.20342006796E+02  0.95199115715E+02  0.90414484065E+02 0.  0.
         13    1    3    3    0    0  0.45874792738E+02  0.21493818429E+02  0.33555983798E+02  0.60765911925E+02  0.10566000000E+00 0. -1.
         22    1    1    0    0    0 -0.14516036470E+02 -0.16235151643E+02 -0.20342006796E+02  0.29800884285E+02  0.00000000000E+00 0. -1.
</event>
<event>
 5    1  0.1758488E-003  0.9118800E+02  0.7818608E-02  0.1130116E+00
         25   -1    0    0    0    0  0.00000000000E+00  0.00000000000E+00  0.99999998245E-14  0.12500000000E+03  0.12500000000E+03 0.  0.
        -13    1    3    3    0    0  0.53121971479E+02 -0.75060954260E+01  0.29390648091E+02  0.61172760945E+02  0.10566000000E+00 0.  1.
         23    2    1    0    0    0  0.26309388845E+02  0.54449612933E+01  0.14652130052E+02  0.94397443572E+02  0.89299277114E+02 0.  0.
         13    1    3    3    0    0 -0.26812582634E+02  0.12951056719E+02 -0.14738518039E+02  0.33224682627E+02  0.10566000000E+00 0. -1.
         22    1    1    0    0    0 -0.26309388845E+02 -0.54449612933E+01 -0.14652130052E+02  0.30602556428E+02  0.00000000000E+00 0.  1.
</event>
<event>
 5    1  0.1758488E-003  0.9118800E+02  0.7818608E-02  0.1130116E+00
         25   -1    0    0    0    0  0.00000000000E+00  0.00000000000E+00  0.99999998245E-14  0.12500000000E+03  0.12500000000E+03 0.  0.
        -13    1    3    3    0    0 -0.14564171165E+01 -0.60867499909E+02  0.11552322062E+02  0.61971291781E+02  0.10566000000E+00 0. -1.
         23    2    1    0    0    0  0.48803787265E+01 -0.28819348078E+02  0.40427388838E+01  0.95492091605E+02  0.90818626401E+02 0.  0.
         13    1    3    3    0    0  0.63367958430E+01  0.32048151831E+02 -0.75095831784E+01  0.33520799824E+02  0.10566000000E+00 0.  1.
         22    1    1    0    0    0 -0.48803787265E+01  0.28819348078E+02 -0.40427388838E+01  0.29507908395E+02  0.00000000000E+00 0. -1.
</event>
<event>
 5    1  0.1758488E-003  0.9118800E+02  0.7818608E-02  0.1130116E+00
         25   -1    0    0    0    0  0.00000000000E+00  0.00000000000E+00  0.99999998245E-14  0.12500000000E+03  0.12500000000E+03 0.  0.
        -13    1    3    3    0    0 -0.20098791207E+02 -0.31285261539E+02 -0.15052473608E+02  0.40116294985E+02  0.10566000000E+00 0. -1.
         23    2    1    0    0    0  0.28320437302E+02 -0.17084179120E+02 -0.64177653160E+01  0.91308694641E+02  0.84865621191E+02 0.  0.
         13    1    3    3    0    0  0.48419228508E+02  0.14201082419E+02  0.86347082921E+01  0.51192399656E+02  0.10566000000E+00 0.  1.
         22    1    1    0    0    0 -0.28320437302E+02  0.17084179120E+02  0.64177653160E+01  0.33691305359E+02  0.00000000000E+00 0.  1.
</event>
<event>
 5    1  0.1758488E-003  0.9118800E+02  0.7818608E-02  0.1130116E+00
         25   -1    0    0    0    0  0.00000000000E+00  0.00000000000E+00  0.99999998245E-14  0.12500000000E+03  0.12500000000E+03 0.  0.
        -13    1    3    3    0    0 -0.11855217457E+02  0.59603030191E+02 -0.71589391412E+01  0.61190922223E+02  0.10566000000E+00 0.  1.
         23    2    1    0    0    0 -0.12124949926E+02  0.49193935361E+02  0.84837099775E+00  0.74326758339E+02  0.54375450203E+02 0.  0.
         13    1    3    3    0    0 -0.26973246923E+00 -0.10409094829E+02  0.80073101389E+01  0.13135836116E+02  0.10566000000E+00 0. -1.
         22    1    1    0    0    0  0.12124949926E+02 -0.49193935361E+02 -0.84837099775E+00  0.50673241661E+02  0.00000000000E+00 0.  1.
</event>
<event>
 5    1  0.1758488E-003  0.9118800E+02  0.7818608E-02  0.1130116E+00
         25   -1    0    0    0    0  0.00000000000E+00  0.00000000000E+00  0.99999998245E-14  0.12500000000E+03  0.12500000000E+03 0.  0.
        -13    1    3    3    0    0 -0.36634577908E+02  0.29788118977E+02  0.36751180317E+02  0.59833809418E+02  0.10566000000E+00 0.  1.
         23    2    1    0    0    0 -0.11585407803E+02  0.24144697229E+02  0.11474009329E+02  0.95865124536E+02  0.91330614440E+02 0.  0.
         13    1    3    3    0    0  0.25049170105E+02 -0.56434217484E+01 -0.25277170988E+02  0.36031315118E+02  0.10566000000E+00 0. -1.
         22    1    1    0    0    0  0.11585407803E+02 -0.24144697229E+02 -0.11474009329E+02  0.29134875464E+02  0.00000000000E+00 0.  1.
</event>
<event>
 5    1  0.1758488E-003  0.9118800E+02  0.7818608E-02  0.1130116E+00
         25   -1    0    0    0    0  0.00000000000E+00  0.00000000000E+00  0.99999998245E-14  0.12500000000E+03  0.12500000000E+03 0.  0.
        -13    1    3    3    0    0  0.33928592543E+02  0.29575508961E+01 -0.21670843769E+02  0.40367476177E+02  0.10566000000E+00 0.  1.
         23    2    1    0    0    0 -0.21470771429E+02  0.11812799726E+02 -0.13379643853E+02  0.97079557081E+02  0.92977896676E+02 0.  0.
         13    1    3    3    0    0 -0.55399363972E+02  0.88552488304E+01  0.82911999155E+01  0.56712080904E+02  0.10566000000E+00 0. -1.
         22    1    1    0    0    0  0.21470771429E+02 -0.11812799726E+02  0.13379643853E+02  0.27920442919E+02  0.00000000000E+00 0. -1.
</event>
<event>
 5    1  0.1758488E-003  0.9118800E+02  0.7818608E-02  0.1130116E+00
         25   -1    0    0    0    0  0.00000000000E+00  0.00000000000E+00  0.99999998245E-14  0.12500000000E+03  0.12500000000E+03 0.  0.
        -13    1    3    3    0    0 -0.22183273811E+02 -0.34417982602E+02  0.10599558664E+01  0.40961321193E+02  0.10566000000E+00 0.  1.
         23    2    1    0    0    0 -0.36012291338E+01  0.11412101286E+02  0.26022111636E+02  0.96358156466E+02  0.92002929934E+02 0.  0.
         13    1    3    3    0    0  0.18582044677E+02  0.45830083888E+02  0.24962155770E+02  0.55396835273E+02  0.10566000000E+00 0. -1.
         22    1    1    0    0    0  0.36012291338E+01 -0.11412101286E+02 -0.26022111636E+02  0.28641843534E+02  0.00000000000E+00 0. -1.
</event>
<event>
 5    1  0.1758488E-003  0.9118800E+02  0.7818608E-02  0.1130116E+00
         25   -1    0    0    0    0  0.00000000000E+00  0.00000000000E+00  0.99999998245E-14  0.12500000000E+03  0.12500000000E+03 0.  0.
        -13    1    3    3    0    0 -0.12113551271E+02  0.95583588653E+01  0.48267233727E+02  0.50673833132E+02  0.10566000000E+00 0.  1.
         23    2    1    0    0    0 -0.16616366951E+02 -0.19648121477E+02  0.14823085297E+02  0.95303599781E+02  0.90558820362E+02 0.  0.
         13    1    3    3    0    0 -0.45028156803E+01 -0.29206480342E+02 -0.33444148429E+02  0.44629766650E+02  0.10566000000E+00 0. -1.
         22    1    1    0    0    0  0.16616366951E+02  0.19648121477E+02 -0.14823085297E+02  0.29696400219E+02  0.00000000000E+00 0. -1.
</event>
<event>
 5    1  0.1758488E-003  0.9118800E+02  0.7818608E-02  0.1130116E+00
         25   -1    0    0    0    0  0.00000000000E+00  0.00000000000E+00  0.99999998245E-14  0.12500000000E+03  0.12500000000E+03 0.  0.
        -13    1    3    3    0    0 -0.48620061505E+02  0.92263289361E+01 -0.18745043708E+02  0.52919026390E+02  0.10566000000E+00 0. -1.
         23    2    1    0    0    0 -0.59350451925E+01  0.88739859817E+01 -0.26613784100E+02  0.96324820964E+02  0.91957627421E+02 0.  0.
         13    1    3    3    0    0  0.42685016313E+02 -0.35234295438E+00 -0.78687403922E+01  0.43405794574E+02  0.10566000000E+00 0.  1.
         22    1    1    0    0    0  0.59350451925E+01 -0.88739859817E+01  0.26613784100E+02  0.28675179036E+02  0.00000000000E+00 0. -1.
</event>
<event>
 5    1  0.1758488E-003  0.9118800E+02  0.7818608E-02  0.1130116E+00
         25   -1    0    0    0    0  0.00000000000E+00  0.00000000000E+00  0.99999998245E-14  0.12500000000E+03  0.12500000000E+03 0.  0.
        -13    1    3    3    0    0 -0.54527528705E+02 -0.11994046026E+02 -0.24163043661E+02  0.60835617608E+02  0.10566000000E+00 0. -1.
         23    2    1    0    0    0 -0.28735292166E+02  0.11682727902E+01 -0.43696582409E+01  0.95910899114E+02  0.91393242522E+02 0.  0.
         13    1    3    3    0    0  0.25792236539E+02  0.13162318816E+02  0.19793385421E+02  0.35075281506E+02  0.10566000000E+00 0.  1.
         22    1    1    0    0    0  0.28735292166E+02 -0.11682727902E+01  0.43696582409E+01  0.29089100886E+02  0.00000000000E+00 0. -1.
</event>
<event>
 5    1  0.1758488E-003  0.9118800E+02  0.7818608E-02  0.1130116E+00
         25   -1    0    0    0    0  0.00000000000E+00  0.00000000000E+00  0.99999998245E-14  0.12500000000E+03  0.12500000000E+03 0.  0.
        -13    1    3    3    0    0 -0.39060849074E+02  0.34980983777E+02  0.19641999170E+02  0.55993200050E+02  0.10566000000E+00 0.  1.
         23    2    1    0    0    0 -0.10585474473E+02  0.26556624033E+02 -0.66417861652E+01  0.95650044747E+02  0.91035768722E+02 0.  0.
         13    1    3    3    0    0  0.28475374601E+02 -0.84243597439E+01 -0.26283785335E+02  0.39656844697E+02  0.10566000000E+00 0. -1.
         22    1    1    0    0    0  0.10585474473E+02 -0.26556624033E+02  0.66417861652E+01  0.29349955253E+02  0.00000000000E+00 0.  1.
</event>
<event>
 5    1  0.1758488E-003  0.9118800E+02  0.7818608E-02  0.1130116E+00
         25   -1    0    0    0    0  0.00000000000E+00  0.00000000000E+00  0.99999998245E-14  0.12500000000E+03  0.12500000000E+03 0.  0.
        -13    1    3    3    0    0  0.29687553454E+02  0.13997536946E+02 -0.11252217352E+02  0.34697340389E+02  0.10566000000E+00 0.  1.
         23    2    1    0    0    0 -0.15935043014E+02  0.46700695631E+00  0.25570356363E+02  0.94867180419E+02  0.89954405700E+02 0.  0.
         13    1    3    3    0    0 -0.45622596468E+02 -0.13530529990E+02  0.36822573715E+02  0.60169840031E+02  0.10566000000E+00 0. -1.
         22    1    1    0    0    0  0.15935043014E+02 -0.46700695631E+00 -0.25570356363E+02  0.30132819581E+02  0.00000000000E+00 0. -1.
</event>
<event>
 5    1  0.1758488E-003  0.9118800E+02  0.7818608E-02  0.1130116E+00
         25   -1    0    0    0    0  0.00000000000E+00  0.00000000000E+00  0.99999998245E-14  0.12500000000E+03  0.12500000000E+03 0.  0.
        -13    1    3    3    0    0  0.88173557199E+01  0.18971580531E+02  0.55665416949E+02  0.59466935669E+02  0.10566000000E+00 0.  1.
         23    2    1    0    0    0  0.16539369535E+02  0.35110662069E+01  0.22612873143E+02  0.96764909027E+02  0.92553915404E+02 0.  0.
         13    1    3    3    0    0  0.77220138147E+01 -0.15460514324E+02 -0.33052543806E+02  0.37297973358E+02  0.10566000000E+00 0. -1.
         22    1    1    0    0    0 -0.16539369535E+02 -0.35110662069E+01 -0.22612873143E+02  0.28235090973E+02  0.00000000000E+00 0.  1.
</event>
<event>
 5    1  0.1758488E-003  0.9118800E+02  0.7818608E-02  0.1130116E+00
         25   -1    0    0    0    0  0.00000000000E+00  0.00000000000E+00  0.99999998245E-14  0.12500000000E+03  0.12500000000E+03 0.  0.
        -13    1    3    3    0    0  0.35378044926E+02 -0.36157366649E+02  0.13450194212E+00  0.50586465389E+02  0.10566000000E+00 0. -1.
         23    2    1    0    0    0 -0.26307923075E+01 -0.22096045990E+02 -0.19311156768E+02  0.95536851963E+02  0.90880212316E+02 0.  0.
         13    1    3    3    0    0 -0.38008837233E+02  0.14061320658E+02 -0.19445658710E+02  0.44950386574E+02  0.10566000000E+00 0.  1.
         22    1    1    0    0    0  0.26307923075E+01  0.22096045990E+02  0.19311156768E+02  0.29463148037E+02  0.00000000000E+00 0.  1.
</event>
<event>
 5    1  0.1758488E-003  0.9118800E+02  0.7818608E-02  0.1130116E+00
         25   -1    0    0    0    0  0.00000000000E+00  0.00000000000E+00  0.99999998245E-14  0.12500000000E+03  0.12500000000E+03 0.  0.
        -13    1    3    3    0    0 -0.30296416623E+02  0.12235618899E+02  0.32501993786E+02  0.46086592347E+02  0.10566000000E+00 0. -1.
         23    2    1    0    0    0 -0.27120644941E+02 -0.12869929255E+01 -0.13881912210E+02  0.94505849423E+02  0.89450893544E+02 0.  0.
         13    1    3    3    0    0  0.31757716827E+01 -0.13522611825E+02 -0.46383905996E+02  0.48419257076E+02  0.10566000000E+00 0.  1.
         22    1    1    0    0    0  0.27120644941E+02  0.12869929255E+01  0.13881912210E+02  0.30494150577E+02  0.00000000000E+00 0. -1.
</event>
<event>
 5    1  0.1758488E-003  0.9118800E+02  0.7818608E-02  0.1130116E+00
         25   -1    0    0    0    0  0.00000000000E+00  0.00000000000E+00  0.99999998245E-14  0.12500000000E+03  0.12500000000E+03 0.  0.
        -13    1    3    3    0    0 -0.24241502358E+02 -0.40435070932E+02 -0.60496623461E+01  0.47531620806E+02  0.10566000000E+00 0. -1.
         23    2    1    0    0    0  0.20095126311E+02 -0.19166203037E+02 -0.53994247726E+01  0.96710227499E+02  0.92480035006E+02 0.  0.
         13    1    3    3    0    0  0.44336628669E+02  0.21268867895E+02  0.65023757347E+00  0.49178606693E+02  0.10566000000E+00 0.  1.
         22    1    1    0    0    0 -0.20095126311E+02  0.19166203037E+02  0.53994247726E+01  0.28289772501E+02  0.00000000000E+00 0.  1.
</event>
<event>
 5    1  0.1758488E-003  0.9118800E+02  0.7818608E-02  0.1130116E+00
         25   -1    0    0    0    0  0.00000000000E+00  0.00000000000E+00  0.99999998245E-14  0.12500000000E+03  0.12500000000E+03 0.  0.
        -13    1    3    3    0    0  0.48482060546E+02 -0.20571259824E+02 -0.22556448694E+02  0.57293031576E+02  0.10566000000E+00 0.  1.
         23    2    1    0    0    0  0.22296551202E+02 -0.12889919944E+00 -0.26066516299E+02  0.90698162112E+02  0.83961541959E+02 0.  0.
         13    1    3    3    0    0 -0.26185509344E+02  0.20442360625E+02 -0.35100676047E+01  0.33405130536E+02  0.10566000000E+00 0. -1.
         22    1    1    0    0    0 -0.22296551202E+02  0.12889919944E+00  0.26066516299E+02  0.34301837888E+02  0.00000000000E+00 0.  1.
</event>
<event>
 5    1  0.1758488E-003  0.9118800E+02  0.7818608E-02  0.1130116E+00
         25   -1    0    0    0    0  0.00000000000E+00  0.00000000000E+00  0.99999998245E-14  0.12500000000E+03  0.12500000000E+03 0.  0.
        -13    1    3    3    0    0  0.14304075138E+02 -0.45612788492E+02  0.40257224173E+02  0.62496306305E+02  0.10566000000E+00 0.  1.
         23    2    1    0    0    0  0.99970623759E+01 -0.31656960734E+02  0.27390176715E+02  0.81961340639E+02  0.69751954524E+02 0.  0.
         13    1    3    3    0    0 -0.43070127618E+01  0.13955827758E+02 -0.12867047458E+02  0.19465034335E+02  0.10566000000E+00 0. -1.
         22    1    1    0    0    0 -0.99970623759E+01  0.31656960734E+02 -0.27390176715E+02  0.43038659361E+02  0.00000000000E+00 0.  1.
</event>
<event>
 5    1  0.1758488E-003  0.9118800E+02  0.7818608E-02  0.1130116E+00
         25   -1    0    0    0    0  0.00000000000E+00  0.00000000000E+00  0.99999998245E-14  0.12500000000E+03  0.12500000000E+03 0.  0.
        -13    1    3    3    0    0  0.12239228800E+02  0.15418590092E+02 -0.35855973811E+02  0.40904690000E+02  0.10566000000E+00 0. -1.
         23    2    1    0    0    0  0.97428642505E+01  0.21069106454E+02  0.18318159792E+02  0.95429987678E+02  0.90733108177E+02 0.  0.
         13    1    3    3    0    0 -0.24963645496E+01  0.56505163628E+01  0.54174133603E+02  0.54525297677E+02  0.10566000000E+00 0.  1.
         22    1    1    0    0    0 -0.97428642505E+01 -0.21069106454E+02 -0.18318159792E+02  0.29570012322E+02  0.00000000000E+00 0.  1.
</event>
<event>
 5    1  0.1758488E-003  0.9118800E+02  0.7818608E-02  0.1130116E+00
         25   -1    0    0    0    0  0.00000000000E+00  0.00000000000E+00  0.99999998245E-14  0.12500000000E+03  0.12500000000E+03 0.  0.
        -13    1    3    3    0    0 -0.32220020083E+02 -0.21427895197E+01  0.27074355444E+02  0.42139685900E+02  0.10566000000E+00 0.  1.
         23    2    1    0    0    0  0.47476793068E+01 -0.29951939891E+02  0.23728247942E+01  0.94581429035E+02  0.89556447332E+02 0.  0.
         13    1    3    3    0    0  0.36967699389E+02 -0.27809150372E+02 -0.24701530650E+02  0.52441743135E+02  0.10566000000E+00 0. -1.
         22    1    1    0    0    0 -0.47476793068E+01  0.29951939891E+02 -0.23728247942E+01  0.30418570965E+02  0.00000000000E+00 0.  1.
</event>
<event>
 5    1  0.1758488E-003  0.9118800E+02  0.7818608E-02  0.1130116E+00
         25   -1    0    0    0    0  0.00000000000E+00  0.00000000000E+00  0.99999998245E-14  0.12500000000E+03  0.12500000000E+03 0.  0.
        -13    1    3    3    0    0  0.41410917826E+02 -0.38282696207E+02 -0.70981300170E+01  0.56840333900E+02  0.10566000000E+00 0.  1.
         23    2    1    0    0    0  0.28616233596E+02 -0.15987095978E+02  0.13268874767E+02  0.89637037729E+02  0.82366616005E+02 0.  0.
         13    1    3    3    0    0 -0.12794684230E+02  0.22295600230E+02  0.20367004784E+02  0.32796703829E+02  0.10566000000E+00 0. -1.
         22    1    1    0    0    0 -0.28616233596E+02  0.15987095978E+02 -0.13268874767E+02  0.35362962271E+02  0.00000000000E+00 0.  1.
</event>
<event>
 5    1  0.1758488E-003  0.9118800E+02  0.7818608E-02  0.1130116E+00
         25   -1    0    0    0    0  0.00000000000E+00  0.00000000000E+00  0.99999998245E-14  0.12500000000E+03  0.12500000000E+03 0.  0.
        -13    1    3    3    0    0  0.35603307813E+02 -0.65204325478E+01 -0.17780541930E+02  0.40327043075E+02  0.10566000000E+00 0.  1.
         23    2    1    0    0    0 -0.10365189985E+02  0.24473020362E+02 -0.11206312731E+02  0.96156502742E+02  0.91728543461E+02 0.  0.
         13    1    3    3    0    0 -0.45968497798E+02  0.30993452910E+02  0.65742291991E+01  0.55829459667E+02  0.10566000000E+00 0. -1.
         22    1    1    0    0    0  0.10365189985E+02 -0.24473020362E+02  0.11206312731E+02  0.28843497258E+02  0.00000000000E+00 0. -1.
</event>
<event>
 5    1  0.1758488E-003  0.9118800E+02  0.7818608E-02  0.1130116E+00
         25   -1    0    0    0    0  0.00000000000E+00  0.00000000000E+00  0.99999998245E-14  0.12500000000E+03  0.12500000000E+03 0.  0.
        -13    1    3    3    0    0  0.14959372310E+02 -0.41750673822E+01  0.31762290945E+02  0.35356304921E+02  0.10566000000E+00 0.  1.
         23    2    1    0    0    0 -0.11013064754E+02 -0.23820195588E+01 -0.24875712539E+02  0.97691344106E+02  0.93796780469E+02 0.  0.
         13    1    3    3    0    0 -0.25972437064E+02  0.17930478234E+01 -0.56638003484E+02  0.62335039185E+02  0.10566000000E+00 0. -1.
         22    1    1    0    0    0  0.11013064754E+02  0.23820195588E+01  0.24875712539E+02  0.27308655894E+02  0.00000000000E+00 0. -1.
</event>
<event>
 5    1  0.1758488E-003  0.9118800E+02  0.7818608E-02  0.1130116E+00
         25   -1    0    0    0    0  0.00000000000E+00  0.00000000000E+00  0.99999998245E-14  0.12500000000E+03  0.12500000000E+03 0.  0.
        -13    1    3    3    0    0 -0.30932674498E+02  0.44817910966E+02 -0.14510572608E+02  0.56356396056E+02  0.10566000000E+00 0. -1.
         23    2    1    0    0    0  0.54402990418E+01  0.24948780065E+02 -0.74559590138E+01  0.98398687904E+02  0.94734745348E+02 0.  0.
         13    1    3    3    0    0  0.36372973539E+02 -0.19869130901E+02  0.70546135943E+01  0.42042291848E+02  0.10566000000E+00 0.  1.
         22    1    1    0    0    0 -0.54402990418E+01 -0.24948780065E+02  0.74559590138E+01  0.26601312096E+02  0.00000000000E+00 0. -1.
</event>
<event>
 5    1  0.1758488E-003  0.9118800E+02  0.7818608E-02  0.1130116E+00
         25   -1    0    0    0    0  0.00000000000E+00  0.00000000000E+00  0.99999998245E-14  0.12500000000E+03  0.12500000000E+03 0.  0.
        -13    1    3    3    0    0 -0.62513773226E+01  0.15270085559E+02  0.53844147014E+02  0.56315704409E+02  0.10566000000E+00 0. -1.
         23    2    1    0    0    0  0.16403333224E+02  0.10429717989E+02  0.23137864833E+02  0.94780649457E+02  0.89834082420E+02 0.  0.
         13    1    3    3    0    0  0.22654710547E+02 -0.48403675696E+01 -0.30706282181E+02  0.38464945048E+02  0.10566000000E+00 0.  1.
         22    1    1    0    0    0 -0.16403333224E+02 -0.10429717989E+02 -0.23137864833E+02  0.30219350543E+02  0.00000000000E+00 0. -1.
</event>
<event>
 5    1  0.1758488E-003  0.9118800E+02  0.7818608E-02  0.1130116E+00
         25   -1    0    0    0    0  0.00000000000E+00  0.00000000000E+00  0.99999998245E-14  0.12500000000E+03  0.12500000000E+03 0.  0.
        -13    1    3    3    0    0  0.96412533128E+01 -0.11798876735E+02 -0.16057012497E+02  0.22136080774E+02  0.10566000000E+00 0. -1.
         23    2    1    0    0    0 -0.33618456159E+01  0.43996800456E+02 -0.38976100348E+01  0.80703139837E+02  0.67459506070E+02 0.  0.
         13    1    3    3    0    0 -0.13003098929E+02  0.55795677191E+02  0.12159402463E+02  0.58567059063E+02  0.10566000000E+00 0.  1.
         22    1    1    0    0    0  0.33618456159E+01 -0.43996800456E+02  0.38976100348E+01  0.44296860163E+02  0.00000000000E+00 0.  1.
</event>
<event>
 5    1  0.1758488E-003  0.9118800E+02  0.7818608E-02  0.1130116E+00
         25   -1    0    0    0    0  0.00000000000E+00  0.00000000000E+00  0.99999998245E-14  0.12500000000E+03  0.12500000000E+03 0.  0.
        -13    1    3    3    0    0  0.32479132477E+02  0.62446009413E+00  0.12764625127E+02  0.34903163403E+02  0.10566000000E+00 0.  1.
         23    2    1    0    0    0 -0.24312276040E+02 -0.13726351290E+02 -0.60601734199E+01  0.96430344982E+02  0.92100956811E+02 0.  0.
         13    1    3    3    0    0 -0.56791408517E+02 -0.14350811384E+02 -0.18824798547E+02  0.61527181579E+02  0.10566000000E+00 0. -1.
         22    1    1    0    0    0  0.24312276040E+02  0.13726351290E+02  0.60601734199E+01  0.28569655018E+02  0.00000000000E+00 0. -1.
</event>
<event>
 5    1  0.1758488E-003  0.9118800E+02  0.7818608E-02  0.1130116E+00
         25   -1    0    0    0    0  0.00000000000E+00  0.00000000000E+00  0.99999998245E-14  0.12500000000E+03  0.12500000000E+03 0.  0.
        -13    1    3    3    0    0  0.39887711988E+01 -0.15244246030E+02 -0.29834322165E+02  0.33740113749E+02  0.10566000000E+00 0.  1.
         23    2    1    0    0    0  0.17914968563E+02  0.26742775422E+02  0.78680286606E+01  0.91863494287E+02  0.85678898054E+02 0.  0.
         13    1    3    3    0    0  0.13926197364E+02  0.41987021451E+02  0.37702350826E+02  0.58123380538E+02  0.10566000000E+00 0. -1.
         22    1    1    0    0    0 -0.17914968563E+02 -0.26742775422E+02 -0.78680286606E+01  0.33136505713E+02  0.00000000000E+00 0. -1.
</event>
<event>
 5    1  0.1758488E-003  0.9118800E+02  0.7818608E-02  0.1130116E+00
         25   -1    0    0    0    0  0.00000000000E+00  0.00000000000E+00  0.99999998245E-14  0.12500000000E+03  0.12500000000E+03 0.  0.
        -13    1    3    3    0    0  0.35255719060E+01  0.14708763178E+02  0.55402026016E+02  0.57429722463E+02  0.10566000000E+00 0.  1.
         23    2    1    0    0    0  0.15445500071E+02 -0.39931219379E+01  0.28918348183E+02  0.91973051051E+02  0.85838585512E+02 0.  0.
         13    1    3    3    0    0  0.11919928165E+02 -0.18701885115E+02 -0.26483677833E+02  0.34543328587E+02  0.10566000000E+00 0. -1.
         22    1    1    0    0    0 -0.15445500071E+02  0.39931219379E+01 -0.28918348183E+02  0.33026948949E+02  0.00000000000E+00 0.  1.
</event>
<event>
 5    1  0.1758488E-003  0.9118800E+02  0.7818608E-02  0.1130116E+00
         25   -1    0    0    0    0  0.00000000000E+00  0.00000000000E+00  0.99999998245E-14  0.12500000000E+03  0.12500000000E+03 0.  0.
        -13    1    3    3    0    0 -0.51947482805E+02  0.16833594321E+02 -0.17103409175E+02  0.57222798227E+02  0.10566000000E+00 0. -1.
         23    2    1    0    0    0 -0.28016264181E+02 -0.53633514378E+01 -0.20254666758E+02  0.90015315883E+02  0.82938706107E+02 0.  0.
         13    1    3    3    0    0  0.23931218623E+02 -0.22196945758E+02 -0.31512575829E+01  0.32792517656E+02  0.10566000000E+00 0.  1.
         22    1    1    0    0    0  0.28016264181E+02  0.53633514378E+01  0.20254666758E+02  0.34984684117E+02  0.00000000000E+00 0. -1.
</event>
<event>
 5    1  0.1758488E-003  0.9118800E+02  0.7818608E-02  0.1130116E+00
         25   -1    0    0    0    0  0.00000000000E+00  0.00000000000E+00  0.99999998245E-14  0.12500000000E+03  0.12500000000E+03 0.  0.
        -13    1    3    3    0    0 -0.13063529554E+02 -0.47510401795E+01 -0.55423255209E+02  0.57139973479E+02  0.10566000000E+00 0.  1.
         23    2    1    0    0    0  0.11399764994E+02 -0.84507298107E+01 -0.23781251343E+02  0.97306726599E+02  0.93282804684E+02 0.  0.
         13    1    3    3    0    0  0.24463294548E+02 -0.36996896312E+01  0.31642003866E+02  0.40166753120E+02  0.10566000000E+00 0. -1.
         22    1    1    0    0    0 -0.11399764994E+02  0.84507298107E+01  0.23781251343E+02  0.27693273401E+02  0.00000000000E+00 0.  1.
</event>
<event>
 5    1  0.1758488E-003  0.9118800E+02  0.7818608E-02  0.1130116E+00
         25   -1    0    0    0    0  0.00000000000E+00  0.00000000000E+00  0.99999998245E-14  0.12500000000E+03  0.12500000000E+03 0.  0.
        -13    1    3    3    0    0  0.30977016695E+02  0.35733095794E+02  0.16716202696E+02  0.50158471816E+02  0.10566000000E+00 0.  1.
         23    2    1    0    0    0 -0.11197040010E+02  0.27050921317E+02  0.20289458382E+01  0.95653063699E+02  0.91039913910E+02 0.  0.
         13    1    3    3    0    0 -0.42174056704E+02 -0.86821744773E+01 -0.14687256857E+02  0.45494591883E+02  0.10566000000E+00 0. -1.
         22    1    1    0    0    0  0.11197040010E+02 -0.27050921317E+02 -0.20289458382E+01  0.29346936301E+02  0.00000000000E+00 0.  1.
</event>
<event>
 5    1  0.1758488E-003  0.9118800E+02  0.7818608E-02  0.1130116E+00
         25   -1    0    0    0    0  0.00000000000E+00  0.00000000000E+00  0.99999998245E-14  0.12500000000E+03  0.12500000000E+03 0.  0.
        -13    1    3    3    0    0 -0.37110406349E+02 -0.29137673026E+02  0.39092747452E+02  0.61273487873E+02  0.10566000000E+00 0.  1.
         23    2    1    0    0    0 -0.22444228003E+02 -0.16984357285E+02  0.11975275948E+02  0.94412110288E+02  0.89319805038E+02 0.  0.
         13    1    3    3    0    0  0.14666178346E+02  0.12153315741E+02 -0.27117471503E+02  0.33138622415E+02  0.10566000000E+00 0. -1.
         22    1    1    0    0    0  0.22444228003E+02  0.16984357285E+02 -0.11975275948E+02  0.30587889712E+02  0.00000000000E+00 0.  1.
</event>
<event>
 5    1  0.1758488E-003  0.9118800E+02  0.7818608E-02  0.1130116E+00
         25   -1    0    0    0    0  0.00000000000E+00  0.00000000000E+00  0.99999998245E-14  0.12500000000E+03  0.12500000000E+03 0.  0.
        -13    1    3    3    0    0  0.24550306245E+01 -0.34710561596E+02  0.47977277923E+02  0.59267871757E+02  0.10566000000E+00 0. -1.
         23    2    1    0    0    0  0.62485800701E+01 -0.25139677387E+02  0.12446284888E+02  0.96260512538E+02  0.91870169993E+02 0.  0.
         13    1    3    3    0    0  0.37935494456E+01  0.95708842088E+01 -0.35530993035E+02  0.36992640782E+02  0.10566000000E+00 0.  1.
         22    1    1    0    0    0 -0.62485800701E+01  0.25139677387E+02 -0.12446284888E+02  0.28739487462E+02  0.00000000000E+00 0. -1.
</event>
<event>
 5    1  0.1758488E-003  0.9118800E+02  0.7818608E-02  0.1130116E+00
         25   -1    0    0    0    0  0.00000000000E+00  0.00000000000E+00  0.99999998245E-14  0.12500000000E+03  0.12500000000E+03 0.  0.
        -13    1    3    3    0    0 -0.10898512112E+02 -0.26818204385E+02  0.36402565453E+02  0.46509693487E+02  0.10566000000E+00 0.  1.
         23    2    1    0    0    0  0.18628245077E+02  0.10125809400E+02  0.17748722436E+02  0.97349309615E+02  0.93339848959E+02 0.  0.
         13    1    3    3    0    0  0.29526757189E+02  0.36944013785E+02 -0.18653843017E+02  0.50839616127E+02  0.10566000000E+00 0. -1.
         22    1    1    0    0    0 -0.18628245077E+02 -0.10125809400E+02 -0.17748722436E+02  0.27650690385E+02  0.00000000000E+00 0. -1.
</event>
<event>
 5    1  0.1758488E-003  0.9118800E+02  0.7818608E-02  0.1130116E+00
         25   -1    0    0    0    0  0.00000000000E+00  0.00000000000E+00  0.99999998245E-14  0.12500000000E+03  0.12500000000E+03 0.  0.
        -13    1    3    3    0    0  0.12325596515E+02 -0.87699065047E+01 -0.57457430799E+02  0.59415478687E+02  0.10566000000E+00 0. -1.
         23    2    1    0    0    0  0.31324241018E+01 -0.16905834593E+02 -0.21145921968E+02  0.97746205037E+02  0.93869863424E+02 0.  0.
         13    1    3    3    0    0 -0.91931724129E+01 -0.81359280886E+01  0.36311508831E+02  0.38330726350E+02  0.10566000000E+00 0.  1.
         22    1    1    0    0    0 -0.31324241018E+01  0.16905834593E+02  0.21145921968E+02  0.27253794963E+02  0.00000000000E+00 0. -1.
</event>
<event>
 5    1  0.1758488E-003  0.9118800E+02  0.7818608E-02  0.1130116E+00
         25   -1    0    0    0    0  0.00000000000E+00  0.00000000000E+00  0.99999998245E-14  0.12500000000E+03  0.12500000000E+03 0.  0.
        -13    1    3    3    0    0 -0.12969273939E+02  0.67453293911E+01 -0.24358896871E+02  0.28408952038E+02  0.10566000000E+00 0. -1.
         23    2    1    0    0    0  0.10441993672E+02 -0.27981679489E+02  0.19718812953E+02  0.89211158119E+02  0.81717743054E+02 0.  0.
         13    1    3    3    0    0  0.23411267611E+02 -0.34727008880E+02  0.44077709824E+02  0.60802206081E+02  0.10566000000E+00 0.  1.
         22    1    1    0    0    0 -0.10441993672E+02  0.27981679489E+02 -0.19718812953E+02  0.35788841881E+02  0.00000000000E+00 0.  1.
</event>
<event>
 5    1  0.1758488E-003  0.9118800E+02  0.7818608E-02  0.1130116E+00
         25   -1    0    0    0    0  0.00000000000E+00  0.00000000000E+00  0.99999998245E-14  0.12500000000E+03  0.12500000000E+03 0.  0.
        -13    1    3    3    0    0 -0.29878748982E+01  0.56102175626E+02  0.99579112386E+01  0.57057450580E+02  0.10566000000E+00 0.  1.
         23    2    1    0    0    0 -0.16155817667E+02  0.21654672842E+02  0.14704493314E+02  0.94240327961E+02  0.89079077174E+02 0.  0.
         13    1    3    3    0    0 -0.13167942768E+02 -0.34447502785E+02  0.47465820755E+01  0.37182877381E+02  0.10566000000E+00 0. -1.
         22    1    1    0    0    0  0.16155817667E+02 -0.21654672842E+02 -0.14704493314E+02  0.30759672039E+02  0.00000000000E+00 0.  1.
</event>
<event>
 5    1  0.1758488E-003  0.9118800E+02  0.7818608E-02  0.1130116E+00
         25   -1    0    0    0    0  0.00000000000E+00  0.00000000000E+00  0.99999998245E-14  0.12500000000E+03  0.12500000000E+03 0.  0.
        -13    1    3    3    0    0 -0.38143837718E+02 -0.12282291485E+02 -0.44497894427E+02  0.59882224512E+02  0.10566000000E+00 0.  1.
         23    2    1    0    0    0 -0.21784076050E+02  0.59262480508E+01 -0.16719305193E+02  0.96907268708E+02  0.92745981999E+02 0.  0.
         13    1    3    3    0    0  0.16359761668E+02  0.18208539535E+02  0.27778589234E+02  0.37025044196E+02  0.10566000000E+00 0. -1.
         22    1    1    0    0    0  0.21784076050E+02 -0.59262480508E+01  0.16719305193E+02  0.28092731292E+02  0.00000000000E+00 0.  1.
</event>
<event>
 5    1  0.1758488E-003  0.9118800E+02  0.7818608E-02  0.1130116E+00
         25   -1    0    0    0    0  0.00000000000E+00  0.00000000000E+00  0.99999998245E-14  0.12500000000E+03  0.12500000000E+03 0.  0.
        -13    1    3    3    0    0 -0.23561525790E+01 -0.59748944093E+01  0.39967499169E+02  0.40480402321E+02  0.10566000000E+00 0.  1.
         23    2    1    0    0    0  0.27012169055E+02  0.14990539824E+02  0.29881092728E+00  0.94105617836E+02  0.88889844522E+02 0.  0.
         13    1    3    3    0    0  0.29368321634E+02  0.20965434234E+02 -0.39668688242E+02  0.53625215516E+02  0.10566000000E+00 0. -1.
         22    1    1    0    0    0 -0.27012169055E+02 -0.14990539824E+02 -0.29881092728E+00  0.30894382164E+02  0.00000000000E+00 0. -1.
</event>
<event>
 5    1  0.1758488E-003  0.9118800E+02  0.7818608E-02  0.1130116E+00
         25   -1    0    0    0    0  0.00000000000E+00  0.00000000000E+00  0.99999998245E-14  0.12500000000E+03  0.12500000000E+03 0.  0.
        -13    1    3    3    0    0 -0.32262339202E+02 -0.56105200854E+01 -0.12276964668E+02  0.34972439032E+02  0.10566000000E+00 0.  1.
         23    2    1    0    0    0  0.15102068622E+02  0.79336740215E+01  0.23574938646E+02  0.95900285357E+02  0.91378724763E+02 0.  0.
         13    1    3    3    0    0  0.47364407824E+02  0.13544194107E+02  0.35851903314E+02  0.60927846324E+02  0.10566000000E+00 0. -1.
         22    1    1    0    0    0 -0.15102068622E+02 -0.79336740215E+01 -0.23574938646E+02  0.29099714643E+02  0.00000000000E+00 0. -1.
</event>
<event>
 5    1  0.1758488E-003  0.9118800E+02  0.7818608E-02  0.1130116E+00
         25   -1    0    0    0    0  0.00000000000E+00  0.00000000000E+00  0.99999998245E-14  0.12500000000E+03  0.12500000000E+03 0.  0.
        -13    1    3    3    0    0  0.39739834578E+02  0.30366880177E+02 -0.31275427324E+01  0.50111820477E+02  0.10566000000E+00 0. -1.
         23    2    1    0    0    0  0.26785768158E+02 -0.12567852307E+02  0.24850549401E+01  0.95308186558E+02  0.90565151353E+02 0.  0.
         13    1    3    3    0    0 -0.12954066420E+02 -0.42934732484E+02  0.56125976726E+01  0.45196366081E+02  0.10566000000E+00 0.  1.
         22    1    1    0    0    0 -0.26785768158E+02  0.12567852307E+02 -0.24850549401E+01  0.29691813442E+02  0.00000000000E+00 0.  1.
</event>
<event>
 5    1  0.1758488E-003  0.9118800E+02  0.7818608E-02  0.1130116E+00
         25   -1    0    0    0    0  0.00000000000E+00  0.00000000000E+00  0.99999998245E-14  0.12500000000E+03  0.12500000000E+03 0.  0.
        -13    1    3    3    0    0 -0.14093902497E+02 -0.21609017039E+02 -0.53494885970E+02  0.59391091032E+02  0.10566000000E+00 0.  1.
         23    2    1    0    0    0 -0.11950589389E+02 -0.20639238470E+02 -0.17608821562E+02  0.95354336773E+02  0.90628826503E+02 0.  0.
         13    1    3    3    0    0  0.21433131079E+01  0.96977856989E+00  0.35886064407E+02  0.35963245741E+02  0.10566000000E+00 0. -1.
         22    1    1    0    0    0  0.11950589389E+02  0.20639238470E+02  0.17608821562E+02  0.29645663227E+02  0.00000000000E+00 0.  1.
</event>
<event>
 5    1  0.1758488E-003  0.9118800E+02  0.7818608E-02  0.1130116E+00
         25   -1    0    0    0    0  0.00000000000E+00  0.00000000000E+00  0.99999998245E-14  0.12500000000E+03  0.12500000000E+03 0.  0.
        -13    1    3    3    0    0 -0.27089233841E+02  0.58285961241E+01 -0.31072874071E+02  0.41633325473E+02  0.10566000000E+00 0.  1.
         23    2    1    0    0    0  0.96952747123E+01  0.26490319452E+02  0.40142344256E+01  0.96507027981E+02  0.92204972726E+02 0.  0.
         13    1    3    3    0    0  0.36784508553E+02  0.20661723328E+02  0.35087108496E+02  0.54873702509E+02  0.10566000000E+00 0. -1.
         22    1    1    0    0    0 -0.96952747123E+01 -0.26490319452E+02 -0.40142344256E+01  0.28492972019E+02  0.00000000000E+00 0. -1.
</event>
<event>
 5    1  0.1758488E-003  0.9118800E+02  0.7818608E-02  0.1130116E+00
         25   -1    0    0    0    0  0.00000000000E+00  0.00000000000E+00  0.99999998245E-14  0.12500000000E+03  0.12500000000E+03 0.  0.
        -13    1    3    3    0    0  0.13773423940E+02 -0.26126326503E+02  0.53535480695E+02  0.61142055910E+02  0.10566000000E+00 0. -1.
         23    2    1    0    0    0  0.26853581498E+00 -0.18770073162E+02  0.23169141378E+02  0.95180595744E+02  0.90388876173E+02 0.  0.
         13    1    3    3    0    0 -0.13504888125E+02  0.73562533406E+01 -0.30366339317E+02  0.34038539834E+02  0.10566000000E+00 0.  1.
         22    1    1    0    0    0 -0.26853581498E+00  0.18770073162E+02 -0.23169141378E+02  0.29819404256E+02  0.00000000000E+00 0. -1.
</event>
<event>
 5    1  0.1758488E-003  0.9118800E+02  0.7818608E-02  0.1130116E+00
         25   -1    0    0    0    0  0.00000000000E+00  0.00000000000E+00  0.99999998245E-14  0.12500000000E+03  0.12500000000E+03 0.  0.
        -13    1    3    3    0    0  0.25127037267E+02  0.15699158448E+02  0.23268603450E+02  0.37673208629E+02  0.10566000000E+00 0.  1.
         23    2    1    0    0    0 -0.25348756315E+02 -0.10298301810E+02  0.64525401871E+01  0.96888618999E+02  0.92720843125E+02 0.  0.
         13    1    3    3    0    0 -0.50475793583E+02 -0.25997460258E+02 -0.16816063263E+02  0.59215410371E+02  0.10566000000E+00 0. -1.
         22    1    1    0    0    0  0.25348756315E+02  0.10298301810E+02 -0.64525401871E+01  0.28111381001E+02  0.00000000000E+00 0. -1.
</event>
<event>
 5    1  0.1758488E-003  0.9118800E+02  0.7818608E-02  0.1130116E+00
         25   -1    0    0    0    0  0.00000000000E+00  0.00000000000E+00  0.99999998245E-14  0.12500000000E+03  0.12500000000E+03 0.  0.
        -13    1    3    3    0    0  0.15095105683E+02  0.76113773266E+01 -0.53643316801E+02  0.56244216430E+02  0.10566000000E+00 0. -1.
         23    2    1    0    0    0  0.67082839572E+01  0.23826023258E+02 -0.30662627103E+02  0.85593437618E+02  0.75982625674E+02 0.  0.
         13    1    3    3    0    0 -0.83868217254E+01  0.16214645931E+02  0.22980689697E+02  0.29349221188E+02  0.10566000000E+00 0.  1.
         22    1    1    0    0    0 -0.67082839572E+01 -0.23826023258E+02  0.30662627103E+02  0.39406562382E+02  0.00000000000E+00 0. -1.
</event>
<event>
 5    1  0.1758488E-003  0.9118800E+02  0.7818608E-02  0.1130116E+00
         25   -1    0    0    0    0  0.00000000000E+00  0.00000000000E+00  0.99999998245E-14  0.12500000000E+03  0.12500000000E+03 0.  0.
        -13    1    3    3    0    0  0.18376405049E+02  0.20774050098E+02 -0.19271529744E+02  0.33773605711E+02  0.10566000000E+00 0.  1.
         23    2    1    0    0    0 -0.93613498011E+01 -0.28487363504E+02  0.36803165399E+01  0.94788917938E+02  0.89845586895E+02 0.  0.
         13    1    3    3    0    0 -0.27737754851E+02 -0.49261413603E+02  0.22951846283E+02  0.61015312227E+02  0.10566000000E+00 0. -1.
         22    1    1    0    0    0  0.93613498011E+01  0.28487363504E+02 -0.36803165399E+01  0.30211082062E+02  0.00000000000E+00 0. -1.
</event>
<event>
 5    1  0.1758488E-003  0.9118800E+02  0.7818608E-02  0.1130116E+00
         25   -1    0    0    0    0  0.00000000000E+00  0.00000000000E+00  0.99999998245E-14  0.12500000000E+03  0.12500000000E+03 0.  0.
        -13    1    3    3    0    0  0.39469050075E+02  0.34039920331E+02  0.19179243296E+02  0.55537164380E+02  0.10566000000E+00 0. -1.
         23    2    1    0    0    0  0.11848994731E+02  0.72842921757E+01  0.26861129073E+02  0.94751366250E+02  0.89793326938E+02 0.  0.
         13    1    3    3    0    0 -0.27620055344E+02 -0.26755628155E+02  0.76818857777E+01  0.39214201870E+02  0.10566000000E+00 0.  1.
         22    1    1    0    0    0 -0.11848994731E+02 -0.72842921757E+01 -0.26861129073E+02  0.30248633750E+02  0.00000000000E+00 0. -1.
</event>
<event>
 5    1  0.1758488E-003  0.9118800E+02  0.7818608E-02  0.1130116E+00
         25   -1    0    0    0    0  0.00000000000E+00  0.00000000000E+00  0.99999998245E-14  0.12500000000E+03  0.12500000000E+03 0.  0.
        -13    1    3    3    0    0  0.28489173272E+02  0.38578889669E+00  0.27142614932E+02  0.39351169438E+02  0.10566000000E+00 0. -1.
         23    2    1    0    0    0  0.15268112035E+01  0.27307382580E+02 -0.13017665529E+02  0.94710003109E+02  0.89735727429E+02 0.  0.
         13    1    3    3    0    0 -0.26962362068E+02  0.26921593683E+02 -0.40160280460E+02  0.55358833671E+02  0.10566000000E+00 0.  1.
         22    1    1    0    0    0 -0.15268112035E+01 -0.27307382580E+02  0.13017665529E+02  0.30289996891E+02  0.00000000000E+00 0.  1.
</event>
<event>
 5    1  0.1758488E-003  0.9118800E+02  0.7818608E-02  0.1130116E+00
         25   -1    0    0    0    0  0.00000000000E+00  0.00000000000E+00  0.99999998245E-14  0.12500000000E+03  0.12500000000E+03 0.  0.
        -13    1    3    3    0    0 -0.30389748139E+02 -0.23137792391E+00  0.42499823953E+02  0.52247837541E+02  0.10566000000E+00 0.  1.
         23    2    1    0    0    0 -0.59138376232E+01  0.23926656208E+02  0.17056753668E+02  0.95026825353E+02  0.90175974285E+02 0.  0.
         13    1    3    3    0    0  0.24475910516E+02  0.24158034132E+02 -0.25443070284E+02  0.42778987812E+02  0.10566000000E+00 0. -1.
         22    1    1    0    0    0  0.59138376232E+01 -0.23926656208E+02 -0.17056753668E+02  0.29973174647E+02  0.00000000000E+00 0. -1.
</event>
<event>
 5    1  0.1758488E-003  0.9118800E+02  0.7818608E-02  0.1130116E+00
         25   -1    0    0    0    0  0.00000000000E+00  0.00000000000E+00  0.99999998245E-14  0.12500000000E+03  0.12500000000E+03 0.  0.
        -13    1    3    3    0    0  0.55314222829E-01  0.52325020652E+02 -0.14839785454E+01  0.52346195680E+02  0.10566000000E+00 0. -1.
         23    2    1    0    0    0 -0.23923864866E+02  0.15641895234E+02 -0.34092077024E+01  0.96213841976E+02  0.91806647330E+02 0.  0.
         13    1    3    3    0    0 -0.23979179089E+02 -0.36683125417E+02 -0.19252291570E+01  0.43867646295E+02  0.10566000000E+00 0.  1.
         22    1    1    0    0    0  0.23923864866E+02 -0.15641895234E+02  0.34092077024E+01  0.28786158024E+02  0.00000000000E+00 0. -1.
</event>
<event>
 5    1  0.1758488E-003  0.9118800E+02  0.7818608E-02  0.1130116E+00
         25   -1    0    0    0    0  0.00000000000E+00  0.00000000000E+00  0.99999998245E-14  0.12500000000E+03  0.12500000000E+03 0.  0.
        -13    1    3    3    0    0 -0.21254090939E+02  0.22884891107E+02 -0.52611308972E+02  0.61183458700E+02  0.10566000000E+00 0.  1.
         23    2    1    0    0    0 -0.17945791883E+02  0.10688276582E+02 -0.20322663061E+02  0.95857224969E+02  0.91319802027E+02 0.  0.
         13    1    3    3    0    0  0.33082990564E+01 -0.12196614525E+02  0.32288645911E+02  0.34673766270E+02  0.10566000000E+00 0. -1.
         22    1    1    0    0    0  0.17945791883E+02 -0.10688276582E+02  0.20322663061E+02  0.29142775031E+02  0.00000000000E+00 0.  1.
</event>
<event>
 5    1  0.1758488E-003  0.9118800E+02  0.7818608E-02  0.1130116E+00
         25   -1    0    0    0    0  0.00000000000E+00  0.00000000000E+00  0.99999998245E-14  0.12500000000E+03  0.12500000000E+03 0.  0.
        -13    1    3    3    0    0 -0.92569015732E+01  0.33895885805E+02 -0.21785757098E+02  0.41343097098E+02  0.10566000000E+00 0. -1.
         23    2    1    0    0    0 -0.43505064499E+00 -0.19442826775E+02 -0.22302791944E+02  0.95408999500E+02  0.90704188851E+02 0.  0.
         13    1    3    3    0    0  0.88218509282E+01 -0.53338712580E+02 -0.51703484592E+00  0.54065902402E+02  0.10566000000E+00 0.  1.
         22    1    1    0    0    0  0.43505064499E+00  0.19442826775E+02  0.22302791944E+02  0.29591000500E+02  0.00000000000E+00 0.  1.
</event>
<event>
 5    1  0.1758488E-003  0.9118800E+02  0.7818608E-02  0.1130116E+00
         25   -1    0    0    0    0  0.00000000000E+00  0.00000000000E+00  0.99999998245E-14  0.12500000000E+03  0.12500000000E+03 0.  0.
        -13    1    3    3    0    0  0.27424693856E+02  0.34742350574E+02  0.28534017557E+02  0.52662568096E+02  0.10566000000E+00 0.  1.
         23    2    1    0    0    0 -0.75686565598E+01  0.36801440532E+01  0.23875083230E+02  0.99685031669E+02  0.96417103862E+02 0.  0.
         13    1    3    3    0    0 -0.34993350416E+02 -0.31062206521E+02 -0.46589343267E+01  0.47022463572E+02  0.10566000000E+00 0. -1.
         22    1    1    0    0    0  0.75686565598E+01 -0.36801440532E+01 -0.23875083230E+02  0.25314968331E+02  0.00000000000E+00 0.  1.
</event>
<event>
 5    1  0.1758488E-003  0.9118800E+02  0.7818608E-02  0.1130116E+00
         25   -1    0    0    0    0  0.00000000000E+00  0.00000000000E+00  0.99999998245E-14  0.12500000000E+03  0.12500000000E+03 0.  0.
        -13    1    3    3    0    0  0.44784608338E+02 -0.41468913279E+02 -0.13252042306E+02  0.62457663276E+02  0.10566000000E+00 0.  1.
         23    2    1    0    0    0  0.20519830868E+02 -0.19552139611E+02 -0.77616041477E+01  0.95613062065E+02  0.90984974124E+02 0.  0.
         13    1    3    3    0    0 -0.24264777470E+02  0.21916773668E+02  0.54904381586E+01  0.33155398789E+02  0.10566000000E+00 0. -1.
         22    1    1    0    0    0 -0.20519830868E+02  0.19552139611E+02  0.77616041477E+01  0.29386937935E+02  0.00000000000E+00 0.  1.
</event>
<event>
 5    1  0.1758488E-003  0.9118800E+02  0.7818608E-02  0.1130116E+00
         25   -1    0    0    0    0  0.00000000000E+00  0.00000000000E+00  0.99999998245E-14  0.12500000000E+03  0.12500000000E+03 0.  0.
        -13    1    3    3    0    0 -0.37295061195E+01 -0.10763444146E+02  0.38417069069E+02  0.40070479229E+02  0.10566000000E+00 0.  1.
         23    2    1    0    0    0  0.21957113437E+02  0.18930085430E+02 -0.13817643498E+01  0.95976350374E+02  0.91482717458E+02 0.  0.
         13    1    3    3    0    0  0.25686619557E+02  0.29693529577E+02 -0.39798833418E+02  0.55905871145E+02  0.10566000000E+00 0. -1.
         22    1    1    0    0    0 -0.21957113437E+02 -0.18930085430E+02  0.13817643498E+01  0.29023649626E+02  0.00000000000E+00 0. -1.
</event>
<event>
 5    1  0.1758488E-003  0.9118800E+02  0.7818608E-02  0.1130116E+00
         25   -1    0    0    0    0  0.00000000000E+00  0.00000000000E+00  0.99999998245E-14  0.12500000000E+03  0.12500000000E+03 0.  0.
        -13    1    3    3    0    0  0.98731228214E+01 -0.35236589253E+02 -0.44319724514E+02  0.57474732896E+02  0.10566000000E+00 0. -1.
         23    2    1    0    0    0 -0.10081736634E+02 -0.26703182797E+02 -0.19570240731E+02  0.90392259431E+02  0.83504879245E+02 0.  0.
         13    1    3    3    0    0 -0.19954859455E+02  0.85334064561E+01  0.24749483783E+02  0.32917526535E+02  0.10566000000E+00 0.  1.
         22    1    1    0    0    0  0.10081736634E+02  0.26703182797E+02  0.19570240731E+02  0.34607740569E+02  0.00000000000E+00 0. -1.
</event>
<event>
 5    1  0.1758488E-003  0.9118800E+02  0.7818608E-02  0.1130116E+00
         25   -1    0    0    0    0  0.00000000000E+00  0.00000000000E+00  0.99999998245E-14  0.12500000000E+03  0.12500000000E+03 0.  0.
        -13    1    3    3    0    0  0.20484917980E+02 -0.49125161265E+02 -0.21516833077E+02  0.57409917294E+02  0.10566000000E+00 0.  1.
         23    2    1    0    0    0 -0.62617107543E+01 -0.29236288469E+02 -0.47325360704E+01  0.94728454240E+02  0.89761425791E+02 0.  0.
         13    1    3    3    0    0 -0.26746628735E+02  0.19888872796E+02  0.16784297007E+02  0.37318536946E+02  0.10566000000E+00 0. -1.
         22    1    1    0    0    0  0.62617107543E+01  0.29236288469E+02  0.47325360704E+01  0.30271545760E+02  0.00000000000E+00 0.  1.
</event>
<event>
 5    1  0.1758488E-003  0.9118800E+02  0.7818608E-02  0.1130116E+00
         25   -1    0    0    0    0  0.00000000000E+00  0.00000000000E+00  0.99999998245E-14  0.12500000000E+03  0.12500000000E+03 0.  0.
        -13    1    3    3    0    0 -0.26490536717E+02  0.15824276359E+02 -0.10191933759E+02  0.32496814238E+02  0.10566000000E+00 0.  1.
         23    2    1    0    0    0  0.25415944295E+02 -0.33471277018E+01  0.17089493102E+02  0.94190516675E+02  0.89009152163E+02 0.  0.
         13    1    3    3    0    0  0.51906481012E+02 -0.19171404061E+02  0.27281426861E+02  0.61693702437E+02  0.10566000000E+00 0. -1.
         22    1    1    0    0    0 -0.25415944295E+02  0.33471277018E+01 -0.17089493102E+02  0.30809483325E+02  0.00000000000E+00 0. -1.
</event>
<event>
 5    1  0.1758488E-003  0.9118800E+02  0.7818608E-02  0.1130116E+00
         25   -1    0    0    0    0  0.00000000000E+00  0.00000000000E+00  0.99999998245E-14  0.12500000000E+03  0.12500000000E+03 0.  0.
        -13    1    3    3    0    0  0.13363955743E+02 -0.35022284389E+01  0.59915121524E+02  0.61487347222E+02  0.10566000000E+00 0.  1.
         23    2    1    0    0    0 -0.15190401061E+01 -0.32269572809E+01  0.28800225444E+02  0.95979770474E+02  0.91487390489E+02 0.  0.
         13    1    3    3    0    0 -0.14882995849E+02  0.27527115793E+00 -0.31114896080E+02  0.34492423252E+02  0.10566000000E+00 0. -1.
         22    1    1    0    0    0  0.15190401061E+01  0.32269572809E+01 -0.28800225444E+02  0.29020229526E+02  0.00000000000E+00 0.  1.
</event>
<event>
 5    1  0.1758488E-003  0.9118800E+02  0.7818608E-02  0.1130116E+00
         25   -1    0    0    0    0  0.00000000000E+00  0.00000000000E+00  0.99999998245E-14  0.12500000000E+03  0.12500000000E+03 0.  0.
        -13    1    3    3    0    0 -0.31360829652E+02  0.32303236563E+01 -0.49321862394E+02  0.58537115589E+02  0.10566000000E+00 0. -1.
         23    2    1    0    0    0 -0.22495209140E+02  0.12965659041E+02 -0.15669693183E+02  0.94673740206E+02  0.89685199735E+02 0.  0.
         13    1    3    3    0    0  0.88656205115E+01  0.97353353847E+01  0.33652169211E+02  0.36136624618E+02  0.10566000000E+00 0.  1.
         22    1    1    0    0    0  0.22495209140E+02 -0.12965659041E+02  0.15669693183E+02  0.30326259794E+02  0.00000000000E+00 0. -1.
</event>
<event>
 5    1  0.1758488E-003  0.9118800E+02  0.7818608E-02  0.1130116E+00
         25   -1    0    0    0    0  0.00000000000E+00  0.00000000000E+00  0.99999998245E-14  0.12500000000E+03  0.12500000000E+03 0.  0.
        -13    1    3    3    0    0 -0.27004655966E+02 -0.11481411096E+02 -0.17811059447E+02  0.34326655055E+02  0.10566000000E+00 0. -1.
         23    2    1    0    0    0  0.13214249784E+02 -0.41779592791E+01  0.26797102473E+02  0.94831200852E+02  0.89904394848E+02 0.  0.
         13    1    3    3    0    0  0.40218905750E+02  0.73034518165E+01  0.44608161920E+02  0.60504545797E+02  0.10566000000E+00 0.  1.
         22    1    1    0    0    0 -0.13214249784E+02  0.41779592791E+01 -0.26797102473E+02  0.30168799148E+02  0.00000000000E+00 0.  1.
</event>
<event>
 5    1  0.1758488E-003  0.9118800E+02  0.7818608E-02  0.1130116E+00
         25   -1    0    0    0    0  0.00000000000E+00  0.00000000000E+00  0.99999998245E-14  0.12500000000E+03  0.12500000000E+03 0.  0.
        -13    1    3    3    0    0  0.32037534315E+01 -0.55289288308E+02 -0.11424831530E+02  0.56548274750E+02  0.10566000000E+00 0.  1.
         23    2    1    0    0    0  0.17285838984E+02 -0.19193120657E+02 -0.14433926997E+02  0.95410908116E+02  0.90706819088E+02 0.  0.
         13    1    3    3    0    0  0.14082085553E+02  0.36096167651E+02 -0.30090954675E+01  0.38862633367E+02  0.10566000000E+00 0. -1.
         22    1    1    0    0    0 -0.17285838984E+02  0.19193120657E+02  0.14433926997E+02  0.29589091884E+02  0.00000000000E+00 0.  1.
</event>
<event>
 5    1  0.1758488E-003  0.9118800E+02  0.7818608E-02  0.1130116E+00
         25   -1    0    0    0    0  0.00000000000E+00  0.00000000000E+00  0.99999998245E-14  0.12500000000E+03  0.12500000000E+03 0.  0.
        -13    1    3    3    0    0 -0.28794341571E+02  0.18287434622E+02 -0.23006810991E+01  0.34188428877E+02  0.10566000000E+00 0. -1.
         23    2    1    0    0    0  0.16797669229E+02 -0.20267123774E+02  0.12730651613E+02  0.95759830916E+02  0.91186390042E+02 0.  0.
         13    1    3    3    0    0  0.45592010799E+02 -0.38554558396E+02  0.15031332712E+02  0.61571402038E+02  0.10566000000E+00 0.  1.
         22    1    1    0    0    0 -0.16797669229E+02  0.20267123774E+02 -0.12730651613E+02  0.29240169084E+02  0.00000000000E+00 0.  1.
</event>
<event>
 5    1  0.1758488E-003  0.9118800E+02  0.7818608E-02  0.1130116E+00
         25   -1    0    0    0    0  0.00000000000E+00  0.00000000000E+00  0.99999998245E-14  0.12500000000E+03  0.12500000000E+03 0.  0.
        -13    1    3    3    0    0  0.11355461305E+01  0.53760964514E+02 -0.28866746558E+02  0.61031393491E+02  0.10566000000E+00 0.  1.
         23    2    1    0    0    0 -0.88143704005E+01  0.28189852461E+02 -0.12976517490E+02  0.92739328688E+02  0.86947295369E+02 0.  0.
         13    1    3    3    0    0 -0.99499165310E+01 -0.25571112053E+02  0.15890229067E+02  0.31707935197E+02  0.10566000000E+00 0. -1.
         22    1    1    0    0    0  0.88143704005E+01 -0.28189852461E+02  0.12976517490E+02  0.32260671312E+02  0.00000000000E+00 0.  1.
</event>
<event>
 5    1  0.1758488E-003  0.9118800E+02  0.7818608E-02  0.1130116E+00
         25   -1    0    0    0    0  0.00000000000E+00  0.00000000000E+00  0.99999998245E-14  0.12500000000E+03  0.12500000000E+03 0.  0.
        -13    1    3    3    0    0  0.15190480940E+02  0.10202903873E+02  0.26777165993E+02  0.32432664727E+02  0.10566000000E+00 0. -1.
         23    2    1    0    0    0 -0.22867595687E+02  0.20934007971E+02 -0.15515828708E+02  0.90331562442E+02  0.83413971314E+02 0.  0.
         13    1    3    3    0    0 -0.38058076628E+02  0.10731104098E+02 -0.42292994701E+02  0.57898897715E+02  0.10566000000E+00 0.  1.
         22    1    1    0    0    0  0.22867595687E+02 -0.20934007971E+02  0.15515828708E+02  0.34668437558E+02  0.00000000000E+00 0.  1.
</event>
<event>
 5    1  0.1758488E-003  0.9118800E+02  0.7818608E-02  0.1130116E+00
         25   -1    0    0    0    0  0.00000000000E+00  0.00000000000E+00  0.99999998245E-14  0.12500000000E+03  0.12500000000E+03 0.  0.
        -13    1    3    3    0    0 -0.38648305288E+02  0.39870610259E+02  0.20213137759E+02  0.59092632080E+02  0.10566000000E+00 0.  1.
         23    2    1    0    0    0 -0.25053445616E+02  0.93419511249E+01 -0.21484504636E+00  0.98260640500E+02  0.94552419985E+02 0.  0.
         13    1    3    3    0    0  0.13594859672E+02 -0.30528659134E+02 -0.20427982805E+02  0.39168008420E+02  0.10566000000E+00 0. -1.
         22    1    1    0    0    0  0.25053445616E+02 -0.93419511249E+01  0.21484504636E+00  0.26739359500E+02  0.00000000000E+00 0.  1.
</event>
<event>
 5    1  0.1758488E-003  0.9118800E+02  0.7818608E-02  0.1130116E+00
         25   -1    0    0    0    0  0.00000000000E+00  0.00000000000E+00  0.99999998245E-14  0.12500000000E+03  0.12500000000E+03 0.  0.
        -13    1    3    3    0    0  0.19498951717E+02 -0.37721548500E+02 -0.32379369244E+01  0.42586614550E+02  0.10566000000E+00 0.  1.
         23    2    1    0    0    0  0.21745886128E+01  0.32240309150E+01 -0.30178486874E+02  0.94571981974E+02  0.89543260459E+02 0.  0.
         13    1    3    3    0    0 -0.17324363105E+02  0.40945579415E+02 -0.26940549950E+02  0.51985367424E+02  0.10566000000E+00 0. -1.
         22    1    1    0    0    0 -0.21745886128E+01 -0.32240309150E+01  0.30178486874E+02  0.30428018026E+02  0.00000000000E+00 0. -1.
</event>
<event>
 5    1  0.1758488E-003  0.9118800E+02  0.7818608E-02  0.1130116E+00
         25   -1    0    0    0    0  0.00000000000E+00  0.00000000000E+00  0.99999998245E-14  0.12500000000E+03  0.12500000000E+03 0.  0.
        -13    1    3    3    0    0  0.35620881829E+02 -0.16238352754E+02 -0.38816952038E+02  0.55129830872E+02  0.10566000000E+00 0.  1.
         23    2    1    0    0    0  0.56397881339E+01 -0.24414003069E+02 -0.26420654877E+02  0.88587066032E+02  0.80757454813E+02 0.  0.
         13    1    3    3    0    0 -0.29981093695E+02 -0.81756503145E+01  0.12396297161E+02  0.33457235160E+02  0.10566000000E+00 0. -1.
         22    1    1    0    0    0 -0.56397881339E+01  0.24414003069E+02  0.26420654877E+02  0.36412933968E+02  0.00000000000E+00 0.  1.
</event>
<event>
 5    1  0.1758488E-003  0.9118800E+02  0.7818608E-02  0.1130116E+00
         25   -1    0    0    0    0  0.00000000000E+00  0.00000000000E+00  0.99999998245E-14  0.12500000000E+03  0.12500000000E+03 0.  0.
        -13    1    3    3    0    0 -0.63435096845E+01 -0.85550861226E+01 -0.43565796897E+02  0.44848851011E+02  0.10566000000E+00 0. -1.
         23    2    1    0    0    0 -0.14818998453E+02  0.25600667136E+02 -0.92372901935E+01  0.94010898640E+02  0.88756547139E+02 0.  0.
         13    1    3    3    0    0 -0.84754887681E+01  0.34155753259E+02  0.34328506704E+02  0.49162047629E+02  0.10566000000E+00 0.  1.
         22    1    1    0    0    0  0.14818998453E+02 -0.25600667136E+02  0.92372901935E+01  0.30989101360E+02  0.00000000000E+00 0.  1.
</event>
<event>
 5    1  0.1758488E-003  0.9118800E+02  0.7818608E-02  0.1130116E+00
         25   -1    0    0    0    0  0.00000000000E+00  0.00000000000E+00  0.99999998245E-14  0.12500000000E+03  0.12500000000E+03 0.  0.
        -13    1    3    3    0    0  0.20254994979E+02  0.33782656615E+01  0.29271870871E+02  0.35756553089E+02  0.10566000000E+00 0.  1.
         23    2    1    0    0    0 -0.16873903570E+02  0.25032392981E+02 -0.91991736811E+01  0.93440942402E+02  0.87950188178E+02 0.  0.
         13    1    3    3    0    0 -0.37128898549E+02  0.21654127320E+02 -0.38471044552E+02  0.57684389313E+02  0.10566000000E+00 0. -1.
         22    1    1    0    0    0  0.16873903570E+02 -0.25032392981E+02  0.91991736811E+01  0.31559057598E+02  0.00000000000E+00 0. -1.
</event>
<event>
 5    1  0.1758488E-003  0.9118800E+02  0.7818608E-02  0.1130116E+00
         25   -1    0    0    0    0  0.00000000000E+00  0.00000000000E+00  0.99999998245E-14  0.12500000000E+03  0.12500000000E+03 0.  0.
        -13    1    3    3    0    0 -0.57048213102E+02  0.75866608855E+01 -0.16786291109E+02  0.59948701193E+02  0.10566000000E+00 0. -1.
         23    2    1    0    0    0 -0.24373582679E+02  0.12626885265E+02  0.10800051623E+01  0.97528629898E+02  0.93579685160E+02 0.  0.
         13    1    3    3    0    0  0.32674630422E+02  0.50402243798E+01  0.17866296271E+02  0.37579928706E+02  0.10566000000E+00 0.  1.
         22    1    1    0    0    0  0.24373582679E+02 -0.12626885265E+02 -0.10800051623E+01  0.27471370102E+02  0.00000000000E+00 0. -1.
</event>
<event>
 5    1  0.1758488E-003  0.9118800E+02  0.7818608E-02  0.1130116E+00
         25   -1    0    0    0    0  0.00000000000E+00  0.00000000000E+00  0.99999998245E-14  0.12500000000E+03  0.12500000000E+03 0.  0.
        -13    1    3    3    0    0 -0.16771467385E+02 -0.13836460204E+02  0.38555010028E+02  0.44263186865E+02  0.10566000000E+00 0. -1.
         23    2    1    0    0    0  0.20784379597E+02  0.13209711702E+02  0.14476188122E+02  0.96433464665E+02  0.92105190768E+02 0.  0.
         13    1    3    3    0    0  0.37555846982E+02  0.27046171907E+02 -0.24078821906E+02  0.52170277800E+02  0.10566000000E+00 0.  1.
         22    1    1    0    0    0 -0.20784379597E+02 -0.13209711702E+02 -0.14476188122E+02  0.28566535335E+02  0.00000000000E+00 0. -1.
</event>
<event>
 5    1  0.1758488E-003  0.9118800E+02  0.7818608E-02  0.1130116E+00
         25   -1    0    0    0    0  0.00000000000E+00  0.00000000000E+00  0.99999998245E-14  0.12500000000E+03  0.12500000000E+03 0.  0.
        -13    1    3    3    0    0  0.43276656096E+02  0.11358561689E+02 -0.39586658585E+02  0.59741113050E+02  0.10566000000E+00 0.  1.
         23    2    1    0    0    0  0.14049117984E+02  0.16734274456E+02 -0.13272013259E+02  0.99435180547E+02  0.96092638307E+02 0.  0.
         13    1    3    3    0    0 -0.29227538112E+02  0.53757127674E+01  0.26314645326E+02  0.39694067497E+02  0.10566000000E+00 0. -1.
         22    1    1    0    0    0 -0.14049117984E+02 -0.16734274456E+02  0.13272013259E+02  0.25564819453E+02  0.00000000000E+00 0.  1.
</event>
<event>
 5    1  0.1758488E-003  0.9118800E+02  0.7818608E-02  0.1130116E+00
         25   -1    0    0    0    0  0.00000000000E+00  0.00000000000E+00  0.99999998245E-14  0.12500000000E+03  0.12500000000E+03 0.  0.
        -13    1    3    3    0    0  0.32415592515E+02 -0.10049149756E+02  0.16046838183E+02  0.37540221478E+02  0.10566000000E+00 0. -1.
         23    2    1    0    0    0 -0.18915358232E+02 -0.18346964513E+02 -0.11343551282E+02  0.96310663313E+02  0.91938380604E+02 0.  0.
         13    1    3    3    0    0 -0.51330950747E+02 -0.82978147562E+01 -0.27390389466E+02  0.58770441834E+02  0.10566000000E+00 0.  1.
         22    1    1    0    0    0  0.18915358232E+02  0.18346964513E+02  0.11343551282E+02  0.28689336687E+02  0.00000000000E+00 0.  1.
</event>
<event>
 5    1  0.1758488E-003  0.9118800E+02  0.7818608E-02  0.1130116E+00
         25   -1    0    0    0    0  0.00000000000E+00  0.00000000000E+00  0.99999998245E-14  0.12500000000E+03  0.12500000000E+03 0.  0.
        -13    1    3    3    0    0 -0.19052372885E+02  0.25340747586E+02  0.10662539369E+02  0.33449175036E+02  0.10566000000E+00 0.  1.
         23    2    1    0    0    0  0.15618306848E+02 -0.63598913823E+01 -0.26663620674E+02  0.93451174433E+02  0.87964729343E+02 0.  0.
         13    1    3    3    0    0  0.34670679733E+02 -0.31700638968E+02 -0.37326160043E+02  0.60001999398E+02  0.10566000000E+00 0. -1.
         22    1    1    0    0    0 -0.15618306848E+02  0.63598913823E+01  0.26663620674E+02  0.31548825567E+02  0.00000000000E+00 0. -1.
</event>
<event>
 5    1  0.1758488E-003  0.9118800E+02  0.7818608E-02  0.1130116E+00
         25   -1    0    0    0    0  0.00000000000E+00  0.00000000000E+00  0.99999998245E-14  0.12500000000E+03  0.12500000000E+03 0.  0.
        -13    1    3    3    0    0 -0.41958997954E+02  0.11303371308E+02  0.16707038819E+02  0.46555988040E+02  0.10566000000E+00 0.  1.
         23    2    1    0    0    0  0.27356316520E+01 -0.77041150500E+01  0.27501012430E+02  0.96309535488E+02  0.91936847194E+02 0.  0.
         13    1    3    3    0    0  0.44694629606E+02 -0.19007486358E+02  0.10793973611E+02  0.49753547448E+02  0.10566000000E+00 0. -1.
         22    1    1    0    0    0 -0.27356316520E+01  0.77041150500E+01 -0.27501012430E+02  0.28690464512E+02  0.00000000000E+00 0.  1.
</event>
<event>
 5    1  0.1758488E-003  0.9118800E+02  0.7818608E-02  0.1130116E+00
         25   -1    0    0    0    0  0.00000000000E+00  0.00000000000E+00  0.99999998245E-14  0.12500000000E+03  0.12500000000E+03 0.  0.
        -13    1    3    3    0    0 -0.27303476515E+02 -0.24710964361E+02 -0.99294662340E+01  0.38140753181E+02  0.10566000000E+00 0. -1.
         23    2    1    0    0    0  0.11517084547E+02 -0.41298884913E+00  0.26136977151E+02  0.96435067463E+02  0.92107365969E+02 0.  0.
         13    1    3    3    0    0  0.38820561062E+02  0.24297975512E+02  0.36066443385E+02  0.58294314282E+02  0.10566000000E+00 0.  1.
         22    1    1    0    0    0 -0.11517084547E+02  0.41298884913E+00 -0.26136977151E+02  0.28564932537E+02  0.00000000000E+00 0.  1.
</event>
<event>
 5    1  0.1758488E-003  0.9118800E+02  0.7818608E-02  0.1130116E+00
         25   -1    0    0    0    0  0.00000000000E+00  0.00000000000E+00  0.99999998245E-14  0.12500000000E+03  0.12500000000E+03 0.  0.
        -13    1    3    3    0    0  0.35339293775E+02  0.14943298981E+02  0.42162696532E+02  0.57007648713E+02  0.10566000000E+00 0. -1.
         23    2    1    0    0    0  0.26555474688E+02  0.11921881734E+02  0.48121431956E+01  0.95496081241E+02  0.90824117449E+02 0.  0.
         13    1    3    3    0    0 -0.87838190871E+01 -0.30214172467E+01 -0.37350553336E+02  0.38488432528E+02  0.10566000000E+00 0.  1.
         22    1    1    0    0    0 -0.26555474688E+02 -0.11921881734E+02 -0.48121431956E+01  0.29503918759E+02  0.00000000000E+00 0. -1.
</event>
<event>
 5    1  0.1758488E-003  0.9118800E+02  0.7818608E-02  0.1130116E+00
         25   -1    0    0    0    0  0.00000000000E+00  0.00000000000E+00  0.99999998245E-14  0.12500000000E+03  0.12500000000E+03 0.  0.
        -13    1    3    3    0    0 -0.32525363262E+02  0.48284849709E+01  0.38989940417E+02  0.51004314918E+02  0.10566000000E+00 0.  1.
         23    2    1    0    0    0  0.25866522651E+01  0.22789374822E+02  0.18980294421E+02  0.95229243358E+02  0.90456126600E+02 0.  0.
         13    1    3    3    0    0  0.35112015527E+02  0.17960889851E+02 -0.20009645996E+02  0.44224928440E+02  0.10566000000E+00 0. -1.
         22    1    1    0    0    0 -0.25866522651E+01 -0.22789374822E+02 -0.18980294421E+02  0.29770756642E+02  0.00000000000E+00 0.  1.
</event>
<event>
 5    1  0.1758488E-003  0.9118800E+02  0.7818608E-02  0.1130116E+00
         25   -1    0    0    0    0  0.00000000000E+00  0.00000000000E+00  0.99999998245E-14  0.12500000000E+03  0.12500000000E+03 0.  0.
        -13    1    3    3    0    0  0.47858180291E+00  0.35937274656E+02 -0.12823529369E+01  0.35963486252E+02  0.10566000000E+00 0.  1.
         23    2    1    0    0    0  0.23741900840E+02 -0.16974771565E+02  0.85350931615E+01  0.94591636998E+02  0.89570694144E+02 0.  0.
         13    1    3    3    0    0  0.23263319037E+02 -0.52912046222E+02  0.98174460984E+01  0.58628150746E+02  0.10566000000E+00 0. -1.
         22    1    1    0    0    0 -0.23741900840E+02  0.16974771565E+02 -0.85350931615E+01  0.30408363002E+02  0.00000000000E+00 0. -1.
</event>
<event>
 5    1  0.1758488E-003  0.9118800E+02  0.7818608E-02  0.1130116E+00
         25   -1    0    0    0    0  0.00000000000E+00  0.00000000000E+00  0.99999998245E-14  0.12500000000E+03  0.12500000000E+03 0.  0.
        -13    1    3    3    0    0  0.29354852035E+02  0.12898072909E+02 -0.38067398639E+02  0.49771534293E+02  0.10566000000E+00 0.  1.
         23    2    1    0    0    0 -0.13774095181E+02  0.36051709017E+01 -0.25747014285E+02  0.95578380401E+02  0.90937314124E+02 0.  0.
         13    1    3    3    0    0 -0.43128947215E+02 -0.92929020075E+01  0.12320384354E+02  0.45806846107E+02  0.10566000000E+00 0. -1.
         22    1    1    0    0    0  0.13774095181E+02 -0.36051709017E+01  0.25747014285E+02  0.29421619599E+02  0.00000000000E+00 0.  1.
</event>
<event>
 5    1  0.1758488E-003  0.9118800E+02  0.7818608E-02  0.1130116E+00
         25   -1    0    0    0    0  0.00000000000E+00  0.00000000000E+00  0.99999998245E-14  0.12500000000E+03  0.12500000000E+03 0.  0.
        -13    1    3    3    0    0  0.33758531753E+02 -0.23862460820E+02  0.10780839985E+02  0.42723449970E+02  0.10566000000E+00 0. -1.
         23    2    1    0    0    0  0.13903779858E+02  0.25109613901E+02  0.29007848403E+01  0.96151735628E+02  0.91722047006E+02 0.  0.
         13    1    3    3    0    0 -0.19854751894E+02  0.48972074721E+02 -0.78800551449E+01  0.53428285658E+02  0.10566000000E+00 0.  1.
         22    1    1    0    0    0 -0.13903779858E+02 -0.25109613901E+02 -0.29007848403E+01  0.28848264372E+02  0.00000000000E+00 0.  1.
</event>
<event>
 5    1  0.1758488E-003  0.9118800E+02  0.7818608E-02  0.1130116E+00
         25   -1    0    0    0    0  0.00000000000E+00  0.00000000000E+00  0.99999998245E-14  0.12500000000E+03  0.12500000000E+03 0.  0.
        -13    1    3    3    0    0 -0.36393809900E+02 -0.50494638716E+01 -0.18021245814E+02  0.40924112075E+02  0.10566000000E+00 0. -1.
         23    2    1    0    0    0  0.55187622293E+01  0.28128090898E+02 -0.66056890399E+01  0.95584334755E+02  0.90945498453E+02 0.  0.
         13    1    3    3    0    0  0.41912572129E+02  0.33177554769E+02  0.11415556774E+02  0.54660222680E+02  0.10566000000E+00 0.  1.
         22    1    1    0    0    0 -0.55187622293E+01 -0.28128090898E+02  0.66056890399E+01  0.29415665245E+02  0.00000000000E+00 0. -1.
</event>
<event>
 5    1  0.1758488E-003  0.9118800E+02  0.7818608E-02  0.1130116E+00
         25   -1    0    0    0    0  0.00000000000E+00  0.00000000000E+00  0.99999998245E-14  0.12500000000E+03  0.12500000000E+03 0.  0.
        -13    1    3    3    0    0 -0.48127644910E+02 -0.85629712227E+01  0.23853146978E+02  0.54392816304E+02  0.10566000000E+00 0.  1.
         23    2    1    0    0    0 -0.28756832654E+02  0.64558739661E+01 -0.78818973260E+01  0.94491672638E+02  0.89431080501E+02 0.  0.
         13    1    3    3    0    0  0.19370812255E+02  0.15018845189E+02 -0.31735044304E+02  0.40098856334E+02  0.10566000000E+00 0. -1.
         22    1    1    0    0    0  0.28756832654E+02 -0.64558739661E+01  0.78818973260E+01  0.30508327362E+02  0.00000000000E+00 0. -1.
</event>
<event>
 5    1  0.1758488E-003  0.9118800E+02  0.7818608E-02  0.1130116E+00
         25   -1    0    0    0    0  0.00000000000E+00  0.00000000000E+00  0.99999998245E-14  0.12500000000E+03  0.12500000000E+03 0.  0.
        -13    1    3    3    0    0  0.31256645983E+02  0.27488823057E+02  0.38044171117E+02  0.56391341810E+02  0.10566000000E+00 0. -1.
         23    2    1    0    0    0  0.87699781319E+00  0.56710701492E+01  0.29748884149E+02  0.94702701937E+02  0.89725556472E+02 0.  0.
         13    1    3    3    0    0 -0.30379648169E+02 -0.21817752908E+02 -0.82952869679E+01  0.38311360127E+02  0.10566000000E+00 0.  1.
         22    1    1    0    0    0 -0.87699781319E+00 -0.56710701492E+01 -0.29748884149E+02  0.30297298063E+02  0.00000000000E+00 0. -1.
</event>
<event>
 5    1  0.1758488E-003  0.9118800E+02  0.7818608E-02  0.1130116E+00
         25   -1    0    0    0    0  0.00000000000E+00  0.00000000000E+00  0.99999998245E-14  0.12500000000E+03  0.12500000000E+03 0.  0.
        -13    1    3    3    0    0 -0.47072714932E+02 -0.13433634407E+02  0.18617932355E+02  0.52373099906E+02  0.10566000000E+00 0.  1.
         23    2    1    0    0    0 -0.26593717163E+02  0.16028564646E+02 -0.22276038108E+01  0.93869582465E+02  0.88557301316E+02 0.  0.
         13    1    3    3    0    0  0.20478997770E+02  0.29462199054E+02 -0.20845536166E+02  0.41496482560E+02  0.10566000000E+00 0. -1.
         22    1    1    0    0    0  0.26593717163E+02 -0.16028564646E+02  0.22276038108E+01  0.31130417535E+02  0.00000000000E+00 0.  1.
</event>
<event>
 5    1  0.1758488E-003  0.9118800E+02  0.7818608E-02  0.1130116E+00
         25   -1    0    0    0    0  0.00000000000E+00  0.00000000000E+00  0.99999998245E-14  0.12500000000E+03  0.12500000000E+03 0.  0.
        -13    1    3    3    0    0  0.73099659094E+01 -0.33496871720E+01 -0.21019359046E+02  0.22505124405E+02  0.10566000000E+00 0. -1.
         23    2    1    0    0    0 -0.39882750048E+02 -0.14276817177E+02  0.11810631324E+02  0.81023275789E+02  0.68050120846E+02 0.  0.
         13    1    3    3    0    0 -0.47192715957E+02 -0.10927130005E+02  0.32829990370E+02  0.58518151383E+02  0.10566000000E+00 0.  1.
         22    1    1    0    0    0  0.39882750048E+02  0.14276817177E+02 -0.11810631324E+02  0.43976724211E+02  0.00000000000E+00 0.  1.
</event>
<event>
 5    1  0.1758488E-003  0.9118800E+02  0.7818608E-02  0.1130116E+00
         25   -1    0    0    0    0  0.00000000000E+00  0.00000000000E+00  0.99999998245E-14  0.12500000000E+03  0.12500000000E+03 0.  0.
        -13    1    3    3    0    0 -0.16979556390E+02  0.11446192504E+02  0.37001821584E+02  0.42290266287E+02  0.10566000000E+00 0. -1.
         23    2    1    0    0    0 -0.24245234179E+02  0.61472311625E+01 -0.15511605410E+02  0.95568218984E+02  0.90923345441E+02 0.  0.
         13    1    3    3    0    0 -0.72656777894E+01 -0.52989613417E+01 -0.52513426994E+02  0.53277952698E+02  0.10566000000E+00 0.  1.
         22    1    1    0    0    0  0.24245234179E+02 -0.61472311625E+01  0.15511605410E+02  0.29431781016E+02  0.00000000000E+00 0.  1.
</event>
<event>
 5    1  0.1758488E-003  0.9118800E+02  0.7818608E-02  0.1130116E+00
         25   -1    0    0    0    0  0.00000000000E+00  0.00000000000E+00  0.99999998245E-14  0.12500000000E+03  0.12500000000E+03 0.  0.
        -13    1    3    3    0    0  0.39504135311E+02 -0.32070537555E+01 -0.19749242950E+02  0.44282114466E+02  0.10566000000E+00 0. -1.
         23    2    1    0    0    0  0.21710851019E+02 -0.13919533203E+02  0.22122389987E+02  0.91021851208E+02  0.84442067728E+02 0.  0.
         13    1    3    3    0    0 -0.17793284292E+02 -0.10712479448E+02  0.41871632937E+02  0.46739736742E+02  0.10566000000E+00 0.  1.
         22    1    1    0    0    0 -0.21710851019E+02  0.13919533203E+02 -0.22122389987E+02  0.33978148792E+02  0.00000000000E+00 0.  1.
</event>
<event>
 5    1  0.1758488E-003  0.9118800E+02  0.7818608E-02  0.1130116E+00
         25   -1    0    0    0    0  0.00000000000E+00  0.00000000000E+00  0.99999998245E-14  0.12500000000E+03  0.12500000000E+03 0.  0.
        -13    1    3    3    0    0 -0.28176924266E+01  0.36423774429E+02  0.19858386763E+02  0.41581214786E+02  0.10566000000E+00 0.  1.
         23    2    1    0    0    0  0.41848480413E+00  0.26471434883E+02 -0.25566211003E+02  0.88195881489E+02  0.80149674810E+02 0.  0.
         13    1    3    3    0    0  0.32361772308E+01 -0.99523395453E+01 -0.45424597766E+02  0.46614666702E+02  0.10566000000E+00 0. -1.
         22    1    1    0    0    0 -0.41848480413E+00 -0.26471434883E+02  0.25566211003E+02  0.36804118511E+02  0.00000000000E+00 0. -1.
</event>
<event>
 5    1  0.1758488E-003  0.9118800E+02  0.7818608E-02  0.1130116E+00
         25   -1    0    0    0    0  0.00000000000E+00  0.00000000000E+00  0.99999998245E-14  0.12500000000E+03  0.12500000000E+03 0.  0.
        -13    1    3    3    0    0 -0.39049941535E+02  0.14155866928E+02  0.46382899907E+02  0.62262918902E+02  0.10566000000E+00 0.  1.
         23    2    1    0    0    0 -0.20757506433E+02  0.52489989553E+01  0.19019875525E+02  0.96361184935E+02  0.92007044479E+02 0.  0.
         13    1    3    3    0    0  0.18292435102E+02 -0.89068679724E+01 -0.27363024382E+02  0.34098266033E+02  0.10566000000E+00 0. -1.
         22    1    1    0    0    0  0.20757506433E+02 -0.52489989553E+01 -0.19019875525E+02  0.28638815065E+02  0.00000000000E+00 0.  1.
</event>
<event>
 5    1  0.1758488E-003  0.9118800E+02  0.7818608E-02  0.1130116E+00
         25   -1    0    0    0    0  0.00000000000E+00  0.00000000000E+00  0.99999998245E-14  0.12500000000E+03  0.12500000000E+03 0.  0.
        -13    1    3    3    0    0 -0.38331755105E+02 -0.35121761703E+02  0.87410478257E+01  0.52718864514E+02  0.10566000000E+00 0.  1.
         23    2    1    0    0    0 -0.79557862926E+01 -0.72934013378E+01  0.25589686840E+02  0.97227345982E+02  0.93176373055E+02 0.  0.
         13    1    3    3    0    0  0.30375968813E+02  0.27828360365E+02  0.16848639014E+02  0.44508481468E+02  0.10566000000E+00 0. -1.
         22    1    1    0    0    0  0.79557862926E+01  0.72934013378E+01 -0.25589686840E+02  0.27772654018E+02  0.00000000000E+00 0.  1.
</event>
<event>
 5    1  0.1758488E-003  0.9118800E+02  0.7818608E-02  0.1130116E+00
         25   -1    0    0    0    0  0.00000000000E+00  0.00000000000E+00  0.99999998245E-14  0.12500000000E+03  0.12500000000E+03 0.  0.
        -13    1    3    3    0    0  0.39251022442E+02 -0.17610458627E+02 -0.80087871647E+01  0.43759831486E+02  0.10566000000E+00 0. -1.
         23    2    1    0    0    0  0.59732059278E+01  0.92566584259E+01  0.24930604962E+02  0.97743808446E+02  0.93866671995E+02 0.  0.
         13    1    3    3    0    0 -0.33277816514E+02  0.26867117053E+02  0.32939392127E+02  0.53983976960E+02  0.10566000000E+00 0.  1.
         22    1    1    0    0    0 -0.59732059278E+01 -0.92566584259E+01 -0.24930604962E+02  0.27256191554E+02  0.00000000000E+00 0. -1.
</event>
<event>
 5    1  0.1758488E-003  0.9118800E+02  0.7818608E-02  0.1130116E+00
         25   -1    0    0    0    0  0.00000000000E+00  0.00000000000E+00  0.99999998245E-14  0.12500000000E+03  0.12500000000E+03 0.  0.
        -13    1    3    3    0    0  0.32073936277E+02 -0.95932545720E+01  0.94764024947E+00  0.33491448276E+02  0.10566000000E+00 0. -1.
         23    2    1    0    0    0 -0.29354038092E+02 -0.43977391541E+01 -0.23386794625E+01  0.95226369324E+02  0.90452154928E+02 0.  0.
         13    1    3    3    0    0 -0.61427974369E+02  0.51955154178E+01 -0.32863197120E+01  0.61734921048E+02  0.10566000000E+00 0.  1.
         22    1    1    0    0    0  0.29354038092E+02  0.43977391541E+01  0.23386794625E+01  0.29773630676E+02  0.00000000000E+00 0.  1.
</event>
<event>
 5    1  0.1758488E-003  0.9118800E+02  0.7818608E-02  0.1130116E+00
         25   -1    0    0    0    0  0.00000000000E+00  0.00000000000E+00  0.99999998245E-14  0.12500000000E+03  0.12500000000E+03 0.  0.
        -13    1    3    3    0    0  0.39201236670E+02 -0.36325475238E+02  0.67182211204E+01  0.53864856509E+02  0.10566000000E+00 0. -1.
         23    2    1    0    0    0  0.27964507142E+02  0.16467532274E+00 -0.96640698928E+01  0.95412248741E+02  0.90708666539E+02 0.  0.
         13    1    3    3    0    0 -0.11236729528E+02  0.36490150560E+02 -0.16382291013E+02  0.41547392232E+02  0.10566000000E+00 0.  1.
         22    1    1    0    0    0 -0.27964507142E+02 -0.16467532274E+00  0.96640698928E+01  0.29587751259E+02  0.00000000000E+00 0. -1.
</event>
<event>
 5    1  0.1758488E-003  0.9118800E+02  0.7818608E-02  0.1130116E+00
         25   -1    0    0    0    0  0.00000000000E+00  0.00000000000E+00  0.99999998245E-14  0.12500000000E+03  0.12500000000E+03 0.  0.
        -13    1    3    3    0    0 -0.10908654742E+02 -0.38374667568E+02 -0.53852163699E+01  0.40256994158E+02  0.10566000000E+00 0.  1.
         23    2    1    0    0    0  0.21146810509E+02  0.69260494935E+01  0.13613109097E+02  0.98914093928E+02  0.95412386418E+02 0.  0.
         13    1    3    3    0    0  0.32055465251E+02  0.45300717062E+02  0.18998325467E+02  0.58657099770E+02  0.10566000000E+00 0. -1.
         22    1    1    0    0    0 -0.21146810509E+02 -0.69260494935E+01 -0.13613109097E+02  0.26085906072E+02  0.00000000000E+00 0. -1.
</event>
<event>
 5    1  0.1758488E-003  0.9118800E+02  0.7818608E-02  0.1130116E+00
         25   -1    0    0    0    0  0.00000000000E+00  0.00000000000E+00  0.99999998245E-14  0.12500000000E+03  0.12500000000E+03 0.  0.
        -13    1    3    3    0    0  0.40558353592E+02  0.36998051845E+02 -0.28422505381E+02  0.61819785365E+02  0.10566000000E+00 0. -1.
         23    2    1    0    0    0  0.15561521832E+02  0.22620646188E+02 -0.11698794046E+02  0.95155128116E+02  0.90353649782E+02 0.  0.
         13    1    3    3    0    0 -0.24996831760E+02 -0.14377405658E+02  0.16723711335E+02  0.33335342751E+02  0.10566000000E+00 0.  1.
         22    1    1    0    0    0 -0.15561521832E+02 -0.22620646188E+02  0.11698794046E+02  0.29844871884E+02  0.00000000000E+00 0. -1.
</event>
<event>
 5    1  0.1758488E-003  0.9118800E+02  0.7818608E-02  0.1130116E+00
         25   -1    0    0    0    0  0.00000000000E+00  0.00000000000E+00  0.99999998245E-14  0.12500000000E+03  0.12500000000E+03 0.  0.
        -13    1    3    3    0    0 -0.10527072023E+01 -0.24550071454E+02  0.36911058298E+02  0.44342435540E+02  0.10566000000E+00 0.  1.
         23    2    1    0    0    0 -0.66326652927E+00 -0.24607060962E+02 -0.14946533054E+02  0.96201628136E+02  0.91790015982E+02 0.  0.
         13    1    3    3    0    0  0.38944067299E+00 -0.56989508465E-01 -0.51857591352E+02  0.51859192596E+02  0.10566000000E+00 0. -1.
         22    1    1    0    0    0  0.66326652927E+00  0.24607060962E+02  0.14946533054E+02  0.28798371864E+02  0.00000000000E+00 0.  1.
</event>
<event>
 5    1  0.1758488E-003  0.9118800E+02  0.7818608E-02  0.1130116E+00
         25   -1    0    0    0    0  0.00000000000E+00  0.00000000000E+00  0.99999998245E-14  0.12500000000E+03  0.12500000000E+03 0.  0.
        -13    1    3    3    0    0  0.30952802158E+02  0.20081111962E+02  0.16075180883E+02  0.40246113149E+02  0.10566000000E+00 0. -1.
         23    2    1    0    0    0 -0.23051813134E+02  0.12672652360E+02 -0.41128576720E+01  0.98374865168E+02  0.94703306658E+02 0.  0.
         13    1    3    3    0    0 -0.54004615292E+02 -0.74084596017E+01 -0.20188038555E+02  0.58128752019E+02  0.10566000000E+00 0.  1.
         22    1    1    0    0    0  0.23051813134E+02 -0.12672652360E+02  0.41128576720E+01  0.26625134832E+02  0.00000000000E+00 0.  1.
</event>
<event>
 5    1  0.1758488E-003  0.9118800E+02  0.7818608E-02  0.1130116E+00
         25   -1    0    0    0    0  0.00000000000E+00  0.00000000000E+00  0.99999998245E-14  0.12500000000E+03  0.12500000000E+03 0.  0.
        -13    1    3    3    0    0  0.16831499758E+02  0.98724419117E+00 -0.35274546453E+02  0.39097043708E+02  0.10566000000E+00 0. -1.
         23    2    1    0    0    0  0.20243585545E+02  0.27017196021E+01  0.21119796872E+02  0.95620621783E+02  0.90995359473E+02 0.  0.
         13    1    3    3    0    0  0.34120857871E+01  0.17144754109E+01  0.56394343325E+02  0.56523578075E+02  0.10566000000E+00 0.  1.
         22    1    1    0    0    0 -0.20243585545E+02 -0.27017196021E+01 -0.21119796872E+02  0.29379378217E+02  0.00000000000E+00 0.  1.
</event>
<event>
 5    1  0.1758488E-003  0.9118800E+02  0.7818608E-02  0.1130116E+00
         25   -1    0    0    0    0  0.00000000000E+00  0.00000000000E+00  0.99999998245E-14  0.12500000000E+03  0.12500000000E+03 0.  0.
        -13    1    3    3    0    0 -0.85325251588E+01 -0.50393382725E+01  0.41843205588E+02  0.43000743409E+02  0.10566000000E+00 0.  1.
         23    2    1    0    0    0  0.25359840072E+02 -0.12687695876E+02  0.99652266969E+00  0.96625853801E+02  0.92365921476E+02 0.  0.
         13    1    3    3    0    0  0.33892365231E+02 -0.76483576033E+01 -0.40846682919E+02  0.53625110391E+02  0.10566000000E+00 0. -1.
         22    1    1    0    0    0 -0.25359840072E+02  0.12687695876E+02 -0.99652266969E+00  0.28374146199E+02  0.00000000000E+00 0. -1.
</event>
<event>
 5    1  0.1758488E-003  0.9118800E+02  0.7818608E-02  0.1130116E+00
         25   -1    0    0    0    0  0.00000000000E+00  0.00000000000E+00  0.99999998245E-14  0.12500000000E+03  0.12500000000E+03 0.  0.
        -13    1    3    3    0    0  0.32187802291E+00  0.22798413720E+02  0.27454890200E+02  0.35688281459E+02  0.10566000000E+00 0.  1.
         23    2    1    0    0    0  0.14410715295E+02 -0.27697604934E+02  0.27073837689E+01  0.93660632405E+02  0.88261872296E+02 0.  0.
         13    1    3    3    0    0  0.14088837272E+02 -0.50496018654E+02 -0.24747506431E+02  0.57972350946E+02  0.10566000000E+00 0. -1.
         22    1    1    0    0    0 -0.14410715295E+02  0.27697604934E+02 -0.27073837689E+01  0.31339367595E+02  0.00000000000E+00 0. -1.
</event>
<event>
 5    1  0.1758488E-003  0.9118800E+02  0.7818608E-02  0.1130116E+00
         25   -1    0    0    0    0  0.00000000000E+00  0.00000000000E+00  0.99999998245E-14  0.12500000000E+03  0.12500000000E+03 0.  0.
        -13    1    3    3    0    0  0.12770725598E+01  0.33017119879E+00 -0.39384897465E+02  0.39407121688E+02  0.10566000000E+00 0.  1.
         23    2    1    0    0    0  0.30983684370E+02  0.13542173375E+02  0.89879660625E+00  0.91174166792E+02  0.84667240997E+02 0.  0.
         13    1    3    3    0    0  0.29706611810E+02  0.13212002177E+02  0.40283694071E+02  0.51767045104E+02  0.10566000000E+00 0. -1.
         22    1    1    0    0    0 -0.30983684370E+02 -0.13542173375E+02 -0.89879660625E+00  0.33825833208E+02  0.00000000000E+00 0. -1.
</event>
<event>
 5    1  0.1758488E-003  0.9118800E+02  0.7818608E-02  0.1130116E+00
         25   -1    0    0    0    0  0.00000000000E+00  0.00000000000E+00  0.99999998245E-14  0.12500000000E+03  0.12500000000E+03 0.  0.
        -13    1    3    3    0    0  0.36924776571E+02 -0.38263756206E+00 -0.24783496655E+02  0.44472670336E+02  0.10566000000E+00 0. -1.
         23    2    1    0    0    0 -0.14603891722E+02 -0.58747539401E+01 -0.23998895699E+02  0.96299244225E+02  0.91922853830E+02 0.  0.
         13    1    3    3    0    0 -0.51528668293E+02 -0.54921163780E+01  0.78460095584E+00  0.51826573889E+02  0.10566000000E+00 0.  1.
         22    1    1    0    0    0  0.14603891722E+02  0.58747539401E+01  0.23998895699E+02  0.28700755775E+02  0.00000000000E+00 0.  1.
</event>
<event>
 5    1  0.1758488E-003  0.9118800E+02  0.7818608E-02  0.1130116E+00
         25   -1    0    0    0    0  0.00000000000E+00  0.00000000000E+00  0.99999998245E-14  0.12500000000E+03  0.12500000000E+03 0.  0.
        -13    1    3    3    0    0 -0.27760620278E+02  0.17369449762E+02  0.38484186158E+02  0.50531114885E+02  0.10566000000E+00 0.  1.
         23    2    1    0    0    0 -0.21814473647E+02 -0.17749933978E+02  0.16286684444E+02  0.92500961447E+02  0.86603928096E+02 0.  0.
         13    1    3    3    0    0  0.59461466313E+01 -0.35119383739E+02 -0.22197501714E+02  0.41969846561E+02  0.10566000000E+00 0. -1.
         22    1    1    0    0    0  0.21814473647E+02  0.17749933978E+02 -0.16286684444E+02  0.32499038553E+02  0.00000000000E+00 0. -1.
</event>
<event>
 5    1  0.1758488E-003  0.9118800E+02  0.7818608E-02  0.1130116E+00
         25   -1    0    0    0    0  0.00000000000E+00  0.00000000000E+00  0.99999998245E-14  0.12500000000E+03  0.12500000000E+03 0.  0.
        -13    1    3    3    0    0  0.34753821289E+02 -0.10709387234E+02  0.88413878376E+01  0.37425931813E+02  0.10566000000E+00 0. -1.
         23    2    1    0    0    0 -0.16247030723E+02 -0.18123401259E+02 -0.17226846699E+02  0.95180745689E+02  0.90389083534E+02 0.  0.
         13    1    3    3    0    0 -0.51000852012E+02 -0.74140140247E+01 -0.26068234536E+02  0.57754813876E+02  0.10566000000E+00 0.  1.
         22    1    1    0    0    0  0.16247030723E+02  0.18123401259E+02  0.17226846699E+02  0.29819254311E+02  0.00000000000E+00 0.  1.
</event>
<event>
 5    1  0.1758488E-003  0.9118800E+02  0.7818608E-02  0.1130116E+00
         25   -1    0    0    0    0  0.00000000000E+00  0.00000000000E+00  0.99999998245E-14  0.12500000000E+03  0.12500000000E+03 0.  0.
        -13    1    3    3    0    0  0.11861110461E+02 -0.30841047609E+02 -0.19886214659E+02  0.38565902770E+02  0.10566000000E+00 0.  1.
         23    2    1    0    0    0 -0.20758329221E+02  0.16387151143E+02 -0.95144959115E+01  0.96893549014E+02  0.92727489200E+02 0.  0.
         13    1    3    3    0    0 -0.32619439682E+02  0.47228198752E+02  0.10371718747E+02  0.58327646243E+02  0.10566000000E+00 0. -1.
         22    1    1    0    0    0  0.20758329221E+02 -0.16387151143E+02  0.95144959115E+01  0.28106450986E+02  0.00000000000E+00 0. -1.
</event>
<event>
 5    1  0.1758488E-003  0.9118800E+02  0.7818608E-02  0.1130116E+00
         25   -1    0    0    0    0  0.00000000000E+00  0.00000000000E+00  0.99999998245E-14  0.12500000000E+03  0.12500000000E+03 0.  0.
        -13    1    3    3    0    0  0.18005438606E+02  0.16989601667E+02  0.35233077696E+02  0.43060693354E+02  0.10566000000E+00 0. -1.
         23    2    1    0    0    0  0.21254608229E+02 -0.19256221692E+02 -0.33813392858E+01  0.96121047453E+02  0.91680215223E+02 0.  0.
         13    1    3    3    0    0  0.32491696228E+01 -0.36245823360E+02 -0.38614416982E+02  0.53060354099E+02  0.10566000000E+00 0.  1.
         22    1    1    0    0    0 -0.21254608229E+02  0.19256221692E+02  0.33813392858E+01  0.28878952547E+02  0.00000000000E+00 0.  1.
</event>
<event>
 5    1  0.1758488E-003  0.9118800E+02  0.7818608E-02  0.1130116E+00
         25   -1    0    0    0    0  0.00000000000E+00  0.00000000000E+00  0.99999998245E-14  0.12500000000E+03  0.12500000000E+03 0.  0.
        -13    1    3    3    0    0 -0.40106747054E+02 -0.22122087559E+02  0.39173695112E+01  0.45970586957E+02  0.10566000000E+00 0.  1.
         23    2    1    0    0    0  0.40944430200E+01 -0.23612388822E+02 -0.17709583228E+02  0.95201699585E+02  0.90418056251E+02 0.  0.
         13    1    3    3    0    0  0.44201190074E+02 -0.14903012637E+01 -0.21626952739E+02  0.49231112628E+02  0.10566000000E+00 0. -1.
         22    1    1    0    0    0 -0.40944430200E+01  0.23612388822E+02  0.17709583228E+02  0.29798300415E+02  0.00000000000E+00 0. -1.
</event>
<event>
 5    1  0.1758488E-003  0.9118800E+02  0.7818608E-02  0.1130116E+00
         25   -1    0    0    0    0  0.00000000000E+00  0.00000000000E+00  0.99999998245E-14  0.12500000000E+03  0.12500000000E+03 0.  0.
        -13    1    3    3    0    0 -0.15559146935E+02 -0.93353089940E+01 -0.50888266028E+02  0.54026491934E+02  0.10566000000E+00 0. -1.
         23    2    1    0    0    0 -0.55683145228E+01 -0.25313435026E+02 -0.13779390393E+02  0.95646163469E+02  0.91030439235E+02 0.  0.
         13    1    3    3    0    0  0.99908324125E+01 -0.15978126032E+02  0.37108875635E+02  0.41619671535E+02  0.10566000000E+00 0.  1.
         22    1    1    0    0    0  0.55683145228E+01  0.25313435026E+02  0.13779390393E+02  0.29353836531E+02  0.00000000000E+00 0. -1.
</event>
<event>
 5    1  0.1758488E-003  0.9118800E+02  0.7818608E-02  0.1130116E+00
         25   -1    0    0    0    0  0.00000000000E+00  0.00000000000E+00  0.99999998245E-14  0.12500000000E+03  0.12500000000E+03 0.  0.
        -13    1    3    3    0    0  0.23747250130E+02 -0.35537773522E+02  0.79125110072E+01  0.43468197917E+02  0.10566000000E+00 0. -1.
         23    2    1    0    0    0  0.50779254748E+01  0.68178888144E+01  0.29324234150E+02  0.94468382887E+02  0.89398521922E+02 0.  0.
         13    1    3    3    0    0 -0.18669324656E+02  0.42355662336E+02  0.21411723143E+02  0.51000184971E+02  0.10566000000E+00 0.  1.
         22    1    1    0    0    0 -0.50779254748E+01 -0.68178888144E+01 -0.29324234150E+02  0.30531617113E+02  0.00000000000E+00 0.  1.
</event>
<event>
 5    1  0.1758488E-003  0.9118800E+02  0.7818608E-02  0.1130116E+00
         25   -1    0    0    0    0  0.00000000000E+00  0.00000000000E+00  0.99999998245E-14  0.12500000000E+03  0.12500000000E+03 0.  0.
        -13    1    3    3    0    0  0.22762891351E+02 -0.28511018142E+02  0.46982776289E+02  0.59484618264E+02  0.10566000000E+00 0.  1.
         23    2    1    0    0    0  0.41295813251E+01 -0.25168937789E+02  0.19327457345E+02  0.92998758168E+02  0.87319468288E+02 0.  0.
         13    1    3    3    0    0 -0.18633310026E+02  0.33420803526E+01 -0.27655318944E+02  0.33514139905E+02  0.10566000000E+00 0. -1.
         22    1    1    0    0    0 -0.41295813251E+01  0.25168937789E+02 -0.19327457345E+02  0.32001241832E+02  0.00000000000E+00 0.  1.
</event>
<event>
 5    1  0.1758488E-003  0.9118800E+02  0.7818608E-02  0.1130116E+00
         25   -1    0    0    0    0  0.00000000000E+00  0.00000000000E+00  0.99999998245E-14  0.12500000000E+03  0.12500000000E+03 0.  0.
        -13    1    3    3    0    0 -0.32866101142E+02 -0.29884968218E+02 -0.40700553809E+02  0.60248138345E+02  0.10566000000E+00 0. -1.
         23    2    1    0    0    0 -0.23597695172E+02 -0.13470898325E+02 -0.10457021216E+02  0.95885302478E+02  0.91358226884E+02 0.  0.
         13    1    3    3    0    0  0.92684059708E+01  0.16414069893E+02  0.30243532593E+02  0.35637164132E+02  0.10566000000E+00 0.  1.
         22    1    1    0    0    0  0.23597695172E+02  0.13470898325E+02  0.10457021216E+02  0.29114697522E+02  0.00000000000E+00 0. -1.
</event>
<event>
 5    1  0.1758488E-003  0.9118800E+02  0.7818608E-02  0.1130116E+00
         25   -1    0    0    0    0  0.00000000000E+00  0.00000000000E+00  0.99999998245E-14  0.12500000000E+03  0.12500000000E+03 0.  0.
        -13    1    3    3    0    0  0.60925747114E+00  0.34447945432E+02  0.33891808114E+02  0.48329059172E+02  0.10566000000E+00 0.  1.
         23    2    1    0    0    0 -0.97222837670E+01 -0.93736379380E+01  0.28228843228E+02  0.93706941986E+02  0.88327433431E+02 0.  0.
         13    1    3    3    0    0 -0.10331541238E+02 -0.43821583370E+02 -0.56629648856E+01  0.45377882815E+02  0.10566000000E+00 0. -1.
         22    1    1    0    0    0  0.97222837670E+01  0.93736379380E+01 -0.28228843228E+02  0.31293058014E+02  0.00000000000E+00 0. -1.
</event>
<event>
 5    1  0.1758488E-003  0.9118800E+02  0.7818608E-02  0.1130116E+00
         25   -1    0    0    0    0  0.00000000000E+00  0.00000000000E+00  0.99999998245E-14  0.12500000000E+03  0.12500000000E+03 0.  0.
        -13    1    3    3    0    0  0.11272045987E+02  0.35349432017E+02 -0.34458692826E+02  0.50636489215E+02  0.10566000000E+00 0.  1.
         23    2    1    0    0    0  0.19738268131E+01  0.28317128601E+02  0.86751358527E+01  0.95318124275E+02  0.90578866568E+02 0.  0.
         13    1    3    3    0    0 -0.92982191743E+01 -0.70323034164E+01  0.43133828678E+02  0.44681635060E+02  0.10566000000E+00 0. -1.
         22    1    1    0    0    0 -0.19738268131E+01 -0.28317128601E+02 -0.86751358527E+01  0.29681875725E+02  0.00000000000E+00 0. -1.
</event>
<event>
 5    1  0.1758488E-003  0.9118800E+02  0.7818608E-02  0.1130116E+00
         25   -1    0    0    0    0  0.00000000000E+00  0.00000000000E+00  0.99999998245E-14  0.12500000000E+03  0.12500000000E+03 0.  0.
        -13    1    3    3    0    0 -0.11877986706E+02  0.30366160499E+02  0.31966999823E+02  0.45662791345E+02  0.10566000000E+00 0. -1.
         23    2    1    0    0    0 -0.29946199836E+02 -0.49310429454E+00 -0.19995153685E+01  0.94983069807E+02  0.90115300875E+02 0.  0.
         13    1    3    3    0    0 -0.18068213130E+02 -0.30859264794E+02 -0.33966515191E+02  0.49320278463E+02  0.10566000000E+00 0.  1.
         22    1    1    0    0    0  0.29946199836E+02  0.49310429454E+00  0.19995153685E+01  0.30016930193E+02  0.00000000000E+00 0.  1.
</event>
<event>
 5    1  0.1758488E-003  0.9118800E+02  0.7818608E-02  0.1130116E+00
         25   -1    0    0    0    0  0.00000000000E+00  0.00000000000E+00  0.99999998245E-14  0.12500000000E+03  0.12500000000E+03 0.  0.
        -13    1    3    3    0    0 -0.30510051042E+02  0.40650236418E+02 -0.15796504807E+02  0.53224483686E+02  0.10566000000E+00 0. -1.
         23    2    1    0    0    0  0.23066510365E+01  0.29952871721E+02  0.64299124911E+01  0.94278038181E+02  0.89131978242E+02 0.  0.
         13    1    3    3    0    0  0.32816702079E+02 -0.10697364697E+02  0.22226417298E+02  0.41053554495E+02  0.10566000000E+00 0.  1.
         22    1    1    0    0    0 -0.23066510365E+01 -0.29952871721E+02 -0.64299124911E+01  0.30721961819E+02  0.00000000000E+00 0. -1.
</event>
<event>
 5    1  0.1758488E-003  0.9118800E+02  0.7818608E-02  0.1130116E+00
         25   -1    0    0    0    0  0.00000000000E+00  0.00000000000E+00  0.99999998245E-14  0.12500000000E+03  0.12500000000E+03 0.  0.
        -13    1    3    3    0    0 -0.25475448964E+01 -0.31645802008E+02  0.10330502653E+02  0.33386782098E+02  0.10566000000E+00 0.  1.
         23    2    1    0    0    0 -0.62701075365E+01  0.29032571518E+02 -0.12468787826E+01  0.95271912875E+02  0.90515071776E+02 0.  0.
         13    1    3    3    0    0 -0.37225626401E+01  0.60678373526E+02 -0.11577381436E+02  0.61885130777E+02  0.10566000000E+00 0. -1.
         22    1    1    0    0    0  0.62701075365E+01 -0.29032571518E+02  0.12468787826E+01  0.29728087125E+02  0.00000000000E+00 0. -1.
</event>
<event>
 5    1  0.1758488E-003  0.9118800E+02  0.7818608E-02  0.1130116E+00
         25   -1    0    0    0    0  0.00000000000E+00  0.00000000000E+00  0.99999998245E-14  0.12500000000E+03  0.12500000000E+03 0.  0.
        -13    1    3    3    0    0  0.33426072607E+02 -0.19840702484E+02 -0.30220335152E+02  0.49236527352E+02  0.10566000000E+00 0.  1.
         23    2    1    0    0    0 -0.45130748963E+01 -0.28386677844E+02 -0.43888683689E+01  0.95923661000E+02  0.91410695491E+02 0.  0.
         13    1    3    3    0    0 -0.37939147503E+02 -0.85459753608E+01  0.25831466783E+02  0.46687133648E+02  0.10566000000E+00 0. -1.
         22    1    1    0    0    0  0.45130748963E+01  0.28386677844E+02  0.43888683689E+01  0.29076339000E+02  0.00000000000E+00 0.  1.
</event>
<event>
 5    1  0.1758488E-003  0.9118800E+02  0.7818608E-02  0.1130116E+00
         25   -1    0    0    0    0  0.00000000000E+00  0.00000000000E+00  0.99999998245E-14  0.12500000000E+03  0.12500000000E+03 0.  0.
        -13    1    3    3    0    0  0.23659097289E+02 -0.42510087340E+02 -0.13767957855E+02  0.50561133668E+02  0.10566000000E+00 0.  1.
         23    2    1    0    0    0 -0.16887135531E+02 -0.21945909687E+02 -0.53193299890E+01  0.96802596397E+02  0.92604800627E+02 0.  0.
         13    1    3    3    0    0 -0.40546232820E+02  0.20564177653E+02  0.84486278660E+01  0.46241462729E+02  0.10566000000E+00 0. -1.
         22    1    1    0    0    0  0.16887135531E+02  0.21945909687E+02  0.53193299890E+01  0.28197403603E+02  0.00000000000E+00 0.  1.
</event>
<event>
 5    1  0.1758488E-003  0.9118800E+02  0.7818608E-02  0.1130116E+00
         25   -1    0    0    0    0  0.00000000000E+00  0.00000000000E+00  0.99999998245E-14  0.12500000000E+03  0.12500000000E+03 0.  0.
        -13    1    3    3    0    0  0.22972789477E+02 -0.20387792538E+02  0.51767885991E+02  0.60194155239E+02  0.10566000000E+00 0. -1.
         23    2    1    0    0    0  0.20191287066E+02 -0.30779136820E+01  0.20378760965E+02  0.96147694642E+02  0.91716539733E+02 0.  0.
         13    1    3    3    0    0 -0.27815024117E+01  0.17309878857E+02 -0.31389125026E+02  0.35953539403E+02  0.10566000000E+00 0.  1.
         22    1    1    0    0    0 -0.20191287066E+02  0.30779136820E+01 -0.20378760965E+02  0.28852305358E+02  0.00000000000E+00 0. -1.
</event>
<event>
 5    1  0.1758488E-003  0.9118800E+02  0.7818608E-02  0.1130116E+00
         25   -1    0    0    0    0  0.00000000000E+00  0.00000000000E+00  0.99999998245E-14  0.12500000000E+03  0.12500000000E+03 0.  0.
        -13    1    3    3    0    0 -0.54380943640E+00  0.31681594764E+02 -0.50451176813E+02  0.59576434782E+02  0.10566000000E+00 0.  1.
         23    2    1    0    0    0  0.39153392990E+01  0.24492726820E+02 -0.15021390045E+02  0.96002315475E+02  0.91518188732E+02 0.  0.
         13    1    3    3    0    0  0.44591487354E+01 -0.71888679439E+01  0.35429786768E+02  0.36425880693E+02  0.10566000000E+00 0. -1.
         22    1    1    0    0    0 -0.39153392990E+01 -0.24492726820E+02  0.15021390045E+02  0.28997684525E+02  0.00000000000E+00 0.  1.
</event>
<event>
 5    1  0.1758488E-003  0.9118800E+02  0.7818608E-02  0.1130116E+00
         25   -1    0    0    0    0  0.00000000000E+00  0.00000000000E+00  0.99999998245E-14  0.12500000000E+03  0.12500000000E+03 0.  0.
        -13    1    3    3    0    0 -0.28332968361E+02 -0.16409889518E+02  0.45094623792E+02  0.55727711501E+02  0.10566000000E+00 0.  1.
         23    2    1    0    0    0 -0.10829576489E+02 -0.24198995372E+02  0.82863445727E+01  0.97223488154E+02  0.93171197473E+02 0.  0.
         13    1    3    3    0    0  0.17503391872E+02 -0.77891058534E+01 -0.36808279219E+02  0.41495776654E+02  0.10566000000E+00 0. -1.
         22    1    1    0    0    0  0.10829576489E+02  0.24198995372E+02 -0.82863445727E+01  0.27776511846E+02  0.00000000000E+00 0.  1.
</event>
<event>
 5    1  0.1758488E-003  0.9118800E+02  0.7818608E-02  0.1130116E+00
         25   -1    0    0    0    0  0.00000000000E+00  0.00000000000E+00  0.99999998245E-14  0.12500000000E+03  0.12500000000E+03 0.  0.
        -13    1    3    3    0    0  0.34790701277E+01 -0.49474920581E+02 -0.26563271047E+02  0.56262689486E+02  0.10566000000E+00 0.  1.
         23    2    1    0    0    0  0.17419874518E+02 -0.14444142124E+02 -0.20530717283E+02  0.94445202961E+02  0.89366105098E+02 0.  0.
         13    1    3    3    0    0  0.13940804391E+02  0.35030778457E+02  0.60325537643E+01  0.38182513475E+02  0.10566000000E+00 0. -1.
         22    1    1    0    0    0 -0.17419874518E+02  0.14444142124E+02  0.20530717283E+02  0.30554797039E+02  0.00000000000E+00 0.  1.
</event>
<event>
 5    1  0.1758488E-003  0.9118800E+02  0.7818608E-02  0.1130116E+00
         25   -1    0    0    0    0  0.00000000000E+00  0.00000000000E+00  0.99999998245E-14  0.12500000000E+03  0.12500000000E+03 0.  0.
        -13    1    3    3    0    0  0.46535618423E+02 -0.22852854796E+02 -0.27631867085E+02  0.58748174414E+02  0.10566000000E+00 0. -1.
         23    2    1    0    0    0  0.16783075680E+02 -0.40078896069E+01 -0.25732164488E+02  0.94018084346E+02  0.88766666528E+02 0.  0.
         13    1    3    3    0    0 -0.29752542743E+02  0.18844965189E+02  0.18997025979E+01  0.35269909932E+02  0.10566000000E+00 0.  1.
         22    1    1    0    0    0 -0.16783075680E+02  0.40078896069E+01  0.25732164488E+02  0.30981915654E+02  0.00000000000E+00 0. -1.
</event>
<event>
 5    1  0.1758488E-003  0.9118800E+02  0.7818608E-02  0.1130116E+00
         25   -1    0    0    0    0  0.00000000000E+00  0.00000000000E+00  0.99999998245E-14  0.12500000000E+03  0.12500000000E+03 0.  0.
        -13    1    3    3    0    0 -0.33748198533E+02  0.86152966573E+01 -0.22096112521E+02  0.41248195031E+02  0.10566000000E+00 0. -1.
         23    2    1    0    0    0 -0.30156926760E+01  0.14782444138E+02  0.23796518745E+02  0.96823957670E+02  0.92633630056E+02 0.  0.
         13    1    3    3    0    0  0.30732505857E+02  0.61671474802E+01  0.45892631266E+02  0.55575762639E+02  0.10566000000E+00 0.  1.
         22    1    1    0    0    0  0.30156926760E+01 -0.14782444138E+02 -0.23796518745E+02  0.28176042330E+02  0.00000000000E+00 0.  1.
</event>
<event>
 5    1  0.1758488E-003  0.9118800E+02  0.7818608E-02  0.1130116E+00
         25   -1    0    0    0    0  0.00000000000E+00  0.00000000000E+00  0.99999998245E-14  0.12500000000E+03  0.12500000000E+03 0.  0.
        -13    1    3    3    0    0  0.27194196930E+02  0.46601992228E+02  0.18745278572E+02  0.57119757169E+02  0.10566000000E+00 0.  1.
         23    2    1    0    0    0  0.11602121730E+02  0.23937506791E+02 -0.96943047598E+01  0.96687582145E+02  0.92449421503E+02 0.  0.
         13    1    3    3    0    0 -0.15592075199E+02 -0.22664485437E+02 -0.28439583332E+02  0.39567824976E+02  0.10566000000E+00 0. -1.
         22    1    1    0    0    0 -0.11602121730E+02 -0.23937506791E+02  0.96943047598E+01  0.28312417855E+02  0.00000000000E+00 0.  1.
</event>
<event>
 5    1  0.1758488E-003  0.9118800E+02  0.7818608E-02  0.1130116E+00
         25   -1    0    0    0    0  0.00000000000E+00  0.00000000000E+00  0.99999998245E-14  0.12500000000E+03  0.12500000000E+03 0.  0.
        -13    1    3    3    0    0 -0.38270063668E+02 -0.37888255326E+01 -0.19540108366E+02  0.43136758930E+02  0.10566000000E+00 0. -1.
         23    2    1    0    0    0 -0.35422650955E+01 -0.25180870723E+02  0.14025188195E+02  0.95959858880E+02  0.91460181063E+02 0.  0.
         13    1    3    3    0    0  0.34727798572E+02 -0.21392045190E+02  0.33565296561E+02  0.52823099950E+02  0.10566000000E+00 0.  1.
         22    1    1    0    0    0  0.35422650955E+01  0.25180870723E+02 -0.14025188195E+02  0.29040141120E+02  0.00000000000E+00 0.  1.
</event>
<event>
 5    1  0.1758488E-003  0.9118800E+02  0.7818608E-02  0.1130116E+00
         25   -1    0    0    0    0  0.00000000000E+00  0.00000000000E+00  0.99999998245E-14  0.12500000000E+03  0.12500000000E+03 0.  0.
        -13    1    3    3    0    0  0.20403646457E+02 -0.26900925810E+02 -0.18643497810E+02  0.38568896443E+02  0.10566000000E+00 0. -1.
         23    2    1    0    0    0 -0.15978009056E+02 -0.10538051305E+02  0.22218027483E+02  0.95674447253E+02  0.91069269313E+02 0.  0.
         13    1    3    3    0    0 -0.36381655513E+02  0.16362874505E+02  0.40861525293E+02  0.57105550810E+02  0.10566000000E+00 0.  1.
         22    1    1    0    0    0  0.15978009056E+02  0.10538051305E+02 -0.22218027483E+02  0.29325552747E+02  0.00000000000E+00 0.  1.
</event>
<event>
 5    1  0.1758488E-003  0.9118800E+02  0.7818608E-02  0.1130116E+00
         25   -1    0    0    0    0  0.00000000000E+00  0.00000000000E+00  0.99999998245E-14  0.12500000000E+03  0.12500000000E+03 0.  0.
        -13    1    3    3    0    0 -0.28950867160E+02 -0.18800844099E+02 -0.20025571566E+02  0.39908133616E+02  0.10566000000E+00 0. -1.
         23    2    1    0    0    0  0.16046857815E+02  0.14869468785E+02 -0.18852068739E+02  0.96120885688E+02  0.91679994667E+02 0.  0.
         13    1    3    3    0    0  0.44997724975E+02  0.33670312884E+02  0.11735028275E+01  0.56212752072E+02  0.10566000000E+00 0.  1.
         22    1    1    0    0    0 -0.16046857815E+02 -0.14869468785E+02  0.18852068739E+02  0.28879114312E+02  0.00000000000E+00 0.  1.
</event>
<event>
 5    1  0.1758488E-003  0.9118800E+02  0.7818608E-02  0.1130116E+00
         25   -1    0    0    0    0  0.00000000000E+00  0.00000000000E+00  0.99999998245E-14  0.12500000000E+03  0.12500000000E+03 0.  0.
        -13    1    3    3    0    0  0.18002352976E+02  0.19729392624E+02 -0.49674472666E+02  0.56399450747E+02  0.10566000000E+00 0.  1.
         23    2    1    0    0    0  0.18279988739E+02 -0.77050030347E+01 -0.19474981167E+02  0.97200720306E+02  0.93140646747E+02 0.  0.
         13    1    3    3    0    0  0.27763576310E+00 -0.27434395658E+02  0.30199491499E+02  0.40801269559E+02  0.10566000000E+00 0. -1.
         22    1    1    0    0    0 -0.18279988739E+02  0.77050030347E+01  0.19474981167E+02  0.27799279694E+02  0.00000000000E+00 0.  1.
</event>
<event>
 5    1  0.1758488E-003  0.9118800E+02  0.7818608E-02  0.1130116E+00
         25   -1    0    0    0    0  0.00000000000E+00  0.00000000000E+00  0.99999998245E-14  0.12500000000E+03  0.12500000000E+03 0.  0.
        -13    1    3    3    0    0  0.32627939986E+02 -0.36733756722E+02  0.14936666604E+02  0.51352376030E+02  0.10566000000E+00 0.  1.
         23    2    1    0    0    0 -0.30688020561E+01 -0.28130348684E+02 -0.91425645647E+01  0.95262472363E+02  0.90502033628E+02 0.  0.
         13    1    3    3    0    0 -0.35696742042E+02  0.86034080383E+01 -0.24079231168E+02  0.43910096333E+02  0.10566000000E+00 0. -1.
         22    1    1    0    0    0  0.30688020561E+01  0.28130348684E+02  0.91425645647E+01  0.29737527637E+02  0.00000000000E+00 0.  1.
</event>
<event>
 5    1  0.1758488E-003  0.9118800E+02  0.7818608E-02  0.1130116E+00
         25   -1    0    0    0    0  0.00000000000E+00  0.00000000000E+00  0.99999998245E-14  0.12500000000E+03  0.12500000000E+03 0.  0.
        -13    1    3    3    0    0 -0.26169817982E+02  0.59041092661E+01  0.53190359067E+02  0.59573008495E+02  0.10566000000E+00 0.  1.
         23    2    1    0    0    0 -0.37565228283E+01 -0.29185451504E+01  0.34794938414E+02  0.89881385153E+02  0.82736607908E+02 0.  0.
         13    1    3    3    0    0  0.22413295153E+02 -0.88226544165E+01 -0.18395420653E+02  0.30308376658E+02  0.10566000000E+00 0. -1.
         22    1    1    0    0    0  0.37565228283E+01  0.29185451504E+01 -0.34794938414E+02  0.35118614847E+02  0.00000000000E+00 0.  1.
</event>
<event>
 5    1  0.1758488E-003  0.9118800E+02  0.7818608E-02  0.1130116E+00
         25   -1    0    0    0    0  0.00000000000E+00  0.00000000000E+00  0.99999998245E-14  0.12500000000E+03  0.12500000000E+03 0.  0.
        -13    1    3    3    0    0 -0.11133850643E+02  0.61923469238E+01  0.38238502723E+02  0.40305111898E+02  0.10566000000E+00 0. -1.
         23    2    1    0    0    0 -0.62151585675E+01  0.29674714575E+02 -0.90735423766E+01  0.93352787604E+02  0.87824808005E+02 0.  0.
         13    1    3    3    0    0  0.49186920754E+01  0.23482367652E+02 -0.47312045100E+02  0.53047675706E+02  0.10566000000E+00 0.  1.
         22    1    1    0    0    0  0.62151585675E+01 -0.29674714575E+02  0.90735423766E+01  0.31647212396E+02  0.00000000000E+00 0.  1.
</event>
<event>
 5    1  0.1758488E-003  0.9118800E+02  0.7818608E-02  0.1130116E+00
         25   -1    0    0    0    0  0.00000000000E+00  0.00000000000E+00  0.99999998245E-14  0.12500000000E+03  0.12500000000E+03 0.  0.
        -13    1    3    3    0    0 -0.27566261345E+02 -0.27708405815E+02 -0.94681164651E+01  0.40215804241E+02  0.10566000000E+00 0.  1.
         23    2    1    0    0    0  0.18935090049E+02 -0.17182054703E+02  0.16561248950E+02  0.94536323174E+02  0.89493467882E+02 0.  0.
         13    1    3    3    0    0  0.46501351394E+02  0.10526351113E+02  0.26029365415E+02  0.54320518933E+02  0.10566000000E+00 0. -1.
         22    1    1    0    0    0 -0.18935090049E+02  0.17182054703E+02 -0.16561248950E+02  0.30463676826E+02  0.00000000000E+00 0. -1.
</event>
<event>
 5    1  0.1758488E-003  0.9118800E+02  0.7818608E-02  0.1130116E+00
         25   -1    0    0    0    0  0.00000000000E+00  0.00000000000E+00  0.99999998245E-14  0.12500000000E+03  0.12500000000E+03 0.  0.
        -13    1    3    3    0    0  0.28957439389E+02 -0.27852364290E+02  0.51325766213E+01  0.40504839209E+02  0.10566000000E+00 0. -1.
         23    2    1    0    0    0  0.12022826682E+02  0.25264144915E+02  0.65136618160E+01  0.96272779982E+02  0.91886859754E+02 0.  0.
         13    1    3    3    0    0 -0.16934612708E+02  0.53116509205E+02  0.13810851947E+01  0.55767940773E+02  0.10566000000E+00 0.  1.
         22    1    1    0    0    0 -0.12022826682E+02 -0.25264144915E+02 -0.65136618160E+01  0.28727220018E+02  0.00000000000E+00 0. -1.
</event>
<event>
 5    1  0.1758488E-003  0.9118800E+02  0.7818608E-02  0.1130116E+00
         25   -1    0    0    0    0  0.00000000000E+00  0.00000000000E+00  0.99999998245E-14  0.12500000000E+03  0.12500000000E+03 0.  0.
        -13    1    3    3    0    0  0.13264306156E+02 -0.21780292377E+00  0.55592785268E+02  0.57153811717E+02  0.10566000000E+00 0. -1.
         23    2    1    0    0    0  0.14532098904E+02  0.13979889726E+02  0.15924631821E+02  0.99305387453E+02  0.95923651220E+02 0.  0.
         13    1    3    3    0    0  0.12677927484E+01  0.14197692650E+02 -0.39668153448E+02  0.42151575736E+02  0.10566000000E+00 0.  1.
         22    1    1    0    0    0 -0.14532098904E+02 -0.13979889726E+02 -0.15924631821E+02  0.25694612547E+02  0.00000000000E+00 0. -1.
</event>
<event>
 5    1  0.1758488E-003  0.9118800E+02  0.7818608E-02  0.1130116E+00
         25   -1    0    0    0    0  0.00000000000E+00  0.00000000000E+00  0.99999998245E-14  0.12500000000E+03  0.12500000000E+03 0.  0.
        -13    1    3    3    0    0  0.75129491640E+01 -0.38613411193E+02  0.97090177604E+01  0.40518096192E+02  0.10566000000E+00 0.  1.
         23    2    1    0    0    0 -0.18339425733E+02 -0.40841416052E+01 -0.23468765625E+02  0.94936771484E+02  0.90051057023E+02 0.  0.
         13    1    3    3    0    0 -0.25852374897E+02  0.34529269588E+02 -0.33177783385E+02  0.54418675292E+02  0.10566000000E+00 0. -1.
         22    1    1    0    0    0  0.18339425733E+02  0.40841416052E+01  0.23468765625E+02  0.30063228516E+02  0.00000000000E+00 0. -1.
</event>
<event>
 5    1  0.1758488E-003  0.9118800E+02  0.7818608E-02  0.1130116E+00
         25   -1    0    0    0    0  0.00000000000E+00  0.00000000000E+00  0.99999998245E-14  0.12500000000E+03  0.12500000000E+03 0.  0.
        -13    1    3    3    0    0  0.30969284300E+01  0.30101250768E+02 -0.16926310215E+02  0.34672574249E+02  0.10566000000E+00 0. -1.
         23    2    1    0    0    0 -0.12002522404E+02 -0.13494099412E+02  0.23049099531E+02  0.95718397376E+02  0.91129574475E+02 0.  0.
         13    1    3    3    0    0 -0.15099450834E+02 -0.43595350181E+02  0.39975409746E+02  0.61045823127E+02  0.10566000000E+00 0.  1.
         22    1    1    0    0    0  0.12002522404E+02  0.13494099412E+02 -0.23049099531E+02  0.29281602624E+02  0.00000000000E+00 0.  1.
</event>
<event>
 5    1  0.1758488E-003  0.9118800E+02  0.7818608E-02  0.1130116E+00
         25   -1    0    0    0    0  0.00000000000E+00  0.00000000000E+00  0.99999998245E-14  0.12500000000E+03  0.12500000000E+03 0.  0.
        -13    1    3    3    0    0 -0.66553272395E+01  0.22105594796E+02  0.43740721723E+02  0.49459201397E+02  0.10566000000E+00 0.  1.
         23    2    1    0    0    0 -0.28601173272E+02  0.11087285983E+01  0.10434627222E+02  0.94534645301E+02  0.89491124283E+02 0.  0.
         13    1    3    3    0    0 -0.21945846033E+02 -0.20996866198E+02 -0.33306094501E+02  0.45075443904E+02  0.10566000000E+00 0. -1.
         22    1    1    0    0    0  0.28601173272E+02 -0.11087285983E+01 -0.10434627222E+02  0.30465354699E+02  0.00000000000E+00 0. -1.
</event>
<event>
 5    1  0.1758488E-003  0.9118800E+02  0.7818608E-02  0.1130116E+00
         25   -1    0    0    0    0  0.00000000000E+00  0.00000000000E+00  0.99999998245E-14  0.12500000000E+03  0.12500000000E+03 0.  0.
        -13    1    3    3    0    0  0.49630756487E+02  0.31438204361E+02  0.21086365337E+02  0.62419697613E+02  0.10566000000E+00 0. -1.
         23    2    1    0    0    0  0.22422304755E+02  0.16846193640E+02  0.10186079168E+02  0.95161933718E+02  0.90363064520E+02 0.  0.
         13    1    3    3    0    0 -0.27208451732E+02 -0.14592010721E+02 -0.10900286169E+02  0.32742236105E+02  0.10566000000E+00 0.  1.
         22    1    1    0    0    0 -0.22422304755E+02 -0.16846193640E+02 -0.10186079168E+02  0.29838066282E+02  0.00000000000E+00 0. -1.
</event>
<event>
 5    1  0.1758488E-003  0.9118800E+02  0.7818608E-02  0.1130116E+00
         25   -1    0    0    0    0  0.00000000000E+00  0.00000000000E+00  0.99999998245E-14  0.12500000000E+03  0.12500000000E+03 0.  0.
        -13    1    3    3    0    0 -0.13997450676E+02 -0.16090107008E+02  0.46948938063E+02  0.51565823160E+02  0.10566000000E+00 0. -1.
         23    2    1    0    0    0  0.15484461498E+02 -0.14733398600E+02  0.36171726387E+02  0.82985295764E+02  0.71563426001E+02 0.  0.
         13    1    3    3    0    0  0.29481912174E+02  0.13567084077E+01 -0.10777211675E+02  0.31419472604E+02  0.10566000000E+00 0.  1.
         22    1    1    0    0    0 -0.15484461498E+02  0.14733398600E+02 -0.36171726387E+02  0.42014704236E+02  0.00000000000E+00 0. -1.
</event>
<event>
 5    1  0.1758488E-003  0.9118800E+02  0.7818608E-02  0.1130116E+00
         25   -1    0    0    0    0  0.00000000000E+00  0.00000000000E+00  0.99999998245E-14  0.12500000000E+03  0.12500000000E+03 0.  0.
        -13    1    3    3    0    0  0.44526917835E+01 -0.23162470729E+02 -0.25013880305E+02  0.34380690603E+02  0.10566000000E+00 0. -1.
         23    2    1    0    0    0  0.16778574541E+02  0.23012219283E+02  0.11255901074E+02  0.94376837052E+02  0.89270427707E+02 0.  0.
         13    1    3    3    0    0  0.12325882757E+02  0.46174690012E+02  0.36269781379E+02  0.59996146449E+02  0.10566000000E+00 0.  1.
         22    1    1    0    0    0 -0.16778574541E+02 -0.23012219283E+02 -0.11255901074E+02  0.30623162948E+02  0.00000000000E+00 0.  1.
</event>
<event>
 5    1  0.1758488E-003  0.9118800E+02  0.7818608E-02  0.1130116E+00
         25   -1    0    0    0    0  0.00000000000E+00  0.00000000000E+00  0.99999998245E-14  0.12500000000E+03  0.12500000000E+03 0.  0.
        -13    1    3    3    0    0 -0.46489177777E+02  0.54077110720E+01  0.28936392072E+02  0.55025566236E+02  0.10566000000E+00 0. -1.
         23    2    1    0    0    0  0.20930770779E+00  0.76105437924E+01  0.21280205483E+02  0.10239886437E+03  0.99873500448E+02 0.  0.
         13    1    3    3    0    0  0.46698485485E+02  0.22028327204E+01 -0.76561865897E+01  0.47373298130E+02  0.10566000000E+00 0.  1.
         22    1    1    0    0    0 -0.20930770779E+00 -0.76105437924E+01 -0.21280205483E+02  0.22601135633E+02  0.00000000000E+00 0. -1.
</event>
<event>
 5    1  0.1758488E-003  0.9118800E+02  0.7818608E-02  0.1130116E+00
         25   -1    0    0    0    0  0.00000000000E+00  0.00000000000E+00  0.99999998245E-14  0.12500000000E+03  0.12500000000E+03 0.  0.
        -13    1    3    3    0    0 -0.21177421335E+02  0.12253502749E+02 -0.50948074386E+02  0.56518571741E+02  0.10566000000E+00 0.  1.
         23    2    1    0    0    0  0.77658447847E+01 -0.62856897299E+00 -0.28777454088E+02  0.95186491184E+02  0.90397028690E+02 0.  0.
         13    1    3    3    0    0  0.28943266120E+02 -0.12882071722E+02  0.22170620298E+02  0.38667919442E+02  0.10566000000E+00 0. -1.
         22    1    1    0    0    0 -0.77658447847E+01  0.62856897299E+00  0.28777454088E+02  0.29813508816E+02  0.00000000000E+00 0.  1.
</event>
<event>
 5    1  0.1758488E-003  0.9118800E+02  0.7818608E-02  0.1130116E+00
         25   -1    0    0    0    0  0.00000000000E+00  0.00000000000E+00  0.99999998245E-14  0.12500000000E+03  0.12500000000E+03 0.  0.
        -13    1    3    3    0    0  0.37987507057E+02  0.27737501280E+02  0.23517629464E+02  0.52588113955E+02  0.10566000000E+00 0.  1.
         23    2    1    0    0    0  0.41093909612E+01  0.26731966733E+02 -0.57272046151E+01  0.97354276783E+02  0.93346500715E+02 0.  0.
         13    1    3    3    0    0 -0.33878116096E+02 -0.10055345467E+01 -0.29244834080E+02  0.44766162828E+02  0.10566000000E+00 0. -1.
         22    1    1    0    0    0 -0.41093909612E+01 -0.26731966733E+02  0.57272046151E+01  0.27645723217E+02  0.00000000000E+00 0.  1.
</event>
