<event>
 5    1  0.3183383E-003  0.9118800E+02  0.7818608E-02  0.1130116E+00
         25   -1    0    0    0    0  0.00000000000E+00  0.00000000000E+00  0.99999998245E-14  0.12500000000E+03  0.12500000000E+03 0.  0.
        -11    1    3    3    0    0  0.26450648039E+02 -0.20062088007E+02  0.13531205995E+02  0.35849932954E+02  0.51100000000E-03 0.  1.
         23    2    1    0    0    0 -0.17893791489E+02  0.93901880601E+01 -0.18183700085E+02  0.97815255115E+02  0.93961767644E+02 0.  0.
         11    1    3    3    0    0 -0.44344439528E+02  0.29452276067E+02 -0.31714906081E+02  0.61965322161E+02  0.51100000000E-03 0. -1.
         22    1    1    0    0    0  0.17893791489E+02 -0.93901880601E+01  0.18183700085E+02  0.27184744885E+02  0.00000000000E+00 0. -1.
</event>
<event>
 5    1  0.3183383E-003  0.9118800E+02  0.7818608E-02  0.1130116E+00
         25   -1    0    0    0    0  0.00000000000E+00  0.00000000000E+00  0.99999998245E-14  0.12500000000E+03  0.12500000000E+03 0.  0.
        -11    1    3    3    0    0  0.67490986550E+01  0.46444874482E+02 -0.13015859421E+02  0.48704099366E+02  0.51100000000E-03 0.  1.
         23    2    1    0    0    0 -0.18365510321E+02  0.26416230714E+02  0.13256695645E+02  0.90202741575E+02  0.83220702916E+02 0.  0.
         11    1    3    3    0    0 -0.25114608976E+02 -0.20028643769E+02  0.26272555066E+02  0.41498642209E+02  0.51100000000E-03 0. -1.
         22    1    1    0    0    0  0.18365510321E+02 -0.26416230714E+02 -0.13256695645E+02  0.34797258425E+02  0.00000000000E+00 0.  1.
</event>
<event>
 5    1  0.3183383E-003  0.9118800E+02  0.7818608E-02  0.1130116E+00
         25   -1    0    0    0    0  0.00000000000E+00  0.00000000000E+00  0.99999998245E-14  0.12500000000E+03  0.12500000000E+03 0.  0.
        -11    1    3    3    0    0  0.34641800565E+02  0.23631390794E+02  0.12589235942E+02  0.43783396843E+02  0.51100000000E-03 0.  1.
         23    2    1    0    0    0  0.19696908751E+02 -0.20965988497E+02 -0.80209943332E+01  0.95135686211E+02  0.90326748822E+02 0.  0.
         11    1    3    3    0    0 -0.14944891814E+02 -0.44597379292E+02 -0.20610230275E+02  0.51352289367E+02  0.51100000000E-03 0. -1.
         22    1    1    0    0    0 -0.19696908751E+02  0.20965988497E+02  0.80209943332E+01  0.29864313789E+02  0.00000000000E+00 0. -1.
</event>
<event>
 5    1  0.3183383E-003  0.9118800E+02  0.7818608E-02  0.1130116E+00
         25   -1    0    0    0    0  0.00000000000E+00  0.00000000000E+00  0.99999998245E-14  0.12500000000E+03  0.12500000000E+03 0.  0.
        -11    1    3    3    0    0 -0.12883497484E+00 -0.42243420261E+01 -0.45887144793E+02  0.46081359806E+02  0.51100000000E-03 0. -1.
         23    2    1    0    0    0  0.20991083767E+02 -0.20517044044E+02 -0.45218970790E+01  0.95301140641E+02  0.90555425902E+02 0.  0.
         11    1    3    3    0    0  0.21119918742E+02 -0.16292702018E+02  0.41365247714E+02  0.49219780835E+02  0.51100000000E-03 0.  1.
         22    1    1    0    0    0 -0.20991083767E+02  0.20517044044E+02  0.45218970790E+01  0.29698859359E+02  0.00000000000E+00 0.  1.
</event>
<event>
 5    1  0.3183383E-003  0.9118800E+02  0.7818608E-02  0.1130116E+00
         25   -1    0    0    0    0  0.00000000000E+00  0.00000000000E+00  0.99999998245E-14  0.12500000000E+03  0.12500000000E+03 0.  0.
        -11    1    3    3    0    0  0.35777811690E+02 -0.43670084497E+02 -0.16959664534E+01  0.56480123865E+02  0.51100000000E-03 0.  1.
         23    2    1    0    0    0  0.14466729879E+02 -0.37083110863E+02  0.12923040912E+02  0.83149690908E+02  0.71850001580E+02 0.  0.
         11    1    3    3    0    0 -0.21311081812E+02  0.65869736341E+01  0.14619007366E+02  0.26669567043E+02  0.51100000000E-03 0. -1.
         22    1    1    0    0    0 -0.14466729879E+02  0.37083110863E+02 -0.12923040912E+02  0.41850309092E+02  0.00000000000E+00 0.  1.
</event>
<event>
 5    1  0.3183383E-003  0.9118800E+02  0.7818608E-02  0.1130116E+00
         25   -1    0    0    0    0  0.00000000000E+00  0.00000000000E+00  0.99999998245E-14  0.12500000000E+03  0.12500000000E+03 0.  0.
        -11    1    3    3    0    0  0.42786850335E+02  0.10881422118E+02  0.25395836771E+02  0.50931998139E+02  0.51100000000E-03 0.  1.
         23    2    1    0    0    0  0.68604060925E+01 -0.15842474539E+02  0.23620356724E+02  0.95743027787E+02  0.91163353091E+02 0.  0.
         11    1    3    3    0    0 -0.35926444243E+02 -0.26723896657E+02 -0.17754800464E+01  0.44811029648E+02  0.51100000000E-03 0. -1.
         22    1    1    0    0    0 -0.68604060925E+01  0.15842474539E+02 -0.23620356724E+02  0.29256972213E+02  0.00000000000E+00 0. -1.
</event>
<event>
 5    1  0.3183383E-003  0.9118800E+02  0.7818608E-02  0.1130116E+00
         25   -1    0    0    0    0  0.00000000000E+00  0.00000000000E+00  0.99999998245E-14  0.12500000000E+03  0.12500000000E+03 0.  0.
        -11    1    3    3    0    0 -0.10700299745E+01 -0.31655946672E+02  0.30485188002E+02  0.43961239878E+02  0.51100000000E-03 0. -1.
         23    2    1    0    0    0 -0.24635610059E+02  0.64265017404E+01  0.25405805830E+02  0.89032401005E+02  0.81443847227E+02 0.  0.
         11    1    3    3    0    0 -0.23565580085E+02  0.38082448412E+02 -0.50793821720E+01  0.45071161127E+02  0.51100000000E-03 0.  1.
         22    1    1    0    0    0  0.24635610059E+02 -0.64265017404E+01 -0.25405805830E+02  0.35967598995E+02  0.00000000000E+00 0.  1.
</event>
<event>
 5    1  0.3183383E-003  0.9118800E+02  0.7818608E-02  0.1130116E+00
         25   -1    0    0    0    0  0.00000000000E+00  0.00000000000E+00  0.99999998245E-14  0.12500000000E+03  0.12500000000E+03 0.  0.
        -11    1    3    3    0    0  0.18783467587E+02 -0.50723632711E+02  0.31057646858E+02  0.62372133190E+02  0.51100000000E-03 0.  1.
         23    2    1    0    0    0  0.10533796286E+02 -0.23815960133E+02  0.12256016188E+02  0.96218569283E+02  0.91813083604E+02 0.  0.
         11    1    3    3    0    0 -0.82496713005E+01  0.26907672578E+02 -0.18801630670E+02  0.33846436094E+02  0.51100000000E-03 0. -1.
         22    1    1    0    0    0 -0.10533796286E+02  0.23815960133E+02 -0.12256016188E+02  0.28781430717E+02  0.00000000000E+00 0.  1.
</event>
<event>
 5    1  0.3183383E-003  0.9118800E+02  0.7818608E-02  0.1130116E+00
         25   -1    0    0    0    0  0.00000000000E+00  0.00000000000E+00  0.99999998245E-14  0.12500000000E+03  0.12500000000E+03 0.  0.
        -11    1    3    3    0    0  0.90768536675E+01 -0.40703988981E+02 -0.57451780476E+01  0.42097637256E+02  0.51100000000E-03 0. -1.
         23    2    1    0    0    0  0.15414150586E+02  0.93992502958E+01 -0.23264139019E+02  0.95552383650E+02  0.90901572662E+02 0.  0.
         11    1    3    3    0    0  0.63372969183E+01  0.50103239277E+02 -0.17518960972E+02  0.53454746394E+02  0.51100000000E-03 0.  1.
         22    1    1    0    0    0 -0.15414150586E+02 -0.93992502958E+01  0.23264139019E+02  0.29447616350E+02  0.00000000000E+00 0. -1.
</event>
<event>
 5    1  0.3183383E-003  0.9118800E+02  0.7818608E-02  0.1130116E+00
         25   -1    0    0    0    0  0.00000000000E+00  0.00000000000E+00  0.99999998245E-14  0.12500000000E+03  0.12500000000E+03 0.  0.
        -11    1    3    3    0    0  0.79794223622E+01 -0.32457291264E+02  0.36724280914E+02  0.49657021118E+02  0.51100000000E-03 0. -1.
         23    2    1    0    0    0 -0.24585286727E+02 -0.14182327122E+02  0.17482818836E+02  0.91664978169E+02  0.85388784639E+02 0.  0.
         11    1    3    3    0    0 -0.32564709089E+02  0.18274964141E+02 -0.19241462078E+02  0.42007957050E+02  0.51100000000E-03 0.  1.
         22    1    1    0    0    0  0.24585286727E+02  0.14182327122E+02 -0.17482818836E+02  0.33335021831E+02  0.00000000000E+00 0. -1.
</event>
<event>
 5    1  0.3183383E-003  0.9118800E+02  0.7818608E-02  0.1130116E+00
         25   -1    0    0    0    0  0.00000000000E+00  0.00000000000E+00  0.99999998245E-14  0.12500000000E+03  0.12500000000E+03 0.  0.
        -11    1    3    3    0    0 -0.41410163895E+00 -0.16869517119E+02  0.40729470400E+02  0.44086753649E+02  0.51100000000E-03 0. -1.
         23    2    1    0    0    0 -0.29195013440E+02  0.46275054331E+00  0.14629307377E+01  0.95764694047E+02  0.91193056269E+02 0.  0.
         11    1    3    3    0    0 -0.28780911801E+02  0.17332267662E+02 -0.39266539663E+02  0.51677940398E+02  0.51100000000E-03 0.  1.
         22    1    1    0    0    0  0.29195013440E+02 -0.46275054331E+00 -0.14629307377E+01  0.29235305953E+02  0.00000000000E+00 0.  1.
</event>
<event>
 5    1  0.3183383E-003  0.9118800E+02  0.7818608E-02  0.1130116E+00
         25   -1    0    0    0    0  0.00000000000E+00  0.00000000000E+00  0.99999998245E-14  0.12500000000E+03  0.12500000000E+03 0.  0.
        -11    1    3    3    0    0 -0.33637179254E+02 -0.43401433279E+02  0.15446491167E+02  0.57041549142E+02  0.51100000000E-03 0. -1.
         23    2    1    0    0    0 -0.28814719401E+02 -0.75563229318E+01  0.97532772005E+01  0.93654944783E+02  0.88253816890E+02 0.  0.
         11    1    3    3    0    0  0.48224598531E+01  0.35845110347E+02 -0.56932139661E+01  0.36613395641E+02  0.51100000000E-03 0.  1.
         22    1    1    0    0    0  0.28814719401E+02  0.75563229318E+01 -0.97532772005E+01  0.31345055217E+02  0.00000000000E+00 0. -1.
</event>
<event>
 5    1  0.3183383E-003  0.9118800E+02  0.7818608E-02  0.1130116E+00
         25   -1    0    0    0    0  0.00000000000E+00  0.00000000000E+00  0.99999998245E-14  0.12500000000E+03  0.12500000000E+03 0.  0.
        -11    1    3    3    0    0  0.42582873701E+01  0.25970571194E+02 -0.40247039090E+02  0.48087708775E+02  0.51100000000E-03 0. -1.
         23    2    1    0    0    0  0.16012551503E+02 -0.13863634727E+02 -0.24768247766E+02  0.92410611069E+02  0.86473422318E+02 0.  0.
         11    1    3    3    0    0  0.11754264133E+02 -0.39834205921E+02  0.15478791324E+02  0.44322902294E+02  0.51100000000E-03 0.  1.
         22    1    1    0    0    0 -0.16012551503E+02  0.13863634727E+02  0.24768247766E+02  0.32589388931E+02  0.00000000000E+00 0.  1.
</event>
<event>
 5    1  0.3183383E-003  0.9118800E+02  0.7818608E-02  0.1130116E+00
         25   -1    0    0    0    0  0.00000000000E+00  0.00000000000E+00  0.99999998245E-14  0.12500000000E+03  0.12500000000E+03 0.  0.
        -11    1    3    3    0    0 -0.16503165221E+02  0.26154854778E+02  0.16691906223E+02  0.35143287046E+02  0.51100000000E-03 0.  1.
         23    2    1    0    0    0  0.30229870875E+02 -0.59728975520E+01  0.26938245953E+00  0.94184530423E+02  0.89000744974E+02 0.  0.
         11    1    3    3    0    0  0.46733036096E+02 -0.32127752330E+02 -0.16422523763E+02  0.59041243378E+02  0.51100000000E-03 0. -1.
         22    1    1    0    0    0 -0.30229870875E+02  0.59728975520E+01 -0.26938245953E+00  0.30815469577E+02  0.00000000000E+00 0. -1.
</event>
<event>
 5    1  0.3183383E-003  0.9118800E+02  0.7818608E-02  0.1130116E+00
         25   -1    0    0    0    0  0.00000000000E+00  0.00000000000E+00  0.99999998245E-14  0.12500000000E+03  0.12500000000E+03 0.  0.
        -11    1    3    3    0    0 -0.47383112032E+02 -0.25509102284E+02  0.49078089853E+01  0.54036656026E+02  0.51100000000E-03 0.  1.
         23    2    1    0    0    0 -0.20243342270E+02 -0.27650883691E+02 -0.14826645397E+02  0.87661096844E+02  0.79311248957E+02 0.  0.
         11    1    3    3    0    0  0.27139769762E+02 -0.21417814068E+01 -0.19734454382E+02  0.33624440819E+02  0.51100000000E-03 0. -1.
         22    1    1    0    0    0  0.20243342270E+02  0.27650883691E+02  0.14826645397E+02  0.37338903156E+02  0.00000000000E+00 0.  1.
</event>
<event>
 5    1  0.3183383E-003  0.9118800E+02  0.7818608E-02  0.1130116E+00
         25   -1    0    0    0    0  0.00000000000E+00  0.00000000000E+00  0.99999998245E-14  0.12500000000E+03  0.12500000000E+03 0.  0.
        -11    1    3    3    0    0 -0.37217209872E+02  0.41772141113E+02 -0.61480941942E+01  0.56283492663E+02  0.51100000000E-03 0.  1.
         23    2    1    0    0    0 -0.26186323211E+02  0.21395424287E+01 -0.82081284395E+01  0.97474111502E+02  0.93506833310E+02 0.  0.
         11    1    3    3    0    0  0.11030886662E+02 -0.39632598684E+02 -0.20600342453E+01  0.41190618839E+02  0.51100000000E-03 0. -1.
         22    1    1    0    0    0  0.26186323211E+02 -0.21395424287E+01  0.82081284395E+01  0.27525888498E+02  0.00000000000E+00 0.  1.
</event>
<event>
 5    1  0.3183383E-003  0.9118800E+02  0.7818608E-02  0.1130116E+00
         25   -1    0    0    0    0  0.00000000000E+00  0.00000000000E+00  0.99999998245E-14  0.12500000000E+03  0.12500000000E+03 0.  0.
        -11    1    3    3    0    0 -0.88596224945E+01 -0.23713328560E+02  0.21352047274E+02  0.33116835374E+02  0.51100000000E-03 0.  1.
         23    2    1    0    0    0  0.21730810820E+02  0.12627279547E+02 -0.17409137862E+02  0.94426246407E+02  0.89339585861E+02 0.  0.
         11    1    3    3    0    0  0.30590433315E+02  0.36340608107E+02 -0.38761185136E+02  0.61309411034E+02  0.51100000000E-03 0. -1.
         22    1    1    0    0    0 -0.21730810820E+02 -0.12627279547E+02  0.17409137862E+02  0.30573753593E+02  0.00000000000E+00 0. -1.
</event>
<event>
 5    1  0.3183383E-003  0.9118800E+02  0.7818608E-02  0.1130116E+00
         25   -1    0    0    0    0  0.00000000000E+00  0.00000000000E+00  0.99999998245E-14  0.12500000000E+03  0.12500000000E+03 0.  0.
        -11    1    3    3    0    0  0.41489326717E+00 -0.33464612670E+02 -0.34386358934E+02  0.47984102769E+02  0.51100000000E-03 0.  1.
         23    2    1    0    0    0 -0.19366695764E+02  0.88026354501E+01 -0.16940178043E+02  0.97805792385E+02  0.93949178262E+02 0.  0.
         11    1    3    3    0    0 -0.19781589031E+02  0.42267248120E+02  0.17446180891E+02  0.49821689615E+02  0.51100000000E-03 0. -1.
         22    1    1    0    0    0  0.19366695764E+02 -0.88026354501E+01  0.16940178043E+02  0.27194207615E+02  0.00000000000E+00 0. -1.
</event>
<event>
 5    1  0.3183383E-003  0.9118800E+02  0.7818608E-02  0.1130116E+00
         25   -1    0    0    0    0  0.00000000000E+00  0.00000000000E+00  0.99999998245E-14  0.12500000000E+03  0.12500000000E+03 0.  0.
        -11    1    3    3    0    0  0.76567207226E+01 -0.26062789916E+02  0.27002923209E+02  0.38302118121E+02  0.51100000000E-03 0.  1.
         23    2    1    0    0    0 -0.11933254597E+02 -0.12557367480E+02 -0.24475928799E+02  0.95013984361E+02  0.90158172621E+02 0.  0.
         11    1    3    3    0    0 -0.19589975319E+02  0.13505422436E+02 -0.51478852008E+02  0.56711866241E+02  0.51100000000E-03 0. -1.
         22    1    1    0    0    0  0.11933254597E+02  0.12557367480E+02  0.24475928799E+02  0.29986015639E+02  0.00000000000E+00 0. -1.
</event>
<event>
 5    1  0.3183383E-003  0.9118800E+02  0.7818608E-02  0.1130116E+00
         25   -1    0    0    0    0  0.00000000000E+00  0.00000000000E+00  0.99999998245E-14  0.12500000000E+03  0.12500000000E+03 0.  0.
        -11    1    3    3    0    0 -0.19035976558E+02  0.30661120678E+02 -0.77609704851E+01  0.36914839670E+02  0.51100000000E-03 0.  1.
         23    2    1    0    0    0 -0.96977881118E+01 -0.26741489568E+02 -0.92412446137E+01  0.95090888335E+02  0.90264733333E+02 0.  0.
         11    1    3    3    0    0  0.93381884458E+01 -0.57402610246E+02 -0.14802741286E+01  0.58176048665E+02  0.51100000000E-03 0. -1.
         22    1    1    0    0    0  0.96977881118E+01  0.26741489568E+02  0.92412446137E+01  0.29909111665E+02  0.00000000000E+00 0. -1.
</event>
<event>
 5    1  0.3183383E-003  0.9118800E+02  0.7818608E-02  0.1130116E+00
         25   -1    0    0    0    0  0.00000000000E+00  0.00000000000E+00  0.99999998245E-14  0.12500000000E+03  0.12500000000E+03 0.  0.
        -11    1    3    3    0    0 -0.19011700826E+02  0.35094866500E+01  0.33971220214E+02  0.39087147094E+02  0.51100000000E-03 0.  1.
         23    2    1    0    0    0 -0.10980912543E+02  0.20352175082E+02 -0.18886810111E+02  0.95141951386E+02  0.90335418561E+02 0.  0.
         11    1    3    3    0    0  0.80307882834E+01  0.16842688432E+02 -0.52858030325E+02  0.56054804292E+02  0.51100000000E-03 0. -1.
         22    1    1    0    0    0  0.10980912543E+02 -0.20352175082E+02  0.18886810111E+02  0.29858048614E+02  0.00000000000E+00 0. -1.
</event>
<event>
 5    1  0.3183383E-003  0.9118800E+02  0.7818608E-02  0.1130116E+00
         25   -1    0    0    0    0  0.00000000000E+00  0.00000000000E+00  0.99999998245E-14  0.12500000000E+03  0.12500000000E+03 0.  0.
        -11    1    3    3    0    0  0.51724355043E+01 -0.31860863251E+02 -0.21647212063E+02  0.38864771793E+02  0.51100000000E-03 0.  1.
         23    2    1    0    0    0 -0.24125374813E+02 -0.27930077428E+01  0.16959301163E+02  0.95378175308E+02  0.90661699891E+02 0.  0.
         11    1    3    3    0    0 -0.29297810317E+02  0.29067855508E+02  0.38606513226E+02  0.56513403516E+02  0.51100000000E-03 0. -1.
         22    1    1    0    0    0  0.24125374813E+02  0.27930077428E+01 -0.16959301163E+02  0.29621824692E+02  0.00000000000E+00 0. -1.
</event>
<event>
 5    1  0.3183383E-003  0.9118800E+02  0.7818608E-02  0.1130116E+00
         25   -1    0    0    0    0  0.00000000000E+00  0.00000000000E+00  0.99999998245E-14  0.12500000000E+03  0.12500000000E+03 0.  0.
        -11    1    3    3    0    0 -0.33628929143E+02 -0.38115739613E+02  0.14697424601E+02  0.52912463293E+02  0.51100000000E-03 0.  1.
         23    2    1    0    0    0 -0.26034933906E+02 -0.89604336872E+01 -0.13639707296E+02  0.94272996070E+02  0.89124906831E+02 0.  0.
         11    1    3    3    0    0  0.75939952369E+01  0.29155305925E+02 -0.28337131897E+02  0.41360532778E+02  0.51100000000E-03 0. -1.
         22    1    1    0    0    0  0.26034933906E+02  0.89604336872E+01  0.13639707296E+02  0.30727003930E+02  0.00000000000E+00 0.  1.
</event>
<event>
 5    1  0.3183383E-003  0.9118800E+02  0.7818608E-02  0.1130116E+00
         25   -1    0    0    0    0  0.00000000000E+00  0.00000000000E+00  0.99999998245E-14  0.12500000000E+03  0.12500000000E+03 0.  0.
        -11    1    3    3    0    0 -0.29340389805E+02 -0.36083369532E+02  0.21809100294E+02  0.51366378951E+02  0.51100000000E-03 0. -1.
         23    2    1    0    0    0 -0.14292543184E+02 -0.18126451679E+02 -0.16746302042E+02  0.96481871148E+02  0.92170861920E+02 0.  0.
         11    1    3    3    0    0  0.15047846620E+02  0.17956917853E+02 -0.38555402335E+02  0.45115492197E+02  0.51100000000E-03 0.  1.
         22    1    1    0    0    0  0.14292543184E+02  0.18126451679E+02  0.16746302042E+02  0.28518128852E+02  0.00000000000E+00 0.  1.
</event>
<event>
 5    1  0.3183383E-003  0.9118800E+02  0.7818608E-02  0.1130116E+00
         25   -1    0    0    0    0  0.00000000000E+00  0.00000000000E+00  0.99999998245E-14  0.12500000000E+03  0.12500000000E+03 0.  0.
        -11    1    3    3    0    0  0.37960427518E+02 -0.64609317995E+01  0.27154409104E+02  0.47117933222E+02  0.51100000000E-03 0.  1.
         23    2    1    0    0    0  0.18786658980E+02  0.15621032971E+02 -0.13413138292E+02  0.97127656978E+02  0.93042539972E+02 0.  0.
         11    1    3    3    0    0 -0.19173768539E+02  0.22081964771E+02 -0.40567547396E+02  0.50009723756E+02  0.51100000000E-03 0. -1.
         22    1    1    0    0    0 -0.18786658980E+02 -0.15621032971E+02  0.13413138292E+02  0.27872343022E+02  0.00000000000E+00 0. -1.
</event>
<event>
 5    1  0.3183383E-003  0.9118800E+02  0.7818608E-02  0.1130116E+00
         25   -1    0    0    0    0  0.00000000000E+00  0.00000000000E+00  0.99999998245E-14  0.12500000000E+03  0.12500000000E+03 0.  0.
        -11    1    3    3    0    0 -0.18350613837E+02  0.78278388732E+01  0.12632205225E+02  0.23613400829E+02  0.51100000000E-03 0.  1.
         23    2    1    0    0    0  0.34598876619E+02 -0.20660846043E+02  0.21742204648E+01  0.84643091581E+02  0.74402774783E+02 0.  0.
         11    1    3    3    0    0  0.52949490456E+02 -0.28488684916E+02 -0.10457984760E+02  0.61029690752E+02  0.51100000000E-03 0. -1.
         22    1    1    0    0    0 -0.34598876619E+02  0.20660846043E+02 -0.21742204648E+01  0.40356908419E+02  0.00000000000E+00 0. -1.
</event>
<event>
 5    1  0.3183383E-003  0.9118800E+02  0.7818608E-02  0.1130116E+00
         25   -1    0    0    0    0  0.00000000000E+00  0.00000000000E+00  0.99999998245E-14  0.12500000000E+03  0.12500000000E+03 0.  0.
        -11    1    3    3    0    0 -0.29409493122E+02 -0.34127904126E+02  0.15606179034E+02  0.47677929381E+02  0.51100000000E-03 0.  1.
         23    2    1    0    0    0 -0.24559334585E+02  0.13353715954E+02  0.70824748878E+01  0.96161759839E+02  0.91735707115E+02 0.  0.
         11    1    3    3    0    0  0.48501585373E+01  0.47481620081E+02 -0.85237041463E+01  0.48483830459E+02  0.51100000000E-03 0. -1.
         22    1    1    0    0    0  0.24559334585E+02 -0.13353715954E+02 -0.70824748878E+01  0.28838240161E+02  0.00000000000E+00 0. -1.
</event>
<event>
 5    1  0.3183383E-003  0.9118800E+02  0.7818608E-02  0.1130116E+00
         25   -1    0    0    0    0  0.00000000000E+00  0.00000000000E+00  0.99999998245E-14  0.12500000000E+03  0.12500000000E+03 0.  0.
        -11    1    3    3    0    0 -0.34170945518E+02 -0.24621284182E+01  0.46820385568E+02  0.58016067592E+02  0.51100000000E-03 0. -1.
         23    2    1    0    0    0 -0.20391164989E+02  0.14467660923E+02  0.17896437207E+02  0.94252719033E+02  0.89096463219E+02 0.  0.
         11    1    3    3    0    0  0.13779780529E+02  0.16929789341E+02 -0.28923948361E+02  0.36236651440E+02  0.51100000000E-03 0.  1.
         22    1    1    0    0    0  0.20391164989E+02 -0.14467660923E+02 -0.17896437207E+02  0.30747280967E+02  0.00000000000E+00 0. -1.
</event>
<event>
 5    1  0.3183383E-003  0.9118800E+02  0.7818608E-02  0.1130116E+00
         25   -1    0    0    0    0  0.00000000000E+00  0.00000000000E+00  0.99999998245E-14  0.12500000000E+03  0.12500000000E+03 0.  0.
        -11    1    3    3    0    0 -0.70043788687E+01 -0.42182743665E+02  0.17180420819E+02  0.46082665355E+02  0.51100000000E-03 0. -1.
         23    2    1    0    0    0 -0.30050949928E+02 -0.42680113558E+01 -0.23417839978E+01  0.94557275667E+02  0.89522728493E+02 0.  0.
         11    1    3    3    0    0 -0.23046571059E+02  0.37914732310E+02 -0.19522204817E+02  0.48474610312E+02  0.51100000000E-03 0.  1.
         22    1    1    0    0    0  0.30050949928E+02  0.42680113558E+01  0.23417839978E+01  0.30442724333E+02  0.00000000000E+00 0. -1.
</event>
<event>
 5    1  0.3183383E-003  0.9118800E+02  0.7818608E-02  0.1130116E+00
         25   -1    0    0    0    0  0.00000000000E+00  0.00000000000E+00  0.99999998245E-14  0.12500000000E+03  0.12500000000E+03 0.  0.
        -11    1    3    3    0    0  0.32119367090E+02  0.16049297768E+02  0.21882388312E+02  0.42048455615E+02  0.51100000000E-03 0.  1.
         23    2    1    0    0    0  0.18109117122E+02 -0.92803430594E+01 -0.22263681076E+02  0.94838163430E+02  0.89914074858E+02 0.  0.
         11    1    3    3    0    0 -0.14010249968E+02 -0.25329640827E+02 -0.44146069388E+02  0.52789707815E+02  0.51100000000E-03 0. -1.
         22    1    1    0    0    0 -0.18109117122E+02  0.92803430594E+01  0.22263681076E+02  0.30161836570E+02  0.00000000000E+00 0. -1.
</event>
<event>
 4    1  0.3183383E-003  0.9118800E+02  0.7818608E-02  0.1130116E+00
         25   -1    0    0    0    0  0.00000000000E+00  0.00000000000E+00  0.99999998245E-14  0.12500000000E+03  0.12500000000E+03 0.  0.
        -11    1    1    0    0    0  0.11096608884E+02 -0.15139684561E+02  0.47689477662E+02  0.51250668847E+02  0.51100000000E-03 0. -1.
         11    1    1    0    0    0  0.13662004884E+02  0.13603602264E+02  0.78571886085E+00  0.19295743738E+02  0.51100000000E-03 0.  1.
         22    1    1    0    0    0 -0.24758613768E+02  0.15360822963E+01 -0.48475196522E+02  0.54453587416E+02  0.00000000000E+00 0. -1.
</event>
<event>
 5    1  0.3183383E-003  0.9118800E+02  0.7818608E-02  0.1130116E+00
         25   -1    0    0    0    0  0.00000000000E+00  0.00000000000E+00  0.99999998245E-14  0.12500000000E+03  0.12500000000E+03 0.  0.
        -11    1    3    3    0    0  0.29175508672E+02 -0.52719987177E+02 -0.44472418717E+01  0.60418418671E+02  0.51100000000E-03 0.  1.
         23    2    1    0    0    0  0.18826941609E+02 -0.21593840075E+02  0.75970019747E+01  0.95361138711E+02  0.90638207604E+02 0.  0.
         11    1    3    3    0    0 -0.10348567063E+02  0.31126147102E+02  0.12044243846E+02  0.34942720040E+02  0.51100000000E-03 0. -1.
         22    1    1    0    0    0 -0.18826941609E+02  0.21593840075E+02 -0.75970019747E+01  0.29638861289E+02  0.00000000000E+00 0.  1.
</event>
<event>
 5    1  0.3183383E-003  0.9118800E+02  0.7818608E-02  0.1130116E+00
         25   -1    0    0    0    0  0.00000000000E+00  0.00000000000E+00  0.99999998245E-14  0.12500000000E+03  0.12500000000E+03 0.  0.
        -11    1    3    3    0    0 -0.86895173081E+01  0.39800450124E+02  0.11344714363E+02  0.42288131732E+02  0.51100000000E-03 0.  1.
         23    2    1    0    0    0 -0.25473320817E+02 -0.10922287191E+02  0.93372485391E+01  0.95753279822E+02  0.91177409238E+02 0.  0.
         11    1    3    3    0    0 -0.16783803508E+02 -0.50722737315E+02 -0.20074658239E+01  0.53465148090E+02  0.51100000000E-03 0. -1.
         22    1    1    0    0    0  0.25473320817E+02  0.10922287191E+02 -0.93372485391E+01  0.29246720178E+02  0.00000000000E+00 0. -1.
</event>
<event>
 5    1  0.3183383E-003  0.9118800E+02  0.7818608E-02  0.1130116E+00
         25   -1    0    0    0    0  0.00000000000E+00  0.00000000000E+00  0.99999998245E-14  0.12500000000E+03  0.12500000000E+03 0.  0.
        -11    1    3    3    0    0  0.15973703896E+02 -0.25015116988E+02  0.23250801296E+02  0.37702984699E+02  0.51100000000E-03 0.  1.
         23    2    1    0    0    0  0.11734905872E+01  0.28532708358E+02  0.67675099433E+01  0.95652228071E+02  0.91038766565E+02 0.  0.
         11    1    3    3    0    0 -0.14800213309E+02  0.53547825346E+02 -0.16483291352E+02  0.57949243371E+02  0.51100000000E-03 0. -1.
         22    1    1    0    0    0 -0.11734905872E+01 -0.28532708358E+02 -0.67675099433E+01  0.29347771929E+02  0.00000000000E+00 0. -1.
</event>
<event>
 5    1  0.3183383E-003  0.9118800E+02  0.7818608E-02  0.1130116E+00
         25   -1    0    0    0    0  0.00000000000E+00  0.00000000000E+00  0.99999998245E-14  0.12500000000E+03  0.12500000000E+03 0.  0.
        -11    1    3    3    0    0  0.29456054167E+02  0.16292045067E+02  0.55562231643E+01  0.34116879630E+02  0.51100000000E-03 0.  1.
         23    2    1    0    0    0 -0.12510123888E+02 -0.21400924511E+02 -0.17078481435E+02  0.94897221096E+02  0.89996140328E+02 0.  0.
         11    1    3    3    0    0 -0.41966178055E+02 -0.37692969578E+02 -0.22634704600E+02  0.60780341466E+02  0.51100000000E-03 0. -1.
         22    1    1    0    0    0  0.12510123888E+02  0.21400924511E+02  0.17078481435E+02  0.30102778904E+02  0.00000000000E+00 0. -1.
</event>
<event>
 5    1  0.3183383E-003  0.9118800E+02  0.7818608E-02  0.1130116E+00
         25   -1    0    0    0    0  0.00000000000E+00  0.00000000000E+00  0.99999998245E-14  0.12500000000E+03  0.12500000000E+03 0.  0.
        -11    1    3    3    0    0 -0.39776383318E+02 -0.90622383350E+01  0.23478966140E+02  0.47069594057E+02  0.51100000000E-03 0.  1.
         23    2    1    0    0    0  0.60961321248E+01  0.83551734154E+01  0.26823779306E+02  0.96251315057E+02  0.91857654903E+02 0.  0.
         11    1    3    3    0    0  0.45872515442E+02  0.17417411750E+02  0.33448131668E+01  0.49181720999E+02  0.51100000000E-03 0. -1.
         22    1    1    0    0    0 -0.60961321248E+01 -0.83551734154E+01 -0.26823779306E+02  0.28748684943E+02  0.00000000000E+00 0. -1.
</event>
<event>
 5    1  0.3183383E-003  0.9118800E+02  0.7818608E-02  0.1130116E+00
         25   -1    0    0    0    0  0.00000000000E+00  0.00000000000E+00  0.99999998245E-14  0.12500000000E+03  0.12500000000E+03 0.  0.
        -11    1    3    3    0    0  0.15341634265E+02  0.53489144873E+02  0.16417825106E+02  0.58017233152E+02  0.51100000000E-03 0. -1.
         23    2    1    0    0    0  0.91805225572E+00  0.27817781551E+02 -0.77468263566E+01  0.96109082587E+02  0.91663900456E+02 0.  0.
         11    1    3    3    0    0 -0.14423582009E+02 -0.25671363323E+02 -0.24164651462E+02  0.38091849435E+02  0.51100000000E-03 0.  1.
         22    1    1    0    0    0 -0.91805225572E+00 -0.27817781551E+02  0.77468263566E+01  0.28890917413E+02  0.00000000000E+00 0. -1.
</event>
<event>
 5    1  0.3183383E-003  0.9118800E+02  0.7818608E-02  0.1130116E+00
         25   -1    0    0    0    0  0.00000000000E+00  0.00000000000E+00  0.99999998245E-14  0.12500000000E+03  0.12500000000E+03 0.  0.
        -11    1    3    3    0    0  0.32623679410E+02  0.14484881068E+02 -0.88199584796E+01  0.36768300282E+02  0.51100000000E-03 0. -1.
         23    2    1    0    0    0 -0.22954393596E+02  0.16609655594E+02  0.91627176402E+01  0.95221816058E+02  0.90445862340E+02 0.  0.
         11    1    3    3    0    0 -0.55578073006E+02  0.21247745256E+01  0.17982676120E+02  0.58453515776E+02  0.51100000000E-03 0.  1.
         22    1    1    0    0    0  0.22954393596E+02 -0.16609655594E+02 -0.91627176402E+01  0.29778183942E+02  0.00000000000E+00 0.  1.
</event>
<event>
 5    1  0.3183383E-003  0.9118800E+02  0.7818608E-02  0.1130116E+00
         25   -1    0    0    0    0  0.00000000000E+00  0.00000000000E+00  0.99999998245E-14  0.12500000000E+03  0.12500000000E+03 0.  0.
        -11    1    3    3    0    0  0.91423951982E+01  0.28232463999E+02 -0.16489188070E+02  0.33949208192E+02  0.51100000000E-03 0.  1.
         23    2    1    0    0    0 -0.11165903721E+02 -0.11286259642E+02  0.25421388215E+02  0.95028279305E+02  0.90177989700E+02 0.  0.
         11    1    3    3    0    0 -0.20308298919E+02 -0.39518723641E+02  0.41910576285E+02  0.61079071113E+02  0.51100000000E-03 0. -1.
         22    1    1    0    0    0  0.11165903721E+02  0.11286259642E+02 -0.25421388215E+02  0.29971720695E+02  0.00000000000E+00 0. -1.
</event>
<event>
 5    1  0.3183383E-003  0.9118800E+02  0.7818608E-02  0.1130116E+00
         25   -1    0    0    0    0  0.00000000000E+00  0.00000000000E+00  0.99999998245E-14  0.12500000000E+03  0.12500000000E+03 0.  0.
        -11    1    3    3    0    0 -0.63543089415E+01 -0.29290392335E+02  0.66412127327E+01  0.30698697564E+02  0.51100000000E-03 0.  1.
         23    2    1    0    0    0  0.12671184556E+02  0.28593439006E+02 -0.65633511100E+01  0.93043447463E+02  0.87383418712E+02 0.  0.
         11    1    3    3    0    0  0.19025493498E+02  0.57883831341E+02 -0.13204563843E+02  0.62344749900E+02  0.51100000000E-03 0. -1.
         22    1    1    0    0    0 -0.12671184556E+02 -0.28593439006E+02  0.65633511100E+01  0.31956552537E+02  0.00000000000E+00 0. -1.
</event>
<event>
 5    1  0.3183383E-003  0.9118800E+02  0.7818608E-02  0.1130116E+00
         25   -1    0    0    0    0  0.00000000000E+00  0.00000000000E+00  0.99999998245E-14  0.12500000000E+03  0.12500000000E+03 0.  0.
        -11    1    3    3    0    0 -0.53319154328E+02 -0.22745943297E+02  0.19218936796E+02  0.61071087157E+02  0.51100000000E-03 0.  1.
         23    2    1    0    0    0 -0.29040713838E+02 -0.23706264746E+01  0.70524329220E+01  0.95021345257E+02  0.90168377573E+02 0.  0.
         11    1    3    3    0    0  0.24278440490E+02  0.20375316823E+02 -0.12166503874E+02  0.33950258100E+02  0.51100000000E-03 0. -1.
         22    1    1    0    0    0  0.29040713838E+02  0.23706264746E+01 -0.70524329220E+01  0.29978654743E+02  0.00000000000E+00 0.  1.
</event>
<event>
 5    1  0.3183383E-003  0.9118800E+02  0.7818608E-02  0.1130116E+00
         25   -1    0    0    0    0  0.00000000000E+00  0.00000000000E+00  0.99999998245E-14  0.12500000000E+03  0.12500000000E+03 0.  0.
        -11    1    3    3    0    0  0.19184758571E+02 -0.52476543140E+02 -0.22242654415E+02  0.60137993124E+02  0.51100000000E-03 0. -1.
         23    2    1    0    0    0 -0.25597322855E+01 -0.27473586564E+02 -0.12732735665E+02  0.94611305629E+02  0.89598138414E+02 0.  0.
         11    1    3    3    0    0 -0.21744490856E+02  0.25002956576E+02  0.95099187500E+01  0.34473312504E+02  0.51100000000E-03 0.  1.
         22    1    1    0    0    0  0.25597322855E+01  0.27473586564E+02  0.12732735665E+02  0.30388694371E+02  0.00000000000E+00 0. -1.
</event>
<event>
 5    1  0.3183383E-003  0.9118800E+02  0.7818608E-02  0.1130116E+00
         25   -1    0    0    0    0  0.00000000000E+00  0.00000000000E+00  0.99999998245E-14  0.12500000000E+03  0.12500000000E+03 0.  0.
        -11    1    3    3    0    0  0.29564240469E+02 -0.18320205943E+02 -0.77760298321E+01  0.35639036189E+02  0.51100000000E-03 0.  1.
         23    2    1    0    0    0 -0.28447635161E+02 -0.11349534131E+01 -0.38573512525E+01  0.96269611485E+02  0.91882549330E+02 0.  0.
         11    1    3    3    0    0 -0.58011875630E+02  0.17185252530E+02  0.39186785796E+01  0.60630575296E+02  0.51100000000E-03 0. -1.
         22    1    1    0    0    0  0.28447635161E+02  0.11349534131E+01  0.38573512525E+01  0.28730388515E+02  0.00000000000E+00 0. -1.
</event>
<event>
 5    1  0.3183383E-003  0.9118800E+02  0.7818608E-02  0.1130116E+00
         25   -1    0    0    0    0  0.00000000000E+00  0.00000000000E+00  0.99999998245E-14  0.12500000000E+03  0.12500000000E+03 0.  0.
        -11    1    3    3    0    0  0.37768476532E+02  0.56450525238E+00  0.88828364790E+00  0.37783138221E+02  0.51100000000E-03 0.  1.
         23    2    1    0    0    0 -0.10828971933E+02 -0.19609193712E+02 -0.20549976674E+02  0.94601173502E+02  0.89584001783E+02 0.  0.
         11    1    3    3    0    0 -0.48597448465E+02 -0.20173698964E+02 -0.21438260322E+02  0.56818035280E+02  0.51100000000E-03 0. -1.
         22    1    1    0    0    0  0.10828971933E+02  0.19609193712E+02  0.20549976674E+02  0.30398826498E+02  0.00000000000E+00 0. -1.
</event>
<event>
 5    1  0.3183383E-003  0.9118800E+02  0.7818608E-02  0.1130116E+00
         25   -1    0    0    0    0  0.00000000000E+00  0.00000000000E+00  0.99999998245E-14  0.12500000000E+03  0.12500000000E+03 0.  0.
        -11    1    3    3    0    0  0.46932669445E+02 -0.22465497818E+02 -0.14762520701E+02  0.54086098686E+02  0.51100000000E-03 0.  1.
         23    2    1    0    0    0  0.13017858919E+02  0.78738615237E+00 -0.25300843744E+02  0.96535683357E+02  0.92243811929E+02 0.  0.
         11    1    3    3    0    0 -0.33914810525E+02  0.23252883970E+02 -0.10538323043E+02  0.42449584671E+02  0.51100000000E-03 0. -1.
         22    1    1    0    0    0 -0.13017858919E+02 -0.78738615237E+00  0.25300843744E+02  0.28464316643E+02  0.00000000000E+00 0.  1.
</event>
<event>
 5    1  0.3183383E-003  0.9118800E+02  0.7818608E-02  0.1130116E+00
         25   -1    0    0    0    0  0.00000000000E+00  0.00000000000E+00  0.99999998245E-14  0.12500000000E+03  0.12500000000E+03 0.  0.
        -11    1    3    3    0    0  0.28761189872E+00 -0.50270875233E+02 -0.15335423190E+02  0.52558717849E+02  0.51100000000E-03 0. -1.
         23    2    1    0    0    0 -0.23329478345E+02 -0.15343266775E+02 -0.11166787522E+02  0.94927129523E+02  0.90037672008E+02 0.  0.
         11    1    3    3    0    0 -0.23617090244E+02  0.34927608458E+02  0.41686356679E+01  0.42368411674E+02  0.51100000000E-03 0.  1.
         22    1    1    0    0    0  0.23329478345E+02  0.15343266775E+02  0.11166787522E+02  0.30072870477E+02  0.00000000000E+00 0.  1.
</event>
<event>
 5    1  0.3183383E-003  0.9118800E+02  0.7818608E-02  0.1130116E+00
         25   -1    0    0    0    0  0.00000000000E+00  0.00000000000E+00  0.99999998245E-14  0.12500000000E+03  0.12500000000E+03 0.  0.
        -11    1    3    3    0    0 -0.80525472108E+00 -0.14884587647E+02 -0.51131290530E+02  0.53259818401E+02  0.51100000000E-03 0.  1.
         23    2    1    0    0    0  0.16553669804E+02 -0.18558535819E+02 -0.97432219179E+01  0.98290945186E+02  0.94592474840E+02 0.  0.
         11    1    3    3    0    0  0.17358924525E+02 -0.36739481715E+01  0.41388068612E+02  0.45031126785E+02  0.51100000000E-03 0. -1.
         22    1    1    0    0    0 -0.16553669804E+02  0.18558535819E+02  0.97432219179E+01  0.26709054814E+02  0.00000000000E+00 0.  1.
</event>
<event>
 5    1  0.3183383E-003  0.9118800E+02  0.7818608E-02  0.1130116E+00
         25   -1    0    0    0    0  0.00000000000E+00  0.00000000000E+00  0.99999998245E-14  0.12500000000E+03  0.12500000000E+03 0.  0.
        -11    1    3    3    0    0  0.35094003292E+02  0.82780796572E+01 -0.40011099152E+02  0.53860966622E+02  0.51100000000E-03 0. -1.
         23    2    1    0    0    0  0.61403571276E+00 -0.10963242639E+02 -0.27671397142E+02  0.95229612888E+02  0.90456637247E+02 0.  0.
         11    1    3    3    0    0 -0.34479967579E+02 -0.19241322296E+02  0.12339702010E+02  0.41368646266E+02  0.51100000000E-03 0.  1.
         22    1    1    0    0    0 -0.61403571276E+00  0.10963242639E+02  0.27671397142E+02  0.29770387112E+02  0.00000000000E+00 0. -1.
</event>
<event>
 5    1  0.3183383E-003  0.9118800E+02  0.7818608E-02  0.1130116E+00
         25   -1    0    0    0    0  0.00000000000E+00  0.00000000000E+00  0.99999998245E-14  0.12500000000E+03  0.12500000000E+03 0.  0.
        -11    1    3    3    0    0  0.39601406550E+02  0.28118394673E+02 -0.38464750167E+02  0.61955246149E+02  0.51100000000E-03 0. -1.
         23    2    1    0    0    0  0.14707157332E+02  0.17392419971E+02 -0.15938496048E+02  0.97200136592E+02  0.93139863367E+02 0.  0.
         11    1    3    3    0    0 -0.24894249218E+02 -0.10725974702E+02  0.22526254119E+02  0.35244890443E+02  0.51100000000E-03 0.  1.
         22    1    1    0    0    0 -0.14707157332E+02 -0.17392419971E+02  0.15938496048E+02  0.27799863408E+02  0.00000000000E+00 0. -1.
</event>
<event>
 5    1  0.3183383E-003  0.9118800E+02  0.7818608E-02  0.1130116E+00
         25   -1    0    0    0    0  0.00000000000E+00  0.00000000000E+00  0.99999998245E-14  0.12500000000E+03  0.12500000000E+03 0.  0.
        -11    1    3    3    0    0 -0.30940009890E+02  0.28198372499E+01  0.30536598953E+02  0.43562823255E+02  0.51100000000E-03 0. -1.
         23    2    1    0    0    0 -0.65482738042E+01 -0.28402725482E+02  0.29978129391E+02  0.83187526426E+02  0.71915795250E+02 0.  0.
         11    1    3    3    0    0  0.24391736086E+02 -0.31222562732E+02 -0.55846956203E+00  0.39624703171E+02  0.51100000000E-03 0.  1.
         22    1    1    0    0    0  0.65482738042E+01  0.28402725482E+02 -0.29978129391E+02  0.41812473574E+02  0.00000000000E+00 0. -1.
</event>
<event>
 5    1  0.3183383E-003  0.9118800E+02  0.7818608E-02  0.1130116E+00
         25   -1    0    0    0    0  0.00000000000E+00  0.00000000000E+00  0.99999998245E-14  0.12500000000E+03  0.12500000000E+03 0.  0.
        -11    1    3    3    0    0 -0.57925046556E+02 -0.54801001510E+01  0.18073488348E+02  0.60926131483E+02  0.51100000000E-03 0.  1.
         23    2    1    0    0    0 -0.22864052594E+02 -0.89461205955E+01  0.14852937396E+02  0.96304918122E+02  0.91930569075E+02 0.  0.
         11    1    3    3    0    0  0.35060993962E+02 -0.34660204445E+01 -0.32205509518E+01  0.35378786639E+02  0.51100000000E-03 0. -1.
         22    1    1    0    0    0  0.22864052594E+02  0.89461205955E+01 -0.14852937396E+02  0.28695081878E+02  0.00000000000E+00 0.  1.
</event>
<event>
 5    1  0.3183383E-003  0.9118800E+02  0.7818608E-02  0.1130116E+00
         25   -1    0    0    0    0  0.00000000000E+00  0.00000000000E+00  0.99999998245E-14  0.12500000000E+03  0.12500000000E+03 0.  0.
        -11    1    3    3    0    0  0.25550445306E+02 -0.36937371871E+02  0.32637185487E+02  0.55519191032E+02  0.51100000000E-03 0.  1.
         23    2    1    0    0    0  0.30138831371E+02 -0.14582112009E+02  0.53460062006E+01  0.91094735964E+02  0.84549890544E+02 0.  0.
         11    1    3    3    0    0  0.45883860646E+01  0.22355259861E+02 -0.27291179286E+02  0.35575544932E+02  0.51100000000E-03 0. -1.
         22    1    1    0    0    0 -0.30138831371E+02  0.14582112009E+02 -0.53460062006E+01  0.33905264036E+02  0.00000000000E+00 0.  1.
</event>
<event>
 5    1  0.3183383E-003  0.9118800E+02  0.7818608E-02  0.1130116E+00
         25   -1    0    0    0    0  0.00000000000E+00  0.00000000000E+00  0.99999998245E-14  0.12500000000E+03  0.12500000000E+03 0.  0.
        -11    1    3    3    0    0  0.33402988736E+02  0.17269935708E+02  0.22354186822E+02  0.43746085592E+02  0.51100000000E-03 0.  1.
         23    2    1    0    0    0  0.17128756202E+02 -0.53608217966E+01 -0.22292676091E+02  0.96380144888E+02  0.92032799707E+02 0.  0.
         11    1    3    3    0    0 -0.16274232534E+02 -0.22630757504E+02 -0.44646862913E+02  0.52634059296E+02  0.51100000000E-03 0. -1.
         22    1    1    0    0    0 -0.17128756202E+02  0.53608217966E+01  0.22292676091E+02  0.28619855112E+02  0.00000000000E+00 0. -1.
</event>
<event>
 5    1  0.3183383E-003  0.9118800E+02  0.7818608E-02  0.1130116E+00
         25   -1    0    0    0    0  0.00000000000E+00  0.00000000000E+00  0.99999998245E-14  0.12500000000E+03  0.12500000000E+03 0.  0.
        -11    1    3    3    0    0  0.25536567812E+02  0.32690170704E+01 -0.54625907642E+02  0.60388679023E+02  0.51100000000E-03 0.  1.
         23    2    1    0    0    0  0.13827781573E+02  0.12245908584E+02 -0.21476494185E+02  0.96673164265E+02  0.92429925166E+02 0.  0.
         11    1    3    3    0    0 -0.11708786240E+02  0.89768915138E+01  0.33149413457E+02  0.36284485242E+02  0.51100000000E-03 0. -1.
         22    1    1    0    0    0 -0.13827781573E+02 -0.12245908584E+02  0.21476494185E+02  0.28326835735E+02  0.00000000000E+00 0.  1.
</event>
<event>
 5    1  0.3183383E-003  0.9118800E+02  0.7818608E-02  0.1130116E+00
         25   -1    0    0    0    0  0.00000000000E+00  0.00000000000E+00  0.99999998245E-14  0.12500000000E+03  0.12500000000E+03 0.  0.
        -11    1    3    3    0    0 -0.76461406761E+01 -0.87014705138E+01  0.44517090366E+02  0.45999460771E+02  0.51100000000E-03 0.  1.
         23    2    1    0    0    0 -0.29670878981E+02 -0.11889071636E+02  0.32675709010E+01  0.92869203193E+02  0.87133809731E+02 0.  0.
         11    1    3    3    0    0 -0.22024738305E+02 -0.31876011222E+01 -0.41249519465E+02  0.46869742422E+02  0.51100000000E-03 0. -1.
         22    1    1    0    0    0  0.29670878981E+02  0.11889071636E+02 -0.32675709010E+01  0.32130796807E+02  0.00000000000E+00 0.  1.
</event>
<event>
 5    1  0.3183383E-003  0.9118800E+02  0.7818608E-02  0.1130116E+00
         25   -1    0    0    0    0  0.00000000000E+00  0.00000000000E+00  0.99999998245E-14  0.12500000000E+03  0.12500000000E+03 0.  0.
        -11    1    3    3    0    0  0.10136300952E+02 -0.50152358685E+02  0.70570384133E+01  0.51650803189E+02  0.51100000000E-03 0.  1.
         23    2    1    0    0    0  0.10507480449E+02 -0.14293394663E+02 -0.21236096415E+02  0.97329075417E+02  0.93312747544E+02 0.  0.
         11    1    3    3    0    0  0.37117949705E+00  0.35858964023E+02 -0.28293134828E+02  0.45678272227E+02  0.51100000000E-03 0. -1.
         22    1    1    0    0    0 -0.10507480449E+02  0.14293394663E+02  0.21236096415E+02  0.27670924583E+02  0.00000000000E+00 0.  1.
</event>
<event>
 5    1  0.3183383E-003  0.9118800E+02  0.7818608E-02  0.1130116E+00
         25   -1    0    0    0    0  0.00000000000E+00  0.00000000000E+00  0.99999998245E-14  0.12500000000E+03  0.12500000000E+03 0.  0.
        -11    1    3    3    0    0 -0.39100029789E+02 -0.12845474057E+02 -0.37973617026E+02  0.55998340364E+02  0.51100000000E-03 0.  1.
         23    2    1    0    0    0 -0.58571251076E+01 -0.22171850792E+02 -0.17645061786E+02  0.96064812295E+02  0.91603510161E+02 0.  0.
         11    1    3    3    0    0  0.33242904681E+02 -0.93263767349E+01  0.20328555239E+02  0.40066471932E+02  0.51100000000E-03 0. -1.
         22    1    1    0    0    0  0.58571251076E+01  0.22171850792E+02  0.17645061786E+02  0.28935187705E+02  0.00000000000E+00 0. -1.
</event>
<event>
 5    1  0.3183383E-003  0.9118800E+02  0.7818608E-02  0.1130116E+00
         25   -1    0    0    0    0  0.00000000000E+00  0.00000000000E+00  0.99999998245E-14  0.12500000000E+03  0.12500000000E+03 0.  0.
        -11    1    3    3    0    0  0.28947802893E+02 -0.26966682527E+02  0.22455337782E+01  0.39625997540E+02  0.51100000000E-03 0. -1.
         23    2    1    0    0    0  0.13128475902E+02  0.26275251851E+02 -0.32912165641E+01  0.95443649653E+02  0.90751927876E+02 0.  0.
         11    1    3    3    0    0 -0.15819326992E+02  0.53241934378E+02 -0.55367503423E+01  0.55817652113E+02  0.51100000000E-03 0.  1.
         22    1    1    0    0    0 -0.13128475902E+02 -0.26275251851E+02  0.32912165641E+01  0.29556350347E+02  0.00000000000E+00 0.  1.
</event>
<event>
 5    1  0.3183383E-003  0.9118800E+02  0.7818608E-02  0.1130116E+00
         25   -1    0    0    0    0  0.00000000000E+00  0.00000000000E+00  0.99999998245E-14  0.12500000000E+03  0.12500000000E+03 0.  0.
        -11    1    3    3    0    0  0.26427395068E+01  0.72949848348E+01 -0.50458522382E+02  0.51051575461E+02  0.51100000000E-03 0. -1.
         23    2    1    0    0    0 -0.13119530232E+02  0.24138639952E+02 -0.14077711860E+02  0.94129658514E+02  0.88923644935E+02 0.  0.
         11    1    3    3    0    0 -0.15762269739E+02  0.16843655117E+02  0.36380810522E+02  0.43078083053E+02  0.51100000000E-03 0.  1.
         22    1    1    0    0    0  0.13119530232E+02 -0.24138639952E+02  0.14077711860E+02  0.30870341486E+02  0.00000000000E+00 0.  1.
</event>
<event>
 5    1  0.3183383E-003  0.9118800E+02  0.7818608E-02  0.1130116E+00
         25   -1    0    0    0    0  0.00000000000E+00  0.00000000000E+00  0.99999998245E-14  0.12500000000E+03  0.12500000000E+03 0.  0.
        -11    1    3    3    0    0  0.23832967258E+02 -0.20148046819E+02 -0.25321553796E+02  0.40188744765E+02  0.51100000000E-03 0. -1.
         23    2    1    0    0    0 -0.10482490798E+01 -0.94100107413E+01  0.25508227829E+02  0.97791236426E+02  0.93929809467E+02 0.  0.
         11    1    3    3    0    0 -0.24881216338E+02  0.10738036077E+02  0.50829781624E+02  0.57602491660E+02  0.51100000000E-03 0.  1.
         22    1    1    0    0    0  0.10482490798E+01  0.94100107413E+01 -0.25508227829E+02  0.27208763574E+02  0.00000000000E+00 0.  1.
</event>
<event>
 5    1  0.3183383E-003  0.9118800E+02  0.7818608E-02  0.1130116E+00
         25   -1    0    0    0    0  0.00000000000E+00  0.00000000000E+00  0.99999998245E-14  0.12500000000E+03  0.12500000000E+03 0.  0.
        -11    1    3    3    0    0 -0.12956806274E+02  0.23692829667E+02  0.26164478083E+02  0.37600650527E+02  0.51100000000E-03 0.  1.
         23    2    1    0    0    0 -0.57304468580E+01  0.53591585652E+01 -0.28358768517E+02  0.95575888229E+02  0.90933888387E+02 0.  0.
         11    1    3    3    0    0  0.72263594161E+01 -0.18333671102E+02 -0.54523246600E+02  0.57975237702E+02  0.51100000000E-03 0. -1.
         22    1    1    0    0    0  0.57304468580E+01 -0.53591585652E+01  0.28358768517E+02  0.29424111771E+02  0.00000000000E+00 0. -1.
</event>
<event>
 5    1  0.3183383E-003  0.9118800E+02  0.7818608E-02  0.1130116E+00
         25   -1    0    0    0    0  0.00000000000E+00  0.00000000000E+00  0.99999998245E-14  0.12500000000E+03  0.12500000000E+03 0.  0.
        -11    1    3    3    0    0  0.60900844646E+01  0.25271974462E+02  0.42707858939E+02  0.49997230297E+02  0.51100000000E-03 0.  1.
         23    2    1    0    0    0  0.10135523499E+01 -0.16240944697E+02  0.24447587373E+02  0.95631988468E+02  0.91010972508E+02 0.  0.
         11    1    3    3    0    0 -0.50765321147E+01 -0.41512919158E+02 -0.18260271566E+02  0.45634758171E+02  0.51100000000E-03 0. -1.
         22    1    1    0    0    0 -0.10135523499E+01  0.16240944697E+02 -0.24447587373E+02  0.29368011532E+02  0.00000000000E+00 0.  1.
</event>
<event>
 5    1  0.3183383E-003  0.9118800E+02  0.7818608E-02  0.1130116E+00
         25   -1    0    0    0    0  0.00000000000E+00  0.00000000000E+00  0.99999998245E-14  0.12500000000E+03  0.12500000000E+03 0.  0.
        -11    1    3    3    0    0  0.11180677749E+02 -0.15467849939E+02  0.27829093523E+02  0.33744931223E+02  0.51100000000E-03 0. -1.
         23    2    1    0    0    0 -0.14486037349E+02  0.16893303474E+02 -0.18678697071E+02  0.95946210151E+02  0.91441525237E+02 0.  0.
         11    1    3    3    0    0 -0.25666715098E+02  0.32361153414E+02 -0.46507790593E+02  0.62201278928E+02  0.51100000000E-03 0.  1.
         22    1    1    0    0    0  0.14486037349E+02 -0.16893303474E+02  0.18678697071E+02  0.29053789849E+02  0.00000000000E+00 0.  1.
</event>
<event>
 5    1  0.3183383E-003  0.9118800E+02  0.7818608E-02  0.1130116E+00
         25   -1    0    0    0    0  0.00000000000E+00  0.00000000000E+00  0.99999998245E-14  0.12500000000E+03  0.12500000000E+03 0.  0.
        -11    1    3    3    0    0  0.10062046912E+01  0.11486857490E+02  0.34969311310E+02  0.36821367121E+02  0.51100000000E-03 0. -1.
         23    2    1    0    0    0  0.22853032665E+02 -0.23642219399E+02 -0.16608014408E+01  0.92076241078E+02  0.85988721758E+02 0.  0.
         11    1    3    3    0    0  0.21846827974E+02 -0.35129076889E+02 -0.36630112751E+02  0.55254873957E+02  0.51100000000E-03 0.  1.
         22    1    1    0    0    0 -0.22853032665E+02  0.23642219399E+02  0.16608014408E+01  0.32923758922E+02  0.00000000000E+00 0.  1.
</event>
<event>
 5    1  0.3183383E-003  0.9118800E+02  0.7818608E-02  0.1130116E+00
         25   -1    0    0    0    0  0.00000000000E+00  0.00000000000E+00  0.99999998245E-14  0.12500000000E+03  0.12500000000E+03 0.  0.
        -11    1    3    3    0    0 -0.25242703430E+02 -0.86054933873E+01  0.22257783159E+02  0.34736976039E+02  0.51100000000E-03 0. -1.
         23    2    1    0    0    0  0.98068782734E+01 -0.53656937652E+01 -0.27286720081E+02  0.95512195337E+02  0.90846292353E+02 0.  0.
         11    1    3    3    0    0  0.35049581704E+02  0.32397996221E+01 -0.49544503240E+02  0.60775219298E+02  0.51100000000E-03 0.  1.
         22    1    1    0    0    0 -0.98068782734E+01  0.53656937652E+01  0.27286720081E+02  0.29487804663E+02  0.00000000000E+00 0.  1.
</event>
<event>
 5    1  0.3183383E-003  0.9118800E+02  0.7818608E-02  0.1130116E+00
         25   -1    0    0    0    0  0.00000000000E+00  0.00000000000E+00  0.99999998245E-14  0.12500000000E+03  0.12500000000E+03 0.  0.
        -11    1    3    3    0    0 -0.16630115009E+02 -0.29103898216E+02 -0.11980148348E+02  0.35596651124E+02  0.51100000000E-03 0.  1.
         23    2    1    0    0    0  0.60910868494E+00  0.27671691488E+02  0.39703139779E+01  0.97038295540E+02  0.92922407873E+02 0.  0.
         11    1    3    3    0    0  0.17239223694E+02  0.56775589704E+02  0.15950462326E+02  0.61441644416E+02  0.51100000000E-03 0. -1.
         22    1    1    0    0    0 -0.60910868494E+00 -0.27671691488E+02 -0.39703139779E+01  0.27961704460E+02  0.00000000000E+00 0. -1.
</event>
<event>
 5    1  0.3183383E-003  0.9118800E+02  0.7818608E-02  0.1130116E+00
         25   -1    0    0    0    0  0.00000000000E+00  0.00000000000E+00  0.99999998245E-14  0.12500000000E+03  0.12500000000E+03 0.  0.
        -11    1    3    3    0    0  0.34244676806E+02 -0.39170787119E+02  0.21643993287E+00  0.52029753983E+02  0.51100000000E-03 0. -1.
         23    2    1    0    0    0  0.34730606767E+01 -0.17113530146E+02 -0.22757080627E+02  0.96315164578E+02  0.91944500350E+02 0.  0.
         11    1    3    3    0    0 -0.30771616129E+02  0.22057256973E+02 -0.22973520560E+02  0.44285410595E+02  0.51100000000E-03 0.  1.
         22    1    1    0    0    0 -0.34730606767E+01  0.17113530146E+02  0.22757080627E+02  0.28684835422E+02  0.00000000000E+00 0. -1.
</event>
<event>
 5    1  0.3183383E-003  0.9118800E+02  0.7818608E-02  0.1130116E+00
         25   -1    0    0    0    0  0.00000000000E+00  0.00000000000E+00  0.99999998245E-14  0.12500000000E+03  0.12500000000E+03 0.  0.
        -11    1    3    3    0    0 -0.71913277206E+00  0.17492685689E+02 -0.29997091243E+02  0.34732357937E+02  0.51100000000E-03 0.  1.
         23    2    1    0    0    0  0.51297377015E+00  0.44415428946E+01  0.29248905826E+02  0.95411337688E+02  0.90707411065E+02 0.  0.
         11    1    3    3    0    0  0.12321065422E+01 -0.13051142794E+02  0.59245997069E+02  0.60678979752E+02  0.51100000000E-03 0. -1.
         22    1    1    0    0    0 -0.51297377015E+00 -0.44415428946E+01 -0.29248905826E+02  0.29588662312E+02  0.00000000000E+00 0. -1.
</event>
<event>
 5    1  0.3183383E-003  0.9118800E+02  0.7818608E-02  0.1130116E+00
         25   -1    0    0    0    0  0.00000000000E+00  0.00000000000E+00  0.99999998245E-14  0.12500000000E+03  0.12500000000E+03 0.  0.
        -11    1    3    3    0    0  0.15409611537E+01 -0.49040434644E+02 -0.75045376924E+01  0.49635238265E+02  0.51100000000E-03 0. -1.
         23    2    1    0    0    0 -0.14714706699E+02 -0.11144297828E+02 -0.24575368456E+02  0.94264569272E+02  0.89113087243E+02 0.  0.
         11    1    3    3    0    0 -0.16255667853E+02  0.37896136817E+02 -0.17070830763E+02  0.44629331007E+02  0.51100000000E-03 0.  1.
         22    1    1    0    0    0  0.14714706699E+02  0.11144297828E+02  0.24575368456E+02  0.30735430728E+02  0.00000000000E+00 0. -1.
</event>
<event>
 5    1  0.3183383E-003  0.9118800E+02  0.7818608E-02  0.1130116E+00
         25   -1    0    0    0    0  0.00000000000E+00  0.00000000000E+00  0.99999998245E-14  0.12500000000E+03  0.12500000000E+03 0.  0.
        -11    1    3    3    0    0 -0.58476033544E+02  0.11649468615E+01  0.67939122924E+01  0.58880903905E+02  0.51100000000E-03 0.  1.
         23    2    1    0    0    0 -0.23702207922E+02  0.49703779381E+01  0.17105447200E+02  0.95350452935E+02  0.90623469553E+02 0.  0.
         11    1    3    3    0    0  0.34773825621E+02  0.38054310766E+01  0.10311534908E+02  0.36469549030E+02  0.51100000000E-03 0. -1.
         22    1    1    0    0    0  0.23702207922E+02 -0.49703779381E+01 -0.17105447200E+02  0.29649547065E+02  0.00000000000E+00 0.  1.
</event>
<event>
 5    1  0.3183383E-003  0.9118800E+02  0.7818608E-02  0.1130116E+00
         25   -1    0    0    0    0  0.00000000000E+00  0.00000000000E+00  0.99999998245E-14  0.12500000000E+03  0.12500000000E+03 0.  0.
        -11    1    3    3    0    0  0.12884689560E+00  0.30145577662E+02  0.32309144201E+02  0.44188836298E+02  0.51100000000E-03 0.  1.
         23    2    1    0    0    0 -0.30228962425E+02 -0.39340670368E+00  0.76294117500E+01  0.93820634039E+02  0.88488182881E+02 0.  0.
         11    1    3    3    0    0 -0.30357809320E+02 -0.30538984366E+02 -0.24679732451E+02  0.49631797740E+02  0.51100000000E-03 0. -1.
         22    1    1    0    0    0  0.30228962425E+02  0.39340670368E+00 -0.76294117500E+01  0.31179365961E+02  0.00000000000E+00 0. -1.
</event>
<event>
 5    1  0.3183383E-003  0.9118800E+02  0.7818608E-02  0.1130116E+00
         25   -1    0    0    0    0  0.00000000000E+00  0.00000000000E+00  0.99999998245E-14  0.12500000000E+03  0.12500000000E+03 0.  0.
        -11    1    3    3    0    0  0.14573816773E+01 -0.22716781777E+02 -0.31958274551E+02  0.39236557547E+02  0.51100000000E-03 0. -1.
         23    2    1    0    0    0 -0.20426147378E+01  0.27894814637E+02 -0.17569369296E+02  0.91970078776E+02  0.85834257112E+02 0.  0.
         11    1    3    3    0    0 -0.34999964151E+01  0.50611596414E+02  0.14388905255E+02  0.52733521229E+02  0.51100000000E-03 0.  1.
         22    1    1    0    0    0  0.20426147378E+01 -0.27894814637E+02  0.17569369296E+02  0.33029921224E+02  0.00000000000E+00 0.  1.
</event>
<event>
 5    1  0.3183383E-003  0.9118800E+02  0.7818608E-02  0.1130116E+00
         25   -1    0    0    0    0  0.00000000000E+00  0.00000000000E+00  0.99999998245E-14  0.12500000000E+03  0.12500000000E+03 0.  0.
        -11    1    3    3    0    0 -0.14041483902E+02  0.57796560822E+02 -0.33054834192E+01  0.59569555428E+02  0.51100000000E-03 0.  1.
         23    2    1    0    0    0 -0.17228246297E+00  0.24387464823E+02 -0.13463738349E+02  0.97142319335E+02  0.93062236346E+02 0.  0.
         11    1    3    3    0    0  0.13869201439E+02 -0.33409095999E+02 -0.10158254930E+02  0.37572763906E+02  0.51100000000E-03 0. -1.
         22    1    1    0    0    0  0.17228246297E+00 -0.24387464823E+02  0.13463738349E+02  0.27857680665E+02  0.00000000000E+00 0.  1.
</event>
<event>
 5    1  0.3183383E-003  0.9118800E+02  0.7818608E-02  0.1130116E+00
         25   -1    0    0    0    0  0.00000000000E+00  0.00000000000E+00  0.99999998245E-14  0.12500000000E+03  0.12500000000E+03 0.  0.
        -11    1    3    3    0    0 -0.35626948013E+02  0.40136358082E+02  0.24584123441E+00  0.53668119988E+02  0.51100000000E-03 0. -1.
         23    2    1    0    0    0 -0.13321759674E+02  0.82195360162E+01  0.21790745831E+02  0.98169669085E+02  0.94432077555E+02 0.  0.
         11    1    3    3    0    0  0.22305188340E+02 -0.31916822066E+02  0.21544904597E+02  0.44501549097E+02  0.51100000000E-03 0.  1.
         22    1    1    0    0    0  0.13321759674E+02 -0.82195360162E+01 -0.21790745831E+02  0.26830330915E+02  0.00000000000E+00 0.  1.
</event>
<event>
 5    1  0.3183383E-003  0.9118800E+02  0.7818608E-02  0.1130116E+00
         25   -1    0    0    0    0  0.00000000000E+00  0.00000000000E+00  0.99999998245E-14  0.12500000000E+03  0.12500000000E+03 0.  0.
        -11    1    3    3    0    0 -0.17823034892E+02  0.43721211614E+01 -0.31102150262E+02  0.36112598458E+02  0.51100000000E-03 0.  1.
         23    2    1    0    0    0 -0.48800541298E+00 -0.16449277648E+02  0.23058281622E+02  0.96671547240E+02  0.92427738315E+02 0.  0.
         11    1    3    3    0    0  0.17335029479E+02 -0.20821398810E+02  0.54160431884E+02  0.60558948782E+02  0.51100000000E-03 0. -1.
         22    1    1    0    0    0  0.48800541298E+00  0.16449277648E+02 -0.23058281622E+02  0.28328452760E+02  0.00000000000E+00 0. -1.
</event>
<event>
 5    1  0.3183383E-003  0.9118800E+02  0.7818608E-02  0.1130116E+00
         25   -1    0    0    0    0  0.00000000000E+00  0.00000000000E+00  0.99999998245E-14  0.12500000000E+03  0.12500000000E+03 0.  0.
        -11    1    3    3    0    0 -0.73640629109E+01  0.14822609746E+02  0.23474581742E+02  0.28722729161E+02  0.51100000000E-03 0.  1.
         23    2    1    0    0    0  0.16501877857E+02 -0.18737266864E+02 -0.23165091214E+02  0.90940954310E+02  0.84322230624E+02 0.  0.
         11    1    3    3    0    0  0.23865940768E+02 -0.33559876610E+02 -0.46639672957E+02  0.62218225148E+02  0.51100000000E-03 0. -1.
         22    1    1    0    0    0 -0.16501877857E+02  0.18737266864E+02  0.23165091214E+02  0.34059045690E+02  0.00000000000E+00 0. -1.
</event>
<event>
 5    1  0.3183383E-003  0.9118800E+02  0.7818608E-02  0.1130116E+00
         25   -1    0    0    0    0  0.00000000000E+00  0.00000000000E+00  0.99999998245E-14  0.12500000000E+03  0.12500000000E+03 0.  0.
        -11    1    3    3    0    0 -0.19358739859E+02 -0.13052269585E+02  0.28766014594E+02  0.37048699655E+02  0.51100000000E-03 0. -1.
         23    2    1    0    0    0 -0.24129475796E+01  0.27681662861E+02 -0.96876348723E+01  0.95573021830E+02  0.90929948079E+02 0.  0.
         11    1    3    3    0    0  0.16945792280E+02  0.40733932447E+02 -0.38453649466E+02  0.58524322175E+02  0.51100000000E-03 0.  1.
         22    1    1    0    0    0  0.24129475796E+01 -0.27681662861E+02  0.96876348723E+01  0.29426978170E+02  0.00000000000E+00 0.  1.
</event>
<event>
 5    1  0.3183383E-003  0.9118800E+02  0.7818608E-02  0.1130116E+00
         25   -1    0    0    0    0  0.00000000000E+00  0.00000000000E+00  0.99999998245E-14  0.12500000000E+03  0.12500000000E+03 0.  0.
        -11    1    3    3    0    0  0.63380755767E+01 -0.42758907157E+02  0.22787452961E+02  0.48864745533E+02  0.51100000000E-03 0.  1.
         23    2    1    0    0    0  0.31479057986E+02 -0.26601049801E+02  0.20849098163E+02  0.78813077214E+02  0.63861328701E+02 0.  0.
         11    1    3    3    0    0  0.25140982410E+02  0.16157857356E+02 -0.19383547983E+01  0.29948331681E+02  0.51100000000E-03 0. -1.
         22    1    1    0    0    0 -0.31479057986E+02  0.26601049801E+02 -0.20849098163E+02  0.46186922786E+02  0.00000000000E+00 0.  1.
</event>
<event>
 5    1  0.3183383E-003  0.9118800E+02  0.7818608E-02  0.1130116E+00
         25   -1    0    0    0    0  0.00000000000E+00  0.00000000000E+00  0.99999998245E-14  0.12500000000E+03  0.12500000000E+03 0.  0.
        -11    1    3    3    0    0 -0.16855232104E+02 -0.25272115711E+02  0.24065789929E+02  0.38754882621E+02  0.51100000000E-03 0. -1.
         23    2    1    0    0    0 -0.31804324931E+02  0.86749812571E+01 -0.11443035152E+02  0.90104249003E+02  0.83072632382E+02 0.  0.
         11    1    3    3    0    0 -0.14949092827E+02  0.33947096969E+02 -0.35508825081E+02  0.51349366382E+02  0.51100000000E-03 0.  1.
         22    1    1    0    0    0  0.31804324931E+02 -0.86749812571E+01  0.11443035152E+02  0.34895750997E+02  0.00000000000E+00 0. -1.
</event>
<event>
 5    1  0.3183383E-003  0.9118800E+02  0.7818608E-02  0.1130116E+00
         25   -1    0    0    0    0  0.00000000000E+00  0.00000000000E+00  0.99999998245E-14  0.12500000000E+03  0.12500000000E+03 0.  0.
        -11    1    3    3    0    0 -0.85598894783E+01 -0.31768393220E+02 -0.13990190752E+02  0.35752313956E+02  0.51100000000E-03 0.  1.
         23    2    1    0    0    0  0.42146108067E+01  0.27286051268E+02 -0.65039615662E+01  0.96634650467E+02  0.92377825352E+02 0.  0.
         11    1    3    3    0    0  0.12774500285E+02  0.59054444489E+02  0.74862291856E+01  0.60882336511E+02  0.51100000000E-03 0. -1.
         22    1    1    0    0    0 -0.42146108067E+01 -0.27286051268E+02  0.65039615662E+01  0.28365349533E+02  0.00000000000E+00 0. -1.
</event>
<event>
 5    1  0.3183383E-003  0.9118800E+02  0.7818608E-02  0.1130116E+00
         25   -1    0    0    0    0  0.00000000000E+00  0.00000000000E+00  0.99999998245E-14  0.12500000000E+03  0.12500000000E+03 0.  0.
        -11    1    3    3    0    0 -0.38033221354E+02  0.24366810001E+02  0.42368821376E+02  0.61930480228E+02  0.51100000000E-03 0.  1.
         23    2    1    0    0    0 -0.13407711240E+02  0.10103561356E+02  0.23665487575E+02  0.95984418411E+02  0.91493740784E+02 0.  0.
         11    1    3    3    0    0  0.24625510114E+02 -0.14263248644E+02 -0.18703333801E+02  0.34053938183E+02  0.51100000000E-03 0. -1.
         22    1    1    0    0    0  0.13407711240E+02 -0.10103561356E+02 -0.23665487575E+02  0.29015581589E+02  0.00000000000E+00 0.  1.
</event>
<event>
 5    1  0.3183383E-003  0.9118800E+02  0.7818608E-02  0.1130116E+00
         25   -1    0    0    0    0  0.00000000000E+00  0.00000000000E+00  0.99999998245E-14  0.12500000000E+03  0.12500000000E+03 0.  0.
        -11    1    3    3    0    0  0.30913089346E+02 -0.29950306197E+02 -0.18321397877E+02  0.46779413791E+02  0.51100000000E-03 0.  1.
         23    2    1    0    0    0  0.25984280208E+01 -0.23344314307E+02  0.19490958958E+02  0.94477773349E+02  0.89411651015E+02 0.  0.
         11    1    3    3    0    0 -0.28314661325E+02  0.66059918901E+01  0.37812356835E+02  0.47698359558E+02  0.51100000000E-03 0. -1.
         22    1    1    0    0    0 -0.25984280208E+01  0.23344314307E+02 -0.19490958958E+02  0.30522226651E+02  0.00000000000E+00 0. -1.
</event>
<event>
 5    1  0.3183383E-003  0.9118800E+02  0.7818608E-02  0.1130116E+00
         25   -1    0    0    0    0  0.00000000000E+00  0.00000000000E+00  0.99999998245E-14  0.12500000000E+03  0.12500000000E+03 0.  0.
        -11    1    3    3    0    0 -0.52776402253E+00 -0.40036294636E+02 -0.21652199394E+02  0.45519239470E+02  0.51100000000E-03 0. -1.
         23    2    1    0    0    0 -0.58984500277E+01  0.92199505870E+01 -0.27490978245E+02  0.95410253695E+02  0.90705917247E+02 0.  0.
         11    1    3    3    0    0 -0.53706860051E+01  0.49256245223E+02 -0.58387788509E+01  0.49891014225E+02  0.51100000000E-03 0.  1.
         22    1    1    0    0    0  0.58984500277E+01 -0.92199505870E+01  0.27490978245E+02  0.29589746305E+02  0.00000000000E+00 0.  1.
</event>
<event>
 5    1  0.3183383E-003  0.9118800E+02  0.7818608E-02  0.1130116E+00
         25   -1    0    0    0    0  0.00000000000E+00  0.00000000000E+00  0.99999998245E-14  0.12500000000E+03  0.12500000000E+03 0.  0.
        -11    1    3    3    0    0 -0.32637170051E+02  0.15303641051E+02  0.22048904088E+02  0.42255656072E+02  0.51100000000E-03 0. -1.
         23    2    1    0    0    0  0.14326706798E+02  0.25241394025E+02 -0.19238023177E+01  0.95912485233E+02  0.91395411855E+02 0.  0.
         11    1    3    3    0    0  0.46963876849E+02  0.99377529742E+01 -0.23972706406E+02  0.53656829160E+02  0.51100000000E-03 0.  1.
         22    1    1    0    0    0 -0.14326706798E+02 -0.25241394025E+02  0.19238023177E+01  0.29087514767E+02  0.00000000000E+00 0.  1.
</event>
<event>
 5    1  0.3183383E-003  0.9118800E+02  0.7818608E-02  0.1130116E+00
         25   -1    0    0    0    0  0.00000000000E+00  0.00000000000E+00  0.99999998245E-14  0.12500000000E+03  0.12500000000E+03 0.  0.
        -11    1    3    3    0    0 -0.13003946541E+02 -0.20584212415E+02  0.21591080990E+02  0.32542083599E+02  0.51100000000E-03 0. -1.
         23    2    1    0    0    0 -0.52507199262E+00  0.27614919195E+02 -0.14280262065E+02  0.93906827962E+02  0.88609858314E+02 0.  0.
         11    1    3    3    0    0  0.12478874549E+02  0.48199131610E+02 -0.35871343054E+02  0.61364744363E+02  0.51100000000E-03 0.  1.
         22    1    1    0    0    0  0.52507199262E+00 -0.27614919195E+02  0.14280262065E+02  0.31093172038E+02  0.00000000000E+00 0.  1.
</event>
<event>
 5    1  0.3183383E-003  0.9118800E+02  0.7818608E-02  0.1130116E+00
         25   -1    0    0    0    0  0.00000000000E+00  0.00000000000E+00  0.99999998245E-14  0.12500000000E+03  0.12500000000E+03 0.  0.
        -11    1    3    3    0    0 -0.72599275554E+01 -0.47171334725E+02  0.22216302057E+02  0.52644139704E+02  0.51100000000E-03 0. -1.
         23    2    1    0    0    0 -0.91667281502E+01 -0.23260837263E+02 -0.14197531536E+02  0.96248211240E+02  0.91853431129E+02 0.  0.
         11    1    3    3    0    0 -0.19068005948E+01  0.23910497462E+02 -0.36413833593E+02  0.43604071537E+02  0.51100000000E-03 0.  1.
         22    1    1    0    0    0  0.91667281502E+01  0.23260837263E+02  0.14197531536E+02  0.28751788760E+02  0.00000000000E+00 0. -1.
</event>
<event>
 5    1  0.3183383E-003  0.9118800E+02  0.7818608E-02  0.1130116E+00
         25   -1    0    0    0    0  0.00000000000E+00  0.00000000000E+00  0.99999998245E-14  0.12500000000E+03  0.12500000000E+03 0.  0.
        -11    1    3    3    0    0  0.21269439852E+02 -0.30346973298E+02  0.37332617968E+02  0.52602777727E+02  0.51100000000E-03 0. -1.
         23    2    1    0    0    0  0.11257597546E+02  0.13198428751E+02  0.10553546455E+02  0.10469459760E+03  0.10270661809E+03 0.  0.
         11    1    3    3    0    0 -0.10011842305E+02  0.43545402049E+02 -0.26779071513E+02  0.52091819870E+02  0.51100000000E-03 0.  1.
         22    1    1    0    0    0 -0.11257597546E+02 -0.13198428751E+02 -0.10553546455E+02  0.20305402404E+02  0.00000000000E+00 0.  1.
</event>
<event>
 5    1  0.3183383E-003  0.9118800E+02  0.7818608E-02  0.1130116E+00
         25   -1    0    0    0    0  0.00000000000E+00  0.00000000000E+00  0.99999998245E-14  0.12500000000E+03  0.12500000000E+03 0.  0.
        -11    1    3    3    0    0  0.26266291357E+02  0.31657700480E+02 -0.14926372007E+02  0.43759851952E+02  0.51100000000E-03 0. -1.
         23    2    1    0    0    0 -0.69151643426E+00 -0.39886396181E+01 -0.32842222510E+02  0.91909230586E+02  0.85745598409E+02 0.  0.
         11    1    3    3    0    0 -0.26957807792E+02 -0.35646340098E+02 -0.17915850503E+02  0.48149378634E+02  0.51100000000E-03 0.  1.
         22    1    1    0    0    0  0.69151643426E+00  0.39886396181E+01  0.32842222510E+02  0.33090769414E+02  0.00000000000E+00 0.  1.
</event>
<event>
 5    1  0.3183383E-003  0.9118800E+02  0.7818608E-02  0.1130116E+00
         25   -1    0    0    0    0  0.00000000000E+00  0.00000000000E+00  0.99999998245E-14  0.12500000000E+03  0.12500000000E+03 0.  0.
        -11    1    3    3    0    0 -0.13850714825E+02  0.37232835999E+02 -0.43103266115E+02  0.58617556481E+02  0.51100000000E-03 0.  1.
         23    2    1    0    0    0  0.40375361695E+01  0.26243151266E+02 -0.12694862254E+02  0.95569332078E+02  0.90924875691E+02 0.  0.
         11    1    3    3    0    0  0.17888250994E+02 -0.10989684733E+02  0.30408403861E+02  0.36951775597E+02  0.51100000000E-03 0. -1.
         22    1    1    0    0    0 -0.40375361695E+01 -0.26243151266E+02  0.12694862254E+02  0.29430667922E+02  0.00000000000E+00 0.  1.
</event>
<event>
 5    1  0.3183383E-003  0.9118800E+02  0.7818608E-02  0.1130116E+00
         25   -1    0    0    0    0  0.00000000000E+00  0.00000000000E+00  0.99999998245E-14  0.12500000000E+03  0.12500000000E+03 0.  0.
        -11    1    3    3    0    0  0.18176645061E+01 -0.34749865382E+02  0.31278561073E+02  0.46788945611E+02  0.51100000000E-03 0.  1.
         23    2    1    0    0    0  0.27287548775E+02  0.14804800452E+01  0.13613457704E+02  0.94469222579E+02  0.89399695999E+02 0.  0.
         11    1    3    3    0    0  0.25469884268E+02  0.36230345428E+02 -0.17665103368E+02  0.47680276968E+02  0.51100000000E-03 0. -1.
         22    1    1    0    0    0 -0.27287548775E+02 -0.14804800452E+01 -0.13613457704E+02  0.30530777421E+02  0.00000000000E+00 0.  1.
</event>
<event>
 5    1  0.3183383E-003  0.9118800E+02  0.7818608E-02  0.1130116E+00
         25   -1    0    0    0    0  0.00000000000E+00  0.00000000000E+00  0.99999998245E-14  0.12500000000E+03  0.12500000000E+03 0.  0.
        -11    1    3    3    0    0 -0.41966234266E+02 -0.19978809414E+02  0.34200394669E+02  0.57706019095E+02  0.51100000000E-03 0.  1.
         23    2    1    0    0    0 -0.12470554344E+02  0.21227380133E+01  0.26892308771E+02  0.95281032768E+02  0.90527665341E+02 0.  0.
         11    1    3    3    0    0  0.29495679922E+02  0.22101547427E+02 -0.73080858981E+01  0.37575013673E+02  0.51100000000E-03 0. -1.
         22    1    1    0    0    0  0.12470554344E+02 -0.21227380133E+01 -0.26892308771E+02  0.29718967232E+02  0.00000000000E+00 0.  1.
</event>
<event>
 5    1  0.3183383E-003  0.9118800E+02  0.7818608E-02  0.1130116E+00
         25   -1    0    0    0    0  0.00000000000E+00  0.00000000000E+00  0.99999998245E-14  0.12500000000E+03  0.12500000000E+03 0.  0.
        -11    1    3    3    0    0  0.35115580047E+02 -0.62849463618E+01 -0.42969077249E+02  0.55847525574E+02  0.51100000000E-03 0. -1.
         23    2    1    0    0    0  0.14471656443E+02  0.17402292736E+02 -0.20355147144E+02  0.94559884232E+02  0.89526370741E+02 0.  0.
         11    1    3    3    0    0 -0.20643923604E+02  0.23687239098E+02  0.22613930104E+02  0.38712358658E+02  0.51100000000E-03 0.  1.
         22    1    1    0    0    0 -0.14471656443E+02 -0.17402292736E+02  0.20355147144E+02  0.30440115768E+02  0.00000000000E+00 0. -1.
</event>
<event>
 5    1  0.3183383E-003  0.9118800E+02  0.7818608E-02  0.1130116E+00
         25   -1    0    0    0    0  0.00000000000E+00  0.00000000000E+00  0.99999998245E-14  0.12500000000E+03  0.12500000000E+03 0.  0.
        -11    1    3    3    0    0  0.20626085480E+02  0.46637447223E+02 -0.26779855602E+02  0.57599023881E+02  0.51100000000E-03 0.  1.
         23    2    1    0    0    0  0.22964511997E+02  0.29603936424E+02 -0.23671818882E+01  0.87458484138E+02  0.78991271889E+02 0.  0.
         11    1    3    3    0    0  0.23384265176E+01 -0.17033510799E+02  0.24412673714E+02  0.29859460257E+02  0.51100000000E-03 0. -1.
         22    1    1    0    0    0 -0.22964511997E+02 -0.29603936424E+02  0.23671818882E+01  0.37541515862E+02  0.00000000000E+00 0.  1.
</event>
<event>
 5    1  0.3183383E-003  0.9118800E+02  0.7818608E-02  0.1130116E+00
         25   -1    0    0    0    0  0.00000000000E+00  0.00000000000E+00  0.99999998245E-14  0.12500000000E+03  0.12500000000E+03 0.  0.
        -11    1    3    3    0    0 -0.18545209014E+02  0.33232281309E+02 -0.34651734039E+02  0.51468941805E+02  0.51100000000E-03 0.  1.
         23    2    1    0    0    0 -0.34920649304E+01  0.27188277933E+02  0.74554678519E+01  0.96592589429E+02  0.92320893395E+02 0.  0.
         11    1    3    3    0    0  0.15053144083E+02 -0.60440033754E+01  0.42107201891E+02  0.45123647624E+02  0.51100000000E-03 0. -1.
         22    1    1    0    0    0  0.34920649304E+01 -0.27188277933E+02 -0.74554678519E+01  0.28407410571E+02  0.00000000000E+00 0.  1.
</event>
<event>
 5    1  0.3183383E-003  0.9118800E+02  0.7818608E-02  0.1130116E+00
         25   -1    0    0    0    0  0.00000000000E+00  0.00000000000E+00  0.99999998245E-14  0.12500000000E+03  0.12500000000E+03 0.  0.
        -11    1    3    3    0    0  0.52960505740E+02 -0.27625004070E+02  0.15181832619E+02  0.61631518398E+02  0.51100000000E-03 0.  1.
         23    2    1    0    0    0  0.22378714524E+02 -0.11237015806E+02  0.13918168269E+02  0.96350518400E+02  0.91992551872E+02 0.  0.
         11    1    3    3    0    0 -0.30581791216E+02  0.16387988264E+02 -0.12636643500E+01  0.34719000002E+02  0.51100000000E-03 0. -1.
         22    1    1    0    0    0 -0.22378714524E+02  0.11237015806E+02 -0.13918168269E+02  0.28649481600E+02  0.00000000000E+00 0.  1.
</event>
<event>
 5    1  0.3183383E-003  0.9118800E+02  0.7818608E-02  0.1130116E+00
         25   -1    0    0    0    0  0.00000000000E+00  0.00000000000E+00  0.99999998245E-14  0.12500000000E+03  0.12500000000E+03 0.  0.
        -11    1    3    3    0    0 -0.52657998471E+02  0.25744371407E+01  0.17402556312E+02  0.55518839109E+02  0.51100000000E-03 0.  1.
         23    2    1    0    0    0 -0.15630998915E+02  0.18190582772E+02  0.16815701415E+02  0.95708478313E+02  0.91115967746E+02 0.  0.
         11    1    3    3    0    0  0.37026999555E+02  0.15616145631E+02 -0.58685489642E+00  0.40189639204E+02  0.51100000000E-03 0. -1.
         22    1    1    0    0    0  0.15630998915E+02 -0.18190582772E+02 -0.16815701415E+02  0.29291521687E+02  0.00000000000E+00 0.  1.
</event>
<event>
 5    1  0.3183383E-003  0.9118800E+02  0.7818608E-02  0.1130116E+00
         25   -1    0    0    0    0  0.00000000000E+00  0.00000000000E+00  0.99999998245E-14  0.12500000000E+03  0.12500000000E+03 0.  0.
        -11    1    3    3    0    0 -0.37492036133E+02  0.68078494171E+01  0.23020279241E+02  0.44518904340E+02  0.51100000000E-03 0.  1.
         23    2    1    0    0    0 -0.14431286430E+02 -0.20073499125E+02 -0.14680975720E+02  0.96246940280E+02  0.91851701509E+02 0.  0.
         11    1    3    3    0    0  0.23060749703E+02 -0.26881348542E+02 -0.37701254961E+02  0.51728035940E+02  0.51100000000E-03 0. -1.
         22    1    1    0    0    0  0.14431286430E+02  0.20073499125E+02  0.14680975720E+02  0.28753059720E+02  0.00000000000E+00 0. -1.
</event>
<event>
 5    1  0.3183383E-003  0.9118800E+02  0.7818608E-02  0.1130116E+00
         25   -1    0    0    0    0  0.00000000000E+00  0.00000000000E+00  0.99999998245E-14  0.12500000000E+03  0.12500000000E+03 0.  0.
        -11    1    3    3    0    0 -0.49979082673E+02  0.26794035109E+02  0.21494598978E+02  0.60645253794E+02  0.51100000000E-03 0.  1.
         23    2    1    0    0    0 -0.19249194189E+02  0.17001550750E+02  0.19114132210E+02  0.92985405594E+02  0.87300351652E+02 0.  0.
         11    1    3    3    0    0  0.30729888484E+02 -0.97924843589E+01 -0.23804667681E+01  0.32340151800E+02  0.51100000000E-03 0. -1.
         22    1    1    0    0    0  0.19249194189E+02 -0.17001550750E+02 -0.19114132210E+02  0.32014594406E+02  0.00000000000E+00 0.  1.
</event>
<event>
 5    1  0.3183383E-003  0.9118800E+02  0.7818608E-02  0.1130116E+00
         25   -1    0    0    0    0  0.00000000000E+00  0.00000000000E+00  0.99999998245E-14  0.12500000000E+03  0.12500000000E+03 0.  0.
        -11    1    3    3    0    0 -0.54024266263E+02  0.17331798697E+02  0.18315071266E+02  0.59619245442E+02  0.51100000000E-03 0.  1.
         23    2    1    0    0    0 -0.21338136772E+02  0.61117840538E+00  0.19119452696E+02  0.96342660777E+02  0.91981874270E+02 0.  0.
         11    1    3    3    0    0  0.32686129492E+02 -0.16720620292E+02  0.80438143068E+00  0.36723415335E+02  0.51100000000E-03 0. -1.
         22    1    1    0    0    0  0.21338136772E+02 -0.61117840538E+00 -0.19119452696E+02  0.28657339223E+02  0.00000000000E+00 0.  1.
</event>
<event>
 5    1  0.3183383E-003  0.9118800E+02  0.7818608E-02  0.1130116E+00
         25   -1    0    0    0    0  0.00000000000E+00  0.00000000000E+00  0.99999998245E-14  0.12500000000E+03  0.12500000000E+03 0.  0.
        -11    1    3    3    0    0 -0.44655631800E+02 -0.27348951561E+02 -0.18644970087E+02  0.55585299430E+02  0.51100000000E-03 0. -1.
         23    2    1    0    0    0 -0.30150001489E+02  0.53907083909E+01 -0.47028088196E+01  0.94012926283E+02  0.88759402718E+02 0.  0.
         11    1    3    3    0    0  0.14505630311E+02  0.32739659952E+02  0.13942161268E+02  0.38427626853E+02  0.51100000000E-03 0.  1.
         22    1    1    0    0    0  0.30150001489E+02 -0.53907083909E+01  0.47028088196E+01  0.30987073717E+02  0.00000000000E+00 0. -1.
</event>
<event>
 5    1  0.3183383E-003  0.9118800E+02  0.7818608E-02  0.1130116E+00
         25   -1    0    0    0    0  0.00000000000E+00  0.00000000000E+00  0.99999998245E-14  0.12500000000E+03  0.12500000000E+03 0.  0.
        -11    1    3    3    0    0  0.27698721889E+02 -0.11742292543E+02  0.27182754086E+02  0.40546303757E+02  0.51100000000E-03 0. -1.
         23    2    1    0    0    0  0.71712703138E+01  0.30650100007E+02  0.33186787252E+01  0.93347679756E+02  0.87817537765E+02 0.  0.
         11    1    3    3    0    0 -0.20527451575E+02  0.42392392550E+02 -0.23864075361E+02  0.52801375999E+02  0.51100000000E-03 0.  1.
         22    1    1    0    0    0 -0.71712703138E+01 -0.30650100007E+02 -0.33186787252E+01  0.31652320244E+02  0.00000000000E+00 0.  1.
</event>
<event>
 5    1  0.3183383E-003  0.9118800E+02  0.7818608E-02  0.1130116E+00
         25   -1    0    0    0    0  0.00000000000E+00  0.00000000000E+00  0.99999998245E-14  0.12500000000E+03  0.12500000000E+03 0.  0.
        -11    1    3    3    0    0 -0.51112909088E+02  0.40023373408E+01  0.17989421180E+02  0.54333851826E+02  0.51100000000E-03 0.  1.
         23    2    1    0    0    0 -0.20132152095E+02 -0.19176594922E+02 -0.44465310456E+00  0.97192751715E+02  0.93129951835E+02 0.  0.
         11    1    3    3    0    0  0.30980756993E+02 -0.23178932263E+02 -0.18434074285E+02  0.42858899889E+02  0.51100000000E-03 0. -1.
         22    1    1    0    0    0  0.20132152095E+02  0.19176594922E+02  0.44465310456E+00  0.27807248285E+02  0.00000000000E+00 0.  1.
</event>
<event>
 5    1  0.3183383E-003  0.9118800E+02  0.7818608E-02  0.1130116E+00
         25   -1    0    0    0    0  0.00000000000E+00  0.00000000000E+00  0.99999998245E-14  0.12500000000E+03  0.12500000000E+03 0.  0.
        -11    1    3    3    0    0 -0.41215202367E+02  0.16265802956E+02 -0.43428729389E+02  0.62042918924E+02  0.51100000000E-03 0.  1.
         23    2    1    0    0    0 -0.17619020535E+02  0.36159968706E+01 -0.23438803386E+02  0.95455409595E+02  0.90768124355E+02 0.  0.
         11    1    3    3    0    0  0.23596181832E+02 -0.12649806086E+02  0.19989926002E+02  0.33412490672E+02  0.51100000000E-03 0. -1.
         22    1    1    0    0    0  0.17619020535E+02 -0.36159968706E+01  0.23438803386E+02  0.29544590405E+02  0.00000000000E+00 0.  1.
</event>
<event>
 5    1  0.3183383E-003  0.9118800E+02  0.7818608E-02  0.1130116E+00
         25   -1    0    0    0    0  0.00000000000E+00  0.00000000000E+00  0.99999998245E-14  0.12500000000E+03  0.12500000000E+03 0.  0.
        -11    1    3    3    0    0  0.31087172963E+02  0.67600949978E+01  0.18293784049E+02  0.36698416074E+02  0.51100000000E-03 0. -1.
         23    2    1    0    0    0 -0.23393185896E+02 -0.13659220955E+02  0.12495629788E+02  0.95167865861E+02  0.90371270132E+02 0.  0.
         11    1    3    3    0    0 -0.54480358859E+02 -0.20419315953E+02 -0.57981542605E+01  0.58469449788E+02  0.51100000000E-03 0.  1.
         22    1    1    0    0    0  0.23393185896E+02  0.13659220955E+02 -0.12495629788E+02  0.29832134139E+02  0.00000000000E+00 0.  1.
</event>
<event>
 5    1  0.3183383E-003  0.9118800E+02  0.7818608E-02  0.1130116E+00
         25   -1    0    0    0    0  0.00000000000E+00  0.00000000000E+00  0.99999998245E-14  0.12500000000E+03  0.12500000000E+03 0.  0.
        -11    1    3    3    0    0  0.27722759433E+02 -0.20624363042E+02  0.20265648453E+02  0.40057611623E+02  0.51100000000E-03 0.  1.
         23    2    1    0    0    0 -0.42513092380E+01  0.14717307007E+02 -0.18134073682E+02  0.10126147890E+03  0.98439675562E+02 0.  0.
         11    1    3    3    0    0 -0.31974068671E+02  0.35341670050E+02 -0.38399722134E+02  0.61203867276E+02  0.51100000000E-03 0. -1.
         22    1    1    0    0    0  0.42513092380E+01 -0.14717307007E+02  0.18134073682E+02  0.23738521101E+02  0.00000000000E+00 0. -1.
</event>
<event>
 5    1  0.3183383E-003  0.9118800E+02  0.7818608E-02  0.1130116E+00
         25   -1    0    0    0    0  0.00000000000E+00  0.00000000000E+00  0.99999998245E-14  0.12500000000E+03  0.12500000000E+03 0.  0.
        -11    1    3    3    0    0 -0.37763474247E+02  0.39377475490E+02 -0.29064759068E+02  0.61817681800E+02  0.51100000000E-03 0.  1.
         23    2    1    0    0    0 -0.14260620227E+02  0.23227063546E+02 -0.10798208643E+02  0.95683399240E+02  0.91081555817E+02 0.  0.
         11    1    3    3    0    0  0.23502854019E+02 -0.16150411945E+02  0.18266550425E+02  0.33865717440E+02  0.51100000000E-03 0. -1.
         22    1    1    0    0    0  0.14260620227E+02 -0.23227063546E+02  0.10798208643E+02  0.29316600760E+02  0.00000000000E+00 0.  1.
</event>
<event>
 5    1  0.3183383E-003  0.9118800E+02  0.7818608E-02  0.1130116E+00
         25   -1    0    0    0    0  0.00000000000E+00  0.00000000000E+00  0.99999998245E-14  0.12500000000E+03  0.12500000000E+03 0.  0.
        -11    1    3    3    0    0  0.13229662671E+02 -0.17732480827E+01  0.35630521029E+02  0.38048684763E+02  0.51100000000E-03 0. -1.
         23    2    1    0    0    0 -0.28868570408E+02  0.73428667413E+01 -0.18616585259E+01  0.95154098743E+02  0.90352225683E+02 0.  0.
         11    1    3    3    0    0 -0.42098233079E+02  0.91161148239E+01 -0.37492179555E+02  0.57105413980E+02  0.51100000000E-03 0.  1.
         22    1    1    0    0    0  0.28868570408E+02 -0.73428667413E+01  0.18616585259E+01  0.29845901257E+02  0.00000000000E+00 0.  1.
</event>
<event>
 5    1  0.3183383E-003  0.9118800E+02  0.7818608E-02  0.1130116E+00
         25   -1    0    0    0    0  0.00000000000E+00  0.00000000000E+00  0.99999998245E-14  0.12500000000E+03  0.12500000000E+03 0.  0.
        -11    1    3    3    0    0 -0.24523327502E+00 -0.43154022184E+02  0.30202180364E+02  0.52673536705E+02  0.51100000000E-03 0.  1.
         23    2    1    0    0    0 -0.22413033308E+02 -0.87235772562E+01  0.16413105144E+02  0.95882395657E+02  0.91354249568E+02 0.  0.
         11    1    3    3    0    0 -0.22167800033E+02  0.34430444928E+02 -0.13789075220E+02  0.43208858952E+02  0.51100000000E-03 0. -1.
         22    1    1    0    0    0  0.22413033308E+02  0.87235772562E+01 -0.16413105144E+02  0.29117604343E+02  0.00000000000E+00 0.  1.
</event>
<event>
 5    1  0.3183383E-003  0.9118800E+02  0.7818608E-02  0.1130116E+00
         25   -1    0    0    0    0  0.00000000000E+00  0.00000000000E+00  0.99999998245E-14  0.12500000000E+03  0.12500000000E+03 0.  0.
        -11    1    3    3    0    0 -0.47960016313E+02 -0.11233612543E+02 -0.22489556263E+01  0.49309380620E+02  0.51100000000E-03 0. -1.
         23    2    1    0    0    0 -0.33713177723E+01 -0.26893067401E+02  0.58904459870E+01  0.97263738325E+02  0.93225182120E+02 0.  0.
         11    1    3    3    0    0  0.44588698541E+02 -0.15659454858E+02  0.81394016134E+01  0.47954357705E+02  0.51100000000E-03 0.  1.
         22    1    1    0    0    0  0.33713177723E+01  0.26893067401E+02 -0.58904459870E+01  0.27736261675E+02  0.00000000000E+00 0. -1.
</event>
<event>
 5    1  0.3183383E-003  0.9118800E+02  0.7818608E-02  0.1130116E+00
         25   -1    0    0    0    0  0.00000000000E+00  0.00000000000E+00  0.99999998245E-14  0.12500000000E+03  0.12500000000E+03 0.  0.
        -11    1    3    3    0    0 -0.36401633431E+02 -0.19801045278E+02 -0.33577513285E+01  0.41574448941E+02  0.51100000000E-03 0.  1.
         23    2    1    0    0    0  0.20319489768E+02 -0.16078007438E+02  0.35929095494E+01  0.98841005626E+02  0.95316585160E+02 0.  0.
         11    1    3    3    0    0  0.56721123199E+02  0.37230378392E+01  0.69506608779E+01  0.57266556685E+02  0.51100000000E-03 0. -1.
         22    1    1    0    0    0 -0.20319489768E+02  0.16078007438E+02 -0.35929095494E+01  0.26158994374E+02  0.00000000000E+00 0. -1.
</event>
<event>
 5    1  0.3183383E-003  0.9118800E+02  0.7818608E-02  0.1130116E+00
         25   -1    0    0    0    0  0.00000000000E+00  0.00000000000E+00  0.99999998245E-14  0.12500000000E+03  0.12500000000E+03 0.  0.
        -11    1    3    3    0    0 -0.36139315469E+02 -0.14784500963E+01  0.76647703212E+01  0.36972755397E+02  0.51100000000E-03 0. -1.
         23    2    1    0    0    0  0.23708914013E+02  0.42541103729E+01  0.13516909840E+02  0.97379049430E+02  0.93379667796E+02 0.  0.
         11    1    3    3    0    0  0.59848229482E+02  0.57325604692E+01  0.58521395187E+01  0.60406294034E+02  0.51100000000E-03 0.  1.
         22    1    1    0    0    0 -0.23708914013E+02 -0.42541103729E+01 -0.13516909840E+02  0.27620950570E+02  0.00000000000E+00 0.  1.
</event>
<event>
 5    1  0.3183383E-003  0.9118800E+02  0.7818608E-02  0.1130116E+00
         25   -1    0    0    0    0  0.00000000000E+00  0.00000000000E+00  0.99999998245E-14  0.12500000000E+03  0.12500000000E+03 0.  0.
        -11    1    3    3    0    0 -0.20221380378E+02 -0.17739365395E+02 -0.19759541389E+02  0.33377069751E+02  0.51100000000E-03 0.  1.
         23    2    1    0    0    0  0.14873568949E+02  0.11783386120E+02  0.22379786750E+02  0.95658457833E+02  0.91047319886E+02 0.  0.
         11    1    3    3    0    0  0.35094949327E+02  0.29522751515E+02  0.42139328138E+02  0.62281388083E+02  0.51100000000E-03 0. -1.
         22    1    1    0    0    0 -0.14873568949E+02 -0.11783386120E+02 -0.22379786750E+02  0.29341542167E+02  0.00000000000E+00 0. -1.
</event>
<event>
 5    1  0.3183383E-003  0.9118800E+02  0.7818608E-02  0.1130116E+00
         25   -1    0    0    0    0  0.00000000000E+00  0.00000000000E+00  0.99999998245E-14  0.12500000000E+03  0.12500000000E+03 0.  0.
        -11    1    3    3    0    0 -0.93525630343E+01  0.51241064458E+02  0.46817768136E+01  0.52297573142E+02  0.51100000000E-03 0. -1.
         23    2    1    0    0    0  0.57167624824E+01  0.19324890205E+02  0.24894803213E+02  0.92970576313E+02  0.87279115934E+02 0.  0.
         11    1    3    3    0    0  0.15069325517E+02 -0.31916174253E+02  0.20213026399E+02  0.40673003171E+02  0.51100000000E-03 0.  1.
         22    1    1    0    0    0 -0.57167624824E+01 -0.19324890205E+02 -0.24894803213E+02  0.32029423687E+02  0.00000000000E+00 0. -1.
</event>
<event>
 5    1  0.3183383E-003  0.9118800E+02  0.7818608E-02  0.1130116E+00
         25   -1    0    0    0    0  0.00000000000E+00  0.00000000000E+00  0.99999998245E-14  0.12500000000E+03  0.12500000000E+03 0.  0.
        -11    1    3    3    0    0  0.22247291706E+02 -0.33908372799E+02 -0.13950088140E+02  0.42887348875E+02  0.51100000000E-03 0. -1.
         23    2    1    0    0    0 -0.21444884193E+02 -0.46331177670E+01 -0.19336080977E+02  0.95755635314E+02  0.91180638453E+02 0.  0.
         11    1    3    3    0    0 -0.43692175899E+02  0.29275255032E+02 -0.53859928368E+01  0.52868286440E+02  0.51100000000E-03 0.  1.
         22    1    1    0    0    0  0.21444884193E+02  0.46331177670E+01  0.19336080977E+02  0.29244364686E+02  0.00000000000E+00 0.  1.
</event>
<event>
 5    1  0.3183383E-003  0.9118800E+02  0.7818608E-02  0.1130116E+00
         25   -1    0    0    0    0  0.00000000000E+00  0.00000000000E+00  0.99999998245E-14  0.12500000000E+03  0.12500000000E+03 0.  0.
        -11    1    3    3    0    0 -0.48624911566E+02 -0.49471764984E+01  0.18897704788E+01  0.48912450489E+02  0.51100000000E-03 0.  1.
         23    2    1    0    0    0 -0.15465802334E+02  0.25882886000E+02  0.55676784180E+01  0.94338723567E+02  0.89217043729E+02 0.  0.
         11    1    3    3    0    0  0.33159109232E+02  0.30830062498E+02  0.36779079393E+01  0.45426273078E+02  0.51100000000E-03 0. -1.
         22    1    1    0    0    0  0.15465802334E+02 -0.25882886000E+02 -0.55676784180E+01  0.30661276433E+02  0.00000000000E+00 0. -1.
</event>
<event>
 5    1  0.3183383E-003  0.9118800E+02  0.7818608E-02  0.1130116E+00
         25   -1    0    0    0    0  0.00000000000E+00  0.00000000000E+00  0.99999998245E-14  0.12500000000E+03  0.12500000000E+03 0.  0.
        -11    1    3    3    0    0  0.10130543326E+02 -0.31278669579E+02  0.23255283523E+02  0.40271469935E+02  0.51100000000E-03 0. -1.
         23    2    1    0    0    0  0.83068818585E+01 -0.68289401325E+01 -0.26862568014E+02  0.96064964664E+02  0.91603718080E+02 0.  0.
         11    1    3    3    0    0 -0.18236614680E+01  0.24449729446E+02 -0.50117851538E+02  0.55793494730E+02  0.51100000000E-03 0.  1.
         22    1    1    0    0    0 -0.83068818585E+01  0.68289401325E+01  0.26862568014E+02  0.28935035336E+02  0.00000000000E+00 0. -1.
</event>
<event>
 5    1  0.3183383E-003  0.9118800E+02  0.7818608E-02  0.1130116E+00
         25   -1    0    0    0    0  0.00000000000E+00  0.00000000000E+00  0.99999998245E-14  0.12500000000E+03  0.12500000000E+03 0.  0.
        -11    1    3    3    0    0  0.26580964663E+02 -0.33413512827E+02  0.40233686164E+01  0.42885871999E+02  0.51100000000E-03 0. -1.
         23    2    1    0    0    0 -0.70157068179E+01 -0.94782231963E+01 -0.27680401108E+02  0.94912436745E+02  0.90017271600E+02 0.  0.
         11    1    3    3    0    0 -0.33596671481E+02  0.23935289630E+02 -0.31703769724E+02  0.52026564746E+02  0.51100000000E-03 0.  1.
         22    1    1    0    0    0  0.70157068179E+01  0.94782231963E+01  0.27680401108E+02  0.30087563255E+02  0.00000000000E+00 0.  1.
</event>
<event>
 5    1  0.3183383E-003  0.9118800E+02  0.7818608E-02  0.1130116E+00
         25   -1    0    0    0    0  0.00000000000E+00  0.00000000000E+00  0.99999998245E-14  0.12500000000E+03  0.12500000000E+03 0.  0.
        -11    1    3    3    0    0 -0.49589815894E+01 -0.31656092616E+02 -0.32723955500E+02  0.45799093462E+02  0.51100000000E-03 0.  1.
         23    2    1    0    0    0  0.13037908025E+01 -0.24849766779E+02  0.16015012060E+02  0.95407916756E+02  0.90702696701E+02 0.  0.
         11    1    3    3    0    0  0.62627723919E+01  0.68063258364E+01  0.48738967561E+02  0.49608823294E+02  0.51100000000E-03 0. -1.
         22    1    1    0    0    0 -0.13037908025E+01  0.24849766779E+02 -0.16015012060E+02  0.29592083244E+02  0.00000000000E+00 0.  1.
</event>
<event>
 5    1  0.3183383E-003  0.9118800E+02  0.7818608E-02  0.1130116E+00
         25   -1    0    0    0    0  0.00000000000E+00  0.00000000000E+00  0.99999998245E-14  0.12500000000E+03  0.12500000000E+03 0.  0.
        -11    1    3    3    0    0 -0.11761572499E+01  0.51080368260E+01  0.35378536164E+02  0.35764734131E+02  0.51100000000E-03 0.  1.
         23    2    1    0    0    0 -0.20670045674E+02 -0.79988561217E+01 -0.19512464049E+02  0.95470883171E+02  0.90789431063E+02 0.  0.
         11    1    3    3    0    0 -0.19493888425E+02 -0.13106892948E+02 -0.54891000212E+02  0.59706149040E+02  0.51100000000E-03 0. -1.
         22    1    1    0    0    0  0.20670045674E+02  0.79988561217E+01  0.19512464049E+02  0.29529116829E+02  0.00000000000E+00 0. -1.
</event>
<event>
 5    1  0.3183383E-003  0.9118800E+02  0.7818608E-02  0.1130116E+00
         25   -1    0    0    0    0  0.00000000000E+00  0.00000000000E+00  0.99999998245E-14  0.12500000000E+03  0.12500000000E+03 0.  0.
        -11    1    3    3    0    0 -0.19109503888E+02  0.10989025775E+02 -0.25650587665E+02  0.33821361211E+02  0.51100000000E-03 0.  1.
         23    2    1    0    0    0  0.28839931839E+02 -0.11906398909E+02 -0.21480042838E+02  0.87119975662E+02  0.78453769289E+02 0.  0.
         11    1    3    3    0    0  0.47949435727E+02 -0.22895424685E+02  0.41705448267E+01  0.53298614452E+02  0.51100000000E-03 0. -1.
         22    1    1    0    0    0 -0.28839931839E+02  0.11906398909E+02  0.21480042838E+02  0.37880024338E+02  0.00000000000E+00 0. -1.
</event>
<event>
 5    1  0.3183383E-003  0.9118800E+02  0.7818608E-02  0.1130116E+00
         25   -1    0    0    0    0  0.00000000000E+00  0.00000000000E+00  0.99999998245E-14  0.12500000000E+03  0.12500000000E+03 0.  0.
        -11    1    3    3    0    0  0.59799203674E+02 -0.10856940507E+01  0.15108392243E+02  0.61687818960E+02  0.51100000000E-03 0.  1.
         23    2    1    0    0    0  0.22998533183E+02  0.32131363216E+01  0.11978493536E+02  0.98870685409E+02  0.95355499853E+02 0.  0.
         11    1    3    3    0    0 -0.36800670491E+02  0.42988303723E+01 -0.31298987062E+01  0.37182866449E+02  0.51100000000E-03 0. -1.
         22    1    1    0    0    0 -0.22998533183E+02 -0.32131363216E+01 -0.11978493536E+02  0.26129314591E+02  0.00000000000E+00 0.  1.
</event>
<event>
 5    1  0.3183383E-003  0.9118800E+02  0.7818608E-02  0.1130116E+00
         25   -1    0    0    0    0  0.00000000000E+00  0.00000000000E+00  0.99999998245E-14  0.12500000000E+03  0.12500000000E+03 0.  0.
        -11    1    3    3    0    0 -0.34145970651E+02 -0.13975937941E+02 -0.12938045752E+02  0.39098173629E+02  0.51100000000E-03 0. -1.
         23    2    1    0    0    0  0.80184854065E+01 -0.35319329029E+02 -0.13465335086E+02  0.86359783124E+02  0.77233061450E+02 0.  0.
         11    1    3    3    0    0  0.42164456057E+02 -0.21343391088E+02 -0.52728933418E+00  0.47261609495E+02  0.51100000000E-03 0.  1.
         22    1    1    0    0    0 -0.80184854065E+01  0.35319329029E+02  0.13465335086E+02  0.38640216876E+02  0.00000000000E+00 0.  1.
</event>
<event>
 5    1  0.3183383E-003  0.9118800E+02  0.7818608E-02  0.1130116E+00
         25   -1    0    0    0    0  0.00000000000E+00  0.00000000000E+00  0.99999998245E-14  0.12500000000E+03  0.12500000000E+03 0.  0.
        -11    1    3    3    0    0 -0.17017636419E+02  0.25739898553E+01 -0.43238836075E+02  0.46538396174E+02  0.51100000000E-03 0.  1.
         23    2    1    0    0    0  0.21820356235E+02 -0.98745695107E+01 -0.21797381820E+02  0.92615421518E+02  0.86768977056E+02 0.  0.
         11    1    3    3    0    0  0.38837992655E+02 -0.12448559366E+02  0.21441454254E+02  0.46077025344E+02  0.51100000000E-03 0. -1.
         22    1    1    0    0    0 -0.21820356235E+02  0.98745695107E+01  0.21797381820E+02  0.32384578482E+02  0.00000000000E+00 0. -1.
</event>
<event>
 5    1  0.3183383E-003  0.9118800E+02  0.7818608E-02  0.1130116E+00
         25   -1    0    0    0    0  0.00000000000E+00  0.00000000000E+00  0.99999998245E-14  0.12500000000E+03  0.12500000000E+03 0.  0.
        -11    1    3    3    0    0  0.15753165396E+02 -0.16433938677E+02  0.52417876171E+02  0.57147793509E+02  0.51100000000E-03 0.  1.
         23    2    1    0    0    0  0.49750907446E+01  0.10393005067E+02  0.27002454036E+02  0.95641890282E+02  0.91024571247E+02 0.  0.
         11    1    3    3    0    0 -0.10778074651E+02  0.26826943744E+02 -0.25415422135E+02  0.38494096773E+02  0.51100000000E-03 0. -1.
         22    1    1    0    0    0 -0.49750907446E+01 -0.10393005067E+02 -0.27002454036E+02  0.29358109718E+02  0.00000000000E+00 0.  1.
</event>
<event>
 5    1  0.3183383E-003  0.9118800E+02  0.7818608E-02  0.1130116E+00
         25   -1    0    0    0    0  0.00000000000E+00  0.00000000000E+00  0.99999998245E-14  0.12500000000E+03  0.12500000000E+03 0.  0.
        -11    1    3    3    0    0 -0.17421057051E+01 -0.10243066201E+02  0.48300170580E+02  0.49405078847E+02  0.51100000000E-03 0. -1.
         23    2    1    0    0    0  0.20069314091E+02 -0.20098155299E+02  0.93935318223E+01  0.95084257412E+02  0.90255550261E+02 0.  0.
         11    1    3    3    0    0  0.21811419797E+02 -0.98550890977E+01 -0.38906638758E+02  0.45679178565E+02  0.51100000000E-03 0.  1.
         22    1    1    0    0    0 -0.20069314091E+02  0.20098155299E+02 -0.93935318223E+01  0.29915742588E+02  0.00000000000E+00 0.  1.
</event>
<event>
 5    1  0.3183383E-003  0.9118800E+02  0.7818608E-02  0.1130116E+00
         25   -1    0    0    0    0  0.00000000000E+00  0.00000000000E+00  0.99999998245E-14  0.12500000000E+03  0.12500000000E+03 0.  0.
        -11    1    3    3    0    0  0.31172904715E+02 -0.10499886714E+02 -0.14224439314E+02  0.35837581998E+02  0.51100000000E-03 0.  1.
         23    2    1    0    0    0 -0.33451520564E+01 -0.21297703792E+02  0.26849964922E+02  0.90565963853E+02  0.83764497033E+02 0.  0.
         11    1    3    3    0    0 -0.34518056771E+02 -0.10797817078E+02  0.41074404236E+02  0.54728381855E+02  0.51100000000E-03 0. -1.
         22    1    1    0    0    0  0.33451520564E+01  0.21297703792E+02 -0.26849964922E+02  0.34434036147E+02  0.00000000000E+00 0. -1.
</event>
<event>
 5    1  0.3183383E-003  0.9118800E+02  0.7818608E-02  0.1130116E+00
         25   -1    0    0    0    0  0.00000000000E+00  0.00000000000E+00  0.99999998245E-14  0.12500000000E+03  0.12500000000E+03 0.  0.
        -11    1    3    3    0    0  0.10595077918E+02 -0.22246901859E+00  0.21885335839E+02  0.24316107699E+02  0.51100000000E-03 0.  1.
         23    2    1    0    0    0  0.15236869475E+02  0.26151956240E+01 -0.37754147152E+02  0.84203222349E+02  0.73660067793E+02 0.  0.
         11    1    3    3    0    0  0.46417915563E+01  0.28376646425E+01 -0.59639482991E+02  0.59887114650E+02  0.51100000000E-03 0. -1.
         22    1    1    0    0    0 -0.15236869475E+02 -0.26151956240E+01  0.37754147152E+02  0.40796777651E+02  0.00000000000E+00 0. -1.
</event>
<event>
 5    1  0.3183383E-003  0.9118800E+02  0.7818608E-02  0.1130116E+00
         25   -1    0    0    0    0  0.00000000000E+00  0.00000000000E+00  0.99999998245E-14  0.12500000000E+03  0.12500000000E+03 0.  0.
        -11    1    3    3    0    0  0.37673568193E+02  0.88031504968E+01 -0.45854520112E+02  0.59995251596E+02  0.51100000000E-03 0. -1.
         23    2    1    0    0    0  0.11263572458E+02  0.14082107723E+02 -0.25565712658E+02  0.93714548331E+02  0.88338197190E+02 0.  0.
         11    1    3    3    0    0 -0.26409995736E+02  0.52789572259E+01  0.20288807454E+02  0.33719296735E+02  0.51100000000E-03 0.  1.
         22    1    1    0    0    0 -0.11263572458E+02 -0.14082107723E+02  0.25565712658E+02  0.31285451669E+02  0.00000000000E+00 0. -1.
</event>
<event>
 5    1  0.3183383E-003  0.9118800E+02  0.7818608E-02  0.1130116E+00
         25   -1    0    0    0    0  0.00000000000E+00  0.00000000000E+00  0.99999998245E-14  0.12500000000E+03  0.12500000000E+03 0.  0.
        -11    1    3    3    0    0 -0.35402959224E+02 -0.91037092424E+01  0.16883698541E+01  0.36593683018E+02  0.51100000000E-03 0.  1.
         23    2    1    0    0    0  0.22008664706E+02 -0.19795927833E+02  0.44904585205E+01  0.95059654333E+02  0.90221469636E+02 0.  0.
         11    1    3    3    0    0  0.57411623930E+02 -0.10692218590E+02  0.28020886665E+01  0.58465971315E+02  0.51100000000E-03 0. -1.
         22    1    1    0    0    0 -0.22008664706E+02  0.19795927833E+02 -0.44904585205E+01  0.29940345667E+02  0.00000000000E+00 0. -1.
</event>
<event>
 5    1  0.3183383E-003  0.9118800E+02  0.7818608E-02  0.1130116E+00
         25   -1    0    0    0    0  0.00000000000E+00  0.00000000000E+00  0.99999998245E-14  0.12500000000E+03  0.12500000000E+03 0.  0.
        -11    1    3    3    0    0  0.52169714006E+02  0.65478477485E+00  0.22130992753E+02  0.56673526827E+02  0.51100000000E-03 0.  1.
         23    2    1    0    0    0  0.27698141135E+02  0.13203475548E+02 -0.33100125572E+01  0.94137806753E+02  0.88935098180E+02 0.  0.
         11    1    3    3    0    0 -0.24471572871E+02  0.12548690773E+02 -0.25441005311E+02  0.37464279926E+02  0.51100000000E-03 0. -1.
         22    1    1    0    0    0 -0.27698141135E+02 -0.13203475548E+02  0.33100125572E+01  0.30862193247E+02  0.00000000000E+00 0.  1.
</event>
<event>
 5    1  0.3183383E-003  0.9118800E+02  0.7818608E-02  0.1130116E+00
         25   -1    0    0    0    0  0.00000000000E+00  0.00000000000E+00  0.99999998245E-14  0.12500000000E+03  0.12500000000E+03 0.  0.
        -11    1    3    3    0    0  0.14033613082E+01  0.36444577171E+02  0.31894568320E+02  0.48450388200E+02  0.51100000000E-03 0.  1.
         23    2    1    0    0    0 -0.47049445119E+01 -0.10666687971E+02  0.26234193148E+02  0.96292028542E+02  0.91913041161E+02 0.  0.
         11    1    3    3    0    0 -0.61083058201E+01 -0.47111265142E+02 -0.56603751723E+01  0.47841640342E+02  0.51100000000E-03 0. -1.
         22    1    1    0    0    0  0.47049445119E+01  0.10666687971E+02 -0.26234193148E+02  0.28707971458E+02  0.00000000000E+00 0. -1.
</event>
<event>
 5    1  0.3183383E-003  0.9118800E+02  0.7818608E-02  0.1130116E+00
         25   -1    0    0    0    0  0.00000000000E+00  0.00000000000E+00  0.99999998245E-14  0.12500000000E+03  0.12500000000E+03 0.  0.
        -11    1    3    3    0    0 -0.26237582242E+02 -0.16414616521E+02  0.33335340281E+02  0.45487308882E+02  0.51100000000E-03 0.  1.
         23    2    1    0    0    0  0.21962850635E+02 -0.67880619657E+01  0.92913163845E+01  0.10020538055E+03  0.97089366764E+02 0.  0.
         11    1    3    3    0    0  0.48200432877E+02  0.96265545552E+01 -0.24044023896E+02  0.54718071673E+02  0.51100000000E-03 0. -1.
         22    1    1    0    0    0 -0.21962850635E+02  0.67880619657E+01 -0.92913163845E+01  0.24794619445E+02  0.00000000000E+00 0. -1.
</event>
<event>
 5    1  0.3183383E-003  0.9118800E+02  0.7818608E-02  0.1130116E+00
         25   -1    0    0    0    0  0.00000000000E+00  0.00000000000E+00  0.99999998245E-14  0.12500000000E+03  0.12500000000E+03 0.  0.
        -11    1    3    3    0    0 -0.57710030367E+02 -0.13329402497E+02  0.14850243195E+02  0.61062675171E+02  0.51100000000E-03 0.  1.
         23    2    1    0    0    0 -0.29269175642E+02 -0.12155633777E+01 -0.76429823649E+00  0.95695625090E+02  0.91098332984E+02 0.  0.
         11    1    3    3    0    0  0.28440854725E+02  0.12113839120E+02 -0.15614541431E+02  0.34632949919E+02  0.51100000000E-03 0. -1.
         22    1    1    0    0    0  0.29269175642E+02  0.12155633777E+01  0.76429823649E+00  0.29304374910E+02  0.00000000000E+00 0.  1.
</event>
<event>
 5    1  0.3183383E-003  0.9118800E+02  0.7818608E-02  0.1130116E+00
         25   -1    0    0    0    0  0.00000000000E+00  0.00000000000E+00  0.99999998245E-14  0.12500000000E+03  0.12500000000E+03 0.  0.
        -11    1    3    3    0    0 -0.96286698609E+01 -0.27766111523E+02 -0.16912273345E+02  0.33907126424E+02  0.51100000000E-03 0. -1.
         23    2    1    0    0    0 -0.45816799730E+01  0.16809606650E+02  0.24484421289E+02  0.94949350207E+02  0.90068515874E+02 0.  0.
         11    1    3    3    0    0  0.50469898879E+01  0.44575718172E+02  0.41396694634E+02  0.61042223783E+02  0.51100000000E-03 0.  1.
         22    1    1    0    0    0  0.45816799730E+01 -0.16809606650E+02 -0.24484421289E+02  0.30050649793E+02  0.00000000000E+00 0.  1.
</event>
<event>
 5    1  0.3183383E-003  0.9118800E+02  0.7818608E-02  0.1130116E+00
         25   -1    0    0    0    0  0.00000000000E+00  0.00000000000E+00  0.99999998245E-14  0.12500000000E+03  0.12500000000E+03 0.  0.
        -11    1    3    3    0    0 -0.31897049365E+02  0.47428028172E+02  0.13707192897E+02  0.58776923634E+02  0.51100000000E-03 0. -1.
         23    2    1    0    0    0 -0.18442945282E+02  0.20055660448E+02 -0.84472089680E+01  0.96474097980E+02  0.92160319526E+02 0.  0.
         11    1    3    3    0    0  0.13454104083E+02 -0.27372367724E+02 -0.22154401865E+02  0.37697174347E+02  0.51100000000E-03 0.  1.
         22    1    1    0    0    0  0.18442945282E+02 -0.20055660448E+02  0.84472089680E+01  0.28525902020E+02  0.00000000000E+00 0. -1.
</event>
<event>
 5    1  0.3183383E-003  0.9118800E+02  0.7818608E-02  0.1130116E+00
         25   -1    0    0    0    0  0.00000000000E+00  0.00000000000E+00  0.99999998245E-14  0.12500000000E+03  0.12500000000E+03 0.  0.
        -11    1    3    3    0    0 -0.47437794766E+02 -0.23120911996E+02  0.20605418365E+01  0.52812562679E+02  0.51100000000E-03 0.  1.
         23    2    1    0    0    0 -0.12172528646E+02 -0.12465552134E+02  0.23735885880E+02  0.95555939102E+02  0.90906461682E+02 0.  0.
         11    1    3    3    0    0  0.35265266121E+02  0.10655359862E+02  0.21675344044E+02  0.42743376423E+02  0.51100000000E-03 0. -1.
         22    1    1    0    0    0  0.12172528646E+02  0.12465552134E+02 -0.23735885880E+02  0.29444060898E+02  0.00000000000E+00 0.  1.
</event>
<event>
 5    1  0.3183383E-003  0.9118800E+02  0.7818608E-02  0.1130116E+00
         25   -1    0    0    0    0  0.00000000000E+00  0.00000000000E+00  0.99999998245E-14  0.12500000000E+03  0.12500000000E+03 0.  0.
        -11    1    3    3    0    0  0.12595306942E+02  0.59361306840E+02  0.34994183907E+01  0.60783652704E+02  0.51100000000E-03 0.  1.
         23    2    1    0    0    0  0.79273384108E+01  0.26968079459E+02 -0.84873155083E+01  0.95637531975E+02  0.91018585980E+02 0.  0.
         11    1    3    3    0    0 -0.46679685312E+01 -0.32393227382E+02 -0.11986733899E+02  0.34853879271E+02  0.51100000000E-03 0. -1.
         22    1    1    0    0    0 -0.79273384108E+01 -0.26968079459E+02  0.84873155083E+01  0.29362468025E+02  0.00000000000E+00 0.  1.
</event>
<event>
 5    1  0.3183383E-003  0.9118800E+02  0.7818608E-02  0.1130116E+00
         25   -1    0    0    0    0  0.00000000000E+00  0.00000000000E+00  0.99999998245E-14  0.12500000000E+03  0.12500000000E+03 0.  0.
        -11    1    3    3    0    0 -0.16433568582E+02  0.50893035283E+01  0.31420291922E+02  0.35821752211E+02  0.51100000000E-03 0. -1.
         23    2    1    0    0    0  0.13776677233E+02  0.21512873965E+02 -0.16341793030E+02  0.94674189520E+02  0.89685825971E+02 0.  0.
         11    1    3    3    0    0  0.30210245815E+02  0.16423570437E+02 -0.47762084952E+02  0.58852437309E+02  0.51100000000E-03 0.  1.
         22    1    1    0    0    0 -0.13776677233E+02 -0.21512873965E+02  0.16341793030E+02  0.30325810480E+02  0.00000000000E+00 0.  1.
</event>
<event>
 5    1  0.3183383E-003  0.9118800E+02  0.7818608E-02  0.1130116E+00
         25   -1    0    0    0    0  0.00000000000E+00  0.00000000000E+00  0.99999998245E-14  0.12500000000E+03  0.12500000000E+03 0.  0.
        -11    1    3    3    0    0  0.44919539618E+02 -0.13027722387E+02 -0.11696100401E+02  0.48210842712E+02  0.51100000000E-03 0.  1.
         23    2    1    0    0    0  0.18704600782E+02  0.16603664872E+02  0.14904338749E+02  0.95885002299E+02  0.91357816167E+02 0.  0.
         11    1    3    3    0    0 -0.26214938837E+02  0.29631387259E+02  0.26600439150E+02  0.47674159587E+02  0.51100000000E-03 0. -1.
         22    1    1    0    0    0 -0.18704600782E+02 -0.16603664872E+02 -0.14904338749E+02  0.29114997701E+02  0.00000000000E+00 0.  1.
</event>
<event>
 5    1  0.3183383E-003  0.9118800E+02  0.7818608E-02  0.1130116E+00
         25   -1    0    0    0    0  0.00000000000E+00  0.00000000000E+00  0.99999998245E-14  0.12500000000E+03  0.12500000000E+03 0.  0.
        -11    1    3    3    0    0  0.63002689898E+01 -0.46036375676E+02 -0.36331325807E+02  0.58983103597E+02  0.51100000000E-03 0.  1.
         23    2    1    0    0    0  0.15232426171E+02 -0.19855965459E+02 -0.76485000718E+01  0.98831589182E+02  0.95304235454E+02 0.  0.
         11    1    3    3    0    0  0.89321571815E+01  0.26180410216E+02  0.28682825735E+02  0.39848485585E+02  0.51100000000E-03 0. -1.
         22    1    1    0    0    0 -0.15232426171E+02  0.19855965459E+02  0.76485000718E+01  0.26168410818E+02  0.00000000000E+00 0.  1.
</event>
<event>
 5    1  0.3183383E-003  0.9118800E+02  0.7818608E-02  0.1130116E+00
         25   -1    0    0    0    0  0.00000000000E+00  0.00000000000E+00  0.99999998245E-14  0.12500000000E+03  0.12500000000E+03 0.  0.
        -11    1    3    3    0    0  0.31119882343E+02  0.18629412224E+02 -0.50629868718E+02  0.62280700731E+02  0.51100000000E-03 0.  1.
         23    2    1    0    0    0  0.12661406808E+02  0.86205262121E+01 -0.27514964376E+02  0.93508763772E+02  0.88046527149E+02 0.  0.
         11    1    3    3    0    0 -0.18458475536E+02 -0.10008886012E+02  0.23114904342E+02  0.31228063041E+02  0.51100000000E-03 0. -1.
         22    1    1    0    0    0 -0.12661406808E+02 -0.86205262121E+01  0.27514964376E+02  0.31491236228E+02  0.00000000000E+00 0.  1.
</event>
<event>
 5    1  0.3183383E-003  0.9118800E+02  0.7818608E-02  0.1130116E+00
         25   -1    0    0    0    0  0.00000000000E+00  0.00000000000E+00  0.99999998245E-14  0.12500000000E+03  0.12500000000E+03 0.  0.
        -11    1    3    3    0    0 -0.18815618200E+02  0.22612703761E+02 -0.27179252176E+02  0.40050887739E+02  0.51100000000E-03 0. -1.
         23    2    1    0    0    0 -0.17651097098E+02 -0.25047378093E+02 -0.12220274490E+01  0.94333638475E+02  0.89209918836E+02 0.  0.
         11    1    3    3    0    0  0.11645211014E+01 -0.47660081854E+02  0.25957224727E+02  0.54282750736E+02  0.51100000000E-03 0.  1.
         22    1    1    0    0    0  0.17651097098E+02  0.25047378093E+02  0.12220274490E+01  0.30666361525E+02  0.00000000000E+00 0.  1.
</event>
<event>
 5    1  0.3183383E-003  0.9118800E+02  0.7818608E-02  0.1130116E+00
         25   -1    0    0    0    0  0.00000000000E+00  0.00000000000E+00  0.99999998245E-14  0.12500000000E+03  0.12500000000E+03 0.  0.
        -11    1    3    3    0    0  0.51231315082E+02 -0.20610681360E+02  0.27771796894E+02  0.61811977271E+02  0.51100000000E-03 0.  1.
         23    2    1    0    0    0  0.29680069597E+02 -0.72052061993E+01  0.97519618337E+01  0.92938772836E+02  0.87233555522E+02 0.  0.
         11    1    3    3    0    0 -0.21551245485E+02  0.13405475161E+02 -0.18019835061E+02  0.31126795565E+02  0.51100000000E-03 0. -1.
         22    1    1    0    0    0 -0.29680069597E+02  0.72052061993E+01 -0.97519618337E+01  0.32061227164E+02  0.00000000000E+00 0.  1.
</event>
<event>
 5    1  0.3183383E-003  0.9118800E+02  0.7818608E-02  0.1130116E+00
         25   -1    0    0    0    0  0.00000000000E+00  0.00000000000E+00  0.99999998245E-14  0.12500000000E+03  0.12500000000E+03 0.  0.
        -11    1    3    3    0    0 -0.24511301585E+02 -0.38574381820E+02 -0.38368712871E+02  0.59673653867E+02  0.51100000000E-03 0.  1.
         23    2    1    0    0    0 -0.16996654242E+02 -0.67771557853E+01 -0.22506944901E+02  0.95993472033E+02  0.91506109130E+02 0.  0.
         11    1    3    3    0    0  0.75146473433E+01  0.31797226035E+02  0.15861767970E+02  0.36319818166E+02  0.51100000000E-03 0. -1.
         22    1    1    0    0    0  0.16996654242E+02  0.67771557853E+01  0.22506944901E+02  0.29006527967E+02  0.00000000000E+00 0.  1.
</event>
<event>
 5    1  0.3183383E-003  0.9118800E+02  0.7818608E-02  0.1130116E+00
         25   -1    0    0    0    0  0.00000000000E+00  0.00000000000E+00  0.99999998245E-14  0.12500000000E+03  0.12500000000E+03 0.  0.
        -11    1    3    3    0    0  0.10391094685E+02  0.47551210784E+02 -0.20622915721E+02  0.52862057743E+02  0.51100000000E-03 0.  1.
         23    2    1    0    0    0  0.28346606389E+02  0.20587154267E+02 -0.27554612655E+01  0.89858093657E+02  0.82701411199E+02 0.  0.
         11    1    3    3    0    0  0.17955511704E+02 -0.26964056516E+02  0.17867454455E+02  0.36996035914E+02  0.51100000000E-03 0. -1.
         22    1    1    0    0    0 -0.28346606389E+02 -0.20587154267E+02  0.27554612655E+01  0.35141906343E+02  0.00000000000E+00 0.  1.
</event>
<event>
 5    1  0.3183383E-003  0.9118800E+02  0.7818608E-02  0.1130116E+00
         25   -1    0    0    0    0  0.00000000000E+00  0.00000000000E+00  0.99999998245E-14  0.12500000000E+03  0.12500000000E+03 0.  0.
        -11    1    3    3    0    0 -0.42328608813E+02 -0.17431033173E+02  0.41201478786E+02  0.61588261023E+02  0.51100000000E-03 0. -1.
         23    2    1    0    0    0 -0.23380763575E+02 -0.12401060387E+02  0.14172347349E+02  0.94978310616E+02  0.90108699103E+02 0.  0.
         11    1    3    3    0    0  0.18947845238E+02  0.50299727858E+01 -0.27029131436E+02  0.33390049593E+02  0.51100000000E-03 0.  1.
         22    1    1    0    0    0  0.23380763575E+02  0.12401060387E+02 -0.14172347349E+02  0.30021689384E+02  0.00000000000E+00 0. -1.
</event>
<event>
 5    1  0.3183383E-003  0.9118800E+02  0.7818608E-02  0.1130116E+00
         25   -1    0    0    0    0  0.00000000000E+00  0.00000000000E+00  0.99999998245E-14  0.12500000000E+03  0.12500000000E+03 0.  0.
        -11    1    3    3    0    0  0.13808053944E+01 -0.39041519301E+02  0.44454001960E+02  0.59180276642E+02  0.51100000000E-03 0.  1.
         23    2    1    0    0    0 -0.10071126670E+01 -0.27577707112E+02  0.98715970307E+01  0.95691423893E+02  0.91092568156E+02 0.  0.
         11    1    3    3    0    0 -0.23879180614E+01  0.11463812189E+02 -0.34582404930E+02  0.36511147251E+02  0.51100000000E-03 0. -1.
         22    1    1    0    0    0  0.10071126670E+01  0.27577707112E+02 -0.98715970307E+01  0.29308576107E+02  0.00000000000E+00 0.  1.
</event>
<event>
 5    1  0.3183383E-003  0.9118800E+02  0.7818608E-02  0.1130116E+00
         25   -1    0    0    0    0  0.00000000000E+00  0.00000000000E+00  0.99999998245E-14  0.12500000000E+03  0.12500000000E+03 0.  0.
        -11    1    3    3    0    0 -0.19038911761E+02 -0.57086446773E+02  0.30841386293E+01  0.60256572069E+02  0.51100000000E-03 0.  1.
         23    2    1    0    0    0 -0.81150665614E+01 -0.28851246400E+02  0.13303128124E+02  0.92209422969E+02  0.86182108017E+02 0.  0.
         11    1    3    3    0    0  0.10923845200E+02  0.28235200373E+02  0.10218989495E+02  0.31952850900E+02  0.51100000000E-03 0. -1.
         22    1    1    0    0    0  0.81150665614E+01  0.28851246400E+02 -0.13303128124E+02  0.32790577031E+02  0.00000000000E+00 0.  1.
</event>
<event>
 5    1  0.3183383E-003  0.9118800E+02  0.7818608E-02  0.1130116E+00
         25   -1    0    0    0    0  0.00000000000E+00  0.00000000000E+00  0.99999998245E-14  0.12500000000E+03  0.12500000000E+03 0.  0.
        -11    1    3    3    0    0  0.13905971300E+02 -0.53247265538E+02 -0.17390728898E+02  0.57715550565E+02  0.51100000000E-03 0.  1.
         23    2    1    0    0    0  0.34833106045E+01 -0.17368073831E+02 -0.23497324277E+02  0.95573690521E+02  0.90930867312E+02 0.  0.
         11    1    3    3    0    0 -0.10422660696E+02  0.35879191707E+02 -0.61065953794E+01  0.37858139956E+02  0.51100000000E-03 0. -1.
         22    1    1    0    0    0 -0.34833106045E+01  0.17368073831E+02  0.23497324277E+02  0.29426309479E+02  0.00000000000E+00 0.  1.
</event>
<event>
 5    1  0.3183383E-003  0.9118800E+02  0.7818608E-02  0.1130116E+00
         25   -1    0    0    0    0  0.00000000000E+00  0.00000000000E+00  0.99999998245E-14  0.12500000000E+03  0.12500000000E+03 0.  0.
        -11    1    3    3    0    0 -0.42657841789E+02  0.12618247926E+01  0.27148089918E+02  0.50579664435E+02  0.51100000000E-03 0.  1.
         23    2    1    0    0    0 -0.80750730727E+00 -0.14068244758E+02  0.26306197081E+02  0.95157352941E+02  0.90356727670E+02 0.  0.
         11    1    3    3    0    0  0.41850334482E+02 -0.15330069550E+02 -0.84189283681E+00  0.44577688506E+02  0.51100000000E-03 0. -1.
         22    1    1    0    0    0  0.80750730727E+00  0.14068244758E+02 -0.26306197081E+02  0.29842647059E+02  0.00000000000E+00 0.  1.
</event>
<event>
 5    1  0.3183383E-003  0.9118800E+02  0.7818608E-02  0.1130116E+00
         25   -1    0    0    0    0  0.00000000000E+00  0.00000000000E+00  0.99999998245E-14  0.12500000000E+03  0.12500000000E+03 0.  0.
        -11    1    3    3    0    0 -0.70305801296E+01 -0.30462733896E+02  0.12853168756E+02  0.33802531868E+02  0.51100000000E-03 0.  1.
         23    2    1    0    0    0 -0.43714683136E+01  0.28331003790E+02 -0.62139728564E+01  0.95667953197E+02  0.91060355256E+02 0.  0.
         11    1    3    3    0    0  0.26591118160E+01  0.58793737686E+02 -0.19067141613E+02  0.61865421329E+02  0.51100000000E-03 0. -1.
         22    1    1    0    0    0  0.43714683136E+01 -0.28331003790E+02  0.62139728564E+01  0.29332046803E+02  0.00000000000E+00 0. -1.
</event>
<event>
 5    1  0.3183383E-003  0.9118800E+02  0.7818608E-02  0.1130116E+00
         25   -1    0    0    0    0  0.00000000000E+00  0.00000000000E+00  0.99999998245E-14  0.12500000000E+03  0.12500000000E+03 0.  0.
        -11    1    3    3    0    0  0.21935450892E+02 -0.87353197035E+01 -0.29295383956E+02  0.37625647338E+02  0.51100000000E-03 0.  1.
         23    2    1    0    0    0 -0.23826192604E+02  0.42379426544E+01  0.94962225036E+01  0.99003349182E+02  0.95529248377E+02 0.  0.
         11    1    3    3    0    0 -0.45761643496E+02  0.12973262358E+02  0.38791606460E+02  0.61377701844E+02  0.51100000000E-03 0. -1.
         22    1    1    0    0    0  0.23826192604E+02 -0.42379426544E+01 -0.94962225036E+01  0.25996650818E+02  0.00000000000E+00 0. -1.
</event>
<event>
 5    1  0.3183383E-003  0.9118800E+02  0.7818608E-02  0.1130116E+00
         25   -1    0    0    0    0  0.00000000000E+00  0.00000000000E+00  0.99999998245E-14  0.12500000000E+03  0.12500000000E+03 0.  0.
        -11    1    3    3    0    0  0.71463985245E+01 -0.30048539564E+02 -0.18673681363E+02  0.36092826402E+02  0.51100000000E-03 0. -1.
         23    2    1    0    0    0  0.18108312074E+02  0.24828338215E+02 -0.97437400407E+01  0.92761857766E+02  0.86979678325E+02 0.  0.
         11    1    3    3    0    0  0.10961913549E+02  0.54876877779E+02  0.89299413222E+01  0.56669031364E+02  0.51100000000E-03 0.  1.
         22    1    1    0    0    0 -0.18108312074E+02 -0.24828338215E+02  0.97437400407E+01  0.32238142234E+02  0.00000000000E+00 0.  1.
</event>
<event>
 5    1  0.3183383E-003  0.9118800E+02  0.7818608E-02  0.1130116E+00
         25   -1    0    0    0    0  0.00000000000E+00  0.00000000000E+00  0.99999998245E-14  0.12500000000E+03  0.12500000000E+03 0.  0.
        -11    1    3    3    0    0  0.10339983738E+01 -0.33076069428E+02  0.10197946008E+02  0.34627931276E+02  0.51100000000E-03 0. -1.
         23    2    1    0    0    0  0.11244415094E+02  0.26713903507E+02  0.81753312485E+00  0.96004519804E+02  0.91521199462E+02 0.  0.
         11    1    3    3    0    0  0.10210416720E+02  0.59789972935E+02 -0.93804128836E+01  0.61376588528E+02  0.51100000000E-03 0.  1.
         22    1    1    0    0    0 -0.11244415094E+02 -0.26713903507E+02 -0.81753312485E+00  0.28995480196E+02  0.00000000000E+00 0.  1.
</event>
<event>
 5    1  0.3183383E-003  0.9118800E+02  0.7818608E-02  0.1130116E+00
         25   -1    0    0    0    0  0.00000000000E+00  0.00000000000E+00  0.99999998245E-14  0.12500000000E+03  0.12500000000E+03 0.  0.
        -11    1    3    3    0    0 -0.32880533718E+02 -0.21688816044E+02 -0.14320820547E+02  0.41912052447E+02  0.51100000000E-03 0.  1.
         23    2    1    0    0    0 -0.15660265567E+02  0.24369210311E+02  0.65032813364E+01  0.95311702693E+02  0.90570004269E+02 0.  0.
         11    1    3    3    0    0  0.17220268150E+02  0.46058026355E+02  0.20824101883E+02  0.53399650246E+02  0.51100000000E-03 0. -1.
         22    1    1    0    0    0  0.15660265567E+02 -0.24369210311E+02 -0.65032813364E+01  0.29688297307E+02  0.00000000000E+00 0. -1.
</event>
<event>
 5    1  0.3183383E-003  0.9118800E+02  0.7818608E-02  0.1130116E+00
         25   -1    0    0    0    0  0.00000000000E+00  0.00000000000E+00  0.99999998245E-14  0.12500000000E+03  0.12500000000E+03 0.  0.
        -11    1    3    3    0    0 -0.31729298473E+01  0.25147475059E+02 -0.21824065559E+02  0.33447762607E+02  0.51100000000E-03 0.  1.
         23    2    1    0    0    0 -0.43694544682E+01 -0.24278752141E+02 -0.32668378408E+02  0.84063794928E+02  0.73423080377E+02 0.  0.
         11    1    3    3    0    0 -0.11965246209E+01 -0.49426227201E+02 -0.10844312849E+02  0.50616032321E+02  0.51100000000E-03 0. -1.
         22    1    1    0    0    0  0.43694544682E+01  0.24278752141E+02  0.32668378408E+02  0.40936205072E+02  0.00000000000E+00 0. -1.
</event>
<event>
 5    1  0.3183383E-003  0.9118800E+02  0.7818608E-02  0.1130116E+00
         25   -1    0    0    0    0  0.00000000000E+00  0.00000000000E+00  0.99999998245E-14  0.12500000000E+03  0.12500000000E+03 0.  0.
        -11    1    3    3    0    0  0.26088859944E+02  0.55854987762E+02 -0.25833673529E+01  0.61701556368E+02  0.51100000000E-03 0. -1.
         23    2    1    0    0    0  0.74264535611E+01  0.32326305290E+02 -0.15130967461E+00  0.91831262900E+02  0.85631861622E+02 0.  0.
         11    1    3    3    0    0 -0.18662406383E+02 -0.23528682472E+02  0.24320576782E+01  0.30129706532E+02  0.51100000000E-03 0.  1.
         22    1    1    0    0    0 -0.74264535611E+01 -0.32326305290E+02  0.15130967461E+00  0.33168737100E+02  0.00000000000E+00 0. -1.
</event>
<event>
 5    1  0.3183383E-003  0.9118800E+02  0.7818608E-02  0.1130116E+00
         25   -1    0    0    0    0  0.00000000000E+00  0.00000000000E+00  0.99999998245E-14  0.12500000000E+03  0.12500000000E+03 0.  0.
        -11    1    3    3    0    0  0.28503529160E+02 -0.34279902527E+02  0.35055899704E+02  0.56714010581E+02  0.51100000000E-03 0.  1.
         23    2    1    0    0    0  0.14060114957E+02 -0.18633285979E+01  0.29002509633E+02  0.92715260709E+02  0.86912687091E+02 0.  0.
         11    1    3    3    0    0 -0.14443414203E+02  0.32416573929E+02 -0.60533900712E+01  0.36001250128E+02  0.51100000000E-03 0. -1.
         22    1    1    0    0    0 -0.14060114957E+02  0.18633285979E+01 -0.29002509633E+02  0.32284739291E+02  0.00000000000E+00 0.  1.
</event>
<event>
 5    1  0.3183383E-003  0.9118800E+02  0.7818608E-02  0.1130116E+00
         25   -1    0    0    0    0  0.00000000000E+00  0.00000000000E+00  0.99999998245E-14  0.12500000000E+03  0.12500000000E+03 0.  0.
        -11    1    3    3    0    0  0.16182577436E+02  0.19475106785E+02 -0.22613756375E+02  0.33949043792E+02  0.51100000000E-03 0.  1.
         23    2    1    0    0    0 -0.16968583123E+02 -0.88077033439E+01  0.21686587884E+02  0.96089508039E+02  0.91637203197E+02 0.  0.
         11    1    3    3    0    0 -0.33151160558E+02 -0.28282810128E+02  0.44300344259E+02  0.62140464247E+02  0.51100000000E-03 0. -1.
         22    1    1    0    0    0  0.16968583123E+02  0.88077033439E+01 -0.21686587884E+02  0.28910491961E+02  0.00000000000E+00 0. -1.
</event>
<event>
 5    1  0.3183383E-003  0.9118800E+02  0.7818608E-02  0.1130116E+00
         25   -1    0    0    0    0  0.00000000000E+00  0.00000000000E+00  0.99999998245E-14  0.12500000000E+03  0.12500000000E+03 0.  0.
        -11    1    3    3    0    0 -0.82767934192E+01 -0.55056759624E+02 -0.19991619356E+02  0.59155869821E+02  0.51100000000E-03 0. -1.
         23    2    1    0    0    0 -0.15641848083E+02 -0.19386064447E+02 -0.15008730042E+02  0.95918237954E+02  0.91403279419E+02 0.  0.
         11    1    3    3    0    0 -0.73650546640E+01  0.35670695177E+02  0.49828893141E+01  0.36762368133E+02  0.51100000000E-03 0.  1.
         22    1    1    0    0    0  0.15641848083E+02  0.19386064447E+02  0.15008730042E+02  0.29081762046E+02  0.00000000000E+00 0. -1.
</event>
<event>
 5    1  0.3183383E-003  0.9118800E+02  0.7818608E-02  0.1130116E+00
         25   -1    0    0    0    0  0.00000000000E+00  0.00000000000E+00  0.99999998245E-14  0.12500000000E+03  0.12500000000E+03 0.  0.
        -11    1    3    3    0    0 -0.39474715101E+02  0.20596535155E+02  0.34991157802E+02  0.56629069543E+02  0.51100000000E-03 0.  1.
         23    2    1    0    0    0 -0.28260112099E+02  0.10366959584E+02 -0.13865593325E+00  0.94898056337E+02  0.89997300427E+02 0.  0.
         11    1    3    3    0    0  0.11214603003E+02 -0.10229575571E+02 -0.35129813735E+02  0.38268986794E+02  0.51100000000E-03 0. -1.
         22    1    1    0    0    0  0.28260112099E+02 -0.10366959584E+02  0.13865593325E+00  0.30101943663E+02  0.00000000000E+00 0.  1.
</event>
<event>
 5    1  0.3183383E-003  0.9118800E+02  0.7818608E-02  0.1130116E+00
         25   -1    0    0    0    0  0.00000000000E+00  0.00000000000E+00  0.99999998245E-14  0.12500000000E+03  0.12500000000E+03 0.  0.
        -11    1    3    3    0    0 -0.12890759360E+02 -0.36701861687E+02  0.37735380911E+02  0.54195546874E+02  0.51100000000E-03 0. -1.
         23    2    1    0    0    0 -0.20648735344E+02  0.75648755283E+00  0.19561926676E+02  0.96546326775E+02  0.92258233745E+02 0.  0.
         11    1    3    3    0    0 -0.77579759841E+01  0.37458349240E+02 -0.18173454235E+02  0.42350779901E+02  0.51100000000E-03 0.  1.
         22    1    1    0    0    0  0.20648735344E+02 -0.75648755283E+00 -0.19561926676E+02  0.28453673225E+02  0.00000000000E+00 0. -1.
</event>
<event>
 5    1  0.3183383E-003  0.9118800E+02  0.7818608E-02  0.1130116E+00
         25   -1    0    0    0    0  0.00000000000E+00  0.00000000000E+00  0.99999998245E-14  0.12500000000E+03  0.12500000000E+03 0.  0.
        -11    1    3    3    0    0  0.69907270424E+01 -0.31927453575E+02  0.30870454389E+02  0.44957952698E+02  0.51100000000E-03 0.  1.
         23    2    1    0    0    0 -0.24128443206E+02  0.40576830695E+01  0.19082681453E+02  0.93971057142E+02  0.88700418745E+02 0.  0.
         11    1    3    3    0    0 -0.31119170248E+02  0.35985136644E+02 -0.11787772936E+02  0.49013104445E+02  0.51100000000E-03 0. -1.
         22    1    1    0    0    0  0.24128443206E+02 -0.40576830695E+01 -0.19082681453E+02  0.31028942858E+02  0.00000000000E+00 0.  1.
</event>
<event>
 5    1  0.3183383E-003  0.9118800E+02  0.7818608E-02  0.1130116E+00
         25   -1    0    0    0    0  0.00000000000E+00  0.00000000000E+00  0.99999998245E-14  0.12500000000E+03  0.12500000000E+03 0.  0.
        -11    1    3    3    0    0  0.24010048555E+02  0.32951542056E+02 -0.44425355445E+02  0.60298414259E+02  0.51100000000E-03 0.  1.
         23    2    1    0    0    0  0.60666241489E+01  0.21293732510E+02 -0.10293369811E+02  0.10058319360E+03  0.97574578656E+02 0.  0.
         11    1    3    3    0    0 -0.17943424406E+02 -0.11657809546E+02  0.34131985635E+02  0.40284779340E+02  0.51100000000E-03 0. -1.
         22    1    1    0    0    0 -0.60666241489E+01 -0.21293732510E+02  0.10293369811E+02  0.24416806401E+02  0.00000000000E+00 0.  1.
</event>
<event>
 5    1  0.3183383E-003  0.9118800E+02  0.7818608E-02  0.1130116E+00
         25   -1    0    0    0    0  0.00000000000E+00  0.00000000000E+00  0.99999998245E-14  0.12500000000E+03  0.12500000000E+03 0.  0.
        -11    1    3    3    0    0  0.22613229578E+01 -0.33522128409E+02 -0.60765377236E+01  0.34143388606E+02  0.51100000000E-03 0.  1.
         23    2    1    0    0    0  0.18783992104E+02  0.23860241505E+02  0.27619924944E+01  0.94507737267E+02  0.89453531606E+02 0.  0.
         11    1    3    3    0    0  0.16522669146E+02  0.57382369913E+02  0.88385302180E+01  0.60364348661E+02  0.51100000000E-03 0. -1.
         22    1    1    0    0    0 -0.18783992104E+02 -0.23860241505E+02 -0.27619924944E+01  0.30492262733E+02  0.00000000000E+00 0. -1.
</event>
<event>
 5    1  0.3183383E-003  0.9118800E+02  0.7818608E-02  0.1130116E+00
         25   -1    0    0    0    0  0.00000000000E+00  0.00000000000E+00  0.99999998245E-14  0.12500000000E+03  0.12500000000E+03 0.  0.
        -11    1    3    3    0    0  0.59054302880E+00 -0.17696311602E+02 -0.28715501723E+02  0.33735563206E+02  0.51100000000E-03 0. -1.
         23    2    1    0    0    0  0.13424196803E+01  0.31524365908E+02  0.45111337511E+01  0.93126216663E+02  0.87501738073E+02 0.  0.
         11    1    3    3    0    0  0.75187665146E+00  0.49220677509E+02  0.33226635474E+02  0.59390653458E+02  0.51100000000E-03 0.  1.
         22    1    1    0    0    0 -0.13424196803E+01 -0.31524365908E+02 -0.45111337511E+01  0.31873783337E+02  0.00000000000E+00 0.  1.
</event>
<event>
 5    1  0.3183383E-003  0.9118800E+02  0.7818608E-02  0.1130116E+00
         25   -1    0    0    0    0  0.00000000000E+00  0.00000000000E+00  0.99999998245E-14  0.12500000000E+03  0.12500000000E+03 0.  0.
        -11    1    3    3    0    0  0.46346056276E+02  0.20240404299E+02 -0.34018427634E+02  0.60949850840E+02  0.51100000000E-03 0. -1.
         23    2    1    0    0    0  0.17258427502E+02  0.55311675227E+01 -0.23751635203E+02  0.95123800295E+02  0.90310298824E+02 0.  0.
         11    1    3    3    0    0 -0.29087628774E+02 -0.14709236776E+02  0.10266792431E+02  0.34173949454E+02  0.51100000000E-03 0.  1.
         22    1    1    0    0    0 -0.17258427502E+02 -0.55311675227E+01  0.23751635203E+02  0.29876199705E+02  0.00000000000E+00 0. -1.
</event>
<event>
 5    1  0.3183383E-003  0.9118800E+02  0.7818608E-02  0.1130116E+00
         25   -1    0    0    0    0  0.00000000000E+00  0.00000000000E+00  0.99999998245E-14  0.12500000000E+03  0.12500000000E+03 0.  0.
        -11    1    3    3    0    0 -0.33670162358E+02  0.47678372043E+02  0.20079096719E+02  0.61725822143E+02  0.51100000000E-03 0.  1.
         23    2    1    0    0    0 -0.10794892222E+02  0.26851584972E+02  0.11767130355E+02  0.93758958557E+02  0.88401016054E+02 0.  0.
         11    1    3    3    0    0  0.22875270135E+02 -0.20826787071E+02 -0.83119663641E+01  0.32033136415E+02  0.51100000000E-03 0. -1.
         22    1    1    0    0    0  0.10794892222E+02 -0.26851584972E+02 -0.11767130355E+02  0.31241041443E+02  0.00000000000E+00 0.  1.
</event>
<event>
 5    1  0.3183383E-003  0.9118800E+02  0.7818608E-02  0.1130116E+00
         25   -1    0    0    0    0  0.00000000000E+00  0.00000000000E+00  0.99999998245E-14  0.12500000000E+03  0.12500000000E+03 0.  0.
        -11    1    3    3    0    0 -0.22657793579E+02 -0.10442127179E+02 -0.24214377393E+02  0.34767077856E+02  0.51100000000E-03 0.  1.
         23    2    1    0    0    0 -0.54948664184E+01  0.20975327087E+02  0.22586396909E+02  0.93690205547E+02  0.88303745032E+02 0.  0.
         11    1    3    3    0    0  0.17162927161E+02  0.31417454267E+02  0.46800774302E+02  0.58923127690E+02  0.51100000000E-03 0. -1.
         22    1    1    0    0    0  0.54948664184E+01 -0.20975327087E+02 -0.22586396909E+02  0.31309794453E+02  0.00000000000E+00 0. -1.
</event>
<event>
 5    1  0.3183383E-003  0.9118800E+02  0.7818608E-02  0.1130116E+00
         25   -1    0    0    0    0  0.00000000000E+00  0.00000000000E+00  0.99999998245E-14  0.12500000000E+03  0.12500000000E+03 0.  0.
        -11    1    3    3    0    0 -0.28610105402E+02  0.73344415240E+01 -0.32868858582E+02  0.44189297667E+02  0.51100000000E-03 0.  1.
         23    2    1    0    0    0 -0.14987122840E+02  0.22113260502E+02  0.13749205905E+02  0.94955852416E+02  0.90077539398E+02 0.  0.
         11    1    3    3    0    0  0.13622982561E+02  0.14778818978E+02  0.46618064487E+02  0.50766554748E+02  0.51100000000E-03 0. -1.
         22    1    1    0    0    0  0.14987122840E+02 -0.22113260502E+02 -0.13749205905E+02  0.30044147584E+02  0.00000000000E+00 0.  1.
</event>
<event>
 5    1  0.3183383E-003  0.9118800E+02  0.7818608E-02  0.1130116E+00
         25   -1    0    0    0    0  0.00000000000E+00  0.00000000000E+00  0.99999998245E-14  0.12500000000E+03  0.12500000000E+03 0.  0.
        -11    1    3    3    0    0 -0.33808582370E+02  0.14243504399E+02 -0.81203911791E+01  0.37574438287E+02  0.51100000000E-03 0. -1.
         23    2    1    0    0    0  0.13170633999E+02 -0.21455552598E+02 -0.12788103762E+02  0.96762756242E+02  0.92551007884E+02 0.  0.
         11    1    3    3    0    0  0.46979216370E+02 -0.35699056997E+02 -0.46677125833E+01  0.59188317954E+02  0.51100000000E-03 0.  1.
         22    1    1    0    0    0 -0.13170633999E+02  0.21455552598E+02  0.12788103762E+02  0.28237243758E+02  0.00000000000E+00 0.  1.
</event>
<event>
 5    1  0.3183383E-003  0.9118800E+02  0.7818608E-02  0.1130116E+00
         25   -1    0    0    0    0  0.00000000000E+00  0.00000000000E+00  0.99999998245E-14  0.12500000000E+03  0.12500000000E+03 0.  0.
        -11    1    3    3    0    0 -0.35344652262E+02  0.12440808343E+02 -0.82152628769E+01  0.38360248958E+02  0.51100000000E-03 0. -1.
         23    2    1    0    0    0  0.98392909114E+01  0.88561224772E+01  0.26449704943E+02  0.95422484172E+02  0.90722770257E+02 0.  0.
         11    1    3    3    0    0  0.45183943173E+02 -0.35846858657E+01  0.34664967820E+02  0.57062235214E+02  0.51100000000E-03 0.  1.
         22    1    1    0    0    0 -0.98392909114E+01 -0.88561224772E+01 -0.26449704943E+02  0.29577515828E+02  0.00000000000E+00 0.  1.
</event>
<event>
 5    1  0.3183383E-003  0.9118800E+02  0.7818608E-02  0.1130116E+00
         25   -1    0    0    0    0  0.00000000000E+00  0.00000000000E+00  0.99999998245E-14  0.12500000000E+03  0.12500000000E+03 0.  0.
        -11    1    3    3    0    0 -0.30017513916E+02  0.35877864659E+02 -0.25451166381E+02  0.53254428779E+02  0.51100000000E-03 0. -1.
         23    2    1    0    0    0  0.69715817307E+01  0.14600521954E+02 -0.24130775489E+02  0.95947073833E+02  0.91442705878E+02 0.  0.
         11    1    3    3    0    0  0.36989095647E+02 -0.21277342705E+02  0.13203908916E+01  0.42692645054E+02  0.51100000000E-03 0.  1.
         22    1    1    0    0    0 -0.69715817307E+01 -0.14600521954E+02  0.24130775489E+02  0.29052926167E+02  0.00000000000E+00 0. -1.
</event>
<event>
 5    1  0.3183383E-003  0.9118800E+02  0.7818608E-02  0.1130116E+00
         25   -1    0    0    0    0  0.00000000000E+00  0.00000000000E+00  0.99999998245E-14  0.12500000000E+03  0.12500000000E+03 0.  0.
        -11    1    3    3    0    0  0.63065077247E+01  0.55682781737E+01  0.42859466809E+02  0.43677358631E+02  0.51100000000E-03 0.  1.
         23    2    1    0    0    0  0.69808158220E+01 -0.28739990204E+02  0.46036585092E+01  0.95068202557E+02  0.90233312248E+02 0.  0.
         11    1    3    3    0    0  0.67430809724E+00 -0.34308268378E+02 -0.38255808300E+02  0.51390843927E+02  0.51100000000E-03 0. -1.
         22    1    1    0    0    0 -0.69808158220E+01  0.28739990204E+02 -0.46036585092E+01  0.29931797443E+02  0.00000000000E+00 0. -1.
</event>
<event>
 5    1  0.3183383E-003  0.9118800E+02  0.7818608E-02  0.1130116E+00
         25   -1    0    0    0    0  0.00000000000E+00  0.00000000000E+00  0.99999998245E-14  0.12500000000E+03  0.12500000000E+03 0.  0.
        -11    1    3    3    0    0 -0.46571783139E+02 -0.12966346802E+02  0.27853889874E+02  0.55793335762E+02  0.51100000000E-03 0. -1.
         23    2    1    0    0    0 -0.11575045119E+02 -0.23946338271E+02  0.10018465140E+02  0.96578556865E+02  0.92301891726E+02 0.  0.
         11    1    3    3    0    0  0.34996738020E+02 -0.10979991469E+02 -0.17835424734E+02  0.40785221103E+02  0.51100000000E-03 0.  1.
         22    1    1    0    0    0  0.11575045119E+02  0.23946338271E+02 -0.10018465140E+02  0.28421443135E+02  0.00000000000E+00 0.  1.
</event>
<event>
 5    1  0.3183383E-003  0.9118800E+02  0.7818608E-02  0.1130116E+00
         25   -1    0    0    0    0  0.00000000000E+00  0.00000000000E+00  0.99999998245E-14  0.12500000000E+03  0.12500000000E+03 0.  0.
        -11    1    3    3    0    0  0.65819258480E+01 -0.14917790575E+02  0.35525022067E+02  0.39088226061E+02  0.51100000000E-03 0. -1.
         23    2    1    0    0    0 -0.12058102554E+02 -0.21077174984E+02 -0.17129686765E+02  0.95283484202E+02  0.90531050202E+02 0.  0.
         11    1    3    3    0    0 -0.18640028402E+02 -0.61593844091E+01 -0.52654708832E+02  0.56195258141E+02  0.51100000000E-03 0.  1.
         22    1    1    0    0    0  0.12058102554E+02  0.21077174984E+02  0.17129686765E+02  0.29716515798E+02  0.00000000000E+00 0.  1.
</event>
<event>
 5    1  0.3183383E-003  0.9118800E+02  0.7818608E-02  0.1130116E+00
         25   -1    0    0    0    0  0.00000000000E+00  0.00000000000E+00  0.99999998245E-14  0.12500000000E+03  0.12500000000E+03 0.  0.
        -11    1    3    3    0    0  0.39151472262E+02  0.28286300869E+02 -0.10826373145E+02  0.49499120728E+02  0.51100000000E-03 0.  1.
         23    2    1    0    0    0 -0.18255528418E+01  0.22279378499E+02 -0.23259398802E+02  0.92740071573E+02  0.86948363373E+02 0.  0.
         11    1    3    3    0    0 -0.40977025104E+02 -0.60069223702E+01 -0.12433025657E+02  0.43240950845E+02  0.51100000000E-03 0. -1.
         22    1    1    0    0    0  0.18255528418E+01 -0.22279378499E+02  0.23259398802E+02  0.32259928427E+02  0.00000000000E+00 0.  1.
</event>
<event>
 5    1  0.3183383E-003  0.9118800E+02  0.7818608E-02  0.1130116E+00
         25   -1    0    0    0    0  0.00000000000E+00  0.00000000000E+00  0.99999998245E-14  0.12500000000E+03  0.12500000000E+03 0.  0.
        -11    1    3    3    0    0  0.13685157565E+02  0.15183211791E+02 -0.37012889760E+02  0.42281999320E+02  0.51100000000E-03 0.  1.
         23    2    1    0    0    0 -0.15286560911E+02  0.19758143671E+02  0.10324186932E+02  0.97969424320E+02  0.94166639953E+02 0.  0.
         11    1    3    3    0    0 -0.28971718476E+02  0.45749318795E+01  0.47337076691E+02  0.55687425000E+02  0.51100000000E-03 0. -1.
         22    1    1    0    0    0  0.15286560911E+02 -0.19758143671E+02 -0.10324186932E+02  0.27030575680E+02  0.00000000000E+00 0. -1.
</event>
<event>
 5    1  0.3183383E-003  0.9118800E+02  0.7818608E-02  0.1130116E+00
         25   -1    0    0    0    0  0.00000000000E+00  0.00000000000E+00  0.99999998245E-14  0.12500000000E+03  0.12500000000E+03 0.  0.
        -11    1    3    3    0    0  0.34818779345E+02 -0.15448863096E+02  0.75420446897E+01  0.38831652095E+02  0.51100000000E-03 0. -1.
         23    2    1    0    0    0 -0.16644738246E+01  0.24807459701E+02 -0.13035616685E+02  0.96926741688E+02  0.92772223332E+02 0.  0.
         11    1    3    3    0    0 -0.36483253170E+02  0.40256322796E+02 -0.20577661375E+02  0.58095089593E+02  0.51100000000E-03 0.  1.
         22    1    1    0    0    0  0.16644738246E+01 -0.24807459701E+02  0.13035616685E+02  0.28073258312E+02  0.00000000000E+00 0.  1.
</event>
<event>
 5    1  0.3183383E-003  0.9118800E+02  0.7818608E-02  0.1130116E+00
         25   -1    0    0    0    0  0.00000000000E+00  0.00000000000E+00  0.99999998245E-14  0.12500000000E+03  0.12500000000E+03 0.  0.
        -11    1    3    3    0    0  0.20467905728E+02 -0.25514802523E+02 -0.91413651512E+01  0.33963287087E+02  0.51100000000E-03 0. -1.
         23    2    1    0    0    0 -0.26364973513E+02  0.13500809262E+02 -0.28185866269E+01  0.95245536307E+02  0.90478638787E+02 0.  0.
         11    1    3    3    0    0 -0.46832879241E+02  0.39015611784E+02  0.63227785243E+01  0.61282249220E+02  0.51100000000E-03 0.  1.
         22    1    1    0    0    0  0.26364973513E+02 -0.13500809262E+02  0.28185866269E+01  0.29754463693E+02  0.00000000000E+00 0.  1.
</event>
<event>
 5    1  0.3183383E-003  0.9118800E+02  0.7818608E-02  0.1130116E+00
         25   -1    0    0    0    0  0.00000000000E+00  0.00000000000E+00  0.99999998245E-14  0.12500000000E+03  0.12500000000E+03 0.  0.
        -11    1    3    3    0    0  0.32165317434E+02  0.16329524747E+02  0.11251388260E+02  0.37786965506E+02  0.51100000000E-03 0.  1.
         23    2    1    0    0    0  0.87241317163E+01 -0.15094086349E+02 -0.27195060079E+02  0.92696544928E+02  0.86885765416E+02 0.  0.
         11    1    3    3    0    0 -0.23441185718E+02 -0.31423611095E+02 -0.38446448339E+02  0.54909579422E+02  0.51100000000E-03 0. -1.
         22    1    1    0    0    0 -0.87241317163E+01  0.15094086349E+02  0.27195060079E+02  0.32303455072E+02  0.00000000000E+00 0. -1.
</event>
<event>
 5    1  0.3183383E-003  0.9118800E+02  0.7818608E-02  0.1130116E+00
         25   -1    0    0    0    0  0.00000000000E+00  0.00000000000E+00  0.99999998245E-14  0.12500000000E+03  0.12500000000E+03 0.  0.
        -11    1    3    3    0    0 -0.32168696835E+02  0.43762678342E+01  0.32339425661E+02  0.45823740883E+02  0.51100000000E-03 0.  1.
         23    2    1    0    0    0 -0.23137690431E+02  0.65277480304E+01 -0.16695965860E+02  0.95730229095E+02  0.91145802283E+02 0.  0.
         11    1    3    3    0    0  0.90310064043E+01  0.21514801962E+01 -0.49035391521E+02  0.49906488212E+02  0.51100000000E-03 0. -1.
         22    1    1    0    0    0  0.23137690431E+02 -0.65277480304E+01  0.16695965860E+02  0.29269770905E+02  0.00000000000E+00 0. -1.
</event>
<event>
 5    1  0.3183383E-003  0.9118800E+02  0.7818608E-02  0.1130116E+00
         25   -1    0    0    0    0  0.00000000000E+00  0.00000000000E+00  0.99999998245E-14  0.12500000000E+03  0.12500000000E+03 0.  0.
        -11    1    3    3    0    0  0.83530884746E+01 -0.52837202462E+01 -0.58566701285E+02  0.59394867509E+02  0.51100000000E-03 0.  1.
         23    2    1    0    0    0  0.16095274548E+02  0.34114829144E+01 -0.23740354631E+02  0.96115739296E+02  0.91672977610E+02 0.  0.
         11    1    3    3    0    0  0.77421860735E+01  0.86952031607E+01  0.34826346655E+02  0.36720871787E+02  0.51100000000E-03 0. -1.
         22    1    1    0    0    0 -0.16095274548E+02 -0.34114829144E+01  0.23740354631E+02  0.28884260704E+02  0.00000000000E+00 0.  1.
</event>
<event>
 5    1  0.3183383E-003  0.9118800E+02  0.7818608E-02  0.1130116E+00
         25   -1    0    0    0    0  0.00000000000E+00  0.00000000000E+00  0.99999998245E-14  0.12500000000E+03  0.12500000000E+03 0.  0.
        -11    1    3    3    0    0  0.37532661647E+02 -0.68465493364E+01  0.80889703428E+01  0.39000094482E+02  0.51100000000E-03 0.  1.
         23    2    1    0    0    0 -0.17436800531E+02 -0.20665372846E+02  0.11126741369E+02  0.95761258216E+02  0.91188346591E+02 0.  0.
         11    1    3    3    0    0 -0.54969462178E+02 -0.13818823510E+02  0.30377710259E+01  0.56761163734E+02  0.51100000000E-03 0. -1.
         22    1    1    0    0    0  0.17436800531E+02  0.20665372846E+02 -0.11126741369E+02  0.29238741784E+02  0.00000000000E+00 0. -1.
</event>
<event>
 5    1  0.3183383E-003  0.9118800E+02  0.7818608E-02  0.1130116E+00
         25   -1    0    0    0    0  0.00000000000E+00  0.00000000000E+00  0.99999998245E-14  0.12500000000E+03  0.12500000000E+03 0.  0.
        -11    1    3    3    0    0 -0.87990662956E+01 -0.33544515548E+02  0.18840523469E+02  0.39466738095E+02  0.51100000000E-03 0.  1.
         23    2    1    0    0    0  0.26801110857E+02  0.81807899109E+01  0.11103789183E+02  0.94858351058E+02  0.89942135646E+02 0.  0.
         11    1    3    3    0    0  0.35600177152E+02  0.41725305459E+02 -0.77367342858E+01  0.55391612963E+02  0.51100000000E-03 0. -1.
         22    1    1    0    0    0 -0.26801110857E+02 -0.81807899109E+01 -0.11103789183E+02  0.30141648942E+02  0.00000000000E+00 0. -1.
</event>
<event>
 5    1  0.3183383E-003  0.9118800E+02  0.7818608E-02  0.1130116E+00
         25   -1    0    0    0    0  0.00000000000E+00  0.00000000000E+00  0.99999998245E-14  0.12500000000E+03  0.12500000000E+03 0.  0.
        -11    1    3    3    0    0 -0.31555710089E+02 -0.40930214303E+01  0.98344779817E+01  0.33305144063E+02  0.51100000000E-03 0. -1.
         23    2    1    0    0    0  0.16718927629E+02  0.98529211295E+01 -0.24188681537E+02  0.93988793794E+02  0.88725410388E+02 0.  0.
         11    1    3    3    0    0  0.48274637718E+02  0.13945942560E+02 -0.34023159519E+02  0.60683649731E+02  0.51100000000E-03 0.  1.
         22    1    1    0    0    0 -0.16718927629E+02 -0.98529211295E+01  0.24188681537E+02  0.31011206206E+02  0.00000000000E+00 0.  1.
</event>
<event>
 5    1  0.3183383E-003  0.9118800E+02  0.7818608E-02  0.1130116E+00
         25   -1    0    0    0    0  0.00000000000E+00  0.00000000000E+00  0.99999998245E-14  0.12500000000E+03  0.12500000000E+03 0.  0.
        -11    1    3    3    0    0  0.35252390865E+02  0.76223028370E+01 -0.16877307683E+02  0.39820523315E+02  0.51100000000E-03 0. -1.
         23    2    1    0    0    0 -0.23319720955E+02 -0.16851806904E+01  0.47739949156E+00  0.10161459580E+03  0.98887051476E+02 0.  0.
         11    1    3    3    0    0 -0.58572111820E+02 -0.93074835274E+01  0.17354707174E+02  0.61794072483E+02  0.51100000000E-03 0.  1.
         22    1    1    0    0    0  0.23319720955E+02  0.16851806904E+01 -0.47739949156E+00  0.23385404202E+02  0.00000000000E+00 0.  1.
</event>
<event>
 5    1  0.3183383E-003  0.9118800E+02  0.7818608E-02  0.1130116E+00
         25   -1    0    0    0    0  0.00000000000E+00  0.00000000000E+00  0.99999998245E-14  0.12500000000E+03  0.12500000000E+03 0.  0.
        -11    1    3    3    0    0 -0.90037065262E+01  0.25869684190E+02 -0.22010008815E+02  0.35138978067E+02  0.51100000000E-03 0.  1.
         23    2    1    0    0    0  0.77144229737E+01 -0.26868698302E+02 -0.20232152387E+02  0.90492330411E+02  0.83654543228E+02 0.  0.
         11    1    3    3    0    0  0.16718129500E+02 -0.52738382493E+02  0.17778564279E+01  0.55353352344E+02  0.51100000000E-03 0. -1.
         22    1    1    0    0    0 -0.77144229737E+01  0.26868698302E+02  0.20232152387E+02  0.34507669589E+02  0.00000000000E+00 0. -1.
</event>
<event>
 5    1  0.3183383E-003  0.9118800E+02  0.7818608E-02  0.1130116E+00
         25   -1    0    0    0    0  0.00000000000E+00  0.00000000000E+00  0.99999998245E-14  0.12500000000E+03  0.12500000000E+03 0.  0.
        -11    1    3    3    0    0  0.43316286315E+02  0.10392491723E+01  0.10630682982E+02  0.44613810865E+02  0.51100000000E-03 0. -1.
         23    2    1    0    0    0  0.36953964740E+01 -0.28915867927E+02 -0.17259920700E+01  0.95797903813E+02  0.91238566151E+02 0.  0.
         11    1    3    3    0    0 -0.39620889841E+02 -0.29955117100E+02 -0.12356675052E+02  0.51184092948E+02  0.51100000000E-03 0.  1.
         22    1    1    0    0    0 -0.36953964740E+01  0.28915867927E+02  0.17259920700E+01  0.29202096187E+02  0.00000000000E+00 0. -1.
</event>
<event>
 5    1  0.3183383E-003  0.9118800E+02  0.7818608E-02  0.1130116E+00
         25   -1    0    0    0    0  0.00000000000E+00  0.00000000000E+00  0.99999998245E-14  0.12500000000E+03  0.12500000000E+03 0.  0.
        -11    1    3    3    0    0 -0.15697703224E+02  0.45557411704E+01  0.32170994151E+02  0.36085253623E+02  0.51100000000E-03 0.  1.
         23    2    1    0    0    0 -0.42043655451E+01  0.13724182673E+02 -0.25574390204E+02  0.95672891142E+02  0.91067133399E+02 0.  0.
         11    1    3    3    0    0  0.11493337678E+02  0.91684415028E+01 -0.57745384355E+02  0.59587637519E+02  0.51100000000E-03 0. -1.
         22    1    1    0    0    0  0.42043655451E+01 -0.13724182673E+02  0.25574390204E+02  0.29327108858E+02  0.00000000000E+00 0. -1.
</event>
<event>
 5    1  0.3183383E-003  0.9118800E+02  0.7818608E-02  0.1130116E+00
         25   -1    0    0    0    0  0.00000000000E+00  0.00000000000E+00  0.99999998245E-14  0.12500000000E+03  0.12500000000E+03 0.  0.
        -11    1    3    3    0    0  0.46321260336E+02 -0.18582544975E+02  0.23436548478E+02  0.55138389001E+02  0.51100000000E-03 0.  1.
         23    2    1    0    0    0  0.26125825710E+02  0.28338681576E+01 -0.73289022726E+01  0.97718094159E+02  0.93832422647E+02 0.  0.
         11    1    3    3    0    0 -0.20195434626E+02  0.21416413133E+02 -0.30765450751E+02  0.42579705158E+02  0.51100000000E-03 0. -1.
         22    1    1    0    0    0 -0.26125825710E+02 -0.28338681576E+01  0.73289022726E+01  0.27281905841E+02  0.00000000000E+00 0.  1.
</event>
<event>
 5    1  0.3183383E-003  0.9118800E+02  0.7818608E-02  0.1130116E+00
         25   -1    0    0    0    0  0.00000000000E+00  0.00000000000E+00  0.99999998245E-14  0.12500000000E+03  0.12500000000E+03 0.  0.
        -11    1    3    3    0    0 -0.19760126438E+02  0.40017860929E+02  0.24218236453E+02  0.50778093381E+02  0.51100000000E-03 0.  1.
         23    2    1    0    0    0  0.15664733101E+02  0.11258657699E+02  0.20945643093E+02  0.96524375320E+02  0.92228487085E+02 0.  0.
         11    1    3    3    0    0  0.35424859539E+02 -0.28759203230E+02 -0.32725933601E+01  0.45746281940E+02  0.51100000000E-03 0. -1.
         22    1    1    0    0    0 -0.15664733101E+02 -0.11258657699E+02 -0.20945643093E+02  0.28475624680E+02  0.00000000000E+00 0. -1.
</event>
<event>
 5    1  0.3183383E-003  0.9118800E+02  0.7818608E-02  0.1130116E+00
         25   -1    0    0    0    0  0.00000000000E+00  0.00000000000E+00  0.99999998245E-14  0.12500000000E+03  0.12500000000E+03 0.  0.
        -11    1    3    3    0    0 -0.49142009132E+02  0.26252265438E+02 -0.20612096840E+02  0.59405193700E+02  0.51100000000E-03 0. -1.
         23    2    1    0    0    0 -0.24395653951E+02  0.16314167907E+02  0.36098800844E+01  0.95430907346E+02  0.90734375164E+02 0.  0.
         11    1    3    3    0    0  0.24746355181E+02 -0.99380975311E+01  0.24221976925E+02  0.36025713646E+02  0.51100000000E-03 0.  1.
         22    1    1    0    0    0  0.24395653951E+02 -0.16314167907E+02 -0.36098800844E+01  0.29569092654E+02  0.00000000000E+00 0. -1.
</event>
<event>
 5    1  0.3183383E-003  0.9118800E+02  0.7818608E-02  0.1130116E+00
         25   -1    0    0    0    0  0.00000000000E+00  0.00000000000E+00  0.99999998245E-14  0.12500000000E+03  0.12500000000E+03 0.  0.
        -11    1    3    3    0    0  0.88831765436E+01 -0.42460501558E+02  0.10705476175E+02  0.44681229151E+02  0.51100000000E-03 0.  1.
         23    2    1    0    0    0 -0.27855880644E+02 -0.76566681466E+01  0.18996966757E+01  0.96048601052E+02  0.91581386008E+02 0.  0.
         11    1    3    3    0    0 -0.36739057188E+02  0.34803833412E+02 -0.88057794992E+01  0.51367371901E+02  0.51100000000E-03 0. -1.
         22    1    1    0    0    0  0.27855880644E+02  0.76566681466E+01 -0.18996966757E+01  0.28951398948E+02  0.00000000000E+00 0.  1.
</event>
<event>
 5    1  0.3183383E-003  0.9118800E+02  0.7818608E-02  0.1130116E+00
         25   -1    0    0    0    0  0.00000000000E+00  0.00000000000E+00  0.99999998245E-14  0.12500000000E+03  0.12500000000E+03 0.  0.
        -11    1    3    3    0    0 -0.32099920431E+01 -0.13085436531E+02  0.32046823683E+02  0.34763941182E+02  0.51100000000E-03 0.  1.
         23    2    1    0    0    0 -0.66729136941E+01 -0.30738557183E+01 -0.28160893299E+02  0.95896524648E+02  0.91373580219E+02 0.  0.
         11    1    3    3    0    0 -0.34629216510E+01  0.10011580812E+02 -0.60207716982E+02  0.61132583466E+02  0.51100000000E-03 0. -1.
         22    1    1    0    0    0  0.66729136941E+01  0.30738557183E+01  0.28160893299E+02  0.29103475352E+02  0.00000000000E+00 0. -1.
</event>
<event>
 5    1  0.3183383E-003  0.9118800E+02  0.7818608E-02  0.1130116E+00
         25   -1    0    0    0    0  0.00000000000E+00  0.00000000000E+00  0.99999998245E-14  0.12500000000E+03  0.12500000000E+03 0.  0.
        -11    1    3    3    0    0 -0.31224952182E+01 -0.15277922259E+02 -0.40031034291E+02  0.42961012460E+02  0.51100000000E-03 0.  1.
         23    2    1    0    0    0 -0.28300086450E+02 -0.36635851763E+01  0.51801818270E+01  0.95997396096E+02  0.91511469358E+02 0.  0.
         11    1    3    3    0    0 -0.25177591232E+02  0.11614337083E+02  0.45211216118E+02  0.53036383636E+02  0.51100000000E-03 0. -1.
         22    1    1    0    0    0  0.28300086450E+02  0.36635851763E+01 -0.51801818270E+01  0.29002603904E+02  0.00000000000E+00 0. -1.
</event>
<event>
 5    1  0.3183383E-003  0.9118800E+02  0.7818608E-02  0.1130116E+00
         25   -1    0    0    0    0  0.00000000000E+00  0.00000000000E+00  0.99999998245E-14  0.12500000000E+03  0.12500000000E+03 0.  0.
        -11    1    3    3    0    0 -0.53397224808E+02  0.16703275863E+02 -0.13617644683E+02  0.57582143835E+02  0.51100000000E-03 0. -1.
         23    2    1    0    0    0 -0.22803595530E+02 -0.73164154944E+01 -0.15413861228E+02  0.96519813506E+02  0.92222304116E+02 0.  0.
         11    1    3    3    0    0  0.30593629277E+02 -0.24019691357E+02 -0.17962165443E+01  0.38937669671E+02  0.51100000000E-03 0.  1.
         22    1    1    0    0    0  0.22803595530E+02  0.73164154944E+01  0.15413861228E+02  0.28480186494E+02  0.00000000000E+00 0. -1.
</event>
<event>
 5    1  0.3183383E-003  0.9118800E+02  0.7818608E-02  0.1130116E+00
         25   -1    0    0    0    0  0.00000000000E+00  0.00000000000E+00  0.99999998245E-14  0.12500000000E+03  0.12500000000E+03 0.  0.
        -11    1    3    3    0    0 -0.18838323725E+02  0.58035481236E+01  0.27061145504E+02  0.33479384819E+02  0.51100000000E-03 0. -1.
         23    2    1    0    0    0  0.24147375617E+02  0.25910149627E+02 -0.26737616586E+01  0.89481264039E+02  0.82129872821E+02 0.  0.
         11    1    3    3    0    0  0.42985699342E+02  0.20106601503E+02 -0.29734907163E+02  0.56001879220E+02  0.51100000000E-03 0.  1.
         22    1    1    0    0    0 -0.24147375617E+02 -0.25910149627E+02  0.26737616586E+01  0.35518735961E+02  0.00000000000E+00 0. -1.
</event>
<event>
 5    1  0.3183383E-003  0.9118800E+02  0.7818608E-02  0.1130116E+00
         25   -1    0    0    0    0  0.00000000000E+00  0.00000000000E+00  0.99999998245E-14  0.12500000000E+03  0.12500000000E+03 0.  0.
        -11    1    3    3    0    0  0.44860016404E+01  0.10080405644E+02 -0.37915386897E+02  0.39488167247E+02  0.51100000000E-03 0.  1.
         23    2    1    0    0    0  0.24414269837E+02 -0.13289478169E+02  0.91914645032E+01  0.95722878875E+02  0.91135721420E+02 0.  0.
         11    1    3    3    0    0  0.19928268197E+02 -0.23369883813E+02  0.47106851401E+02  0.56234711628E+02  0.51100000000E-03 0. -1.
         22    1    1    0    0    0 -0.24414269837E+02  0.13289478169E+02 -0.91914645032E+01  0.29277121125E+02  0.00000000000E+00 0. -1.
</event>
<event>
 5    1  0.3183383E-003  0.9118800E+02  0.7818608E-02  0.1130116E+00
         25   -1    0    0    0    0  0.00000000000E+00  0.00000000000E+00  0.99999998245E-14  0.12500000000E+03  0.12500000000E+03 0.  0.
        -11    1    3    3    0    0  0.53591639037E+02 -0.35421440003E+01  0.20966056429E+02  0.57655754971E+02  0.51100000000E-03 0.  1.
         23    2    1    0    0    0  0.18935597820E+02  0.12205150298E+02  0.18583254039E+02  0.95796235015E+02  0.91236279812E+02 0.  0.
         11    1    3    3    0    0 -0.34656041217E+02  0.15747294299E+02 -0.23828023907E+01  0.38140480045E+02  0.51100000000E-03 0. -1.
         22    1    1    0    0    0 -0.18935597820E+02 -0.12205150298E+02 -0.18583254039E+02  0.29203764985E+02  0.00000000000E+00 0.  1.
</event>
<event>
 5    1  0.3183383E-003  0.9118800E+02  0.7818608E-02  0.1130116E+00
         25   -1    0    0    0    0  0.00000000000E+00  0.00000000000E+00  0.99999998245E-14  0.12500000000E+03  0.12500000000E+03 0.  0.
        -11    1    3    3    0    0 -0.52797502165E+02 -0.23500939682E+02 -0.20105929054E+02  0.61189204801E+02  0.51100000000E-03 0.  1.
         23    2    1    0    0    0 -0.23956047497E+02 -0.20433960319E+02 -0.11988957905E+02  0.91307655800E+02  0.84864091052E+02 0.  0.
         11    1    3    3    0    0  0.28841454667E+02  0.30669793630E+01  0.81169711486E+01  0.30118451000E+02  0.51100000000E-03 0. -1.
         22    1    1    0    0    0  0.23956047497E+02  0.20433960319E+02  0.11988957905E+02  0.33692344200E+02  0.00000000000E+00 0.  1.
</event>
<event>
 5    1  0.3183383E-003  0.9118800E+02  0.7818608E-02  0.1130116E+00
         25   -1    0    0    0    0  0.00000000000E+00  0.00000000000E+00  0.99999998245E-14  0.12500000000E+03  0.12500000000E+03 0.  0.
        -11    1    3    3    0    0  0.58226594784E+02  0.13025589395E+02  0.12364878462E+02  0.60933509162E+02  0.51100000000E-03 0. -1.
         23    2    1    0    0    0  0.24586614024E+02  0.15608219767E+02  0.58573322668E+01  0.95294336319E+02  0.90546032932E+02 0.  0.
         11    1    3    3    0    0 -0.33639980759E+02  0.25826303716E+01 -0.65075461954E+01  0.34360827156E+02  0.51100000000E-03 0.  1.
         22    1    1    0    0    0 -0.24586614024E+02 -0.15608219767E+02 -0.58573322668E+01  0.29705663681E+02  0.00000000000E+00 0. -1.
</event>
<event>
 5    1  0.3183383E-003  0.9118800E+02  0.7818608E-02  0.1130116E+00
         25   -1    0    0    0    0  0.00000000000E+00  0.00000000000E+00  0.99999998245E-14  0.12500000000E+03  0.12500000000E+03 0.  0.
        -11    1    3    3    0    0 -0.19078809028E+02 -0.19464337031E+02 -0.27006023537E+02  0.38369084919E+02  0.51100000000E-03 0. -1.
         23    2    1    0    0    0  0.10254774481E+02 -0.15930007166E+02  0.22231462883E+02  0.95791037850E+02  0.91229159058E+02 0.  0.
         11    1    3    3    0    0  0.29333583510E+02  0.35343298652E+01  0.49237486420E+02  0.57421952931E+02  0.51100000000E-03 0.  1.
         22    1    1    0    0    0 -0.10254774481E+02  0.15930007166E+02 -0.22231462883E+02  0.29208962150E+02  0.00000000000E+00 0.  1.
</event>
<event>
 5    1  0.3183383E-003  0.9118800E+02  0.7818608E-02  0.1130116E+00
         25   -1    0    0    0    0  0.00000000000E+00  0.00000000000E+00  0.99999998245E-14  0.12500000000E+03  0.12500000000E+03 0.  0.
        -11    1    3    3    0    0  0.27557347471E+02  0.16988489248E+02 -0.10686549999E+02  0.34091326136E+02  0.51100000000E-03 0.  1.
         23    2    1    0    0    0 -0.98542198575E+01 -0.24757328009E+02 -0.20980498615E+02  0.91085220607E+02  0.84535821707E+02 0.  0.
         11    1    3    3    0    0 -0.37411567329E+02 -0.41745817258E+02 -0.10293948617E+02  0.56993894470E+02  0.51100000000E-03 0. -1.
         22    1    1    0    0    0  0.98542198575E+01  0.24757328009E+02  0.20980498615E+02  0.33914779393E+02  0.00000000000E+00 0. -1.
</event>
<event>
 5    1  0.3183383E-003  0.9118800E+02  0.7818608E-02  0.1130116E+00
         25   -1    0    0    0    0  0.00000000000E+00  0.00000000000E+00  0.99999998245E-14  0.12500000000E+03  0.12500000000E+03 0.  0.
        -11    1    3    3    0    0  0.44887912277E+02  0.10296618146E+02  0.10953483816E+02  0.47338396908E+02  0.51100000000E-03 0. -1.
         23    2    1    0    0    0  0.18686734946E+02 -0.18967244241E+02 -0.15020834443E+02  0.94429166116E+02  0.89343670894E+02 0.  0.
         11    1    3    3    0    0 -0.26201177331E+02 -0.29263862387E+02 -0.25974318258E+02  0.47090769208E+02  0.51100000000E-03 0.  1.
         22    1    1    0    0    0 -0.18686734946E+02  0.18967244241E+02  0.15020834443E+02  0.30570833884E+02  0.00000000000E+00 0.  1.
</event>
<event>
 5    1  0.3183383E-003  0.9118800E+02  0.7818608E-02  0.1130116E+00
         25   -1    0    0    0    0  0.00000000000E+00  0.00000000000E+00  0.99999998245E-14  0.12500000000E+03  0.12500000000E+03 0.  0.
        -11    1    3    3    0    0 -0.14647748205E+01 -0.40908443995E+02 -0.10471588812E+02  0.42252816804E+02  0.51100000000E-03 0. -1.
         23    2    1    0    0    0 -0.26443021511E+02  0.73935701420E+00  0.12224726650E+02  0.95858552248E+02  0.91321618809E+02 0.  0.
         11    1    3    3    0    0 -0.24978246691E+02  0.41647801009E+02  0.22696315462E+02  0.53605735444E+02  0.51100000000E-03 0.  1.
         22    1    1    0    0    0  0.26443021511E+02 -0.73935701420E+00 -0.12224726650E+02  0.29141447752E+02  0.00000000000E+00 0.  1.
</event>
<event>
 5    1  0.3183383E-003  0.9118800E+02  0.7818608E-02  0.1130116E+00
         25   -1    0    0    0    0  0.00000000000E+00  0.00000000000E+00  0.99999998245E-14  0.12500000000E+03  0.12500000000E+03 0.  0.
        -11    1    3    3    0    0 -0.16474546770E+02  0.12803695714E+02  0.43413709663E+02  0.48167369683E+02  0.51100000000E-03 0. -1.
         23    2    1    0    0    0  0.21501801471E+02  0.11250800014E+02  0.10077980130E+02  0.98723134682E+02  0.95161881394E+02 0.  0.
         11    1    3    3    0    0  0.37976348242E+02 -0.15528956995E+01 -0.33335729533E+02  0.50555764998E+02  0.51100000000E-03 0.  1.
         22    1    1    0    0    0 -0.21501801471E+02 -0.11250800014E+02 -0.10077980130E+02  0.26276865318E+02  0.00000000000E+00 0.  1.
</event>
<event>
 5    1  0.3183383E-003  0.9118800E+02  0.7818608E-02  0.1130116E+00
         25   -1    0    0    0    0  0.00000000000E+00  0.00000000000E+00  0.99999998245E-14  0.12500000000E+03  0.12500000000E+03 0.  0.
        -11    1    3    3    0    0  0.31528896196E+02 -0.35089055380E+02  0.20865740008E+02  0.51581898076E+02  0.51100000000E-03 0.  1.
         23    2    1    0    0    0  0.25609778787E+01 -0.27109001096E+02 -0.11228335983E+02  0.95546102515E+02  0.90892934977E+02 0.  0.
         11    1    3    3    0    0 -0.28967918318E+02  0.79800542841E+01 -0.32094075990E+02  0.43964204439E+02  0.51100000000E-03 0. -1.
         22    1    1    0    0    0 -0.25609778787E+01  0.27109001096E+02  0.11228335983E+02  0.29453897485E+02  0.00000000000E+00 0.  1.
</event>
<event>
 5    1  0.3183383E-003  0.9118800E+02  0.7818608E-02  0.1130116E+00
         25   -1    0    0    0    0  0.00000000000E+00  0.00000000000E+00  0.99999998245E-14  0.12500000000E+03  0.12500000000E+03 0.  0.
        -11    1    3    3    0    0  0.14145614904E+02  0.31253996374E+02  0.11015642462E+02  0.36031307074E+02  0.51100000000E-03 0.  1.
         23    2    1    0    0    0 -0.12026713155E+02 -0.23343652369E+02  0.10873658540E+02  0.96578100252E+02  0.92301273355E+02 0.  0.
         11    1    3    3    0    0 -0.26172328059E+02 -0.54597648743E+02 -0.14198392256E+00  0.60546793177E+02  0.51100000000E-03 0. -1.
         22    1    1    0    0    0  0.12026713155E+02  0.23343652369E+02 -0.10873658540E+02  0.28421899748E+02  0.00000000000E+00 0. -1.
</event>
<event>
 5    1  0.3183383E-003  0.9118800E+02  0.7818608E-02  0.1130116E+00
         25   -1    0    0    0    0  0.00000000000E+00  0.00000000000E+00  0.99999998245E-14  0.12500000000E+03  0.12500000000E+03 0.  0.
        -11    1    3    3    0    0 -0.30053311839E+02  0.27124124216E+02  0.38789197871E+02  0.56067116376E+02  0.51100000000E-03 0.  1.
         23    2    1    0    0    0 -0.17943945108E+01  0.26447876339E+02  0.93224600084E+01  0.96899852757E+02  0.92735986484E+02 0.  0.
         11    1    3    3    0    0  0.28258917328E+02 -0.67624787711E+00 -0.29466737863E+02  0.40832736380E+02  0.51100000000E-03 0. -1.
         22    1    1    0    0    0  0.17943945108E+01 -0.26447876339E+02 -0.93224600084E+01  0.28100147243E+02  0.00000000000E+00 0.  1.
</event>
<event>
 5    1  0.3183383E-003  0.9118800E+02  0.7818608E-02  0.1130116E+00
         25   -1    0    0    0    0  0.00000000000E+00  0.00000000000E+00  0.99999998245E-14  0.12500000000E+03  0.12500000000E+03 0.  0.
        -11    1    3    3    0    0  0.47438221806E+02  0.24193817926E+02 -0.24518018342E+02  0.58624729745E+02  0.51100000000E-03 0.  1.
         23    2    1    0    0    0  0.29524851409E+02  0.16120785366E+01 -0.17087850743E+01  0.95381836749E+02  0.90666747969E+02 0.  0.
         11    1    3    3    0    0 -0.17913370397E+02 -0.22581739389E+02  0.22809233268E+02  0.36757107005E+02  0.51100000000E-03 0. -1.
         22    1    1    0    0    0 -0.29524851409E+02 -0.16120785366E+01  0.17087850743E+01  0.29618163251E+02  0.00000000000E+00 0.  1.
</event>
<event>
 5    1  0.3183383E-003  0.9118800E+02  0.7818608E-02  0.1130116E+00
         25   -1    0    0    0    0  0.00000000000E+00  0.00000000000E+00  0.99999998245E-14  0.12500000000E+03  0.12500000000E+03 0.  0.
        -11    1    3    3    0    0 -0.12577906534E+02  0.24701793165E+01 -0.59068395917E+02  0.60443204044E+02  0.51100000000E-03 0. -1.
         23    2    1    0    0    0 -0.15095347784E+02  0.85531704352E+01 -0.29150295594E+02  0.91077058170E+02  0.84523751351E+02 0.  0.
         11    1    3    3    0    0 -0.25174412499E+01  0.60829911186E+01  0.29918100323E+02  0.30633854126E+02  0.51100000000E-03 0.  1.
         22    1    1    0    0    0  0.15095347784E+02 -0.85531704352E+01  0.29150295594E+02  0.33922941830E+02  0.00000000000E+00 0. -1.
</event>
<event>
 5    1  0.3183383E-003  0.9118800E+02  0.7818608E-02  0.1130116E+00
         25   -1    0    0    0    0  0.00000000000E+00  0.00000000000E+00  0.99999998245E-14  0.12500000000E+03  0.12500000000E+03 0.  0.
        -11    1    3    3    0    0  0.15549914393E+02  0.35608458586E+02  0.65251943148E+00  0.38861136658E+02  0.51100000000E-03 0.  1.
         23    2    1    0    0    0 -0.28259185323E+02  0.16146766529E+00 -0.74010304963E+01  0.95787282233E+02  0.91224013057E+02 0.  0.
         11    1    3    3    0    0 -0.43809099716E+02 -0.35446990921E+02 -0.80535499278E+01  0.56926145575E+02  0.51100000000E-03 0. -1.
         22    1    1    0    0    0  0.28259185323E+02 -0.16146766529E+00  0.74010304963E+01  0.29212717767E+02  0.00000000000E+00 0. -1.
</event>
<event>
 5    1  0.3183383E-003  0.9118800E+02  0.7818608E-02  0.1130116E+00
         25   -1    0    0    0    0  0.00000000000E+00  0.00000000000E+00  0.99999998245E-14  0.12500000000E+03  0.12500000000E+03 0.  0.
        -11    1    3    3    0    0 -0.12436501165E+02  0.13154587748E+02 -0.57889011506E+02  0.60653502730E+02  0.51100000000E-03 0.  1.
         23    2    1    0    0    0 -0.31154645488E+00 -0.26046514219E+01 -0.29892677440E+02  0.94992443706E+02  0.90128302583E+02 0.  0.
         11    1    3    3    0    0  0.12124954710E+02 -0.15759239170E+02  0.27996334066E+02  0.34338940976E+02  0.51100000000E-03 0. -1.
         22    1    1    0    0    0  0.31154645488E+00  0.26046514219E+01  0.29892677440E+02  0.30007556294E+02  0.00000000000E+00 0.  1.
</event>
<event>
 5    1  0.3183383E-003  0.9118800E+02  0.7818608E-02  0.1130116E+00
         25   -1    0    0    0    0  0.00000000000E+00  0.00000000000E+00  0.99999998245E-14  0.12500000000E+03  0.12500000000E+03 0.  0.
        -11    1    3    3    0    0 -0.25039847703E+02 -0.15759430615E+02  0.24891567052E+02  0.38664502284E+02  0.51100000000E-03 0.  1.
         23    2    1    0    0    0  0.40649010871E+00  0.15006135956E+02 -0.20804299108E+02  0.99345210741E+02  0.95975531701E+02 0.  0.
         11    1    3    3    0    0  0.25446337812E+02  0.30765566571E+02 -0.45695866160E+02  0.60680708457E+02  0.51100000000E-03 0. -1.
         22    1    1    0    0    0 -0.40649010871E+00 -0.15006135956E+02  0.20804299108E+02  0.25654789259E+02  0.00000000000E+00 0. -1.
</event>
<event>
 5    1  0.3183383E-003  0.9118800E+02  0.7818608E-02  0.1130116E+00
         25   -1    0    0    0    0  0.00000000000E+00  0.00000000000E+00  0.99999998245E-14  0.12500000000E+03  0.12500000000E+03 0.  0.
        -11    1    3    3    0    0  0.44887441882E+01  0.22286145936E+02  0.28762304307E+02  0.36661850394E+02  0.51100000000E-03 0.  1.
         23    2    1    0    0    0  0.15182655630E+02 -0.34651181460E+00 -0.24876618683E+02  0.95854172519E+02  0.91315623690E+02 0.  0.
         11    1    3    3    0    0  0.10693911442E+02 -0.22632657750E+02 -0.53638922990E+02  0.59192322125E+02  0.51100000000E-03 0. -1.
         22    1    1    0    0    0 -0.15182655630E+02  0.34651181460E+00  0.24876618683E+02  0.29145827481E+02  0.00000000000E+00 0. -1.
</event>
<event>
 5    1  0.3183383E-003  0.9118800E+02  0.7818608E-02  0.1130116E+00
         25   -1    0    0    0    0  0.00000000000E+00  0.00000000000E+00  0.99999998245E-14  0.12500000000E+03  0.12500000000E+03 0.  0.
        -11    1    3    3    0    0 -0.14157019762E+02  0.43165367419E+02  0.23525083053E+01  0.45488508973E+02  0.51100000000E-03 0.  1.
         23    2    1    0    0    0  0.12082575171E+02  0.98689454150E+01 -0.24705764765E+02  0.95780836442E+02  0.91215180264E+02 0.  0.
         11    1    3    3    0    0  0.26239594933E+02 -0.33296422004E+02 -0.27058273070E+02  0.50292327470E+02  0.51100000000E-03 0. -1.
         22    1    1    0    0    0 -0.12082575171E+02 -0.98689454150E+01  0.24705764765E+02  0.29219163558E+02  0.00000000000E+00 0.  1.
</event>
<event>
 5    1  0.3183383E-003  0.9118800E+02  0.7818608E-02  0.1130116E+00
         25   -1    0    0    0    0  0.00000000000E+00  0.00000000000E+00  0.99999998245E-14  0.12500000000E+03  0.12500000000E+03 0.  0.
        -11    1    3    3    0    0 -0.17134709163E+02  0.14873537780E+02  0.17235547878E+02  0.28493586912E+02  0.51100000000E-03 0.  1.
         23    2    1    0    0    0  0.24092701799E+02 -0.19648789113E+02 -0.14244251779E+02  0.90803042499E+02  0.84117540529E+02 0.  0.
         11    1    3    3    0    0  0.41227410962E+02 -0.34522326894E+02 -0.31479799658E+02  0.62309455587E+02  0.51100000000E-03 0. -1.
         22    1    1    0    0    0 -0.24092701799E+02  0.19648789113E+02  0.14244251779E+02  0.34196957501E+02  0.00000000000E+00 0. -1.
</event>
<event>
 5    1  0.3183383E-003  0.9118800E+02  0.7818608E-02  0.1130116E+00
         25   -1    0    0    0    0  0.00000000000E+00  0.00000000000E+00  0.99999998245E-14  0.12500000000E+03  0.12500000000E+03 0.  0.
        -11    1    3    3    0    0  0.29357370164E+01 -0.37878611363E+02 -0.31312163895E+02  0.49232706189E+02  0.51100000000E-03 0.  1.
         23    2    1    0    0    0  0.23696728359E+02 -0.57505874631E+01 -0.28359388566E+02  0.87598675011E+02  0.79212806747E+02 0.  0.
         11    1    3    3    0    0  0.20760991343E+02  0.32128023900E+02  0.29527753296E+01  0.38365968822E+02  0.51100000000E-03 0. -1.
         22    1    1    0    0    0 -0.23696728359E+02  0.57505874631E+01  0.28359388566E+02  0.37401324989E+02  0.00000000000E+00 0. -1.
</event>
<event>
 5    1  0.3183383E-003  0.9118800E+02  0.7818608E-02  0.1130116E+00
         25   -1    0    0    0    0  0.00000000000E+00  0.00000000000E+00  0.99999998245E-14  0.12500000000E+03  0.12500000000E+03 0.  0.
        -11    1    3    3    0    0 -0.33183578189E+02 -0.30125606696E+02 -0.39572793666E+02  0.59788862166E+02  0.51100000000E-03 0.  1.
         23    2    1    0    0    0 -0.25271729518E+02 -0.74211085415E+01 -0.12989928146E+02  0.95632136645E+02  0.91011176023E+02 0.  0.
         11    1    3    3    0    0  0.79118486710E+01  0.22704498155E+02  0.26582865520E+02  0.35843274479E+02  0.51100000000E-03 0. -1.
         22    1    1    0    0    0  0.25271729518E+02  0.74211085415E+01  0.12989928146E+02  0.29367863355E+02  0.00000000000E+00 0.  1.
</event>
<event>
 5    1  0.3183383E-003  0.9118800E+02  0.7818608E-02  0.1130116E+00
         25   -1    0    0    0    0  0.00000000000E+00  0.00000000000E+00  0.99999998245E-14  0.12500000000E+03  0.12500000000E+03 0.  0.
        -11    1    3    3    0    0 -0.31326805577E+02  0.46386706612E+02  0.44096426433E+00  0.55975796088E+02  0.51100000000E-03 0.  1.
         23    2    1    0    0    0  0.11227343208E+01  0.25838012260E+02 -0.12191023052E+02  0.96408314968E+02  0.92071052683E+02 0.  0.
         11    1    3    3    0    0  0.32449539898E+02 -0.20548694352E+02 -0.12631987317E+02  0.40432518880E+02  0.51100000000E-03 0. -1.
         22    1    1    0    0    0 -0.11227343208E+01 -0.25838012260E+02  0.12191023052E+02  0.28591685032E+02  0.00000000000E+00 0.  1.
</event>
<event>
 5    1  0.3183383E-003  0.9118800E+02  0.7818608E-02  0.1130116E+00
         25   -1    0    0    0    0  0.00000000000E+00  0.00000000000E+00  0.99999998245E-14  0.12500000000E+03  0.12500000000E+03 0.  0.
        -11    1    3    3    0    0 -0.23581581940E+02 -0.73540859574E+01  0.52599749765E+02  0.58111162978E+02  0.51100000000E-03 0. -1.
         23    2    1    0    0    0 -0.90150665363E+01  0.12913443657E+02  0.26117328943E+02  0.94501748856E+02  0.89445163167E+02 0.  0.
         11    1    3    3    0    0  0.14566515404E+02  0.20267529614E+02 -0.26482420822E+02  0.36390585878E+02  0.51100000000E-03 0.  1.
         22    1    1    0    0    0  0.90150665363E+01 -0.12913443657E+02 -0.26117328943E+02  0.30498251144E+02  0.00000000000E+00 0. -1.
</event>
<event>
 5    1  0.3183383E-003  0.9118800E+02  0.7818608E-02  0.1130116E+00
         25   -1    0    0    0    0  0.00000000000E+00  0.00000000000E+00  0.99999998245E-14  0.12500000000E+03  0.12500000000E+03 0.  0.
        -11    1    3    3    0    0 -0.48590525332E+01 -0.18099694702E+02 -0.38589472564E+02  0.42899379166E+02  0.51100000000E-03 0.  1.
         23    2    1    0    0    0 -0.26697430146E+02 -0.83870475124E+01  0.85392940417E+01  0.95742267943E+02  0.91162311213E+02 0.  0.
         11    1    3    3    0    0 -0.21838377613E+02  0.97126471898E+01  0.47128766606E+02  0.52842888776E+02  0.51100000000E-03 0. -1.
         22    1    1    0    0    0  0.26697430146E+02  0.83870475124E+01 -0.85392940417E+01  0.29257732057E+02  0.00000000000E+00 0. -1.
</event>
<event>
 5    1  0.3183383E-003  0.9118800E+02  0.7818608E-02  0.1130116E+00
         25   -1    0    0    0    0  0.00000000000E+00  0.00000000000E+00  0.99999998245E-14  0.12500000000E+03  0.12500000000E+03 0.  0.
        -11    1    3    3    0    0  0.49274120463E+01  0.27108812387E+02  0.26256769712E+02  0.38060281850E+02  0.51100000000E-03 0.  1.
         23    2    1    0    0    0 -0.28543555809E+02  0.25765235332E+01 -0.11456394260E+02  0.94135424494E+02  0.88931749806E+02 0.  0.
         11    1    3    3    0    0 -0.33470967855E+02 -0.24532288854E+02 -0.37713163971E+02  0.56075142644E+02  0.51100000000E-03 0. -1.
         22    1    1    0    0    0  0.28543555809E+02 -0.25765235332E+01  0.11456394260E+02  0.30864575506E+02  0.00000000000E+00 0. -1.
</event>
<event>
 5    1  0.3183383E-003  0.9118800E+02  0.7818608E-02  0.1130116E+00
         25   -1    0    0    0    0  0.00000000000E+00  0.00000000000E+00  0.99999998245E-14  0.12500000000E+03  0.12500000000E+03 0.  0.
        -11    1    3    3    0    0  0.85426705132E+01 -0.29006344357E+02  0.50073117055E+02  0.58494976573E+02  0.51100000000E-03 0.  1.
         23    2    1    0    0    0 -0.11006873837E+02 -0.18513674649E+02  0.23215233048E+02  0.93332122488E+02  0.87795390664E+02 0.  0.
         11    1    3    3    0    0 -0.19549544350E+02  0.10492669708E+02 -0.26857884007E+02  0.34837145915E+02  0.51100000000E-03 0. -1.
         22    1    1    0    0    0  0.11006873837E+02  0.18513674649E+02 -0.23215233048E+02  0.31667877512E+02  0.00000000000E+00 0.  1.
</event>
<event>
 5    1  0.3183383E-003  0.9118800E+02  0.7818608E-02  0.1130116E+00
         25   -1    0    0    0    0  0.00000000000E+00  0.00000000000E+00  0.99999998245E-14  0.12500000000E+03  0.12500000000E+03 0.  0.
        -11    1    3    3    0    0 -0.17418625660E+02 -0.74967416056E+01 -0.37606925187E+02  0.42117579190E+02  0.51100000000E-03 0.  1.
         23    2    1    0    0    0  0.25257617804E+02  0.99615808797E+01 -0.89246546300E+01  0.96419765378E+02  0.92086596987E+02 0.  0.
         11    1    3    3    0    0  0.42676243464E+02  0.17458322485E+02  0.28682270557E+02  0.54302186188E+02  0.51100000000E-03 0. -1.
         22    1    1    0    0    0 -0.25257617804E+02 -0.99615808797E+01  0.89246546300E+01  0.28580234622E+02  0.00000000000E+00 0. -1.
</event>
<event>
 5    1  0.3183383E-003  0.9118800E+02  0.7818608E-02  0.1130116E+00
         25   -1    0    0    0    0  0.00000000000E+00  0.00000000000E+00  0.99999998245E-14  0.12500000000E+03  0.12500000000E+03 0.  0.
        -11    1    3    3    0    0 -0.50493698233E+02  0.10133654060E+02 -0.22697214837E+02  0.56280263570E+02  0.51100000000E-03 0.  1.
         23    2    1    0    0    0 -0.12395888387E+02  0.52128917105E+00 -0.26483882193E+02  0.95754046309E+02  0.91178460051E+02 0.  0.
         11    1    3    3    0    0  0.38097809846E+02 -0.96123648891E+01 -0.37866673561E+01  0.39473782739E+02  0.51100000000E-03 0. -1.
         22    1    1    0    0    0  0.12395888387E+02 -0.52128917105E+00  0.26483882193E+02  0.29245953691E+02  0.00000000000E+00 0.  1.
</event>
<event>
 5    1  0.3183383E-003  0.9118800E+02  0.7818608E-02  0.1130116E+00
         25   -1    0    0    0    0  0.00000000000E+00  0.00000000000E+00  0.99999998245E-14  0.12500000000E+03  0.12500000000E+03 0.  0.
        -11    1    3    3    0    0 -0.16893221016E+02  0.52773899039E+01  0.33531010467E+02  0.37915174056E+02  0.51100000000E-03 0.  1.
         23    2    1    0    0    0  0.40855575453E+01 -0.24625995115E+02 -0.12826406301E+02  0.96934930707E+02  0.92783256446E+02 0.  0.
         11    1    3    3    0    0  0.20978778562E+02 -0.29903385018E+02 -0.46357416768E+02  0.59019756651E+02  0.51100000000E-03 0. -1.
         22    1    1    0    0    0 -0.40855575453E+01  0.24625995115E+02  0.12826406301E+02  0.28065069293E+02  0.00000000000E+00 0. -1.
</event>
<event>
 5    1  0.3183383E-003  0.9118800E+02  0.7818608E-02  0.1130116E+00
         25   -1    0    0    0    0  0.00000000000E+00  0.00000000000E+00  0.99999998245E-14  0.12500000000E+03  0.12500000000E+03 0.  0.
        -11    1    3    3    0    0 -0.34038229375E+02  0.48011208605E+02 -0.97926266378E+01  0.59662155068E+02  0.51100000000E-03 0.  1.
         23    2    1    0    0    0 -0.51193893720E+01  0.26502612771E+02 -0.11308037836E+02  0.95734519465E+02  0.91151686031E+02 0.  0.
         11    1    3    3    0    0  0.28918840003E+02 -0.21508595834E+02 -0.15154111978E+01  0.36072364397E+02  0.51100000000E-03 0. -1.
         22    1    1    0    0    0  0.51193893720E+01 -0.26502612771E+02  0.11308037836E+02  0.29265480535E+02  0.00000000000E+00 0.  1.
</event>
<event>
 5    1  0.3183383E-003  0.9118800E+02  0.7818608E-02  0.1130116E+00
         25   -1    0    0    0    0  0.00000000000E+00  0.00000000000E+00  0.99999998245E-14  0.12500000000E+03  0.12500000000E+03 0.  0.
        -11    1    3    3    0    0 -0.13791440614E+02  0.42209620365E+02 -0.81124494911E+01  0.45140533033E+02  0.51100000000E-03 0.  1.
         23    2    1    0    0    0 -0.18933959043E+02  0.18985221538E+01  0.22142675743E+02  0.95804156452E+02  0.91247132081E+02 0.  0.
         11    1    3    3    0    0 -0.51425184289E+01 -0.40311098211E+02  0.30255125234E+02  0.50663623419E+02  0.51100000000E-03 0. -1.
         22    1    1    0    0    0  0.18933959043E+02 -0.18985221538E+01 -0.22142675743E+02  0.29195843548E+02  0.00000000000E+00 0.  1.
</event>
<event>
 5    1  0.3183383E-003  0.9118800E+02  0.7818608E-02  0.1130116E+00
         25   -1    0    0    0    0  0.00000000000E+00  0.00000000000E+00  0.99999998245E-14  0.12500000000E+03  0.12500000000E+03 0.  0.
        -11    1    3    3    0    0 -0.90206848043E+01  0.35971911670E+02  0.26490021085E+01  0.37180215115E+02  0.51100000000E-03 0.  1.
         23    2    1    0    0    0  0.26138322188E+02 -0.10226427658E+02 -0.70992653851E+01  0.96048466734E+02  0.91581202676E+02 0.  0.
         11    1    3    3    0    0  0.35159006992E+02 -0.46198339328E+02 -0.97482674935E+01  0.58868251620E+02  0.51100000000E-03 0. -1.
         22    1    1    0    0    0 -0.26138322188E+02  0.10226427658E+02  0.70992653851E+01  0.28951533266E+02  0.00000000000E+00 0. -1.
</event>
<event>
 5    1  0.3183383E-003  0.9118800E+02  0.7818608E-02  0.1130116E+00
         25   -1    0    0    0    0  0.00000000000E+00  0.00000000000E+00  0.99999998245E-14  0.12500000000E+03  0.12500000000E+03 0.  0.
        -11    1    3    3    0    0  0.30688631439E+02  0.26571461343E+02  0.23176750529E+02  0.46743945307E+02  0.51100000000E-03 0.  1.
         23    2    1    0    0    0  0.22780696637E+02  0.85975623547E+01 -0.19554349096E+02  0.93770994472E+02  0.88418033330E+02 0.  0.
         11    1    3    3    0    0 -0.79079348020E+01 -0.17973898989E+02 -0.42731099625E+02  0.47027049165E+02  0.51100000000E-03 0. -1.
         22    1    1    0    0    0 -0.22780696637E+02 -0.85975623547E+01  0.19554349096E+02  0.31229005528E+02  0.00000000000E+00 0.  1.
</event>
<event>
 5    1  0.3183383E-003  0.9118800E+02  0.7818608E-02  0.1130116E+00
         25   -1    0    0    0    0  0.00000000000E+00  0.00000000000E+00  0.99999998245E-14  0.12500000000E+03  0.12500000000E+03 0.  0.
        -11    1    3    3    0    0  0.12666092827E+02 -0.45933858075E+02  0.32378366850E+02  0.57608227410E+02  0.51100000000E-03 0. -1.
         23    2    1    0    0    0  0.69593805144E+01 -0.28112932162E+02 -0.11617907916E+01  0.96015181737E+02  0.91535760413E+02 0.  0.
         11    1    3    3    0    0 -0.57067123127E+01  0.17820925913E+02 -0.33540157641E+02  0.38406954327E+02  0.51100000000E-03 0.  1.
         22    1    1    0    0    0 -0.69593805144E+01  0.28112932162E+02  0.11617907916E+01  0.28984818263E+02  0.00000000000E+00 0. -1.
</event>
<event>
 5    1  0.3183383E-003  0.9118800E+02  0.7818608E-02  0.1130116E+00
         25   -1    0    0    0    0  0.00000000000E+00  0.00000000000E+00  0.99999998245E-14  0.12500000000E+03  0.12500000000E+03 0.  0.
        -11    1    3    3    0    0 -0.22966090749E+02 -0.15654806002E+02 -0.36351258821E+02  0.45759461245E+02  0.51100000000E-03 0.  1.
         23    2    1    0    0    0 -0.22636321582E+02  0.18490924035E+02  0.18753547685E+00  0.95770691148E+02  0.91201276235E+02 0.  0.
         11    1    3    3    0    0  0.32976916715E+00  0.34145730037E+02  0.36538794298E+02  0.50011229903E+02  0.51100000000E-03 0. -1.
         22    1    1    0    0    0  0.22636321582E+02 -0.18490924035E+02 -0.18753547685E+00  0.29229308852E+02  0.00000000000E+00 0.  1.
</event>
<event>
 5    1  0.3183383E-003  0.9118800E+02  0.7818608E-02  0.1130116E+00
         25   -1    0    0    0    0  0.00000000000E+00  0.00000000000E+00  0.99999998245E-14  0.12500000000E+03  0.12500000000E+03 0.  0.
        -11    1    3    3    0    0  0.29865834063E+02 -0.16504184330E+02  0.11802171700E+02  0.36106057689E+02  0.51100000000E-03 0.  1.
         23    2    1    0    0    0 -0.81148648967E+01  0.27674694914E+02 -0.23611829274E+01  0.96063604998E+02  0.91601862697E+02 0.  0.
         11    1    3    3    0    0 -0.37980698960E+02  0.44178879245E+02 -0.14163354628E+02  0.59957547310E+02  0.51100000000E-03 0. -1.
         22    1    1    0    0    0  0.81148648967E+01 -0.27674694914E+02  0.23611829274E+01  0.28936395002E+02  0.00000000000E+00 0. -1.
</event>
<event>
 5    1  0.3183383E-003  0.9118800E+02  0.7818608E-02  0.1130116E+00
         25   -1    0    0    0    0  0.00000000000E+00  0.00000000000E+00  0.99999998245E-14  0.12500000000E+03  0.12500000000E+03 0.  0.
        -11    1    3    3    0    0 -0.20990904611E+02  0.25882646135E+02 -0.33790403930E+01  0.33495482704E+02  0.51100000000E-03 0. -1.
         23    2    1    0    0    0  0.18822008606E+02 -0.14409137748E+02  0.19221966946E+02  0.94481558495E+02  0.89416942599E+02 0.  0.
         11    1    3    3    0    0  0.39812913217E+02 -0.40291783883E+02  0.22601007339E+02  0.60986075791E+02  0.51100000000E-03 0.  1.
         22    1    1    0    0    0 -0.18822008606E+02  0.14409137748E+02 -0.19221966946E+02  0.30518441505E+02  0.00000000000E+00 0.  1.
</event>
<event>
 5    1  0.3183383E-003  0.9118800E+02  0.7818608E-02  0.1130116E+00
         25   -1    0    0    0    0  0.00000000000E+00  0.00000000000E+00  0.99999998245E-14  0.12500000000E+03  0.12500000000E+03 0.  0.
        -11    1    3    3    0    0  0.44292064360E+01 -0.36457561324E+02  0.10697006318E+02  0.38251765864E+02  0.51100000000E-03 0.  1.
         23    2    1    0    0    0 -0.20676662388E+02  0.12242501613E+02 -0.12691053994E+02  0.97825267900E+02  0.93975086991E+02 0.  0.
         11    1    3    3    0    0 -0.25105868824E+02  0.48700062936E+02 -0.23388060311E+02  0.59573502036E+02  0.51100000000E-03 0. -1.
         22    1    1    0    0    0  0.20676662388E+02 -0.12242501613E+02  0.12691053994E+02  0.27174732100E+02  0.00000000000E+00 0. -1.
</event>
<event>
 5    1  0.3183383E-003  0.9118800E+02  0.7818608E-02  0.1130116E+00
         25   -1    0    0    0    0  0.00000000000E+00  0.00000000000E+00  0.99999998245E-14  0.12500000000E+03  0.12500000000E+03 0.  0.
        -11    1    3    3    0    0  0.87536264671E+01 -0.89537600949E+01 -0.50171846042E+02  0.51710829926E+02  0.51100000000E-03 0. -1.
         23    2    1    0    0    0  0.27420926145E+02 -0.36204503438E+01 -0.11376373391E+02  0.95092865017E+02  0.90267470632E+02 0.  0.
         11    1    3    3    0    0  0.18667299678E+02  0.53333097510E+01  0.38795472651E+02  0.43382035091E+02  0.51100000000E-03 0.  1.
         22    1    1    0    0    0 -0.27420926145E+02  0.36204503438E+01  0.11376373391E+02  0.29907134983E+02  0.00000000000E+00 0. -1.
</event>
<event>
 5    1  0.3183383E-003  0.9118800E+02  0.7818608E-02  0.1130116E+00
         25   -1    0    0    0    0  0.00000000000E+00  0.00000000000E+00  0.99999998245E-14  0.12500000000E+03  0.12500000000E+03 0.  0.
        -11    1    3    3    0    0  0.11992499738E+02  0.29570562754E+02  0.17917631044E+02  0.36596171029E+02  0.51100000000E-03 0. -1.
         23    2    1    0    0    0 -0.18221335877E+02 -0.20833107461E+02  0.35213797709E+01  0.97099541883E+02  0.93004760474E+02 0.  0.
         11    1    3    3    0    0 -0.30213835615E+02 -0.50403670215E+02 -0.14396251273E+02  0.60503370854E+02  0.51100000000E-03 0.  1.
         22    1    1    0    0    0  0.18221335877E+02  0.20833107461E+02 -0.35213797709E+01  0.27900458117E+02  0.00000000000E+00 0.  1.
</event>
<event>
 5    1  0.3183383E-003  0.9118800E+02  0.7818608E-02  0.1130116E+00
         25   -1    0    0    0    0  0.00000000000E+00  0.00000000000E+00  0.99999998245E-14  0.12500000000E+03  0.12500000000E+03 0.  0.
        -11    1    3    3    0    0 -0.17155493248E+02  0.81240275852E+00  0.36115654732E+02  0.39991392372E+02  0.51100000000E-03 0.  1.
         23    2    1    0    0    0 -0.24503144570E+01  0.27646125735E+02 -0.10139334320E+02  0.95451422885E+02  0.90762633948E+02 0.  0.
         11    1    3    3    0    0  0.14705178791E+02  0.26833722976E+02 -0.46254989052E+02  0.55460030513E+02  0.51100000000E-03 0. -1.
         22    1    1    0    0    0  0.24503144570E+01 -0.27646125735E+02  0.10139334320E+02  0.29548577115E+02  0.00000000000E+00 0. -1.
</event>
<event>
 5    1  0.3183383E-003  0.9118800E+02  0.7818608E-02  0.1130116E+00
         25   -1    0    0    0    0  0.00000000000E+00  0.00000000000E+00  0.99999998245E-14  0.12500000000E+03  0.12500000000E+03 0.  0.
        -11    1    3    3    0    0 -0.21663636302E+02  0.38953252115E+02  0.55418356450E+01  0.44915263895E+02  0.51100000000E-03 0.  1.
         23    2    1    0    0    0 -0.25532649407E+02 -0.11773141647E+02  0.77445218172E+01  0.95836655402E+02  0.91291641734E+02 0.  0.
         11    1    3    3    0    0 -0.38690131043E+01 -0.50726393761E+02  0.22026861722E+01  0.50921391507E+02  0.51100000000E-03 0. -1.
         22    1    1    0    0    0  0.25532649407E+02  0.11773141647E+02 -0.77445218172E+01  0.29163344598E+02  0.00000000000E+00 0.  1.
</event>
<event>
 5    1  0.3183383E-003  0.9118800E+02  0.7818608E-02  0.1130116E+00
         25   -1    0    0    0    0  0.00000000000E+00  0.00000000000E+00  0.99999998245E-14  0.12500000000E+03  0.12500000000E+03 0.  0.
        -11    1    3    3    0    0  0.16441712238E+02 -0.11398617065E+02 -0.43273060971E+02  0.47674061904E+02  0.51100000000E-03 0. -1.
         23    2    1    0    0    0 -0.19689192866E+02 -0.16527103995E+02 -0.89270916747E+01  0.97787825373E+02  0.93925269993E+02 0.  0.
         11    1    3    3    0    0 -0.36130905104E+02 -0.51284869297E+01  0.34345969297E+02  0.50113763469E+02  0.51100000000E-03 0.  1.
         22    1    1    0    0    0  0.19689192866E+02  0.16527103995E+02  0.89270916747E+01  0.27212174627E+02  0.00000000000E+00 0. -1.
</event>
<event>
 5    1  0.3183383E-003  0.9118800E+02  0.7818608E-02  0.1130116E+00
         25   -1    0    0    0    0  0.00000000000E+00  0.00000000000E+00  0.99999998245E-14  0.12500000000E+03  0.12500000000E+03 0.  0.
        -11    1    3    3    0    0  0.92514990293E+01  0.19016558799E+02  0.24258403809E+02  0.32182136325E+02  0.51100000000E-03 0. -1.
         23    2    1    0    0    0  0.90884418760E+01 -0.11033643078E+01 -0.31887421972E+02  0.91824333186E+02  0.85621745465E+02 0.  0.
         11    1    3    3    0    0 -0.16305715333E+00 -0.20119923107E+02 -0.56145825781E+02  0.59642196861E+02  0.51100000000E-03 0.  1.
         22    1    1    0    0    0 -0.90884418760E+01  0.11033643078E+01  0.31887421972E+02  0.33175666814E+02  0.00000000000E+00 0.  1.
</event>
<event>
 5    1  0.3183383E-003  0.9118800E+02  0.7818608E-02  0.1130116E+00
         25   -1    0    0    0    0  0.00000000000E+00  0.00000000000E+00  0.99999998245E-14  0.12500000000E+03  0.12500000000E+03 0.  0.
        -11    1    3    3    0    0  0.22615799531E+02 -0.35227001109E+02 -0.46228640632E+02  0.62365881782E+02  0.51100000000E-03 0. -1.
         23    2    1    0    0    0  0.11444675679E+02 -0.13583093028E+02 -0.22051955085E+02  0.96684461144E+02  0.92445201531E+02 0.  0.
         11    1    3    3    0    0 -0.11171123851E+02  0.21643908081E+02  0.24176685547E+02  0.34318579362E+02  0.51100000000E-03 0.  1.
         22    1    1    0    0    0 -0.11444675679E+02  0.13583093028E+02  0.22051955085E+02  0.28315538856E+02  0.00000000000E+00 0. -1.
</event>
<event>
 5    1  0.3183383E-003  0.9118800E+02  0.7818608E-02  0.1130116E+00
         25   -1    0    0    0    0  0.00000000000E+00  0.00000000000E+00  0.99999998245E-14  0.12500000000E+03  0.12500000000E+03 0.  0.
        -11    1    3    3    0    0  0.48477824877E+02 -0.11008313995E+02  0.16044530730E+02  0.52237050533E+02  0.51100000000E-03 0.  1.
         23    2    1    0    0    0  0.53884775510E+01 -0.12903245920E+02  0.25062349631E+02  0.96300682680E+02  0.91924809872E+02 0.  0.
         11    1    3    3    0    0 -0.43089347326E+02 -0.18949319247E+01  0.90178189010E+01  0.44063632147E+02  0.51100000000E-03 0. -1.
         22    1    1    0    0    0 -0.53884775510E+01  0.12903245920E+02 -0.25062349631E+02  0.28699317320E+02  0.00000000000E+00 0.  1.
</event>
<event>
 5    1  0.3183383E-003  0.9118800E+02  0.7818608E-02  0.1130116E+00
         25   -1    0    0    0    0  0.00000000000E+00  0.00000000000E+00  0.99999998245E-14  0.12500000000E+03  0.12500000000E+03 0.  0.
        -11    1    3    3    0    0  0.29992463110E+02  0.33321326237E+00 -0.36680976910E+02  0.47383044877E+02  0.51100000000E-03 0.  1.
         23    2    1    0    0    0  0.30410297053E+02  0.99146116651E+01  0.71281509051E+01  0.92229644087E+02  0.86211432083E+02 0.  0.
         11    1    3    3    0    0  0.41783394291E+00  0.95813984027E+01  0.43809127815E+02  0.44846599210E+02  0.51100000000E-03 0. -1.
         22    1    1    0    0    0 -0.30410297053E+02 -0.99146116651E+01 -0.71281509051E+01  0.32770355913E+02  0.00000000000E+00 0.  1.
</event>
<event>
 5    1  0.3183383E-003  0.9118800E+02  0.7818608E-02  0.1130116E+00
         25   -1    0    0    0    0  0.00000000000E+00  0.00000000000E+00  0.99999998245E-14  0.12500000000E+03  0.12500000000E+03 0.  0.
        -11    1    3    3    0    0  0.30665766993E+02 -0.24925702926E+02  0.26089731804E+02  0.47353500794E+02  0.51100000000E-03 0. -1.
         23    2    1    0    0    0  0.20827728134E+02 -0.16126257099E+02 -0.17815581165E+02  0.93199915732E+02  0.87606957103E+02 0.  0.
         11    1    3    3    0    0 -0.98380388591E+01  0.87994458274E+01 -0.43905312969E+02  0.45846414937E+02  0.51100000000E-03 0.  1.
         22    1    1    0    0    0 -0.20827728134E+02  0.16126257099E+02  0.17815581165E+02  0.31800084268E+02  0.00000000000E+00 0. -1.
</event>
<event>
 5    1  0.3183383E-003  0.9118800E+02  0.7818608E-02  0.1130116E+00
         25   -1    0    0    0    0  0.00000000000E+00  0.00000000000E+00  0.99999998245E-14  0.12500000000E+03  0.12500000000E+03 0.  0.
        -11    1    3    3    0    0 -0.51949532296E+02 -0.29928400292E+02 -0.13309805697E+02  0.61413467397E+02  0.51100000000E-03 0. -1.
         23    2    1    0    0    0 -0.13584001116E+02 -0.16831096499E+02 -0.41024863781E+01  0.10298543005E+03  0.10060495769E+03 0.  0.
         11    1    3    3    0    0  0.38365531180E+02  0.13097303793E+02  0.92073193186E+01  0.41571962651E+02  0.51100000000E-03 0.  1.
         22    1    1    0    0    0  0.13584001116E+02  0.16831096499E+02  0.41024863781E+01  0.22014569952E+02  0.00000000000E+00 0. -1.
</event>
<event>
 5    1  0.3183383E-003  0.9118800E+02  0.7818608E-02  0.1130116E+00
         25   -1    0    0    0    0  0.00000000000E+00  0.00000000000E+00  0.99999998245E-14  0.12500000000E+03  0.12500000000E+03 0.  0.
        -11    1    3    3    0    0 -0.20173224141E+02  0.17953113720E+02 -0.19417686110E+01  0.27074780333E+02  0.51100000000E-03 0.  1.
         23    2    1    0    0    0  0.45531452075E+01 -0.31741375115E+02  0.20494351740E+02  0.86943929805E+02  0.78172773081E+02 0.  0.
         11    1    3    3    0    0  0.24726369349E+02 -0.49694488835E+02  0.22436120351E+02  0.59869149471E+02  0.51100000000E-03 0. -1.
         22    1    1    0    0    0 -0.45531452075E+01  0.31741375115E+02 -0.20494351740E+02  0.38056070195E+02  0.00000000000E+00 0. -1.
</event>
<event>
 5    1  0.3183383E-003  0.9118800E+02  0.7818608E-02  0.1130116E+00
         25   -1    0    0    0    0  0.00000000000E+00  0.00000000000E+00  0.99999998245E-14  0.12500000000E+03  0.12500000000E+03 0.  0.
        -11    1    3    3    0    0 -0.48480335266E+01  0.33756166186E+02 -0.20116371817E+02  0.39593567660E+02  0.51100000000E-03 0.  1.
         23    2    1    0    0    0 -0.10456921594E+02  0.34231895816E+01  0.26962816771E+02  0.95878548724E+02  0.91348985660E+02 0.  0.
         11    1    3    3    0    0 -0.56088880677E+01 -0.30332976605E+02  0.47079188589E+02  0.56284981065E+02  0.51100000000E-03 0. -1.
         22    1    1    0    0    0  0.10456921594E+02 -0.34231895816E+01 -0.26962816771E+02  0.29121451276E+02  0.00000000000E+00 0.  1.
</event>
<event>
 5    1  0.3183383E-003  0.9118800E+02  0.7818608E-02  0.1130116E+00
         25   -1    0    0    0    0  0.00000000000E+00  0.00000000000E+00  0.99999998245E-14  0.12500000000E+03  0.12500000000E+03 0.  0.
        -11    1    3    3    0    0 -0.11698602613E+02 -0.46770058718E+02 -0.39698152746E+02  0.62451893705E+02  0.51100000000E-03 0.  1.
         23    2    1    0    0    0 -0.41110813382E+01 -0.21294279659E+02 -0.19471615642E+02  0.95853968509E+02  0.91315344424E+02 0.  0.
         11    1    3    3    0    0  0.75875212750E+01  0.25475779059E+02  0.20226537105E+02  0.33402074804E+02  0.51100000000E-03 0. -1.
         22    1    1    0    0    0  0.41110813382E+01  0.21294279659E+02  0.19471615642E+02  0.29146031491E+02  0.00000000000E+00 0.  1.
</event>
<event>
 5    1  0.3183383E-003  0.9118800E+02  0.7818608E-02  0.1130116E+00
         25   -1    0    0    0    0  0.00000000000E+00  0.00000000000E+00  0.99999998245E-14  0.12500000000E+03  0.12500000000E+03 0.  0.
        -11    1    3    3    0    0  0.13405175630E+02 -0.19326524062E+02 -0.44372660511E+02  0.50220974374E+02  0.51100000000E-03 0. -1.
         23    2    1    0    0    0  0.28889377299E+02  0.23367304203E+01 -0.86949329211E+01  0.94740153862E+02  0.89777716977E+02 0.  0.
         11    1    3    3    0    0  0.15484201669E+02  0.21663254482E+02  0.35677727590E+02  0.44519179488E+02  0.51100000000E-03 0.  1.
         22    1    1    0    0    0 -0.28889377299E+02 -0.23367304203E+01  0.86949329211E+01  0.30259846138E+02  0.00000000000E+00 0.  1.
</event>
<event>
 5    1  0.3183383E-003  0.9118800E+02  0.7818608E-02  0.1130116E+00
         25   -1    0    0    0    0  0.00000000000E+00  0.00000000000E+00  0.99999998245E-14  0.12500000000E+03  0.12500000000E+03 0.  0.
        -11    1    3    3    0    0 -0.82394398713E+01  0.28906156909E+00  0.56854426566E+02  0.57449088299E+02  0.51100000000E-03 0. -1.
         23    2    1    0    0    0  0.13768665330E+02 -0.15181278119E+01  0.27773273479E+02  0.93963963256E+02  0.88690421208E+02 0.  0.
         11    1    3    3    0    0  0.22008105202E+02 -0.18071893810E+01 -0.29081153087E+02  0.36514874957E+02  0.51100000000E-03 0.  1.
         22    1    1    0    0    0 -0.13768665330E+02  0.15181278119E+01 -0.27773273479E+02  0.31036036744E+02  0.00000000000E+00 0. -1.
</event>
<event>
 5    1  0.3183383E-003  0.9118800E+02  0.7818608E-02  0.1130116E+00
         25   -1    0    0    0    0  0.00000000000E+00  0.00000000000E+00  0.99999998245E-14  0.12500000000E+03  0.12500000000E+03 0.  0.
        -11    1    3    3    0    0  0.94594172098E+01 -0.31487419511E+02  0.49262768984E+02  0.59226333414E+02  0.51100000000E-03 0. -1.
         23    2    1    0    0    0  0.58080072999E+01 -0.27638504831E+02  0.16760082204E+02  0.92159167891E+02  0.86109186344E+02 0.  0.
         11    1    3    3    0    0 -0.36514099099E+01  0.38489146795E+01 -0.32502686780E+02  0.32932834477E+02  0.51100000000E-03 0.  1.
         22    1    1    0    0    0 -0.58080072999E+01  0.27638504831E+02 -0.16760082204E+02  0.32840832109E+02  0.00000000000E+00 0. -1.
</event>
<event>
 5    1  0.3183383E-003  0.9118800E+02  0.7818608E-02  0.1130116E+00
         25   -1    0    0    0    0  0.00000000000E+00  0.00000000000E+00  0.99999998245E-14  0.12500000000E+03  0.12500000000E+03 0.  0.
        -11    1    3    3    0    0  0.26449515556E+02 -0.32612814581E+02  0.36836692535E+02  0.55857984793E+02  0.51100000000E-03 0.  1.
         23    2    1    0    0    0  0.18172273919E+02  0.27502019045E+01  0.24825648632E+02  0.94111361637E+02  0.88897921288E+02 0.  0.
         11    1    3    3    0    0 -0.82772416364E+01  0.35363016485E+02 -0.12011043903E+02  0.38253376844E+02  0.51100000000E-03 0. -1.
         22    1    1    0    0    0 -0.18172273919E+02 -0.27502019045E+01 -0.24825648632E+02  0.30888638363E+02  0.00000000000E+00 0.  1.
</event>
<event>
 5    1  0.3183383E-003  0.9118800E+02  0.7818608E-02  0.1130116E+00
         25   -1    0    0    0    0  0.00000000000E+00  0.00000000000E+00  0.99999998245E-14  0.12500000000E+03  0.12500000000E+03 0.  0.
        -11    1    3    3    0    0  0.30829205578E+02  0.16986221964E+02  0.38316854986E-01  0.35199050011E+02  0.51100000000E-03 0. -1.
         23    2    1    0    0    0 -0.66089936326E+01 -0.25030973859E+02 -0.17035921887E+02  0.94008854753E+02  0.88753668591E+02 0.  0.
         11    1    3    3    0    0 -0.37438199211E+02 -0.42017195823E+02 -0.17074238742E+02  0.58809804743E+02  0.51100000000E-03 0.  1.
         22    1    1    0    0    0  0.66089936326E+01  0.25030973859E+02  0.17035921887E+02  0.30991145247E+02  0.00000000000E+00 0.  1.
</event>
<event>
 5    1  0.3183383E-003  0.9118800E+02  0.7818608E-02  0.1130116E+00
         25   -1    0    0    0    0  0.00000000000E+00  0.00000000000E+00  0.99999998245E-14  0.12500000000E+03  0.12500000000E+03 0.  0.
        -11    1    3    3    0    0 -0.51502079776E+02  0.28729047516E+02 -0.88712452814E+01  0.59636577581E+02  0.51100000000E-03 0. -1.
         23    2    1    0    0    0 -0.19083542192E+02  0.15624471755E+02 -0.16369110084E+02  0.95398421239E+02  0.90689609712E+02 0.  0.
         11    1    3    3    0    0  0.32418537584E+02 -0.13104575760E+02 -0.74978648023E+01  0.35761843658E+02  0.51100000000E-03 0.  1.
         22    1    1    0    0    0  0.19083542192E+02 -0.15624471755E+02  0.16369110084E+02  0.29601578761E+02  0.00000000000E+00 0. -1.
</event>
<event>
 5    1  0.3183383E-003  0.9118800E+02  0.7818608E-02  0.1130116E+00
         25   -1    0    0    0    0  0.00000000000E+00  0.00000000000E+00  0.99999998245E-14  0.12500000000E+03  0.12500000000E+03 0.  0.
        -11    1    3    3    0    0  0.49602609899E+02 -0.16825112453E+02 -0.19363678582E+02  0.55843131774E+02  0.51100000000E-03 0. -1.
         23    2    1    0    0    0  0.20460904935E+02  0.98219633971E+01 -0.19106804001E+02  0.95332011277E+02  0.90598028782E+02 0.  0.
         11    1    3    3    0    0 -0.29141704964E+02  0.26647075850E+02  0.25687458133E+00  0.39488879503E+02  0.51100000000E-03 0.  1.
         22    1    1    0    0    0 -0.20460904935E+02 -0.98219633971E+01  0.19106804001E+02  0.29667988723E+02  0.00000000000E+00 0. -1.
</event>
<event>
 5    1  0.3183383E-003  0.9118800E+02  0.7818608E-02  0.1130116E+00
         25   -1    0    0    0    0  0.00000000000E+00  0.00000000000E+00  0.99999998245E-14  0.12500000000E+03  0.12500000000E+03 0.  0.
        -11    1    3    3    0    0  0.13587472541E+02  0.72761695861E+01  0.52914634325E+02  0.55113705917E+02  0.51100000000E-03 0. -1.
         23    2    1    0    0    0  0.67271691479E+01  0.23322333550E+02  0.16049740793E+02  0.95900511577E+02  0.91379034216E+02 0.  0.
         11    1    3    3    0    0 -0.68603033928E+01  0.16046163964E+02 -0.36864893532E+02  0.40786805660E+02  0.51100000000E-03 0.  1.
         22    1    1    0    0    0 -0.67271691479E+01 -0.23322333550E+02 -0.16049740793E+02  0.29099488423E+02  0.00000000000E+00 0. -1.
</event>
<event>
 5    1  0.3183383E-003  0.9118800E+02  0.7818608E-02  0.1130116E+00
         25   -1    0    0    0    0  0.00000000000E+00  0.00000000000E+00  0.99999998245E-14  0.12500000000E+03  0.12500000000E+03 0.  0.
        -11    1    3    3    0    0  0.29932186289E+02  0.27103329949E+01  0.19457679999E+02  0.35803393585E+02  0.51100000000E-03 0.  1.
         23    2    1    0    0    0 -0.21576618555E+02  0.17020575746E+02 -0.86331364064E+01  0.96194071596E+02  0.91779724880E+02 0.  0.
         11    1    3    3    0    0 -0.51508804844E+02  0.14310242751E+02 -0.28090816405E+02  0.60390678011E+02  0.51100000000E-03 0. -1.
         22    1    1    0    0    0  0.21576618555E+02 -0.17020575746E+02  0.86331364064E+01  0.28805928404E+02  0.00000000000E+00 0. -1.
</event>
<event>
 5    1  0.3183383E-003  0.9118800E+02  0.7818608E-02  0.1130116E+00
         25   -1    0    0    0    0  0.00000000000E+00  0.00000000000E+00  0.99999998245E-14  0.12500000000E+03  0.12500000000E+03 0.  0.
        -11    1    3    3    0    0 -0.63393883761E+01 -0.17131997380E+02  0.32244563244E+02  0.37059479736E+02  0.51100000000E-03 0. -1.
         23    2    1    0    0    0  0.25377383795E+02 -0.71194941365E+01 -0.14875129741E+02  0.94735031970E+02  0.89770585341E+02 0.  0.
         11    1    3    3    0    0  0.31716772171E+02  0.10012503243E+02 -0.47119692986E+02  0.57675552234E+02  0.51100000000E-03 0.  1.
         22    1    1    0    0    0 -0.25377383795E+02  0.71194941365E+01  0.14875129741E+02  0.30264968030E+02  0.00000000000E+00 0.  1.
</event>
<event>
 5    1  0.3183383E-003  0.9118800E+02  0.7818608E-02  0.1130116E+00
         25   -1    0    0    0    0  0.00000000000E+00  0.00000000000E+00  0.99999998245E-14  0.12500000000E+03  0.12500000000E+03 0.  0.
        -11    1    3    3    0    0 -0.40725660208E+02 -0.93223937488E+01  0.35526088026E+02  0.54841493007E+02  0.51100000000E-03 0.  1.
         23    2    1    0    0    0 -0.11072239695E+02  0.15244162502E+02  0.22854804970E+02  0.95380393445E+02  0.90664758099E+02 0.  0.
         11    1    3    3    0    0  0.29653420512E+02  0.24566556251E+02 -0.12671283056E+02  0.40538900437E+02  0.51100000000E-03 0. -1.
         22    1    1    0    0    0  0.11072239695E+02 -0.15244162502E+02 -0.22854804970E+02  0.29619606555E+02  0.00000000000E+00 0.  1.
</event>
<event>
 5    1  0.3183383E-003  0.9118800E+02  0.7818608E-02  0.1130116E+00
         25   -1    0    0    0    0  0.00000000000E+00  0.00000000000E+00  0.99999998245E-14  0.12500000000E+03  0.12500000000E+03 0.  0.
        -11    1    3    3    0    0 -0.12160345137E+02  0.23948045905E+02  0.42300114738E+02  0.50106712162E+02  0.51100000000E-03 0. -1.
         23    2    1    0    0    0 -0.17910674477E+02 -0.13787197256E+02  0.93218775276E+01  0.10055053234E+03  0.97532728271E+02 0.  0.
         11    1    3    3    0    0 -0.57503293403E+01 -0.37735243161E+02 -0.32978237211E+02  0.50443820174E+02  0.51100000000E-03 0.  1.
         22    1    1    0    0    0  0.17910674477E+02  0.13787197256E+02 -0.93218775276E+01  0.24449467664E+02  0.00000000000E+00 0. -1.
</event>
<event>
 5    1  0.3183383E-003  0.9118800E+02  0.7818608E-02  0.1130116E+00
         25   -1    0    0    0    0  0.00000000000E+00  0.00000000000E+00  0.99999998245E-14  0.12500000000E+03  0.12500000000E+03 0.  0.
        -11    1    3    3    0    0  0.30494637014E+02 -0.36100720272E+02  0.11466735349E+02  0.48627882029E+02  0.51100000000E-03 0. -1.
         23    2    1    0    0    0 -0.86358275504E+01 -0.25149920514E+02 -0.12299774491E+02  0.95701869140E+02  0.91106900316E+02 0.  0.
         11    1    3    3    0    0 -0.39130464565E+02  0.10950799758E+02 -0.23766509840E+02  0.47073987112E+02  0.51100000000E-03 0.  1.
         22    1    1    0    0    0  0.86358275504E+01  0.25149920514E+02  0.12299774491E+02  0.29298130860E+02  0.00000000000E+00 0.  1.
</event>
<event>
 5    1  0.3183383E-003  0.9118800E+02  0.7818608E-02  0.1130116E+00
         25   -1    0    0    0    0  0.00000000000E+00  0.00000000000E+00  0.99999998245E-14  0.12500000000E+03  0.12500000000E+03 0.  0.
        -11    1    3    3    0    0 -0.26924814121E+01 -0.13676407054E+02  0.30774829997E+02  0.33784371057E+02  0.51100000000E-03 0. -1.
         23    2    1    0    0    0  0.80019541830E+01  0.14191095119E+02 -0.23899412634E+02  0.96075955060E+02  0.91618714055E+02 0.  0.
         11    1    3    3    0    0  0.10694435595E+02  0.27867502173E+02 -0.54674242632E+02  0.62291584004E+02  0.51100000000E-03 0.  1.
         22    1    1    0    0    0 -0.80019541830E+01 -0.14191095119E+02  0.23899412634E+02  0.28924044940E+02  0.00000000000E+00 0.  1.
</event>
<event>
 5    1  0.3183383E-003  0.9118800E+02  0.7818608E-02  0.1130116E+00
         25   -1    0    0    0    0  0.00000000000E+00  0.00000000000E+00  0.99999998245E-14  0.12500000000E+03  0.12500000000E+03 0.  0.
        -11    1    3    3    0    0 -0.37271387349E+02  0.55880073042E+01  0.13780839547E+02  0.40128464703E+02  0.51100000000E-03 0.  1.
         23    2    1    0    0    0  0.55766712340E-01  0.88762399695E+01 -0.27631673262E+02  0.95977592912E+02  0.91484415220E+02 0.  0.
         11    1    3    3    0    0  0.37327154061E+02  0.32882326653E+01 -0.41412512809E+02  0.55849128210E+02  0.51100000000E-03 0. -1.
         22    1    1    0    0    0 -0.55766712340E-01 -0.88762399695E+01  0.27631673262E+02  0.29022407088E+02  0.00000000000E+00 0. -1.
</event>
<event>
 5    1  0.3183383E-003  0.9118800E+02  0.7818608E-02  0.1130116E+00
         25   -1    0    0    0    0  0.00000000000E+00  0.00000000000E+00  0.99999998245E-14  0.12500000000E+03  0.12500000000E+03 0.  0.
        -11    1    3    3    0    0  0.29035880923E+02  0.11237268140E+02  0.26034582644E+02  0.40585195206E+02  0.51100000000E-03 0. -1.
         23    2    1    0    0    0 -0.14607396934E+02 -0.18862730277E+02  0.19856391650E+02  0.93960429642E+02  0.88685440803E+02 0.  0.
         11    1    3    3    0    0 -0.43643277857E+02 -0.30099998417E+02 -0.61781909947E+01  0.53375234435E+02  0.51100000000E-03 0.  1.
         22    1    1    0    0    0  0.14607396934E+02  0.18862730277E+02 -0.19856391650E+02  0.31039570358E+02  0.00000000000E+00 0. -1.
</event>
<event>
 5    1  0.3183383E-003  0.9118800E+02  0.7818608E-02  0.1130116E+00
         25   -1    0    0    0    0  0.00000000000E+00  0.00000000000E+00  0.99999998245E-14  0.12500000000E+03  0.12500000000E+03 0.  0.
        -11    1    3    3    0    0  0.32707526176E+02  0.35994501187E+02  0.10481222381E+02  0.49751808079E+02  0.51100000000E-03 0.  1.
         23    2    1    0    0    0  0.29714043490E+02 -0.71035924482E+01 -0.92685095267E+00  0.94434587212E+02  0.89351255185E+02 0.  0.
         11    1    3    3    0    0 -0.29934826862E+01 -0.43098093635E+02 -0.11408073334E+02  0.44682779133E+02  0.51100000000E-03 0. -1.
         22    1    1    0    0    0 -0.29714043490E+02  0.71035924482E+01  0.92685095267E+00  0.30565412788E+02  0.00000000000E+00 0. -1.
</event>
<event>
 5    1  0.3183383E-003  0.9118800E+02  0.7818608E-02  0.1130116E+00
         25   -1    0    0    0    0  0.00000000000E+00  0.00000000000E+00  0.99999998245E-14  0.12500000000E+03  0.12500000000E+03 0.  0.
        -11    1    3    3    0    0 -0.42853952084E+02 -0.44857055024E+02 -0.61216140805E+01  0.62338517418E+02  0.51100000000E-03 0. -1.
         23    2    1    0    0    0 -0.17565979926E+02 -0.21240580302E+02 -0.51937229059E+01  0.96951815389E+02  0.92806001138E+02 0.  0.
         11    1    3    3    0    0  0.25287972158E+02  0.23616474722E+02  0.92789117453E+00  0.34613297971E+02  0.51100000000E-03 0.  1.
         22    1    1    0    0    0  0.17565979926E+02  0.21240580302E+02  0.51937229059E+01  0.28048184611E+02  0.00000000000E+00 0. -1.
</event>
<event>
 5    1  0.3183383E-003  0.9118800E+02  0.7818608E-02  0.1130116E+00
         25   -1    0    0    0    0  0.00000000000E+00  0.00000000000E+00  0.99999998245E-14  0.12500000000E+03  0.12500000000E+03 0.  0.
        -11    1    3    3    0    0  0.17063483297E+01 -0.35201893101E+02 -0.15430454084E+02  0.38473157084E+02  0.51100000000E-03 0.  1.
         23    2    1    0    0    0 -0.22999322704E+02  0.15698924429E+02 -0.10395363914E+02  0.95276462795E+02  0.90521354932E+02 0.  0.
         11    1    3    3    0    0 -0.24705671034E+02  0.50900817530E+02  0.50350901695E+01  0.56803305711E+02  0.51100000000E-03 0. -1.
         22    1    1    0    0    0  0.22999322704E+02 -0.15698924429E+02  0.10395363914E+02  0.29723537205E+02  0.00000000000E+00 0. -1.
</event>
<event>
 5    1  0.3183383E-003  0.9118800E+02  0.7818608E-02  0.1130116E+00
         25   -1    0    0    0    0  0.00000000000E+00  0.00000000000E+00  0.99999998245E-14  0.12500000000E+03  0.12500000000E+03 0.  0.
        -11    1    3    3    0    0 -0.25865013768E+02  0.12268668143E+02 -0.54314129676E+02  0.61396610964E+02  0.51100000000E-03 0.  1.
         23    2    1    0    0    0 -0.12680779470E+02 -0.25009057929E+01 -0.26239432651E+02  0.95749965408E+02  0.91172865218E+02 0.  0.
         11    1    3    3    0    0  0.13184234298E+02 -0.14769573936E+02  0.28074697024E+02  0.34353354444E+02  0.51100000000E-03 0. -1.
         22    1    1    0    0    0  0.12680779470E+02  0.25009057929E+01  0.26239432651E+02  0.29250034592E+02  0.00000000000E+00 0.  1.
</event>
<event>
 5    1  0.3183383E-003  0.9118800E+02  0.7818608E-02  0.1130116E+00
         25   -1    0    0    0    0  0.00000000000E+00  0.00000000000E+00  0.99999998245E-14  0.12500000000E+03  0.12500000000E+03 0.  0.
        -11    1    3    3    0    0  0.39159049589E+01 -0.39938745636E+02 -0.33771916135E+02  0.52449785837E+02  0.51100000000E-03 0. -1.
         23    2    1    0    0    0 -0.11230813483E+02 -0.26125679982E+02  0.48283503115E+01  0.96155671394E+02  0.91727410562E+02 0.  0.
         11    1    3    3    0    0 -0.15146718442E+02  0.13813065654E+02  0.38600266447E+02  0.43705885557E+02  0.51100000000E-03 0.  1.
         22    1    1    0    0    0  0.11230813483E+02  0.26125679982E+02 -0.48283503115E+01  0.28844328606E+02  0.00000000000E+00 0. -1.
</event>
<event>
 5    1  0.3183383E-003  0.9118800E+02  0.7818608E-02  0.1130116E+00
         25   -1    0    0    0    0  0.00000000000E+00  0.00000000000E+00  0.99999998245E-14  0.12500000000E+03  0.12500000000E+03 0.  0.
        -11    1    3    3    0    0  0.15112014955E+02  0.10804083481E+02  0.27854948079E+02  0.33481328358E+02  0.51100000000E-03 0.  1.
         23    2    1    0    0    0 -0.29516917030E+01  0.20955011649E+02 -0.26170558905E+02  0.91344047324E+02  0.84917676788E+02 0.  0.
         11    1    3    3    0    0 -0.18063706658E+02  0.10150928168E+02 -0.54025506985E+02  0.57862718966E+02  0.51100000000E-03 0. -1.
         22    1    1    0    0    0  0.29516917030E+01 -0.20955011649E+02  0.26170558905E+02  0.33655952676E+02  0.00000000000E+00 0. -1.
</event>
<event>
 5    1  0.3183383E-003  0.9118800E+02  0.7818608E-02  0.1130116E+00
         25   -1    0    0    0    0  0.00000000000E+00  0.00000000000E+00  0.99999998245E-14  0.12500000000E+03  0.12500000000E+03 0.  0.
        -11    1    3    3    0    0  0.21633076310E+02  0.19105868016E+02 -0.42407284421E+02  0.51297192472E+02  0.51100000000E-03 0.  1.
         23    2    1    0    0    0 -0.16514506497E+02  0.14272945140E+02 -0.15254071662E+02  0.98370456442E+02  0.94697487351E+02 0.  0.
         11    1    3    3    0    0 -0.38147582807E+02 -0.48329228761E+01  0.27153212758E+02  0.47073263971E+02  0.51100000000E-03 0. -1.
         22    1    1    0    0    0  0.16514506497E+02 -0.14272945140E+02  0.15254071662E+02  0.26629543558E+02  0.00000000000E+00 0. -1.
</event>
<event>
 5    1  0.3183383E-003  0.9118800E+02  0.7818608E-02  0.1130116E+00
         25   -1    0    0    0    0  0.00000000000E+00  0.00000000000E+00  0.99999998245E-14  0.12500000000E+03  0.12500000000E+03 0.  0.
        -11    1    3    3    0    0  0.33126360697E+02 -0.25265460351E+02 -0.15832548052E+02  0.44568697960E+02  0.51100000000E-03 0. -1.
         23    2    1    0    0    0  0.81371680026E+01 -0.10619157215E+02  0.26180823962E+02  0.95599055349E+02  0.90965728916E+02 0.  0.
         11    1    3    3    0    0 -0.24989192695E+02  0.14646303136E+02  0.42013372013E+02  0.51030357389E+02  0.51100000000E-03 0.  1.
         22    1    1    0    0    0 -0.81371680026E+01  0.10619157215E+02 -0.26180823962E+02  0.29400944651E+02  0.00000000000E+00 0.  1.
</event>
<event>
 5    1  0.3183383E-003  0.9118800E+02  0.7818608E-02  0.1130116E+00
         25   -1    0    0    0    0  0.00000000000E+00  0.00000000000E+00  0.99999998245E-14  0.12500000000E+03  0.12500000000E+03 0.  0.
        -11    1    3    3    0    0  0.31134740485E+01  0.24336021826E+02  0.17232150134E+01  0.24594819560E+02  0.51100000000E-03 0. -1.
         23    2    1    0    0    0  0.29056257998E+02 -0.69265196630E+01  0.36333796159E+02  0.77963976073E+02  0.62177118125E+02 0.  0.
         11    1    3    3    0    0  0.25942783949E+02 -0.31262541489E+02  0.34610581146E+02  0.53369156513E+02  0.51100000000E-03 0.  1.
         22    1    1    0    0    0 -0.29056257998E+02  0.69265196630E+01 -0.36333796159E+02  0.47036023927E+02  0.00000000000E+00 0. -1.
</event>
<event>
 5    1  0.3183383E-003  0.9118800E+02  0.7818608E-02  0.1130116E+00
         25   -1    0    0    0    0  0.00000000000E+00  0.00000000000E+00  0.99999998245E-14  0.12500000000E+03  0.12500000000E+03 0.  0.
        -11    1    3    3    0    0  0.48798191409E+02 -0.63014996804E+01 -0.35592031029E+02  0.60726971405E+02  0.51100000000E-03 0.  1.
         23    2    1    0    0    0  0.22468461045E+02  0.37313497261E+01 -0.63053306785E+01  0.10136714348E+03  0.98573758521E+02 0.  0.
         11    1    3    3    0    0 -0.26329730364E+02  0.10032849406E+02  0.29286700351E+02  0.40640172071E+02  0.51100000000E-03 0. -1.
         22    1    1    0    0    0 -0.22468461045E+02 -0.37313497261E+01  0.63053306785E+01  0.23632856524E+02  0.00000000000E+00 0.  1.
</event>
<event>
 5    1  0.3183383E-003  0.9118800E+02  0.7818608E-02  0.1130116E+00
         25   -1    0    0    0    0  0.00000000000E+00  0.00000000000E+00  0.99999998245E-14  0.12500000000E+03  0.12500000000E+03 0.  0.
        -11    1    3    3    0    0  0.44296161098E+02 -0.24818104111E+02  0.50012883555E+01  0.51020594520E+02  0.51100000000E-03 0. -1.
         23    2    1    0    0    0  0.43334143437E+01 -0.27450314390E+02 -0.12252717902E+02  0.94628511133E+02  0.89622138913E+02 0.  0.
         11    1    3    3    0    0 -0.39962746755E+02 -0.26322102790E+01 -0.17254006258E+02  0.43607916613E+02  0.51100000000E-03 0.  1.
         22    1    1    0    0    0 -0.43334143437E+01  0.27450314390E+02  0.12252717902E+02  0.30371488867E+02  0.00000000000E+00 0. -1.
</event>
<event>
 5    1  0.3183383E-003  0.9118800E+02  0.7818608E-02  0.1130116E+00
         25   -1    0    0    0    0  0.00000000000E+00  0.00000000000E+00  0.99999998245E-14  0.12500000000E+03  0.12500000000E+03 0.  0.
        -11    1    3    3    0    0 -0.18350265261E+02  0.41690065953E+02 -0.18291539411E+02  0.49085377137E+02  0.51100000000E-03 0.  1.
         23    2    1    0    0    0  0.14105192918E+02  0.22704416839E+02  0.10334275610E+02  0.96342640323E+02  0.91981846474E+02 0.  0.
         11    1    3    3    0    0  0.32455458180E+02 -0.18985649114E+02  0.28625815022E+02  0.47257263186E+02  0.51100000000E-03 0. -1.
         22    1    1    0    0    0 -0.14105192918E+02 -0.22704416839E+02 -0.10334275610E+02  0.28657359677E+02  0.00000000000E+00 0.  1.
</event>
<event>
 5    1  0.3183383E-003  0.9118800E+02  0.7818608E-02  0.1130116E+00
         25   -1    0    0    0    0  0.00000000000E+00  0.00000000000E+00  0.99999998245E-14  0.12500000000E+03  0.12500000000E+03 0.  0.
        -11    1    3    3    0    0 -0.26000554259E+02  0.33868356747E+02  0.12839720655E+02  0.44586464732E+02  0.51100000000E-03 0. -1.
         23    2    1    0    0    0 -0.18111690807E+01 -0.10452934156E+02  0.26129744322E+02  0.96798799596E+02  0.92599675480E+02 0.  0.
         11    1    3    3    0    0  0.24189385179E+02 -0.44321290903E+02  0.13290023666E+02  0.52212334864E+02  0.51100000000E-03 0.  1.
         22    1    1    0    0    0  0.18111690807E+01  0.10452934156E+02 -0.26129744322E+02  0.28201200404E+02  0.00000000000E+00 0.  1.
</event>
<event>
 5    1  0.3183383E-003  0.9118800E+02  0.7818608E-02  0.1130116E+00
         25   -1    0    0    0    0  0.00000000000E+00  0.00000000000E+00  0.99999998245E-14  0.12500000000E+03  0.12500000000E+03 0.  0.
        -11    1    3    3    0    0  0.13499003149E+02 -0.36598348539E+02 -0.42719927266E+02  0.57850275606E+02  0.51100000000E-03 0.  1.
         23    2    1    0    0    0  0.13905385080E+01 -0.28690017283E+01 -0.28366748143E+02  0.96454647165E+02  0.92133933984E+02 0.  0.
         11    1    3    3    0    0 -0.12108464641E+02  0.33729346811E+02  0.14353179124E+02  0.38604371559E+02  0.51100000000E-03 0. -1.
         22    1    1    0    0    0 -0.13905385080E+01  0.28690017283E+01  0.28366748143E+02  0.28545352835E+02  0.00000000000E+00 0.  1.
</event>
<event>
 5    1  0.3183383E-003  0.9118800E+02  0.7818608E-02  0.1130116E+00
         25   -1    0    0    0    0  0.00000000000E+00  0.00000000000E+00  0.99999998245E-14  0.12500000000E+03  0.12500000000E+03 0.  0.
        -11    1    3    3    0    0 -0.13323093174E+02 -0.42114470619E+02  0.81819745386E+01  0.44923024774E+02  0.51100000000E-03 0.  1.
         23    2    1    0    0    0  0.11108378929E+02 -0.15497117637E+02 -0.24714182821E+02  0.93785458997E+02  0.88438480026E+02 0.  0.
         11    1    3    3    0    0  0.24431472103E+02  0.26617352982E+02 -0.32896157360E+02  0.48862434223E+02  0.51100000000E-03 0. -1.
         22    1    1    0    0    0 -0.11108378929E+02  0.15497117637E+02  0.24714182821E+02  0.31214541003E+02  0.00000000000E+00 0. -1.
</event>
<event>
 5    1  0.3183383E-003  0.9118800E+02  0.7818608E-02  0.1130116E+00
         25   -1    0    0    0    0  0.00000000000E+00  0.00000000000E+00  0.99999998245E-14  0.12500000000E+03  0.12500000000E+03 0.  0.
        -11    1    3    3    0    0  0.20317543498E+01 -0.11527890968E+02  0.31620484942E+02  0.33717582418E+02  0.51100000000E-03 0.  1.
         23    2    1    0    0    0  0.39692360451E+01 -0.96439027834E+01 -0.28888418242E+02  0.94286804071E+02  0.89144270807E+02 0.  0.
         11    1    3    3    0    0  0.19374816954E+01  0.18839881851E+01 -0.60508903184E+02  0.60569221652E+02  0.51100000000E-03 0. -1.
         22    1    1    0    0    0 -0.39692360451E+01  0.96439027834E+01  0.28888418242E+02  0.30713195929E+02  0.00000000000E+00 0. -1.
</event>
<event>
 5    1  0.3183383E-003  0.9118800E+02  0.7818608E-02  0.1130116E+00
         25   -1    0    0    0    0  0.00000000000E+00  0.00000000000E+00  0.99999998245E-14  0.12500000000E+03  0.12500000000E+03 0.  0.
        -11    1    3    3    0    0  0.17504474516E+02  0.30028204252E+02 -0.39732673598E+02  0.52790008810E+02  0.51100000000E-03 0. -1.
         23    2    1    0    0    0 -0.16164930891E+02  0.10782633763E+02 -0.22621456163E+02  0.95178858833E+02  0.90386474144E+02 0.  0.
         11    1    3    3    0    0 -0.33669405407E+02 -0.19245570489E+02  0.17111217434E+02  0.42388850023E+02  0.51100000000E-03 0.  1.
         22    1    1    0    0    0  0.16164930891E+02 -0.10782633763E+02  0.22621456163E+02  0.29821141167E+02  0.00000000000E+00 0. -1.
</event>
<event>
 5    1  0.3183383E-003  0.9118800E+02  0.7818608E-02  0.1130116E+00
         25   -1    0    0    0    0  0.00000000000E+00  0.00000000000E+00  0.99999998245E-14  0.12500000000E+03  0.12500000000E+03 0.  0.
        -11    1    3    3    0    0 -0.21301320991E+02 -0.30090102786E+02  0.18045533289E+02  0.41046337639E+02  0.51100000000E-03 0.  1.
         23    2    1    0    0    0  0.80756890688E+01  0.10702664157E+02  0.29492403453E+02  0.92602999592E+02  0.86751080097E+02 0.  0.
         11    1    3    3    0    0  0.29377010060E+02  0.40792766943E+02  0.11446870164E+02  0.51556661953E+02  0.51100000000E-03 0. -1.
         22    1    1    0    0    0 -0.80756890688E+01 -0.10702664157E+02 -0.29492403453E+02  0.32397000408E+02  0.00000000000E+00 0. -1.
</event>
<event>
 5    1  0.3183383E-003  0.9118800E+02  0.7818608E-02  0.1130116E+00
         25   -1    0    0    0    0  0.00000000000E+00  0.00000000000E+00  0.99999998245E-14  0.12500000000E+03  0.12500000000E+03 0.  0.
        -11    1    3    3    0    0 -0.43475053655E+02  0.49441234669E+01  0.16472744024E+02  0.46753352212E+02  0.51100000000E-03 0. -1.
         23    2    1    0    0    0 -0.10634384112E+02  0.24190758103E+02 -0.13615116603E+02  0.95273676595E+02  0.90517507416E+02 0.  0.
         11    1    3    3    0    0  0.32840669543E+02  0.19246634636E+02 -0.30087860627E+02  0.48520324383E+02  0.51100000000E-03 0.  1.
         22    1    1    0    0    0  0.10634384112E+02 -0.24190758103E+02  0.13615116603E+02  0.29726323405E+02  0.00000000000E+00 0. -1.
</event>
<event>
 5    1  0.3183383E-003  0.9118800E+02  0.7818608E-02  0.1130116E+00
         25   -1    0    0    0    0  0.00000000000E+00  0.00000000000E+00  0.99999998245E-14  0.12500000000E+03  0.12500000000E+03 0.  0.
        -11    1    3    3    0    0 -0.52005959322E+02  0.28046946095E+02  0.14616605415E+02  0.60867858056E+02  0.51100000000E-03 0. -1.
         23    2    1    0    0    0 -0.21994693983E+02  0.20235220454E+02  0.89949571338E-01  0.95112899084E+02  0.90295209014E+02 0.  0.
         11    1    3    3    0    0  0.30011265339E+02 -0.78117256409E+01 -0.14526655843E+02  0.34245041027E+02  0.51100000000E-03 0.  1.
         22    1    1    0    0    0  0.21994693983E+02 -0.20235220454E+02 -0.89949571338E-01  0.29887100916E+02  0.00000000000E+00 0. -1.
</event>
<event>
 5    1  0.3183383E-003  0.9118800E+02  0.7818608E-02  0.1130116E+00
         25   -1    0    0    0    0  0.00000000000E+00  0.00000000000E+00  0.99999998245E-14  0.12500000000E+03  0.12500000000E+03 0.  0.
        -11    1    3    3    0    0 -0.60096697575E+01 -0.32498526324E+02  0.36684944981E+02  0.49376669920E+02  0.51100000000E-03 0.  1.
         23    2    1    0    0    0  0.19142626145E+02  0.21751989989E+01  0.61822340498E-01  0.10573408584E+03  0.10396403926E+03 0.  0.
         11    1    3    3    0    0  0.25152295903E+02  0.34673725323E+02 -0.36623122641E+02  0.56357415920E+02  0.51100000000E-03 0. -1.
         22    1    1    0    0    0 -0.19142626145E+02 -0.21751989989E+01 -0.61822340498E-01  0.19265914160E+02  0.00000000000E+00 0. -1.
</event>
<event>
 5    1  0.3183383E-003  0.9118800E+02  0.7818608E-02  0.1130116E+00
         25   -1    0    0    0    0  0.00000000000E+00  0.00000000000E+00  0.99999998245E-14  0.12500000000E+03  0.12500000000E+03 0.  0.
        -11    1    3    3    0    0 -0.13041741802E+01 -0.72718852982E+01 -0.47332907488E+02  0.47906005027E+02  0.51100000000E-03 0. -1.
         23    2    1    0    0    0  0.20424202496E+02  0.17359670519E+02 -0.13776563599E+02  0.94861985588E+02  0.89947186709E+02 0.  0.
         11    1    3    3    0    0  0.21728376676E+02  0.24631555817E+02  0.33556343889E+02  0.46955980561E+02  0.51100000000E-03 0.  1.
         22    1    1    0    0    0 -0.20424202496E+02 -0.17359670519E+02  0.13776563599E+02  0.30138014412E+02  0.00000000000E+00 0.  1.
</event>
<event>
 5    1  0.3183383E-003  0.9118800E+02  0.7818608E-02  0.1130116E+00
         25   -1    0    0    0    0  0.00000000000E+00  0.00000000000E+00  0.99999998245E-14  0.12500000000E+03  0.12500000000E+03 0.  0.
        -11    1    3    3    0    0 -0.28495805870E+02 -0.17503725906E+02 -0.30484656000E+02  0.45251581458E+02  0.51100000000E-03 0.  1.
         23    2    1    0    0    0  0.11689108382E+02 -0.20304121187E+02  0.72786343505E+01  0.10046693843E+03  0.97425533653E+02 0.  0.
         11    1    3    3    0    0  0.40184914252E+02 -0.28003952820E+01  0.37763290351E+02  0.55215356972E+02  0.51100000000E-03 0. -1.
         22    1    1    0    0    0 -0.11689108382E+02  0.20304121187E+02 -0.72786343505E+01  0.24533061570E+02  0.00000000000E+00 0.  1.
</event>
<event>
 5    1  0.3183383E-003  0.9118800E+02  0.7818608E-02  0.1130116E+00
         25   -1    0    0    0    0  0.00000000000E+00  0.00000000000E+00  0.99999998245E-14  0.12500000000E+03  0.12500000000E+03 0.  0.
        -11    1    3    3    0    0 -0.23117464002E+02 -0.56395277276E+02 -0.67366145530E+01  0.61320685065E+02  0.51100000000E-03 0. -1.
         23    2    1    0    0    0 -0.13755735254E+02 -0.22770124527E+02  0.45644436340E+01  0.98008650107E+02  0.94218695209E+02 0.  0.
         11    1    3    3    0    0  0.93617287485E+01  0.33625152749E+02  0.11301058187E+02  0.36687965043E+02  0.51100000000E-03 0.  1.
         22    1    1    0    0    0  0.13755735254E+02  0.22770124527E+02 -0.45644436340E+01  0.26991349893E+02  0.00000000000E+00 0. -1.
</event>
<event>
 5    1  0.3183383E-003  0.9118800E+02  0.7818608E-02  0.1130116E+00
         25   -1    0    0    0    0  0.00000000000E+00  0.00000000000E+00  0.99999998245E-14  0.12500000000E+03  0.12500000000E+03 0.  0.
        -11    1    3    3    0    0  0.16704342936E+02  0.31925093546E+02 -0.12771528741E+02  0.38227720538E+02  0.51100000000E-03 0.  1.
         23    2    1    0    0    0 -0.24824724063E+02  0.43235227418E+01  0.15368456488E+02  0.95484762774E+02  0.90808538659E+02 0.  0.
         11    1    3    3    0    0 -0.41529066999E+02 -0.27601570804E+02  0.28139985229E+02  0.57257042236E+02  0.51100000000E-03 0. -1.
         22    1    1    0    0    0  0.24824724063E+02 -0.43235227418E+01 -0.15368456488E+02  0.29515237226E+02  0.00000000000E+00 0. -1.
</event>
<event>
 5    1  0.3183383E-003  0.9118800E+02  0.7818608E-02  0.1130116E+00
         25   -1    0    0    0    0  0.00000000000E+00  0.00000000000E+00  0.99999998245E-14  0.12500000000E+03  0.12500000000E+03 0.  0.
        -11    1    3    3    0    0  0.49549151942E+01  0.13312550874E+01  0.42710271123E+02  0.43017330047E+02  0.51100000000E-03 0. -1.
         23    2    1    0    0    0  0.20200197788E+02 -0.18940402133E+02 -0.48206356797E+01  0.96892610367E+02  0.92726223862E+02 0.  0.
         11    1    3    3    0    0  0.15245282594E+02 -0.20271657220E+02 -0.47530906803E+02  0.53875280320E+02  0.51100000000E-03 0.  1.
         22    1    1    0    0    0 -0.20200197788E+02  0.18940402133E+02  0.48206356797E+01  0.28107389633E+02  0.00000000000E+00 0.  1.
</event>
<event>
 5    1  0.3183383E-003  0.9118800E+02  0.7818608E-02  0.1130116E+00
         25   -1    0    0    0    0  0.00000000000E+00  0.00000000000E+00  0.99999998245E-14  0.12500000000E+03  0.12500000000E+03 0.  0.
        -11    1    3    3    0    0 -0.22240842896E+02 -0.32649406531E+02 -0.32647271925E+01  0.39639592372E+02  0.51100000000E-03 0.  1.
         23    2    1    0    0    0  0.64108895301E+01  0.66641788723E+01  0.26679446467E+02  0.96763434196E+02  0.92551923529E+02 0.  0.
         11    1    3    3    0    0  0.28651732426E+02  0.39313585404E+02  0.29944173660E+02  0.57123841824E+02  0.51100000000E-03 0. -1.
         22    1    1    0    0    0 -0.64108895301E+01 -0.66641788723E+01 -0.26679446467E+02  0.28236565804E+02  0.00000000000E+00 0. -1.
</event>
<event>
 5    1  0.3183383E-003  0.9118800E+02  0.7818608E-02  0.1130116E+00
         25   -1    0    0    0    0  0.00000000000E+00  0.00000000000E+00  0.99999998245E-14  0.12500000000E+03  0.12500000000E+03 0.  0.
        -11    1    3    3    0    0  0.36831043865E+02  0.18652304003E+02 -0.41484667466E+01  0.41492698315E+02  0.51100000000E-03 0. -1.
         23    2    1    0    0    0 -0.13030744245E+01 -0.16234841627E+02 -0.23265859285E+02  0.96599853981E+02  0.92330728879E+02 0.  0.
         11    1    3    3    0    0 -0.38134118290E+02 -0.34887145630E+02 -0.19117392539E+02  0.55107155667E+02  0.51100000000E-03 0.  1.
         22    1    1    0    0    0  0.13030744245E+01  0.16234841627E+02  0.23265859285E+02  0.28400146019E+02  0.00000000000E+00 0.  1.
</event>
<event>
 5    1  0.3183383E-003  0.9118800E+02  0.7818608E-02  0.1130116E+00
         25   -1    0    0    0    0  0.00000000000E+00  0.00000000000E+00  0.99999998245E-14  0.12500000000E+03  0.12500000000E+03 0.  0.
        -11    1    3    3    0    0 -0.35342652916E+02  0.44778117347E+02 -0.17283577314E+02  0.59606249281E+02  0.51100000000E-03 0.  1.
         23    2    1    0    0    0 -0.19555810099E+02  0.12812722804E+02 -0.18359108192E+02  0.95273708138E+02  0.90517550975E+02 0.  0.
         11    1    3    3    0    0  0.15786842817E+02 -0.31965394543E+02 -0.10755308776E+01  0.35667458857E+02  0.51100000000E-03 0. -1.
         22    1    1    0    0    0  0.19555810099E+02 -0.12812722804E+02  0.18359108192E+02  0.29726291862E+02  0.00000000000E+00 0.  1.
</event>
<event>
 5    1  0.3183383E-003  0.9118800E+02  0.7818608E-02  0.1130116E+00
         25   -1    0    0    0    0  0.00000000000E+00  0.00000000000E+00  0.99999998245E-14  0.12500000000E+03  0.12500000000E+03 0.  0.
        -11    1    3    3    0    0 -0.29178094591E+02  0.14896421896E+02  0.37225878471E+02  0.49588613788E+02  0.51100000000E-03 0. -1.
         23    2    1    0    0    0 -0.82773393264E+01  0.28064892346E+02 -0.16989953478E+01  0.95690630953E+02  0.91091480053E+02 0.  0.
         11    1    3    3    0    0  0.20900755264E+02  0.13168470450E+02 -0.38924873819E+02  0.46102017165E+02  0.51100000000E-03 0.  1.
         22    1    1    0    0    0  0.82773393264E+01 -0.28064892346E+02  0.16989953478E+01  0.29309369047E+02  0.00000000000E+00 0. -1.
</event>
<event>
 5    1  0.3183383E-003  0.9118800E+02  0.7818608E-02  0.1130116E+00
         25   -1    0    0    0    0  0.00000000000E+00  0.00000000000E+00  0.99999998245E-14  0.12500000000E+03  0.12500000000E+03 0.  0.
        -11    1    3    3    0    0  0.53511889177E+01 -0.23404635198E+02 -0.24190989822E+02  0.34082490525E+02  0.51100000000E-03 0.  1.
         23    2    1    0    0    0 -0.16731815858E+00  0.27113151730E+02  0.10834346577E+02  0.95801814134E+02  0.91243923268E+02 0.  0.
         11    1    3    3    0    0 -0.55185070763E+01  0.50517786928E+02  0.35025336400E+02  0.61719323608E+02  0.51100000000E-03 0. -1.
         22    1    1    0    0    0  0.16731815858E+00 -0.27113151730E+02 -0.10834346577E+02  0.29198185866E+02  0.00000000000E+00 0. -1.
</event>
<event>
 5    1  0.3183383E-003  0.9118800E+02  0.7818608E-02  0.1130116E+00
         25   -1    0    0    0    0  0.00000000000E+00  0.00000000000E+00  0.99999998245E-14  0.12500000000E+03  0.12500000000E+03 0.  0.
        -11    1    3    3    0    0  0.36549942475E+02  0.29715059761E+02  0.17451243455E+01  0.47137336908E+02  0.51100000000E-03 0.  1.
         23    2    1    0    0    0  0.15699140416E+02 -0.19036621161E+02  0.27650054136E+01  0.10017055760E+03  0.97044522770E+02 0.  0.
         11    1    3    3    0    0 -0.20850802058E+02 -0.48751680922E+02  0.10198810681E+01  0.53033220691E+02  0.51100000000E-03 0. -1.
         22    1    1    0    0    0 -0.15699140416E+02  0.19036621161E+02 -0.27650054136E+01  0.24829442402E+02  0.00000000000E+00 0.  1.
</event>
<event>
 5    1  0.3183383E-003  0.9118800E+02  0.7818608E-02  0.1130116E+00
         25   -1    0    0    0    0  0.00000000000E+00  0.00000000000E+00  0.99999998245E-14  0.12500000000E+03  0.12500000000E+03 0.  0.
        -11    1    3    3    0    0 -0.36377099854E+02  0.18172767333E+01 -0.58301633438E+01  0.36886131451E+02  0.51100000000E-03 0.  1.
         23    2    1    0    0    0  0.14964098395E+02 -0.24942027356E+02 -0.80338036240E+01  0.94824331490E+02  0.89894843414E+02 0.  0.
         11    1    3    3    0    0  0.51341198249E+02 -0.26759304089E+02 -0.22036402802E+01  0.57938200039E+02  0.51100000000E-03 0. -1.
         22    1    1    0    0    0 -0.14964098395E+02  0.24942027356E+02  0.80338036240E+01  0.30175668510E+02  0.00000000000E+00 0. -1.
</event>
<event>
 5    1  0.3183383E-003  0.9118800E+02  0.7818608E-02  0.1130116E+00
         25   -1    0    0    0    0  0.00000000000E+00  0.00000000000E+00  0.99999998245E-14  0.12500000000E+03  0.12500000000E+03 0.  0.
        -11    1    3    3    0    0  0.30391920377E+02 -0.31848676608E+02 -0.16321271021E+02  0.46950941565E+02  0.51100000000E-03 0.  1.
         23    2    1    0    0    0 -0.10000538023E+02 -0.33329727865E+02 -0.96635262193E+00  0.90188861586E+02  0.83199852142E+02 0.  0.
         11    1    3    3    0    0 -0.40392458400E+02 -0.14810512570E+01  0.15354918399E+02  0.43237920021E+02  0.51100000000E-03 0. -1.
         22    1    1    0    0    0  0.10000538023E+02  0.33329727865E+02  0.96635262193E+00  0.34811138414E+02  0.00000000000E+00 0.  1.
</event>
<event>
 5    1  0.3183383E-003  0.9118800E+02  0.7818608E-02  0.1130116E+00
         25   -1    0    0    0    0  0.00000000000E+00  0.00000000000E+00  0.99999998245E-14  0.12500000000E+03  0.12500000000E+03 0.  0.
        -11    1    3    3    0    0  0.14390257008E+01 -0.30792172831E+02  0.34468883951E+02  0.46242109205E+02  0.51100000000E-03 0.  1.
         23    2    1    0    0    0 -0.24178732360E+02 -0.15658362240E+02 -0.50960765918E+01  0.95746531775E+02  0.91168157510E+02 0.  0.
         11    1    3    3    0    0 -0.25617758060E+02  0.15133810591E+02 -0.39564960543E+02  0.49504422571E+02  0.51100000000E-03 0. -1.
         22    1    1    0    0    0  0.24178732360E+02  0.15658362240E+02  0.50960765918E+01  0.29253468225E+02  0.00000000000E+00 0. -1.
</event>
<event>
 5    1  0.3183383E-003  0.9118800E+02  0.7818608E-02  0.1130116E+00
         25   -1    0    0    0    0  0.00000000000E+00  0.00000000000E+00  0.99999998245E-14  0.12500000000E+03  0.12500000000E+03 0.  0.
        -11    1    3    3    0    0 -0.28139848591E+02  0.11291672316E+02 -0.15166941963E+02  0.33902641065E+02  0.51100000000E-03 0. -1.
         23    2    1    0    0    0  0.26343619141E+02 -0.25966129890E+01  0.11508351612E+02  0.96135301400E+02  0.91699647491E+02 0.  0.
         11    1    3    3    0    0  0.54483467732E+02 -0.13888285305E+02  0.26675293575E+02  0.62232660335E+02  0.51100000000E-03 0.  1.
         22    1    1    0    0    0 -0.26343619141E+02  0.25966129890E+01 -0.11508351612E+02  0.28864698600E+02  0.00000000000E+00 0.  1.
</event>
<event>
 5    1  0.3183383E-003  0.9118800E+02  0.7818608E-02  0.1130116E+00
         25   -1    0    0    0    0  0.00000000000E+00  0.00000000000E+00  0.99999998245E-14  0.12500000000E+03  0.12500000000E+03 0.  0.
        -11    1    3    3    0    0  0.25031413235E+02  0.26372639202E+02 -0.90479230993E+01  0.37469356275E+02  0.51100000000E-03 0.  1.
         23    2    1    0    0    0 -0.28893667788E+02  0.94006157942E+01 -0.55710284552E+01  0.94109030873E+02  0.88894643923E+02 0.  0.
         11    1    3    3    0    0 -0.53925081023E+02 -0.16972023408E+02  0.34768946441E+01  0.56639674598E+02  0.51100000000E-03 0. -1.
         22    1    1    0    0    0  0.28893667788E+02 -0.94006157942E+01  0.55710284552E+01  0.30890969127E+02  0.00000000000E+00 0. -1.
</event>
<event>
 5    1  0.3183383E-003  0.9118800E+02  0.7818608E-02  0.1130116E+00
         25   -1    0    0    0    0  0.00000000000E+00  0.00000000000E+00  0.99999998245E-14  0.12500000000E+03  0.12500000000E+03 0.  0.
        -11    1    3    3    0    0 -0.91350868429E+01  0.31754900084E+02 -0.36584359203E+02  0.49297452567E+02  0.51100000000E-03 0.  1.
         23    2    1    0    0    0 -0.28668551259E+02  0.71562156811E+01 -0.29713113035E+01  0.95302761997E+02  0.90557663946E+02 0.  0.
         11    1    3    3    0    0 -0.19533464416E+02 -0.24598684403E+02  0.33613047900E+02  0.46005309431E+02  0.51100000000E-03 0. -1.
         22    1    1    0    0    0  0.28668551259E+02 -0.71562156811E+01  0.29713113035E+01  0.29697238003E+02  0.00000000000E+00 0. -1.
</event>
<event>
 5    1  0.3183383E-003  0.9118800E+02  0.7818608E-02  0.1130116E+00
         25   -1    0    0    0    0  0.00000000000E+00  0.00000000000E+00  0.99999998245E-14  0.12500000000E+03  0.12500000000E+03 0.  0.
        -11    1    3    3    0    0 -0.10105315959E+02  0.30158197270E+02  0.99251011026E+00  0.31821680499E+02  0.51100000000E-03 0. -1.
         23    2    1    0    0    0  0.94117297792E+01 -0.29039758344E+02  0.39190260541E+01  0.94222622150E+02  0.89054228072E+02 0.  0.
         11    1    3    3    0    0  0.19517045738E+02 -0.59197955613E+02  0.29265159439E+01  0.62400941651E+02  0.51100000000E-03 0.  1.
         22    1    1    0    0    0 -0.94117297792E+01  0.29039758344E+02 -0.39190260541E+01  0.30777377850E+02  0.00000000000E+00 0.  1.
</event>
<event>
 5    1  0.3183383E-003  0.9118800E+02  0.7818608E-02  0.1130116E+00
         25   -1    0    0    0    0  0.00000000000E+00  0.00000000000E+00  0.99999998245E-14  0.12500000000E+03  0.12500000000E+03 0.  0.
        -11    1    3    3    0    0  0.51854809470E+02 -0.11289698917E+02  0.17987392002E+02  0.56035032240E+02  0.51100000000E-03 0. -1.
         23    2    1    0    0    0  0.13636222148E+02 -0.21194503253E+02  0.15096998148E+02  0.95621898025E+02  0.90997112625E+02 0.  0.
         11    1    3    3    0    0 -0.38218587322E+02 -0.99048043355E+01 -0.28903938542E+01  0.39586865785E+02  0.51100000000E-03 0.  1.
         22    1    1    0    0    0 -0.13636222148E+02  0.21194503253E+02 -0.15096998148E+02  0.29378101975E+02  0.00000000000E+00 0. -1.
</event>
<event>
 5    1  0.3183383E-003  0.9118800E+02  0.7818608E-02  0.1130116E+00
         25   -1    0    0    0    0  0.00000000000E+00  0.00000000000E+00  0.99999998245E-14  0.12500000000E+03  0.12500000000E+03 0.  0.
        -11    1    3    3    0    0  0.32349754850E+02  0.58250454160E+01 -0.31080574900E+02  0.45237594204E+02  0.51100000000E-03 0.  1.
         23    2    1    0    0    0  0.20241234466E+02 -0.14855769131E+02  0.13971247742E+02  0.96266792511E+02  0.91878714225E+02 0.  0.
         11    1    3    3    0    0 -0.12108520385E+02 -0.20680814547E+02  0.45051822642E+02  0.51029198307E+02  0.51100000000E-03 0. -1.
         22    1    1    0    0    0 -0.20241234466E+02  0.14855769131E+02 -0.13971247742E+02  0.28733207489E+02  0.00000000000E+00 0. -1.
</event>
<event>
 5    1  0.3183383E-003  0.9118800E+02  0.7818608E-02  0.1130116E+00
         25   -1    0    0    0    0  0.00000000000E+00  0.00000000000E+00  0.99999998245E-14  0.12500000000E+03  0.12500000000E+03 0.  0.
        -11    1    3    3    0    0  0.12477798044E+02  0.22855801959E+02  0.28683559667E+02  0.38740543654E+02  0.51100000000E-03 0.  1.
         23    2    1    0    0    0 -0.27225276910E+02 -0.90825534020E+01  0.20743847526E+01  0.96224810144E+02  0.91821579904E+02 0.  0.
         11    1    3    3    0    0 -0.39703074954E+02 -0.31938355361E+02 -0.26609174914E+02  0.57484266490E+02  0.51100000000E-03 0. -1.
         22    1    1    0    0    0  0.27225276910E+02  0.90825534020E+01 -0.20743847526E+01  0.28775189856E+02  0.00000000000E+00 0. -1.
</event>
<event>
 5    1  0.3183383E-003  0.9118800E+02  0.7818608E-02  0.1130116E+00
         25   -1    0    0    0    0  0.00000000000E+00  0.00000000000E+00  0.99999998245E-14  0.12500000000E+03  0.12500000000E+03 0.  0.
        -11    1    3    3    0    0 -0.23715475354E+02  0.58825004684E+01 -0.26660184811E+02  0.36163421263E+02  0.51100000000E-03 0.  1.
         23    2    1    0    0    0  0.48129842924E+01  0.12285278532E+02  0.25686927707E+02  0.96122480345E+02  0.91682168856E+02 0.  0.
         11    1    3    3    0    0  0.28528459647E+02  0.64027780636E+01  0.52347112518E+02  0.59959059082E+02  0.51100000000E-03 0. -1.
         22    1    1    0    0    0 -0.48129842924E+01 -0.12285278532E+02 -0.25686927707E+02  0.28877519655E+02  0.00000000000E+00 0. -1.
</event>
<event>
 5    1  0.3183383E-003  0.9118800E+02  0.7818608E-02  0.1130116E+00
         25   -1    0    0    0    0  0.00000000000E+00  0.00000000000E+00  0.99999998245E-14  0.12500000000E+03  0.12500000000E+03 0.  0.
        -11    1    3    3    0    0  0.94296874183E+01  0.18809696423E+02  0.52001732395E+02  0.56097271383E+02  0.51100000000E-03 0. -1.
         23    2    1    0    0    0 -0.12736265716E+02  0.18464542698E+02  0.20535201835E+02  0.94588714006E+02  0.89566614882E+02 0.  0.
         11    1    3    3    0    0 -0.22165953134E+02 -0.34515372486E+00 -0.31466530560E+02  0.38491442623E+02  0.51100000000E-03 0.  1.
         22    1    1    0    0    0  0.12736265716E+02 -0.18464542698E+02 -0.20535201835E+02  0.30411285994E+02  0.00000000000E+00 0.  1.
</event>
<event>
 5    1  0.3183383E-003  0.9118800E+02  0.7818608E-02  0.1130116E+00
         25   -1    0    0    0    0  0.00000000000E+00  0.00000000000E+00  0.99999998245E-14  0.12500000000E+03  0.12500000000E+03 0.  0.
        -11    1    3    3    0    0  0.68937412739E+01  0.21356628533E+02 -0.28499130500E+02  0.36274366853E+02  0.51100000000E-03 0.  1.
         23    2    1    0    0    0 -0.15446341088E+02 -0.22609818814E+02  0.66337290343E+01  0.96825548440E+02  0.92635776620E+02 0.  0.
         11    1    3    3    0    0 -0.22340082362E+02 -0.43966447348E+02  0.35132859534E+02  0.60551181587E+02  0.51100000000E-03 0. -1.
         22    1    1    0    0    0  0.15446341088E+02  0.22609818814E+02 -0.66337290343E+01  0.28174451560E+02  0.00000000000E+00 0. -1.
</event>
<event>
 5    1  0.3183383E-003  0.9118800E+02  0.7818608E-02  0.1130116E+00
         25   -1    0    0    0    0  0.00000000000E+00  0.00000000000E+00  0.99999998245E-14  0.12500000000E+03  0.12500000000E+03 0.  0.
        -11    1    3    3    0    0  0.80435420298E+01  0.15285368813E+02  0.28594681104E+02  0.33406539118E+02  0.51100000000E-03 0.  1.
         23    2    1    0    0    0  0.35153018693E+01  0.29102912405E+00 -0.30374962960E+02  0.94420915317E+02  0.89332126524E+02 0.  0.
         11    1    3    3    0    0 -0.45282401605E+01 -0.14994339689E+02 -0.58969644064E+02  0.61014376199E+02  0.51100000000E-03 0. -1.
         22    1    1    0    0    0 -0.35153018693E+01 -0.29102912405E+00  0.30374962960E+02  0.30579084683E+02  0.00000000000E+00 0. -1.
</event>
<event>
 5    1  0.3183383E-003  0.9118800E+02  0.7818608E-02  0.1130116E+00
         25   -1    0    0    0    0  0.00000000000E+00  0.00000000000E+00  0.99999998245E-14  0.12500000000E+03  0.12500000000E+03 0.  0.
        -11    1    3    3    0    0 -0.40689931279E+01  0.30729803886E+02  0.23228861354E+02  0.38735739982E+02  0.51100000000E-03 0.  1.
         23    2    1    0    0    0  0.15511172250E+02 -0.21259680408E+02  0.14442772110E+02  0.94980603906E+02  0.90111880330E+02 0.  0.
         11    1    3    3    0    0  0.19580165378E+02 -0.51989484294E+02 -0.87860892437E+01  0.56244863924E+02  0.51100000000E-03 0. -1.
         22    1    1    0    0    0 -0.15511172250E+02  0.21259680408E+02 -0.14442772110E+02  0.30019396094E+02  0.00000000000E+00 0. -1.
</event>
<event>
 5    1  0.3183383E-003  0.9118800E+02  0.7818608E-02  0.1130116E+00
         25   -1    0    0    0    0  0.00000000000E+00  0.00000000000E+00  0.99999998245E-14  0.12500000000E+03  0.12500000000E+03 0.  0.
        -11    1    3    3    0    0 -0.26427803593E+02  0.52620937498E+02  0.20674369136E+01  0.58920846579E+02  0.51100000000E-03 0. -1.
         23    2    1    0    0    0 -0.10976858479E+02  0.22185225480E+02  0.15714207046E+02  0.95680860266E+02  0.91078071271E+02 0.  0.
         11    1    3    3    0    0  0.15450945113E+02 -0.30435712019E+02  0.13646770133E+02  0.36760013687E+02  0.51100000000E-03 0.  1.
         22    1    1    0    0    0  0.10976858479E+02 -0.22185225480E+02 -0.15714207046E+02  0.29319139734E+02  0.00000000000E+00 0.  1.
</event>
<event>
 5    1  0.3183383E-003  0.9118800E+02  0.7818608E-02  0.1130116E+00
         25   -1    0    0    0    0  0.00000000000E+00  0.00000000000E+00  0.99999998245E-14  0.12500000000E+03  0.12500000000E+03 0.  0.
        -11    1    3    3    0    0 -0.43899752409E+02  0.40160513947E+02  0.13913853443E+01  0.59514629256E+02  0.51100000000E-03 0. -1.
         23    2    1    0    0    0 -0.32189511099E+02  0.13157177256E+02 -0.56271450247E+01  0.89773011777E+02  0.82572713073E+02 0.  0.
         11    1    3    3    0    0  0.11710241310E+02 -0.27003336691E+02 -0.70185303690E+01  0.30258382521E+02  0.51100000000E-03 0.  1.
         22    1    1    0    0    0  0.32189511099E+02 -0.13157177256E+02  0.56271450247E+01  0.35226988223E+02  0.00000000000E+00 0. -1.
</event>
<event>
 5    1  0.3183383E-003  0.9118800E+02  0.7818608E-02  0.1130116E+00
         25   -1    0    0    0    0  0.00000000000E+00  0.00000000000E+00  0.99999998245E-14  0.12500000000E+03  0.12500000000E+03 0.  0.
        -11    1    3    3    0    0 -0.83325346707E+01 -0.21125007959E+02  0.32074968807E+02  0.39300136381E+02  0.51100000000E-03 0.  1.
         23    2    1    0    0    0 -0.95385456542E+01 -0.12009008089E+02 -0.24215429408E+02  0.96336658431E+02  0.91973716940E+02 0.  0.
         11    1    3    3    0    0 -0.12060109835E+01  0.91159998703E+01 -0.56290398215E+02  0.57036522050E+02  0.51100000000E-03 0. -1.
         22    1    1    0    0    0  0.95385456542E+01  0.12009008089E+02  0.24215429408E+02  0.28663341569E+02  0.00000000000E+00 0. -1.
</event>
<event>
 5    1  0.3183383E-003  0.9118800E+02  0.7818608E-02  0.1130116E+00
         25   -1    0    0    0    0  0.00000000000E+00  0.00000000000E+00  0.99999998245E-14  0.12500000000E+03  0.12500000000E+03 0.  0.
        -11    1    3    3    0    0  0.42995804733E+02  0.11660268369E+02  0.22543137133E+02  0.49927889152E+02  0.51100000000E-03 0. -1.
         23    2    1    0    0    0  0.26489193571E+02 -0.18647825922E+02 -0.24103118887E+01  0.92515720863E+02  0.86625228518E+02 0.  0.
         11    1    3    3    0    0 -0.16506611163E+02 -0.30308094290E+02 -0.24953449022E+02  0.42587831712E+02  0.51100000000E-03 0.  1.
         22    1    1    0    0    0 -0.26489193571E+02  0.18647825922E+02  0.24103118887E+01  0.32484279137E+02  0.00000000000E+00 0. -1.
</event>
<event>
 5    1  0.3183383E-003  0.9118800E+02  0.7818608E-02  0.1130116E+00
         25   -1    0    0    0    0  0.00000000000E+00  0.00000000000E+00  0.99999998245E-14  0.12500000000E+03  0.12500000000E+03 0.  0.
        -11    1    3    3    0    0 -0.38744619232E+02  0.20908605856E+02  0.35159567551E+02  0.56342794650E+02  0.51100000000E-03 0.  1.
         23    2    1    0    0    0 -0.28053932382E+02  0.77113385963E+01 -0.56600120235E+00  0.95900030543E+02  0.91378376193E+02 0.  0.
         11    1    3    3    0    0  0.10690686850E+02 -0.13197267260E+02 -0.35725568754E+02  0.39557235893E+02  0.51100000000E-03 0. -1.
         22    1    1    0    0    0  0.28053932382E+02 -0.77113385963E+01  0.56600120235E+00  0.29099969457E+02  0.00000000000E+00 0.  1.
</event>
<event>
 5    1  0.3183383E-003  0.9118800E+02  0.7818608E-02  0.1130116E+00
         25   -1    0    0    0    0  0.00000000000E+00  0.00000000000E+00  0.99999998245E-14  0.12500000000E+03  0.12500000000E+03 0.  0.
        -11    1    3    3    0    0 -0.38928866123E+02  0.40636104102E+01 -0.43437005656E+02  0.58470018025E+02  0.51100000000E-03 0. -1.
         23    2    1    0    0    0 -0.23218849583E+02 -0.12872432013E+02 -0.17499931207E+02  0.93202797699E+02  0.87611069077E+02 0.  0.
         11    1    3    3    0    0  0.15710016540E+02 -0.16936042423E+02  0.25937074449E+02  0.34732779674E+02  0.51100000000E-03 0.  1.
         22    1    1    0    0    0  0.23218849583E+02  0.12872432013E+02  0.17499931207E+02  0.31797202301E+02  0.00000000000E+00 0. -1.
</event>
<event>
 5    1  0.3183383E-003  0.9118800E+02  0.7818608E-02  0.1130116E+00
         25   -1    0    0    0    0  0.00000000000E+00  0.00000000000E+00  0.99999998245E-14  0.12500000000E+03  0.12500000000E+03 0.  0.
        -11    1    3    3    0    0 -0.14487675695E+01 -0.36699728842E+02  0.42958531524E+02  0.56519062762E+02  0.51100000000E-03 0.  1.
         23    2    1    0    0    0  0.87284218390E+01 -0.27908252401E+02  0.69684059273E+01  0.94939817348E+02  0.90055284893E+02 0.  0.
         11    1    3    3    0    0  0.10177189409E+02  0.87914764411E+01 -0.35990125596E+02  0.38420754586E+02  0.51100000000E-03 0. -1.
         22    1    1    0    0    0 -0.87284218390E+01  0.27908252401E+02 -0.69684059273E+01  0.30060182652E+02  0.00000000000E+00 0.  1.
</event>
<event>
 5    1  0.3183383E-003  0.9118800E+02  0.7818608E-02  0.1130116E+00
         25   -1    0    0    0    0  0.00000000000E+00  0.00000000000E+00  0.99999998245E-14  0.12500000000E+03  0.12500000000E+03 0.  0.
        -11    1    3    3    0    0  0.30333499664E+02 -0.39550258727E+02  0.36877227705E+02  0.62002210370E+02  0.51100000000E-03 0.  1.
         23    2    1    0    0    0  0.11047723452E+02 -0.16453612806E+02  0.21376356674E+02  0.95850005275E+02  0.91309919060E+02 0.  0.
         11    1    3    3    0    0 -0.19285776212E+02  0.23096645922E+02 -0.15500871031E+02  0.33847794905E+02  0.51100000000E-03 0. -1.
         22    1    1    0    0    0 -0.11047723452E+02  0.16453612806E+02 -0.21376356674E+02  0.29149994725E+02  0.00000000000E+00 0.  1.
</event>
<event>
 5    1  0.3183383E-003  0.9118800E+02  0.7818608E-02  0.1130116E+00
         25   -1    0    0    0    0  0.00000000000E+00  0.00000000000E+00  0.99999998245E-14  0.12500000000E+03  0.12500000000E+03 0.  0.
        -11    1    3    3    0    0 -0.36409797374E+02 -0.19872978297E+02 -0.20799311171E+01  0.41532333487E+02  0.51100000000E-03 0.  1.
         23    2    1    0    0    0  0.67238177942E+01  0.95608013496E+01  0.22802080808E+02  0.99376699328E+02  0.96016534159E+02 0.  0.
         11    1    3    3    0    0  0.43133615168E+02  0.29433779647E+02  0.24882011925E+02  0.57844365840E+02  0.51100000000E-03 0. -1.
         22    1    1    0    0    0 -0.67238177942E+01 -0.95608013496E+01 -0.22802080808E+02  0.25623300672E+02  0.00000000000E+00 0. -1.
</event>
<event>
 5    1  0.3183383E-003  0.9118800E+02  0.7818608E-02  0.1130116E+00
         25   -1    0    0    0    0  0.00000000000E+00  0.00000000000E+00  0.99999998245E-14  0.12500000000E+03  0.12500000000E+03 0.  0.
        -11    1    3    3    0    0 -0.18806538539E+02 -0.56656996546E+01  0.30781295610E+02  0.36514027498E+02  0.51100000000E-03 0. -1.
         23    2    1    0    0    0  0.49182288697E+01  0.16535610951E+02 -0.21109175016E+02  0.97738072801E+02  0.93859033664E+02 0.  0.
         11    1    3    3    0    0  0.23724767409E+02  0.22201310606E+02 -0.51890470626E+02  0.61224045303E+02  0.51100000000E-03 0.  1.
         22    1    1    0    0    0 -0.49182288697E+01 -0.16535610951E+02  0.21109175016E+02  0.27261927199E+02  0.00000000000E+00 0.  1.
</event>
<event>
 5    1  0.3183383E-003  0.9118800E+02  0.7818608E-02  0.1130116E+00
         25   -1    0    0    0    0  0.00000000000E+00  0.00000000000E+00  0.99999998245E-14  0.12500000000E+03  0.12500000000E+03 0.  0.
        -11    1    3    3    0    0 -0.35121284358E+02  0.42852594184E+02 -0.27322367552E+02  0.61776704446E+02  0.51100000000E-03 0. -1.
         23    2    1    0    0    0 -0.17070155853E+02  0.21511440165E+02 -0.61071369264E+01  0.96867644957E+02  0.92692563020E+02 0.  0.
         11    1    3    3    0    0  0.18051128505E+02 -0.21341154019E+02  0.21215230626E+02  0.35090940511E+02  0.51100000000E-03 0.  1.
         22    1    1    0    0    0  0.17070155853E+02 -0.21511440165E+02  0.61071369264E+01  0.28132355043E+02  0.00000000000E+00 0. -1.
</event>
<event>
 5    1  0.3183383E-003  0.9118800E+02  0.7818608E-02  0.1130116E+00
         25   -1    0    0    0    0  0.00000000000E+00  0.00000000000E+00  0.99999998245E-14  0.12500000000E+03  0.12500000000E+03 0.  0.
        -11    1    3    3    0    0  0.15980284401E+01 -0.52543137611E+02 -0.18571657321E+01  0.52600228800E+02  0.51100000000E-03 0. -1.
         23    2    1    0    0    0 -0.23980270998E+01 -0.15966851452E+02 -0.24393249275E+02  0.95747282358E+02  0.91169186623E+02 0.  0.
         11    1    3    3    0    0 -0.39960555399E+01  0.36576286159E+02 -0.22536083542E+02  0.43147053559E+02  0.51100000000E-03 0.  1.
         22    1    1    0    0    0  0.23980270998E+01  0.15966851452E+02  0.24393249275E+02  0.29252717642E+02  0.00000000000E+00 0.  1.
</event>
<event>
 5    1  0.3183383E-003  0.9118800E+02  0.7818608E-02  0.1130116E+00
         25   -1    0    0    0    0  0.00000000000E+00  0.00000000000E+00  0.99999998245E-14  0.12500000000E+03  0.12500000000E+03 0.  0.
        -11    1    3    3    0    0 -0.29590498215E+02 -0.13746373067E+02  0.41485595052E+02  0.52778925284E+02  0.51100000000E-03 0. -1.
         23    2    1    0    0    0 -0.29596641213E+02  0.25838121119E+01  0.23345385486E+01  0.95199205944E+02  0.90414608809E+02 0.  0.
         11    1    3    3    0    0 -0.61429979075E-02  0.16330185179E+02 -0.39151056503E+02  0.42420280660E+02  0.51100000000E-03 0.  1.
         22    1    1    0    0    0  0.29596641213E+02 -0.25838121119E+01 -0.23345385486E+01  0.29800794056E+02  0.00000000000E+00 0. -1.
</event>
<event>
 5    1  0.3183383E-003  0.9118800E+02  0.7818608E-02  0.1130116E+00
         25   -1    0    0    0    0  0.00000000000E+00  0.00000000000E+00  0.99999998245E-14  0.12500000000E+03  0.12500000000E+03 0.  0.
        -11    1    3    3    0    0 -0.54593811095E+02  0.77297601221E+01  0.15128120101E+02  0.57175986388E+02  0.51100000000E-03 0. -1.
         23    2    1    0    0    0 -0.24152221314E+02  0.20149984198E+02 -0.41626897473E+00  0.93543284701E+02  0.88095523014E+02 0.  0.
         11    1    3    3    0    0  0.30441589781E+02  0.12420224076E+02 -0.15544389076E+02  0.36367298312E+02  0.51100000000E-03 0.  1.
         22    1    1    0    0    0  0.24152221314E+02 -0.20149984198E+02  0.41626897473E+00  0.31456715299E+02  0.00000000000E+00 0. -1.
</event>
<event>
 5    1  0.3183383E-003  0.9118800E+02  0.7818608E-02  0.1130116E+00
         25   -1    0    0    0    0  0.00000000000E+00  0.00000000000E+00  0.99999998245E-14  0.12500000000E+03  0.12500000000E+03 0.  0.
        -11    1    3    3    0    0 -0.27956550239E+02  0.85243668876E+01  0.22722233121E+02  0.37020715963E+02  0.51100000000E-03 0.  1.
         23    2    1    0    0    0  0.10175448378E+02  0.20144567824E+02 -0.19562289627E+02  0.95133186679E+02  0.90323289741E+02 0.  0.
         11    1    3    3    0    0  0.38131998617E+02  0.11620200937E+02 -0.42284522749E+02  0.58112470716E+02  0.51100000000E-03 0. -1.
         22    1    1    0    0    0 -0.10175448378E+02 -0.20144567824E+02  0.19562289627E+02  0.29866813321E+02  0.00000000000E+00 0. -1.
</event>
<event>
 5    1  0.3183383E-003  0.9118800E+02  0.7818608E-02  0.1130116E+00
         25   -1    0    0    0    0  0.00000000000E+00  0.00000000000E+00  0.99999998245E-14  0.12500000000E+03  0.12500000000E+03 0.  0.
        -11    1    3    3    0    0 -0.37807701615E+02  0.19147509467E+02 -0.11620738117E+02  0.43944180216E+02  0.51100000000E-03 0. -1.
         23    2    1    0    0    0  0.27525439576E+01  0.13974949807E+02  0.23283935030E+02  0.97704994032E+02  0.93814969530E+02 0.  0.
         11    1    3    3    0    0  0.40560245573E+02 -0.51725596600E+01  0.34904673147E+02  0.53760813816E+02  0.51100000000E-03 0.  1.
         22    1    1    0    0    0 -0.27525439576E+01 -0.13974949807E+02 -0.23283935030E+02  0.27295005968E+02  0.00000000000E+00 0.  1.
</event>
<event>
 5    1  0.3183383E-003  0.9118800E+02  0.7818608E-02  0.1130116E+00
         25   -1    0    0    0    0  0.00000000000E+00  0.00000000000E+00  0.99999998245E-14  0.12500000000E+03  0.12500000000E+03 0.  0.
        -11    1    3    3    0    0 -0.24126557647E+02 -0.40056971307E+02 -0.10921601170E+02  0.48020132305E+02  0.51100000000E-03 0.  1.
         23    2    1    0    0    0 -0.27297340396E+02  0.73859854117E+01 -0.40436338945E+00  0.96718184589E+02  0.92490789527E+02 0.  0.
         11    1    3    3    0    0 -0.31707827486E+01  0.47442956719E+02  0.10517237781E+02  0.48698052284E+02  0.51100000000E-03 0. -1.
         22    1    1    0    0    0  0.27297340396E+02 -0.73859854117E+01  0.40436338945E+00  0.28281815411E+02  0.00000000000E+00 0.  1.
</event>
<event>
 5    1  0.3183383E-003  0.9118800E+02  0.7818608E-02  0.1130116E+00
         25   -1    0    0    0    0  0.00000000000E+00  0.00000000000E+00  0.99999998245E-14  0.12500000000E+03  0.12500000000E+03 0.  0.
        -11    1    3    3    0    0  0.13410666236E+02 -0.19602781952E+02  0.26755117017E+02  0.35776407254E+02  0.51100000000E-03 0.  1.
         23    2    1    0    0    0  0.69995378368E+01  0.27913242300E+02 -0.81592519154E+01  0.95088196018E+02  0.90261004894E+02 0.  0.
         11    1    3    3    0    0 -0.64111283993E+01  0.47516024253E+02 -0.34914368933E+02  0.59311788764E+02  0.51100000000E-03 0. -1.
         22    1    1    0    0    0 -0.69995378368E+01 -0.27913242300E+02  0.81592519154E+01  0.29911803982E+02  0.00000000000E+00 0. -1.
</event>
<event>
 5    1  0.3183383E-003  0.9118800E+02  0.7818608E-02  0.1130116E+00
         25   -1    0    0    0    0  0.00000000000E+00  0.00000000000E+00  0.99999998245E-14  0.12500000000E+03  0.12500000000E+03 0.  0.
        -11    1    3    3    0    0  0.51995749458E+02 -0.21910913621E+01  0.71360568415E+00  0.52046787378E+02  0.51100000000E-03 0.  1.
         23    2    1    0    0    0  0.15952104634E+02 -0.16700680229E+02  0.19098217671E+02  0.95031278296E+02  0.90182146648E+02 0.  0.
         11    1    3    3    0    0 -0.36043644824E+02 -0.14509588867E+02  0.18384611987E+02  0.42984490918E+02  0.51100000000E-03 0. -1.
         22    1    1    0    0    0 -0.15952104634E+02  0.16700680229E+02 -0.19098217671E+02  0.29968721704E+02  0.00000000000E+00 0.  1.
</event>
<event>
 5    1  0.3183383E-003  0.9118800E+02  0.7818608E-02  0.1130116E+00
         25   -1    0    0    0    0  0.00000000000E+00  0.00000000000E+00  0.99999998245E-14  0.12500000000E+03  0.12500000000E+03 0.  0.
        -11    1    3    3    0    0 -0.43229965992E+01 -0.29903253208E+02 -0.53889148861E+02  0.61781333890E+02  0.51100000000E-03 0. -1.
         23    2    1    0    0    0 -0.67822517769E+01 -0.17687455594E+02 -0.22294954044E+02  0.95744060425E+02  0.91164768997E+02 0.  0.
         11    1    3    3    0    0 -0.24592551777E+01  0.12215797614E+02  0.31594194816E+02  0.33962726535E+02  0.51100000000E-03 0.  1.
         22    1    1    0    0    0  0.67822517769E+01  0.17687455594E+02  0.22294954044E+02  0.29255939575E+02  0.00000000000E+00 0. -1.
</event>
<event>
 5    1  0.3183383E-003  0.9118800E+02  0.7818608E-02  0.1130116E+00
         25   -1    0    0    0    0  0.00000000000E+00  0.00000000000E+00  0.99999998245E-14  0.12500000000E+03  0.12500000000E+03 0.  0.
        -11    1    3    3    0    0 -0.49991266742E+01 -0.37472982792E+02 -0.40997015320E+02  0.55767113716E+02  0.51100000000E-03 0.  1.
         23    2    1    0    0    0 -0.53282877313E+01 -0.26115646675E+02  0.38221372883E-01  0.98346311470E+02  0.94665610797E+02 0.  0.
         11    1    3    3    0    0 -0.32916105705E+00  0.11357336117E+02  0.41035236693E+02  0.42579197754E+02  0.51100000000E-03 0. -1.
         22    1    1    0    0    0  0.53282877313E+01  0.26115646675E+02 -0.38221372883E-01  0.26653688530E+02  0.00000000000E+00 0.  1.
</event>
<event>
 5    1  0.3183383E-003  0.9118800E+02  0.7818608E-02  0.1130116E+00
         25   -1    0    0    0    0  0.00000000000E+00  0.00000000000E+00  0.99999998245E-14  0.12500000000E+03  0.12500000000E+03 0.  0.
        -11    1    3    3    0    0 -0.30082373756E+02 -0.12465011750E+02  0.12331588548E+01  0.32585984866E+02  0.51100000000E-03 0. -1.
         23    2    1    0    0    0  0.24734396446E+02  0.57008331581E+01  0.19320415711E+02  0.93100653149E+02  0.87465211869E+02 0.  0.
         11    1    3    3    0    0  0.54816770202E+02  0.18165844908E+02  0.18087256856E+02  0.60514668283E+02  0.51100000000E-03 0.  1.
         22    1    1    0    0    0 -0.24734396446E+02 -0.57008331581E+01 -0.19320415711E+02  0.31899346851E+02  0.00000000000E+00 0.  1.
</event>
<event>
 5    1  0.3183383E-003  0.9118800E+02  0.7818608E-02  0.1130116E+00
         25   -1    0    0    0    0  0.00000000000E+00  0.00000000000E+00  0.99999998245E-14  0.12500000000E+03  0.12500000000E+03 0.  0.
        -11    1    3    3    0    0 -0.43411574040E+02  0.18427468220E+02 -0.16862969954E+02  0.50084888954E+02  0.51100000000E-03 0.  1.
         23    2    1    0    0    0 -0.28920881036E+02 -0.13420949682E+02  0.68967246502E+01  0.92379392079E+02  0.86428282522E+02 0.  0.
         11    1    3    3    0    0  0.14490693004E+02 -0.31848417902E+02  0.23759694605E+02  0.42294503125E+02  0.51100000000E-03 0. -1.
         22    1    1    0    0    0  0.28920881036E+02  0.13420949682E+02 -0.68967246502E+01  0.32620607921E+02  0.00000000000E+00 0. -1.
</event>
<event>
 5    1  0.3183383E-003  0.9118800E+02  0.7818608E-02  0.1130116E+00
         25   -1    0    0    0    0  0.00000000000E+00  0.00000000000E+00  0.99999998245E-14  0.12500000000E+03  0.12500000000E+03 0.  0.
        -11    1    3    3    0    0  0.45762851865E+02  0.16123883163E+02 -0.14432996531E+02  0.50621434276E+02  0.51100000000E-03 0. -1.
         23    2    1    0    0    0  0.10555509719E+02  0.21824470543E+02  0.14678211599E+02  0.96659636636E+02  0.92411628916E+02 0.  0.
         11    1    3    3    0    0 -0.35207342146E+02  0.57005873797E+01  0.29111208130E+02  0.46038202359E+02  0.51100000000E-03 0.  1.
         22    1    1    0    0    0 -0.10555509719E+02 -0.21824470543E+02 -0.14678211599E+02  0.28340363364E+02  0.00000000000E+00 0. -1.
</event>
<event>
 5    1  0.3183383E-003  0.9118800E+02  0.7818608E-02  0.1130116E+00
         25   -1    0    0    0    0  0.00000000000E+00  0.00000000000E+00  0.99999998245E-14  0.12500000000E+03  0.12500000000E+03 0.  0.
        -11    1    3    3    0    0 -0.12040225735E+02 -0.38352660663E+02  0.22054986841E+02  0.45851020277E+02  0.51100000000E-03 0.  1.
         23    2    1    0    0    0  0.86638202733E+01  0.54387768520E+01  0.28502568530E+02  0.94717356651E+02  0.89745970176E+02 0.  0.
         11    1    3    3    0    0  0.20704046008E+02  0.43791437515E+02  0.64475816892E+01  0.48866336374E+02  0.51100000000E-03 0. -1.
         22    1    1    0    0    0 -0.86638202733E+01 -0.54387768520E+01 -0.28502568530E+02  0.30282643349E+02  0.00000000000E+00 0.  1.
</event>
<event>
 5    1  0.3183383E-003  0.9118800E+02  0.7818608E-02  0.1130116E+00
         25   -1    0    0    0    0  0.00000000000E+00  0.00000000000E+00  0.99999998245E-14  0.12500000000E+03  0.12500000000E+03 0.  0.
        -11    1    3    3    0    0  0.31435736973E+02  0.13592083239E+02 -0.13121459090E+01  0.34273488485E+02  0.51100000000E-03 0. -1.
         23    2    1    0    0    0 -0.22482721742E+02 -0.91492874214E+01  0.16741703555E+02  0.95513276290E+02  0.90847779679E+02 0.  0.
         11    1    3    3    0    0 -0.53918458715E+02 -0.22741370660E+02  0.18053849464E+02  0.61239787805E+02  0.51100000000E-03 0.  1.
         22    1    1    0    0    0  0.22482721742E+02  0.91492874214E+01 -0.16741703555E+02  0.29486723710E+02  0.00000000000E+00 0.  1.
</event>
<event>
 5    1  0.3183383E-003  0.9118800E+02  0.7818608E-02  0.1130116E+00
         25   -1    0    0    0    0  0.00000000000E+00  0.00000000000E+00  0.99999998245E-14  0.12500000000E+03  0.12500000000E+03 0.  0.
        -11    1    3    3    0    0 -0.52766873738E+02 -0.16958112357E+02  0.26958924917E+02  0.61633628579E+02  0.51100000000E-03 0.  1.
         23    2    1    0    0    0 -0.20711639251E+02 -0.86784511051E+01  0.18754181412E+02  0.95742405524E+02  0.91162499862E+02 0.  0.
         11    1    3    3    0    0  0.32055234487E+02  0.82796612523E+01 -0.82047435045E+01  0.34108776945E+02  0.51100000000E-03 0. -1.
         22    1    1    0    0    0  0.20711639251E+02  0.86784511051E+01 -0.18754181412E+02  0.29257594476E+02  0.00000000000E+00 0.  1.
</event>
<event>
 5    1  0.3183383E-003  0.9118800E+02  0.7818608E-02  0.1130116E+00
         25   -1    0    0    0    0  0.00000000000E+00  0.00000000000E+00  0.99999998245E-14  0.12500000000E+03  0.12500000000E+03 0.  0.
        -11    1    3    3    0    0 -0.22926579070E+02  0.39972552829E+02  0.35513982319E+02  0.58177967891E+02  0.51100000000E-03 0.  1.
         23    2    1    0    0    0 -0.24411962981E+02  0.97140133081E+01  0.15329231456E+02  0.94581398320E+02  0.89556404461E+02 0.  0.
         11    1    3    3    0    0 -0.14853839112E+01 -0.30258539521E+02 -0.20184750864E+02  0.36403430429E+02  0.51100000000E-03 0. -1.
         22    1    1    0    0    0  0.24411962981E+02 -0.97140133081E+01 -0.15329231456E+02  0.30418601680E+02  0.00000000000E+00 0.  1.
</event>
<event>
 5    1  0.3183383E-003  0.9118800E+02  0.7818608E-02  0.1130116E+00
         25   -1    0    0    0    0  0.00000000000E+00  0.00000000000E+00  0.99999998245E-14  0.12500000000E+03  0.12500000000E+03 0.  0.
        -11    1    3    3    0    0 -0.13300292228E+02  0.47667159383E+02 -0.33668168886E+02  0.59854836508E+02  0.51100000000E-03 0. -1.
         23    2    1    0    0    0 -0.17400099134E+02  0.16270732443E+02 -0.17736988751E+02  0.95299815589E+02  0.90553596821E+02 0.  0.
         11    1    3    3    0    0 -0.40998069059E+01 -0.31396426940E+02  0.15931180135E+02  0.35444979080E+02  0.51100000000E-03 0.  1.
         22    1    1    0    0    0  0.17400099134E+02 -0.16270732443E+02  0.17736988751E+02  0.29700184411E+02  0.00000000000E+00 0. -1.
</event>
<event>
 5    1  0.3183383E-003  0.9118800E+02  0.7818608E-02  0.1130116E+00
         25   -1    0    0    0    0  0.00000000000E+00  0.00000000000E+00  0.99999998245E-14  0.12500000000E+03  0.12500000000E+03 0.  0.
        -11    1    3    3    0    0 -0.14605737911E+02 -0.19754121734E+02 -0.23208379350E+02  0.33796179927E+02  0.51100000000E-03 0.  1.
         23    2    1    0    0    0  0.58857732985E+01  0.20928732655E+02  0.19171378393E+02  0.96013866637E+02  0.91533964511E+02 0.  0.
         11    1    3    3    0    0  0.20491511209E+02  0.40682854388E+02  0.42379757743E+02  0.62217686709E+02  0.51100000000E-03 0. -1.
         22    1    1    0    0    0 -0.58857732985E+01 -0.20928732655E+02 -0.19171378393E+02  0.28986133363E+02  0.00000000000E+00 0. -1.
</event>
<event>
 5    1  0.3183383E-003  0.9118800E+02  0.7818608E-02  0.1130116E+00
         25   -1    0    0    0    0  0.00000000000E+00  0.00000000000E+00  0.99999998245E-14  0.12500000000E+03  0.12500000000E+03 0.  0.
        -11    1    3    3    0    0  0.43766036056E+02 -0.24191511566E+02 -0.30538542256E+02  0.58594348765E+02  0.51100000000E-03 0. -1.
         23    2    1    0    0    0  0.19304482878E+02 -0.14987276216E+02  0.21724151819E+01  0.10046429346E+03  0.97422140018E+02 0.  0.
         11    1    3    3    0    0 -0.24461553178E+02  0.92042353499E+01  0.32710957438E+02  0.41869944698E+02  0.51100000000E-03 0.  1.
         22    1    1    0    0    0 -0.19304482878E+02  0.14987276216E+02 -0.21724151819E+01  0.24535706537E+02  0.00000000000E+00 0. -1.
</event>
<event>
 5    1  0.3183383E-003  0.9118800E+02  0.7818608E-02  0.1130116E+00
         25   -1    0    0    0    0  0.00000000000E+00  0.00000000000E+00  0.99999998245E-14  0.12500000000E+03  0.12500000000E+03 0.  0.
        -11    1    3    3    0    0 -0.17821031537E+02 -0.20718213635E+02  0.22176776374E+02  0.35194359660E+02  0.51100000000E-03 0.  1.
         23    2    1    0    0    0  0.21309615147E+02 -0.11707709773E+01 -0.19850147260E+02  0.95853838183E+02  0.91315166023E+02 0.  0.
         11    1    3    3    0    0  0.39130646684E+02  0.19547442657E+02 -0.42026923634E+02  0.60659478524E+02  0.51100000000E-03 0. -1.
         22    1    1    0    0    0 -0.21309615147E+02  0.11707709773E+01  0.19850147260E+02  0.29146161817E+02  0.00000000000E+00 0. -1.
</event>
<event>
 5    1  0.3183383E-003  0.9118800E+02  0.7818608E-02  0.1130116E+00
         25   -1    0    0    0    0  0.00000000000E+00  0.00000000000E+00  0.99999998245E-14  0.12500000000E+03  0.12500000000E+03 0.  0.
        -11    1    3    3    0    0 -0.30567738080E+02 -0.76067873138E+01  0.32175749426E+02  0.45028087633E+02  0.51100000000E-03 0.  1.
         23    2    1    0    0    0  0.12723308157E+02 -0.23793928202E+02  0.11131735281E+02  0.95811832533E+02  0.91257646984E+02 0.  0.
         11    1    3    3    0    0  0.43291046237E+02 -0.16187140888E+02 -0.21044014145E+02  0.50783744899E+02  0.51100000000E-03 0. -1.
         22    1    1    0    0    0 -0.12723308157E+02  0.23793928202E+02 -0.11131735281E+02  0.29188167467E+02  0.00000000000E+00 0. -1.
</event>
<event>
 5    1  0.3183383E-003  0.9118800E+02  0.7818608E-02  0.1130116E+00
         25   -1    0    0    0    0  0.00000000000E+00  0.00000000000E+00  0.99999998245E-14  0.12500000000E+03  0.12500000000E+03 0.  0.
        -11    1    3    3    0    0  0.14711996548E+02 -0.25560096721E+02 -0.17659830663E+02  0.34374860089E+02  0.51100000000E-03 0.  1.
         23    2    1    0    0    0  0.16299626604E+01  0.10681028835E+02  0.28510871581E+02  0.94510477971E+02  0.89457361312E+02 0.  0.
         11    1    3    3    0    0 -0.13082033888E+02  0.36241125556E+02  0.46170702243E+02  0.60135617883E+02  0.51100000000E-03 0. -1.
         22    1    1    0    0    0 -0.16299626604E+01 -0.10681028835E+02 -0.28510871581E+02  0.30489522029E+02  0.00000000000E+00 0. -1.
</event>
<event>
 5    1  0.3183383E-003  0.9118800E+02  0.7818608E-02  0.1130116E+00
         25   -1    0    0    0    0  0.00000000000E+00  0.00000000000E+00  0.99999998245E-14  0.12500000000E+03  0.12500000000E+03 0.  0.
        -11    1    3    3    0    0  0.49711105656E+01 -0.17671368068E+01 -0.29171425425E+02  0.29644675312E+02  0.51100000000E-03 0.  1.
         23    2    1    0    0    0  0.36421993721E+02 -0.58539467790E+01  0.15960551639E+02  0.84805852066E+02  0.74675719057E+02 0.  0.
         11    1    3    3    0    0  0.31450883155E+02 -0.40868099722E+01  0.45131977064E+02  0.55161176755E+02  0.51100000000E-03 0. -1.
         22    1    1    0    0    0 -0.36421993721E+02  0.58539467790E+01 -0.15960551639E+02  0.40194147934E+02  0.00000000000E+00 0. -1.
</event>
<event>
 5    1  0.3183383E-003  0.9118800E+02  0.7818608E-02  0.1130116E+00
         25   -1    0    0    0    0  0.00000000000E+00  0.00000000000E+00  0.99999998245E-14  0.12500000000E+03  0.12500000000E+03 0.  0.
        -11    1    3    3    0    0  0.31942058534E+02  0.25821331249E+02  0.10506396923E+02  0.42395997776E+02  0.51100000000E-03 0.  1.
         23    2    1    0    0    0  0.19385553174E+02 -0.17979140404E+02 -0.14987559801E+02  0.94607959754E+02  0.89593470401E+02 0.  0.
         11    1    3    3    0    0 -0.12556505361E+02 -0.43800471653E+02 -0.25493956725E+02  0.52211961978E+02  0.51100000000E-03 0. -1.
         22    1    1    0    0    0 -0.19385553174E+02  0.17979140404E+02  0.14987559801E+02  0.30392040246E+02  0.00000000000E+00 0. -1.
</event>
<event>
 5    1  0.3183383E-003  0.9118800E+02  0.7818608E-02  0.1130116E+00
         25   -1    0    0    0    0  0.00000000000E+00  0.00000000000E+00  0.99999998245E-14  0.12500000000E+03  0.12500000000E+03 0.  0.
        -11    1    3    3    0    0  0.23461012745E+02  0.21438800581E+02 -0.20323393586E+02  0.37723754008E+02  0.51100000000E-03 0. -1.
         23    2    1    0    0    0 -0.33206510666E+01  0.65494353277E+01  0.28611690708E+02  0.95461031302E+02  0.90775865875E+02 0.  0.
         11    1    3    3    0    0 -0.26781663812E+02 -0.14889365253E+02  0.48935084293E+02  0.57737277293E+02  0.51100000000E-03 0.  1.
         22    1    1    0    0    0  0.33206510666E+01 -0.65494353277E+01 -0.28611690708E+02  0.29538968698E+02  0.00000000000E+00 0.  1.
</event>
<event>
 5    1  0.3183383E-003  0.9118800E+02  0.7818608E-02  0.1130116E+00
         25   -1    0    0    0    0  0.00000000000E+00  0.00000000000E+00  0.99999998245E-14  0.12500000000E+03  0.12500000000E+03 0.  0.
        -11    1    3    3    0    0 -0.31164548715E+01  0.28713392205E+01  0.36495898992E+02  0.36741087673E+02  0.51100000000E-03 0. -1.
         23    2    1    0    0    0 -0.16881822299E+02  0.11879872445E+02 -0.20406126450E+02  0.95973507099E+02  0.91478832386E+02 0.  0.
         11    1    3    3    0    0 -0.13765367428E+02  0.90085332241E+01 -0.56902025443E+02  0.59232419426E+02  0.51100000000E-03 0.  1.
         22    1    1    0    0    0  0.16881822299E+02 -0.11879872445E+02  0.20406126450E+02  0.29026492901E+02  0.00000000000E+00 0.  1.
</event>
<event>
 5    1  0.3183383E-003  0.9118800E+02  0.7818608E-02  0.1130116E+00
         25   -1    0    0    0    0  0.00000000000E+00  0.00000000000E+00  0.99999998245E-14  0.12500000000E+03  0.12500000000E+03 0.  0.
        -11    1    3    3    0    0 -0.18299261083E+02  0.33421456018E+02 -0.81606902416E+01  0.38967339453E+02  0.51100000000E-03 0. -1.
         23    2    1    0    0    0 -0.42246560095E+00 -0.11358367909E+02  0.25034775946E+02  0.97505800514E+02  0.93549185611E+02 0.  0.
         11    1    3    3    0    0  0.17876795482E+02 -0.44779823928E+02  0.33195466187E+02  0.58538461061E+02  0.51100000000E-03 0.  1.
         22    1    1    0    0    0  0.42246560095E+00  0.11358367909E+02 -0.25034775946E+02  0.27494199486E+02  0.00000000000E+00 0.  1.
</event>
<event>
 5    1  0.3183383E-003  0.9118800E+02  0.7818608E-02  0.1130116E+00
         25   -1    0    0    0    0  0.00000000000E+00  0.00000000000E+00  0.99999998245E-14  0.12500000000E+03  0.12500000000E+03 0.  0.
        -11    1    3    3    0    0 -0.25484437909E+02  0.11644823593E+02 -0.52527352361E+02  0.59533026451E+02  0.51100000000E-03 0.  1.
         23    2    1    0    0    0 -0.20673659905E+02 -0.33088036652E+01 -0.18300263830E+02  0.97192661907E+02  0.93129831294E+02 0.  0.
         11    1    3    3    0    0  0.48107780047E+01 -0.14953627259E+02  0.34227088531E+02  0.37659635457E+02  0.51100000000E-03 0. -1.
         22    1    1    0    0    0  0.20673659905E+02  0.33088036652E+01  0.18300263830E+02  0.27807338093E+02  0.00000000000E+00 0.  1.
</event>
<event>
 5    1  0.3183383E-003  0.9118800E+02  0.7818608E-02  0.1130116E+00
         25   -1    0    0    0    0  0.00000000000E+00  0.00000000000E+00  0.99999998245E-14  0.12500000000E+03  0.12500000000E+03 0.  0.
        -11    1    3    3    0    0  0.15710051205E+02  0.49346048262E+02  0.22085440252E+02  0.56299243861E+02  0.51100000000E-03 0.  1.
         23    2    1    0    0    0  0.23072259211E+02  0.10739376968E+02  0.11934578644E+02  0.96891326424E+02  0.92724493021E+02 0.  0.
         11    1    3    3    0    0  0.73622080066E+01 -0.38606671294E+02 -0.10150861608E+02  0.40592082563E+02  0.51100000000E-03 0. -1.
         22    1    1    0    0    0 -0.23072259211E+02 -0.10739376968E+02 -0.11934578644E+02  0.28108673576E+02  0.00000000000E+00 0.  1.
</event>
<event>
 5    1  0.3183383E-003  0.9118800E+02  0.7818608E-02  0.1130116E+00
         25   -1    0    0    0    0  0.00000000000E+00  0.00000000000E+00  0.99999998245E-14  0.12500000000E+03  0.12500000000E+03 0.  0.
        -11    1    3    3    0    0  0.43433575999E+02  0.14316986171E+02  0.23411231610E+02  0.51376428281E+02  0.51100000000E-03 0.  1.
         23    2    1    0    0    0  0.23346625344E+02  0.10631627479E+02 -0.15290123273E+02  0.95135568187E+02  0.90326585493E+02 0.  0.
         11    1    3    3    0    0 -0.20086950656E+02 -0.36853586915E+01 -0.38701354883E+02  0.43759139907E+02  0.51100000000E-03 0. -1.
         22    1    1    0    0    0 -0.23346625344E+02 -0.10631627479E+02  0.15290123273E+02  0.29864431813E+02  0.00000000000E+00 0.  1.
</event>
<event>
 5    1  0.3183383E-003  0.9118800E+02  0.7818608E-02  0.1130116E+00
         25   -1    0    0    0    0  0.00000000000E+00  0.00000000000E+00  0.99999998245E-14  0.12500000000E+03  0.12500000000E+03 0.  0.
        -11    1    3    3    0    0 -0.22940915799E+02 -0.35187065552E+02  0.65963334419E+01  0.42519722659E+02  0.51100000000E-03 0. -1.
         23    2    1    0    0    0 -0.15485171553E+02 -0.23023835125E+02  0.38543720824E+02  0.77507832889E+02  0.61253230301E+02 0.  0.
         11    1    3    3    0    0  0.74557442457E+01  0.12163230427E+02  0.31947387382E+02  0.34988110230E+02  0.51100000000E-03 0.  1.
         22    1    1    0    0    0  0.15485171553E+02  0.23023835125E+02 -0.38543720824E+02  0.47492167111E+02  0.00000000000E+00 0.  1.
</event>
<event>
 5    1  0.3183383E-003  0.9118800E+02  0.7818608E-02  0.1130116E+00
         25   -1    0    0    0    0  0.00000000000E+00  0.00000000000E+00  0.99999998245E-14  0.12500000000E+03  0.12500000000E+03 0.  0.
        -11    1    3    3    0    0 -0.91767870172E+01  0.53279767623E+02  0.98582192381E+00  0.54073273464E+02  0.51100000000E-03 0.  1.
         23    2    1    0    0    0  0.18813901779E+02  0.21761434779E+02  0.34917300705E+00  0.96231182409E+02  0.91830254286E+02 0.  0.
         11    1    3    3    0    0  0.27990688796E+02 -0.31518332844E+02 -0.63664891675E+00  0.42157908945E+02  0.51100000000E-03 0. -1.
         22    1    1    0    0    0 -0.18813901779E+02 -0.21761434779E+02 -0.34917300705E+00  0.28768817591E+02  0.00000000000E+00 0.  1.
</event>
<event>
 5    1  0.3183383E-003  0.9118800E+02  0.7818608E-02  0.1130116E+00
         25   -1    0    0    0    0  0.00000000000E+00  0.00000000000E+00  0.99999998245E-14  0.12500000000E+03  0.12500000000E+03 0.  0.
        -11    1    3    3    0    0  0.12823169339E+01  0.22930703019E+02 -0.56916453548E+02  0.61375436148E+02  0.51100000000E-03 0. -1.
         23    2    1    0    0    0  0.54940780810E+01  0.16244713107E+02 -0.22374651286E+02  0.96809565131E+02  0.92614206701E+02 0.  0.
         11    1    3    3    0    0  0.42117611471E+01 -0.66859899122E+01  0.34541802261E+02  0.35434128983E+02  0.51100000000E-03 0.  1.
         22    1    1    0    0    0 -0.54940780810E+01 -0.16244713107E+02  0.22374651286E+02  0.28190434869E+02  0.00000000000E+00 0. -1.
</event>
<event>
 5    1  0.3183383E-003  0.9118800E+02  0.7818608E-02  0.1130116E+00
         25   -1    0    0    0    0  0.00000000000E+00  0.00000000000E+00  0.99999998245E-14  0.12500000000E+03  0.12500000000E+03 0.  0.
        -11    1    3    3    0    0 -0.16470469384E+02 -0.36929626750E+02  0.45325778172E+02  0.60741253369E+02  0.51100000000E-03 0.  1.
         23    2    1    0    0    0 -0.16663079680E+02 -0.13781199309E+02  0.16011980175E+02  0.98093435970E+02  0.94331113597E+02 0.  0.
         11    1    3    3    0    0 -0.19261029530E+00  0.23148427441E+02 -0.29313797998E+02  0.37352182601E+02  0.51100000000E-03 0. -1.
         22    1    1    0    0    0  0.16663079680E+02  0.13781199309E+02 -0.16011980175E+02  0.26906564030E+02  0.00000000000E+00 0.  1.
</event>
<event>
 5    1  0.3183383E-003  0.9118800E+02  0.7818608E-02  0.1130116E+00
         25   -1    0    0    0    0  0.00000000000E+00  0.00000000000E+00  0.99999998245E-14  0.12500000000E+03  0.12500000000E+03 0.  0.
        -11    1    3    3    0    0 -0.47497169811E+02 -0.28623978325E+02 -0.28670013385E+02  0.62428222328E+02  0.51100000000E-03 0. -1.
         23    2    1    0    0    0 -0.23046584336E+02 -0.11649128632E+02 -0.14315220161E+02  0.95474201523E+02  0.90793999695E+02 0.  0.
         11    1    3    3    0    0  0.24450585475E+02  0.16974849693E+02  0.14354793224E+02  0.33045979195E+02  0.51100000000E-03 0.  1.
         22    1    1    0    0    0  0.23046584336E+02  0.11649128632E+02  0.14315220161E+02  0.29525798477E+02  0.00000000000E+00 0. -1.
</event>
<event>
 5    1  0.3183383E-003  0.9118800E+02  0.7818608E-02  0.1130116E+00
         25   -1    0    0    0    0  0.00000000000E+00  0.00000000000E+00  0.99999998245E-14  0.12500000000E+03  0.12500000000E+03 0.  0.
        -11    1    3    3    0    0  0.34586568061E+02 -0.12048563568E+02 -0.39970265666E+02  0.54212735699E+02  0.51100000000E-03 0. -1.
         23    2    1    0    0    0  0.17354571352E+02  0.17177761585E+02 -0.14953268214E+02  0.96366857138E+02  0.92014750364E+02 0.  0.
         11    1    3    3    0    0 -0.17231996709E+02  0.29226325152E+02  0.25016997452E+02  0.42154121439E+02  0.51100000000E-03 0.  1.
         22    1    1    0    0    0 -0.17354571352E+02 -0.17177761585E+02  0.14953268214E+02  0.28633142862E+02  0.00000000000E+00 0. -1.
</event>
<event>
 5    1  0.3183383E-003  0.9118800E+02  0.7818608E-02  0.1130116E+00
         25   -1    0    0    0    0  0.00000000000E+00  0.00000000000E+00  0.99999998245E-14  0.12500000000E+03  0.12500000000E+03 0.  0.
        -11    1    3    3    0    0  0.14525992319E+02  0.20809533611E+02  0.32105167565E+02  0.40924111800E+02  0.51100000000E-03 0.  1.
         23    2    1    0    0    0 -0.25228161643E+02 -0.10251503143E+02  0.10273231562E+02  0.95895142273E+02  0.91371689096E+02 0.  0.
         11    1    3    3    0    0 -0.39754153962E+02 -0.31061036753E+02 -0.21831936003E+02  0.54971030473E+02  0.51100000000E-03 0. -1.
         22    1    1    0    0    0  0.25228161643E+02  0.10251503143E+02 -0.10273231562E+02  0.29104857727E+02  0.00000000000E+00 0. -1.
</event>
<event>
 5    1  0.3183383E-003  0.9118800E+02  0.7818608E-02  0.1130116E+00
         25   -1    0    0    0    0  0.00000000000E+00  0.00000000000E+00  0.99999998245E-14  0.12500000000E+03  0.12500000000E+03 0.  0.
        -11    1    3    3    0    0  0.33838941519E+02 -0.97992773118E+01  0.10077089321E+02  0.36642155073E+02  0.51100000000E-03 0.  1.
         23    2    1    0    0    0 -0.15875347633E+02 -0.12173605753E+02 -0.21537127592E+02  0.95604911900E+02  0.90973776304E+02 0.  0.
         11    1    3    3    0    0 -0.49714289152E+02 -0.23743284416E+01 -0.31614216913E+02  0.58962756827E+02  0.51100000000E-03 0. -1.
         22    1    1    0    0    0  0.15875347633E+02  0.12173605753E+02  0.21537127592E+02  0.29395088100E+02  0.00000000000E+00 0. -1.
</event>
<event>
 5    1  0.3183383E-003  0.9118800E+02  0.7818608E-02  0.1130116E+00
         25   -1    0    0    0    0  0.00000000000E+00  0.00000000000E+00  0.99999998245E-14  0.12500000000E+03  0.12500000000E+03 0.  0.
        -11    1    3    3    0    0  0.17561402313E+02  0.33226088705E+02 -0.22209183692E+02  0.43653449605E+02  0.51100000000E-03 0.  1.
         23    2    1    0    0    0  0.13716039560E+02 -0.18859809410E+02 -0.17002248659E+02  0.96140017123E+02  0.91706075485E+02 0.  0.
         11    1    3    3    0    0 -0.38453627538E+01 -0.52085898115E+02  0.52069350333E+01  0.52486567519E+02  0.51100000000E-03 0. -1.
         22    1    1    0    0    0 -0.13716039560E+02  0.18859809410E+02  0.17002248659E+02  0.28859982877E+02  0.00000000000E+00 0. -1.
</event>
<event>
 5    1  0.3183383E-003  0.9118800E+02  0.7818608E-02  0.1130116E+00
         25   -1    0    0    0    0  0.00000000000E+00  0.00000000000E+00  0.99999998245E-14  0.12500000000E+03  0.12500000000E+03 0.  0.
        -11    1    3    3    0    0  0.30424558529E+02 -0.37662788299E+02 -0.34848914318E+02  0.59653886828E+02  0.51100000000E-03 0.  1.
         23    2    1    0    0    0  0.82684640906E+01 -0.10975282921E+02 -0.26220576365E+02  0.95396909646E+02  0.90687526217E+02 0.  0.
         11    1    3    3    0    0 -0.22156094439E+02  0.26687505378E+02  0.86283379537E+01  0.35743022818E+02  0.51100000000E-03 0. -1.
         22    1    1    0    0    0 -0.82684640906E+01  0.10975282921E+02  0.26220576365E+02  0.29603090354E+02  0.00000000000E+00 0.  1.
</event>
<event>
 5    1  0.3183383E-003  0.9118800E+02  0.7818608E-02  0.1130116E+00
         25   -1    0    0    0    0  0.00000000000E+00  0.00000000000E+00  0.99999998245E-14  0.12500000000E+03  0.12500000000E+03 0.  0.
        -11    1    3    3    0    0 -0.31910672064E+02 -0.22923634063E+02  0.29770251806E+01  0.39403637769E+02  0.51100000000E-03 0.  1.
         23    2    1    0    0    0  0.22327292397E+02 -0.21487285910E+02 -0.23629101379E+01  0.93922760968E+02  0.88632331809E+02 0.  0.
         11    1    3    3    0    0  0.54237964461E+02  0.14363481537E+01 -0.53399353185E+01  0.54519123199E+02  0.51100000000E-03 0. -1.
         22    1    1    0    0    0 -0.22327292397E+02  0.21487285910E+02  0.23629101379E+01  0.31077239032E+02  0.00000000000E+00 0. -1.
</event>
<event>
 5    1  0.3183383E-003  0.9118800E+02  0.7818608E-02  0.1130116E+00
         25   -1    0    0    0    0  0.00000000000E+00  0.00000000000E+00  0.99999998245E-14  0.12500000000E+03  0.12500000000E+03 0.  0.
        -11    1    3    3    0    0 -0.10089530190E+01 -0.46790121106E+02 -0.91196732708E+01  0.47681252712E+02  0.51100000000E-03 0. -1.
         23    2    1    0    0    0  0.20744094495E+02 -0.29872067942E+01 -0.17982271099E+02  0.97384733665E+02  0.93387276523E+02 0.  0.
         11    1    3    3    0    0  0.21753047514E+02  0.43802914312E+02 -0.88625978282E+01  0.49703480954E+02  0.51100000000E-03 0.  1.
         22    1    1    0    0    0 -0.20744094495E+02  0.29872067942E+01  0.17982271099E+02  0.27615266335E+02  0.00000000000E+00 0. -1.
</event>
<event>
 5    1  0.3183383E-003  0.9118800E+02  0.7818608E-02  0.1130116E+00
         25   -1    0    0    0    0  0.00000000000E+00  0.00000000000E+00  0.99999998245E-14  0.12500000000E+03  0.12500000000E+03 0.  0.
        -11    1    3    3    0    0  0.29363739332E+02 -0.25011889830E+02 -0.31415663102E+02  0.49747037186E+02  0.51100000000E-03 0. -1.
         23    2    1    0    0    0 -0.14534077156E+01  0.70486371966E+01 -0.29903480581E+02  0.94242662157E+02  0.89082352569E+02 0.  0.
         11    1    3    3    0    0 -0.30817147047E+02  0.32060527026E+02  0.15121825206E+01  0.44495624971E+02  0.51100000000E-03 0.  1.
         22    1    1    0    0    0  0.14534077156E+01 -0.70486371966E+01  0.29903480581E+02  0.30757337843E+02  0.00000000000E+00 0. -1.
</event>
<event>
 5    1  0.3183383E-003  0.9118800E+02  0.7818608E-02  0.1130116E+00
         25   -1    0    0    0    0  0.00000000000E+00  0.00000000000E+00  0.99999998245E-14  0.12500000000E+03  0.12500000000E+03 0.  0.
        -11    1    3    3    0    0 -0.15521673473E+02 -0.18943543517E+02  0.23640397125E+02  0.34038927199E+02  0.51100000000E-03 0.  1.
         23    2    1    0    0    0 -0.10880955015E+02  0.24840782280E+02 -0.16193718553E+02  0.93413671203E+02  0.87911420195E+02 0.  0.
         11    1    3    3    0    0  0.46407184582E+01  0.43784325797E+02 -0.39834115678E+02  0.59374744003E+02  0.51100000000E-03 0. -1.
         22    1    1    0    0    0  0.10880955015E+02 -0.24840782280E+02  0.16193718553E+02  0.31586328797E+02  0.00000000000E+00 0. -1.
</event>
<event>
 5    1  0.3183383E-003  0.9118800E+02  0.7818608E-02  0.1130116E+00
         25   -1    0    0    0    0  0.00000000000E+00  0.00000000000E+00  0.99999998245E-14  0.12500000000E+03  0.12500000000E+03 0.  0.
        -11    1    3    3    0    0 -0.24794275144E+02  0.23898804257E+02  0.76276688861E+01  0.35271663665E+02  0.51100000000E-03 0. -1.
         23    2    1    0    0    0  0.24249036819E+02 -0.11970935816E+02 -0.54239826841E+01  0.97418508396E+02  0.93432473472E+02 0.  0.
         11    1    3    3    0    0  0.49043311962E+02 -0.35869740072E+02 -0.13051651570E+02  0.62146844731E+02  0.51100000000E-03 0.  1.
         22    1    1    0    0    0 -0.24249036819E+02  0.11970935816E+02  0.54239826841E+01  0.27581491604E+02  0.00000000000E+00 0.  1.
</event>
<event>
 5    1  0.3183383E-003  0.9118800E+02  0.7818608E-02  0.1130116E+00
         25   -1    0    0    0    0  0.00000000000E+00  0.00000000000E+00  0.99999998245E-14  0.12500000000E+03  0.12500000000E+03 0.  0.
        -11    1    3    3    0    0 -0.18931046834E+02  0.29705213217E+02 -0.14889959712E+02  0.38242582640E+02  0.51100000000E-03 0.  1.
         23    2    1    0    0    0  0.23303623691E+02  0.71301471170E+01  0.16560208768E+02  0.95535811746E+02  0.90878781553E+02 0.  0.
         11    1    3    3    0    0  0.42234670525E+02 -0.22575066100E+02  0.31450168480E+02  0.57293229106E+02  0.51100000000E-03 0. -1.
         22    1    1    0    0    0 -0.23303623691E+02 -0.71301471170E+01 -0.16560208768E+02  0.29464188254E+02  0.00000000000E+00 0. -1.
</event>
<event>
 5    1  0.3183383E-003  0.9118800E+02  0.7818608E-02  0.1130116E+00
         25   -1    0    0    0    0  0.00000000000E+00  0.00000000000E+00  0.99999998245E-14  0.12500000000E+03  0.12500000000E+03 0.  0.
        -11    1    3    3    0    0 -0.19057130677E+02 -0.20969313168E+02 -0.26235283304E+02  0.38615753453E+02  0.51100000000E-03 0.  1.
         23    2    1    0    0    0 -0.19729367452E+01 -0.86098783725E+01  0.27381058523E+02  0.96229444725E+02  0.91827888907E+02 0.  0.
         11    1    3    3    0    0  0.17084193932E+02  0.12359434796E+02  0.53616341828E+02  0.57613691272E+02  0.51100000000E-03 0. -1.
         22    1    1    0    0    0  0.19729367452E+01  0.86098783725E+01 -0.27381058523E+02  0.28770555275E+02  0.00000000000E+00 0. -1.
</event>
<event>
 5    1  0.3183383E-003  0.9118800E+02  0.7818608E-02  0.1130116E+00
         25   -1    0    0    0    0  0.00000000000E+00  0.00000000000E+00  0.99999998245E-14  0.12500000000E+03  0.12500000000E+03 0.  0.
        -11    1    3    3    0    0  0.33688149418E+02  0.12046885514E+02 -0.27389256837E+02  0.45057632563E+02  0.51100000000E-03 0.  1.
         23    2    1    0    0    0 -0.13357300957E+02  0.23051756682E+02 -0.73613872680E+01  0.97359612928E+02  0.93353646056E+02 0.  0.
         11    1    3    3    0    0 -0.47045450375E+02  0.11004871168E+02  0.20027869569E+02  0.52301980365E+02  0.51100000000E-03 0. -1.
         22    1    1    0    0    0  0.13357300957E+02 -0.23051756682E+02  0.73613872680E+01  0.27640387072E+02  0.00000000000E+00 0. -1.
</event>
<event>
 5    1  0.3183383E-003  0.9118800E+02  0.7818608E-02  0.1130116E+00
         25   -1    0    0    0    0  0.00000000000E+00  0.00000000000E+00  0.99999998245E-14  0.12500000000E+03  0.12500000000E+03 0.  0.
        -11    1    3    3    0    0  0.26634432733E+02 -0.47678252915E+02 -0.27315538117E+02  0.61063470512E+02  0.51100000000E-03 0. -1.
         23    2    1    0    0    0  0.54627752759E+01 -0.28175334848E+02 -0.10266613595E+02  0.94518944207E+02  0.89469190517E+02 0.  0.
         11    1    3    3    0    0 -0.21171657457E+02  0.19502918067E+02  0.17048924521E+02  0.33455473696E+02  0.51100000000E-03 0.  1.
         22    1    1    0    0    0 -0.54627752759E+01  0.28175334848E+02  0.10266613595E+02  0.30481055793E+02  0.00000000000E+00 0. -1.
</event>
<event>
 5    1  0.3183383E-003  0.9118800E+02  0.7818608E-02  0.1130116E+00
         25   -1    0    0    0    0  0.00000000000E+00  0.00000000000E+00  0.99999998245E-14  0.12500000000E+03  0.12500000000E+03 0.  0.
        -11    1    3    3    0    0 -0.36215951916E+02 -0.32815305320E+01  0.25348737148E+02  0.44327441739E+02  0.51100000000E-03 0. -1.
         23    2    1    0    0    0  0.91939369982E+01 -0.23727689426E+02  0.15835079874E+02  0.95028655726E+02  0.90178511473E+02 0.  0.
         11    1    3    3    0    0  0.45409888915E+02 -0.20446158894E+02 -0.95136572746E+01  0.50701213987E+02  0.51100000000E-03 0.  1.
         22    1    1    0    0    0 -0.91939369982E+01  0.23727689426E+02 -0.15835079874E+02  0.29971344274E+02  0.00000000000E+00 0.  1.
</event>
<event>
 5    1  0.3183383E-003  0.9118800E+02  0.7818608E-02  0.1130116E+00
         25   -1    0    0    0    0  0.00000000000E+00  0.00000000000E+00  0.99999998245E-14  0.12500000000E+03  0.12500000000E+03 0.  0.
        -11    1    3    3    0    0  0.43547079218E+02  0.10886953993E+02 -0.29093049761E+02  0.53490928393E+02  0.51100000000E-03 0. -1.
         23    2    1    0    0    0  0.19362798369E+01  0.55980529170E+01 -0.28963792818E+02  0.95436700616E+02  0.90742355898E+02 0.  0.
         11    1    3    3    0    0 -0.41610799381E+02 -0.52889010756E+01  0.12925694246E+00  0.41945772223E+02  0.51100000000E-03 0.  1.
         22    1    1    0    0    0 -0.19362798369E+01 -0.55980529170E+01  0.28963792818E+02  0.29563299384E+02  0.00000000000E+00 0. -1.
</event>
<event>
 5    1  0.3183383E-003  0.9118800E+02  0.7818608E-02  0.1130116E+00
         25   -1    0    0    0    0  0.00000000000E+00  0.00000000000E+00  0.99999998245E-14  0.12500000000E+03  0.12500000000E+03 0.  0.
        -11    1    3    3    0    0  0.22426678682E+02 -0.22565779762E+01 -0.24297716832E+02  0.33142527127E+02  0.51100000000E-03 0.  1.
         23    2    1    0    0    0 -0.26438054506E+02 -0.41231497033E+01  0.13576814995E+02  0.94994983837E+02  0.90131825451E+02 0.  0.
         11    1    3    3    0    0 -0.48864733189E+02 -0.18665717271E+01  0.37874531827E+02  0.61852456709E+02  0.51100000000E-03 0. -1.
         22    1    1    0    0    0  0.26438054506E+02  0.41231497033E+01 -0.13576814995E+02  0.30005016163E+02  0.00000000000E+00 0. -1.
</event>
<event>
 5    1  0.3183383E-003  0.9118800E+02  0.7818608E-02  0.1130116E+00
         25   -1    0    0    0    0  0.00000000000E+00  0.00000000000E+00  0.99999998245E-14  0.12500000000E+03  0.12500000000E+03 0.  0.
        -11    1    3    3    0    0  0.75135854377E+01  0.48713392390E+02  0.35275959761E+02  0.60612225678E+02  0.51100000000E-03 0. -1.
         23    2    1    0    0    0  0.30361787736E+00  0.16231604298E+02  0.24544289480E+02  0.95572473635E+02  0.90929194480E+02 0.  0.
         11    1    3    3    0    0 -0.72099675603E+01 -0.32481788093E+02 -0.10731670281E+02  0.34960247957E+02  0.51100000000E-03 0.  1.
         22    1    1    0    0    0 -0.30361787736E+00 -0.16231604298E+02 -0.24544289480E+02  0.29427526365E+02  0.00000000000E+00 0. -1.
</event>
<event>
 5    1  0.3183383E-003  0.9118800E+02  0.7818608E-02  0.1130116E+00
         25   -1    0    0    0    0  0.00000000000E+00  0.00000000000E+00  0.99999998245E-14  0.12500000000E+03  0.12500000000E+03 0.  0.
        -11    1    3    3    0    0 -0.68651205877E+01 -0.23197103654E+02  0.52011202402E+02  0.57362014209E+02  0.51100000000E-03 0. -1.
         23    2    1    0    0    0  0.29018989099E+01  0.36820393671E+01  0.32920982022E+02  0.91746887537E+02  0.85508607078E+02 0.  0.
         11    1    3    3    0    0  0.97670194976E+01  0.26879143021E+02 -0.19090220380E+02  0.34384873328E+02  0.51100000000E-03 0.  1.
         22    1    1    0    0    0 -0.29018989099E+01 -0.36820393671E+01 -0.32920982022E+02  0.33253112463E+02  0.00000000000E+00 0. -1.
</event>
<event>
 5    1  0.3183383E-003  0.9118800E+02  0.7818608E-02  0.1130116E+00
         25   -1    0    0    0    0  0.00000000000E+00  0.00000000000E+00  0.99999998245E-14  0.12500000000E+03  0.12500000000E+03 0.  0.
        -11    1    3    3    0    0  0.45364931922E+02 -0.16511292101E+02  0.65001366670E+01  0.48711924537E+02  0.51100000000E-03 0.  1.
         23    2    1    0    0    0  0.17933550143E+02  0.17636851959E+02 -0.13032484072E+02  0.96671279435E+02  0.92427376133E+02 0.  0.
         11    1    3    3    0    0 -0.27431381779E+02  0.34148144060E+02 -0.19532620739E+02  0.47959354898E+02  0.51100000000E-03 0. -1.
         22    1    1    0    0    0 -0.17933550143E+02 -0.17636851959E+02  0.13032484072E+02  0.28328720565E+02  0.00000000000E+00 0.  1.
</event>
<event>
 5    1  0.3183383E-003  0.9118800E+02  0.7818608E-02  0.1130116E+00
         25   -1    0    0    0    0  0.00000000000E+00  0.00000000000E+00  0.99999998245E-14  0.12500000000E+03  0.12500000000E+03 0.  0.
        -11    1    3    3    0    0 -0.13353212275E+02  0.63418803516E+01 -0.30331222150E+02  0.33741825111E+02  0.51100000000E-03 0.  1.
         23    2    1    0    0    0  0.44302273858E+01  0.11273176402E+02  0.27769967045E+02  0.94703424442E+02  0.89726563015E+02 0.  0.
         11    1    3    3    0    0  0.17783439660E+02  0.49312960505E+01  0.58101189195E+02  0.60961599331E+02  0.51100000000E-03 0. -1.
         22    1    1    0    0    0 -0.44302273858E+01 -0.11273176402E+02 -0.27769967045E+02  0.30296575558E+02  0.00000000000E+00 0. -1.
</event>
<event>
 5    1  0.3183383E-003  0.9118800E+02  0.7818608E-02  0.1130116E+00
         25   -1    0    0    0    0  0.00000000000E+00  0.00000000000E+00  0.99999998245E-14  0.12500000000E+03  0.12500000000E+03 0.  0.
        -11    1    3    3    0    0  0.34606175655E+02  0.29154562358E+01 -0.15031623707E+02  0.37842264600E+02  0.51100000000E-03 0. -1.
         23    2    1    0    0    0 -0.85050494974E+01 -0.29087106466E+02  0.31578440803E+01  0.94530874500E+02  0.89485857122E+02 0.  0.
         11    1    3    3    0    0 -0.43111225153E+02 -0.32002562702E+02  0.18189467788E+02  0.56688609899E+02  0.51100000000E-03 0.  1.
         22    1    1    0    0    0  0.85050494974E+01  0.29087106466E+02 -0.31578440803E+01  0.30469125500E+02  0.00000000000E+00 0.  1.
</event>
<event>
 5    1  0.3183383E-003  0.9118800E+02  0.7818608E-02  0.1130116E+00
         25   -1    0    0    0    0  0.00000000000E+00  0.00000000000E+00  0.99999998245E-14  0.12500000000E+03  0.12500000000E+03 0.  0.
        -11    1    3    3    0    0 -0.19130225573E+02 -0.28729319905E+02  0.18910603422E+02  0.39356705588E+02  0.51100000000E-03 0. -1.
         23    2    1    0    0    0 -0.13784545969E+02  0.95580546873E+01 -0.23102827705E+02  0.96449855255E+02  0.92127432471E+02 0.  0.
         11    1    3    3    0    0  0.53456796041E+01  0.38287374592E+02 -0.42013431127E+02  0.57093149667E+02  0.51100000000E-03 0.  1.
         22    1    1    0    0    0  0.13784545969E+02 -0.95580546873E+01  0.23102827705E+02  0.28550144745E+02  0.00000000000E+00 0.  1.
</event>
<event>
 5    1  0.3183383E-003  0.9118800E+02  0.7818608E-02  0.1130116E+00
         25   -1    0    0    0    0  0.00000000000E+00  0.00000000000E+00  0.99999998245E-14  0.12500000000E+03  0.12500000000E+03 0.  0.
        -11    1    3    3    0    0 -0.34009298005E+02 -0.82238846028E+00  0.89489216094E+01  0.35176581297E+02  0.51100000000E-03 0. -1.
         23    2    1    0    0    0  0.23002094322E+02 -0.16565553349E+02  0.11578521857E+02  0.94380136034E+02  0.89275046953E+02 0.  0.
         11    1    3    3    0    0  0.57011392326E+02 -0.15743164888E+02  0.26296002472E+01  0.59203554736E+02  0.51100000000E-03 0.  1.
         22    1    1    0    0    0 -0.23002094322E+02  0.16565553349E+02 -0.11578521857E+02  0.30619863966E+02  0.00000000000E+00 0.  1.
</event>
<event>
 5    1  0.3183383E-003  0.9118800E+02  0.7818608E-02  0.1130116E+00
         25   -1    0    0    0    0  0.00000000000E+00  0.00000000000E+00  0.99999998245E-14  0.12500000000E+03  0.12500000000E+03 0.  0.
        -11    1    3    3    0    0 -0.32067847991E+02  0.26098552709E+02 -0.22547534122E+02  0.47094295021E+02  0.51100000000E-03 0.  1.
         23    2    1    0    0    0  0.13127765803E+01  0.24424211020E+02  0.14159443220E+02  0.96737740738E+02  0.92517215612E+02 0.  0.
         11    1    3    3    0    0  0.33380624571E+02 -0.16743416894E+01  0.36706977342E+02  0.49643445717E+02  0.51100000000E-03 0. -1.
         22    1    1    0    0    0 -0.13127765803E+01 -0.24424211020E+02 -0.14159443220E+02  0.28262259262E+02  0.00000000000E+00 0. -1.
</event>
<event>
 5    1  0.3183383E-003  0.9118800E+02  0.7818608E-02  0.1130116E+00
         25   -1    0    0    0    0  0.00000000000E+00  0.00000000000E+00  0.99999998245E-14  0.12500000000E+03  0.12500000000E+03 0.  0.
        -11    1    3    3    0    0  0.37681607798E+02  0.15044659645E+02 -0.12570401620E+01  0.40593416957E+02  0.51100000000E-03 0.  1.
         23    2    1    0    0    0  0.78127242697E+01 -0.27771538530E+02 -0.11761785048E+02  0.93844958669E+02  0.88522537623E+02 0.  0.
         11    1    3    3    0    0 -0.29868883528E+02 -0.42816198174E+02 -0.10504744886E+02  0.53251541712E+02  0.51100000000E-03 0. -1.
         22    1    1    0    0    0 -0.78127242697E+01  0.27771538530E+02  0.11761785048E+02  0.31155041331E+02  0.00000000000E+00 0. -1.
</event>
<event>
 5    1  0.3183383E-003  0.9118800E+02  0.7818608E-02  0.1130116E+00
         25   -1    0    0    0    0  0.00000000000E+00  0.00000000000E+00  0.99999998245E-14  0.12500000000E+03  0.12500000000E+03 0.  0.
        -11    1    3    3    0    0  0.39494326809E+02  0.24737251543E+02 -0.11501631799E+02  0.48000218732E+02  0.51100000000E-03 0. -1.
         23    2    1    0    0    0  0.97256487190E+01 -0.75527353023E+01 -0.27601280860E+02  0.94776453572E+02  0.89828243849E+02 0.  0.
         11    1    3    3    0    0 -0.29768678090E+02 -0.32289986845E+02 -0.16099649061E+02  0.46776234840E+02  0.51100000000E-03 0.  1.
         22    1    1    0    0    0 -0.97256487190E+01  0.75527353023E+01  0.27601280860E+02  0.30223546428E+02  0.00000000000E+00 0. -1.
</event>
<event>
 5    1  0.3183383E-003  0.9118800E+02  0.7818608E-02  0.1130116E+00
         25   -1    0    0    0    0  0.00000000000E+00  0.00000000000E+00  0.99999998245E-14  0.12500000000E+03  0.12500000000E+03 0.  0.
        -11    1    3    3    0    0  0.63266423553E+01  0.57954820518E+02 -0.54232318078E+01  0.58550824659E+02  0.51100000000E-03 0. -1.
         23    2    1    0    0    0  0.91136961069E+01  0.25864720098E+02  0.11878682483E+02  0.95114446634E+02  0.90297351337E+02 0.  0.
         11    1    3    3    0    0  0.27870537516E+01 -0.32090100420E+02  0.17301914290E+02  0.36563621975E+02  0.51100000000E-03 0.  1.
         22    1    1    0    0    0 -0.91136961069E+01 -0.25864720098E+02 -0.11878682483E+02  0.29885553366E+02  0.00000000000E+00 0. -1.
</event>
<event>
 5    1  0.3183383E-003  0.9118800E+02  0.7818608E-02  0.1130116E+00
         25   -1    0    0    0    0  0.00000000000E+00  0.00000000000E+00  0.99999998245E-14  0.12500000000E+03  0.12500000000E+03 0.  0.
        -11    1    3    3    0    0  0.18780468111E+02 -0.12572221380E+02  0.49093735859E+02  0.54045921528E+02  0.51100000000E-03 0. -1.
         23    2    1    0    0    0  0.25805996252E+02 -0.76753754870E+01  0.67546867538E+01  0.97242359168E+02  0.93196511694E+02 0.  0.
         11    1    3    3    0    0  0.70255281405E+01  0.48968458929E+01 -0.42339049106E+02  0.43196437640E+02  0.51100000000E-03 0.  1.
         22    1    1    0    0    0 -0.25805996252E+02  0.76753754870E+01 -0.67546867538E+01  0.27757640832E+02  0.00000000000E+00 0. -1.
</event>
<event>
 5    1  0.3183383E-003  0.9118800E+02  0.7818608E-02  0.1130116E+00
         25   -1    0    0    0    0  0.00000000000E+00  0.00000000000E+00  0.99999998245E-14  0.12500000000E+03  0.12500000000E+03 0.  0.
        -11    1    3    3    0    0  0.20020068389E+02 -0.45536894461E+02 -0.11306845027E+02  0.51012318514E+02  0.51100000000E-03 0.  1.
         23    2    1    0    0    0  0.25061929760E+02 -0.76502467200E+01  0.12423388190E+02  0.96000566000E+02  0.91515799183E+02 0.  0.
         11    1    3    3    0    0  0.50418613716E+01  0.37886647741E+02  0.23730233216E+02  0.44988247487E+02  0.51100000000E-03 0. -1.
         22    1    1    0    0    0 -0.25061929760E+02  0.76502467200E+01 -0.12423388190E+02  0.28999434000E+02  0.00000000000E+00 0.  1.
</event>
<event>
 5    1  0.3183383E-003  0.9118800E+02  0.7818608E-02  0.1130116E+00
         25   -1    0    0    0    0  0.00000000000E+00  0.00000000000E+00  0.99999998245E-14  0.12500000000E+03  0.12500000000E+03 0.  0.
        -11    1    3    3    0    0 -0.45142471293E+02  0.27507618936E+02  0.20493822741E+02  0.56696636450E+02  0.51100000000E-03 0.  1.
         23    2    1    0    0    0 -0.24075018137E+02 -0.19231608214E+01  0.21149984768E+02  0.92896621649E+02  0.87173134694E+02 0.  0.
         11    1    3    3    0    0  0.21067453156E+02 -0.29430779757E+02  0.65616202729E+00  0.36199985200E+02  0.51100000000E-03 0. -1.
         22    1    1    0    0    0  0.24075018137E+02  0.19231608214E+01 -0.21149984768E+02  0.32103378351E+02  0.00000000000E+00 0.  1.
</event>
<event>
 5    1  0.3183383E-003  0.9118800E+02  0.7818608E-02  0.1130116E+00
         25   -1    0    0    0    0  0.00000000000E+00  0.00000000000E+00  0.99999998245E-14  0.12500000000E+03  0.12500000000E+03 0.  0.
        -11    1    3    3    0    0  0.36077659334E+01 -0.22146849494E+02  0.23625137188E+02  0.32582910013E+02  0.51100000000E-03 0. -1.
         23    2    1    0    0    0 -0.10973932444E+01  0.22214532146E+02 -0.20080376846E+02  0.95034832811E+02  0.90187073368E+02 0.  0.
         11    1    3    3    0    0 -0.47051591778E+01  0.44361381640E+02 -0.43705514034E+02  0.62451922798E+02  0.51100000000E-03 0.  1.
         22    1    1    0    0    0  0.10973932444E+01 -0.22214532146E+02  0.20080376846E+02  0.29965167189E+02  0.00000000000E+00 0.  1.
</event>
<event>
 5    1  0.3183383E-003  0.9118800E+02  0.7818608E-02  0.1130116E+00
         25   -1    0    0    0    0  0.00000000000E+00  0.00000000000E+00  0.99999998245E-14  0.12500000000E+03  0.12500000000E+03 0.  0.
        -11    1    3    3    0    0  0.16172591370E+02 -0.11175557648E+02  0.35896003319E+02  0.40926383360E+02  0.51100000000E-03 0.  1.
         23    2    1    0    0    0  0.23616242362E+02 -0.21010283744E+01 -0.17458226471E+02  0.95556309759E+02  0.90906971348E+02 0.  0.
         11    1    3    3    0    0  0.74436509923E+01  0.90745292732E+01 -0.53354229790E+02  0.54629926399E+02  0.51100000000E-03 0. -1.
         22    1    1    0    0    0 -0.23616242362E+02  0.21010283744E+01  0.17458226471E+02  0.29443690241E+02  0.00000000000E+00 0. -1.
</event>
<event>
 5    1  0.3183383E-003  0.9118800E+02  0.7818608E-02  0.1130116E+00
         25   -1    0    0    0    0  0.00000000000E+00  0.00000000000E+00  0.99999998245E-14  0.12500000000E+03  0.12500000000E+03 0.  0.
        -11    1    3    3    0    0 -0.63547095354E+01 -0.49907934002E+01 -0.40593104962E+02  0.41389497735E+02  0.51100000000E-03 0.  1.
         23    2    1    0    0    0  0.21354488211E+02  0.17320214482E+02  0.26403387716E+01  0.97377990926E+02  0.93378250848E+02 0.  0.
         11    1    3    3    0    0  0.27709197746E+02  0.22311007882E+02  0.43233443734E+02  0.55988493191E+02  0.51100000000E-03 0. -1.
         22    1    1    0    0    0 -0.21354488211E+02 -0.17320214482E+02 -0.26403387716E+01  0.27622009074E+02  0.00000000000E+00 0. -1.
</event>
<event>
 5    1  0.3183383E-003  0.9118800E+02  0.7818608E-02  0.1130116E+00
         25   -1    0    0    0    0  0.00000000000E+00  0.00000000000E+00  0.99999998245E-14  0.12500000000E+03  0.12500000000E+03 0.  0.
        -11    1    3    3    0    0  0.53791077889E+02  0.23810349868E+02  0.84842421822E+01  0.59433956515E+02  0.51100000000E-03 0. -1.
         23    2    1    0    0    0  0.25827940746E+02  0.12888532101E+02 -0.97195570718E+01  0.94542380714E+02  0.89501928351E+02 0.  0.
         11    1    3    3    0    0 -0.27963137143E+02 -0.10921817767E+02 -0.18203799254E+02  0.35108424199E+02  0.51100000000E-03 0.  1.
         22    1    1    0    0    0 -0.25827940746E+02 -0.12888532101E+02  0.97195570718E+01  0.30457619286E+02  0.00000000000E+00 0. -1.
</event>
<event>
 5    1  0.3183383E-003  0.9118800E+02  0.7818608E-02  0.1130116E+00
         25   -1    0    0    0    0  0.00000000000E+00  0.00000000000E+00  0.99999998245E-14  0.12500000000E+03  0.12500000000E+03 0.  0.
        -11    1    3    3    0    0  0.39993101606E+01 -0.57459153713E+02  0.11993343616E+02  0.58833571356E+02  0.51100000000E-03 0.  1.
         23    2    1    0    0    0 -0.11521414580E+02 -0.25162898704E+02  0.12413941013E+02  0.94668161998E+02  0.89677424692E+02 0.  0.
         11    1    3    3    0    0 -0.15520724740E+02  0.32296255008E+02  0.42059739630E+00  0.35834590642E+02  0.51100000000E-03 0. -1.
         22    1    1    0    0    0  0.11521414580E+02  0.25162898704E+02 -0.12413941013E+02  0.30331838002E+02  0.00000000000E+00 0.  1.
</event>
<event>
 5    1  0.3183383E-003  0.9118800E+02  0.7818608E-02  0.1130116E+00
         25   -1    0    0    0    0  0.00000000000E+00  0.00000000000E+00  0.99999998245E-14  0.12500000000E+03  0.12500000000E+03 0.  0.
        -11    1    3    3    0    0 -0.38173258604E+02  0.34757515897E+02 -0.17473905543E+02  0.54503394013E+02  0.51100000000E-03 0.  1.
         23    2    1    0    0    0 -0.11099837116E+02  0.25297105286E+02  0.11322496194E+02  0.95144534170E+02  0.90338992371E+02 0.  0.
         11    1    3    3    0    0  0.27073421488E+02 -0.94604106109E+01  0.28796401737E+02  0.40641140157E+02  0.51100000000E-03 0. -1.
         22    1    1    0    0    0  0.11099837116E+02 -0.25297105286E+02 -0.11322496194E+02  0.29855465830E+02  0.00000000000E+00 0.  1.
</event>
<event>
 5    1  0.3183383E-003  0.9118800E+02  0.7818608E-02  0.1130116E+00
         25   -1    0    0    0    0  0.00000000000E+00  0.00000000000E+00  0.99999998245E-14  0.12500000000E+03  0.12500000000E+03 0.  0.
        -11    1    3    3    0    0 -0.52575159480E+02 -0.18598267456E+01 -0.18061270708E+02  0.55622080595E+02  0.51100000000E-03 0.  1.
         23    2    1    0    0    0 -0.21790175953E+02  0.19036397948E+02 -0.24812533477E+01  0.95959462246E+02  0.91459638975E+02 0.  0.
         11    1    3    3    0    0  0.30784983528E+02  0.20896224693E+02  0.15580017360E+02  0.40337381651E+02  0.51100000000E-03 0. -1.
         22    1    1    0    0    0  0.21790175953E+02 -0.19036397948E+02  0.24812533477E+01  0.29040537754E+02  0.00000000000E+00 0.  1.
</event>
<event>
 5    1  0.3183383E-003  0.9118800E+02  0.7818608E-02  0.1130116E+00
         25   -1    0    0    0    0  0.00000000000E+00  0.00000000000E+00  0.99999998245E-14  0.12500000000E+03  0.12500000000E+03 0.  0.
        -11    1    3    3    0    0  0.17346275786E+02  0.18805293992E+02  0.49680016663E+02  0.55880554952E+02  0.51100000000E-03 0.  1.
         23    2    1    0    0    0  0.19454642053E+02  0.19235611066E+02  0.96184220223E+01  0.95999898747E+02  0.91514887787E+02 0.  0.
         11    1    3    3    0    0  0.21083662669E+01  0.43031707430E+00 -0.40061594641E+02  0.40119343795E+02  0.51100000000E-03 0. -1.
         22    1    1    0    0    0 -0.19454642053E+02 -0.19235611066E+02 -0.96184220223E+01  0.29000101253E+02  0.00000000000E+00 0.  1.
</event>
<event>
 5    1  0.3183383E-003  0.9118800E+02  0.7818608E-02  0.1130116E+00
         25   -1    0    0    0    0  0.00000000000E+00  0.00000000000E+00  0.99999998245E-14  0.12500000000E+03  0.12500000000E+03 0.  0.
        -11    1    3    3    0    0  0.51996747564E+02  0.20206277321E+02 -0.23099511056E+02  0.60378330647E+02  0.51100000000E-03 0. -1.
         23    2    1    0    0    0  0.26822311272E+02  0.32492424616E+01 -0.92946787921E+00  0.97965616910E+02  0.94161585732E+02 0.  0.
         11    1    3    3    0    0 -0.25174436292E+02 -0.16957034860E+02  0.22170043177E+02  0.37587286263E+02  0.51100000000E-03 0.  1.
         22    1    1    0    0    0 -0.26822311272E+02 -0.32492424616E+01  0.92946787921E+00  0.27034383090E+02  0.00000000000E+00 0. -1.
</event>
<event>
 5    1  0.3183383E-003  0.9118800E+02  0.7818608E-02  0.1130116E+00
         25   -1    0    0    0    0  0.00000000000E+00  0.00000000000E+00  0.99999998245E-14  0.12500000000E+03  0.12500000000E+03 0.  0.
        -11    1    3    3    0    0 -0.20678394769E+01 -0.34001856485E+02 -0.34611231510E+01  0.34240058094E+02  0.51100000000E-03 0.  1.
         23    2    1    0    0    0 -0.69964335970E+01  0.27805019827E+02 -0.22854729645E+00  0.96327339773E+02  0.91961051229E+02 0.  0.
         11    1    3    3    0    0 -0.49285941202E+01  0.61806876312E+02  0.32325758546E+01  0.62087281679E+02  0.51100000000E-03 0. -1.
         22    1    1    0    0    0  0.69964335970E+01 -0.27805019827E+02  0.22854729645E+00  0.28672660227E+02  0.00000000000E+00 0. -1.
</event>
<event>
 5    1  0.3183383E-003  0.9118800E+02  0.7818608E-02  0.1130116E+00
         25   -1    0    0    0    0  0.00000000000E+00  0.00000000000E+00  0.99999998245E-14  0.12500000000E+03  0.12500000000E+03 0.  0.
        -11    1    3    3    0    0  0.38748368905E+02  0.46593100034E+02 -0.17776261840E+01  0.60626009424E+02  0.51100000000E-03 0.  1.
         23    2    1    0    0    0  0.14031944927E+02  0.17826584847E+02  0.98101477315E+01  0.10028317164E+03  0.97189469129E+02 0.  0.
         11    1    3    3    0    0 -0.24716423978E+02 -0.28766515187E+02  0.11587773915E+02  0.39657162214E+02  0.51100000000E-03 0. -1.
         22    1    1    0    0    0 -0.14031944927E+02 -0.17826584847E+02 -0.98101477315E+01  0.24716828362E+02  0.00000000000E+00 0.  1.
</event>
<event>
 5    1  0.3183383E-003  0.9118800E+02  0.7818608E-02  0.1130116E+00
         25   -1    0    0    0    0  0.00000000000E+00  0.00000000000E+00  0.99999998245E-14  0.12500000000E+03  0.12500000000E+03 0.  0.
        -11    1    3    3    0    0  0.49844277048E+02  0.21963248198E+02  0.77515553614E+01  0.55017477556E+02  0.51100000000E-03 0. -1.
         23    2    1    0    0    0  0.19448554635E+02  0.16331566921E+02 -0.16847636049E+02  0.94523628892E+02  0.89475735386E+02 0.  0.
         11    1    3    3    0    0 -0.30395722413E+02 -0.56316812771E+01 -0.24599191411E+02  0.39506151336E+02  0.51100000000E-03 0.  1.
         22    1    1    0    0    0 -0.19448554635E+02 -0.16331566921E+02  0.16847636049E+02  0.30476371108E+02  0.00000000000E+00 0. -1.
</event>
<event>
 5    1  0.3183383E-003  0.9118800E+02  0.7818608E-02  0.1130116E+00
         25   -1    0    0    0    0  0.00000000000E+00  0.00000000000E+00  0.99999998245E-14  0.12500000000E+03  0.12500000000E+03 0.  0.
        -11    1    3    3    0    0 -0.45412361116E+02 -0.24365469836E+02  0.23255340632E+02  0.56539981700E+02  0.51100000000E-03 0.  1.
         23    2    1    0    0    0 -0.18433006472E+02 -0.21543525311E+02  0.29188341506E+02  0.84307758844E+02  0.73837251512E+02 0.  0.
         11    1    3    3    0    0  0.26979354643E+02  0.28219445247E+01  0.59330008746E+01  0.27767777144E+02  0.51100000000E-03 0. -1.
         22    1    1    0    0    0  0.18433006472E+02  0.21543525311E+02 -0.29188341506E+02  0.40692241156E+02  0.00000000000E+00 0.  1.
</event>
<event>
 5    1  0.3183383E-003  0.9118800E+02  0.7818608E-02  0.1130116E+00
         25   -1    0    0    0    0  0.00000000000E+00  0.00000000000E+00  0.99999998245E-14  0.12500000000E+03  0.12500000000E+03 0.  0.
        -11    1    3    3    0    0  0.12545155636E+02  0.25235810649E+02  0.40758572116E+02  0.49552883571E+02  0.51100000000E-03 0.  1.
         23    2    1    0    0    0  0.34276270347E+01  0.30877526548E+02 -0.22247343454E+01  0.93853255135E+02  0.88534252037E+02 0.  0.
         11    1    3    3    0    0 -0.91175286016E+01  0.56417158988E+01 -0.42983306461E+02  0.44300371564E+02  0.51100000000E-03 0. -1.
         22    1    1    0    0    0 -0.34276270347E+01 -0.30877526548E+02  0.22247343454E+01  0.31146744865E+02  0.00000000000E+00 0.  1.
</event>
<event>
 5    1  0.3183383E-003  0.9118800E+02  0.7818608E-02  0.1130116E+00
         25   -1    0    0    0    0  0.00000000000E+00  0.00000000000E+00  0.99999998245E-14  0.12500000000E+03  0.12500000000E+03 0.  0.
        -11    1    3    3    0    0 -0.33026941752E+02 -0.41597315361E+01  0.17778960371E+02  0.37738225714E+02  0.51100000000E-03 0.  1.
         23    2    1    0    0    0  0.11754589242E+02 -0.22742348718E+02 -0.14109291338E+02  0.95768905332E+02  0.91198828572E+02 0.  0.
         11    1    3    3    0    0  0.44781530994E+02 -0.18582617182E+02 -0.31888251710E+02  0.58030679617E+02  0.51100000000E-03 0. -1.
         22    1    1    0    0    0 -0.11754589242E+02  0.22742348718E+02  0.14109291338E+02  0.29231094668E+02  0.00000000000E+00 0. -1.
</event>
<event>
 5    1  0.3183383E-003  0.9118800E+02  0.7818608E-02  0.1130116E+00
         25   -1    0    0    0    0  0.00000000000E+00  0.00000000000E+00  0.99999998245E-14  0.12500000000E+03  0.12500000000E+03 0.  0.
        -11    1    3    3    0    0 -0.86443938774E+01 -0.35842927092E+02 -0.28927129809E+02  0.46863843284E+02  0.51100000000E-03 0.  1.
         23    2    1    0    0    0  0.14306192805E+02  0.64900495888E+01 -0.25384083623E+02  0.95148038630E+02  0.90343841282E+02 0.  0.
         11    1    3    3    0    0  0.22950586682E+02  0.42332976681E+02  0.35430461859E+01  0.48284195346E+02  0.51100000000E-03 0. -1.
         22    1    1    0    0    0 -0.14306192805E+02 -0.64900495888E+01  0.25384083623E+02  0.29851961370E+02  0.00000000000E+00 0.  1.
</event>
<event>
 5    1  0.3183383E-003  0.9118800E+02  0.7818608E-02  0.1130116E+00
         25   -1    0    0    0    0  0.00000000000E+00  0.00000000000E+00  0.99999998245E-14  0.12500000000E+03  0.12500000000E+03 0.  0.
        -11    1    3    3    0    0 -0.11976860573E+02 -0.94096049358E+01 -0.58916842190E+02  0.60853760345E+02  0.51100000000E-03 0.  1.
         23    2    1    0    0    0 -0.19256295001E+01  0.45884231110E+01 -0.30569014816E+02  0.94028620592E+02  0.88781502285E+02 0.  0.
         11    1    3    3    0    0  0.10051231073E+02  0.13998028047E+02  0.28347827374E+02  0.33174860247E+02  0.51100000000E-03 0. -1.
         22    1    1    0    0    0  0.19256295001E+01 -0.45884231110E+01  0.30569014816E+02  0.30971379408E+02  0.00000000000E+00 0.  1.
</event>
<event>
 5    1  0.3183383E-003  0.9118800E+02  0.7818608E-02  0.1130116E+00
         25   -1    0    0    0    0  0.00000000000E+00  0.00000000000E+00  0.99999998245E-14  0.12500000000E+03  0.12500000000E+03 0.  0.
        -11    1    3    3    0    0  0.36482669619E+02 -0.33559184361E+02  0.32355686014E+02  0.59195392179E+02  0.51100000000E-03 0. -1.
         23    2    1    0    0    0  0.23016137251E+02 -0.15079800431E+02  0.17109810687E+01  0.97430625484E+02  0.93448683088E+02 0.  0.
         11    1    3    3    0    0 -0.13466532368E+02  0.18479383930E+02 -0.30644704945E+02  0.38235233305E+02  0.51100000000E-03 0.  1.
         22    1    1    0    0    0 -0.23016137251E+02  0.15079800431E+02 -0.17109810687E+01  0.27569374516E+02  0.00000000000E+00 0. -1.
</event>
<event>
 5    1  0.3183383E-003  0.9118800E+02  0.7818608E-02  0.1130116E+00
         25   -1    0    0    0    0  0.00000000000E+00  0.00000000000E+00  0.99999998245E-14  0.12500000000E+03  0.12500000000E+03 0.  0.
        -11    1    3    3    0    0  0.11085087687E+02  0.40326000649E+02 -0.20668167966E+02  0.46650173254E+02  0.51100000000E-03 0.  1.
         23    2    1    0    0    0  0.52487266022E+01  0.21435190145E+02 -0.43116314008E+02  0.76564134764E+02  0.59296152413E+02 0.  0.
         11    1    3    3    0    0 -0.58363610843E+01 -0.18890810504E+02 -0.22448146043E+02  0.29913961510E+02  0.51100000000E-03 0. -1.
         22    1    1    0    0    0 -0.52487266022E+01 -0.21435190145E+02  0.43116314008E+02  0.48435865236E+02  0.00000000000E+00 0.  1.
</event>
<event>
 5    1  0.3183383E-003  0.9118800E+02  0.7818608E-02  0.1130116E+00
         25   -1    0    0    0    0  0.00000000000E+00  0.00000000000E+00  0.99999998245E-14  0.12500000000E+03  0.12500000000E+03 0.  0.
        -11    1    3    3    0    0  0.34743154192E+02  0.27224156194E+02 -0.30044597797E+02  0.53394000606E+02  0.51100000000E-03 0.  1.
         23    2    1    0    0    0  0.11215444132E+02  0.24257824327E+02  0.69951678418E+01  0.97374638440E+02  0.93373762964E+02 0.  0.
         11    1    3    3    0    0 -0.23527710060E+02 -0.29663318661E+01  0.37039765639E+02  0.43980637834E+02  0.51100000000E-03 0. -1.
         22    1    1    0    0    0 -0.11215444132E+02 -0.24257824327E+02 -0.69951678418E+01  0.27625361560E+02  0.00000000000E+00 0.  1.
</event>
<event>
 5    1  0.3183383E-003  0.9118800E+02  0.7818608E-02  0.1130116E+00
         25   -1    0    0    0    0  0.00000000000E+00  0.00000000000E+00  0.99999998245E-14  0.12500000000E+03  0.12500000000E+03 0.  0.
        -11    1    3    3    0    0 -0.71644562833E+01 -0.28294999330E+02 -0.40700178665E+02  0.50084338515E+02  0.51100000000E-03 0.  1.
         23    2    1    0    0    0 -0.14896967877E+02 -0.19436220830E+02  0.72544318035E+01  0.99459578843E+02  0.96124371056E+02 0.  0.
         11    1    3    3    0    0 -0.77325115937E+01  0.88587785004E+01  0.47954610468E+02  0.49375240328E+02  0.51100000000E-03 0. -1.
         22    1    1    0    0    0  0.14896967877E+02  0.19436220830E+02 -0.72544318035E+01  0.25540421157E+02  0.00000000000E+00 0. -1.
</event>
<event>
 5    1  0.3183383E-003  0.9118800E+02  0.7818608E-02  0.1130116E+00
         25   -1    0    0    0    0  0.00000000000E+00  0.00000000000E+00  0.99999998245E-14  0.12500000000E+03  0.12500000000E+03 0.  0.
        -11    1    3    3    0    0 -0.18661300199E+00 -0.35141185015E+02 -0.45086568039E+02  0.57164117473E+02  0.51100000000E-03 0.  1.
         23    2    1    0    0    0  0.17083731020E+02 -0.10854170034E+02 -0.23632517481E+02  0.93884686163E+02  0.88578617853E+02 0.  0.
         11    1    3    3    0    0  0.17270344022E+02  0.24287014981E+02  0.21454050558E+02  0.36720568690E+02  0.51100000000E-03 0. -1.
         22    1    1    0    0    0 -0.17083731020E+02  0.10854170034E+02  0.23632517481E+02  0.31115313837E+02  0.00000000000E+00 0.  1.
</event>
<event>
 5    1  0.3183383E-003  0.9118800E+02  0.7818608E-02  0.1130116E+00
         25   -1    0    0    0    0  0.00000000000E+00  0.00000000000E+00  0.99999998245E-14  0.12500000000E+03  0.12500000000E+03 0.  0.
        -11    1    3    3    0    0  0.47677416089E+02 -0.27947715388E+02  0.32779136315E+01  0.55362040410E+02  0.51100000000E-03 0. -1.
         23    2    1    0    0    0  0.29748087013E+02  0.65984388624E+01 -0.96010060258E+00  0.94513775741E+02  0.89461969212E+02 0.  0.
         11    1    3    3    0    0 -0.17929329076E+02  0.34546154250E+02 -0.42380142341E+01  0.39151735332E+02  0.51100000000E-03 0.  1.
         22    1    1    0    0    0 -0.29748087013E+02 -0.65984388624E+01  0.96010060258E+00  0.30486224259E+02  0.00000000000E+00 0. -1.
</event>
<event>
 5    1  0.3183383E-003  0.9118800E+02  0.7818608E-02  0.1130116E+00
         25   -1    0    0    0    0  0.00000000000E+00  0.00000000000E+00  0.99999998245E-14  0.12500000000E+03  0.12500000000E+03 0.  0.
        -11    1    3    3    0    0  0.96450009584E+01 -0.12525960613E+02  0.31765390434E+02  0.35481907537E+02  0.51100000000E-03 0. -1.
         23    2    1    0    0    0  0.10272225248E+02  0.33648231220E+02  0.34506877966E+01  0.89649903507E+02  0.82386138864E+02 0.  0.
         11    1    3    3    0    0  0.62722428981E+00  0.46174191833E+02 -0.28314702638E+02  0.54167995970E+02  0.51100000000E-03 0.  1.
         22    1    1    0    0    0 -0.10272225248E+02 -0.33648231220E+02 -0.34506877966E+01  0.35350096493E+02  0.00000000000E+00 0.  1.
</event>
<event>
 5    1  0.3183383E-003  0.9118800E+02  0.7818608E-02  0.1130116E+00
         25   -1    0    0    0    0  0.00000000000E+00  0.00000000000E+00  0.99999998245E-14  0.12500000000E+03  0.12500000000E+03 0.  0.
        -11    1    3    3    0    0  0.13719033824E+02  0.35157933609E+02  0.55730758244E+01  0.38149067605E+02  0.51100000000E-03 0.  1.
         23    2    1    0    0    0 -0.34908615799E+01 -0.19907726521E+02  0.18864509515E+02  0.97352696170E+02  0.93344384097E+02 0.  0.
         11    1    3    3    0    0 -0.17209895404E+02 -0.55065660131E+02  0.13291433691E+02  0.59203628565E+02  0.51100000000E-03 0. -1.
         22    1    1    0    0    0  0.34908615799E+01  0.19907726521E+02 -0.18864509515E+02  0.27647303830E+02  0.00000000000E+00 0. -1.
</event>
<event>
 5    1  0.3183383E-003  0.9118800E+02  0.7818608E-02  0.1130116E+00
         25   -1    0    0    0    0  0.00000000000E+00  0.00000000000E+00  0.99999998245E-14  0.12500000000E+03  0.12500000000E+03 0.  0.
        -11    1    3    3    0    0  0.23771075215E+02  0.23094328833E+02  0.11641373042E+02  0.35127391131E+02  0.51100000000E-03 0. -1.
         23    2    1    0    0    0 -0.59939998384E+00 -0.24856260797E+02 -0.15830024146E+02  0.95524880906E+02  0.90863745391E+02 0.  0.
         11    1    3    3    0    0 -0.24370475199E+02 -0.47950589630E+02 -0.27471397188E+02  0.60397489774E+02  0.51100000000E-03 0.  1.
         22    1    1    0    0    0  0.59939998384E+00  0.24856260797E+02  0.15830024146E+02  0.29475119094E+02  0.00000000000E+00 0.  1.
</event>
<event>
 5    1  0.3183383E-003  0.9118800E+02  0.7818608E-02  0.1130116E+00
         25   -1    0    0    0    0  0.00000000000E+00  0.00000000000E+00  0.99999998245E-14  0.12500000000E+03  0.12500000000E+03 0.  0.
        -11    1    3    3    0    0  0.57221593116E+02  0.95312131889E+01 -0.19552873051E+02  0.61216579359E+02  0.51100000000E-03 0. -1.
         23    2    1    0    0    0  0.26136381597E+02  0.11347959610E+02 -0.33734838101E+01  0.96307369878E+02  0.91933902721E+02 0.  0.
         11    1    3    3    0    0 -0.31085211520E+02  0.18167464212E+01  0.16179389241E+02  0.35090790519E+02  0.51100000000E-03 0.  1.
         22    1    1    0    0    0 -0.26136381597E+02 -0.11347959610E+02  0.33734838101E+01  0.28692630122E+02  0.00000000000E+00 0. -1.
</event>
<event>
 5    1  0.3183383E-003  0.9118800E+02  0.7818608E-02  0.1130116E+00
         25   -1    0    0    0    0  0.00000000000E+00  0.00000000000E+00  0.99999998245E-14  0.12500000000E+03  0.12500000000E+03 0.  0.
        -11    1    3    3    0    0  0.22249540679E+02 -0.11038329534E+02  0.32667683487E+02  0.41037352789E+02  0.51100000000E-03 0. -1.
         23    2    1    0    0    0 -0.60210641718E+01 -0.20313640912E+02 -0.16253957177E+02  0.98296285937E+02  0.94599532157E+02 0.  0.
         11    1    3    3    0    0 -0.28270604851E+02 -0.92753113779E+01 -0.48921640663E+02  0.57258933148E+02  0.51100000000E-03 0.  1.
         22    1    1    0    0    0  0.60210641718E+01  0.20313640912E+02  0.16253957177E+02  0.26703714063E+02  0.00000000000E+00 0.  1.
</event>
<event>
 5    1  0.3183383E-003  0.9118800E+02  0.7818608E-02  0.1130116E+00
         25   -1    0    0    0    0  0.00000000000E+00  0.00000000000E+00  0.99999998245E-14  0.12500000000E+03  0.12500000000E+03 0.  0.
        -11    1    3    3    0    0 -0.54724129861E+02 -0.13550814001E+02  0.14673805971E+02  0.58255261832E+02  0.51100000000E-03 0.  1.
         23    2    1    0    0    0 -0.29365679293E+02  0.68550114244E+01 -0.19075301049E+01  0.94784557374E+02  0.89839519943E+02 0.  0.
         11    1    3    3    0    0  0.25358450568E+02  0.20405825425E+02 -0.16581336076E+02  0.36529295543E+02  0.51100000000E-03 0. -1.
         22    1    1    0    0    0  0.29365679293E+02 -0.68550114244E+01  0.19075301049E+01  0.30215442626E+02  0.00000000000E+00 0.  1.
</event>
<event>
 5    1  0.3183383E-003  0.9118800E+02  0.7818608E-02  0.1130116E+00
         25   -1    0    0    0    0  0.00000000000E+00  0.00000000000E+00  0.99999998245E-14  0.12500000000E+03  0.12500000000E+03 0.  0.
        -11    1    3    3    0    0 -0.16979173450E+01 -0.24036561132E+02  0.44163714226E+02  0.50309768921E+02  0.51100000000E-03 0.  1.
         23    2    1    0    0    0 -0.19856335743E+02 -0.20606491087E+02  0.20373578308E+01  0.96311110670E+02  0.91938988832E+02 0.  0.
         11    1    3    3    0    0 -0.18158418399E+02  0.34300700451E+01 -0.42126356396E+02  0.46001341749E+02  0.51100000000E-03 0. -1.
         22    1    1    0    0    0  0.19856335743E+02  0.20606491087E+02 -0.20373578308E+01  0.28688889330E+02  0.00000000000E+00 0.  1.
</event>
<event>
 5    1  0.3183383E-003  0.9118800E+02  0.7818608E-02  0.1130116E+00
         25   -1    0    0    0    0  0.00000000000E+00  0.00000000000E+00  0.99999998245E-14  0.12500000000E+03  0.12500000000E+03 0.  0.
        -11    1    3    3    0    0 -0.87486991286E+00  0.28178802672E+02  0.37844681202E+02  0.47191420968E+02  0.51100000000E-03 0. -1.
         23    2    1    0    0    0  0.21817923712E+02 -0.96617941702E+01  0.13236685842E+02  0.97712971694E+02  0.93825598444E+02 0.  0.
         11    1    3    3    0    0  0.22692793625E+02 -0.37840596842E+02 -0.24607995360E+02  0.50521550726E+02  0.51100000000E-03 0.  1.
         22    1    1    0    0    0 -0.21817923712E+02  0.96617941702E+01 -0.13236685842E+02  0.27287028306E+02  0.00000000000E+00 0. -1.
</event>
<event>
 5    1  0.3183383E-003  0.9118800E+02  0.7818608E-02  0.1130116E+00
         25   -1    0    0    0    0  0.00000000000E+00  0.00000000000E+00  0.99999998245E-14  0.12500000000E+03  0.12500000000E+03 0.  0.
        -11    1    3    3    0    0 -0.35395801315E+00 -0.49562408186E+02  0.23923079895E+01  0.49621373714E+02  0.51100000000E-03 0. -1.
         23    2    1    0    0    0  0.24026200334E+02 -0.14482467269E+02  0.13653059314E+02  0.93800541842E+02  0.88459795730E+02 0.  0.
         11    1    3    3    0    0  0.24380158347E+02  0.35079940918E+02  0.11260751325E+02  0.44179168128E+02  0.51100000000E-03 0.  1.
         22    1    1    0    0    0 -0.24026200334E+02  0.14482467269E+02 -0.13653059314E+02  0.31199458158E+02  0.00000000000E+00 0. -1.
</event>
<event>
 5    1  0.3183383E-003  0.9118800E+02  0.7818608E-02  0.1130116E+00
         25   -1    0    0    0    0  0.00000000000E+00  0.00000000000E+00  0.99999998245E-14  0.12500000000E+03  0.12500000000E+03 0.  0.
        -11    1    3    3    0    0  0.48296182283E+02  0.15642717413E+02 -0.33518960559E+02  0.60833679392E+02  0.51100000000E-03 0. -1.
         23    2    1    0    0    0  0.17673753210E+02  0.16234148682E+02 -0.16551213442E+02  0.95847782205E+02  0.91306875706E+02 0.  0.
         11    1    3    3    0    0 -0.30622429074E+02  0.59143126964E+00  0.16967747116E+02  0.35014102813E+02  0.51100000000E-03 0.  1.
         22    1    1    0    0    0 -0.17673753210E+02 -0.16234148682E+02  0.16551213442E+02  0.29152217795E+02  0.00000000000E+00 0. -1.
</event>
<event>
 5    1  0.3183383E-003  0.9118800E+02  0.7818608E-02  0.1130116E+00
         25   -1    0    0    0    0  0.00000000000E+00  0.00000000000E+00  0.99999998245E-14  0.12500000000E+03  0.12500000000E+03 0.  0.
        -11    1    3    3    0    0  0.15943105023E+02  0.25344426596E+02  0.15708188262E+02  0.33812271973E+02  0.51100000000E-03 0.  1.
         23    2    1    0    0    0 -0.38426664907E+01 -0.19876930123E+02 -0.21381694611E+02  0.95554536830E+02  0.90904533482E+02 0.  0.
         11    1    3    3    0    0 -0.19785771514E+02 -0.45221356719E+02 -0.37089882873E+02  0.61742264857E+02  0.51100000000E-03 0. -1.
         22    1    1    0    0    0  0.38426664907E+01  0.19876930123E+02  0.21381694611E+02  0.29445463170E+02  0.00000000000E+00 0. -1.
</event>
<event>
 5    1  0.3183383E-003  0.9118800E+02  0.7818608E-02  0.1130116E+00
         25   -1    0    0    0    0  0.00000000000E+00  0.00000000000E+00  0.99999998245E-14  0.12500000000E+03  0.12500000000E+03 0.  0.
        -11    1    3    3    0    0  0.39217293118E+02  0.21029220928E+02 -0.35106817620E+02  0.56680797948E+02  0.51100000000E-03 0.  1.
         23    2    1    0    0    0  0.15376988581E+02 -0.84084648301E+01 -0.22234552823E+02  0.96688705472E+02  0.92450940331E+02 0.  0.
         11    1    3    3    0    0 -0.23840304537E+02 -0.29437685758E+02  0.12872264797E+02  0.40007907524E+02  0.51100000000E-03 0. -1.
         22    1    1    0    0    0 -0.15376988581E+02  0.84084648301E+01  0.22234552823E+02  0.28311294528E+02  0.00000000000E+00 0.  1.
</event>
<event>
 5    1  0.3183383E-003  0.9118800E+02  0.7818608E-02  0.1130116E+00
         25   -1    0    0    0    0  0.00000000000E+00  0.00000000000E+00  0.99999998245E-14  0.12500000000E+03  0.12500000000E+03 0.  0.
        -11    1    3    3    0    0 -0.25262517186E+02 -0.68799818947E+01 -0.48397118918E+02  0.55025539936E+02  0.51100000000E-03 0. -1.
         23    2    1    0    0    0 -0.26828735642E+02  0.59596524734E+01 -0.96537288419E+01  0.95871096926E+02  0.91338788208E+02 0.  0.
         11    1    3    3    0    0 -0.15662184561E+01  0.12839634368E+02  0.38743390076E+02  0.40845556990E+02  0.51100000000E-03 0.  1.
         22    1    1    0    0    0  0.26828735642E+02 -0.59596524734E+01  0.96537288419E+01  0.29128903074E+02  0.00000000000E+00 0. -1.
</event>
<event>
 5    1  0.3183383E-003  0.9118800E+02  0.7818608E-02  0.1130116E+00
         25   -1    0    0    0    0  0.00000000000E+00  0.00000000000E+00  0.99999998245E-14  0.12500000000E+03  0.12500000000E+03 0.  0.
        -11    1    3    3    0    0  0.14710464131E+02  0.35951202845E+02 -0.14474052475E+02  0.41453406811E+02  0.51100000000E-03 0.  1.
         23    2    1    0    0    0 -0.13577651103E+02  0.19176298995E+02  0.23554114050E+02  0.91730203768E+02  0.85484214578E+02 0.  0.
         11    1    3    3    0    0 -0.28288115234E+02 -0.16774903850E+02  0.38028166526E+02  0.50276796957E+02  0.51100000000E-03 0. -1.
         22    1    1    0    0    0  0.13577651103E+02 -0.19176298995E+02 -0.23554114050E+02  0.33269796232E+02  0.00000000000E+00 0.  1.
</event>
<event>
 5    1  0.3183383E-003  0.9118800E+02  0.7818608E-02  0.1130116E+00
         25   -1    0    0    0    0  0.00000000000E+00  0.00000000000E+00  0.99999998245E-14  0.12500000000E+03  0.12500000000E+03 0.  0.
        -11    1    3    3    0    0  0.16590891273E+02  0.18260884294E+02 -0.21105843421E+02  0.32468048836E+02  0.51100000000E-03 0.  1.
         23    2    1    0    0    0 -0.28003916026E+01 -0.32484711343E+02 -0.19891812192E+02  0.86805984022E+02  0.77951882630E+02 0.  0.
         11    1    3    3    0    0 -0.19391282876E+02 -0.50745595638E+02  0.12140312284E+01  0.54337935186E+02  0.51100000000E-03 0. -1.
         22    1    1    0    0    0  0.28003916026E+01  0.32484711343E+02  0.19891812192E+02  0.38194015978E+02  0.00000000000E+00 0. -1.
</event>
<event>
 5    1  0.3183383E-003  0.9118800E+02  0.7818608E-02  0.1130116E+00
         25   -1    0    0    0    0  0.00000000000E+00  0.00000000000E+00  0.99999998245E-14  0.12500000000E+03  0.12500000000E+03 0.  0.
        -11    1    3    3    0    0 -0.37071692271E+02 -0.27717670273E+01 -0.34693360053E+02  0.50849014665E+02  0.51100000000E-03 0.  1.
         23    2    1    0    0    0 -0.39535627227E+02  0.80161103195E+01 -0.28510569256E+01  0.84559273368E+02  0.74261822911E+02 0.  0.
         11    1    3    3    0    0 -0.24639349558E+01  0.10787877347E+02  0.31842303128E+02  0.33710258704E+02  0.51100000000E-03 0. -1.
         22    1    1    0    0    0  0.39535627227E+02 -0.80161103195E+01  0.28510569256E+01  0.40440726632E+02  0.00000000000E+00 0.  1.
</event>
<event>
 5    1  0.3183383E-003  0.9118800E+02  0.7818608E-02  0.1130116E+00
         25   -1    0    0    0    0  0.00000000000E+00  0.00000000000E+00  0.99999998245E-14  0.12500000000E+03  0.12500000000E+03 0.  0.
        -11    1    3    3    0    0  0.19651473420E+02  0.31810673463E+02  0.10309707251E+02  0.38786459205E+02  0.51100000000E-03 0. -1.
         23    2    1    0    0    0  0.13277900280E+02 -0.23894918779E+02  0.12594406963E+02  0.94902012260E+02  0.90002794761E+02 0.  0.
         11    1    3    3    0    0 -0.63735731404E+01 -0.55705592242E+02  0.22846997116E+01  0.56115553055E+02  0.51100000000E-03 0.  1.
         22    1    1    0    0    0 -0.13277900280E+02  0.23894918779E+02 -0.12594406963E+02  0.30097987740E+02  0.00000000000E+00 0.  1.
</event>
<event>
 5    1  0.3183383E-003  0.9118800E+02  0.7818608E-02  0.1130116E+00
         25   -1    0    0    0    0  0.00000000000E+00  0.00000000000E+00  0.99999998245E-14  0.12500000000E+03  0.12500000000E+03 0.  0.
        -11    1    3    3    0    0 -0.31508065694E+02 -0.11834153606E+02 -0.49925064516E+02  0.60210609219E+02  0.51100000000E-03 0.  1.
         23    2    1    0    0    0 -0.22896365619E+02  0.21332488837E+01 -0.19199901255E+02  0.95042855317E+02  0.90198191940E+02 0.  0.
         11    1    3    3    0    0  0.86117000746E+01  0.13967402490E+02  0.30725163261E+02  0.34832246097E+02  0.51100000000E-03 0. -1.
         22    1    1    0    0    0  0.22896365619E+02 -0.21332488837E+01  0.19199901255E+02  0.29957144683E+02  0.00000000000E+00 0.  1.
</event>
<event>
 5    1  0.3183383E-003  0.9118800E+02  0.7818608E-02  0.1130116E+00
         25   -1    0    0    0    0  0.00000000000E+00  0.00000000000E+00  0.99999998245E-14  0.12500000000E+03  0.12500000000E+03 0.  0.
        -11    1    3    3    0    0  0.10415125020E+02 -0.46517893901E+02 -0.21367445487E+02  0.52239420068E+02  0.51100000000E-03 0. -1.
         23    2    1    0    0    0  0.26868789171E+02 -0.13621890640E+02  0.19429434813E+00  0.94874836326E+02  0.89965043664E+02 0.  0.
         11    1    3    3    0    0  0.16453664151E+02  0.32896003261E+02  0.21561739835E+02  0.42635416258E+02  0.51100000000E-03 0.  1.
         22    1    1    0    0    0 -0.26868789171E+02  0.13621890640E+02 -0.19429434813E+00  0.30125163674E+02  0.00000000000E+00 0. -1.
</event>
<event>
 5    1  0.3183383E-003  0.9118800E+02  0.7818608E-02  0.1130116E+00
         25   -1    0    0    0    0  0.00000000000E+00  0.00000000000E+00  0.99999998245E-14  0.12500000000E+03  0.12500000000E+03 0.  0.
        -11    1    3    3    0    0  0.28371488864E+02  0.98258436006E+01  0.20977932598E+02  0.36627342781E+02  0.51100000000E-03 0.  1.
         23    2    1    0    0    0 -0.27998210742E+02  0.75466563020E+01  0.29532945407E+01  0.95852551145E+02  0.91313404198E+02 0.  0.
         11    1    3    3    0    0 -0.56369699606E+02 -0.22791872986E+01 -0.18024638057E+02  0.59225208364E+02  0.51100000000E-03 0. -1.
         22    1    1    0    0    0  0.27998210742E+02 -0.75466563020E+01 -0.29532945407E+01  0.29147448855E+02  0.00000000000E+00 0. -1.
</event>
<event>
 5    1  0.3183383E-003  0.9118800E+02  0.7818608E-02  0.1130116E+00
         25   -1    0    0    0    0  0.00000000000E+00  0.00000000000E+00  0.99999998245E-14  0.12500000000E+03  0.12500000000E+03 0.  0.
        -11    1    3    3    0    0 -0.68176225985E+01 -0.29911119008E+02 -0.13027732913E+02  0.33329819131E+02  0.51100000000E-03 0.  1.
         23    2    1    0    0    0 -0.19387120361E+02  0.24945333743E+02  0.62044404002E+01  0.92803335699E+02  0.87039266568E+02 0.  0.
         11    1    3    3    0    0 -0.12569497762E+02  0.54856452751E+02  0.19232173313E+02  0.59473516568E+02  0.51100000000E-03 0. -1.
         22    1    1    0    0    0  0.19387120361E+02 -0.24945333743E+02 -0.62044404002E+01  0.32196664301E+02  0.00000000000E+00 0. -1.
</event>
<event>
 5    1  0.3183383E-003  0.9118800E+02  0.7818608E-02  0.1130116E+00
         25   -1    0    0    0    0  0.00000000000E+00  0.00000000000E+00  0.99999998245E-14  0.12500000000E+03  0.12500000000E+03 0.  0.
        -11    1    3    3    0    0  0.23631719546E+02  0.27684730689E+02 -0.16333741476E+02  0.39896034802E+02  0.51100000000E-03 0. -1.
         23    2    1    0    0    0  0.11602113099E+02 -0.25690786105E+02 -0.69152164134E+00  0.96802416394E+02  0.92604557655E+02 0.  0.
         11    1    3    3    0    0 -0.12029606447E+02 -0.53375516794E+02  0.15642219834E+02  0.56906381592E+02  0.51100000000E-03 0.  1.
         22    1    1    0    0    0 -0.11602113099E+02  0.25690786105E+02  0.69152164134E+00  0.28197583606E+02  0.00000000000E+00 0.  1.
</event>
<event>
 5    1  0.3183383E-003  0.9118800E+02  0.7818608E-02  0.1130116E+00
         25   -1    0    0    0    0  0.00000000000E+00  0.00000000000E+00  0.99999998245E-14  0.12500000000E+03  0.12500000000E+03 0.  0.
        -11    1    3    3    0    0  0.19213821454E+02 -0.27466893611E+02 -0.36230807702E+02  0.49358612283E+02  0.51100000000E-03 0. -1.
         23    2    1    0    0    0  0.86866963872E+00  0.13198047211E+02 -0.27027732043E+02  0.94909447720E+02  0.90013120877E+02 0.  0.
         11    1    3    3    0    0 -0.18345151815E+02  0.40664940822E+02  0.92030756584E+01  0.45550835437E+02  0.51100000000E-03 0.  1.
         22    1    1    0    0    0 -0.86866963872E+00 -0.13198047211E+02  0.27027732043E+02  0.30090552280E+02  0.00000000000E+00 0. -1.
</event>
<event>
 5    1  0.3183383E-003  0.9118800E+02  0.7818608E-02  0.1130116E+00
         25   -1    0    0    0    0  0.00000000000E+00  0.00000000000E+00  0.99999998245E-14  0.12500000000E+03  0.12500000000E+03 0.  0.
        -11    1    3    3    0    0  0.31967748655E+00 -0.50650196957E+02 -0.22314190432E+02  0.55348601973E+02  0.51100000000E-03 0. -1.
         23    2    1    0    0    0 -0.15569307423E+02 -0.23325188564E+02  0.42478177077E+01  0.96636084360E+02  0.92379765587E+02 0.  0.
         11    1    3    3    0    0 -0.15888984910E+02  0.27325008393E+02  0.26562008140E+02  0.41287482386E+02  0.51100000000E-03 0.  1.
         22    1    1    0    0    0  0.15569307423E+02  0.23325188564E+02 -0.42478177077E+01  0.28363915640E+02  0.00000000000E+00 0. -1.
</event>
<event>
 5    1  0.3183383E-003  0.9118800E+02  0.7818608E-02  0.1130116E+00
         25   -1    0    0    0    0  0.00000000000E+00  0.00000000000E+00  0.99999998245E-14  0.12500000000E+03  0.12500000000E+03 0.  0.
        -11    1    3    3    0    0 -0.15445143893E+02  0.23120552987E+01 -0.44699668425E+02  0.47349323408E+02  0.51100000000E-03 0.  1.
         23    2    1    0    0    0  0.65092411671E+01  0.27376091720E+02 -0.10865129853E+02  0.94835920946E+02  0.89910957266E+02 0.  0.
         11    1    3    3    0    0  0.21954385060E+02  0.25064036422E+02  0.33834538572E+02  0.47486597539E+02  0.51100000000E-03 0. -1.
         22    1    1    0    0    0 -0.65092411671E+01 -0.27376091720E+02  0.10865129853E+02  0.30164079054E+02  0.00000000000E+00 0.  1.
</event>
<event>
 5    1  0.3183383E-003  0.9118800E+02  0.7818608E-02  0.1130116E+00
         25   -1    0    0    0    0  0.00000000000E+00  0.00000000000E+00  0.99999998245E-14  0.12500000000E+03  0.12500000000E+03 0.  0.
        -11    1    3    3    0    0 -0.16195424667E+02  0.38234121863E+02  0.10416216315E+02  0.42809314610E+02  0.51100000000E-03 0.  1.
         23    2    1    0    0    0  0.26911342593E+02  0.65417855875E+01  0.70682889155E+01  0.96417207501E+02  0.92083124813E+02 0.  0.
         11    1    3    3    0    0  0.43106767259E+02 -0.31692336276E+02 -0.33479273994E+01  0.53607892892E+02  0.51100000000E-03 0. -1.
         22    1    1    0    0    0 -0.26911342593E+02 -0.65417855875E+01 -0.70682889155E+01  0.28582792499E+02  0.00000000000E+00 0. -1.
</event>
<event>
 5    1  0.3183383E-003  0.9118800E+02  0.7818608E-02  0.1130116E+00
         25   -1    0    0    0    0  0.00000000000E+00  0.00000000000E+00  0.99999998245E-14  0.12500000000E+03  0.12500000000E+03 0.  0.
        -11    1    3    3    0    0  0.93029644934E+01 -0.23562934587E+02 -0.39440675836E+02  0.46875622079E+02  0.51100000000E-03 0.  1.
         23    2    1    0    0    0 -0.26240436977E+02 -0.69961638368E+01 -0.94437047446E+01  0.96247775730E+02  0.91852838456E+02 0.  0.
         11    1    3    3    0    0 -0.35543401471E+02  0.16566770750E+02  0.29996971091E+02  0.49372153650E+02  0.51100000000E-03 0. -1.
         22    1    1    0    0    0  0.26240436977E+02  0.69961638368E+01  0.94437047446E+01  0.28752224270E+02  0.00000000000E+00 0.  1.
</event>
<event>
 5    1  0.3183383E-003  0.9118800E+02  0.7818608E-02  0.1130116E+00
         25   -1    0    0    0    0  0.00000000000E+00  0.00000000000E+00  0.99999998245E-14  0.12500000000E+03  0.12500000000E+03 0.  0.
        -11    1    3    3    0    0  0.40766482585E+02 -0.62258951398E+01 -0.39535362729E+02  0.57128913687E+02  0.51100000000E-03 0. -1.
         23    2    1    0    0    0  0.58245813880E+01  0.60095522302E+01 -0.27801608627E+02  0.95966055925E+02  0.91468650264E+02 0.  0.
         11    1    3    3    0    0 -0.34941901197E+02  0.12235447370E+02  0.11733754103E+02  0.38837142238E+02  0.51100000000E-03 0.  1.
         22    1    1    0    0    0 -0.58245813880E+01 -0.60095522302E+01  0.27801608627E+02  0.29033944075E+02  0.00000000000E+00 0. -1.
</event>
<event>
 5    1  0.3183383E-003  0.9118800E+02  0.7818608E-02  0.1130116E+00
         25   -1    0    0    0    0  0.00000000000E+00  0.00000000000E+00  0.99999998245E-14  0.12500000000E+03  0.12500000000E+03 0.  0.
        -11    1    3    3    0    0 -0.18492696085E+02 -0.45687924676E+02  0.35019363206E+02  0.60462567505E+02  0.51100000000E-03 0. -1.
         23    2    1    0    0    0 -0.11094122617E+02 -0.22353606475E+02  0.44073067469E+01  0.99658578733E+02  0.96382802840E+02 0.  0.
         11    1    3    3    0    0  0.73985734681E+01  0.23334318201E+02 -0.30612056459E+02  0.39196011228E+02  0.51100000000E-03 0.  1.
         22    1    1    0    0    0  0.11094122617E+02  0.22353606475E+02 -0.44073067469E+01  0.25341421267E+02  0.00000000000E+00 0. -1.
</event>
<event>
 5    1  0.3183383E-003  0.9118800E+02  0.7818608E-02  0.1130116E+00
         25   -1    0    0    0    0  0.00000000000E+00  0.00000000000E+00  0.99999998245E-14  0.12500000000E+03  0.12500000000E+03 0.  0.
        -11    1    3    3    0    0 -0.27003644242E+02 -0.36913361462E+02 -0.26286702916E+02  0.52752097657E+02  0.51100000000E-03 0. -1.
         23    2    1    0    0    0  0.14149801780E+01  0.52158259975E+01 -0.20383782369E+02  0.10391195615E+03  0.10174963901E+03 0.  0.
         11    1    3    3    0    0  0.28418624420E+02  0.42129187459E+02  0.59029205471E+01  0.51159858494E+02  0.51100000000E-03 0.  1.
         22    1    1    0    0    0 -0.14149801780E+01 -0.52158259975E+01  0.20383782369E+02  0.21088043849E+02  0.00000000000E+00 0.  1.
</event>
<event>
 5    1  0.3183383E-003  0.9118800E+02  0.7818608E-02  0.1130116E+00
         25   -1    0    0    0    0  0.00000000000E+00  0.00000000000E+00  0.99999998245E-14  0.12500000000E+03  0.12500000000E+03 0.  0.
        -11    1    3    3    0    0 -0.47579193296E+02  0.16172862027E+02  0.24618336896E+02  0.55958945778E+02  0.51100000000E-03 0.  1.
         23    2    1    0    0    0 -0.85945578617E+01  0.21186013001E+02  0.18183395984E+02  0.95787854217E+02  0.91224796816E+02 0.  0.
         11    1    3    3    0    0  0.38984635434E+02  0.50131509743E+01 -0.64349409121E+01  0.39828908439E+02  0.51100000000E-03 0. -1.
         22    1    1    0    0    0  0.85945578617E+01 -0.21186013001E+02 -0.18183395984E+02  0.29212145783E+02  0.00000000000E+00 0.  1.
</event>
<event>
 5    1  0.3183383E-003  0.9118800E+02  0.7818608E-02  0.1130116E+00
         25   -1    0    0    0    0  0.00000000000E+00  0.00000000000E+00  0.99999998245E-14  0.12500000000E+03  0.12500000000E+03 0.  0.
        -11    1    3    3    0    0 -0.10667747251E+02  0.22574167570E+02  0.44564245286E+02  0.51081952107E+02  0.51100000000E-03 0. -1.
         23    2    1    0    0    0  0.13043024353E+02 -0.86822466745E+01  0.26366702711E+02  0.94329087013E+02  0.89203541147E+02 0.  0.
         11    1    3    3    0    0  0.23710771604E+02 -0.31256414245E+02 -0.18197542575E+02  0.43247134906E+02  0.51100000000E-03 0.  1.
         22    1    1    0    0    0 -0.13043024353E+02  0.86822466745E+01 -0.26366702711E+02  0.30670912987E+02  0.00000000000E+00 0. -1.
</event>
<event>
 5    1  0.3183383E-003  0.9118800E+02  0.7818608E-02  0.1130116E+00
         25   -1    0    0    0    0  0.00000000000E+00  0.00000000000E+00  0.99999998245E-14  0.12500000000E+03  0.12500000000E+03 0.  0.
        -11    1    3    3    0    0  0.31587399548E+02  0.20474332080E+02  0.22297577797E+02  0.43750932107E+02  0.51100000000E-03 0.  1.
         23    2    1    0    0    0 -0.10929159788E+02  0.16367162067E+02  0.31886937274E+02  0.87528580271E+02  0.79102117972E+02 0.  0.
         11    1    3    3    0    0 -0.42516559336E+02 -0.41071700132E+01  0.95893594773E+01  0.43777648164E+02  0.51100000000E-03 0. -1.
         22    1    1    0    0    0  0.10929159788E+02 -0.16367162067E+02 -0.31886937274E+02  0.37471419729E+02  0.00000000000E+00 0. -1.
</event>
<event>
 5    1  0.3183383E-003  0.9118800E+02  0.7818608E-02  0.1130116E+00
         25   -1    0    0    0    0  0.00000000000E+00  0.00000000000E+00  0.99999998245E-14  0.12500000000E+03  0.12500000000E+03 0.  0.
        -11    1    3    3    0    0  0.41304569657E+01  0.51102519610E+02 -0.23784820003E+02  0.56517659613E+02  0.51100000000E-03 0. -1.
         23    2    1    0    0    0  0.13637630088E+02  0.16311353392E+02 -0.24460459484E+02  0.92590753139E+02  0.86733432336E+02 0.  0.
         11    1    3    3    0    0  0.95071731228E+01 -0.34791166218E+02 -0.67563948144E+00  0.36073093527E+02  0.51100000000E-03 0.  1.
         22    1    1    0    0    0 -0.13637630088E+02 -0.16311353392E+02  0.24460459484E+02  0.32409246861E+02  0.00000000000E+00 0. -1.
</event>
<event>
 5    1  0.3183383E-003  0.9118800E+02  0.7818608E-02  0.1130116E+00
         25   -1    0    0    0    0  0.00000000000E+00  0.00000000000E+00  0.99999998245E-14  0.12500000000E+03  0.12500000000E+03 0.  0.
        -11    1    3    3    0    0  0.47303185978E+01  0.37201481176E+01  0.28480236578E+02  0.29109092941E+02  0.51100000000E-03 0.  1.
         23    2    1    0    0    0  0.45976219849E+01 -0.24617463375E+02 -0.24987994402E+02  0.89622641489E+02  0.82344765300E+02 0.  0.
         11    1    3    3    0    0 -0.13269661299E+00 -0.28337611493E+02 -0.53468230980E+02  0.60513548548E+02  0.51100000000E-03 0. -1.
         22    1    1    0    0    0 -0.45976219849E+01  0.24617463375E+02  0.24987994402E+02  0.35377358511E+02  0.00000000000E+00 0. -1.
</event>
<event>
 5    1  0.3183383E-003  0.9118800E+02  0.7818608E-02  0.1130116E+00
         25   -1    0    0    0    0  0.00000000000E+00  0.00000000000E+00  0.99999998245E-14  0.12500000000E+03  0.12500000000E+03 0.  0.
        -11    1    3    3    0    0  0.22331057634E+02  0.27552885346E+02 -0.87412262349E+01  0.36527341298E+02  0.51100000000E-03 0.  1.
         23    2    1    0    0    0 -0.25746199343E+02 -0.55589205505E+01  0.83745246918E+01  0.97361240221E+02  0.93355824967E+02 0.  0.
         11    1    3    3    0    0 -0.48077256977E+02 -0.33111805896E+02  0.17115750927E+02  0.60833898923E+02  0.51100000000E-03 0. -1.
         22    1    1    0    0    0  0.25746199343E+02  0.55589205505E+01 -0.83745246918E+01  0.27638759779E+02  0.00000000000E+00 0. -1.
</event>
<event>
 5    1  0.3183383E-003  0.9118800E+02  0.7818608E-02  0.1130116E+00
         25   -1    0    0    0    0  0.00000000000E+00  0.00000000000E+00  0.99999998245E-14  0.12500000000E+03  0.12500000000E+03 0.  0.
        -11    1    3    3    0    0 -0.42887402751E+02  0.79431461697E+01 -0.20556112465E+02  0.48218011632E+02  0.51100000000E-03 0.  1.
         23    2    1    0    0    0 -0.72098731117E+01 -0.23272069062E+02 -0.16023577038E+02  0.95839641809E+02  0.91295730746E+02 0.  0.
         11    1    3    3    0    0  0.35677529639E+02 -0.31215215232E+02  0.45325354275E+01  0.47621630178E+02  0.51100000000E-03 0. -1.
         22    1    1    0    0    0  0.72098731117E+01  0.23272069062E+02  0.16023577038E+02  0.29160358191E+02  0.00000000000E+00 0. -1.
</event>
<event>
 5    1  0.3183383E-003  0.9118800E+02  0.7818608E-02  0.1130116E+00
         25   -1    0    0    0    0  0.00000000000E+00  0.00000000000E+00  0.99999998245E-14  0.12500000000E+03  0.12500000000E+03 0.  0.
        -11    1    3    3    0    0  0.16419107831E+02 -0.36758108550E+01 -0.55351407423E+02  0.57852199538E+02  0.51100000000E-03 0. -1.
         23    2    1    0    0    0  0.10589419891E+02  0.15021193658E+02 -0.28526994475E+02  0.91065335034E+02  0.84506412529E+02 0.  0.
         11    1    3    3    0    0 -0.58296879407E+01  0.18697004513E+02  0.26824412948E+02  0.33213135496E+02  0.51100000000E-03 0.  1.
         22    1    1    0    0    0 -0.10589419891E+02 -0.15021193658E+02  0.28526994475E+02  0.33934664966E+02  0.00000000000E+00 0. -1.
</event>
<event>
 5    1  0.3183383E-003  0.9118800E+02  0.7818608E-02  0.1130116E+00
         25   -1    0    0    0    0  0.00000000000E+00  0.00000000000E+00  0.99999998245E-14  0.12500000000E+03  0.12500000000E+03 0.  0.
        -11    1    3    3    0    0 -0.44893277384E+02  0.20957532233E+02 -0.17364283113E+02  0.52498979417E+02  0.51100000000E-03 0. -1.
         23    2    1    0    0    0 -0.25986666496E+02 -0.64580928380E+01  0.10812308320E+02  0.96122330255E+02  0.91681964223E+02 0.  0.
         11    1    3    3    0    0  0.18906610888E+02 -0.27415625071E+02  0.28176591433E+02  0.43623350838E+02  0.51100000000E-03 0.  1.
         22    1    1    0    0    0  0.25986666496E+02  0.64580928380E+01 -0.10812308320E+02  0.28877669745E+02  0.00000000000E+00 0. -1.
</event>
<event>
 5    1  0.3183383E-003  0.9118800E+02  0.7818608E-02  0.1130116E+00
         25   -1    0    0    0    0  0.00000000000E+00  0.00000000000E+00  0.99999998245E-14  0.12500000000E+03  0.12500000000E+03 0.  0.
        -11    1    3    3    0    0 -0.40158493794E+02  0.32911396473E+01 -0.13144138386E+02  0.42382833767E+02  0.51100000000E-03 0.  1.
         23    2    1    0    0    0 -0.19052342586E+01  0.13801224006E+02  0.24335599831E+02  0.96958510725E+02  0.92815018619E+02 0.  0.
         11    1    3    3    0    0  0.38253259535E+02  0.10510084359E+02  0.37479738216E+02  0.54575676957E+02  0.51100000000E-03 0. -1.
         22    1    1    0    0    0  0.19052342586E+01 -0.13801224006E+02 -0.24335599831E+02  0.28041489275E+02  0.00000000000E+00 0. -1.
</event>
<event>
 5    1  0.3183383E-003  0.9118800E+02  0.7818608E-02  0.1130116E+00
         25   -1    0    0    0    0  0.00000000000E+00  0.00000000000E+00  0.99999998245E-14  0.12500000000E+03  0.12500000000E+03 0.  0.
        -11    1    3    3    0    0  0.14877339543E+01  0.48749623852E+02 -0.17239876343E+02  0.51729609650E+02  0.51100000000E-03 0. -1.
         23    2    1    0    0    0 -0.24548622190E+02  0.16815284612E+02 -0.10295013598E+02  0.93513876818E+02  0.88053785862E+02 0.  0.
         11    1    3    3    0    0 -0.26036356145E+02 -0.31934339240E+02  0.69448627442E+01  0.41784267168E+02  0.51100000000E-03 0.  1.
         22    1    1    0    0    0  0.24548622190E+02 -0.16815284612E+02  0.10295013598E+02  0.31486123182E+02  0.00000000000E+00 0.  1.
</event>
<event>
 5    1  0.3183383E-003  0.9118800E+02  0.7818608E-02  0.1130116E+00
         25   -1    0    0    0    0  0.00000000000E+00  0.00000000000E+00  0.99999998245E-14  0.12500000000E+03  0.12500000000E+03 0.  0.
        -11    1    3    3    0    0  0.11259800529E+02  0.60246137086E+02  0.69727255311E+01  0.61684674299E+02  0.51100000000E-03 0. -1.
         23    2    1    0    0    0  0.12869049402E+01  0.29984740111E+02 -0.23857418662E+01  0.94892982079E+02  0.89990252359E+02 0.  0.
         11    1    3    3    0    0 -0.99728955887E+01 -0.30261396975E+02 -0.93584673973E+01  0.33208307780E+02  0.51100000000E-03 0.  1.
         22    1    1    0    0    0 -0.12869049402E+01 -0.29984740111E+02  0.23857418662E+01  0.30107017921E+02  0.00000000000E+00 0. -1.
</event>
<event>
 5    1  0.3183383E-003  0.9118800E+02  0.7818608E-02  0.1130116E+00
         25   -1    0    0    0    0  0.00000000000E+00  0.00000000000E+00  0.99999998245E-14  0.12500000000E+03  0.12500000000E+03 0.  0.
        -11    1    3    3    0    0  0.30448368174E+02 -0.59880699203E+01  0.36779154447E+02  0.48121370594E+02  0.51100000000E-03 0.  1.
         23    2    1    0    0    0  0.47991348546E+01 -0.28422603225E+02  0.31397285348E+01  0.96004587178E+02  0.91521291482E+02 0.  0.
         11    1    3    3    0    0 -0.25649233319E+02 -0.22434533305E+02 -0.33639425912E+02  0.47883216584E+02  0.51100000000E-03 0. -1.
         22    1    1    0    0    0 -0.47991348546E+01  0.28422603225E+02 -0.31397285348E+01  0.28995412822E+02  0.00000000000E+00 0.  1.
</event>
<event>
 5    1  0.3183383E-003  0.9118800E+02  0.7818608E-02  0.1130116E+00
         25   -1    0    0    0    0  0.00000000000E+00  0.00000000000E+00  0.99999998245E-14  0.12500000000E+03  0.12500000000E+03 0.  0.
        -11    1    3    3    0    0  0.83076970313E+01 -0.34587555218E+02  0.74727495878E+01  0.36347748108E+02  0.51100000000E-03 0. -1.
         23    2    1    0    0    0 -0.11893116495E+02 -0.16486843340E+02 -0.33694869955E+02  0.85647662273E+02  0.76071779053E+02 0.  0.
         11    1    3    3    0    0 -0.20200813526E+02  0.18100711878E+02 -0.41167619543E+02  0.49299914165E+02  0.51100000000E-03 0.  1.
         22    1    1    0    0    0  0.11893116495E+02  0.16486843340E+02  0.33694869955E+02  0.39352337727E+02  0.00000000000E+00 0.  1.
</event>
<event>
 5    1  0.3183383E-003  0.9118800E+02  0.7818608E-02  0.1130116E+00
         25   -1    0    0    0    0  0.00000000000E+00  0.00000000000E+00  0.99999998245E-14  0.12500000000E+03  0.12500000000E+03 0.  0.
        -11    1    3    3    0    0 -0.32200786830E+02 -0.28134608583E+02 -0.18762909037E+02  0.46695756000E+02  0.51100000000E-03 0. -1.
         23    2    1    0    0    0  0.16161765551E+02 -0.21775338246E+02 -0.45483439243E+01  0.97503537429E+02  0.93546161638E+02 0.  0.
         11    1    3    3    0    0  0.48362552382E+02  0.63592703367E+01  0.14214565113E+02  0.50807781429E+02  0.51100000000E-03 0.  1.
         22    1    1    0    0    0 -0.16161765551E+02  0.21775338246E+02  0.45483439243E+01  0.27496462571E+02  0.00000000000E+00 0.  1.
</event>
<event>
 5    1  0.3183383E-003  0.9118800E+02  0.7818608E-02  0.1130116E+00
         25   -1    0    0    0    0  0.00000000000E+00  0.00000000000E+00  0.99999998245E-14  0.12500000000E+03  0.12500000000E+03 0.  0.
        -11    1    3    3    0    0  0.22533184149E+02 -0.13488705272E+02 -0.27390002172E+02  0.37946037699E+02  0.51100000000E-03 0. -1.
         23    2    1    0    0    0 -0.20018282373E+02  0.20130546594E+02 -0.10154540369E+02  0.94848959795E+02  0.89929082886E+02 0.  0.
         11    1    3    3    0    0 -0.42551466522E+02  0.33619251867E+02  0.17235461802E+02  0.56902922096E+02  0.51100000000E-03 0.  1.
         22    1    1    0    0    0  0.20018282373E+02 -0.20130546594E+02  0.10154540369E+02  0.30151040205E+02  0.00000000000E+00 0.  1.
</event>
<event>
 5    1  0.3183383E-003  0.9118800E+02  0.7818608E-02  0.1130116E+00
         25   -1    0    0    0    0  0.00000000000E+00  0.00000000000E+00  0.99999998245E-14  0.12500000000E+03  0.12500000000E+03 0.  0.
        -11    1    3    3    0    0 -0.29046366907E+02 -0.18635710390E+02 -0.16524330896E+02  0.38262705655E+02  0.51100000000E-03 0.  1.
         23    2    1    0    0    0  0.18264975119E+02 -0.14262667103E+02  0.16868738169E+02  0.96336655527E+02  0.91973712993E+02 0.  0.
         11    1    3    3    0    0  0.47311342026E+02  0.43730432875E+01  0.33393069064E+02  0.58073949872E+02  0.51100000000E-03 0. -1.
         22    1    1    0    0    0 -0.18264975119E+02  0.14262667103E+02 -0.16868738169E+02  0.28663344473E+02  0.00000000000E+00 0. -1.
</event>
<event>
 5    1  0.3183383E-003  0.9118800E+02  0.7818608E-02  0.1130116E+00
         25   -1    0    0    0    0  0.00000000000E+00  0.00000000000E+00  0.99999998245E-14  0.12500000000E+03  0.12500000000E+03 0.  0.
        -11    1    3    3    0    0  0.34925735731E+02 -0.64444017073E+01 -0.52887944668E+01  0.35906944689E+02  0.51100000000E-03 0. -1.
         23    2    1    0    0    0 -0.26102170880E+02 -0.96284808656E+01 -0.12822754060E+01  0.97149053901E+02  0.93071281688E+02 0.  0.
         11    1    3    3    0    0 -0.61027906611E+02 -0.31840791584E+01  0.40065190608E+01  0.61242109211E+02  0.51100000000E-03 0.  1.
         22    1    1    0    0    0  0.26102170880E+02  0.96284808656E+01  0.12822754060E+01  0.27850946099E+02  0.00000000000E+00 0.  1.
</event>
<event>
 5    1  0.3183383E-003  0.9118800E+02  0.7818608E-02  0.1130116E+00
         25   -1    0    0    0    0  0.00000000000E+00  0.00000000000E+00  0.99999998245E-14  0.12500000000E+03  0.12500000000E+03 0.  0.
        -11    1    3    3    0    0 -0.36853464425E+02 -0.82451074884E+01 -0.80388907010E+01  0.38610664350E+02  0.51100000000E-03 0.  1.
         23    2    1    0    0    0  0.20021554071E+02 -0.12428419162E+02  0.11348074253E+02  0.98844560421E+02  0.95321246872E+02 0.  0.
         11    1    3    3    0    0  0.56875018496E+02 -0.41833116737E+01  0.19386964954E+02  0.60233896071E+02  0.51100000000E-03 0. -1.
         22    1    1    0    0    0 -0.20021554071E+02  0.12428419162E+02 -0.11348074253E+02  0.26155439579E+02  0.00000000000E+00 0. -1.
</event>
<event>
 5    1  0.3183383E-003  0.9118800E+02  0.7818608E-02  0.1130116E+00
         25   -1    0    0    0    0  0.00000000000E+00  0.00000000000E+00  0.99999998245E-14  0.12500000000E+03  0.12500000000E+03 0.  0.
        -11    1    3    3    0    0 -0.49529335023E+01 -0.30497003454E+02 -0.10768736388E+02  0.32719481255E+02  0.51100000000E-03 0.  1.
         23    2    1    0    0    0 -0.12375946805E+01  0.29998296343E+02  0.28539902695E+01  0.94840844101E+02  0.89917801493E+02 0.  0.
         11    1    3    3    0    0  0.37153388218E+01  0.60495299797E+02  0.13622726658E+02  0.62121362846E+02  0.51100000000E-03 0. -1.
         22    1    1    0    0    0  0.12375946805E+01 -0.29998296343E+02 -0.28539902695E+01  0.30159155899E+02  0.00000000000E+00 0. -1.
</event>
<event>
 5    1  0.3183383E-003  0.9118800E+02  0.7818608E-02  0.1130116E+00
         25   -1    0    0    0    0  0.00000000000E+00  0.00000000000E+00  0.99999998245E-14  0.12500000000E+03  0.12500000000E+03 0.  0.
        -11    1    3    3    0    0 -0.25977590273E+02  0.28482284035E+02  0.13792341715E+02  0.40942696424E+02  0.51100000000E-03 0.  1.
         23    2    1    0    0    0  0.23609632970E+02  0.95753713434E+01 -0.79760349271E+01  0.98303190481E+02  0.94608655102E+02 0.  0.
         11    1    3    3    0    0  0.49587223243E+02 -0.18906912692E+02 -0.21768376642E+02  0.57360494056E+02  0.51100000000E-03 0. -1.
         22    1    1    0    0    0 -0.23609632970E+02 -0.95753713434E+01  0.79760349271E+01  0.26696809519E+02  0.00000000000E+00 0. -1.
</event>
<event>
 5    1  0.3183383E-003  0.9118800E+02  0.7818608E-02  0.1130116E+00
         25   -1    0    0    0    0  0.00000000000E+00  0.00000000000E+00  0.99999998245E-14  0.12500000000E+03  0.12500000000E+03 0.  0.
        -11    1    3    3    0    0 -0.19257326386E+02  0.23813145497E+02  0.17561829570E+02  0.35303376270E+02  0.51100000000E-03 0.  1.
         23    2    1    0    0    0 -0.38621063154E+01 -0.25436600480E+02 -0.13918740954E+02  0.95748199048E+02  0.91170443467E+02 0.  0.
         11    1    3    3    0    0  0.15395220070E+02 -0.49249745977E+02 -0.31480570524E+02  0.60444822778E+02  0.51100000000E-03 0. -1.
         22    1    1    0    0    0  0.38621063154E+01  0.25436600480E+02  0.13918740954E+02  0.29251800952E+02  0.00000000000E+00 0. -1.
</event>
<event>
 5    1  0.3183383E-003  0.9118800E+02  0.7818608E-02  0.1130116E+00
         25   -1    0    0    0    0  0.00000000000E+00  0.00000000000E+00  0.99999998245E-14  0.12500000000E+03  0.12500000000E+03 0.  0.
        -11    1    3    3    0    0 -0.24536830924E+02  0.11816020947E+02 -0.52780400466E+02  0.59392298293E+02  0.51100000000E-03 0.  1.
         23    2    1    0    0    0 -0.15554404939E+02 -0.76509417707E+01 -0.26888396656E+02  0.93008402701E+02  0.87333273587E+02 0.  0.
         11    1    3    3    0    0  0.89824259850E+01 -0.19466962718E+02  0.25892003811E+02  0.33616104409E+02  0.51100000000E-03 0. -1.
         22    1    1    0    0    0  0.15554404939E+02  0.76509417707E+01  0.26888396656E+02  0.31991597299E+02  0.00000000000E+00 0.  1.
</event>
<event>
 5    1  0.3183383E-003  0.9118800E+02  0.7818608E-02  0.1130116E+00
         25   -1    0    0    0    0  0.00000000000E+00  0.00000000000E+00  0.99999998245E-14  0.12500000000E+03  0.12500000000E+03 0.  0.
        -11    1    3    3    0    0  0.24184314474E+02  0.42744723578E+01  0.43783116084E+02  0.50200731417E+02  0.51100000000E-03 0.  1.
         23    2    1    0    0    0  0.22651063671E+02 -0.16613691530E+02  0.21231979436E+01  0.96829210143E+02  0.92640717483E+02 0.  0.
         11    1    3    3    0    0 -0.15332508031E+01 -0.20888163888E+02 -0.41659918140E+02  0.46628478726E+02  0.51100000000E-03 0. -1.
         22    1    1    0    0    0 -0.22651063671E+02  0.16613691530E+02 -0.21231979436E+01  0.28170789857E+02  0.00000000000E+00 0.  1.
</event>
<event>
 5    1  0.3183383E-003  0.9118800E+02  0.7818608E-02  0.1130116E+00
         25   -1    0    0    0    0  0.00000000000E+00  0.00000000000E+00  0.99999998245E-14  0.12500000000E+03  0.12500000000E+03 0.  0.
        -11    1    3    3    0    0  0.29677323248E+02  0.10748036684E+02  0.17328782149E+02  0.36007645004E+02  0.51100000000E-03 0. -1.
         23    2    1    0    0    0 -0.23747629502E+02  0.17411426898E+02  0.19144383748E+02  0.89877142448E+02  0.82730197703E+02 0.  0.
         11    1    3    3    0    0 -0.53424952749E+02  0.66633902136E+01  0.18156015982E+01  0.53869497444E+02  0.51100000000E-03 0.  1.
         22    1    1    0    0    0  0.23747629502E+02 -0.17411426898E+02 -0.19144383748E+02  0.35122857552E+02  0.00000000000E+00 0.  1.
</event>
<event>
 5    1  0.3183383E-003  0.9118800E+02  0.7818608E-02  0.1130116E+00
         25   -1    0    0    0    0  0.00000000000E+00  0.00000000000E+00  0.99999998245E-14  0.12500000000E+03  0.12500000000E+03 0.  0.
        -11    1    3    3    0    0 -0.28288560115E+02  0.27545101209E+01  0.20997716478E+02  0.35337431386E+02  0.51100000000E-03 0.  1.
         23    2    1    0    0    0  0.67908014301E+01 -0.81798913285E+01 -0.27114406028E+02  0.95875841291E+02  0.91345280791E+02 0.  0.
         11    1    3    3    0    0  0.35079361546E+02 -0.10934401449E+02 -0.48112122507E+02  0.60538409905E+02  0.51100000000E-03 0. -1.
         22    1    1    0    0    0 -0.67908014301E+01  0.81798913285E+01  0.27114406028E+02  0.29124158709E+02  0.00000000000E+00 0. -1.
</event>
<event>
 5    1  0.3183383E-003  0.9118800E+02  0.7818608E-02  0.1130116E+00
         25   -1    0    0    0    0  0.00000000000E+00  0.00000000000E+00  0.99999998245E-14  0.12500000000E+03  0.12500000000E+03 0.  0.
        -11    1    3    3    0    0  0.18758984689E+02 -0.57544782172E+02  0.54802251636E+01  0.60772809133E+02  0.51100000000E-03 0.  1.
         23    2    1    0    0    0  0.83373741567E+01 -0.30501585466E+02  0.13152826883E+02  0.90753023801E+02  0.84043179082E+02 0.  0.
         11    1    3    3    0    0 -0.10421610532E+02  0.27043196706E+02  0.76726017191E+01  0.29980214668E+02  0.51100000000E-03 0. -1.
         22    1    1    0    0    0 -0.83373741567E+01  0.30501585466E+02 -0.13152826883E+02  0.34246976199E+02  0.00000000000E+00 0.  1.
</event>
<event>
 5    1  0.3183383E-003  0.9118800E+02  0.7818608E-02  0.1130116E+00
         25   -1    0    0    0    0  0.00000000000E+00  0.00000000000E+00  0.99999998245E-14  0.12500000000E+03  0.12500000000E+03 0.  0.
        -11    1    3    3    0    0  0.36023054951E+02 -0.84584047314E+01 -0.16534821937E+02  0.40529069016E+02  0.51100000000E-03 0. -1.
         23    2    1    0    0    0 -0.84752432193E+00  0.28828175719E+02 -0.13772558610E+02  0.93039627921E+02  0.87377954773E+02 0.  0.
         11    1    3    3    0    0 -0.36870579273E+02  0.37286580450E+02  0.27622633268E+01  0.52510558905E+02  0.51100000000E-03 0.  1.
         22    1    1    0    0    0  0.84752432193E+00 -0.28828175719E+02  0.13772558610E+02  0.31960372079E+02  0.00000000000E+00 0.  1.
</event>
<event>
 5    1  0.3183383E-003  0.9118800E+02  0.7818608E-02  0.1130116E+00
         25   -1    0    0    0    0  0.00000000000E+00  0.00000000000E+00  0.99999998245E-14  0.12500000000E+03  0.12500000000E+03 0.  0.
        -11    1    3    3    0    0  0.37460009429E+02  0.47606299783E+01  0.26654407428E+02  0.46220918855E+02  0.51100000000E-03 0. -1.
         23    2    1    0    0    0  0.12057898228E+02  0.23780109446E+02 -0.11599421262E+02  0.95923667898E+02  0.91410704923E+02 0.  0.
         11    1    3    3    0    0 -0.25402111201E+02  0.19019479467E+02 -0.38253828690E+02  0.49702749043E+02  0.51100000000E-03 0.  1.
         22    1    1    0    0    0 -0.12057898228E+02 -0.23780109446E+02  0.11599421262E+02  0.29076332102E+02  0.00000000000E+00 0.  1.
</event>
<event>
 5    1  0.3183383E-003  0.9118800E+02  0.7818608E-02  0.1130116E+00
         25   -1    0    0    0    0  0.00000000000E+00  0.00000000000E+00  0.99999998245E-14  0.12500000000E+03  0.12500000000E+03 0.  0.
        -11    1    3    3    0    0  0.18507631849E+02 -0.57549346800E+02  0.11294901985E+01  0.60462678589E+02  0.51100000000E-03 0. -1.
         23    2    1    0    0    0  0.18469897316E+02 -0.23121913807E+02 -0.35019926185E+01  0.95200269175E+02  0.90416078735E+02 0.  0.
         11    1    3    3    0    0 -0.37734533104E-01  0.34427432993E+02 -0.46314828170E+01  0.34737590586E+02  0.51100000000E-03 0.  1.
         22    1    1    0    0    0 -0.18469897316E+02  0.23121913807E+02  0.35019926185E+01  0.29799730825E+02  0.00000000000E+00 0. -1.
</event>
<event>
 5    1  0.3183383E-003  0.9118800E+02  0.7818608E-02  0.1130116E+00
         25   -1    0    0    0    0  0.00000000000E+00  0.00000000000E+00  0.99999998245E-14  0.12500000000E+03  0.12500000000E+03 0.  0.
        -11    1    3    3    0    0  0.54582086151E+01 -0.45399579053E+01  0.61594186491E+02  0.62001992459E+02  0.51100000000E-03 0.  1.
         23    2    1    0    0    0  0.75435990805E+01  0.32477676814E+00  0.28499963632E+02  0.95516796407E+02  0.90852622977E+02 0.  0.
         11    1    3    3    0    0  0.20853904654E+01  0.48647346734E+01 -0.33094222859E+02  0.33514803949E+02  0.51100000000E-03 0. -1.
         22    1    1    0    0    0 -0.75435990805E+01 -0.32477676814E+00 -0.28499963632E+02  0.29483203593E+02  0.00000000000E+00 0.  1.
</event>
<event>
 5    1  0.3183383E-003  0.9118800E+02  0.7818608E-02  0.1130116E+00
         25   -1    0    0    0    0  0.00000000000E+00  0.00000000000E+00  0.99999998245E-14  0.12500000000E+03  0.12500000000E+03 0.  0.
        -11    1    3    3    0    0 -0.36830935738E+02  0.21512670513E+02  0.18878469227E+02  0.46644500432E+02  0.51100000000E-03 0. -1.
         23    2    1    0    0    0 -0.10197240623E+02 -0.17558940463E+02 -0.10324120667E+02  0.10222089611E+03  0.99650509418E+02 0.  0.
         11    1    3    3    0    0  0.26633695115E+02 -0.39071610976E+02 -0.29202589894E+02  0.55576395677E+02  0.51100000000E-03 0.  1.
         22    1    1    0    0    0  0.10197240623E+02  0.17558940463E+02  0.10324120667E+02  0.22779103891E+02  0.00000000000E+00 0. -1.
</event>
<event>
 5    1  0.3183383E-003  0.9118800E+02  0.7818608E-02  0.1130116E+00
         25   -1    0    0    0    0  0.00000000000E+00  0.00000000000E+00  0.99999998245E-14  0.12500000000E+03  0.12500000000E+03 0.  0.
        -11    1    3    3    0    0 -0.24328858611E+02  0.44819367583E+02 -0.17209489527E+02  0.53822259353E+02  0.51100000000E-03 0.  1.
         23    2    1    0    0    0 -0.50565647903E+01  0.25288493287E+02  0.14225232001E+02  0.95547768069E+02  0.90895225492E+02 0.  0.
         11    1    3    3    0    0  0.19272293821E+02 -0.19530874295E+02  0.31434721527E+02  0.41725508716E+02  0.51100000000E-03 0. -1.
         22    1    1    0    0    0  0.50565647903E+01 -0.25288493287E+02 -0.14225232001E+02  0.29452231931E+02  0.00000000000E+00 0.  1.
</event>
<event>
 5    1  0.3183383E-003  0.9118800E+02  0.7818608E-02  0.1130116E+00
         25   -1    0    0    0    0  0.00000000000E+00  0.00000000000E+00  0.99999998245E-14  0.12500000000E+03  0.12500000000E+03 0.  0.
        -11    1    3    3    0    0 -0.22803098800E+02 -0.24528202384E+02  0.16276509769E-01  0.33490510481E+02  0.51100000000E-03 0.  1.
         23    2    1    0    0    0  0.88633024396E+01  0.27166845645E+02 -0.95642447830E+01  0.94865793345E+02  0.89952478211E+02 0.  0.
         11    1    3    3    0    0  0.31666401240E+02  0.51695048029E+02 -0.95805212928E+01  0.61375282865E+02  0.51100000000E-03 0. -1.
         22    1    1    0    0    0 -0.88633024396E+01 -0.27166845645E+02  0.95642447830E+01  0.30134206655E+02  0.00000000000E+00 0. -1.
</event>
<event>
 5    1  0.3183383E-003  0.9118800E+02  0.7818608E-02  0.1130116E+00
         25   -1    0    0    0    0  0.00000000000E+00  0.00000000000E+00  0.99999998245E-14  0.12500000000E+03  0.12500000000E+03 0.  0.
        -11    1    3    3    0    0  0.16267603222E+02  0.14461235655E+02 -0.42347843509E+02  0.47614095616E+02  0.51100000000E-03 0.  1.
         23    2    1    0    0    0 -0.10596039921E+02 -0.18550252166E+02 -0.20227472266E+02  0.95579963431E+02  0.90939490090E+02 0.  0.
         11    1    3    3    0    0 -0.26863643143E+02 -0.33011487821E+02  0.22120371242E+02  0.47965867815E+02  0.51100000000E-03 0. -1.
         22    1    1    0    0    0  0.10596039921E+02  0.18550252166E+02  0.20227472266E+02  0.29420036569E+02  0.00000000000E+00 0. -1.
</event>
<event>
 5    1  0.3183383E-003  0.9118800E+02  0.7818608E-02  0.1130116E+00
         25   -1    0    0    0    0  0.00000000000E+00  0.00000000000E+00  0.99999998245E-14  0.12500000000E+03  0.12500000000E+03 0.  0.
        -11    1    3    3    0    0 -0.17880926314E+02  0.44599238523E+02 -0.17230154470E+02  0.51046036340E+02  0.51100000000E-03 0.  1.
         23    2    1    0    0    0 -0.23058130621E+02  0.10624078264E+02  0.12693960723E+02  0.96615407955E+02  0.92351783897E+02 0.  0.
         11    1    3    3    0    0 -0.51772043073E+01 -0.33975160259E+02  0.29924115193E+02  0.45569371616E+02  0.51100000000E-03 0. -1.
         22    1    1    0    0    0  0.23058130621E+02 -0.10624078264E+02 -0.12693960723E+02  0.28384592045E+02  0.00000000000E+00 0.  1.
</event>
<event>
 5    1  0.3183383E-003  0.9118800E+02  0.7818608E-02  0.1130116E+00
         25   -1    0    0    0    0  0.00000000000E+00  0.00000000000E+00  0.99999998245E-14  0.12500000000E+03  0.12500000000E+03 0.  0.
        -11    1    3    3    0    0 -0.55512460124E+02  0.19505088504E+02  0.10466999302E+02  0.59763197548E+02  0.51100000000E-03 0. -1.
         23    2    1    0    0    0 -0.19266444026E+02  0.14652487120E+02  0.14862841487E+02  0.96595857674E+02  0.92325318405E+02 0.  0.
         11    1    3    3    0    0  0.36246016098E+02 -0.48526013840E+01  0.43958421848E+01  0.36832660126E+02  0.51100000000E-03 0.  1.
         22    1    1    0    0    0  0.19266444026E+02 -0.14652487120E+02 -0.14862841487E+02  0.28404142326E+02  0.00000000000E+00 0. -1.
</event>
<event>
 5    1  0.3183383E-003  0.9118800E+02  0.7818608E-02  0.1130116E+00
         25   -1    0    0    0    0  0.00000000000E+00  0.00000000000E+00  0.99999998245E-14  0.12500000000E+03  0.12500000000E+03 0.  0.
        -11    1    3    3    0    0  0.35168843483E+02  0.72132256902E+01  0.28124520990E+02  0.45605557315E+02  0.51100000000E-03 0. -1.
         23    2    1    0    0    0 -0.15571463304E+02  0.93469122390E+01  0.21555150342E+02  0.96813837720E+02  0.92619973170E+02 0.  0.
         11    1    3    3    0    0 -0.50740306787E+02  0.21336865488E+01 -0.65693706484E+01  0.51208280405E+02  0.51100000000E-03 0.  1.
         22    1    1    0    0    0  0.15571463304E+02 -0.93469122390E+01 -0.21555150342E+02  0.28186162280E+02  0.00000000000E+00 0.  1.
</event>
<event>
 5    1  0.3183383E-003  0.9118800E+02  0.7818608E-02  0.1130116E+00
         25   -1    0    0    0    0  0.00000000000E+00  0.00000000000E+00  0.99999998245E-14  0.12500000000E+03  0.12500000000E+03 0.  0.
        -11    1    3    3    0    0  0.27827765208E+01  0.17425583422E+02  0.53373077086E+02  0.56214590283E+02  0.51100000000E-03 0.  1.
         23    2    1    0    0    0 -0.14566033041E+00 -0.12179743780E+02  0.24334109125E+02  0.97787571913E+02  0.93924932677E+02 0.  0.
         11    1    3    3    0    0 -0.29284368512E+01 -0.29605327202E+02 -0.29038967962E+02  0.41572981630E+02  0.51100000000E-03 0. -1.
         22    1    1    0    0    0  0.14566033041E+00  0.12179743780E+02 -0.24334109125E+02  0.27212428087E+02  0.00000000000E+00 0.  1.
</event>
<event>
 5    1  0.3183383E-003  0.9118800E+02  0.7818608E-02  0.1130116E+00
         25   -1    0    0    0    0  0.00000000000E+00  0.00000000000E+00  0.99999998245E-14  0.12500000000E+03  0.12500000000E+03 0.  0.
        -11    1    3    3    0    0  0.22462747553E+02  0.27393674179E+02 -0.73774271093E+01  0.36185837612E+02  0.51100000000E-03 0. -1.
         23    2    1    0    0    0  0.12986218121E+01 -0.23168574357E+02  0.17059156720E+02  0.96199234657E+02  0.91786756476E+02 0.  0.
         11    1    3    3    0    0 -0.21164125741E+02 -0.50562248536E+02  0.24436583829E+02  0.60013397045E+02  0.51100000000E-03 0.  1.
         22    1    1    0    0    0 -0.12986218121E+01  0.23168574357E+02 -0.17059156720E+02  0.28800765343E+02  0.00000000000E+00 0.  1.
</event>
<event>
 5    1  0.3183383E-003  0.9118800E+02  0.7818608E-02  0.1130116E+00
         25   -1    0    0    0    0  0.00000000000E+00  0.00000000000E+00  0.99999998245E-14  0.12500000000E+03  0.12500000000E+03 0.  0.
        -11    1    3    3    0    0 -0.32261347614E+02  0.12328056757E+02 -0.49675679908E+02  0.60501642192E+02  0.51100000000E-03 0.  1.
         23    2    1    0    0    0 -0.24257686093E+02  0.37143690594E+01 -0.17222460846E+02  0.95019255685E+02  0.90165480763E+02 0.  0.
         11    1    3    3    0    0  0.80036615210E+01 -0.86136876980E+01  0.32453219062E+02  0.34517613493E+02  0.51100000000E-03 0. -1.
         22    1    1    0    0    0  0.24257686093E+02 -0.37143690594E+01  0.17222460846E+02  0.29980744315E+02  0.00000000000E+00 0.  1.
</event>
<event>
 5    1  0.3183383E-003  0.9118800E+02  0.7818608E-02  0.1130116E+00
         25   -1    0    0    0    0  0.00000000000E+00  0.00000000000E+00  0.99999998245E-14  0.12500000000E+03  0.12500000000E+03 0.  0.
        -11    1    3    3    0    0  0.39077381170E+01  0.49652841601E+02 -0.25990021746E+02  0.56179678949E+02  0.51100000000E-03 0.  1.
         23    2    1    0    0    0 -0.16848836984E+02  0.18598613139E+02 -0.17269290286E+02  0.94536577583E+02  0.89493823226E+02 0.  0.
         11    1    3    3    0    0 -0.20756575101E+02 -0.31054228462E+02  0.87207314605E+01  0.38356898633E+02  0.51100000000E-03 0. -1.
         22    1    1    0    0    0  0.16848836984E+02 -0.18598613139E+02  0.17269290286E+02  0.30463422417E+02  0.00000000000E+00 0.  1.
</event>
<event>
 5    1  0.3183383E-003  0.9118800E+02  0.7818608E-02  0.1130116E+00
         25   -1    0    0    0    0  0.00000000000E+00  0.00000000000E+00  0.99999998245E-14  0.12500000000E+03  0.12500000000E+03 0.  0.
        -11    1    3    3    0    0  0.39518081491E+02  0.10765741268E+02 -0.47196955530E+01  0.41229303610E+02  0.51100000000E-03 0. -1.
         23    2    1    0    0    0 -0.11056054223E+02  0.25927981459E+02 -0.11689438397E+02  0.94485421066E+02  0.89422342099E+02 0.  0.
         11    1    3    3    0    0 -0.50574135714E+02  0.15162240191E+02 -0.69697428437E+01  0.53256117455E+02  0.51100000000E-03 0.  1.
         22    1    1    0    0    0  0.11056054223E+02 -0.25927981459E+02  0.11689438397E+02  0.30514578934E+02  0.00000000000E+00 0.  1.
</event>
<event>
 5    1  0.3183383E-003  0.9118800E+02  0.7818608E-02  0.1130116E+00
         25   -1    0    0    0    0  0.00000000000E+00  0.00000000000E+00  0.99999998245E-14  0.12500000000E+03  0.12500000000E+03 0.  0.
        -11    1    3    3    0    0 -0.81224545839E+01  0.50513942127E+02  0.24534120943E+02  0.56741128896E+02  0.51100000000E-03 0.  1.
         23    2    1    0    0    0 -0.20350831618E+02  0.14891048209E+02  0.15244552262E+02  0.95533136611E+02  0.90875101941E+02 0.  0.
         11    1    3    3    0    0 -0.12228377034E+02 -0.35622893918E+02 -0.92895686812E+01  0.38792007715E+02  0.51100000000E-03 0. -1.
         22    1    1    0    0    0  0.20350831618E+02 -0.14891048209E+02 -0.15244552262E+02  0.29466863389E+02  0.00000000000E+00 0.  1.
</event>
<event>
 5    1  0.3183383E-003  0.9118800E+02  0.7818608E-02  0.1130116E+00
         25   -1    0    0    0    0  0.00000000000E+00  0.00000000000E+00  0.99999998245E-14  0.12500000000E+03  0.12500000000E+03 0.  0.
        -11    1    3    3    0    0  0.50964497214E+02  0.73063224025E+01 -0.21888047392E+02  0.55945052884E+02  0.51100000000E-03 0.  1.
         23    2    1    0    0    0  0.16556206565E+02  0.22435425281E+02 -0.10244682297E+02  0.95294616671E+02  0.90546419961E+02 0.  0.
         11    1    3    3    0    0 -0.34408290649E+02  0.15129102878E+02  0.11643365095E+02  0.39349563788E+02  0.51100000000E-03 0. -1.
         22    1    1    0    0    0 -0.16556206565E+02 -0.22435425281E+02  0.10244682297E+02  0.29705383329E+02  0.00000000000E+00 0.  1.
</event>
<event>
 5    1  0.3183383E-003  0.9118800E+02  0.7818608E-02  0.1130116E+00
         25   -1    0    0    0    0  0.00000000000E+00  0.00000000000E+00  0.99999998245E-14  0.12500000000E+03  0.12500000000E+03 0.  0.
        -11    1    3    3    0    0 -0.44504894778E+02 -0.19234915427E+02  0.39185643454E+02  0.62339251551E+02  0.51100000000E-03 0.  1.
         23    2    1    0    0    0 -0.23571200496E+02 -0.12836975106E+02  0.18997920778E+02  0.92116715240E+02  0.86047538083E+02 0.  0.
         11    1    3    3    0    0  0.20933694283E+02  0.63979403208E+01 -0.20187722676E+02  0.29777463690E+02  0.51100000000E-03 0. -1.
         22    1    1    0    0    0  0.23571200496E+02  0.12836975106E+02 -0.18997920778E+02  0.32883284760E+02  0.00000000000E+00 0.  1.
</event>
<event>
 5    1  0.3183383E-003  0.9118800E+02  0.7818608E-02  0.1130116E+00
         25   -1    0    0    0    0  0.00000000000E+00  0.00000000000E+00  0.99999998245E-14  0.12500000000E+03  0.12500000000E+03 0.  0.
        -11    1    3    3    0    0 -0.35151776945E+02  0.32710649257E+02 -0.28878526994E+02  0.56032163253E+02  0.51100000000E-03 0.  1.
         23    2    1    0    0    0 -0.27383458030E+02  0.91285355802E+01  0.24786411837E+01  0.96028848873E+02  0.91554422166E+02 0.  0.
         11    1    3    3    0    0  0.77683189147E+01 -0.23582113677E+02  0.31357168178E+02  0.39996685620E+02  0.51100000000E-03 0. -1.
         22    1    1    0    0    0  0.27383458030E+02 -0.91285355802E+01 -0.24786411837E+01  0.28971151127E+02  0.00000000000E+00 0.  1.
</event>
<event>
 5    1  0.3183383E-003  0.9118800E+02  0.7818608E-02  0.1130116E+00
         25   -1    0    0    0    0  0.00000000000E+00  0.00000000000E+00  0.99999998245E-14  0.12500000000E+03  0.12500000000E+03 0.  0.
        -11    1    3    3    0    0  0.10119476593E+02 -0.56039974948E+02 -0.12707178079E+02  0.58346850589E+02  0.51100000000E-03 0.  1.
         23    2    1    0    0    0  0.19255697659E+02 -0.24396048556E+02  0.71220141627E+00  0.93912119591E+02  0.88617322786E+02 0.  0.
         11    1    3    3    0    0  0.91362210662E+01  0.31643926392E+02  0.13419379495E+02  0.35565269002E+02  0.51100000000E-03 0. -1.
         22    1    1    0    0    0 -0.19255697659E+02  0.24396048556E+02 -0.71220141627E+00  0.31087880409E+02  0.00000000000E+00 0.  1.
</event>
<event>
 5    1  0.3183383E-003  0.9118800E+02  0.7818608E-02  0.1130116E+00
         25   -1    0    0    0    0  0.00000000000E+00  0.00000000000E+00  0.99999998245E-14  0.12500000000E+03  0.12500000000E+03 0.  0.
        -11    1    3    3    0    0 -0.59912564063E+00  0.38115138671E+01  0.38760529033E+02  0.38952088528E+02  0.51100000000E-03 0.  1.
         23    2    1    0    0    0  0.36007994675E+02  0.85709829768E+00  0.53784567450E+01  0.88582447983E+02  0.80750306474E+02 0.  0.
         11    1    3    3    0    0  0.36607120315E+02 -0.29544155694E+01 -0.33382072288E+02  0.49630359455E+02  0.51100000000E-03 0. -1.
         22    1    1    0    0    0 -0.36007994675E+02 -0.85709829768E+00 -0.53784567450E+01  0.36417552017E+02  0.00000000000E+00 0. -1.
</event>
<event>
 5    1  0.3183383E-003  0.9118800E+02  0.7818608E-02  0.1130116E+00
         25   -1    0    0    0    0  0.00000000000E+00  0.00000000000E+00  0.99999998245E-14  0.12500000000E+03  0.12500000000E+03 0.  0.
        -11    1    3    3    0    0 -0.16984818379E+02  0.43937898035E+02  0.16075080623E+02  0.49773799899E+02  0.51100000000E-03 0.  1.
         23    2    1    0    0    0 -0.22399950233E+02  0.10146609711E+02 -0.15163517203E+02  0.96109799014E+02  0.91664877426E+02 0.  0.
         11    1    3    3    0    0 -0.54151318537E+01 -0.33791288324E+02 -0.31238597826E+02  0.46335999115E+02  0.51100000000E-03 0. -1.
         22    1    1    0    0    0  0.22399950233E+02 -0.10146609711E+02  0.15163517203E+02  0.28890200986E+02  0.00000000000E+00 0.  1.
</event>
<event>
 5    1  0.3183383E-003  0.9118800E+02  0.7818608E-02  0.1130116E+00
         25   -1    0    0    0    0  0.00000000000E+00  0.00000000000E+00  0.99999998245E-14  0.12500000000E+03  0.12500000000E+03 0.  0.
        -11    1    3    3    0    0 -0.13363500420E+01 -0.38480608130E+01  0.35079871160E+02  0.35315588121E+02  0.51100000000E-03 0.  1.
         23    2    1    0    0    0  0.17909132361E+02 -0.67581730835E+01 -0.22126523330E+02  0.95742642634E+02  0.91162824981E+02 0.  0.
         11    1    3    3    0    0  0.19245482403E+02 -0.29101122705E+01 -0.57206394490E+02  0.60427054513E+02  0.51100000000E-03 0. -1.
         22    1    1    0    0    0 -0.17909132361E+02  0.67581730835E+01  0.22126523330E+02  0.29257357366E+02  0.00000000000E+00 0. -1.
</event>
<event>
 5    1  0.3183383E-003  0.9118800E+02  0.7818608E-02  0.1130116E+00
         25   -1    0    0    0    0  0.00000000000E+00  0.00000000000E+00  0.99999998245E-14  0.12500000000E+03  0.12500000000E+03 0.  0.
        -11    1    3    3    0    0 -0.25429636867E+02 -0.16717604518E+02 -0.18060476909E+02  0.35388212140E+02  0.51100000000E-03 0.  1.
         23    2    1    0    0    0  0.12701748635E+02  0.24485669226E+02  0.64916163497E+01  0.96662330748E+02  0.92415273018E+02 0.  0.
         11    1    3    3    0    0  0.38131385502E+02  0.41203273744E+02  0.24552093259E+02  0.61274118608E+02  0.51100000000E-03 0. -1.
         22    1    1    0    0    0 -0.12701748635E+02 -0.24485669226E+02 -0.64916163497E+01  0.28337669252E+02  0.00000000000E+00 0. -1.
</event>
<event>
 5    1  0.3183383E-003  0.9118800E+02  0.7818608E-02  0.1130116E+00
         25   -1    0    0    0    0  0.00000000000E+00  0.00000000000E+00  0.99999998245E-14  0.12500000000E+03  0.12500000000E+03 0.  0.
        -11    1    3    3    0    0 -0.36430595877E+02 -0.35343494255E+02  0.27610096478E+02  0.57781210873E+02  0.51100000000E-03 0. -1.
         23    2    1    0    0    0 -0.21022611021E+02  0.16227034952E+01  0.11798520871E+02  0.10083828575E+03  0.97900824498E+02 0.  0.
         11    1    3    3    0    0  0.15407984856E+02  0.36966197751E+02 -0.15811575607E+02  0.43057074876E+02  0.51100000000E-03 0.  1.
         22    1    1    0    0    0  0.21022611021E+02 -0.16227034952E+01 -0.11798520871E+02  0.24161714250E+02  0.00000000000E+00 0. -1.
</event>
<event>
 5    1  0.3183383E-003  0.9118800E+02  0.7818608E-02  0.1130116E+00
         25   -1    0    0    0    0  0.00000000000E+00  0.00000000000E+00  0.99999998245E-14  0.12500000000E+03  0.12500000000E+03 0.  0.
        -11    1    3    3    0    0 -0.20597077431E+02  0.26452204990E+02 -0.81977415896E+01  0.34513210731E+02  0.51100000000E-03 0. -1.
         23    2    1    0    0    0  0.16139914442E+02 -0.39039384918E+01  0.26684004344E+02  0.93571133304E+02  0.88135028939E+02 0.  0.
         11    1    3    3    0    0  0.36736991873E+02 -0.30356143482E+02  0.34881745934E+02  0.59057922573E+02  0.51100000000E-03 0.  1.
         22    1    1    0    0    0 -0.16139914442E+02  0.39039384918E+01 -0.26684004344E+02  0.31428866696E+02  0.00000000000E+00 0.  1.
</event>
<event>
 5    1  0.3183383E-003  0.9118800E+02  0.7818608E-02  0.1130116E+00
         25   -1    0    0    0    0  0.00000000000E+00  0.00000000000E+00  0.99999998245E-14  0.12500000000E+03  0.12500000000E+03 0.  0.
        -11    1    3    3    0    0  0.18553589910E+02  0.26136480039E+02  0.32959234848E+02  0.45974584820E+02  0.51100000000E-03 0. -1.
         23    2    1    0    0    0  0.28495885874E+02  0.59083746919E+01 -0.97847105174E+01  0.94297150569E+02  0.89158777707E+02 0.  0.
         11    1    3    3    0    0  0.99422959649E+01 -0.20228105347E+02 -0.42743945365E+02  0.48322565749E+02  0.51100000000E-03 0.  1.
         22    1    1    0    0    0 -0.28495885874E+02 -0.59083746919E+01  0.97847105174E+01  0.30702849431E+02  0.00000000000E+00 0.  1.
</event>
<event>
 5    1  0.3183383E-003  0.9118800E+02  0.7818608E-02  0.1130116E+00
         25   -1    0    0    0    0  0.00000000000E+00  0.00000000000E+00  0.99999998245E-14  0.12500000000E+03  0.12500000000E+03 0.  0.
        -11    1    3    3    0    0  0.39619337696E+02  0.41259242820E+02 -0.70457972685E+01  0.57633846800E+02  0.51100000000E-03 0.  1.
         23    2    1    0    0    0  0.15343685742E+02  0.16410044159E+02 -0.20208109548E+02  0.94782688191E+02  0.89836919180E+02 0.  0.
         11    1    3    3    0    0 -0.24275651954E+02 -0.24849198661E+02 -0.13162312280E+02  0.37148841391E+02  0.51100000000E-03 0. -1.
         22    1    1    0    0    0 -0.15343685742E+02 -0.16410044159E+02  0.20208109548E+02  0.30217311809E+02  0.00000000000E+00 0.  1.
</event>
<event>
 5    1  0.3183383E-003  0.9118800E+02  0.7818608E-02  0.1130116E+00
         25   -1    0    0    0    0  0.00000000000E+00  0.00000000000E+00  0.99999998245E-14  0.12500000000E+03  0.12500000000E+03 0.  0.
        -11    1    3    3    0    0 -0.30472791210E+02  0.18347452504E+02 -0.33865666188E+01  0.35730782964E+02  0.51100000000E-03 0. -1.
         23    2    1    0    0    0  0.11788498516E+02 -0.25627287064E+02 -0.58107763555E+00  0.96785390473E+02  0.92581572779E+02 0.  0.
         11    1    3    3    0    0  0.42261289726E+02 -0.43974739568E+02  0.28054889832E+01  0.61054607509E+02  0.51100000000E-03 0.  1.
         22    1    1    0    0    0 -0.11788498516E+02  0.25627287064E+02  0.58107763555E+00  0.28214609527E+02  0.00000000000E+00 0.  1.
</event>
<event>
 5    1  0.3183383E-003  0.9118800E+02  0.7818608E-02  0.1130116E+00
         25   -1    0    0    0    0  0.00000000000E+00  0.00000000000E+00  0.99999998245E-14  0.12500000000E+03  0.12500000000E+03 0.  0.
        -11    1    3    3    0    0 -0.29164437512E+02  0.17152857299E+02 -0.12096408420E+02  0.35931991677E+02  0.51100000000E-03 0.  1.
         23    2    1    0    0    0  0.90248339473E+01 -0.22709494374E+02  0.13830329012E+02  0.96920705794E+02  0.92764090296E+02 0.  0.
         11    1    3    3    0    0  0.38189271460E+02 -0.39862351674E+02  0.25926737432E+02  0.60988714117E+02  0.51100000000E-03 0. -1.
         22    1    1    0    0    0 -0.90248339473E+01  0.22709494374E+02 -0.13830329012E+02  0.28079294206E+02  0.00000000000E+00 0. -1.
</event>
<event>
 5    1  0.3183383E-003  0.9118800E+02  0.7818608E-02  0.1130116E+00
         25   -1    0    0    0    0  0.00000000000E+00  0.00000000000E+00  0.99999998245E-14  0.12500000000E+03  0.12500000000E+03 0.  0.
        -11    1    3    3    0    0 -0.70923129354E+01 -0.33099928346E+02 -0.46656722018E+02  0.57643350606E+02  0.51100000000E-03 0.  1.
         23    2    1    0    0    0 -0.15082680566E+02 -0.23494200395E+01 -0.23576429416E+02  0.96913436458E+02  0.92754294319E+02 0.  0.
         11    1    3    3    0    0 -0.79903676310E+01  0.30750508307E+02  0.23080292603E+02  0.39270085853E+02  0.51100000000E-03 0. -1.
         22    1    1    0    0    0  0.15082680566E+02  0.23494200395E+01  0.23576429416E+02  0.28086563542E+02  0.00000000000E+00 0.  1.
</event>
<event>
 5    1  0.3183383E-003  0.9118800E+02  0.7818608E-02  0.1130116E+00
         25   -1    0    0    0    0  0.00000000000E+00  0.00000000000E+00  0.99999998245E-14  0.12500000000E+03  0.12500000000E+03 0.  0.
        -11    1    3    3    0    0 -0.15186890065E+02 -0.32796169150E+02  0.24979667749E+01  0.36228030294E+02  0.51100000000E-03 0. -1.
         23    2    1    0    0    0  0.16729159682E+02  0.14152717348E+02 -0.18058356632E+02  0.96605133629E+02  0.92337876341E+02 0.  0.
         11    1    3    3    0    0  0.31916049747E+02  0.46948886498E+02 -0.20556323407E+02  0.60377103335E+02  0.51100000000E-03 0.  1.
         22    1    1    0    0    0 -0.16729159682E+02 -0.14152717348E+02  0.18058356632E+02  0.28394866371E+02  0.00000000000E+00 0.  1.
</event>
<event>
 5    1  0.3183383E-003  0.9118800E+02  0.7818608E-02  0.1130116E+00
         25   -1    0    0    0    0  0.00000000000E+00  0.00000000000E+00  0.99999998245E-14  0.12500000000E+03  0.12500000000E+03 0.  0.
        -11    1    3    3    0    0 -0.36800571486E+02 -0.20108540547E+02  0.35749551306E+02  0.55105951434E+02  0.51100000000E-03 0. -1.
         23    2    1    0    0    0  0.14898485616E+01 -0.31102194589E+01  0.26843288834E+02  0.97936089173E+02  0.94122379343E+02 0.  0.
         11    1    3    3    0    0  0.38290420048E+02  0.16998321088E+02 -0.89062624715E+01  0.42830137739E+02  0.51100000000E-03 0.  1.
         22    1    1    0    0    0 -0.14898485616E+01  0.31102194589E+01 -0.26843288834E+02  0.27063910827E+02  0.00000000000E+00 0. -1.
</event>
<event>
 5    1  0.3183383E-003  0.9118800E+02  0.7818608E-02  0.1130116E+00
         25   -1    0    0    0    0  0.00000000000E+00  0.00000000000E+00  0.99999998245E-14  0.12500000000E+03  0.12500000000E+03 0.  0.
        -11    1    3    3    0    0  0.43982032492E+01 -0.13792274484E+02  0.36260211939E+02  0.39043232414E+02  0.51100000000E-03 0.  1.
         23    2    1    0    0    0 -0.24871004875E+02 -0.72108899628E+01 -0.12462999238E+02  0.96261695117E+02  0.91871779014E+02 0.  0.
         11    1    3    3    0    0 -0.29269208124E+02  0.65813845214E+01 -0.48723211177E+02  0.57218462703E+02  0.51100000000E-03 0. -1.
         22    1    1    0    0    0  0.24871004875E+02  0.72108899628E+01  0.12462999238E+02  0.28738304883E+02  0.00000000000E+00 0. -1.
</event>
<event>
 5    1  0.3183383E-003  0.9118800E+02  0.7818608E-02  0.1130116E+00
         25   -1    0    0    0    0  0.00000000000E+00  0.00000000000E+00  0.99999998245E-14  0.12500000000E+03  0.12500000000E+03 0.  0.
        -11    1    3    3    0    0 -0.25381861690E+01 -0.39692960753E+02 -0.10129421461E+01  0.39786927180E+02  0.51100000000E-03 0. -1.
         23    2    1    0    0    0  0.23632487726E+02  0.69050517640E+01  0.15719386712E+02  0.95789157243E+02  0.91226582259E+02 0.  0.
         11    1    3    3    0    0  0.26170673895E+02  0.46598012517E+02  0.16732328858E+02  0.56002230062E+02  0.51100000000E-03 0.  1.
         22    1    1    0    0    0 -0.23632487726E+02 -0.69050517640E+01 -0.15719386712E+02  0.29210842757E+02  0.00000000000E+00 0.  1.
</event>
<event>
 5    1  0.3183383E-003  0.9118800E+02  0.7818608E-02  0.1130116E+00
         25   -1    0    0    0    0  0.00000000000E+00  0.00000000000E+00  0.99999998245E-14  0.12500000000E+03  0.12500000000E+03 0.  0.
        -11    1    3    3    0    0  0.16725081858E+02 -0.37741902687E+02 -0.44638629177E+02  0.60801207197E+02  0.51100000000E-03 0. -1.
         23    2    1    0    0    0 -0.76598576435E+00 -0.10563972306E+02 -0.22949763475E+02  0.99724005684E+02  0.96467618510E+02 0.  0.
         11    1    3    3    0    0 -0.17491067622E+02  0.27177930381E+02  0.21688865702E+02  0.38922798487E+02  0.51100000000E-03 0.  1.
         22    1    1    0    0    0  0.76598576435E+00  0.10563972306E+02  0.22949763475E+02  0.25275994316E+02  0.00000000000E+00 0. -1.
</event>
<event>
 5    1  0.3183383E-003  0.9118800E+02  0.7818608E-02  0.1130116E+00
         25   -1    0    0    0    0  0.00000000000E+00  0.00000000000E+00  0.99999998245E-14  0.12500000000E+03  0.12500000000E+03 0.  0.
        -11    1    3    3    0    0 -0.34134415811E+01  0.31397618642E+02  0.49166460449E+02  0.58436314678E+02  0.51100000000E-03 0.  1.
         23    2    1    0    0    0  0.14149554511E+02  0.15826978881E+02  0.20472151753E+02  0.95507422107E+02  0.90839724387E+02 0.  0.
         11    1    3    3    0    0  0.17562996092E+02 -0.15570639761E+02 -0.28694308695E+02  0.37071107429E+02  0.51100000000E-03 0. -1.
         22    1    1    0    0    0 -0.14149554511E+02 -0.15826978881E+02 -0.20472151753E+02  0.29492577893E+02  0.00000000000E+00 0.  1.
</event>
<event>
 5    1  0.3183383E-003  0.9118800E+02  0.7818608E-02  0.1130116E+00
         25   -1    0    0    0    0  0.00000000000E+00  0.00000000000E+00  0.99999998245E-14  0.12500000000E+03  0.12500000000E+03 0.  0.
        -11    1    3    3    0    0  0.22063287156E+02 -0.50908786820E+02  0.53273005271E+01  0.55739333928E+02  0.51100000000E-03 0.  1.
         23    2    1    0    0    0 -0.37825555002E+01 -0.27724595650E+02 -0.12012655365E+02  0.94548976717E+02  0.89511139973E+02 0.  0.
         11    1    3    3    0    0 -0.25845842656E+02  0.23184191170E+02 -0.17339955892E+02  0.38809642789E+02  0.51100000000E-03 0. -1.
         22    1    1    0    0    0  0.37825555002E+01  0.27724595650E+02  0.12012655365E+02  0.30451023283E+02  0.00000000000E+00 0. -1.
</event>
<event>
 5    1  0.3183383E-003  0.9118800E+02  0.7818608E-02  0.1130116E+00
         25   -1    0    0    0    0  0.00000000000E+00  0.00000000000E+00  0.99999998245E-14  0.12500000000E+03  0.12500000000E+03 0.  0.
        -11    1    3    3    0    0 -0.45952033578E+02 -0.59111598066E+01 -0.16539924382E+02  0.49194514929E+02  0.51100000000E-03 0.  1.
         23    2    1    0    0    0 -0.22746578343E+02  0.16472757728E+02  0.14013173340E+02  0.93613257567E+02  0.88194752631E+02 0.  0.
         11    1    3    3    0    0  0.23205455235E+02  0.22383917534E+02  0.30553097723E+02  0.44418742638E+02  0.51100000000E-03 0. -1.
         22    1    1    0    0    0  0.22746578343E+02 -0.16472757728E+02 -0.14013173340E+02  0.31386742433E+02  0.00000000000E+00 0.  1.
</event>
<event>
 5    1  0.3183383E-003  0.9118800E+02  0.7818608E-02  0.1130116E+00
         25   -1    0    0    0    0  0.00000000000E+00  0.00000000000E+00  0.99999998245E-14  0.12500000000E+03  0.12500000000E+03 0.  0.
        -11    1    3    3    0    0 -0.33800951297E+02  0.18116492670E+02  0.16754055834E+02  0.41849850685E+02  0.51100000000E-03 0.  1.
         23    2    1    0    0    0 -0.17595822307E+01 -0.26001870642E+02  0.11117667337E+02  0.96666346273E+02  0.92420704218E+02 0.  0.
         11    1    3    3    0    0  0.32041369066E+02 -0.44118363312E+02 -0.56363884967E+01  0.54816495587E+02  0.51100000000E-03 0. -1.
         22    1    1    0    0    0  0.17595822307E+01  0.26001870642E+02 -0.11117667337E+02  0.28333653727E+02  0.00000000000E+00 0. -1.
</event>
<event>
 5    1  0.3183383E-003  0.9118800E+02  0.7818608E-02  0.1130116E+00
         25   -1    0    0    0    0  0.00000000000E+00  0.00000000000E+00  0.99999998245E-14  0.12500000000E+03  0.12500000000E+03 0.  0.
        -11    1    3    3    0    0 -0.27787994843E+02  0.97618714399E+01  0.23071697970E+02  0.37413500757E+02  0.51100000000E-03 0. -1.
         23    2    1    0    0    0  0.29082285815E+01 -0.22909452914E+02 -0.16020740390E+02  0.96893684892E+02  0.92727672369E+02 0.  0.
         11    1    3    3    0    0  0.30696223425E+02 -0.32671324354E+02 -0.39092438360E+02  0.59480184135E+02  0.51100000000E-03 0.  1.
         22    1    1    0    0    0 -0.29082285815E+01  0.22909452914E+02  0.16020740390E+02  0.28106315108E+02  0.00000000000E+00 0.  1.
</event>
<event>
 5    1  0.3183383E-003  0.9118800E+02  0.7818608E-02  0.1130116E+00
         25   -1    0    0    0    0  0.00000000000E+00  0.00000000000E+00  0.99999998245E-14  0.12500000000E+03  0.12500000000E+03 0.  0.
        -11    1    3    3    0    0 -0.11491443671E+02 -0.31097330975E+02  0.12738595212E+02  0.35515758188E+02  0.51100000000E-03 0. -1.
         23    2    1    0    0    0  0.63906762321E+01  0.26723325740E+02  0.87239274599E+01  0.96171476076E+02  0.91748945602E+02 0.  0.
         11    1    3    3    0    0  0.17882119903E+02  0.57820656715E+02 -0.40146677517E+01  0.60655717889E+02  0.51100000000E-03 0.  1.
         22    1    1    0    0    0 -0.63906762321E+01 -0.26723325740E+02 -0.87239274599E+01  0.28828523924E+02  0.00000000000E+00 0.  1.
</event>
<event>
 5    1  0.3183383E-003  0.9118800E+02  0.7818608E-02  0.1130116E+00
         25   -1    0    0    0    0  0.00000000000E+00  0.00000000000E+00  0.99999998245E-14  0.12500000000E+03  0.12500000000E+03 0.  0.
        -11    1    3    3    0    0  0.38764443560E+02  0.28038409029E+02 -0.15034407844E+02  0.50148458450E+02  0.51100000000E-03 0. -1.
         23    2    1    0    0    0  0.67871227363E+01  0.23192184843E+02  0.16830829212E+02  0.95551412856E+02  0.90900237701E+02 0.  0.
         11    1    3    3    0    0 -0.31977320824E+02 -0.48462241868E+01  0.31865237056E+02  0.45402954406E+02  0.51100000000E-03 0.  1.
         22    1    1    0    0    0 -0.67871227363E+01 -0.23192184843E+02 -0.16830829212E+02  0.29448587144E+02  0.00000000000E+00 0. -1.
</event>
<event>
 5    1  0.3183383E-003  0.9118800E+02  0.7818608E-02  0.1130116E+00
         25   -1    0    0    0    0  0.00000000000E+00  0.00000000000E+00  0.99999998245E-14  0.12500000000E+03  0.12500000000E+03 0.  0.
        -11    1    3    3    0    0  0.18653173906E+01  0.32676559536E+02 -0.18229752726E+02  0.37464127333E+02  0.51100000000E-03 0. -1.
         23    2    1    0    0    0 -0.98122814819E+01 -0.24515101648E+02 -0.11415595982E+02  0.96232189720E+02  0.91831625435E+02 0.  0.
         11    1    3    3    0    0 -0.11677598873E+02 -0.57191661184E+02  0.68141567440E+01  0.58768062388E+02  0.51100000000E-03 0.  1.
         22    1    1    0    0    0  0.98122814819E+01  0.24515101648E+02  0.11415595982E+02  0.28767810280E+02  0.00000000000E+00 0.  1.
</event>
<event>
 5    1  0.3183383E-003  0.9118800E+02  0.7818608E-02  0.1130116E+00
         25   -1    0    0    0    0  0.00000000000E+00  0.00000000000E+00  0.99999998245E-14  0.12500000000E+03  0.12500000000E+03 0.  0.
        -11    1    3    3    0    0 -0.38201501869E+02  0.21572831811E+02 -0.40609562388E+01  0.44059427859E+02  0.51100000000E-03 0. -1.
         23    2    1    0    0    0  0.22852318175E+01  0.27674122360E+02  0.19285306762E+02  0.91191681649E+02  0.84693095422E+02 0.  0.
         11    1    3    3    0    0  0.40486733687E+02  0.61012905486E+01  0.23346263001E+02  0.47132253790E+02  0.51100000000E-03 0.  1.
         22    1    1    0    0    0 -0.22852318175E+01 -0.27674122360E+02 -0.19285306762E+02  0.33808318351E+02  0.00000000000E+00 0. -1.
</event>
<event>
 5    1  0.3183383E-003  0.9118800E+02  0.7818608E-02  0.1130116E+00
         25   -1    0    0    0    0  0.00000000000E+00  0.00000000000E+00  0.99999998245E-14  0.12500000000E+03  0.12500000000E+03 0.  0.
        -11    1    3    3    0    0  0.80255129398E+01  0.24715111280E+00 -0.41260026908E+02  0.42034031002E+02  0.51100000000E-03 0. -1.
         23    2    1    0    0    0  0.19008316845E+02  0.19410780129E+02  0.85473528660E+01  0.96519274316E+02  0.92221573283E+02 0.  0.
         11    1    3    3    0    0  0.10982803905E+02  0.19163629016E+02  0.49807379774E+02  0.54485243313E+02  0.51100000000E-03 0.  1.
         22    1    1    0    0    0 -0.19008316845E+02 -0.19410780129E+02 -0.85473528660E+01  0.28480725684E+02  0.00000000000E+00 0. -1.
</event>
<event>
 5    1  0.3183383E-003  0.9118800E+02  0.7818608E-02  0.1130116E+00
         25   -1    0    0    0    0  0.00000000000E+00  0.00000000000E+00  0.99999998245E-14  0.12500000000E+03  0.12500000000E+03 0.  0.
        -11    1    3    3    0    0 -0.11376509143E+01  0.35010499468E+02  0.11471072534E+02  0.36859392669E+02  0.51100000000E-03 0. -1.
         23    2    1    0    0    0 -0.19381592769E+02 -0.18550951394E+02 -0.84893244291E+01  0.96860124998E+02  0.92682421469E+02 0.  0.
         11    1    3    3    0    0 -0.18243941855E+02 -0.53561450861E+02 -0.19960396963E+02  0.60000732329E+02  0.51100000000E-03 0.  1.
         22    1    1    0    0    0  0.19381592769E+02  0.18550951394E+02  0.84893244291E+01  0.28139875002E+02  0.00000000000E+00 0.  1.
</event>
<event>
 5    1  0.3183383E-003  0.9118800E+02  0.7818608E-02  0.1130116E+00
         25   -1    0    0    0    0  0.00000000000E+00  0.00000000000E+00  0.99999998245E-14  0.12500000000E+03  0.12500000000E+03 0.  0.
        -11    1    3    3    0    0 -0.88143726186E+01 -0.32881154970E+02  0.14140590464E+02  0.36862173237E+02  0.51100000000E-03 0.  1.
         23    2    1    0    0    0 -0.15840161211E+02  0.20091315755E+02 -0.12447843189E+02  0.96547926683E+02  0.92260401423E+02 0.  0.
         11    1    3    3    0    0 -0.70257885921E+01  0.52972470725E+02 -0.26588433653E+02  0.59685753446E+02  0.51100000000E-03 0. -1.
         22    1    1    0    0    0  0.15840161211E+02 -0.20091315755E+02  0.12447843189E+02  0.28452073317E+02  0.00000000000E+00 0. -1.
</event>
<event>
 5    1  0.3183383E-003  0.9118800E+02  0.7818608E-02  0.1130116E+00
         25   -1    0    0    0    0  0.00000000000E+00  0.00000000000E+00  0.99999998245E-14  0.12500000000E+03  0.12500000000E+03 0.  0.
        -11    1    3    3    0    0 -0.36300960269E+02  0.51029297942E+01 -0.97676907579E+01  0.37936886956E+02  0.51100000000E-03 0.  1.
         23    2    1    0    0    0 -0.11238367728E+01 -0.94683084490E+01  0.30314726180E+02  0.93221162744E+02  0.87637267677E+02 0.  0.
         11    1    3    3    0    0  0.35177123496E+02 -0.14571238243E+02  0.40082416938E+02  0.55284275787E+02  0.51100000000E-03 0. -1.
         22    1    1    0    0    0  0.11238367728E+01  0.94683084490E+01 -0.30314726180E+02  0.31778837256E+02  0.00000000000E+00 0. -1.
</event>
<event>
 5    1  0.3183383E-003  0.9118800E+02  0.7818608E-02  0.1130116E+00
         25   -1    0    0    0    0  0.00000000000E+00  0.00000000000E+00  0.99999998245E-14  0.12500000000E+03  0.12500000000E+03 0.  0.
        -11    1    3    3    0    0 -0.17129553564E+02  0.35561566852E+02  0.24122704687E+02  0.46259610071E+02  0.51100000000E-03 0. -1.
         23    2    1    0    0    0  0.19839718923E+02  0.21675152683E+02 -0.48225939128E+01  0.95222758643E+02  0.90447165023E+02 0.  0.
         11    1    3    3    0    0  0.36969272488E+02 -0.13886414168E+02 -0.28945298600E+02  0.48963148571E+02  0.51100000000E-03 0.  1.
         22    1    1    0    0    0 -0.19839718923E+02 -0.21675152683E+02  0.48225939128E+01  0.29777241357E+02  0.00000000000E+00 0.  1.
</event>
<event>
 5    1  0.3183383E-003  0.9118800E+02  0.7818608E-02  0.1130116E+00
         25   -1    0    0    0    0  0.00000000000E+00  0.00000000000E+00  0.99999998245E-14  0.12500000000E+03  0.12500000000E+03 0.  0.
        -11    1    3    3    0    0 -0.22939592871E+02 -0.42075404390E+02 -0.20137211199E+02  0.51981456798E+02  0.51100000000E-03 0. -1.
         23    2    1    0    0    0 -0.31038352269E+02 -0.46759131694E+01 -0.46244782072E+01  0.93272578513E+02  0.87710573070E+02 0.  0.
         11    1    3    3    0    0 -0.80987593978E+01  0.37399491221E+02  0.15512732992E+02  0.41291121715E+02  0.51100000000E-03 0.  1.
         22    1    1    0    0    0  0.31038352269E+02  0.46759131694E+01  0.46244782072E+01  0.31727421487E+02  0.00000000000E+00 0.  1.
</event>
<event>
 5    1  0.3183383E-003  0.9118800E+02  0.7818608E-02  0.1130116E+00
         25   -1    0    0    0    0  0.00000000000E+00  0.00000000000E+00  0.99999998245E-14  0.12500000000E+03  0.12500000000E+03 0.  0.
        -11    1    3    3    0    0 -0.27632061424E+02 -0.23216871945E+02 -0.58243626441E+01  0.36557860467E+02  0.51100000000E-03 0.  1.
         23    2    1    0    0    0  0.26859970440E+02 -0.15652623835E+02  0.71913218214E+01  0.93091102268E+02  0.87451561261E+02 0.  0.
         11    1    3    3    0    0  0.54492031864E+02  0.75642481102E+01  0.13015684466E+02  0.56533241801E+02  0.51100000000E-03 0. -1.
         22    1    1    0    0    0 -0.26859970440E+02  0.15652623835E+02 -0.71913218214E+01  0.31908897732E+02  0.00000000000E+00 0. -1.
</event>
<event>
 5    1  0.3183383E-003  0.9118800E+02  0.7818608E-02  0.1130116E+00
         25   -1    0    0    0    0  0.00000000000E+00  0.00000000000E+00  0.99999998245E-14  0.12500000000E+03  0.12500000000E+03 0.  0.
        -11    1    3    3    0    0 -0.10719133909E+02  0.32087642708E+02 -0.13000762927E+02  0.36242743871E+02  0.51100000000E-03 0.  1.
         23    2    1    0    0    0  0.82978133546E+01 -0.22716490858E+02 -0.18554565668E+02  0.94517799120E+02  0.89467590668E+02 0.  0.
         11    1    3    3    0    0  0.19016947263E+02 -0.54804133566E+02 -0.55538027413E+01  0.58275055249E+02  0.51100000000E-03 0. -1.
         22    1    1    0    0    0 -0.82978133546E+01  0.22716490858E+02  0.18554565668E+02  0.30482200880E+02  0.00000000000E+00 0. -1.
</event>
<event>
 5    1  0.3183383E-003  0.9118800E+02  0.7818608E-02  0.1130116E+00
         25   -1    0    0    0    0  0.00000000000E+00  0.00000000000E+00  0.99999998245E-14  0.12500000000E+03  0.12500000000E+03 0.  0.
        -11    1    3    3    0    0  0.12073167595E+02  0.45659731089E+02  0.99710708658E+01  0.48270018369E+02  0.51100000000E-03 0. -1.
         23    2    1    0    0    0 -0.66354066503E+01  0.85816222405E+01  0.29062761818E+02  0.93978765560E+02  0.88711281075E+02 0.  0.
         11    1    3    3    0    0 -0.18708574245E+02 -0.37078108849E+02  0.19091690952E+02  0.45708747191E+02  0.51100000000E-03 0.  1.
         22    1    1    0    0    0  0.66354066503E+01 -0.85816222405E+01 -0.29062761818E+02  0.31021234440E+02  0.00000000000E+00 0.  1.
</event>
<event>
 5    1  0.3183383E-003  0.9118800E+02  0.7818608E-02  0.1130116E+00
         25   -1    0    0    0    0  0.00000000000E+00  0.00000000000E+00  0.99999998245E-14  0.12500000000E+03  0.12500000000E+03 0.  0.
        -11    1    3    3    0    0  0.28585914144E+02  0.44087704221E+02 -0.94047788012E+01  0.53379115912E+02  0.51100000000E-03 0. -1.
         23    2    1    0    0    0  0.40693978202E+01  0.21583458042E+02  0.18088912237E+02  0.96546276068E+02  0.92258165042E+02 0.  0.
         11    1    3    3    0    0 -0.24516516324E+02 -0.22504246179E+02  0.27493691039E+02  0.43167160156E+02  0.51100000000E-03 0.  1.
         22    1    1    0    0    0 -0.40693978202E+01 -0.21583458042E+02 -0.18088912237E+02  0.28453723932E+02  0.00000000000E+00 0. -1.
</event>
<event>
 5    1  0.3183383E-003  0.9118800E+02  0.7818608E-02  0.1130116E+00
         25   -1    0    0    0    0  0.00000000000E+00  0.00000000000E+00  0.99999998245E-14  0.12500000000E+03  0.12500000000E+03 0.  0.
        -11    1    3    3    0    0 -0.38282713213E+02 -0.13602951071E+01  0.32669477349E+02  0.50345916262E+02  0.51100000000E-03 0.  1.
         23    2    1    0    0    0 -0.18178927155E+02 -0.22486609547E+02 -0.24328828107E+01  0.95982075880E+02  0.91490540331E+02 0.  0.
         11    1    3    3    0    0  0.20103786058E+02 -0.21126314440E+02 -0.35102360160E+02  0.45636159619E+02  0.51100000000E-03 0. -1.
         22    1    1    0    0    0  0.18178927155E+02  0.22486609547E+02  0.24328828107E+01  0.29017924120E+02  0.00000000000E+00 0. -1.
</event>
<event>
 5    1  0.3183383E-003  0.9118800E+02  0.7818608E-02  0.1130116E+00
         25   -1    0    0    0    0  0.00000000000E+00  0.00000000000E+00  0.99999998245E-14  0.12500000000E+03  0.12500000000E+03 0.  0.
        -11    1    3    3    0    0 -0.31926710256E+02 -0.31741845223E+02 -0.22618513494E+02  0.50383099536E+02  0.51100000000E-03 0. -1.
         23    2    1    0    0    0 -0.25490574394E+02 -0.40543731785E+01  0.13118468663E+02  0.96046562469E+02  0.91578603490E+02 0.  0.
         11    1    3    3    0    0  0.64361358615E+01  0.27687472045E+02  0.35736982157E+02  0.45663462933E+02  0.51100000000E-03 0.  1.
         22    1    1    0    0    0  0.25490574394E+02  0.40543731785E+01 -0.13118468663E+02  0.28953437531E+02  0.00000000000E+00 0. -1.
</event>
<event>
 5    1  0.3183383E-003  0.9118800E+02  0.7818608E-02  0.1130116E+00
         25   -1    0    0    0    0  0.00000000000E+00  0.00000000000E+00  0.99999998245E-14  0.12500000000E+03  0.12500000000E+03 0.  0.
        -11    1    3    3    0    0 -0.11683185390E+02 -0.25734270283E+02  0.21850366806E+02  0.35723773844E+02  0.51100000000E-03 0.  1.
         23    2    1    0    0    0 -0.37971225889E+01  0.29265008413E+02 -0.16772089238E+00  0.95489205573E+02  0.90814654067E+02 0.  0.
         11    1    3    3    0    0  0.78860628014E+01  0.54999278696E+02 -0.22018087698E+02  0.59765431729E+02  0.51100000000E-03 0. -1.
         22    1    1    0    0    0  0.37971225889E+01 -0.29265008413E+02  0.16772089238E+00  0.29510794427E+02  0.00000000000E+00 0. -1.
</event>
<event>
 5    1  0.3183383E-003  0.9118800E+02  0.7818608E-02  0.1130116E+00
         25   -1    0    0    0    0  0.00000000000E+00  0.00000000000E+00  0.99999998245E-14  0.12500000000E+03  0.12500000000E+03 0.  0.
        -11    1    3    3    0    0 -0.36423688269E+02 -0.11838018991E+01 -0.48455701870E+02  0.60630367787E+02  0.51100000000E-03 0. -1.
         23    2    1    0    0    0 -0.24538606381E+02 -0.22793944530E+01 -0.15003848140E+02  0.96147715841E+02  0.91716568625E+02 0.  0.
         11    1    3    3    0    0  0.11885081888E+02 -0.10955925539E+01  0.33451853730E+02  0.35517348054E+02  0.51100000000E-03 0.  1.
         22    1    1    0    0    0  0.24538606381E+02  0.22793944530E+01  0.15003848140E+02  0.28852284159E+02  0.00000000000E+00 0. -1.
</event>
<event>
 5    1  0.3183383E-003  0.9118800E+02  0.7818608E-02  0.1130116E+00
         25   -1    0    0    0    0  0.00000000000E+00  0.00000000000E+00  0.99999998245E-14  0.12500000000E+03  0.12500000000E+03 0.  0.
        -11    1    3    3    0    0  0.28408876329E+02  0.50847277085E+01  0.15944488498E+02  0.32971888388E+02  0.51100000000E-03 0. -1.
         23    2    1    0    0    0 -0.12971241283E+02 -0.20436438350E+02 -0.20135452455E+02  0.93514486531E+02  0.88054651398E+02 0.  0.
         11    1    3    3    0    0 -0.41380117612E+02 -0.25521166058E+02 -0.36079940953E+02  0.60542598143E+02  0.51100000000E-03 0.  1.
         22    1    1    0    0    0  0.12971241283E+02  0.20436438350E+02  0.20135452455E+02  0.31485513469E+02  0.00000000000E+00 0.  1.
</event>
<event>
 5    1  0.3183383E-003  0.9118800E+02  0.7818608E-02  0.1130116E+00
         25   -1    0    0    0    0  0.00000000000E+00  0.00000000000E+00  0.99999998245E-14  0.12500000000E+03  0.12500000000E+03 0.  0.
        -11    1    3    3    0    0  0.26870756948E+02  0.54131245733E+02 -0.63969674663E+01  0.60771296979E+02  0.51100000000E-03 0. -1.
         23    2    1    0    0    0  0.17390849692E+02  0.20418765703E+02 -0.10838454261E+02  0.96071817606E+02  0.91613068945E+02 0.  0.
         11    1    3    3    0    0 -0.94799072563E+01 -0.33712480029E+02 -0.44414867949E+01  0.35300520627E+02  0.51100000000E-03 0.  1.
         22    1    1    0    0    0 -0.17390849692E+02 -0.20418765703E+02  0.10838454261E+02  0.28928182394E+02  0.00000000000E+00 0. -1.
</event>
<event>
 5    1  0.3183383E-003  0.9118800E+02  0.7818608E-02  0.1130116E+00
         25   -1    0    0    0    0  0.00000000000E+00  0.00000000000E+00  0.99999998245E-14  0.12500000000E+03  0.12500000000E+03 0.  0.
        -11    1    3    3    0    0  0.15075807677E+02  0.34963695180E+02  0.39394926045E+02  0.54787773783E+02  0.51100000000E-03 0.  1.
         23    2    1    0    0    0  0.18561599121E+02  0.21029934323E+02 -0.24445088626E+00  0.96949138056E+02  0.92802394980E+02 0.  0.
         11    1    3    3    0    0  0.34857914440E+01 -0.13933760856E+02 -0.39639376932E+02  0.42161364273E+02  0.51100000000E-03 0. -1.
         22    1    1    0    0    0 -0.18561599121E+02 -0.21029934323E+02  0.24445088626E+00  0.28050861944E+02  0.00000000000E+00 0.  1.
</event>
<event>
 5    1  0.3183383E-003  0.9118800E+02  0.7818608E-02  0.1130116E+00
         25   -1    0    0    0    0  0.00000000000E+00  0.00000000000E+00  0.99999998245E-14  0.12500000000E+03  0.12500000000E+03 0.  0.
        -11    1    3    3    0    0 -0.51229361310E+02 -0.16237601668E+02  0.57403238220E+01  0.54046817538E+02  0.51100000000E-03 0. -1.
         23    2    1    0    0    0 -0.11809606953E+02 -0.26789916781E+02 -0.22753597541E+01  0.95634310505E+02  0.91014161680E+02 0.  0.
         11    1    3    3    0    0  0.39419754357E+02 -0.10552315112E+02 -0.80156835761E+01  0.41587492967E+02  0.51100000000E-03 0.  1.
         22    1    1    0    0    0  0.11809606953E+02  0.26789916781E+02  0.22753597541E+01  0.29365689495E+02  0.00000000000E+00 0. -1.
</event>
<event>
 5    1  0.3183383E-003  0.9118800E+02  0.7818608E-02  0.1130116E+00
         25   -1    0    0    0    0  0.00000000000E+00  0.00000000000E+00  0.99999998245E-14  0.12500000000E+03  0.12500000000E+03 0.  0.
        -11    1    3    3    0    0 -0.11061965425E+02 -0.37094779668E+02  0.15205506972E+02  0.41588426277E+02  0.51100000000E-03 0.  1.
         23    2    1    0    0    0  0.29069925117E+02 -0.29663495839E+01  0.75164057871E+01  0.94827891487E+02  0.89899793502E+02 0.  0.
         11    1    3    3    0    0  0.40131890543E+02  0.34128430084E+02 -0.76891011852E+01  0.53239465210E+02  0.51100000000E-03 0. -1.
         22    1    1    0    0    0 -0.29069925117E+02  0.29663495839E+01 -0.75164057871E+01  0.30172108513E+02  0.00000000000E+00 0. -1.
</event>
<event>
 5    1  0.3183383E-003  0.9118800E+02  0.7818608E-02  0.1130116E+00
         25   -1    0    0    0    0  0.00000000000E+00  0.00000000000E+00  0.99999998245E-14  0.12500000000E+03  0.12500000000E+03 0.  0.
        -11    1    3    3    0    0  0.48654920611E+02  0.24117321392E+02  0.17759464428E+02  0.57134447296E+02  0.51100000000E-03 0.  1.
         23    2    1    0    0    0  0.34357426479E+02 -0.74634288512E+00  0.45544564414E+00  0.90631450238E+02  0.83862164053E+02 0.  0.
         11    1    3    3    0    0 -0.14297494132E+02 -0.24863664277E+02 -0.17304018784E+02  0.33497002942E+02  0.51100000000E-03 0. -1.
         22    1    1    0    0    0 -0.34357426479E+02  0.74634288512E+00 -0.45544564414E+00  0.34368549762E+02  0.00000000000E+00 0.  1.
</event>
<event>
 5    1  0.3183383E-003  0.9118800E+02  0.7818608E-02  0.1130116E+00
         25   -1    0    0    0    0  0.00000000000E+00  0.00000000000E+00  0.99999998245E-14  0.12500000000E+03  0.12500000000E+03 0.  0.
        -11    1    3    3    0    0  0.36815283512E+02 -0.57151564734E+01 -0.33076724452E+02  0.49820656502E+02  0.51100000000E-03 0. -1.
         23    2    1    0    0    0  0.14162660438E+02 -0.29902428179E+02 -0.23829435985E+02  0.84225275218E+02  0.73697481669E+02 0.  0.
         11    1    3    3    0    0 -0.22652623074E+02 -0.24187271706E+02  0.92472884663E+01  0.34404618716E+02  0.51100000000E-03 0.  1.
         22    1    1    0    0    0 -0.14162660438E+02  0.29902428179E+02  0.23829435985E+02  0.40774724782E+02  0.00000000000E+00 0. -1.
</event>
<event>
 5    1  0.3183383E-003  0.9118800E+02  0.7818608E-02  0.1130116E+00
         25   -1    0    0    0    0  0.00000000000E+00  0.00000000000E+00  0.99999998245E-14  0.12500000000E+03  0.12500000000E+03 0.  0.
        -11    1    3    3    0    0  0.29913109611E+02 -0.21052202930E+02 -0.23481037054E+02  0.43466636357E+02  0.51100000000E-03 0.  1.
         23    2    1    0    0    0  0.90557977867E+01  0.65856246386E+01  0.21814055463E+02  0.10047998896E+03  0.97442276457E+02 0.  0.
         11    1    3    3    0    0 -0.20857311824E+02  0.27637827569E+02  0.45295092517E+02  0.57013352608E+02  0.51100000000E-03 0. -1.
         22    1    1    0    0    0 -0.90557977867E+01 -0.65856246386E+01 -0.21814055463E+02  0.24520011035E+02  0.00000000000E+00 0. -1.
</event>
<event>
 5    1  0.3183383E-003  0.9118800E+02  0.7818608E-02  0.1130116E+00
         25   -1    0    0    0    0  0.00000000000E+00  0.00000000000E+00  0.99999998245E-14  0.12500000000E+03  0.12500000000E+03 0.  0.
        -11    1    3    3    0    0  0.20959027761E+01  0.55077813701E+02 -0.26234497001E+02  0.61042667076E+02  0.51100000000E-03 0.  1.
         23    2    1    0    0    0 -0.15865007444E+01  0.29009131165E+02 -0.36702444871E+01  0.95716602483E+02  0.91127112435E+02 0.  0.
         11    1    3    3    0    0 -0.36824035205E+01 -0.26068682536E+02  0.22564252514E+02  0.34673935407E+02  0.51100000000E-03 0. -1.
         22    1    1    0    0    0  0.15865007444E+01 -0.29009131165E+02  0.36702444871E+01  0.29283397517E+02  0.00000000000E+00 0.  1.
</event>
<event>
 5    1  0.3183383E-003  0.9118800E+02  0.7818608E-02  0.1130116E+00
         25   -1    0    0    0    0  0.00000000000E+00  0.00000000000E+00  0.99999998245E-14  0.12500000000E+03  0.12500000000E+03 0.  0.
        -11    1    3    3    0    0 -0.43521310407E+02  0.35164308345E+02  0.21195027464E+02  0.59831949913E+02  0.51100000000E-03 0.  1.
         23    2    1    0    0    0 -0.14092072793E+02  0.26976003679E+02  0.58842323196E+01  0.94001363255E+02  0.88743116994E+02 0.  0.
         11    1    3    3    0    0  0.29429237614E+02 -0.81883046669E+01 -0.15310795145E+02  0.34169413342E+02  0.51100000000E-03 0. -1.
         22    1    1    0    0    0  0.14092072793E+02 -0.26976003679E+02 -0.58842323196E+01  0.30998636745E+02  0.00000000000E+00 0.  1.
</event>
<event>
 5    1  0.3183383E-003  0.9118800E+02  0.7818608E-02  0.1130116E+00
         25   -1    0    0    0    0  0.00000000000E+00  0.00000000000E+00  0.99999998245E-14  0.12500000000E+03  0.12500000000E+03 0.  0.
        -11    1    3    3    0    0 -0.26380843470E+02 -0.48916568769E+01 -0.44207663718E+02  0.51712616844E+02  0.51100000000E-03 0.  1.
         23    2    1    0    0    0  0.10290307868E+02 -0.13868231396E+02 -0.26395347722E+02  0.93457446847E+02  0.87973642142E+02 0.  0.
         11    1    3    3    0    0  0.36671151338E+02 -0.89765745191E+01  0.17812315996E+02  0.41744830003E+02  0.51100000000E-03 0. -1.
         22    1    1    0    0    0 -0.10290307868E+02  0.13868231396E+02  0.26395347722E+02  0.31542553153E+02  0.00000000000E+00 0. -1.
</event>
<event>
 5    1  0.3183383E-003  0.9118800E+02  0.7818608E-02  0.1130116E+00
         25   -1    0    0    0    0  0.00000000000E+00  0.00000000000E+00  0.99999998245E-14  0.12500000000E+03  0.12500000000E+03 0.  0.
        -11    1    3    3    0    0  0.13634916719E+02 -0.38582624369E+02 -0.55446029515E+01  0.41294944961E+02  0.51100000000E-03 0.  1.
         23    2    1    0    0    0  0.11156677212E+02  0.51590832454E+01  0.26642085383E+02  0.95659101924E+02  0.91048204161E+02 0.  0.
         11    1    3    3    0    0 -0.24782395065E+01  0.43741707615E+02  0.32186688335E+02  0.54364156963E+02  0.51100000000E-03 0. -1.
         22    1    1    0    0    0 -0.11156677212E+02 -0.51590832454E+01 -0.26642085383E+02  0.29340898076E+02  0.00000000000E+00 0. -1.
</event>
<event>
 5    1  0.3183383E-003  0.9118800E+02  0.7818608E-02  0.1130116E+00
         25   -1    0    0    0    0  0.00000000000E+00  0.00000000000E+00  0.99999998245E-14  0.12500000000E+03  0.12500000000E+03 0.  0.
        -11    1    3    3    0    0 -0.54368882943E+02 -0.99353914393E+01  0.16903807039E+02  0.57796419683E+02  0.51100000000E-03 0.  1.
         23    2    1    0    0    0 -0.21123435357E+02  0.11835119535E+02  0.12418492527E+02  0.97788081061E+02  0.93925610274E+02 0.  0.
         11    1    3    3    0    0  0.33245447586E+02  0.21770510974E+02 -0.44853145117E+01  0.39991661378E+02  0.51100000000E-03 0. -1.
         22    1    1    0    0    0  0.21123435357E+02 -0.11835119535E+02 -0.12418492527E+02  0.27211918939E+02  0.00000000000E+00 0.  1.
</event>
<event>
 5    1  0.3183383E-003  0.9118800E+02  0.7818608E-02  0.1130116E+00
         25   -1    0    0    0    0  0.00000000000E+00  0.00000000000E+00  0.99999998245E-14  0.12500000000E+03  0.12500000000E+03 0.  0.
        -11    1    3    3    0    0 -0.74077155384E+01 -0.23178291802E+02  0.42476550778E+02  0.48952679463E+02  0.51100000000E-03 0. -1.
         23    2    1    0    0    0  0.35308710422E+01 -0.30308624453E+02 -0.11232621503E+01  0.94465732621E+02  0.89394816154E+02 0.  0.
         11    1    3    3    0    0  0.10938586581E+02 -0.71303326510E+01 -0.43599812928E+02  0.45513053158E+02  0.51100000000E-03 0.  1.
         22    1    1    0    0    0 -0.35308710422E+01  0.30308624453E+02  0.11232621503E+01  0.30534267379E+02  0.00000000000E+00 0.  1.
</event>
<event>
 5    1  0.3183383E-003  0.9118800E+02  0.7818608E-02  0.1130116E+00
         25   -1    0    0    0    0  0.00000000000E+00  0.00000000000E+00  0.99999998245E-14  0.12500000000E+03  0.12500000000E+03 0.  0.
        -11    1    3    3    0    0  0.42450311450E+01 -0.23995480558E+01  0.59427635126E+02  0.59627358966E+02  0.51100000000E-03 0.  1.
         23    2    1    0    0    0  0.14954298613E+02 -0.46789716055E+01  0.27915208474E+02  0.92987772861E+02  0.87303741129E+02 0.  0.
         11    1    3    3    0    0  0.10709267468E+02 -0.22794235497E+01 -0.31512426653E+02  0.33360413895E+02  0.51100000000E-03 0. -1.
         22    1    1    0    0    0 -0.14954298613E+02  0.46789716055E+01 -0.27915208474E+02  0.32012227139E+02  0.00000000000E+00 0.  1.
</event>
<event>
 5    1  0.3183383E-003  0.9118800E+02  0.7818608E-02  0.1130116E+00
         25   -1    0    0    0    0  0.00000000000E+00  0.00000000000E+00  0.99999998245E-14  0.12500000000E+03  0.12500000000E+03 0.  0.
        -11    1    3    3    0    0 -0.12124775785E+02  0.35173988882E+02  0.12290466543E+02  0.39182588605E+02  0.51100000000E-03 0.  1.
         23    2    1    0    0    0  0.24565624735E+01 -0.19289576086E+02  0.21164954528E+02  0.96258431759E+02  0.91867338809E+02 0.  0.
         11    1    3    3    0    0  0.14581338258E+02 -0.54463564969E+02  0.88744879843E+01  0.57075843154E+02  0.51100000000E-03 0. -1.
         22    1    1    0    0    0 -0.24565624735E+01  0.19289576086E+02 -0.21164954528E+02  0.28741568241E+02  0.00000000000E+00 0. -1.
</event>
<event>
 5    1  0.3183383E-003  0.9118800E+02  0.7818608E-02  0.1130116E+00
         25   -1    0    0    0    0  0.00000000000E+00  0.00000000000E+00  0.99999998245E-14  0.12500000000E+03  0.12500000000E+03 0.  0.
        -11    1    3    3    0    0  0.71479886891E+01  0.35205466798E+02 -0.36853270058E+02  0.51465349013E+02  0.51100000000E-03 0. -1.
         23    2    1    0    0    0 -0.13425431394E+02 -0.22011686208E+01 -0.26219899482E+02  0.95460696009E+02  0.90775404170E+02 0.  0.
         11    1    3    3    0    0 -0.20573420083E+02 -0.37406635419E+02  0.10633370576E+02  0.43995346996E+02  0.51100000000E-03 0.  1.
         22    1    1    0    0    0  0.13425431394E+02  0.22011686208E+01  0.26219899482E+02  0.29539303991E+02  0.00000000000E+00 0.  1.
</event>
<event>
 5    1  0.3183383E-003  0.9118800E+02  0.7818608E-02  0.1130116E+00
         25   -1    0    0    0    0  0.00000000000E+00  0.00000000000E+00  0.99999998245E-14  0.12500000000E+03  0.12500000000E+03 0.  0.
        -11    1    3    3    0    0  0.24209090447E+02 -0.21633860714E+02 -0.26680749488E+02  0.42023402803E+02  0.51100000000E-03 0. -1.
         23    2    1    0    0    0 -0.23164106297E+02 -0.15286365660E+02  0.94733263384E+00  0.97230480113E+02  0.93180577527E+02 0.  0.
         11    1    3    3    0    0 -0.47373196744E+02  0.63474950539E+01  0.27628082121E+02  0.55207077310E+02  0.51100000000E-03 0.  1.
         22    1    1    0    0    0  0.23164106297E+02  0.15286365660E+02 -0.94733263384E+00  0.27769519887E+02  0.00000000000E+00 0.  1.
</event>
<event>
 5    1  0.3183383E-003  0.9118800E+02  0.7818608E-02  0.1130116E+00
         25   -1    0    0    0    0  0.00000000000E+00  0.00000000000E+00  0.99999998245E-14  0.12500000000E+03  0.12500000000E+03 0.  0.
        -11    1    3    3    0    0  0.27044421500E+02 -0.47139582625E+02  0.20161723875E+02  0.57965818326E+02  0.51100000000E-03 0.  1.
         23    2    1    0    0    0  0.20057337906E+02 -0.19844802587E+02 -0.57046531907E+01  0.96213613259E+02  0.91806335918E+02 0.  0.
         11    1    3    3    0    0 -0.69870835947E+01  0.27294780038E+02 -0.25866377066E+02  0.38247794933E+02  0.51100000000E-03 0. -1.
         22    1    1    0    0    0 -0.20057337906E+02  0.19844802587E+02  0.57046531907E+01  0.28786386741E+02  0.00000000000E+00 0.  1.
</event>
<event>
 5    1  0.3183383E-003  0.9118800E+02  0.7818608E-02  0.1130116E+00
         25   -1    0    0    0    0  0.00000000000E+00  0.00000000000E+00  0.99999998245E-14  0.12500000000E+03  0.12500000000E+03 0.  0.
        -11    1    3    3    0    0 -0.29054634450E+02  0.53509897483E+01  0.34825584010E+02  0.45668656387E+02  0.51100000000E-03 0. -1.
         23    2    1    0    0    0  0.19041950727E+02  0.52513291441E+01  0.21974409464E+02  0.95452630971E+02  0.90764297731E+02 0.  0.
         11    1    3    3    0    0  0.48096585177E+02 -0.99660604192E-01 -0.12851174546E+02  0.49783974584E+02  0.51100000000E-03 0.  1.
         22    1    1    0    0    0 -0.19041950727E+02 -0.52513291441E+01 -0.21974409464E+02  0.29547369029E+02  0.00000000000E+00 0.  1.
</event>
<event>
 5    1  0.3183383E-003  0.9118800E+02  0.7818608E-02  0.1130116E+00
         25   -1    0    0    0    0  0.00000000000E+00  0.00000000000E+00  0.99999998245E-14  0.12500000000E+03  0.12500000000E+03 0.  0.
        -11    1    3    3    0    0  0.13996761787E+01 -0.23145374371E+02 -0.30273610355E+02  0.38133435885E+02  0.51100000000E-03 0.  1.
         23    2    1    0    0    0  0.29584114710E+02  0.15291773156E+01  0.10563951609E+02  0.93549160583E+02  0.88103859993E+02 0.  0.
         11    1    3    3    0    0  0.28184438531E+02  0.24674551687E+02  0.40837561965E+02  0.55415724698E+02  0.51100000000E-03 0. -1.
         22    1    1    0    0    0 -0.29584114710E+02 -0.15291773156E+01 -0.10563951609E+02  0.31450839417E+02  0.00000000000E+00 0. -1.
</event>
<event>
 5    1  0.3183383E-003  0.9118800E+02  0.7818608E-02  0.1130116E+00
         25   -1    0    0    0    0  0.00000000000E+00  0.00000000000E+00  0.99999998245E-14  0.12500000000E+03  0.12500000000E+03 0.  0.
        -11    1    3    3    0    0 -0.16001193012E+01 -0.28972374528E+02  0.40989033790E+02  0.50220113091E+02  0.51100000000E-03 0. -1.
         23    2    1    0    0    0 -0.31995551836E+00 -0.26720175256E+02 -0.62716934771E+01  0.97551789197E+02  0.93610615312E+02 0.  0.
         11    1    3    3    0    0  0.12801637828E+01  0.22521992724E+01 -0.47260727267E+02  0.47331676105E+02  0.51100000000E-03 0.  1.
         22    1    1    0    0    0  0.31995551836E+00  0.26720175256E+02  0.62716934771E+01  0.27448210803E+02  0.00000000000E+00 0.  1.
</event>
<event>
 5    1  0.3183383E-003  0.9118800E+02  0.7818608E-02  0.1130116E+00
         25   -1    0    0    0    0  0.00000000000E+00  0.00000000000E+00  0.99999998245E-14  0.12500000000E+03  0.12500000000E+03 0.  0.
        -11    1    3    3    0    0  0.30294300761E+01 -0.30115989374E+02 -0.17164235536E+02  0.34795994660E+02  0.51100000000E-03 0. -1.
         23    2    1    0    0    0 -0.10684719223E+02  0.27146271073E+02 -0.12062690814E+01  0.95801740751E+02  0.91243822738E+02 0.  0.
         11    1    3    3    0    0 -0.13714149299E+02  0.57262260447E+02  0.15957966454E+02  0.61005746091E+02  0.51100000000E-03 0.  1.
         22    1    1    0    0    0  0.10684719223E+02 -0.27146271073E+02  0.12062690814E+01  0.29198259249E+02  0.00000000000E+00 0.  1.
</event>
<event>
 5    1  0.3183383E-003  0.9118800E+02  0.7818608E-02  0.1130116E+00
         25   -1    0    0    0    0  0.00000000000E+00  0.00000000000E+00  0.99999998245E-14  0.12500000000E+03  0.12500000000E+03 0.  0.
        -11    1    3    3    0    0 -0.37599999765E+02 -0.20572327848E+02  0.94093318852E+01  0.43880703985E+02  0.51100000000E-03 0.  1.
         23    2    1    0    0    0 -0.30866393454E+01 -0.10926889337E+02 -0.27453225065E+02  0.95291351099E+02  0.90541911703E+02 0.  0.
         11    1    3    3    0    0  0.34513360420E+02  0.96454385111E+01 -0.36862556950E+02  0.51410647114E+02  0.51100000000E-03 0. -1.
         22    1    1    0    0    0  0.30866393454E+01  0.10926889337E+02  0.27453225065E+02  0.29708648901E+02  0.00000000000E+00 0. -1.
</event>
<event>
 5    1  0.3183383E-003  0.9118800E+02  0.7818608E-02  0.1130116E+00
         25   -1    0    0    0    0  0.00000000000E+00  0.00000000000E+00  0.99999998245E-14  0.12500000000E+03  0.12500000000E+03 0.  0.
        -11    1    3    3    0    0  0.31670202328E+02 -0.50526683303E+02 -0.14062449864E+02  0.61267445985E+02  0.51100000000E-03 0.  1.
         23    2    1    0    0    0  0.10619537043E+02 -0.25260115899E+02 -0.14163821239E+02  0.94154224693E+02  0.88958170918E+02 0.  0.
         11    1    3    3    0    0 -0.21050665284E+02  0.25266567405E+02 -0.10137137461E+00  0.32886778707E+02  0.51100000000E-03 0. -1.
         22    1    1    0    0    0 -0.10619537043E+02  0.25260115899E+02  0.14163821239E+02  0.30845775307E+02  0.00000000000E+00 0.  1.
</event>
<event>
 5    1  0.3183383E-003  0.9118800E+02  0.7818608E-02  0.1130116E+00
         25   -1    0    0    0    0  0.00000000000E+00  0.00000000000E+00  0.99999998245E-14  0.12500000000E+03  0.12500000000E+03 0.  0.
        -11    1    3    3    0    0  0.42421272816E+02  0.25881082693E+02  0.19421680334E+02  0.53353505001E+02  0.51100000000E-03 0.  1.
         23    2    1    0    0    0  0.19474202585E+02 -0.80764185410E+01  0.22140578181E+02  0.94427491026E+02  0.89341327260E+02 0.  0.
         11    1    3    3    0    0 -0.22947070231E+02 -0.33957501234E+02  0.27188978477E+01  0.41073986025E+02  0.51100000000E-03 0. -1.
         22    1    1    0    0    0 -0.19474202585E+02  0.80764185410E+01 -0.22140578181E+02  0.30572508974E+02  0.00000000000E+00 0.  1.
</event>
<event>
 5    1  0.3183383E-003  0.9118800E+02  0.7818608E-02  0.1130116E+00
         25   -1    0    0    0    0  0.00000000000E+00  0.00000000000E+00  0.99999998245E-14  0.12500000000E+03  0.12500000000E+03 0.  0.
        -11    1    3    3    0    0 -0.31748924145E+02 -0.32053139093E+02  0.30917724951E+02  0.54692811470E+02  0.51100000000E-03 0.  1.
         23    2    1    0    0    0 -0.29381861465E+02 -0.25346451330E+01  0.30586167100E+01  0.95350828928E+02  0.90623988171E+02 0.  0.
         11    1    3    3    0    0  0.23670626807E+01  0.29518493960E+02 -0.27859108241E+02  0.40658017458E+02  0.51100000000E-03 0. -1.
         22    1    1    0    0    0  0.29381861465E+02  0.25346451330E+01 -0.30586167100E+01  0.29649171072E+02  0.00000000000E+00 0.  1.
</event>
<event>
 5    1  0.3183383E-003  0.9118800E+02  0.7818608E-02  0.1130116E+00
         25   -1    0    0    0    0  0.00000000000E+00  0.00000000000E+00  0.99999998245E-14  0.12500000000E+03  0.12500000000E+03 0.  0.
        -11    1    3    3    0    0  0.50849208659E+01  0.31256825218E+02  0.23424823359E+02  0.39389946592E+02  0.51100000000E-03 0.  1.
         23    2    1    0    0    0 -0.27307248251E+02 -0.68081788005E+01 -0.42745359606E+01  0.96534077157E+02  0.92241635335E+02 0.  0.
         11    1    3    3    0    0 -0.32392169117E+02 -0.38065004018E+02 -0.27699359319E+02  0.57144130565E+02  0.51100000000E-03 0. -1.
         22    1    1    0    0    0  0.27307248251E+02  0.68081788005E+01  0.42745359606E+01  0.28465922843E+02  0.00000000000E+00 0. -1.
</event>
<event>
 5    1  0.3183383E-003  0.9118800E+02  0.7818608E-02  0.1130116E+00
         25   -1    0    0    0    0  0.00000000000E+00  0.00000000000E+00  0.99999998245E-14  0.12500000000E+03  0.12500000000E+03 0.  0.
        -11    1    3    3    0    0  0.24153467671E+01 -0.36209027809E+02  0.19061160098E+02  0.40990918743E+02  0.51100000000E-03 0. -1.
         23    2    1    0    0    0  0.15643168316E+02  0.16666816875E+02  0.18651797683E+02  0.95497778787E+02  0.90826453728E+02 0.  0.
         11    1    3    3    0    0  0.13227821549E+02  0.52875844684E+02 -0.40936241574E+00  0.54506860044E+02  0.51100000000E-03 0.  1.
         22    1    1    0    0    0 -0.15643168316E+02 -0.16666816875E+02 -0.18651797683E+02  0.29502221213E+02  0.00000000000E+00 0.  1.
</event>
<event>
 5    1  0.3183383E-003  0.9118800E+02  0.7818608E-02  0.1130116E+00
         25   -1    0    0    0    0  0.00000000000E+00  0.00000000000E+00  0.99999998245E-14  0.12500000000E+03  0.12500000000E+03 0.  0.
        -11    1    3    3    0    0  0.21109277320E+02 -0.24220147725E+02  0.13463254299E+02  0.34834987604E+02  0.51100000000E-03 0.  1.
         23    2    1    0    0    0 -0.11447994873E+02  0.26078881921E+02  0.98637620905E+01  0.94859355159E+02  0.89943531117E+02 0.  0.
         11    1    3    3    0    0 -0.32557272192E+02  0.50299029646E+02 -0.35994922088E+01  0.60024367555E+02  0.51100000000E-03 0. -1.
         22    1    1    0    0    0  0.11447994873E+02 -0.26078881921E+02 -0.98637620905E+01  0.30140644841E+02  0.00000000000E+00 0. -1.
</event>
<event>
 5    1  0.3183383E-003  0.9118800E+02  0.7818608E-02  0.1130116E+00
         25   -1    0    0    0    0  0.00000000000E+00  0.00000000000E+00  0.99999998245E-14  0.12500000000E+03  0.12500000000E+03 0.  0.
        -11    1    3    3    0    0  0.38406772872E+02 -0.73599925020E+01 -0.19162583256E+02  0.43548298352E+02  0.51100000000E-03 0.  1.
         23    2    1    0    0    0  0.93987533206E+01 -0.10739077712E+02  0.24835284618E+02  0.96356401830E+02  0.92000545963E+02 0.  0.
         11    1    3    3    0    0 -0.29008019552E+02 -0.33790852100E+01  0.43997867874E+02  0.52808103477E+02  0.51100000000E-03 0. -1.
         22    1    1    0    0    0 -0.93987533206E+01  0.10739077712E+02 -0.24835284618E+02  0.28643598170E+02  0.00000000000E+00 0. -1.
</event>
<event>
 5    1  0.3183383E-003  0.9118800E+02  0.7818608E-02  0.1130116E+00
         25   -1    0    0    0    0  0.00000000000E+00  0.00000000000E+00  0.99999998245E-14  0.12500000000E+03  0.12500000000E+03 0.  0.
        -11    1    3    3    0    0  0.10374002620E+02 -0.24428505214E+02  0.37659188939E+02  0.46071534695E+02  0.51100000000E-03 0.  1.
         23    2    1    0    0    0 -0.11073405895E+01 -0.31386657695E+02 -0.71004144831E+01  0.92801174396E+02  0.87036162593E+02 0.  0.
         11    1    3    3    0    0 -0.11481343210E+02 -0.69581524815E+01 -0.44759603422E+02  0.46729639701E+02  0.51100000000E-03 0. -1.
         22    1    1    0    0    0  0.11073405895E+01  0.31386657695E+02  0.71004144831E+01  0.32198825604E+02  0.00000000000E+00 0. -1.
</event>
<event>
 5    1  0.3183383E-003  0.9118800E+02  0.7818608E-02  0.1130116E+00
         25   -1    0    0    0    0  0.00000000000E+00  0.00000000000E+00  0.99999998245E-14  0.12500000000E+03  0.12500000000E+03 0.  0.
        -11    1    3    3    0    0  0.48240855436E+00 -0.11961428639E+02  0.34827856030E+02  0.36827816240E+02  0.51100000000E-03 0. -1.
         23    2    1    0    0    0  0.89271833910E+01  0.23237295927E+02 -0.13085261310E+02  0.96877222953E+02  0.92705478469E+02 0.  0.
         11    1    3    3    0    0  0.84447748366E+01  0.35198724566E+02 -0.47913117340E+02  0.60049406713E+02  0.51100000000E-03 0.  1.
         22    1    1    0    0    0 -0.89271833910E+01 -0.23237295927E+02  0.13085261310E+02  0.28122777047E+02  0.00000000000E+00 0.  1.
</event>
<event>
 5    1  0.3183383E-003  0.9118800E+02  0.7818608E-02  0.1130116E+00
         25   -1    0    0    0    0  0.00000000000E+00  0.00000000000E+00  0.99999998245E-14  0.12500000000E+03  0.12500000000E+03 0.  0.
        -11    1    3    3    0    0  0.54428834577E+02 -0.18281834129E+02 -0.24312003972E+02  0.62352201485E+02  0.51100000000E-03 0.  1.
         23    2    1    0    0    0  0.27952804392E+02 -0.95161895426E+01 -0.92052988109E+01  0.94070165488E+02  0.88839976204E+02 0.  0.
         11    1    3    3    0    0 -0.26476030186E+02  0.87656445867E+01  0.15106705161E+02  0.31717964003E+02  0.51100000000E-03 0. -1.
         22    1    1    0    0    0 -0.27952804392E+02  0.95161895426E+01  0.92052988109E+01  0.30929834512E+02  0.00000000000E+00 0.  1.
</event>
<event>
 5    1  0.3183383E-003  0.9118800E+02  0.7818608E-02  0.1130116E+00
         25   -1    0    0    0    0  0.00000000000E+00  0.00000000000E+00  0.99999998245E-14  0.12500000000E+03  0.12500000000E+03 0.  0.
        -11    1    3    3    0    0  0.15465987661E+02  0.33427384211E+02 -0.16992503345E+02  0.40562691721E+02  0.51100000000E-03 0. -1.
         23    2    1    0    0    0  0.96729732748E+01 -0.22588910088E+02 -0.13445110957E+02  0.96989354174E+02  0.92856548200E+02 0.  0.
         11    1    3    3    0    0 -0.57930143863E+01 -0.56016294298E+02  0.35473923877E+01  0.56426662453E+02  0.51100000000E-03 0.  1.
         22    1    1    0    0    0 -0.96729732748E+01  0.22588910088E+02  0.13445110957E+02  0.28010645826E+02  0.00000000000E+00 0. -1.
</event>
<event>
 5    1  0.3183383E-003  0.9118800E+02  0.7818608E-02  0.1130116E+00
         25   -1    0    0    0    0  0.00000000000E+00  0.00000000000E+00  0.99999998245E-14  0.12500000000E+03  0.12500000000E+03 0.  0.
        -11    1    3    3    0    0 -0.43247790896E+02 -0.43974431904E+01  0.58144123627E+01  0.43857910523E+02  0.51100000000E-03 0.  1.
         23    2    1    0    0    0 -0.66356579269E+01  0.51770385182E+01 -0.28709010373E+02  0.95082764824E+02  0.90253483069E+02 0.  0.
         11    1    3    3    0    0  0.36612132970E+02  0.95744817085E+01 -0.34523422736E+02  0.51224854302E+02  0.51100000000E-03 0. -1.
         22    1    1    0    0    0  0.66356579269E+01 -0.51770385182E+01  0.28709010373E+02  0.29917235176E+02  0.00000000000E+00 0.  1.
</event>
<event>
 5    1  0.3183383E-003  0.9118800E+02  0.7818608E-02  0.1130116E+00
         25   -1    0    0    0    0  0.00000000000E+00  0.00000000000E+00  0.99999998245E-14  0.12500000000E+03  0.12500000000E+03 0.  0.
        -11    1    3    3    0    0 -0.45348343836E+02  0.40127652844E+02 -0.12375902588E+02  0.61805046530E+02  0.51100000000E-03 0. -1.
         23    2    1    0    0    0 -0.18890286680E+02  0.16680695895E+02 -0.11827302324E+02  0.97161651869E+02  0.93088199936E+02 0.  0.
         11    1    3    3    0    0  0.26458057156E+02 -0.23446956948E+02  0.54860026359E+00  0.35356605339E+02  0.51100000000E-03 0.  1.
         22    1    1    0    0    0  0.18890286680E+02 -0.16680695895E+02  0.11827302324E+02  0.27838348131E+02  0.00000000000E+00 0. -1.
</event>
<event>
 5    1  0.3183383E-003  0.9118800E+02  0.7818608E-02  0.1130116E+00
         25   -1    0    0    0    0  0.00000000000E+00  0.00000000000E+00  0.99999998245E-14  0.12500000000E+03  0.12500000000E+03 0.  0.
        -11    1    3    3    0    0 -0.18344020446E+02  0.39200370671E+02 -0.73948611691E+01  0.43907358368E+02  0.51100000000E-03 0.  1.
         23    2    1    0    0    0 -0.10783861449E+02 -0.72174068271E+01 -0.27142955727E+02  0.94914743234E+02  0.90020474385E+02 0.  0.
         11    1    3    3    0    0  0.75601589972E+01 -0.46417777498E+02 -0.19748094558E+02  0.51007384866E+02  0.51100000000E-03 0. -1.
         22    1    1    0    0    0  0.10783861449E+02  0.72174068271E+01  0.27142955727E+02  0.30085256766E+02  0.00000000000E+00 0.  1.
</event>
<event>
 5    1  0.3183383E-003  0.9118800E+02  0.7818608E-02  0.1130116E+00
         25   -1    0    0    0    0  0.00000000000E+00  0.00000000000E+00  0.99999998245E-14  0.12500000000E+03  0.12500000000E+03 0.  0.
        -11    1    3    3    0    0  0.23571025249E+02 -0.51499092809E+02  0.74041360929E+01  0.57118920009E+02  0.51100000000E-03 0.  1.
         23    2    1    0    0    0 -0.61966256124E+01 -0.29808623663E+02  0.76443234804E+00  0.94544514936E+02  0.89504908994E+02 0.  0.
         11    1    3    3    0    0 -0.29767650861E+02  0.21690469146E+02 -0.66397037449E+01  0.37425594927E+02  0.51100000000E-03 0. -1.
         22    1    1    0    0    0  0.61966256124E+01  0.29808623663E+02 -0.76443234804E+00  0.30455485064E+02  0.00000000000E+00 0. -1.
</event>
<event>
 5    1  0.3183383E-003  0.9118800E+02  0.7818608E-02  0.1130116E+00
         25   -1    0    0    0    0  0.00000000000E+00  0.00000000000E+00  0.99999998245E-14  0.12500000000E+03  0.12500000000E+03 0.  0.
        -11    1    3    3    0    0 -0.18888206541E+01 -0.93293205723E+01  0.43944879804E+02  0.44963944745E+02  0.51100000000E-03 0.  1.
         23    2    1    0    0    0 -0.22790107004E+02 -0.18843437156E+02 -0.97379991827E+00  0.95412631286E+02  0.90709193699E+02 0.  0.
         11    1    3    3    0    0 -0.20901286350E+02 -0.95141165840E+01 -0.44918679722E+02  0.50448686541E+02  0.51100000000E-03 0. -1.
         22    1    1    0    0    0  0.22790107004E+02  0.18843437156E+02  0.97379991827E+00  0.29587368714E+02  0.00000000000E+00 0. -1.
</event>
<event>
 5    1  0.3183383E-003  0.9118800E+02  0.7818608E-02  0.1130116E+00
         25   -1    0    0    0    0  0.00000000000E+00  0.00000000000E+00  0.99999998245E-14  0.12500000000E+03  0.12500000000E+03 0.  0.
        -11    1    3    3    0    0  0.29288817037E+02  0.54212747152E+02 -0.35322280865E+01  0.61719797413E+02  0.51100000000E-03 0.  1.
         23    2    1    0    0    0  0.91281338685E+01  0.27646212730E+02 -0.63921151092E+01  0.95192366048E+02  0.90405152021E+02 0.  0.
         11    1    3    3    0    0 -0.20160683169E+02 -0.26566534421E+02 -0.28598870227E+01  0.33472568635E+02  0.51100000000E-03 0. -1.
         22    1    1    0    0    0 -0.91281338685E+01 -0.27646212730E+02  0.63921151092E+01  0.29807633952E+02  0.00000000000E+00 0.  1.
</event>
<event>
 5    1  0.3183383E-003  0.9118800E+02  0.7818608E-02  0.1130116E+00
         25   -1    0    0    0    0  0.00000000000E+00  0.00000000000E+00  0.99999998245E-14  0.12500000000E+03  0.12500000000E+03 0.  0.
        -11    1    3    3    0    0  0.17883391481E+02  0.20682631417E+02  0.20519943834E+02  0.34185596797E+02  0.51100000000E-03 0. -1.
         23    2    1    0    0    0 -0.50944336821E+01 -0.29952321550E+02 -0.28134147739E+01  0.94487541504E+02  0.89425306127E+02 0.  0.
         11    1    3    3    0    0 -0.22977825163E+02 -0.50634952967E+02 -0.23333358608E+02  0.60301944706E+02  0.51100000000E-03 0.  1.
         22    1    1    0    0    0  0.50944336821E+01  0.29952321550E+02  0.28134147739E+01  0.30512458496E+02  0.00000000000E+00 0.  1.
</event>
<event>
 5    1  0.3183383E-003  0.9118800E+02  0.7818608E-02  0.1130116E+00
         25   -1    0    0    0    0  0.00000000000E+00  0.00000000000E+00  0.99999998245E-14  0.12500000000E+03  0.12500000000E+03 0.  0.
        -11    1    3    3    0    0 -0.34475106569E+02  0.47712374739E+02 -0.16765787003E+02  0.61205353444E+02  0.51100000000E-03 0.  1.
         23    2    1    0    0    0 -0.22493605871E+02  0.19112305842E+02 -0.23825720173E+01  0.95387178636E+02  0.90674112398E+02 0.  0.
         11    1    3    3    0    0  0.11981500697E+02 -0.28600068897E+02  0.14383214986E+02  0.34181825192E+02  0.51100000000E-03 0. -1.
         22    1    1    0    0    0  0.22493605871E+02 -0.19112305842E+02  0.23825720173E+01  0.29612821364E+02  0.00000000000E+00 0.  1.
</event>
<event>
 5    1  0.3183383E-003  0.9118800E+02  0.7818608E-02  0.1130116E+00
         25   -1    0    0    0    0  0.00000000000E+00  0.00000000000E+00  0.99999998245E-14  0.12500000000E+03  0.12500000000E+03 0.  0.
        -11    1    3    3    0    0 -0.38657068031E+02 -0.20643996639E+02 -0.40283072327E+02  0.59525367890E+02  0.51100000000E-03 0. -1.
         23    2    1    0    0    0 -0.26394648610E+02 -0.81082156193E+01 -0.80188194440E+01  0.96247224463E+02  0.91852088249E+02 0.  0.
         11    1    3    3    0    0  0.12262419421E+02  0.12535781019E+02  0.32264252883E+02  0.36721856573E+02  0.51100000000E-03 0.  1.
         22    1    1    0    0    0  0.26394648610E+02  0.81082156193E+01  0.80188194440E+01  0.28752775537E+02  0.00000000000E+00 0. -1.
</event>
<event>
 5    1  0.3183383E-003  0.9118800E+02  0.7818608E-02  0.1130116E+00
         25   -1    0    0    0    0  0.00000000000E+00  0.00000000000E+00  0.99999998245E-14  0.12500000000E+03  0.12500000000E+03 0.  0.
        -11    1    3    3    0    0 -0.35859145543E+01  0.17977048622E+02  0.30641495048E+02  0.35706221858E+02  0.51100000000E-03 0.  1.
         23    2    1    0    0    0 -0.15299346456E+00 -0.28637407568E+02 -0.67670711000E+01  0.95573519230E+02  0.90930631844E+02 0.  0.
         11    1    3    3    0    0  0.34329210897E+01 -0.46614456190E+02 -0.37408566148E+02  0.59867297372E+02  0.51100000000E-03 0. -1.
         22    1    1    0    0    0  0.15299346456E+00  0.28637407568E+02  0.67670711000E+01  0.29426480770E+02  0.00000000000E+00 0. -1.
</event>
<event>
 5    1  0.3183383E-003  0.9118800E+02  0.7818608E-02  0.1130116E+00
         25   -1    0    0    0    0  0.00000000000E+00  0.00000000000E+00  0.99999998245E-14  0.12500000000E+03  0.12500000000E+03 0.  0.
        -11    1    3    3    0    0 -0.24072347704E+02 -0.19085853563E+02 -0.14435411652E+02  0.33943023437E+02  0.51100000000E-03 0. -1.
         23    2    1    0    0    0  0.18041174649E+02  0.80745373571E+01  0.21641457466E+02  0.95690704247E+02  0.91091580631E+02 0.  0.
         11    1    3    3    0    0  0.42113522353E+02  0.27160390920E+02  0.36076869118E+02  0.61747680811E+02  0.51100000000E-03 0.  1.
         22    1    1    0    0    0 -0.18041174649E+02 -0.80745373571E+01 -0.21641457466E+02  0.29309295753E+02  0.00000000000E+00 0.  1.
</event>
<event>
 4    1  0.3183383E-003  0.9118800E+02  0.7818608E-02  0.1130116E+00
         25   -1    0    0    0    0  0.00000000000E+00  0.00000000000E+00  0.99999998245E-14  0.12500000000E+03  0.12500000000E+03 0.  0.
        -11    1    1    0    0    0  0.58578299281E+00 -0.74033018655E+01  0.16207769937E+02  0.17828175084E+02  0.51100000000E-03 0. -1.
         11    1    1    0    0    0 -0.67889161173E+01  0.55766188092E+02 -0.13307712966E+01  0.56193665737E+02  0.51100000000E-03 0.  1.
         22    1    1    0    0    0  0.62031331245E+01 -0.48362886227E+02 -0.14876998641E+02  0.50978159179E+02  0.00000000000E+00 0.  1.
</event>
<event>
 5    1  0.3183383E-003  0.9118800E+02  0.7818608E-02  0.1130116E+00
         25   -1    0    0    0    0  0.00000000000E+00  0.00000000000E+00  0.99999998245E-14  0.12500000000E+03  0.12500000000E+03 0.  0.
        -11    1    3    3    0    0  0.37279568144E+02 -0.11528570773E+02  0.34307894835E+02  0.51958693145E+02  0.51100000000E-03 0. -1.
         23    2    1    0    0    0  0.16127744866E+02 -0.27970793858E+02  0.39111780630E+01  0.92476673335E+02  0.86568864691E+02 0.  0.
         11    1    3    3    0    0 -0.21151823277E+02 -0.16442223084E+02 -0.30396716772E+02  0.40517980190E+02  0.51100000000E-03 0.  1.
         22    1    1    0    0    0 -0.16127744866E+02  0.27970793858E+02 -0.39111780630E+01  0.32523326665E+02  0.00000000000E+00 0. -1.
</event>
<event>
 5    1  0.3183383E-003  0.9118800E+02  0.7818608E-02  0.1130116E+00
         25   -1    0    0    0    0  0.00000000000E+00  0.00000000000E+00  0.99999998245E-14  0.12500000000E+03  0.12500000000E+03 0.  0.
        -11    1    3    3    0    0 -0.40156407031E+02 -0.24690553344E+02  0.41185570284E+01  0.47319371957E+02  0.51100000000E-03 0.  1.
         23    2    1    0    0    0 -0.17903863440E+02 -0.37285791213E+02  0.21643008016E+02  0.78318115414E+02  0.62885044753E+02 0.  0.
         11    1    3    3    0    0  0.22252543591E+02 -0.12595237869E+02  0.17524450988E+02  0.30998743458E+02  0.51100000000E-03 0. -1.
         22    1    1    0    0    0  0.17903863440E+02  0.37285791213E+02 -0.21643008016E+02  0.46681884586E+02  0.00000000000E+00 0.  1.
</event>
<event>
 5    1  0.3183383E-003  0.9118800E+02  0.7818608E-02  0.1130116E+00
         25   -1    0    0    0    0  0.00000000000E+00  0.00000000000E+00  0.99999998245E-14  0.12500000000E+03  0.12500000000E+03 0.  0.
        -11    1    3    3    0    0  0.78559325882E+01  0.35232093925E+02 -0.19791222398E+02  0.41166838638E+02  0.51100000000E-03 0.  1.
         23    2    1    0    0    0  0.18430188122E+02  0.27515628063E+01  0.22664825911E+02  0.95658267507E+02  0.91047058584E+02 0.  0.
         11    1    3    3    0    0  0.10574255534E+02 -0.32480531119E+02  0.42456048309E+02  0.54491428869E+02  0.51100000000E-03 0. -1.
         22    1    1    0    0    0 -0.18430188122E+02 -0.27515628063E+01 -0.22664825911E+02  0.29341732493E+02  0.00000000000E+00 0. -1.
</event>
<event>
 5    1  0.3183383E-003  0.9118800E+02  0.7818608E-02  0.1130116E+00
         25   -1    0    0    0    0  0.00000000000E+00  0.00000000000E+00  0.99999998245E-14  0.12500000000E+03  0.12500000000E+03 0.  0.
        -11    1    3    3    0    0 -0.52664954501E+02 -0.11948200743E+02 -0.13305454834E+02  0.55618270938E+02  0.51100000000E-03 0.  1.
         23    2    1    0    0    0 -0.21737363290E+02  0.13693752264E+01 -0.25529932114E+02  0.91441609320E+02  0.85061168167E+02 0.  0.
         11    1    3    3    0    0  0.30927591211E+02  0.13317575969E+02 -0.12224477279E+02  0.35823338382E+02  0.51100000000E-03 0. -1.
         22    1    1    0    0    0  0.21737363290E+02 -0.13693752264E+01  0.25529932114E+02  0.33558390680E+02  0.00000000000E+00 0.  1.
</event>
<event>
 5    1  0.3183383E-003  0.9118800E+02  0.7818608E-02  0.1130116E+00
         25   -1    0    0    0    0  0.00000000000E+00  0.00000000000E+00  0.99999998245E-14  0.12500000000E+03  0.12500000000E+03 0.  0.
        -11    1    3    3    0    0  0.50882460079E+02 -0.48709691660E+01  0.10522449428E+02  0.52186904742E+02  0.51100000000E-03 0. -1.
         23    2    1    0    0    0  0.12424182112E+02  0.10391323465E+01  0.27626873278E+02  0.94690195905E+02  0.89708132163E+02 0.  0.
         11    1    3    3    0    0 -0.38458277968E+02  0.59101015124E+01  0.17104423850E+02  0.42503291163E+02  0.51100000000E-03 0.  1.
         22    1    1    0    0    0 -0.12424182112E+02 -0.10391323465E+01 -0.27626873278E+02  0.30309804095E+02  0.00000000000E+00 0. -1.
</event>
<event>
 5    1  0.3183383E-003  0.9118800E+02  0.7818608E-02  0.1130116E+00
         25   -1    0    0    0    0  0.00000000000E+00  0.00000000000E+00  0.99999998245E-14  0.12500000000E+03  0.12500000000E+03 0.  0.
        -11    1    3    3    0    0 -0.52430075881E+02 -0.92718242023E+01 -0.18217260516E+02  0.56273867487E+02  0.51100000000E-03 0.  1.
         23    2    1    0    0    0 -0.22481478524E+02 -0.12929168875E+02  0.96336070855E+01  0.97334377471E+02  0.93319849806E+02 0.  0.
         11    1    3    3    0    0  0.29948597357E+02 -0.36573446728E+01  0.27850867602E+02  0.41060509984E+02  0.51100000000E-03 0. -1.
         22    1    1    0    0    0  0.22481478524E+02  0.12929168875E+02 -0.96336070855E+01  0.27665622529E+02  0.00000000000E+00 0.  1.
</event>
<event>
 5    1  0.3183383E-003  0.9118800E+02  0.7818608E-02  0.1130116E+00
         25   -1    0    0    0    0  0.00000000000E+00  0.00000000000E+00  0.99999998245E-14  0.12500000000E+03  0.12500000000E+03 0.  0.
        -11    1    3    3    0    0 -0.11110589615E+02  0.26901509955E+02  0.20747726060E+02  0.35743594900E+02  0.51100000000E-03 0. -1.
         23    2    1    0    0    0 -0.63166802309E+01 -0.28790417133E+02 -0.43785918480E+00  0.95521528389E+02  0.90859133263E+02 0.  0.
         11    1    3    3    0    0  0.47939093845E+01 -0.55691927088E+02 -0.21185585244E+02  0.59777933490E+02  0.51100000000E-03 0.  1.
         22    1    1    0    0    0  0.63166802309E+01  0.28790417133E+02  0.43785918480E+00  0.29478471611E+02  0.00000000000E+00 0.  1.
</event>
<event>
 5    1  0.3183383E-003  0.9118800E+02  0.7818608E-02  0.1130116E+00
         25   -1    0    0    0    0  0.00000000000E+00  0.00000000000E+00  0.99999998245E-14  0.12500000000E+03  0.12500000000E+03 0.  0.
        -11    1    3    3    0    0 -0.12277442878E+02 -0.26109705319E+02  0.38054292933E+02  0.47755434522E+02  0.51100000000E-03 0.  1.
         23    2    1    0    0    0  0.17520125129E+02  0.68986692521E+01  0.24210982048E+02  0.94328872311E+02  0.89203240288E+02 0.  0.
         11    1    3    3    0    0  0.29797568007E+02  0.33008374571E+02 -0.13843310885E+02  0.46573437789E+02  0.51100000000E-03 0. -1.
         22    1    1    0    0    0 -0.17520125129E+02 -0.68986692521E+01 -0.24210982048E+02  0.30671127689E+02  0.00000000000E+00 0. -1.
</event>
<event>
 5    1  0.3183383E-003  0.9118800E+02  0.7818608E-02  0.1130116E+00
         25   -1    0    0    0    0  0.00000000000E+00  0.00000000000E+00  0.99999998245E-14  0.12500000000E+03  0.12500000000E+03 0.  0.
        -11    1    3    3    0    0 -0.12790129226E+02 -0.36202683659E+00 -0.20905176246E+02  0.24510097168E+02  0.51100000000E-03 0. -1.
         23    2    1    0    0    0  0.41704989706E+01 -0.48248178608E+01  0.38256010479E+02  0.86216056585E+02  0.77000091858E+02 0.  0.
         11    1    3    3    0    0  0.16960628196E+02 -0.44627910242E+01  0.59161186725E+02  0.61705959417E+02  0.51100000000E-03 0.  1.
         22    1    1    0    0    0 -0.41704989706E+01  0.48248178608E+01 -0.38256010479E+02  0.38783943415E+02  0.00000000000E+00 0.  1.
</event>
<event>
 5    1  0.3183383E-003  0.9118800E+02  0.7818608E-02  0.1130116E+00
         25   -1    0    0    0    0  0.00000000000E+00  0.00000000000E+00  0.99999998245E-14  0.12500000000E+03  0.12500000000E+03 0.  0.
        -11    1    3    3    0    0 -0.66856822399E+01  0.36288070107E+02  0.73100158332E+01  0.37615936926E+02  0.51100000000E-03 0. -1.
         23    2    1    0    0    0  0.87529444410E+01 -0.22074284586E+02 -0.80801487690E+01  0.99916601496E+02  0.96716856721E+02 0.  0.
         11    1    3    3    0    0  0.15438626681E+02 -0.58362354693E+02 -0.15390164602E+02  0.62300664570E+02  0.51100000000E-03 0.  1.
         22    1    1    0    0    0 -0.87529444410E+01  0.22074284586E+02  0.80801487690E+01  0.25083398504E+02  0.00000000000E+00 0.  1.
</event>
<event>
 5    1  0.3183383E-003  0.9118800E+02  0.7818608E-02  0.1130116E+00
         25   -1    0    0    0    0  0.00000000000E+00  0.00000000000E+00  0.99999998245E-14  0.12500000000E+03  0.12500000000E+03 0.  0.
        -11    1    3    3    0    0  0.10105539662E+02 -0.38500651763E+02  0.14329320319E+02  0.42305455193E+02  0.51100000000E-03 0.  1.
         23    2    1    0    0    0 -0.55704065548E+01 -0.95994978828E+01 -0.27403676441E+02  0.95434119812E+02  0.90738800703E+02 0.  0.
         11    1    3    3    0    0 -0.15675946217E+02  0.28901153880E+02 -0.41732996760E+02  0.53128664619E+02  0.51100000000E-03 0. -1.
         22    1    1    0    0    0  0.55704065548E+01  0.95994978828E+01  0.27403676441E+02  0.29565880188E+02  0.00000000000E+00 0.  1.
</event>
<event>
 5    1  0.3183383E-003  0.9118800E+02  0.7818608E-02  0.1130116E+00
         25   -1    0    0    0    0  0.00000000000E+00  0.00000000000E+00  0.99999998245E-14  0.12500000000E+03  0.12500000000E+03 0.  0.
        -11    1    3    3    0    0  0.45231258965E+02  0.33626016261E+02  0.15824837380E+02  0.58540594766E+02  0.51100000000E-03 0. -1.
         23    2    1    0    0    0  0.17038393498E+02  0.84180178781E+01  0.20960403261E+02  0.96706743156E+02  0.92475325298E+02 0.  0.
         11    1    3    3    0    0 -0.28192865468E+02 -0.25207998382E+02  0.51355658812E+01  0.38166148390E+02  0.51100000000E-03 0.  1.
         22    1    1    0    0    0 -0.17038393498E+02 -0.84180178781E+01 -0.20960403261E+02  0.28293256844E+02  0.00000000000E+00 0. -1.
</event>
<event>
 5    1  0.3183383E-003  0.9118800E+02  0.7818608E-02  0.1130116E+00
         25   -1    0    0    0    0  0.00000000000E+00  0.00000000000E+00  0.99999998245E-14  0.12500000000E+03  0.12500000000E+03 0.  0.
        -11    1    3    3    0    0  0.21107795919E+02  0.41490461063E+01  0.29809894193E+02  0.36761167340E+02  0.51100000000E-03 0. -1.
         23    2    1    0    0    0  0.10702016726E+02  0.81601595307E+01 -0.27094031284E+02  0.94747596843E+02  0.89788079447E+02 0.  0.
         11    1    3    3    0    0 -0.10405779194E+02  0.40111134244E+01 -0.56903925477E+02  0.57986429503E+02  0.51100000000E-03 0.  1.
         22    1    1    0    0    0 -0.10702016726E+02 -0.81601595307E+01  0.27094031284E+02  0.30252403157E+02  0.00000000000E+00 0.  1.
</event>
<event>
 5    1  0.3183383E-003  0.9118800E+02  0.7818608E-02  0.1130116E+00
         25   -1    0    0    0    0  0.00000000000E+00  0.00000000000E+00  0.99999998245E-14  0.12500000000E+03  0.12500000000E+03 0.  0.
        -11    1    3    3    0    0 -0.23195403216E+02 -0.29785114512E+02  0.17659738559E+02  0.41677885540E+02  0.51100000000E-03 0.  1.
         23    2    1    0    0    0 -0.16879952890E+02 -0.23307539737E+02 -0.25970442536E+02  0.86236123728E+02  0.77032661462E+02 0.  0.
         11    1    3    3    0    0  0.63154503260E+01  0.64775747757E+01 -0.43630181095E+02  0.44558238188E+02  0.51100000000E-03 0. -1.
         22    1    1    0    0    0  0.16879952890E+02  0.23307539737E+02  0.25970442536E+02  0.38763876272E+02  0.00000000000E+00 0.  1.
</event>
<event>
 5    1  0.3183383E-003  0.9118800E+02  0.7818608E-02  0.1130116E+00
         25   -1    0    0    0    0  0.00000000000E+00  0.00000000000E+00  0.99999998245E-14  0.12500000000E+03  0.12500000000E+03 0.  0.
        -11    1    3    3    0    0 -0.11411908562E+02 -0.20901639223E+02  0.18830514974E+02  0.30359487375E+02  0.51100000000E-03 0. -1.
         23    2    1    0    0    0  0.35425353532E+02  0.94595003244E+01  0.39808197994E+01  0.88117961749E+02  0.80028060312E+02 0.  0.
         11    1    3    3    0    0  0.46837262094E+02  0.30361139547E+02 -0.14849695174E+02  0.57758474375E+02  0.51100000000E-03 0.  1.
         22    1    1    0    0    0 -0.35425353532E+02 -0.94595003244E+01 -0.39808197994E+01  0.36882038251E+02  0.00000000000E+00 0.  1.
</event>
<event>
 5    1  0.3183383E-003  0.9118800E+02  0.7818608E-02  0.1130116E+00
         25   -1    0    0    0    0  0.00000000000E+00  0.00000000000E+00  0.99999998245E-14  0.12500000000E+03  0.12500000000E+03 0.  0.
        -11    1    3    3    0    0  0.38971713575E+02 -0.21725475154E+02 -0.13952026269E+01  0.44640086473E+02  0.51100000000E-03 0.  1.
         23    2    1    0    0    0 -0.87851304143E+01 -0.24846220034E+02 -0.15362880692E+02  0.94495389372E+02  0.89436275320E+02 0.  0.
         11    1    3    3    0    0 -0.47756843989E+02 -0.31207448801E+01 -0.13967678065E+02  0.49855302900E+02  0.51100000000E-03 0. -1.
         22    1    1    0    0    0  0.87851304143E+01  0.24846220034E+02  0.15362880692E+02  0.30504610628E+02  0.00000000000E+00 0. -1.
</event>
<event>
 5    1  0.3183383E-003  0.9118800E+02  0.7818608E-02  0.1130116E+00
         25   -1    0    0    0    0  0.00000000000E+00  0.00000000000E+00  0.99999998245E-14  0.12500000000E+03  0.12500000000E+03 0.  0.
        -11    1    3    3    0    0  0.63561238126E+01  0.37489023835E+02  0.38651768102E+02  0.54219797083E+02  0.51100000000E-03 0.  1.
         23    2    1    0    0    0  0.24107727383E+02  0.10050044566E+02  0.12666929410E+02  0.95971789307E+02  0.91476485103E+02 0.  0.
         11    1    3    3    0    0  0.17751603570E+02 -0.27438979269E+02 -0.25984838691E+02  0.41751992224E+02  0.51100000000E-03 0. -1.
         22    1    1    0    0    0 -0.24107727383E+02 -0.10050044566E+02 -0.12666929410E+02  0.29028210693E+02  0.00000000000E+00 0. -1.
</event>
<event>
 5    1  0.3183383E-003  0.9118800E+02  0.7818608E-02  0.1130116E+00
         25   -1    0    0    0    0  0.00000000000E+00  0.00000000000E+00  0.99999998245E-14  0.12500000000E+03  0.12500000000E+03 0.  0.
        -11    1    3    3    0    0  0.10291902870E+02  0.18828036474E+02 -0.13763923438E+02  0.25492426539E+02  0.51100000000E-03 0.  1.
         23    2    1    0    0    0  0.82702973031E+01  0.78721798978E+01  0.41546190581E+02  0.81913401322E+02  0.69665991205E+02 0.  0.
         11    1    3    3    0    0 -0.20216055669E+01 -0.10955856577E+02  0.55310114019E+02  0.56420974783E+02  0.51100000000E-03 0. -1.
         22    1    1    0    0    0 -0.82702973031E+01 -0.78721798978E+01 -0.41546190581E+02  0.43086598678E+02  0.00000000000E+00 0. -1.
</event>
<event>
 5    1  0.3183383E-003  0.9118800E+02  0.7818608E-02  0.1130116E+00
         25   -1    0    0    0    0  0.00000000000E+00  0.00000000000E+00  0.99999998245E-14  0.12500000000E+03  0.12500000000E+03 0.  0.
        -11    1    3    3    0    0 -0.51147227562E+01  0.47341375146E+02  0.29182208124E+02  0.55847716702E+02  0.51100000000E-03 0.  1.
         23    2    1    0    0    0 -0.20106033659E+02  0.22275426300E+02  0.34103057391E+01  0.94799380941E+02  0.89860142639E+02 0.  0.
         11    1    3    3    0    0 -0.14991310903E+02 -0.25065948846E+02 -0.25771902385E+02  0.38951664238E+02  0.51100000000E-03 0. -1.
         22    1    1    0    0    0  0.20106033659E+02 -0.22275426300E+02 -0.34103057391E+01  0.30200619059E+02  0.00000000000E+00 0.  1.
</event>
<event>
 5    1  0.3183383E-003  0.9118800E+02  0.7818608E-02  0.1130116E+00
         25   -1    0    0    0    0  0.00000000000E+00  0.00000000000E+00  0.99999998245E-14  0.12500000000E+03  0.12500000000E+03 0.  0.
        -11    1    3    3    0    0  0.33337193227E+02  0.24955440860E+02 -0.35742973524E+02  0.54878981745E+02  0.51100000000E-03 0.  1.
         23    2    1    0    0    0  0.28195616543E+02  0.47326420815E+01  0.16503040972E+00  0.96409478347E+02  0.92072632127E+02 0.  0.
         11    1    3    3    0    0 -0.51415766833E+01 -0.20222798779E+02  0.35908003934E+02  0.41530496602E+02  0.51100000000E-03 0. -1.
         22    1    1    0    0    0 -0.28195616543E+02 -0.47326420815E+01 -0.16503040972E+00  0.28590521653E+02  0.00000000000E+00 0.  1.
</event>
<event>
 5    1  0.3183383E-003  0.9118800E+02  0.7818608E-02  0.1130116E+00
         25   -1    0    0    0    0  0.00000000000E+00  0.00000000000E+00  0.99999998245E-14  0.12500000000E+03  0.12500000000E+03 0.  0.
        -11    1    3    3    0    0  0.46677897423E+02 -0.19518583080E+00 -0.36599389135E+02  0.59315929485E+02  0.51100000000E-03 0.  1.
         23    2    1    0    0    0  0.18709670869E+02  0.13588151134E+02 -0.18645613244E+02  0.95295647987E+02  0.90547843689E+02 0.  0.
         11    1    3    3    0    0 -0.27968226555E+02  0.13783336965E+02  0.17953775890E+02  0.35979718502E+02  0.51100000000E-03 0. -1.
         22    1    1    0    0    0 -0.18709670869E+02 -0.13588151134E+02  0.18645613244E+02  0.29704352013E+02  0.00000000000E+00 0.  1.
</event>
<event>
 5    1  0.3183383E-003  0.9118800E+02  0.7818608E-02  0.1130116E+00
         25   -1    0    0    0    0  0.00000000000E+00  0.00000000000E+00  0.99999998245E-14  0.12500000000E+03  0.12500000000E+03 0.  0.
        -11    1    3    3    0    0  0.37062162216E+02 -0.11087002052E+02 -0.90420671886E+01  0.39727628445E+02  0.51100000000E-03 0. -1.
         23    2    1    0    0    0 -0.12701052536E+02 -0.12540017371E+02  0.20658990161E+02  0.97698669525E+02  0.93806542316E+02 0.  0.
         11    1    3    3    0    0 -0.49763214752E+02 -0.14530153198E+01  0.29701057350E+02  0.57971041080E+02  0.51100000000E-03 0.  1.
         22    1    1    0    0    0  0.12701052536E+02  0.12540017371E+02 -0.20658990161E+02  0.27301330475E+02  0.00000000000E+00 0.  1.
</event>
<event>
 5    1  0.3183383E-003  0.9118800E+02  0.7818608E-02  0.1130116E+00
         25   -1    0    0    0    0  0.00000000000E+00  0.00000000000E+00  0.99999998245E-14  0.12500000000E+03  0.12500000000E+03 0.  0.
        -11    1    3    3    0    0  0.21866413293E+00 -0.16338014877E+02  0.37852634194E+02  0.41228636405E+02  0.51100000000E-03 0. -1.
         23    2    1    0    0    0 -0.27025959175E+02  0.10278168128E+02 -0.15673954197E+01  0.96043136603E+02  0.91573927244E+02 0.  0.
         11    1    3    3    0    0 -0.27244623308E+02  0.26616183005E+02 -0.39420029614E+02  0.54814500198E+02  0.51100000000E-03 0.  1.
         22    1    1    0    0    0  0.27025959175E+02 -0.10278168128E+02  0.15673954197E+01  0.28956863397E+02  0.00000000000E+00 0.  1.
</event>
<event>
 5    1  0.3183383E-003  0.9118800E+02  0.7818608E-02  0.1130116E+00
         25   -1    0    0    0    0  0.00000000000E+00  0.00000000000E+00  0.99999998245E-14  0.12500000000E+03  0.12500000000E+03 0.  0.
        -11    1    3    3    0    0 -0.42468197931E+02 -0.22266748997E+02 -0.15947222910E+02  0.50533848708E+02  0.51100000000E-03 0.  1.
         23    2    1    0    0    0 -0.83093672152E+01  0.22915085442E+01 -0.29130011877E+02  0.94621484782E+02  0.89612338411E+02 0.  0.
         11    1    3    3    0    0  0.34158830716E+02  0.24558257541E+02 -0.13182788967E+02  0.44087636074E+02  0.51100000000E-03 0. -1.
         22    1    1    0    0    0  0.83093672152E+01 -0.22915085442E+01  0.29130011877E+02  0.30378515218E+02  0.00000000000E+00 0. -1.
</event>
<event>
 5    1  0.3183383E-003  0.9118800E+02  0.7818608E-02  0.1130116E+00
         25   -1    0    0    0    0  0.00000000000E+00  0.00000000000E+00  0.99999998245E-14  0.12500000000E+03  0.12500000000E+03 0.  0.
        -11    1    3    3    0    0  0.13238883817E+02 -0.26399898642E+02 -0.22770703318E+02  0.37292460671E+02  0.51100000000E-03 0. -1.
         23    2    1    0    0    0 -0.25198920119E+02 -0.42163064227E+01  0.14829367187E+02  0.95458961660E+02  0.90773015897E+02 0.  0.
         11    1    3    3    0    0 -0.38437803936E+02  0.22183592220E+02  0.37600070504E+02  0.58166500990E+02  0.51100000000E-03 0.  1.
         22    1    1    0    0    0  0.25198920119E+02  0.42163064227E+01 -0.14829367187E+02  0.29541038340E+02  0.00000000000E+00 0.  1.
</event>
<event>
 5    1  0.3183383E-003  0.9118800E+02  0.7818608E-02  0.1130116E+00
         25   -1    0    0    0    0  0.00000000000E+00  0.00000000000E+00  0.99999998245E-14  0.12500000000E+03  0.12500000000E+03 0.  0.
        -11    1    3    3    0    0 -0.23752501744E+02 -0.42498136234E+02 -0.18732728064E+02  0.52165007653E+02  0.51100000000E-03 0.  1.
         23    2    1    0    0    0  0.48185097570E+01 -0.98526404605E+01 -0.26575149344E+02  0.96250545693E+02  0.91856607945E+02 0.  0.
         11    1    3    3    0    0  0.28571011501E+02  0.32645495773E+02 -0.78424212800E+01  0.44085538040E+02  0.51100000000E-03 0. -1.
         22    1    1    0    0    0 -0.48185097570E+01  0.98526404605E+01  0.26575149344E+02  0.28749454307E+02  0.00000000000E+00 0.  1.
</event>
<event>
 5    1  0.3183383E-003  0.9118800E+02  0.7818608E-02  0.1130116E+00
         25   -1    0    0    0    0  0.00000000000E+00  0.00000000000E+00  0.99999998245E-14  0.12500000000E+03  0.12500000000E+03 0.  0.
        -11    1    3    3    0    0 -0.54917484919E+02 -0.98212193580E+01 -0.14033318768E+01  0.55806413969E+02  0.51100000000E-03 0.  1.
         23    2    1    0    0    0 -0.24276498577E+02  0.11071114385E+02  0.12657283094E+02  0.95468241295E+02  0.90785793623E+02 0.  0.
         11    1    3    3    0    0  0.30640986342E+02  0.20892333743E+02  0.14060614971E+02  0.39661827326E+02  0.51100000000E-03 0. -1.
         22    1    1    0    0    0  0.24276498577E+02 -0.11071114385E+02 -0.12657283094E+02  0.29531758705E+02  0.00000000000E+00 0.  1.
</event>
<event>
 5    1  0.3183383E-003  0.9118800E+02  0.7818608E-02  0.1130116E+00
         25   -1    0    0    0    0  0.00000000000E+00  0.00000000000E+00  0.99999998245E-14  0.12500000000E+03  0.12500000000E+03 0.  0.
        -11    1    3    3    0    0  0.18096845302E+02 -0.13006718539E+02 -0.26318657028E+02  0.34486841622E+02  0.51100000000E-03 0.  1.
         23    2    1    0    0    0 -0.24802662043E+02  0.93806825070E+01  0.11691114669E+02  0.96019810026E+02  0.91542080524E+02 0.  0.
         11    1    3    3    0    0 -0.42899507345E+02  0.22387401046E+02  0.38009771697E+02  0.61532968405E+02  0.51100000000E-03 0. -1.
         22    1    1    0    0    0  0.24802662043E+02 -0.93806825070E+01 -0.11691114669E+02  0.28980189974E+02  0.00000000000E+00 0. -1.
</event>
<event>
 5    1  0.3183383E-003  0.9118800E+02  0.7818608E-02  0.1130116E+00
         25   -1    0    0    0    0  0.00000000000E+00  0.00000000000E+00  0.99999998245E-14  0.12500000000E+03  0.12500000000E+03 0.  0.
        -11    1    3    3    0    0 -0.44058444085E+02 -0.16119098356E+02  0.90608574759E+01  0.47781491871E+02  0.51100000000E-03 0. -1.
         23    2    1    0    0    0 -0.15507480532E+02  0.20751635113E+02 -0.86856920843E+01  0.97676867689E+02  0.93777486222E+02 0.  0.
         11    1    3    3    0    0  0.28550963553E+02  0.36870733470E+02 -0.17746549560E+02  0.49895375817E+02  0.51100000000E-03 0.  1.
         22    1    1    0    0    0  0.15507480532E+02 -0.20751635113E+02  0.86856920843E+01  0.27323132311E+02  0.00000000000E+00 0.  1.
</event>
<event>
 5    1  0.3183383E-003  0.9118800E+02  0.7818608E-02  0.1130116E+00
         25   -1    0    0    0    0  0.00000000000E+00  0.00000000000E+00  0.99999998245E-14  0.12500000000E+03  0.12500000000E+03 0.  0.
        -11    1    3    3    0    0  0.11026359794E+02  0.26138803430E+02 -0.44396732872E+02  0.52686692296E+02  0.51100000000E-03 0. -1.
         23    2    1    0    0    0  0.27985783557E+02  0.65789475681E+01 -0.12811463650E+02  0.93525879944E+02  0.88070823694E+02 0.  0.
         11    1    3    3    0    0  0.16959423763E+02 -0.19559855862E+02  0.31585269222E+02  0.40839187649E+02  0.51100000000E-03 0.  1.
         22    1    1    0    0    0 -0.27985783557E+02 -0.65789475681E+01  0.12811463650E+02  0.31474120056E+02  0.00000000000E+00 0. -1.
</event>
<event>
 5    1  0.3183383E-003  0.9118800E+02  0.7818608E-02  0.1130116E+00
         25   -1    0    0    0    0  0.00000000000E+00  0.00000000000E+00  0.99999998245E-14  0.12500000000E+03  0.12500000000E+03 0.  0.
        -11    1    3    3    0    0  0.38935405034E+02  0.24372146796E+02  0.34076843761E+01  0.46060608090E+02  0.51100000000E-03 0.  1.
         23    2    1    0    0    0 -0.43936895805E+01  0.19355585116E+02  0.23631226822E+02  0.94139376798E+02  0.88937304882E+02 0.  0.
         11    1    3    3    0    0 -0.43329094614E+02 -0.50165616806E+01  0.20223542445E+02  0.48078768708E+02  0.51100000000E-03 0. -1.
         22    1    1    0    0    0  0.43936895805E+01 -0.19355585116E+02 -0.23631226822E+02  0.30860623202E+02  0.00000000000E+00 0.  1.
</event>
<event>
 5    1  0.3183383E-003  0.9118800E+02  0.7818608E-02  0.1130116E+00
         25   -1    0    0    0    0  0.00000000000E+00  0.00000000000E+00  0.99999998245E-14  0.12500000000E+03  0.12500000000E+03 0.  0.
        -11    1    3    3    0    0  0.42591473494E+02  0.36358872014E+02  0.26466138540E+02  0.61939144957E+02  0.51100000000E-03 0. -1.
         23    2    1    0    0    0  0.11411241398E+02  0.15440120741E+02  0.51216237479E+01  0.10512929824E+03  0.10323431871E+03 0.  0.
         11    1    3    3    0    0 -0.31180232096E+02 -0.20918751273E+02 -0.21344514792E+02  0.43190153280E+02  0.51100000000E-03 0.  1.
         22    1    1    0    0    0 -0.11411241398E+02 -0.15440120741E+02 -0.51216237479E+01  0.19870701763E+02  0.00000000000E+00 0. -1.
</event>
<event>
 5    1  0.3183383E-003  0.9118800E+02  0.7818608E-02  0.1130116E+00
         25   -1    0    0    0    0  0.00000000000E+00  0.00000000000E+00  0.99999998245E-14  0.12500000000E+03  0.12500000000E+03 0.  0.
        -11    1    3    3    0    0 -0.13102315647E+02 -0.44075745557E+02  0.30080449905E+02  0.54947024382E+02  0.51100000000E-03 0.  1.
         23    2    1    0    0    0 -0.21782662940E+02 -0.76945247146E+01  0.21760059831E+02  0.93263738103E+02  0.87697973327E+02 0.  0.
         11    1    3    3    0    0 -0.86803472932E+01  0.36381220842E+02 -0.83203900736E+01  0.38316713720E+02  0.51100000000E-03 0. -1.
         22    1    1    0    0    0  0.21782662940E+02  0.76945247146E+01 -0.21760059831E+02  0.31736261897E+02  0.00000000000E+00 0.  1.
</event>
<event>
 5    1  0.3183383E-003  0.9118800E+02  0.7818608E-02  0.1130116E+00
         25   -1    0    0    0    0  0.00000000000E+00  0.00000000000E+00  0.99999998245E-14  0.12500000000E+03  0.12500000000E+03 0.  0.
        -11    1    3    3    0    0  0.26541485838E+01  0.58227057206E+02  0.43437331242E+01  0.58449146387E+02  0.51100000000E-03 0. -1.
         23    2    1    0    0    0  0.14124737768E+02  0.30869644377E+02  0.11840659961E+02  0.89046635912E+02  0.81465692030E+02 0.  0.
         11    1    3    3    0    0  0.11470589184E+02 -0.27357412830E+02  0.74969268371E+01  0.30597489525E+02  0.51100000000E-03 0.  1.
         22    1    1    0    0    0 -0.14124737768E+02 -0.30869644377E+02 -0.11840659961E+02  0.35953364088E+02  0.00000000000E+00 0. -1.
</event>
<event>
 5    1  0.3183383E-003  0.9118800E+02  0.7818608E-02  0.1130116E+00
         25   -1    0    0    0    0  0.00000000000E+00  0.00000000000E+00  0.99999998245E-14  0.12500000000E+03  0.12500000000E+03 0.  0.
        -11    1    3    3    0    0  0.12135940763E+02 -0.16605741654E+02 -0.32454774767E+02  0.38423223701E+02  0.51100000000E-03 0.  1.
         23    2    1    0    0    0 -0.87148859603E+01 -0.19840516846E+02  0.20340663860E+02  0.95278998128E+02  0.90524855879E+02 0.  0.
         11    1    3    3    0    0 -0.20850826723E+02 -0.32347751912E+01  0.52795438628E+02  0.56855774427E+02  0.51100000000E-03 0. -1.
         22    1    1    0    0    0  0.87148859603E+01  0.19840516846E+02 -0.20340663860E+02  0.29721001872E+02  0.00000000000E+00 0. -1.
</event>
<event>
 5    1  0.3183383E-003  0.9118800E+02  0.7818608E-02  0.1130116E+00
         25   -1    0    0    0    0  0.00000000000E+00  0.00000000000E+00  0.99999998245E-14  0.12500000000E+03  0.12500000000E+03 0.  0.
        -11    1    3    3    0    0 -0.19890540798E+02 -0.54747217426E+01  0.29638800010E+02  0.36111835424E+02  0.51100000000E-03 0.  1.
         23    2    1    0    0    0  0.20223240809E+02 -0.42733785113E+01 -0.17426715733E+02  0.97964252295E+02  0.94159774181E+02 0.  0.
         11    1    3    3    0    0  0.40113781607E+02  0.12013432313E+01 -0.47065515743E+02  0.61852416871E+02  0.51100000000E-03 0. -1.
         22    1    1    0    0    0 -0.20223240809E+02  0.42733785113E+01  0.17426715733E+02  0.27035747705E+02  0.00000000000E+00 0. -1.
</event>
<event>
 5    1  0.3183383E-003  0.9118800E+02  0.7818608E-02  0.1130116E+00
         25   -1    0    0    0    0  0.00000000000E+00  0.00000000000E+00  0.99999998245E-14  0.12500000000E+03  0.12500000000E+03 0.  0.
        -11    1    3    3    0    0  0.38882409467E+02  0.72648599894E+00 -0.86208264629E+01  0.39833254914E+02  0.51100000000E-03 0.  1.
         23    2    1    0    0    0 -0.12850127031E+01  0.12745356278E+02  0.27171624809E+02  0.94960150482E+02  0.90083503598E+02 0.  0.
         11    1    3    3    0    0 -0.40167422170E+02  0.12018870279E+02  0.35792451272E+02  0.55126895568E+02  0.51100000000E-03 0. -1.
         22    1    1    0    0    0  0.12850127031E+01 -0.12745356278E+02 -0.27171624809E+02  0.30039849518E+02  0.00000000000E+00 0. -1.
</event>
<event>
 5    1  0.3183383E-003  0.9118800E+02  0.7818608E-02  0.1130116E+00
         25   -1    0    0    0    0  0.00000000000E+00  0.00000000000E+00  0.99999998245E-14  0.12500000000E+03  0.12500000000E+03 0.  0.
        -11    1    3    3    0    0 -0.29952104562E+02  0.17824301546E+02  0.89020295951E+01  0.35973329349E+02  0.51100000000E-03 0.  1.
         23    2    1    0    0    0  0.11335097635E+02  0.15979972586E+02 -0.27626919820E+02  0.91131273112E+02  0.84603890443E+02 0.  0.
         11    1    3    3    0    0  0.41287202197E+02 -0.18443289595E+01 -0.36528949415E+02  0.55157943763E+02  0.51100000000E-03 0. -1.
         22    1    1    0    0    0 -0.11335097635E+02 -0.15979972586E+02  0.27626919820E+02  0.33868726888E+02  0.00000000000E+00 0. -1.
</event>
<event>
 5    1  0.3183383E-003  0.9118800E+02  0.7818608E-02  0.1130116E+00
         25   -1    0    0    0    0  0.00000000000E+00  0.00000000000E+00  0.99999998245E-14  0.12500000000E+03  0.12500000000E+03 0.  0.
        -11    1    3    3    0    0  0.29467080799E+02  0.20539241616E+01  0.38984196502E+02  0.48911093143E+02  0.51100000000E-03 0.  1.
         23    2    1    0    0    0 -0.10092580081E+02 -0.15625223287E+02  0.23730575304E+02  0.94847919148E+02  0.89927636392E+02 0.  0.
         11    1    3    3    0    0 -0.39559660880E+02 -0.17679147449E+02 -0.15253621199E+02  0.45936826005E+02  0.51100000000E-03 0. -1.
         22    1    1    0    0    0  0.10092580081E+02  0.15625223287E+02 -0.23730575304E+02  0.30152080852E+02  0.00000000000E+00 0. -1.
</event>
<event>
 5    1  0.3183383E-003  0.9118800E+02  0.7818608E-02  0.1130116E+00
         25   -1    0    0    0    0  0.00000000000E+00  0.00000000000E+00  0.99999998245E-14  0.12500000000E+03  0.12500000000E+03 0.  0.
        -11    1    3    3    0    0 -0.23639139548E+02 -0.12819388935E+02  0.26491830509E+02  0.37748678589E+02  0.51100000000E-03 0. -1.
         23    2    1    0    0    0  0.15734608345E+02 -0.17881349670E+02 -0.16314948495E+02  0.96129632663E+02  0.91691919850E+02 0.  0.
         11    1    3    3    0    0  0.39373747893E+02 -0.50619607348E+01 -0.42806779004E+02  0.58380954074E+02  0.51100000000E-03 0.  1.
         22    1    1    0    0    0 -0.15734608345E+02  0.17881349670E+02  0.16314948495E+02  0.28870367337E+02  0.00000000000E+00 0.  1.
</event>
<event>
 5    1  0.3183383E-003  0.9118800E+02  0.7818608E-02  0.1130116E+00
         25   -1    0    0    0    0  0.00000000000E+00  0.00000000000E+00  0.99999998245E-14  0.12500000000E+03  0.12500000000E+03 0.  0.
        -11    1    3    3    0    0  0.27357495634E+02  0.98833241249E+01 -0.19218310567E+02  0.34863392325E+02  0.51100000000E-03 0.  1.
         23    2    1    0    0    0 -0.58341588340E+01  0.30189123271E+01  0.29814380583E+02  0.94470530131E+02  0.89401524219E+02 0.  0.
         11    1    3    3    0    0 -0.33191654468E+02 -0.68644117978E+01  0.49032691150E+02  0.59607137805E+02  0.51100000000E-03 0. -1.
         22    1    1    0    0    0  0.58341588340E+01 -0.30189123271E+01 -0.29814380583E+02  0.30529469869E+02  0.00000000000E+00 0. -1.
</event>
<event>
 5    1  0.3183383E-003  0.9118800E+02  0.7818608E-02  0.1130116E+00
         25   -1    0    0    0    0  0.00000000000E+00  0.00000000000E+00  0.99999998245E-14  0.12500000000E+03  0.12500000000E+03 0.  0.
        -11    1    3    3    0    0  0.53085426611E+01  0.22729055686E+02 -0.37986145808E+02  0.44584054001E+02  0.51100000000E-03 0. -1.
         23    2    1    0    0    0  0.94347440571E+00 -0.23883314725E+02 -0.15424650979E+02  0.96553159683E+02  0.92267491137E+02 0.  0.
         11    1    3    3    0    0 -0.43650682554E+01 -0.46612370411E+02  0.22561494829E+02  0.51969105682E+02  0.51100000000E-03 0.  1.
         22    1    1    0    0    0 -0.94347440571E+00  0.23883314725E+02  0.15424650979E+02  0.28446840317E+02  0.00000000000E+00 0.  1.
</event>
<event>
 5    1  0.3183383E-003  0.9118800E+02  0.7818608E-02  0.1130116E+00
         25   -1    0    0    0    0  0.00000000000E+00  0.00000000000E+00  0.99999998245E-14  0.12500000000E+03  0.12500000000E+03 0.  0.
        -11    1    3    3    0    0 -0.32935061406E+02  0.39535975666E+02  0.26825941731E+01  0.51526769290E+02  0.51100000000E-03 0. -1.
         23    2    1    0    0    0  0.77396934800E+01  0.26793130782E+02 -0.89513011142E+01  0.95710061388E+02  0.91118139505E+02 0.  0.
         11    1    3    3    0    0  0.40674754886E+02 -0.12742844884E+02 -0.11633895287E+02  0.44183292098E+02  0.51100000000E-03 0.  1.
         22    1    1    0    0    0 -0.77396934800E+01 -0.26793130782E+02  0.89513011142E+01  0.29289938612E+02  0.00000000000E+00 0.  1.
</event>
<event>
 5    1  0.3183383E-003  0.9118800E+02  0.7818608E-02  0.1130116E+00
         25   -1    0    0    0    0  0.00000000000E+00  0.00000000000E+00  0.99999998245E-14  0.12500000000E+03  0.12500000000E+03 0.  0.
        -11    1    3    3    0    0 -0.23418033241E+02  0.29322037586E+02 -0.11309960174E+02  0.39193129098E+02  0.51100000000E-03 0. -1.
         23    2    1    0    0    0  0.65254390962E+01  0.54204909748E+01  0.28987384445E+02  0.94796829061E+02  0.89856592776E+02 0.  0.
         11    1    3    3    0    0  0.29943472337E+02 -0.23901546611E+02  0.40297344619E+02  0.55603699963E+02  0.51100000000E-03 0.  1.
         22    1    1    0    0    0 -0.65254390962E+01 -0.54204909748E+01 -0.28987384445E+02  0.30203170939E+02  0.00000000000E+00 0. -1.
</event>
<event>
 5    1  0.3183383E-003  0.9118800E+02  0.7818608E-02  0.1130116E+00
         25   -1    0    0    0    0  0.00000000000E+00  0.00000000000E+00  0.99999998245E-14  0.12500000000E+03  0.12500000000E+03 0.  0.
        -11    1    3    3    0    0  0.12288225379E+02  0.16993052814E+02 -0.58364241473E+02  0.62017328303E+02  0.51100000000E-03 0.  1.
         23    2    1    0    0    0  0.35332495271E+01  0.12649229588E+02 -0.25320983259E+02  0.96475641031E+02  0.92162412391E+02 0.  0.
         11    1    3    3    0    0 -0.87549758519E+01 -0.43438232260E+01  0.33043258214E+02  0.34458312728E+02  0.51100000000E-03 0. -1.
         22    1    1    0    0    0 -0.35332495271E+01 -0.12649229588E+02  0.25320983259E+02  0.28524358969E+02  0.00000000000E+00 0.  1.
</event>
<event>
 5    1  0.3183383E-003  0.9118800E+02  0.7818608E-02  0.1130116E+00
         25   -1    0    0    0    0  0.00000000000E+00  0.00000000000E+00  0.99999998245E-14  0.12500000000E+03  0.12500000000E+03 0.  0.
        -11    1    3    3    0    0  0.26428005241E+02  0.41385707109E+01  0.19043139882E+02  0.32836083892E+02  0.51100000000E-03 0. -1.
         23    2    1    0    0    0 -0.24987179218E+02 -0.11986323643E+01 -0.16016959704E+02  0.95295811020E+02  0.90548068753E+02 0.  0.
         11    1    3    3    0    0 -0.51415184459E+02 -0.53372030752E+01 -0.35060099587E+02  0.62459727128E+02  0.51100000000E-03 0.  1.
         22    1    1    0    0    0  0.24987179218E+02  0.11986323643E+01  0.16016959704E+02  0.29704188980E+02  0.00000000000E+00 0.  1.
</event>
<event>
 5    1  0.3183383E-003  0.9118800E+02  0.7818608E-02  0.1130116E+00
         25   -1    0    0    0    0  0.00000000000E+00  0.00000000000E+00  0.99999998245E-14  0.12500000000E+03  0.12500000000E+03 0.  0.
        -11    1    3    3    0    0 -0.44299152051E+02  0.29847032469E+02 -0.28554253234E+01  0.53492183295E+02  0.51100000000E-03 0. -1.
         23    2    1    0    0    0 -0.27932833302E+02 -0.47664394775E+01 -0.14034241074E+02  0.93378456014E+02  0.87861333950E+02 0.  0.
         11    1    3    3    0    0  0.16366318749E+02 -0.34613471946E+02 -0.11178815751E+02  0.39886272719E+02  0.51100000000E-03 0.  1.
         22    1    1    0    0    0  0.27932833302E+02  0.47664394775E+01  0.14034241074E+02  0.31621543986E+02  0.00000000000E+00 0. -1.
</event>
<event>
 5    1  0.3183383E-003  0.9118800E+02  0.7818608E-02  0.1130116E+00
         25   -1    0    0    0    0  0.00000000000E+00  0.00000000000E+00  0.99999998245E-14  0.12500000000E+03  0.12500000000E+03 0.  0.
        -11    1    3    3    0    0 -0.40108861137E+02  0.41963904088E+02  0.72851619588E+01  0.58504389348E+02  0.51100000000E-03 0. -1.
         23    2    1    0    0    0 -0.16447199405E+02  0.13338066399E+02  0.18053356314E+02  0.97173069560E+02  0.93103530491E+02 0.  0.
         11    1    3    3    0    0  0.23661661732E+02 -0.28625837689E+02  0.10768194356E+02  0.38668680211E+02  0.51100000000E-03 0.  1.
         22    1    1    0    0    0  0.16447199405E+02 -0.13338066399E+02 -0.18053356314E+02  0.27826930440E+02  0.00000000000E+00 0. -1.
</event>
<event>
 5    1  0.3183383E-003  0.9118800E+02  0.7818608E-02  0.1130116E+00
         25   -1    0    0    0    0  0.00000000000E+00  0.00000000000E+00  0.99999998245E-14  0.12500000000E+03  0.12500000000E+03 0.  0.
        -11    1    3    3    0    0 -0.14317192857E+02  0.20391197985E+02  0.35744743769E+02  0.43571431855E+02  0.51100000000E-03 0.  1.
         23    2    1    0    0    0  0.21009757022E+02 -0.92077475794E+01  0.25340572129E+02  0.90819053532E+02  0.84141329814E+02 0.  0.
         11    1    3    3    0    0  0.35326949879E+02 -0.29598945565E+02 -0.10404171640E+02  0.47247621676E+02  0.51100000000E-03 0. -1.
         22    1    1    0    0    0 -0.21009757022E+02  0.92077475794E+01 -0.25340572129E+02  0.34180946468E+02  0.00000000000E+00 0. -1.
</event>
<event>
 5    1  0.3183383E-003  0.9118800E+02  0.7818608E-02  0.1130116E+00
         25   -1    0    0    0    0  0.00000000000E+00  0.00000000000E+00  0.99999998245E-14  0.12500000000E+03  0.12500000000E+03 0.  0.
        -11    1    3    3    0    0 -0.17055210473E+02  0.42529162268E+02 -0.74521868828E+01  0.46423538610E+02  0.51100000000E-03 0.  1.
         23    2    1    0    0    0 -0.18488708627E+02 -0.81964601404E+01 -0.17618667250E+02  0.98177775238E+02  0.94442807082E+02 0.  0.
         11    1    3    3    0    0 -0.14334981539E+01 -0.50725622408E+02 -0.10166480368E+02  0.51754236628E+02  0.51100000000E-03 0. -1.
         22    1    1    0    0    0  0.18488708627E+02  0.81964601404E+01  0.17618667250E+02  0.26822224762E+02  0.00000000000E+00 0. -1.
</event>
<event>
 5    1  0.3183383E-003  0.9118800E+02  0.7818608E-02  0.1130116E+00
         25   -1    0    0    0    0  0.00000000000E+00  0.00000000000E+00  0.99999998245E-14  0.12500000000E+03  0.12500000000E+03 0.  0.
        -11    1    3    3    0    0 -0.18775867043E+02  0.37084741984E+02 -0.32781722997E+02  0.52938196363E+02  0.51100000000E-03 0. -1.
         23    2    1    0    0    0  0.82842589648E+01  0.28166847102E+02 -0.99758067165E+00  0.95623216829E+02  0.90998924210E+02 0.  0.
         11    1    3    3    0    0  0.27060126007E+02 -0.89178948823E+01  0.31784142325E+02  0.42685020467E+02  0.51100000000E-03 0.  1.
         22    1    1    0    0    0 -0.82842589648E+01 -0.28166847102E+02  0.99758067165E+00  0.29376783171E+02  0.00000000000E+00 0.  1.
</event>
<event>
 5    1  0.3183383E-003  0.9118800E+02  0.7818608E-02  0.1130116E+00
         25   -1    0    0    0    0  0.00000000000E+00  0.00000000000E+00  0.99999998245E-14  0.12500000000E+03  0.12500000000E+03 0.  0.
        -11    1    3    3    0    0  0.14461355144E+02  0.24460265827E+02 -0.19837929718E+02  0.34655141793E+02  0.51100000000E-03 0. -1.
         23    2    1    0    0    0 -0.23334121987E+02 -0.17565620255E+02  0.30490947005E+01  0.95634557005E+02  0.91014500225E+02 0.  0.
         11    1    3    3    0    0 -0.37795477131E+02 -0.42025886082E+02  0.22887024418E+02  0.60979415211E+02  0.51100000000E-03 0.  1.
         22    1    1    0    0    0  0.23334121987E+02  0.17565620255E+02 -0.30490947005E+01  0.29365442995E+02  0.00000000000E+00 0.  1.
</event>
<event>
 5    1  0.3183383E-003  0.9118800E+02  0.7818608E-02  0.1130116E+00
         25   -1    0    0    0    0  0.00000000000E+00  0.00000000000E+00  0.99999998245E-14  0.12500000000E+03  0.12500000000E+03 0.  0.
        -11    1    3    3    0    0 -0.17801540628E+02 -0.40472434274E+02 -0.35459781142E+02  0.56677234087E+02  0.51100000000E-03 0.  1.
         23    2    1    0    0    0 -0.42019293012E+01 -0.28771548482E+02 -0.56043102474E+00  0.95917835451E+02  0.91402728968E+02 0.  0.
         11    1    3    3    0    0  0.13599611327E+02  0.11700885791E+02  0.34899350118E+02  0.39240601364E+02  0.51100000000E-03 0. -1.
         22    1    1    0    0    0  0.42019293012E+01  0.28771548482E+02  0.56043102474E+00  0.29082164549E+02  0.00000000000E+00 0.  1.
</event>
<event>
 5    1  0.3183383E-003  0.9118800E+02  0.7818608E-02  0.1130116E+00
         25   -1    0    0    0    0  0.00000000000E+00  0.00000000000E+00  0.99999998245E-14  0.12500000000E+03  0.12500000000E+03 0.  0.
        -11    1    3    3    0    0 -0.38122558163E+02  0.44385719978E+02 -0.24848276385E+01  0.58562752219E+02  0.51100000000E-03 0. -1.
         23    2    1    0    0    0 -0.19779025531E+02  0.16574657924E+02  0.13899260712E+02  0.95689275263E+02  0.91089619693E+02 0.  0.
         11    1    3    3    0    0  0.18343532632E+02 -0.27811062054E+02  0.16384088351E+02  0.37126523044E+02  0.51100000000E-03 0.  1.
         22    1    1    0    0    0  0.19779025531E+02 -0.16574657924E+02 -0.13899260712E+02  0.29310724737E+02  0.00000000000E+00 0. -1.
</event>
<event>
 5    1  0.3183383E-003  0.9118800E+02  0.7818608E-02  0.1130116E+00
         25   -1    0    0    0    0  0.00000000000E+00  0.00000000000E+00  0.99999998245E-14  0.12500000000E+03  0.12500000000E+03 0.  0.
        -11    1    3    3    0    0  0.30119664508E+02  0.51392114634E+01  0.15914442824E+02  0.34451054776E+02  0.51100000000E-03 0.  1.
         23    2    1    0    0    0 -0.16573687287E+02 -0.20783760759E+02 -0.13245605213E+02  0.95299867357E+02  0.90553668281E+02 0.  0.
         11    1    3    3    0    0 -0.46693351795E+02 -0.25922972222E+02 -0.29160048037E+02  0.60848812580E+02  0.51100000000E-03 0. -1.
         22    1    1    0    0    0  0.16573687287E+02  0.20783760759E+02  0.13245605213E+02  0.29700132643E+02  0.00000000000E+00 0. -1.
</event>
<event>
 5    1  0.3183383E-003  0.9118800E+02  0.7818608E-02  0.1130116E+00
         25   -1    0    0    0    0  0.00000000000E+00  0.00000000000E+00  0.99999998245E-14  0.12500000000E+03  0.12500000000E+03 0.  0.
        -11    1    3    3    0    0 -0.42865995432E+02 -0.32920879339E+01  0.35029392842E+02  0.55456196863E+02  0.51100000000E-03 0.  1.
         23    2    1    0    0    0 -0.24625707220E+02  0.15432099509E+02  0.45917802749E+01  0.95577906305E+02  0.90936662442E+02 0.  0.
         11    1    3    3    0    0  0.18240288212E+02  0.18724187443E+02 -0.30437612567E+02  0.40121709442E+02  0.51100000000E-03 0. -1.
         22    1    1    0    0    0  0.24625707220E+02 -0.15432099509E+02 -0.45917802749E+01  0.29422093695E+02  0.00000000000E+00 0.  1.
</event>
<event>
 5    1  0.3183383E-003  0.9118800E+02  0.7818608E-02  0.1130116E+00
         25   -1    0    0    0    0  0.00000000000E+00  0.00000000000E+00  0.99999998245E-14  0.12500000000E+03  0.12500000000E+03 0.  0.
        -11    1    3    3    0    0  0.16551193983E+02 -0.25064114940E+02  0.39814416141E+02  0.49873235436E+02  0.51100000000E-03 0.  1.
         23    2    1    0    0    0 -0.58213551756E+01 -0.28951252799E+02  0.27657730190E+00  0.95467988390E+02  0.90785445406E+02 0.  0.
         11    1    3    3    0    0 -0.22372549159E+02 -0.38871378594E+01 -0.39537838839E+02  0.45594752954E+02  0.51100000000E-03 0. -1.
         22    1    1    0    0    0  0.58213551756E+01  0.28951252799E+02 -0.27657730190E+00  0.29532011610E+02  0.00000000000E+00 0.  1.
</event>
<event>
 5    1  0.3183383E-003  0.9118800E+02  0.7818608E-02  0.1130116E+00
         25   -1    0    0    0    0  0.00000000000E+00  0.00000000000E+00  0.99999998245E-14  0.12500000000E+03  0.12500000000E+03 0.  0.
        -11    1    3    3    0    0 -0.25639445274E+02  0.60982390809E+01  0.23677611359E+02  0.35428787078E+02  0.51100000000E-03 0.  1.
         23    2    1    0    0    0  0.13924532519E+01 -0.84086725091E+01 -0.28112763496E+02  0.95623612019E+02  0.90999467057E+02 0.  0.
         11    1    3    3    0    0  0.27031898526E+02 -0.14506911590E+02 -0.51790374855E+02  0.60194824941E+02  0.51100000000E-03 0. -1.
         22    1    1    0    0    0 -0.13924532519E+01  0.84086725091E+01  0.28112763496E+02  0.29376387981E+02  0.00000000000E+00 0. -1.
</event>
<event>
 5    1  0.3183383E-003  0.9118800E+02  0.7818608E-02  0.1130116E+00
         25   -1    0    0    0    0  0.00000000000E+00  0.00000000000E+00  0.99999998245E-14  0.12500000000E+03  0.12500000000E+03 0.  0.
        -11    1    3    3    0    0 -0.26471986726E+02  0.27212229045E+02  0.13496612562E+02  0.40291811100E+02  0.51100000000E-03 0.  1.
         23    2    1    0    0    0  0.63796811045E+01  0.42800388847E+01 -0.26803058562E+02  0.97117693565E+02  0.93029153448E+02 0.  0.
         11    1    3    3    0    0  0.32851667831E+02 -0.22932190160E+02 -0.40299671125E+02  0.56825882464E+02  0.51100000000E-03 0. -1.
         22    1    1    0    0    0 -0.63796811045E+01 -0.42800388847E+01  0.26803058562E+02  0.27882306435E+02  0.00000000000E+00 0. -1.
</event>
<event>
 5    1  0.3183383E-003  0.9118800E+02  0.7818608E-02  0.1130116E+00
         25   -1    0    0    0    0  0.00000000000E+00  0.00000000000E+00  0.99999998245E-14  0.12500000000E+03  0.12500000000E+03 0.  0.
        -11    1    3    3    0    0 -0.34984957170E+02  0.34773424795E+02 -0.29876212396E+02  0.57669111035E+02  0.51100000000E-03 0.  1.
         23    2    1    0    0    0  0.43937531136E-01  0.22060116217E+02 -0.17187088759E+02  0.97034902503E+02  0.92917843419E+02 0.  0.
         11    1    3    3    0    0  0.35028894701E+02 -0.12713308577E+02  0.12689123637E+02  0.39365791468E+02  0.51100000000E-03 0. -1.
         22    1    1    0    0    0 -0.43937531136E-01 -0.22060116217E+02  0.17187088759E+02  0.27965097497E+02  0.00000000000E+00 0.  1.
</event>
<event>
 5    1  0.3183383E-003  0.9118800E+02  0.7818608E-02  0.1130116E+00
         25   -1    0    0    0    0  0.00000000000E+00  0.00000000000E+00  0.99999998245E-14  0.12500000000E+03  0.12500000000E+03 0.  0.
        -11    1    3    3    0    0  0.10500795928E+02  0.39568083055E+02  0.41117714371E+02  0.58022119464E+02  0.51100000000E-03 0.  1.
         23    2    1    0    0    0 -0.10146535450E+02  0.23750676823E+02  0.13897541083E+02  0.95671030032E+02  0.91064578778E+02 0.  0.
         11    1    3    3    0    0 -0.20647331377E+02 -0.15817406232E+02 -0.27220173287E+02  0.37648910568E+02  0.51100000000E-03 0. -1.
         22    1    1    0    0    0  0.10146535450E+02 -0.23750676823E+02 -0.13897541083E+02  0.29328969968E+02  0.00000000000E+00 0.  1.
</event>
<event>
 5    1  0.3183383E-003  0.9118800E+02  0.7818608E-02  0.1130116E+00
         25   -1    0    0    0    0  0.00000000000E+00  0.00000000000E+00  0.99999998245E-14  0.12500000000E+03  0.12500000000E+03 0.  0.
        -11    1    3    3    0    0  0.22607010353E+02  0.13963957762E+02 -0.20409935392E+02  0.33505738262E+02  0.51100000000E-03 0.  1.
         23    2    1    0    0    0 -0.20887985370E+02 -0.19885606591E+02  0.73809969737E+01  0.95230478697E+02  0.90457833681E+02 0.  0.
         11    1    3    3    0    0 -0.43494995723E+02 -0.33849564353E+02  0.27790932366E+02  0.61724740435E+02  0.51100000000E-03 0. -1.
         22    1    1    0    0    0  0.20887985370E+02  0.19885606591E+02 -0.73809969737E+01  0.29769521303E+02  0.00000000000E+00 0. -1.
</event>
<event>
 5    1  0.3183383E-003  0.9118800E+02  0.7818608E-02  0.1130116E+00
         25   -1    0    0    0    0  0.00000000000E+00  0.00000000000E+00  0.99999998245E-14  0.12500000000E+03  0.12500000000E+03 0.  0.
        -11    1    3    3    0    0 -0.41266055675E+02  0.40230626145E+02  0.15125047085E+02  0.59583199650E+02  0.51100000000E-03 0. -1.
         23    2    1    0    0    0 -0.28457077300E+02  0.95343590149E+01  0.10699999059E+02  0.93137808767E+02  0.87518296326E+02 0.  0.
         11    1    3    3    0    0  0.12808978375E+02 -0.30696267130E+02 -0.44250480262E+01  0.33554609117E+02  0.51100000000E-03 0.  1.
         22    1    1    0    0    0  0.28457077300E+02 -0.95343590149E+01 -0.10699999059E+02  0.31862191233E+02  0.00000000000E+00 0. -1.
</event>
<event>
 5    1  0.3183383E-003  0.9118800E+02  0.7818608E-02  0.1130116E+00
         25   -1    0    0    0    0  0.00000000000E+00  0.00000000000E+00  0.99999998245E-14  0.12500000000E+03  0.12500000000E+03 0.  0.
        -11    1    3    3    0    0  0.19024407576E+01  0.38027350509E+02  0.71333452857E+01  0.38737362878E+02  0.51100000000E-03 0. -1.
         23    2    1    0    0    0 -0.26859597683E+02 -0.11069724367E+02  0.16635283786E+01  0.95901132120E+02  0.91379883070E+02 0.  0.
         11    1    3    3    0    0 -0.28762038441E+02 -0.49097074876E+02 -0.54698169071E+01  0.57163769241E+02  0.51100000000E-03 0.  1.
         22    1    1    0    0    0  0.26859597683E+02  0.11069724367E+02 -0.16635283786E+01  0.29098867880E+02  0.00000000000E+00 0.  1.
</event>
<event>
 5    1  0.3183383E-003  0.9118800E+02  0.7818608E-02  0.1130116E+00
         25   -1    0    0    0    0  0.00000000000E+00  0.00000000000E+00  0.99999998245E-14  0.12500000000E+03  0.12500000000E+03 0.  0.
        -11    1    3    3    0    0  0.15126350861E+01  0.16198912482E+02 -0.37650056853E+02  0.41014870618E+02  0.51100000000E-03 0.  1.
         23    2    1    0    0    0  0.27918710701E+02  0.10181777645E+01  0.80418605705E+01  0.95928319371E+02  0.91417065380E+02 0.  0.
         11    1    3    3    0    0  0.26406075615E+02 -0.15180734718E+02  0.45691917423E+02  0.54913448754E+02  0.51100000000E-03 0. -1.
         22    1    1    0    0    0 -0.27918710701E+02 -0.10181777645E+01 -0.80418605705E+01  0.29071680629E+02  0.00000000000E+00 0. -1.
</event>
<event>
 5    1  0.3183383E-003  0.9118800E+02  0.7818608E-02  0.1130116E+00
         25   -1    0    0    0    0  0.00000000000E+00  0.00000000000E+00  0.99999998245E-14  0.12500000000E+03  0.12500000000E+03 0.  0.
        -11    1    3    3    0    0 -0.18252492724E+02  0.30845067506E+02  0.27819823147E+01  0.35948728851E+02  0.51100000000E-03 0.  1.
         23    2    1    0    0    0  0.15498605261E+02 -0.11387788272E+02 -0.22305026669E+02  0.95548298836E+02  0.90895955405E+02 0.  0.
         11    1    3    3    0    0  0.33751097986E+02 -0.42232855778E+02 -0.25087008983E+02  0.59599569985E+02  0.51100000000E-03 0. -1.
         22    1    1    0    0    0 -0.15498605261E+02  0.11387788272E+02  0.22305026669E+02  0.29451701164E+02  0.00000000000E+00 0. -1.
</event>
<event>
 5    1  0.3183383E-003  0.9118800E+02  0.7818608E-02  0.1130116E+00
         25   -1    0    0    0    0  0.00000000000E+00  0.00000000000E+00  0.99999998245E-14  0.12500000000E+03  0.12500000000E+03 0.  0.
        -11    1    3    3    0    0 -0.69266443530E+01 -0.36862014729E+02  0.74256183171E+00  0.37514502932E+02  0.51100000000E-03 0.  1.
         23    2    1    0    0    0 -0.21502100290E+02  0.32484395748E+01  0.29039996469E+02  0.88720335290E+02  0.80963472150E+02 0.  0.
         11    1    3    3    0    0 -0.14575455937E+02  0.40110454304E+02  0.28297434637E+02  0.51205832358E+02  0.51100000000E-03 0. -1.
         22    1    1    0    0    0  0.21502100290E+02 -0.32484395748E+01 -0.29039996469E+02  0.36279664710E+02  0.00000000000E+00 0. -1.
</event>
<event>
 5    1  0.3183383E-003  0.9118800E+02  0.7818608E-02  0.1130116E+00
         25   -1    0    0    0    0  0.00000000000E+00  0.00000000000E+00  0.99999998245E-14  0.12500000000E+03  0.12500000000E+03 0.  0.
        -11    1    3    3    0    0  0.20958085471E+02  0.27742183563E+02 -0.22711632377E+02  0.41529367211E+02  0.51100000000E-03 0. -1.
         23    2    1    0    0    0  0.22043969751E+02 -0.19315627430E+02  0.36262643813E+01  0.95467308644E+02  0.90784509476E+02 0.  0.
         11    1    3    3    0    0  0.10858842803E+01 -0.47057810992E+02  0.26337896759E+02  0.53937941433E+02  0.51100000000E-03 0.  1.
         22    1    1    0    0    0 -0.22043969751E+02  0.19315627430E+02 -0.36262643813E+01  0.29532691356E+02  0.00000000000E+00 0. -1.
</event>
<event>
 5    1  0.3183383E-003  0.9118800E+02  0.7818608E-02  0.1130116E+00
         25   -1    0    0    0    0  0.00000000000E+00  0.00000000000E+00  0.99999998245E-14  0.12500000000E+03  0.12500000000E+03 0.  0.
        -11    1    3    3    0    0  0.17161937421E+02  0.13295584674E+02 -0.36220672365E+01  0.22009635144E+02  0.51100000000E-03 0.  1.
         23    2    1    0    0    0 -0.39634359305E+02 -0.10137770621E+02  0.38779746968E+01  0.83906259376E+02  0.73154390464E+02 0.  0.
         11    1    3    3    0    0 -0.56796296726E+02 -0.23433355295E+02  0.75000419333E+01  0.61896624233E+02  0.51100000000E-03 0. -1.
         22    1    1    0    0    0  0.39634359305E+02  0.10137770621E+02 -0.38779746968E+01  0.41093740624E+02  0.00000000000E+00 0. -1.
</event>
<event>
 5    1  0.3183383E-003  0.9118800E+02  0.7818608E-02  0.1130116E+00
         25   -1    0    0    0    0  0.00000000000E+00  0.00000000000E+00  0.99999998245E-14  0.12500000000E+03  0.12500000000E+03 0.  0.
        -11    1    3    3    0    0 -0.91250533901E+01 -0.10303858143E+02 -0.31245533102E+02  0.34142633628E+02  0.51100000000E-03 0. -1.
         23    2    1    0    0    0 -0.18917804889E+01  0.84224665090E+01  0.27475520707E+02  0.96200329626E+02  0.91788247649E+02 0.  0.
         11    1    3    3    0    0  0.72332729012E+01  0.18726324652E+02  0.58721053809E+02  0.62057695998E+02  0.51100000000E-03 0.  1.
         22    1    1    0    0    0  0.18917804889E+01 -0.84224665090E+01 -0.27475520707E+02  0.28799670374E+02  0.00000000000E+00 0.  1.
</event>
<event>
 5    1  0.3183383E-003  0.9118800E+02  0.7818608E-02  0.1130116E+00
         25   -1    0    0    0    0  0.00000000000E+00  0.00000000000E+00  0.99999998245E-14  0.12500000000E+03  0.12500000000E+03 0.  0.
        -11    1    3    3    0    0 -0.49621462152E+01 -0.28419494513E+02  0.28637668340E+02  0.40649804571E+02  0.51100000000E-03 0.  1.
         23    2    1    0    0    0  0.21451817930E+02  0.16412330064E+02  0.13269947661E+02  0.94906203603E+02  0.90008615703E+02 0.  0.
         11    1    3    3    0    0  0.26413964146E+02  0.44831824577E+02 -0.15367720678E+02  0.54256399032E+02  0.51100000000E-03 0. -1.
         22    1    1    0    0    0 -0.21451817930E+02 -0.16412330064E+02 -0.13269947661E+02  0.30093796397E+02  0.00000000000E+00 0. -1.
</event>
<event>
 5    1  0.3183383E-003  0.9118800E+02  0.7818608E-02  0.1130116E+00
         25   -1    0    0    0    0  0.00000000000E+00  0.00000000000E+00  0.99999998245E-14  0.12500000000E+03  0.12500000000E+03 0.  0.
        -11    1    3    3    0    0  0.15740123081E+02  0.85544414478E+01 -0.49455700675E+02  0.52600344796E+02  0.51100000000E-03 0.  1.
         23    2    1    0    0    0 -0.13219829131E+02  0.13218756976E+02 -0.35040807793E+02  0.85284038108E+02  0.75471912172E+02 0.  0.
         11    1    3    3    0    0 -0.28959952212E+02  0.46643155282E+01  0.14414892882E+02  0.32683693312E+02  0.51100000000E-03 0. -1.
         22    1    1    0    0    0  0.13219829131E+02 -0.13218756976E+02  0.35040807793E+02  0.39715961892E+02  0.00000000000E+00 0.  1.
</event>
<event>
 5    1  0.3183383E-003  0.9118800E+02  0.7818608E-02  0.1130116E+00
         25   -1    0    0    0    0  0.00000000000E+00  0.00000000000E+00  0.99999998245E-14  0.12500000000E+03  0.12500000000E+03 0.  0.
        -11    1    3    3    0    0  0.32438690000E+02  0.40737637206E+01 -0.20229404381E+02  0.38445974583E+02  0.51100000000E-03 0. -1.
         23    2    1    0    0    0 -0.18267326403E+02 -0.20675115059E+02 -0.90350534187E+01  0.95969192452E+02  0.91472936506E+02 0.  0.
         11    1    3    3    0    0 -0.50706016403E+02 -0.24748878780E+02  0.11194350962E+02  0.57523217869E+02  0.51100000000E-03 0.  1.
         22    1    1    0    0    0  0.18267326403E+02  0.20675115059E+02  0.90350534187E+01  0.29030807548E+02  0.00000000000E+00 0.  1.
</event>
<event>
 4    1  0.3183383E-003  0.9118800E+02  0.7818608E-02  0.1130116E+00
         25   -1    0    0    0    0  0.00000000000E+00  0.00000000000E+00  0.99999998245E-14  0.12500000000E+03  0.12500000000E+03 0.  0.
        -11    1    1    0    0    0  0.55041549172E+01  0.15663906531E+01 -0.18894969579E+02  0.19742572697E+02  0.51100000000E-03 0. -1.
         11    1    1    0    0    0  0.46926527050E+02  0.13790982043E+02  0.85250268701E+01  0.49648426058E+02  0.51100000000E-03 0.  1.
         22    1    1    0    0    0 -0.52430681967E+02 -0.15357372696E+02  0.10369942709E+02  0.55609001245E+02  0.00000000000E+00 0.  1.
</event>
<event>
 5    1  0.3183383E-003  0.9118800E+02  0.7818608E-02  0.1130116E+00
         25   -1    0    0    0    0  0.00000000000E+00  0.00000000000E+00  0.99999998245E-14  0.12500000000E+03  0.12500000000E+03 0.  0.
        -11    1    3    3    0    0  0.20729087599E+02 -0.17639857959E+02 -0.32021455939E+02  0.42026578521E+02  0.51100000000E-03 0. -1.
         23    2    1    0    0    0  0.17528537059E+02  0.24668505731E+02 -0.76041676214E+00  0.94728511432E+02  0.89761505436E+02 0.  0.
         11    1    3    3    0    0 -0.32005505396E+01  0.42308363690E+02  0.31261039177E+02  0.52701932911E+02  0.51100000000E-03 0.  1.
         22    1    1    0    0    0 -0.17528537059E+02 -0.24668505731E+02  0.76041676214E+00  0.30271488568E+02  0.00000000000E+00 0.  1.
</event>
<event>
 5    1  0.3183383E-003  0.9118800E+02  0.7818608E-02  0.1130116E+00
         25   -1    0    0    0    0  0.00000000000E+00  0.00000000000E+00  0.99999998245E-14  0.12500000000E+03  0.12500000000E+03 0.  0.
        -11    1    3    3    0    0 -0.36566709318E+02 -0.38922921954E+02 -0.22089933194E+02  0.57793453198E+02  0.51100000000E-03 0.  1.
         23    2    1    0    0    0 -0.17245752900E+02 -0.74211229884E+01 -0.23677291118E+02  0.94782402905E+02  0.89836522229E+02 0.  0.
         11    1    3    3    0    0  0.19320956418E+02  0.31501798966E+02 -0.15873579245E+01  0.36988949707E+02  0.51100000000E-03 0. -1.
         22    1    1    0    0    0  0.17245752900E+02  0.74211229884E+01  0.23677291118E+02  0.30217597095E+02  0.00000000000E+00 0.  1.
</event>
<event>
 5    1  0.3183383E-003  0.9118800E+02  0.7818608E-02  0.1130116E+00
         25   -1    0    0    0    0  0.00000000000E+00  0.00000000000E+00  0.99999998245E-14  0.12500000000E+03  0.12500000000E+03 0.  0.
        -11    1    3    3    0    0 -0.43815323635E+01  0.35116269584E+02  0.17549150288E+00  0.35388995646E+02  0.51100000000E-03 0. -1.
         23    2    1    0    0    0  0.11160067648E+02 -0.16973606913E+02  0.22972102286E+02  0.94334580959E+02  0.89211239425E+02 0.  0.
         11    1    3    3    0    0  0.15541600011E+02 -0.52089876497E+02  0.22796610783E+02  0.58945585312E+02  0.51100000000E-03 0.  1.
         22    1    1    0    0    0 -0.11160067648E+02  0.16973606913E+02 -0.22972102286E+02  0.30665419041E+02  0.00000000000E+00 0.  1.
</event>
<event>
 5    1  0.3183383E-003  0.9118800E+02  0.7818608E-02  0.1130116E+00
         25   -1    0    0    0    0  0.00000000000E+00  0.00000000000E+00  0.99999998245E-14  0.12500000000E+03  0.12500000000E+03 0.  0.
        -11    1    3    3    0    0 -0.39740083687E+02  0.24802620535E+02  0.33905578613E+02  0.57827610172E+02  0.51100000000E-03 0.  1.
         23    2    1    0    0    0 -0.64094446058E+01  0.23085205961E+02  0.19194616090E+02  0.94300798036E+02  0.89163891284E+02 0.  0.
         11    1    3    3    0    0  0.33330639081E+02 -0.17174145741E+01 -0.14710962523E+02  0.36473187864E+02  0.51100000000E-03 0. -1.
         22    1    1    0    0    0  0.64094446058E+01 -0.23085205961E+02 -0.19194616090E+02  0.30699201964E+02  0.00000000000E+00 0. -1.
</event>
<event>
 5    1  0.3183383E-003  0.9118800E+02  0.7818608E-02  0.1130116E+00
         25   -1    0    0    0    0  0.00000000000E+00  0.00000000000E+00  0.99999998245E-14  0.12500000000E+03  0.12500000000E+03 0.  0.
        -11    1    3    3    0    0 -0.21970669959E+01  0.12567892935E+02  0.16105315498E+02  0.20546537999E+02  0.51100000000E-03 0.  1.
         23    2    1    0    0    0  0.20239927298E+02 -0.40395795473E+02  0.12200308325E+02  0.78199118895E+02  0.62648062411E+02 0.  0.
         11    1    3    3    0    0  0.22436994294E+02 -0.52963688408E+02 -0.39050071725E+01  0.57652580896E+02  0.51100000000E-03 0. -1.
         22    1    1    0    0    0 -0.20239927298E+02  0.40395795473E+02 -0.12200308325E+02  0.46800881105E+02  0.00000000000E+00 0. -1.
</event>
<event>
 5    1  0.3183383E-003  0.9118800E+02  0.7818608E-02  0.1130116E+00
         25   -1    0    0    0    0  0.00000000000E+00  0.00000000000E+00  0.99999998245E-14  0.12500000000E+03  0.12500000000E+03 0.  0.
        -11    1    3    3    0    0 -0.21877340371E+01 -0.47685674743E+02  0.18133085424E+02  0.51063867295E+02  0.51100000000E-03 0.  1.
         23    2    1    0    0    0 -0.13179949853E+02 -0.50802246176E+01  0.25665268066E+02  0.95704509814E+02  0.91110523287E+02 0.  0.
         11    1    3    3    0    0 -0.10992215816E+02  0.42605450125E+02  0.75321826427E+01  0.44640642519E+02  0.51100000000E-03 0. -1.
         22    1    1    0    0    0  0.13179949853E+02  0.50802246176E+01 -0.25665268066E+02  0.29295490186E+02  0.00000000000E+00 0.  1.
</event>
<event>
 5    1  0.3183383E-003  0.9118800E+02  0.7818608E-02  0.1130116E+00
         25   -1    0    0    0    0  0.00000000000E+00  0.00000000000E+00  0.99999998245E-14  0.12500000000E+03  0.12500000000E+03 0.  0.
        -11    1    3    3    0    0  0.35967394673E+02 -0.24808397656E+02  0.27010363911E+02  0.51367984510E+02  0.51100000000E-03 0. -1.
         23    2    1    0    0    0  0.67480689971E+01  0.15985633074E+02  0.12539097707E+02  0.10359192042E+03  0.10135571077E+03 0.  0.
         11    1    3    3    0    0 -0.29219325676E+02  0.40794030730E+02 -0.14471266204E+02  0.52223935910E+02  0.51100000000E-03 0.  1.
         22    1    1    0    0    0 -0.67480689971E+01 -0.15985633074E+02 -0.12539097707E+02  0.21408079580E+02  0.00000000000E+00 0. -1.
</event>
<event>
 5    1  0.3183383E-003  0.9118800E+02  0.7818608E-02  0.1130116E+00
         25   -1    0    0    0    0  0.00000000000E+00  0.00000000000E+00  0.99999998245E-14  0.12500000000E+03  0.12500000000E+03 0.  0.
        -11    1    3    3    0    0  0.27978915083E+02  0.52334674242E+02  0.43532561348E+01  0.59503686074E+02  0.51100000000E-03 0.  1.
         23    2    1    0    0    0  0.15881374108E+01  0.26485467798E+02 -0.58533321670E+01  0.97828991878E+02  0.93980040272E+02 0.  0.
         11    1    3    3    0    0 -0.26390777672E+02 -0.25849206444E+02 -0.10206588302E+02  0.38325305804E+02  0.51100000000E-03 0. -1.
         22    1    1    0    0    0 -0.15881374108E+01 -0.26485467798E+02  0.58533321670E+01  0.27171008122E+02  0.00000000000E+00 0.  1.
</event>
<event>
 5    1  0.3183383E-003  0.9118800E+02  0.7818608E-02  0.1130116E+00
         25   -1    0    0    0    0  0.00000000000E+00  0.00000000000E+00  0.99999998245E-14  0.12500000000E+03  0.12500000000E+03 0.  0.
        -11    1    3    3    0    0  0.50060752647E+01 -0.30925582188E+02 -0.23030791054E+02  0.38882769449E+02  0.51100000000E-03 0.  1.
         23    2    1    0    0    0  0.13968396610E+01 -0.80483267038E+01  0.28485861601E+02  0.95366049286E+02  0.90644979571E+02 0.  0.
         11    1    3    3    0    0 -0.36092356037E+01  0.22877255484E+02  0.51516652655E+02  0.56483279837E+02  0.51100000000E-03 0. -1.
         22    1    1    0    0    0 -0.13968396610E+01  0.80483267038E+01 -0.28485861601E+02  0.29633950714E+02  0.00000000000E+00 0. -1.
</event>
<event>
 5    1  0.3183383E-003  0.9118800E+02  0.7818608E-02  0.1130116E+00
         25   -1    0    0    0    0  0.00000000000E+00  0.00000000000E+00  0.99999998245E-14  0.12500000000E+03  0.12500000000E+03 0.  0.
        -11    1    3    3    0    0  0.18946710947E+01 -0.37046727300E+01 -0.35667334372E+02  0.35909234468E+02  0.51100000000E-03 0. -1.
         23    2    1    0    0    0 -0.19032893182E+02  0.14340899960E+02  0.17232221883E+02  0.95591465429E+02  0.90955298676E+02 0.  0.
         11    1    3    3    0    0 -0.20927564277E+02  0.18045572690E+02  0.52899556255E+02  0.59682230962E+02  0.51100000000E-03 0.  1.
         22    1    1    0    0    0  0.19032893182E+02 -0.14340899960E+02 -0.17232221883E+02  0.29408534571E+02  0.00000000000E+00 0.  1.
</event>
<event>
 5    1  0.3183383E-003  0.9118800E+02  0.7818608E-02  0.1130116E+00
         25   -1    0    0    0    0  0.00000000000E+00  0.00000000000E+00  0.99999998245E-14  0.12500000000E+03  0.12500000000E+03 0.  0.
        -11    1    3    3    0    0 -0.28925331938E+02 -0.40435034439E+01 -0.48324330573E+02  0.56464729463E+02  0.51100000000E-03 0.  1.
         23    2    1    0    0    0  0.22378460478E+01  0.90006716371E+01 -0.27088342491E+02  0.96367879161E+02  0.92016138749E+02 0.  0.
         11    1    3    3    0    0  0.31163177985E+02  0.13044175081E+02  0.21235988082E+02  0.39903149698E+02  0.51100000000E-03 0. -1.
         22    1    1    0    0    0 -0.22378460478E+01 -0.90006716371E+01  0.27088342491E+02  0.28632120839E+02  0.00000000000E+00 0.  1.
</event>
<event>
 5    1  0.3183383E-003  0.9118800E+02  0.7818608E-02  0.1130116E+00
         25   -1    0    0    0    0  0.00000000000E+00  0.00000000000E+00  0.99999998245E-14  0.12500000000E+03  0.12500000000E+03 0.  0.
        -11    1    3    3    0    0  0.31202477637E+02 -0.58546886963E+00 -0.53811509863E+02  0.62206237457E+02  0.51100000000E-03 0.  1.
         23    2    1    0    0    0  0.12266300946E+02 -0.31921986747E+01 -0.27414043147E+02  0.94797648552E+02  0.89857732767E+02 0.  0.
         11    1    3    3    0    0 -0.18936176691E+02 -0.26067298050E+01  0.26397466716E+02  0.32591411096E+02  0.51100000000E-03 0. -1.
         22    1    1    0    0    0 -0.12266300946E+02  0.31921986747E+01  0.27414043147E+02  0.30202351448E+02  0.00000000000E+00 0.  1.
</event>
<event>
 5    1  0.3183383E-003  0.9118800E+02  0.7818608E-02  0.1130116E+00
         25   -1    0    0    0    0  0.00000000000E+00  0.00000000000E+00  0.99999998245E-14  0.12500000000E+03  0.12500000000E+03 0.  0.
        -11    1    3    3    0    0  0.11442670594E+02  0.14793755730E+01  0.16707379334E+02  0.20304181512E+02  0.51100000000E-03 0.  1.
         23    2    1    0    0    0  0.80269646474E+01 -0.13524663335E+02 -0.41557108873E+02  0.80566431860E+02  0.67205713782E+02 0.  0.
         11    1    3    3    0    0 -0.34157059467E+01 -0.15004038908E+02 -0.58264488207E+02  0.60262250348E+02  0.51100000000E-03 0. -1.
         22    1    1    0    0    0 -0.80269646474E+01  0.13524663335E+02  0.41557108873E+02  0.44433568140E+02  0.00000000000E+00 0. -1.
</event>
<event>
 5    1  0.3183383E-003  0.9118800E+02  0.7818608E-02  0.1130116E+00
         25   -1    0    0    0    0  0.00000000000E+00  0.00000000000E+00  0.99999998245E-14  0.12500000000E+03  0.12500000000E+03 0.  0.
        -11    1    3    3    0    0  0.39576314201E+01 -0.45574554149E+02 -0.60181474509E+01  0.46140231159E+02  0.51100000000E-03 0.  1.
         23    2    1    0    0    0  0.37737233311E+00 -0.12505170236E+02  0.28376562099E+02  0.93987889961E+02  0.88724137022E+02 0.  0.
         11    1    3    3    0    0 -0.35802590870E+01  0.33069383914E+02  0.34394709550E+02  0.47847658802E+02  0.51100000000E-03 0. -1.
         22    1    1    0    0    0 -0.37737233311E+00  0.12505170236E+02 -0.28376562099E+02  0.31012110039E+02  0.00000000000E+00 0. -1.
</event>
<event>
 5    1  0.3183383E-003  0.9118800E+02  0.7818608E-02  0.1130116E+00
         25   -1    0    0    0    0  0.00000000000E+00  0.00000000000E+00  0.99999998245E-14  0.12500000000E+03  0.12500000000E+03 0.  0.
        -11    1    3    3    0    0  0.29891240024E+02 -0.27548077329E+02  0.99602735228E+01  0.41851999278E+02  0.51100000000E-03 0. -1.
         23    2    1    0    0    0 -0.71887214572E+00 -0.42382048779E+01 -0.28455260558E+02  0.96221865745E+02  0.91817571501E+02 0.  0.
         11    1    3    3    0    0 -0.30610112169E+02  0.23309872451E+02 -0.38415534081E+02  0.54369866467E+02  0.51100000000E-03 0.  1.
         22    1    1    0    0    0  0.71887214572E+00  0.42382048779E+01  0.28455260558E+02  0.28778134255E+02  0.00000000000E+00 0.  1.
</event>
<event>
 5    1  0.3183383E-003  0.9118800E+02  0.7818608E-02  0.1130116E+00
         25   -1    0    0    0    0  0.00000000000E+00  0.00000000000E+00  0.99999998245E-14  0.12500000000E+03  0.12500000000E+03 0.  0.
        -11    1    3    3    0    0 -0.35750830532E+01  0.31943940445E+02 -0.15995411366E+02  0.35903338773E+02  0.51100000000E-03 0.  1.
         23    2    1    0    0    0  0.13612145469E+02 -0.11712985898E+02  0.22230543807E+02  0.96422358024E+02  0.92090116224E+02 0.  0.
         11    1    3    3    0    0  0.17187228522E+02 -0.43656926343E+02  0.38225955174E+02  0.60519019252E+02  0.51100000000E-03 0. -1.
         22    1    1    0    0    0 -0.13612145469E+02  0.11712985898E+02 -0.22230543807E+02  0.28577641976E+02  0.00000000000E+00 0. -1.
</event>
<event>
 5    1  0.3183383E-003  0.9118800E+02  0.7818608E-02  0.1130116E+00
         25   -1    0    0    0    0  0.00000000000E+00  0.00000000000E+00  0.99999998245E-14  0.12500000000E+03  0.12500000000E+03 0.  0.
        -11    1    3    3    0    0 -0.28231796335E+02 -0.49712017068E+01 -0.52817277070E+02  0.60095024154E+02  0.51100000000E-03 0. -1.
         23    2    1    0    0    0 -0.21751804693E+01 -0.58785037046E+01 -0.28740573709E+02  0.95583868490E+02  0.90944857593E+02 0.  0.
         11    1    3    3    0    0  0.26056615866E+02 -0.90730199772E+00  0.24076703361E+02  0.35488844336E+02  0.51100000000E-03 0.  1.
         22    1    1    0    0    0  0.21751804693E+01  0.58785037046E+01  0.28740573709E+02  0.29416131510E+02  0.00000000000E+00 0. -1.
</event>
<event>
 5    1  0.3183383E-003  0.9118800E+02  0.7818608E-02  0.1130116E+00
         25   -1    0    0    0    0  0.00000000000E+00  0.00000000000E+00  0.99999998245E-14  0.12500000000E+03  0.12500000000E+03 0.  0.
        -11    1    3    3    0    0  0.52604245798E+01 -0.64460418057E+01  0.59148992903E+02  0.59731288982E+02  0.51100000000E-03 0.  1.
         23    2    1    0    0    0  0.77677021391E+01 -0.14057440935E+02  0.21845232715E+02  0.97886109933E+02  0.94055980583E+02 0.  0.
         11    1    3    3    0    0  0.25072775593E+01 -0.76113991290E+01 -0.37303760188E+02  0.38154820952E+02  0.51100000000E-03 0. -1.
         22    1    1    0    0    0 -0.77677021391E+01  0.14057440935E+02 -0.21845232715E+02  0.27113890067E+02  0.00000000000E+00 0.  1.
</event>
<event>
 5    1  0.3183383E-003  0.9118800E+02  0.7818608E-02  0.1130116E+00
         25   -1    0    0    0    0  0.00000000000E+00  0.00000000000E+00  0.99999998245E-14  0.12500000000E+03  0.12500000000E+03 0.  0.
        -11    1    3    3    0    0 -0.53593275357E+02  0.12995072087E+01  0.29388137484E+02  0.61135836524E+02  0.51100000000E-03 0.  1.
         23    2    1    0    0    0 -0.20903280369E+02 -0.51549592562E+01  0.19651474996E+02  0.95850365275E+02  0.91310411886E+02 0.  0.
         11    1    3    3    0    0  0.32689994988E+02 -0.64544664649E+01 -0.97366624883E+01  0.34714528750E+02  0.51100000000E-03 0. -1.
         22    1    1    0    0    0  0.20903280369E+02  0.51549592562E+01 -0.19651474996E+02  0.29149634725E+02  0.00000000000E+00 0.  1.
</event>
<event>
 5    1  0.3183383E-003  0.9118800E+02  0.7818608E-02  0.1130116E+00
         25   -1    0    0    0    0  0.00000000000E+00  0.00000000000E+00  0.99999998245E-14  0.12500000000E+03  0.12500000000E+03 0.  0.
        -11    1    3    3    0    0  0.45853955991E+02  0.34962002105E+01  0.19613312350E+02  0.49994906916E+02  0.51100000000E-03 0.  1.
         23    2    1    0    0    0  0.21076944473E+02  0.13178533553E+02 -0.16732207891E+02  0.95035385605E+02  0.90187839542E+02 0.  0.
         11    1    3    3    0    0 -0.24777011518E+02  0.96823333428E+01 -0.36345520241E+02  0.45040478689E+02  0.51100000000E-03 0. -1.
         22    1    1    0    0    0 -0.21076944473E+02 -0.13178533553E+02  0.16732207891E+02  0.29964614395E+02  0.00000000000E+00 0.  1.
</event>
<event>
 5    1  0.3183383E-003  0.9118800E+02  0.7818608E-02  0.1130116E+00
         25   -1    0    0    0    0  0.00000000000E+00  0.00000000000E+00  0.99999998245E-14  0.12500000000E+03  0.12500000000E+03 0.  0.
        -11    1    3    3    0    0  0.67555109506E+01 -0.34386227852E+02 -0.24363119680E+02  0.42680337333E+02  0.51100000000E-03 0. -1.
         23    2    1    0    0    0 -0.11057443017E+02  0.14366388366E+02 -0.24421209835E+02  0.94585272473E+02  0.89561811718E+02 0.  0.
         11    1    3    3    0    0 -0.17812953968E+02  0.48752616218E+02 -0.58090155038E-01  0.51904935140E+02  0.51100000000E-03 0.  1.
         22    1    1    0    0    0  0.11057443017E+02 -0.14366388366E+02  0.24421209835E+02  0.30414727527E+02  0.00000000000E+00 0. -1.
</event>
<event>
 5    1  0.3183383E-003  0.9118800E+02  0.7818608E-02  0.1130116E+00
         25   -1    0    0    0    0  0.00000000000E+00  0.00000000000E+00  0.99999998245E-14  0.12500000000E+03  0.12500000000E+03 0.  0.
        -11    1    3    3    0    0 -0.38194045148E+02  0.17918543553E+02  0.31264691094E+02  0.52510381805E+02  0.51100000000E-03 0. -1.
         23    2    1    0    0    0 -0.24542106390E+02  0.10465209474E+02 -0.99207307290E+01  0.96534995282E+02  0.92242879511E+02 0.  0.
         11    1    3    3    0    0  0.13651938758E+02 -0.74533340790E+01 -0.41185421823E+02  0.44024613477E+02  0.51100000000E-03 0.  1.
         22    1    1    0    0    0  0.24542106390E+02 -0.10465209474E+02  0.99207307290E+01  0.28465004718E+02  0.00000000000E+00 0. -1.
</event>
<event>
 5    1  0.3183383E-003  0.9118800E+02  0.7818608E-02  0.1130116E+00
         25   -1    0    0    0    0  0.00000000000E+00  0.00000000000E+00  0.99999998245E-14  0.12500000000E+03  0.12500000000E+03 0.  0.
        -11    1    3    3    0    0 -0.27788452839E+02  0.12278659905E+02 -0.37036083678E+02  0.47902349574E+02  0.51100000000E-03 0.  1.
         23    2    1    0    0    0 -0.59018899648E+01 -0.24166604450E+02 -0.16774481904E+02  0.94995994952E+02  0.90133227713E+02 0.  0.
         11    1    3    3    0    0  0.21886562874E+02 -0.36445264354E+02  0.20261601774E+02  0.47093645378E+02  0.51100000000E-03 0. -1.
         22    1    1    0    0    0  0.59018899648E+01  0.24166604450E+02  0.16774481904E+02  0.30004005048E+02  0.00000000000E+00 0.  1.
</event>
<event>
 5    1  0.3183383E-003  0.9118800E+02  0.7818608E-02  0.1130116E+00
         25   -1    0    0    0    0  0.00000000000E+00  0.00000000000E+00  0.99999998245E-14  0.12500000000E+03  0.12500000000E+03 0.  0.
        -11    1    3    3    0    0 -0.19827820378E+02  0.22287282274E+02 -0.24843120684E+02  0.38820691103E+02  0.51100000000E-03 0.  1.
         23    2    1    0    0    0  0.20905636551E+02 -0.16075972931E+02 -0.10735181500E+02  0.96526737680E+02  0.92231688807E+02 0.  0.
         11    1    3    3    0    0  0.40733456929E+02 -0.38363255205E+02  0.14107939184E+02  0.57706046578E+02  0.51100000000E-03 0. -1.
         22    1    1    0    0    0 -0.20905636551E+02  0.16075972931E+02  0.10735181500E+02  0.28473262320E+02  0.00000000000E+00 0. -1.
</event>
<event>
 5    1  0.3183383E-003  0.9118800E+02  0.7818608E-02  0.1130116E+00
         25   -1    0    0    0    0  0.00000000000E+00  0.00000000000E+00  0.99999998245E-14  0.12500000000E+03  0.12500000000E+03 0.  0.
        -11    1    3    3    0    0  0.11669077386E+02  0.11899004484E+02 -0.43111159704E+02  0.46220404217E+02  0.51100000000E-03 0.  1.
         23    2    1    0    0    0 -0.25718479198E+02 -0.87498288836E+00 -0.11525912896E+02  0.96803325810E+02  0.92605785200E+02 0.  0.
         11    1    3    3    0    0 -0.37387556584E+02 -0.12773987372E+02  0.31585246808E+02  0.50582921593E+02  0.51100000000E-03 0. -1.
         22    1    1    0    0    0  0.25718479198E+02  0.87498288836E+00  0.11525912896E+02  0.28196674190E+02  0.00000000000E+00 0. -1.
</event>
<event>
 5    1  0.3183383E-003  0.9118800E+02  0.7818608E-02  0.1130116E+00
         25   -1    0    0    0    0  0.00000000000E+00  0.00000000000E+00  0.99999998245E-14  0.12500000000E+03  0.12500000000E+03 0.  0.
        -11    1    3    3    0    0  0.51438156615E+02  0.95848371308E+01 -0.17258792979E+02  0.55096451738E+02  0.51100000000E-03 0.  1.
         23    2    1    0    0    0  0.16067761612E+02 -0.64746549607E+01 -0.24880691943E+02  0.94682629539E+02  0.89697588511E+02 0.  0.
         11    1    3    3    0    0 -0.35370395002E+02 -0.16059492091E+02 -0.76218989643E+01  0.39586177801E+02  0.51100000000E-03 0. -1.
         22    1    1    0    0    0 -0.16067761612E+02  0.64746549607E+01  0.24880691943E+02  0.30317370461E+02  0.00000000000E+00 0.  1.
</event>
<event>
 5    1  0.3183383E-003  0.9118800E+02  0.7818608E-02  0.1130116E+00
         25   -1    0    0    0    0  0.00000000000E+00  0.00000000000E+00  0.99999998245E-14  0.12500000000E+03  0.12500000000E+03 0.  0.
        -11    1    3    3    0    0  0.23521213040E+02  0.52607663286E+02  0.23104244429E+02  0.62085584561E+02  0.51100000000E-03 0.  1.
         23    2    1    0    0    0  0.14350788176E+02  0.24088089368E+02  0.69869955368E+01  0.96103645952E+02  0.91656486338E+02 0.  0.
         11    1    3    3    0    0 -0.91704248635E+01 -0.28519573919E+02 -0.16117248892E+02  0.34018061391E+02  0.51100000000E-03 0. -1.
         22    1    1    0    0    0 -0.14350788176E+02 -0.24088089368E+02 -0.69869955368E+01  0.28896354048E+02  0.00000000000E+00 0.  1.
</event>
<event>
 5    1  0.3183383E-003  0.9118800E+02  0.7818608E-02  0.1130116E+00
         25   -1    0    0    0    0  0.00000000000E+00  0.00000000000E+00  0.99999998245E-14  0.12500000000E+03  0.12500000000E+03 0.  0.
        -11    1    3    3    0    0 -0.26140062868E+02 -0.57743018478E+01 -0.19120548052E+02  0.32897428572E+02  0.51100000000E-03 0. -1.
         23    2    1    0    0    0  0.21772459170E+01  0.68795404435E+01  0.31729605622E+02  0.92460234336E+02  0.86545124554E+02 0.  0.
         11    1    3    3    0    0  0.28317308785E+02  0.12653842291E+02  0.50850153675E+02  0.59562805765E+02  0.51100000000E-03 0.  1.
         22    1    1    0    0    0 -0.21772459170E+01 -0.68795404435E+01 -0.31729605622E+02  0.32539765664E+02  0.00000000000E+00 0.  1.
</event>
<event>
 5    1  0.3183383E-003  0.9118800E+02  0.7818608E-02  0.1130116E+00
         25   -1    0    0    0    0  0.00000000000E+00  0.00000000000E+00  0.99999998245E-14  0.12500000000E+03  0.12500000000E+03 0.  0.
        -11    1    3    3    0    0 -0.28841765468E+02  0.43064848777E+02 -0.17822879517E+02  0.54809521710E+02  0.51100000000E-03 0. -1.
         23    2    1    0    0    0 -0.27225866225E+02  0.15233103172E+02  0.79815709401E+01  0.92797504776E+02  0.87030892182E+02 0.  0.
         11    1    3    3    0    0  0.16158992423E+01 -0.27831745605E+02  0.25804450457E+02  0.37987983066E+02  0.51100000000E-03 0.  1.
         22    1    1    0    0    0  0.27225866225E+02 -0.15233103172E+02 -0.79815709401E+01  0.32202495224E+02  0.00000000000E+00 0. -1.
</event>
<event>
 5    1  0.3183383E-003  0.9118800E+02  0.7818608E-02  0.1130116E+00
         25   -1    0    0    0    0  0.00000000000E+00  0.00000000000E+00  0.99999998245E-14  0.12500000000E+03  0.12500000000E+03 0.  0.
        -11    1    3    3    0    0  0.35647493381E+02 -0.12457094655E+00  0.10799564970E+02  0.37247683231E+02  0.51100000000E-03 0.  1.
         23    2    1    0    0    0 -0.16427039419E+02 -0.15390485383E+02 -0.15617844939E+02  0.97602340520E+02  0.93678093117E+02 0.  0.
         11    1    3    3    0    0 -0.52074532800E+02 -0.15265914437E+02 -0.26417409910E+02  0.60354657289E+02  0.51100000000E-03 0. -1.
         22    1    1    0    0    0  0.16427039419E+02  0.15390485383E+02  0.15617844939E+02  0.27397659480E+02  0.00000000000E+00 0. -1.
</event>
<event>
 5    1  0.3183383E-003  0.9118800E+02  0.7818608E-02  0.1130116E+00
         25   -1    0    0    0    0  0.00000000000E+00  0.00000000000E+00  0.99999998245E-14  0.12500000000E+03  0.12500000000E+03 0.  0.
        -11    1    3    3    0    0 -0.10326389900E+02  0.39548729576E+02 -0.34302308735E+02  0.53360891337E+02  0.51100000000E-03 0. -1.
         23    2    1    0    0    0  0.53188128366E+01 -0.23634994371E+01 -0.25357073158E+02  0.98983523323E+02  0.95503302721E+02 0.  0.
         11    1    3    3    0    0  0.15645202736E+02 -0.41912229013E+02  0.89452355777E+01  0.45622631986E+02  0.51100000000E-03 0.  1.
         22    1    1    0    0    0 -0.53188128366E+01  0.23634994371E+01  0.25357073158E+02  0.26016476677E+02  0.00000000000E+00 0.  1.
</event>
<event>
 5    1  0.3183383E-003  0.9118800E+02  0.7818608E-02  0.1130116E+00
         25   -1    0    0    0    0  0.00000000000E+00  0.00000000000E+00  0.99999998245E-14  0.12500000000E+03  0.12500000000E+03 0.  0.
        -11    1    3    3    0    0 -0.27448839551E+02  0.13328633647E+02  0.38352881075E+02  0.49010557582E+02  0.51100000000E-03 0.  1.
         23    2    1    0    0    0 -0.13120363341E+02 -0.22041546105E+02  0.69714988878E+01  0.98418512351E+02  0.94760899572E+02 0.  0.
         11    1    3    3    0    0  0.14328476209E+02 -0.35370179752E+02 -0.31381382187E+02  0.49407954768E+02  0.51100000000E-03 0. -1.
         22    1    1    0    0    0  0.13120363341E+02  0.22041546105E+02 -0.69714988878E+01  0.26581487649E+02  0.00000000000E+00 0. -1.
</event>
<event>
 5    1  0.3183383E-003  0.9118800E+02  0.7818608E-02  0.1130116E+00
         25   -1    0    0    0    0  0.00000000000E+00  0.00000000000E+00  0.99999998245E-14  0.12500000000E+03  0.12500000000E+03 0.  0.
        -11    1    3    3    0    0 -0.28536995881E+02  0.37409962325E+02  0.11601910388E+02  0.48461012577E+02  0.51100000000E-03 0. -1.
         23    2    1    0    0    0  0.15200342133E+02  0.25404860815E+02 -0.45588457268E+00  0.95391467703E+02  0.90680024955E+02 0.  0.
         11    1    3    3    0    0  0.43737338014E+02 -0.12005101509E+02 -0.12057794961E+02  0.46930455127E+02  0.51100000000E-03 0.  1.
         22    1    1    0    0    0 -0.15200342133E+02 -0.25404860815E+02  0.45588457268E+00  0.29608532297E+02  0.00000000000E+00 0. -1.
</event>
<event>
 5    1  0.3183383E-003  0.9118800E+02  0.7818608E-02  0.1130116E+00
         25   -1    0    0    0    0  0.00000000000E+00  0.00000000000E+00  0.99999998245E-14  0.12500000000E+03  0.12500000000E+03 0.  0.
        -11    1    3    3    0    0  0.15336862146E+02 -0.23938214895E+02 -0.24851291929E+02  0.37760352007E+02  0.51100000000E-03 0.  1.
         23    2    1    0    0    0  0.14961069033E+02  0.77976308932E+01  0.23786757373E+02  0.95837584797E+02  0.91292914288E+02 0.  0.
         11    1    3    3    0    0 -0.37579311275E+00  0.31735845789E+02  0.48638049302E+02  0.58077232790E+02  0.51100000000E-03 0. -1.
         22    1    1    0    0    0 -0.14961069033E+02 -0.77976308932E+01 -0.23786757373E+02  0.29162415203E+02  0.00000000000E+00 0. -1.
</event>
<event>
 5    1  0.3183383E-003  0.9118800E+02  0.7818608E-02  0.1130116E+00
         25   -1    0    0    0    0  0.00000000000E+00  0.00000000000E+00  0.99999998245E-14  0.12500000000E+03  0.12500000000E+03 0.  0.
        -11    1    3    3    0    0 -0.22492078270E+02  0.14550749370E+02  0.46745687978E+02  0.53877427898E+02  0.51100000000E-03 0. -1.
         23    2    1    0    0    0 -0.26990875389E+02  0.54795167634E+01  0.47807213827E+01  0.97046686151E+02  0.92933694308E+02 0.  0.
         11    1    3    3    0    0 -0.44987971184E+01 -0.90712326068E+01 -0.41964966595E+02  0.43169258253E+02  0.51100000000E-03 0.  1.
         22    1    1    0    0    0  0.26990875389E+02 -0.54795167634E+01 -0.47807213827E+01  0.27953313849E+02  0.00000000000E+00 0.  1.
</event>
<event>
 5    1  0.3183383E-003  0.9118800E+02  0.7818608E-02  0.1130116E+00
         25   -1    0    0    0    0  0.00000000000E+00  0.00000000000E+00  0.99999998245E-14  0.12500000000E+03  0.12500000000E+03 0.  0.
        -11    1    3    3    0    0 -0.10755657377E+02 -0.23575102110E+02  0.26450620287E+02  0.37028433925E+02  0.51100000000E-03 0. -1.
         23    2    1    0    0    0  0.99978118834E+01  0.25640492394E+02 -0.17410860719E+01  0.97424241200E+02  0.93440142872E+02 0.  0.
         11    1    3    3    0    0  0.20753469261E+02  0.49215594504E+02 -0.28191706359E+02  0.60395807275E+02  0.51100000000E-03 0.  1.
         22    1    1    0    0    0 -0.99978118834E+01 -0.25640492394E+02  0.17410860719E+01  0.27575758800E+02  0.00000000000E+00 0.  1.
</event>
<event>
 5    1  0.3183383E-003  0.9118800E+02  0.7818608E-02  0.1130116E+00
         25   -1    0    0    0    0  0.00000000000E+00  0.00000000000E+00  0.99999998245E-14  0.12500000000E+03  0.12500000000E+03 0.  0.
        -11    1    3    3    0    0  0.48259137779E+02 -0.19248953968E+01 -0.28164285059E+02  0.55909539030E+02  0.51100000000E-03 0.  1.
         23    2    1    0    0    0  0.29325628912E+02 -0.69448637627E+00  0.60650573545E+01  0.95045705765E+02  0.90202142110E+02 0.  0.
         11    1    3    3    0    0 -0.18933508867E+02  0.12304090205E+01  0.34229342413E+02  0.39136166735E+02  0.51100000000E-03 0. -1.
         22    1    1    0    0    0 -0.29325628912E+02  0.69448637627E+00 -0.60650573545E+01  0.29954294235E+02  0.00000000000E+00 0.  1.
</event>
<event>
 5    1  0.3183383E-003  0.9118800E+02  0.7818608E-02  0.1130116E+00
         25   -1    0    0    0    0  0.00000000000E+00  0.00000000000E+00  0.99999998245E-14  0.12500000000E+03  0.12500000000E+03 0.  0.
        -11    1    3    3    0    0 -0.21007753864E+02 -0.56745754658E+02 -0.24855455994E+01  0.60560583974E+02  0.51100000000E-03 0. -1.
         23    2    1    0    0    0  0.29487285748E+01 -0.21015994010E+02  0.12577009347E+01  0.10374091215E+03  0.10153929308E+03 0.  0.
         11    1    3    3    0    0  0.23956482439E+02  0.35729760647E+02  0.37432465341E+01  0.43180328179E+02  0.51100000000E-03 0.  1.
         22    1    1    0    0    0 -0.29487285748E+01  0.21015994010E+02 -0.12577009347E+01  0.21259087847E+02  0.00000000000E+00 0. -1.
</event>
<event>
 5    1  0.3183383E-003  0.9118800E+02  0.7818608E-02  0.1130116E+00
         25   -1    0    0    0    0  0.00000000000E+00  0.00000000000E+00  0.99999998245E-14  0.12500000000E+03  0.12500000000E+03 0.  0.
        -11    1    3    3    0    0  0.38131876550E+02  0.23211879043E+02 -0.35382534392E+02  0.56962751673E+02  0.51100000000E-03 0.  1.
         23    2    1    0    0    0  0.19162121653E+02 -0.74081821110E+01 -0.20625664736E+02  0.95888385235E+02  0.91362444739E+02 0.  0.
         11    1    3    3    0    0 -0.18969754897E+02 -0.30620061154E+02  0.14756869656E+02  0.38925633562E+02  0.51100000000E-03 0. -1.
         22    1    1    0    0    0 -0.19162121653E+02  0.74081821110E+01  0.20625664736E+02  0.29111614765E+02  0.00000000000E+00 0.  1.
</event>
<event>
 5    1  0.3183383E-003  0.9118800E+02  0.7818608E-02  0.1130116E+00
         25   -1    0    0    0    0  0.00000000000E+00  0.00000000000E+00  0.99999998245E-14  0.12500000000E+03  0.12500000000E+03 0.  0.
        -11    1    3    3    0    0  0.26879275073E+02  0.95099339627E+01 -0.29334255647E+02  0.40907613315E+02  0.51100000000E-03 0.  1.
         23    2    1    0    0    0  0.12895708619E+02 -0.21267572505E+02  0.14459010955E+02  0.96230711882E+02  0.91829613799E+02 0.  0.
         11    1    3    3    0    0 -0.13983566454E+02 -0.30777506467E+02  0.43793266602E+02  0.55323098567E+02  0.51100000000E-03 0. -1.
         22    1    1    0    0    0 -0.12895708619E+02  0.21267572505E+02 -0.14459010955E+02  0.28769288118E+02  0.00000000000E+00 0. -1.
</event>
<event>
 5    1  0.3183383E-003  0.9118800E+02  0.7818608E-02  0.1130116E+00
         25   -1    0    0    0    0  0.00000000000E+00  0.00000000000E+00  0.99999998245E-14  0.12500000000E+03  0.12500000000E+03 0.  0.
        -11    1    3    3    0    0 -0.10781141076E+02  0.46793920385E+01 -0.33700254120E+02  0.35690850939E+02  0.51100000000E-03 0. -1.
         23    2    1    0    0    0  0.23414459112E+02  0.16458640902E+02  0.11995328729E+02  0.93967570718E+02  0.88695505407E+02 0.  0.
         11    1    3    3    0    0  0.34195600187E+02  0.11779248863E+02  0.45695582849E+02  0.58276719779E+02  0.51100000000E-03 0.  1.
         22    1    1    0    0    0 -0.23414459112E+02 -0.16458640902E+02 -0.11995328729E+02  0.31032429282E+02  0.00000000000E+00 0.  1.
</event>
<event>
 5    1  0.3183383E-003  0.9118800E+02  0.7818608E-02  0.1130116E+00
         25   -1    0    0    0    0  0.00000000000E+00  0.00000000000E+00  0.99999998245E-14  0.12500000000E+03  0.12500000000E+03 0.  0.
        -11    1    3    3    0    0  0.57163775673E+02  0.12455329026E+02  0.13885680197E+02  0.60130230210E+02  0.51100000000E-03 0.  1.
         23    2    1    0    0    0  0.24595701095E+02  0.98640794976E+01 -0.52389365117E+01  0.97987132095E+02  0.94190142922E+02 0.  0.
         11    1    3    3    0    0 -0.32568074578E+02 -0.25912495282E+01 -0.19124616708E+02  0.37856901885E+02  0.51100000000E-03 0. -1.
         22    1    1    0    0    0 -0.24595701095E+02 -0.98640794976E+01  0.52389365117E+01  0.27012867905E+02  0.00000000000E+00 0.  1.
</event>
<event>
 5    1  0.3183383E-003  0.9118800E+02  0.7818608E-02  0.1130116E+00
         25   -1    0    0    0    0  0.00000000000E+00  0.00000000000E+00  0.99999998245E-14  0.12500000000E+03  0.12500000000E+03 0.  0.
        -11    1    3    3    0    0 -0.38311704250E+02 -0.16531290842E+02 -0.42993646978E+02  0.59912635898E+02  0.51100000000E-03 0.  1.
         23    2    1    0    0    0 -0.84834694588E+01 -0.15297569037E+02 -0.24020103956E+02  0.95285520928E+02  0.90533862349E+02 0.  0.
         11    1    3    3    0    0  0.29828234791E+02  0.12337218052E+01  0.18973543022E+02  0.35372885030E+02  0.51100000000E-03 0. -1.
         22    1    1    0    0    0  0.84834694588E+01  0.15297569037E+02  0.24020103956E+02  0.29714479072E+02  0.00000000000E+00 0.  1.
</event>
<event>
 5    1  0.3183383E-003  0.9118800E+02  0.7818608E-02  0.1130116E+00
         25   -1    0    0    0    0  0.00000000000E+00  0.00000000000E+00  0.99999998245E-14  0.12500000000E+03  0.12500000000E+03 0.  0.
        -11    1    3    3    0    0 -0.41967998573E+02  0.40486405299E+02  0.35722162565E+01  0.58422792192E+02  0.51100000000E-03 0.  1.
         23    2    1    0    0    0 -0.41937040713E+02  0.21340853530E+02  0.53077106562E+01  0.77646866993E+02  0.61536304312E+02 0.  0.
         11    1    3    3    0    0  0.30957860724E-01 -0.19145551768E+02  0.17354943997E+01  0.19224074802E+02  0.51100000000E-03 0. -1.
         22    1    1    0    0    0  0.41937040713E+02 -0.21340853530E+02 -0.53077106562E+01  0.47353133007E+02  0.00000000000E+00 0.  1.
</event>
<event>
 5    1  0.3183383E-003  0.9118800E+02  0.7818608E-02  0.1130116E+00
         25   -1    0    0    0    0  0.00000000000E+00  0.00000000000E+00  0.99999998245E-14  0.12500000000E+03  0.12500000000E+03 0.  0.
        -11    1    3    3    0    0 -0.31965379604E+02 -0.11672776841E+02  0.85309331438E+01  0.35082987800E+02  0.51100000000E-03 0.  1.
         23    2    1    0    0    0  0.95144216301E+01  0.29452487610E+02  0.49010728268E+00  0.94044976975E+02  0.88804528284E+02 0.  0.
         11    1    3    3    0    0  0.41479801234E+02  0.41125264451E+02 -0.80408258611E+01  0.58961989174E+02  0.51100000000E-03 0. -1.
         22    1    1    0    0    0 -0.95144216301E+01 -0.29452487610E+02 -0.49010728268E+00  0.30955023025E+02  0.00000000000E+00 0. -1.
</event>
<event>
 5    1  0.3183383E-003  0.9118800E+02  0.7818608E-02  0.1130116E+00
         25   -1    0    0    0    0  0.00000000000E+00  0.00000000000E+00  0.99999998245E-14  0.12500000000E+03  0.12500000000E+03 0.  0.
        -11    1    3    3    0    0 -0.23800761367E+01  0.26818555051E+02 -0.29430148595E+02  0.39887758824E+02  0.51100000000E-03 0.  1.
         23    2    1    0    0    0 -0.26699352815E+02 -0.88578806724E+01  0.65800999018E+01  0.96110292396E+02  0.91665550230E+02 0.  0.
         11    1    3    3    0    0 -0.24319276678E+02 -0.35676435724E+02  0.36010248497E+02  0.56222533571E+02  0.51100000000E-03 0. -1.
         22    1    1    0    0    0  0.26699352815E+02  0.88578806724E+01 -0.65800999018E+01  0.28889707604E+02  0.00000000000E+00 0. -1.
</event>
<event>
 5    1  0.3183383E-003  0.9118800E+02  0.7818608E-02  0.1130116E+00
         25   -1    0    0    0    0  0.00000000000E+00  0.00000000000E+00  0.99999998245E-14  0.12500000000E+03  0.12500000000E+03 0.  0.
        -11    1    3    3    0    0 -0.35822383822E+02  0.66948013730E+01  0.84528048579E+00  0.36452407979E+02  0.51100000000E-03 0.  1.
         23    2    1    0    0    0  0.97305351056E+01 -0.27280521588E+02 -0.10101893755E+02  0.94324954295E+02  0.89197749825E+02 0.  0.
         11    1    3    3    0    0  0.45552918927E+02 -0.33975322961E+02 -0.10947174241E+02  0.57872546317E+02  0.51100000000E-03 0. -1.
         22    1    1    0    0    0 -0.97305351056E+01  0.27280521588E+02  0.10101893755E+02  0.30675045705E+02  0.00000000000E+00 0. -1.
</event>
<event>
 5    1  0.3183383E-003  0.9118800E+02  0.7818608E-02  0.1130116E+00
         25   -1    0    0    0    0  0.00000000000E+00  0.00000000000E+00  0.99999998245E-14  0.12500000000E+03  0.12500000000E+03 0.  0.
        -11    1    3    3    0    0  0.25968771299E+02  0.25175803780E+02  0.44179862356E+02  0.57096921255E+02  0.51100000000E-03 0. -1.
         23    2    1    0    0    0 -0.75988292970E+00  0.15408943212E+01  0.29127890899E+02  0.95821483835E+02  0.91270865881E+02 0.  0.
         11    1    3    3    0    0 -0.26728654229E+02 -0.23634909459E+02 -0.15051971457E+02  0.38724562580E+02  0.51100000000E-03 0.  1.
         22    1    1    0    0    0  0.75988292970E+00 -0.15408943212E+01 -0.29127890899E+02  0.29178516165E+02  0.00000000000E+00 0. -1.
</event>
<event>
 5    1  0.3183383E-003  0.9118800E+02  0.7818608E-02  0.1130116E+00
         25   -1    0    0    0    0  0.00000000000E+00  0.00000000000E+00  0.99999998245E-14  0.12500000000E+03  0.12500000000E+03 0.  0.
        -11    1    3    3    0    0 -0.27060012804E+02 -0.16786466916E+02 -0.23480484668E+02  0.39564667634E+02  0.51100000000E-03 0. -1.
         23    2    1    0    0    0  0.21849685517E+02 -0.23932723483E+02 -0.56904282973E+01  0.92097644693E+02  0.86019830117E+02 0.  0.
         11    1    3    3    0    0  0.48909698321E+02 -0.71462565676E+01  0.17790056371E+02  0.52532977059E+02  0.51100000000E-03 0.  1.
         22    1    1    0    0    0 -0.21849685517E+02  0.23932723483E+02  0.56904282973E+01  0.32902355307E+02  0.00000000000E+00 0.  1.
</event>
<event>
 5    1  0.3183383E-003  0.9118800E+02  0.7818608E-02  0.1130116E+00
         25   -1    0    0    0    0  0.00000000000E+00  0.00000000000E+00  0.99999998245E-14  0.12500000000E+03  0.12500000000E+03 0.  0.
        -11    1    3    3    0    0  0.73281733901E+01  0.44944204958E+02 -0.37019052067E+02  0.58686403031E+02  0.51100000000E-03 0.  1.
         23    2    1    0    0    0  0.11848090486E+02  0.26948433172E+02 -0.58106273196E+01  0.94994022455E+02  0.90130492142E+02 0.  0.
         11    1    3    3    0    0  0.45199170960E+01 -0.17995771786E+02  0.31208424747E+02  0.36307619423E+02  0.51100000000E-03 0. -1.
         22    1    1    0    0    0 -0.11848090486E+02 -0.26948433172E+02  0.58106273196E+01  0.30005977545E+02  0.00000000000E+00 0.  1.
</event>
<event>
 5    1  0.3183383E-003  0.9118800E+02  0.7818608E-02  0.1130116E+00
         25   -1    0    0    0    0  0.00000000000E+00  0.00000000000E+00  0.99999998245E-14  0.12500000000E+03  0.12500000000E+03 0.  0.
        -11    1    3    3    0    0 -0.44127248760E+02 -0.21010224898E+02  0.21402193651E+02  0.53354451799E+02  0.51100000000E-03 0.  1.
         23    2    1    0    0    0 -0.14318472942E+02  0.97358037960E+01  0.23003519796E+02  0.96208222251E+02  0.91798995434E+02 0.  0.
         11    1    3    3    0    0  0.29808775818E+02  0.30746028694E+02  0.16013261453E+01  0.42853770452E+02  0.51100000000E-03 0. -1.
         22    1    1    0    0    0  0.14318472942E+02 -0.97358037960E+01 -0.23003519796E+02  0.28791777749E+02  0.00000000000E+00 0.  1.
</event>
<event>
 5    1  0.3183383E-003  0.9118800E+02  0.7818608E-02  0.1130116E+00
         25   -1    0    0    0    0  0.00000000000E+00  0.00000000000E+00  0.99999998245E-14  0.12500000000E+03  0.12500000000E+03 0.  0.
        -11    1    3    3    0    0  0.10572803759E+02 -0.41557926654E+02  0.58234180835E+01  0.43275369965E+02  0.51100000000E-03 0.  1.
         23    2    1    0    0    0 -0.12525678898E+02 -0.71557413791E+01 -0.25826937567E+02  0.95417438065E+02  0.90715817344E+02 0.  0.
         11    1    3    3    0    0 -0.23098482657E+02  0.34402185275E+02 -0.31650355650E+02  0.52142068101E+02  0.51100000000E-03 0. -1.
         22    1    1    0    0    0  0.12525678898E+02  0.71557413791E+01  0.25826937567E+02  0.29582561935E+02  0.00000000000E+00 0. -1.
</event>
<event>
 5    1  0.3183383E-003  0.9118800E+02  0.7818608E-02  0.1130116E+00
         25   -1    0    0    0    0  0.00000000000E+00  0.00000000000E+00  0.99999998245E-14  0.12500000000E+03  0.12500000000E+03 0.  0.
        -11    1    3    3    0    0 -0.14844685449E+02  0.26188281171E+02 -0.51351637493E+02  0.59524628771E+02  0.51100000000E-03 0.  1.
         23    2    1    0    0    0  0.69625623101E+01  0.13684250650E+02 -0.22042812478E+02  0.98136985059E+02  0.94388803705E+02 0.  0.
         11    1    3    3    0    0  0.21807247760E+02 -0.12504030521E+02  0.29308825016E+02  0.38612356289E+02  0.51100000000E-03 0. -1.
         22    1    1    0    0    0 -0.69625623101E+01 -0.13684250650E+02  0.22042812478E+02  0.26863014941E+02  0.00000000000E+00 0.  1.
</event>
<event>
 5    1  0.3183383E-003  0.9118800E+02  0.7818608E-02  0.1130116E+00
         25   -1    0    0    0    0  0.00000000000E+00  0.00000000000E+00  0.99999998245E-14  0.12500000000E+03  0.12500000000E+03 0.  0.
        -11    1    3    3    0    0  0.81526413430E+01 -0.14557459484E+02  0.36973378367E+02  0.40563726353E+02  0.51100000000E-03 0. -1.
         23    2    1    0    0    0 -0.22350218758E+02  0.18204117832E+02  0.45932353204E+01  0.95810618450E+02  0.91255983982E+02 0.  0.
         11    1    3    3    0    0 -0.30502860101E+02  0.32761577315E+02 -0.32380143046E+02  0.55246892098E+02  0.51100000000E-03 0.  1.
         22    1    1    0    0    0  0.22350218758E+02 -0.18204117832E+02 -0.45932353204E+01  0.29189381550E+02  0.00000000000E+00 0. -1.
</event>
<event>
 5    1  0.3183383E-003  0.9118800E+02  0.7818608E-02  0.1130116E+00
         25   -1    0    0    0    0  0.00000000000E+00  0.00000000000E+00  0.99999998245E-14  0.12500000000E+03  0.12500000000E+03 0.  0.
        -11    1    3    3    0    0  0.38552996434E+02 -0.11711554655E+01  0.46256154802E+02  0.60227377467E+02  0.51100000000E-03 0. -1.
         23    2    1    0    0    0  0.24609173224E+02  0.69174062921E+01  0.15090317450E+02  0.95315330602E+02  0.90575011181E+02 0.  0.
         11    1    3    3    0    0 -0.13943823211E+02  0.80885617575E+01 -0.31165837353E+02  0.35087953135E+02  0.51100000000E-03 0.  1.
         22    1    1    0    0    0 -0.24609173224E+02 -0.69174062921E+01 -0.15090317450E+02  0.29684669398E+02  0.00000000000E+00 0. -1.
</event>
<event>
 5    1  0.3183383E-003  0.9118800E+02  0.7818608E-02  0.1130116E+00
         25   -1    0    0    0    0  0.00000000000E+00  0.00000000000E+00  0.99999998245E-14  0.12500000000E+03  0.12500000000E+03 0.  0.
        -11    1    3    3    0    0  0.37446582453E+02 -0.54417149773E+01  0.73700852721E+01  0.38550965701E+02  0.51100000000E-03 0. -1.
         23    2    1    0    0    0 -0.79760853111E+01  0.10427890962E+02 -0.25153006254E+02  0.96626904110E+02  0.92367342862E+02 0.  0.
         11    1    3    3    0    0 -0.45422667764E+02  0.15869605939E+02 -0.32523091526E+02  0.58075938409E+02  0.51100000000E-03 0.  1.
         22    1    1    0    0    0  0.79760853111E+01 -0.10427890962E+02  0.25153006254E+02  0.28373095890E+02  0.00000000000E+00 0.  1.
</event>
<event>
 5    1  0.3183383E-003  0.9118800E+02  0.7818608E-02  0.1130116E+00
         25   -1    0    0    0    0  0.00000000000E+00  0.00000000000E+00  0.99999998245E-14  0.12500000000E+03  0.12500000000E+03 0.  0.
        -11    1    3    3    0    0  0.25464363099E+02 -0.25145426681E+02 -0.10550891932E+02  0.37310154005E+02  0.51100000000E-03 0.  1.
         23    2    1    0    0    0  0.13115668280E+01  0.15155498012E+02  0.24660916871E+02  0.96024663100E+02  0.91548707118E+02 0.  0.
         11    1    3    3    0    0 -0.24152796271E+02  0.40300924693E+02  0.35211808803E+02  0.58714509095E+02  0.51100000000E-03 0. -1.
         22    1    1    0    0    0 -0.13115668280E+01 -0.15155498012E+02 -0.24660916871E+02  0.28975336900E+02  0.00000000000E+00 0. -1.
</event>
<event>
 5    1  0.3183383E-003  0.9118800E+02  0.7818608E-02  0.1130116E+00
         25   -1    0    0    0    0  0.00000000000E+00  0.00000000000E+00  0.99999998245E-14  0.12500000000E+03  0.12500000000E+03 0.  0.
        -11    1    3    3    0    0 -0.22009155041E+02 -0.21948983348E+02 -0.21610243121E+02  0.37857144420E+02  0.51100000000E-03 0.  1.
         23    2    1    0    0    0  0.67632667310E+01  0.26893275933E+02 -0.67468864676E+01  0.96460368883E+02  0.92141696429E+02 0.  0.
         11    1    3    3    0    0  0.28772421772E+02  0.48842259280E+02  0.14863356654E+02  0.58603224463E+02  0.51100000000E-03 0. -1.
         22    1    1    0    0    0 -0.67632667310E+01 -0.26893275933E+02  0.67468864676E+01  0.28539631117E+02  0.00000000000E+00 0. -1.
</event>
<event>
 5    1  0.3183383E-003  0.9118800E+02  0.7818608E-02  0.1130116E+00
         25   -1    0    0    0    0  0.00000000000E+00  0.00000000000E+00  0.99999998245E-14  0.12500000000E+03  0.12500000000E+03 0.  0.
        -11    1    3    3    0    0  0.39715829057E+01  0.54959794550E+02 -0.20511574344E+02  0.58796914631E+02  0.51100000000E-03 0. -1.
         23    2    1    0    0    0  0.16246050066E+02  0.31253355724E+02 -0.57250367371E+01  0.89314114381E+02  0.81875079208E+02 0.  0.
         11    1    3    3    0    0  0.12274467160E+02 -0.23706438827E+02  0.14786537607E+02  0.30517199750E+02  0.51100000000E-03 0.  1.
         22    1    1    0    0    0 -0.16246050066E+02 -0.31253355724E+02  0.57250367371E+01  0.35685885619E+02  0.00000000000E+00 0. -1.
</event>
<event>
 5    1  0.3183383E-003  0.9118800E+02  0.7818608E-02  0.1130116E+00
         25   -1    0    0    0    0  0.00000000000E+00  0.00000000000E+00  0.99999998245E-14  0.12500000000E+03  0.12500000000E+03 0.  0.
        -11    1    3    3    0    0  0.12907582504E+02 -0.58005412619E+02 -0.11587414494E+02  0.60543387369E+02  0.51100000000E-03 0.  1.
         23    2    1    0    0    0  0.34576887208E+01 -0.27365785090E+02  0.54962929326E+01  0.96874370391E+02  0.92701632121E+02 0.  0.
         11    1    3    3    0    0 -0.94498937828E+01  0.30639627529E+02  0.17083707427E+02  0.36330983022E+02  0.51100000000E-03 0. -1.
         22    1    1    0    0    0 -0.34576887208E+01  0.27365785090E+02 -0.54962929326E+01  0.28125629609E+02  0.00000000000E+00 0.  1.
</event>
<event>
 5    1  0.3183383E-003  0.9118800E+02  0.7818608E-02  0.1130116E+00
         25   -1    0    0    0    0  0.00000000000E+00  0.00000000000E+00  0.99999998245E-14  0.12500000000E+03  0.12500000000E+03 0.  0.
        -11    1    3    3    0    0 -0.27717993608E+02  0.34246828450E+02  0.12018479343E+01  0.44074673762E+02  0.51100000000E-03 0.  1.
         23    2    1    0    0    0  0.11524113729E+02  0.13358270904E+02 -0.24028224089E+02  0.95190535871E+02  0.90402621465E+02 0.  0.
         11    1    3    3    0    0  0.39242107336E+02 -0.20888557546E+02 -0.25230072024E+02  0.51115862109E+02  0.51100000000E-03 0. -1.
         22    1    1    0    0    0 -0.11524113729E+02 -0.13358270904E+02  0.24028224089E+02  0.29809464129E+02  0.00000000000E+00 0. -1.
</event>
<event>
 5    1  0.3183383E-003  0.9118800E+02  0.7818608E-02  0.1130116E+00
         25   -1    0    0    0    0  0.00000000000E+00  0.00000000000E+00  0.99999998245E-14  0.12500000000E+03  0.12500000000E+03 0.  0.
        -11    1    3    3    0    0 -0.16693665289E+02 -0.41633278649E+02  0.38354052729E+02  0.59017300115E+02  0.51100000000E-03 0. -1.
         23    2    1    0    0    0  0.29036645601E+01 -0.26894979153E+02  0.10879383178E+02  0.95842974263E+02  0.91300293350E+02 0.  0.
         11    1    3    3    0    0  0.19597329849E+02  0.14738299496E+02 -0.27474669551E+02  0.36825674148E+02  0.51100000000E-03 0.  1.
         22    1    1    0    0    0 -0.29036645601E+01  0.26894979153E+02 -0.10879383178E+02  0.29157025737E+02  0.00000000000E+00 0. -1.
</event>
<event>
 5    1  0.3183383E-003  0.9118800E+02  0.7818608E-02  0.1130116E+00
         25   -1    0    0    0    0  0.00000000000E+00  0.00000000000E+00  0.99999998245E-14  0.12500000000E+03  0.12500000000E+03 0.  0.
        -11    1    3    3    0    0 -0.31239902696E+02 -0.29175242070E+02 -0.11408377877E+02  0.44241127431E+02  0.51100000000E-03 0. -1.
         23    2    1    0    0    0 -0.68394519880E+01  0.14283630811E+02 -0.24550325744E+02  0.95784957525E+02  0.91220827563E+02 0.  0.
         11    1    3    3    0    0  0.24400450708E+02  0.43458872881E+02 -0.13141947868E+02  0.51543830095E+02  0.51100000000E-03 0.  1.
         22    1    1    0    0    0  0.68394519880E+01 -0.14283630811E+02  0.24550325744E+02  0.29215042475E+02  0.00000000000E+00 0. -1.
</event>
<event>
 5    1  0.3183383E-003  0.9118800E+02  0.7818608E-02  0.1130116E+00
         25   -1    0    0    0    0  0.00000000000E+00  0.00000000000E+00  0.99999998245E-14  0.12500000000E+03  0.12500000000E+03 0.  0.
        -11    1    3    3    0    0 -0.22510070435E+02  0.42330457231E+01  0.38547360151E+02  0.44838832746E+02  0.51100000000E-03 0.  1.
         23    2    1    0    0    0  0.23001617089E+02 -0.51572056080E+01  0.16154962063E+02  0.96422842029E+02  0.92090773193E+02 0.  0.
         11    1    3    3    0    0  0.45511687525E+02 -0.93902513311E+01 -0.22392398088E+02  0.51584009284E+02  0.51100000000E-03 0. -1.
         22    1    1    0    0    0 -0.23001617089E+02  0.51572056080E+01 -0.16154962063E+02  0.28577157971E+02  0.00000000000E+00 0. -1.
</event>
<event>
 5    1  0.3183383E-003  0.9118800E+02  0.7818608E-02  0.1130116E+00
         25   -1    0    0    0    0  0.00000000000E+00  0.00000000000E+00  0.99999998245E-14  0.12500000000E+03  0.12500000000E+03 0.  0.
        -11    1    3    3    0    0 -0.12789313368E+02 -0.12787768874E+01 -0.54844259142E+02  0.56330227834E+02  0.51100000000E-03 0.  1.
         23    2    1    0    0    0  0.12993950526E+02 -0.68506507722E+01 -0.23373063495E+02  0.97394307409E+02  0.93400090216E+02 0.  0.
         11    1    3    3    0    0  0.25783263894E+02 -0.55718738848E+01  0.31471195647E+02  0.41064079575E+02  0.51100000000E-03 0. -1.
         22    1    1    0    0    0 -0.12993950526E+02  0.68506507722E+01  0.23373063495E+02  0.27605692591E+02  0.00000000000E+00 0.  1.
</event>
<event>
 5    1  0.3183383E-003  0.9118800E+02  0.7818608E-02  0.1130116E+00
         25   -1    0    0    0    0  0.00000000000E+00  0.00000000000E+00  0.99999998245E-14  0.12500000000E+03  0.12500000000E+03 0.  0.
        -11    1    3    3    0    0  0.30047910118E+01 -0.26782095782E+02  0.18168476729E+02  0.32502353306E+02  0.51100000000E-03 0.  1.
         23    2    1    0    0    0 -0.20944943048E+02  0.22308269211E+02  0.22083790154E+02  0.87263501725E+02  0.78682116337E+02 0.  0.
         11    1    3    3    0    0 -0.23949734060E+02  0.49090364993E+02  0.39153134244E+01  0.54761148419E+02  0.51100000000E-03 0. -1.
         22    1    1    0    0    0  0.20944943048E+02 -0.22308269211E+02 -0.22083790154E+02  0.37736498275E+02  0.00000000000E+00 0. -1.
</event>
<event>
 5    1  0.3183383E-003  0.9118800E+02  0.7818608E-02  0.1130116E+00
         25   -1    0    0    0    0  0.00000000000E+00  0.00000000000E+00  0.99999998245E-14  0.12500000000E+03  0.12500000000E+03 0.  0.
        -11    1    3    3    0    0  0.25028134211E+02 -0.81888259042E+01 -0.54410512609E+02  0.60448062454E+02  0.51100000000E-03 0.  1.
         23    2    1    0    0    0  0.82642260247E+01 -0.14493834905E+02 -0.23363891347E+02  0.96290417960E+02  0.91910850774E+02 0.  0.
         11    1    3    3    0    0 -0.16763908186E+02 -0.63050090011E+01  0.31046621262E+02  0.35842355506E+02  0.51100000000E-03 0. -1.
         22    1    1    0    0    0 -0.82642260247E+01  0.14493834905E+02  0.23363891347E+02  0.28709582040E+02  0.00000000000E+00 0.  1.
</event>
<event>
 5    1  0.3183383E-003  0.9118800E+02  0.7818608E-02  0.1130116E+00
         25   -1    0    0    0    0  0.00000000000E+00  0.00000000000E+00  0.99999998245E-14  0.12500000000E+03  0.12500000000E+03 0.  0.
        -11    1    3    3    0    0  0.17773631711E+02 -0.42062034973E+01  0.37208731079E+02  0.41449774436E+02  0.51100000000E-03 0.  1.
         23    2    1    0    0    0  0.22426563986E+02  0.37895710379E+00 -0.17502419083E+02  0.96549533317E+02  0.92262578163E+02 0.  0.
         11    1    3    3    0    0  0.46529322748E+01  0.45851606011E+01 -0.54711150162E+02  0.55099758881E+02  0.51100000000E-03 0. -1.
         22    1    1    0    0    0 -0.22426563986E+02 -0.37895710379E+00  0.17502419083E+02  0.28450466683E+02  0.00000000000E+00 0. -1.
</event>
<event>
 5    1  0.3183383E-003  0.9118800E+02  0.7818608E-02  0.1130116E+00
         25   -1    0    0    0    0  0.00000000000E+00  0.00000000000E+00  0.99999998245E-14  0.12500000000E+03  0.12500000000E+03 0.  0.
        -11    1    3    3    0    0 -0.23119040927E+02  0.16209085443E+02 -0.14850673542E+02  0.31902460864E+02  0.51100000000E-03 0.  1.
         23    2    1    0    0    0  0.20615211568E+02 -0.23528404867E+02  0.28516130773E+01  0.93588147448E+02  0.88159156428E+02 0.  0.
         11    1    3    3    0    0  0.43734252495E+02 -0.39737490310E+02  0.17702286620E+02  0.61685686584E+02  0.51100000000E-03 0. -1.
         22    1    1    0    0    0 -0.20615211568E+02  0.23528404867E+02 -0.28516130773E+01  0.31411852552E+02  0.00000000000E+00 0. -1.
</event>
<event>
 5    1  0.3183383E-003  0.9118800E+02  0.7818608E-02  0.1130116E+00
         25   -1    0    0    0    0  0.00000000000E+00  0.00000000000E+00  0.99999998245E-14  0.12500000000E+03  0.12500000000E+03 0.  0.
        -11    1    3    3    0    0 -0.16398743628E+02  0.40783155250E+02  0.25116800708E+02  0.50626457736E+02  0.51100000000E-03 0.  1.
         23    2    1    0    0    0  0.11191911473E+02 -0.72234350097E+01 -0.57514974112E+00  0.11166704485E+03  0.11086821552E+03 0.  0.
         11    1    3    3    0    0  0.27590655101E+02 -0.48006590260E+02 -0.25691950449E+02  0.61040587116E+02  0.51100000000E-03 0. -1.
         22    1    1    0    0    0 -0.11191911473E+02  0.72234350097E+01  0.57514974112E+00  0.13332955148E+02  0.00000000000E+00 0. -1.
</event>
<event>
 5    1  0.3183383E-003  0.9118800E+02  0.7818608E-02  0.1130116E+00
         25   -1    0    0    0    0  0.00000000000E+00  0.00000000000E+00  0.99999998245E-14  0.12500000000E+03  0.12500000000E+03 0.  0.
        -11    1    3    3    0    0 -0.23343181686E+02 -0.21770501328E+02  0.17661588503E+02  0.36480002303E+02  0.51100000000E-03 0.  1.
         23    2    1    0    0    0  0.14080049827E+02  0.23662200660E+02  0.19788674632E+01  0.97394503090E+02  0.93400352101E+02 0.  0.
         11    1    3    3    0    0  0.37423231513E+02  0.45432701987E+02 -0.15682721040E+02  0.60914500788E+02  0.51100000000E-03 0. -1.
         22    1    1    0    0    0 -0.14080049827E+02 -0.23662200660E+02 -0.19788674632E+01  0.27605496910E+02  0.00000000000E+00 0. -1.
</event>
<event>
 5    1  0.3183383E-003  0.9118800E+02  0.7818608E-02  0.1130116E+00
         25   -1    0    0    0    0  0.00000000000E+00  0.00000000000E+00  0.99999998245E-14  0.12500000000E+03  0.12500000000E+03 0.  0.
        -11    1    3    3    0    0  0.38638697893E+02  0.21867839023E+02  0.43926275576E+02  0.62455336399E+02  0.51100000000E-03 0. -1.
         23    2    1    0    0    0  0.16779542041E+02  0.92021584588E+01  0.21246096032E+02  0.96405781213E+02  0.92067612673E+02 0.  0.
         11    1    3    3    0    0 -0.21859155852E+02 -0.12665680564E+02 -0.22680179544E+02  0.33950444815E+02  0.51100000000E-03 0.  1.
         22    1    1    0    0    0 -0.16779542041E+02 -0.92021584588E+01 -0.21246096032E+02  0.28594218787E+02  0.00000000000E+00 0. -1.
</event>
<event>
 5    1  0.3183383E-003  0.9118800E+02  0.7818608E-02  0.1130116E+00
         25   -1    0    0    0    0  0.00000000000E+00  0.00000000000E+00  0.99999998245E-14  0.12500000000E+03  0.12500000000E+03 0.  0.
        -11    1    3    3    0    0  0.14594756527E+02  0.33261190358E+02  0.13990472693E+02  0.38923605030E+02  0.51100000000E-03 0. -1.
         23    2    1    0    0    0 -0.15935345519E+02  0.31643860071E+01 -0.23874456612E+02  0.96122010905E+02  0.91681528818E+02 0.  0.
         11    1    3    3    0    0 -0.30530102046E+02 -0.30096804351E+02 -0.37864929305E+02  0.57198405875E+02  0.51100000000E-03 0.  1.
         22    1    1    0    0    0  0.15935345519E+02 -0.31643860071E+01  0.23874456612E+02  0.28877989095E+02  0.00000000000E+00 0.  1.
</event>
<event>
 5    1  0.3183383E-003  0.9118800E+02  0.7818608E-02  0.1130116E+00
         25   -1    0    0    0    0  0.00000000000E+00  0.00000000000E+00  0.99999998245E-14  0.12500000000E+03  0.12500000000E+03 0.  0.
        -11    1    3    3    0    0 -0.11039811064E+02 -0.10991766422E+02 -0.30198216246E+02  0.33979826693E+02  0.51100000000E-03 0. -1.
         23    2    1    0    0    0  0.42665941529E+00  0.25247752926E+02  0.16984129239E+02  0.94568245005E+02  0.89538043598E+02 0.  0.
         11    1    3    3    0    0  0.11466470480E+02  0.36239519347E+02  0.47182345485E+02  0.60588418312E+02  0.51100000000E-03 0.  1.
         22    1    1    0    0    0 -0.42665941529E+00 -0.25247752926E+02 -0.16984129239E+02  0.30431754995E+02  0.00000000000E+00 0.  1.
</event>
<event>
 5    1  0.3183383E-003  0.9118800E+02  0.7818608E-02  0.1130116E+00
         25   -1    0    0    0    0  0.00000000000E+00  0.00000000000E+00  0.99999998245E-14  0.12500000000E+03  0.12500000000E+03 0.  0.
        -11    1    3    3    0    0 -0.98541270341E+01  0.35847268766E+02 -0.17708376194E+02  0.41179085533E+02  0.51100000000E-03 0.  1.
         23    2    1    0    0    0 -0.11722530348E+02 -0.20606885519E+02 -0.13252297300E+02  0.97839645947E+02  0.93994209857E+02 0.  0.
         11    1    3    3    0    0 -0.18684033139E+01 -0.56454154286E+02  0.44560788945E+01  0.56660560414E+02  0.51100000000E-03 0. -1.
         22    1    1    0    0    0  0.11722530348E+02  0.20606885519E+02  0.13252297300E+02  0.27160354053E+02  0.00000000000E+00 0. -1.
</event>
<event>
 5    1  0.3183383E-003  0.9118800E+02  0.7818608E-02  0.1130116E+00
         25   -1    0    0    0    0  0.00000000000E+00  0.00000000000E+00  0.99999998245E-14  0.12500000000E+03  0.12500000000E+03 0.  0.
        -11    1    3    3    0    0  0.82047058209E-01 -0.44212906551E+02 -0.12529683088E+02  0.45954116203E+02  0.51100000000E-03 0.  1.
         23    2    1    0    0    0 -0.21717108932E+02 -0.78437095269E+00 -0.20416426864E+02  0.95182579856E+02  0.90391619988E+02 0.  0.
         11    1    3    3    0    0 -0.21799155990E+02  0.43428535598E+02 -0.78867437755E+01  0.49228463654E+02  0.51100000000E-03 0. -1.
         22    1    1    0    0    0  0.21717108932E+02  0.78437095269E+00  0.20416426864E+02  0.29817420144E+02  0.00000000000E+00 0.  1.
</event>
<event>
 5    1  0.3183383E-003  0.9118800E+02  0.7818608E-02  0.1130116E+00
         25   -1    0    0    0    0  0.00000000000E+00  0.00000000000E+00  0.99999998245E-14  0.12500000000E+03  0.12500000000E+03 0.  0.
        -11    1    3    3    0    0 -0.30000431550E+02  0.12352521337E+02 -0.27826954910E+02  0.42742836785E+02  0.51100000000E-03 0. -1.
         23    2    1    0    0    0  0.20476566902E+02  0.16978698992E+02 -0.74265027500E+01  0.97382633097E+02  0.93384464844E+02 0.  0.
         11    1    3    3    0    0  0.50476998452E+02  0.46261776549E+01  0.20400452160E+02  0.54639796312E+02  0.51100000000E-03 0.  1.
         22    1    1    0    0    0 -0.20476566902E+02 -0.16978698992E+02  0.74265027500E+01  0.27617366903E+02  0.00000000000E+00 0.  1.
</event>
<event>
 5    1  0.3183383E-003  0.9118800E+02  0.7818608E-02  0.1130116E+00
         25   -1    0    0    0    0  0.00000000000E+00  0.00000000000E+00  0.99999998245E-14  0.12500000000E+03  0.12500000000E+03 0.  0.
        -11    1    3    3    0    0 -0.32046060852E+00  0.18885061665E+02  0.36239087299E+02  0.40865874488E+02  0.51100000000E-03 0. -1.
         23    2    1    0    0    0 -0.28577258750E+02 -0.73534794687E+01 -0.23239849574E+01  0.95400434394E+02  0.90692384457E+02 0.  0.
         11    1    3    3    0    0 -0.28256798142E+02 -0.26238541134E+02 -0.38563072257E+02  0.54534559906E+02  0.51100000000E-03 0.  1.
         22    1    1    0    0    0  0.28577258750E+02  0.73534794687E+01  0.23239849574E+01  0.29599565606E+02  0.00000000000E+00 0. -1.
</event>
<event>
 5    1  0.3183383E-003  0.9118800E+02  0.7818608E-02  0.1130116E+00
         25   -1    0    0    0    0  0.00000000000E+00  0.00000000000E+00  0.99999998245E-14  0.12500000000E+03  0.12500000000E+03 0.  0.
        -11    1    3    3    0    0  0.28840091315E+02  0.13377241034E+02  0.26127396828E+02  0.41150240704E+02  0.51100000000E-03 0.  1.
         23    2    1    0    0    0  0.16655821631E+02 -0.95179306976E+01 -0.21993780002E+02  0.95815521972E+02  0.91262700448E+02 0.  0.
         11    1    3    3    0    0 -0.12184269684E+02 -0.22895171732E+02 -0.48121176830E+02  0.54665281268E+02  0.51100000000E-03 0. -1.
         22    1    1    0    0    0 -0.16655821631E+02  0.95179306976E+01  0.21993780002E+02  0.29184478028E+02  0.00000000000E+00 0.  1.
</event>
<event>
 5    1  0.3183383E-003  0.9118800E+02  0.7818608E-02  0.1130116E+00
         25   -1    0    0    0    0  0.00000000000E+00  0.00000000000E+00  0.99999998245E-14  0.12500000000E+03  0.12500000000E+03 0.  0.
        -11    1    3    3    0    0  0.25341989644E+02 -0.40352144642E+02 -0.28171100655E+02  0.55354520400E+02  0.51100000000E-03 0. -1.
         23    2    1    0    0    0 -0.80407602840E+01 -0.17479391932E+02 -0.21118220343E+02  0.96431447382E+02  0.92102452983E+02 0.  0.
         11    1    3    3    0    0 -0.33382749928E+02  0.22872752710E+02  0.70528803119E+01  0.41076926982E+02  0.51100000000E-03 0.  1.
         22    1    1    0    0    0  0.80407602840E+01  0.17479391932E+02  0.21118220343E+02  0.28568552618E+02  0.00000000000E+00 0. -1.
</event>
<event>
 5    1  0.3183383E-003  0.9118800E+02  0.7818608E-02  0.1130116E+00
         25   -1    0    0    0    0  0.00000000000E+00  0.00000000000E+00  0.99999998245E-14  0.12500000000E+03  0.12500000000E+03 0.  0.
        -11    1    3    3    0    0  0.90260055531E+01 -0.29034199245E+02 -0.30297195247E+02  0.42922879005E+02  0.51100000000E-03 0.  1.
         23    2    1    0    0    0 -0.27947961201E+02  0.16756389737E+01 -0.81820468010E+01  0.95830800643E+02  0.91283624822E+02 0.  0.
         11    1    3    3    0    0 -0.36973966754E+02  0.30709838219E+02  0.22115148446E+02  0.52907921638E+02  0.51100000000E-03 0. -1.
         22    1    1    0    0    0  0.27947961201E+02 -0.16756389737E+01  0.81820468010E+01  0.29169199357E+02  0.00000000000E+00 0. -1.
</event>
<event>
 5    1  0.3183383E-003  0.9118800E+02  0.7818608E-02  0.1130116E+00
         25   -1    0    0    0    0  0.00000000000E+00  0.00000000000E+00  0.99999998245E-14  0.12500000000E+03  0.12500000000E+03 0.  0.
        -11    1    3    3    0    0 -0.40138403099E+02  0.28398356775E+01 -0.35882427372E+02  0.53913863378E+02  0.51100000000E-03 0.  1.
         23    2    1    0    0    0 -0.24018936208E+02 -0.17545214788E+02 -0.40917137360E+01  0.94975243884E+02  0.90104444791E+02 0.  0.
         11    1    3    3    0    0  0.16119466891E+02 -0.20385050465E+02  0.31790713636E+02  0.41061380506E+02  0.51100000000E-03 0. -1.
         22    1    1    0    0    0  0.24018936208E+02  0.17545214788E+02  0.40917137360E+01  0.30024756116E+02  0.00000000000E+00 0.  1.
</event>
<event>
 5    1  0.3183383E-003  0.9118800E+02  0.7818608E-02  0.1130116E+00
         25   -1    0    0    0    0  0.00000000000E+00  0.00000000000E+00  0.99999998245E-14  0.12500000000E+03  0.12500000000E+03 0.  0.
        -11    1    3    3    0    0  0.40755125893E+02  0.28111885229E+02  0.29310872237E+02  0.57535950580E+02  0.51100000000E-03 0. -1.
         23    2    1    0    0    0  0.56363955552E+01  0.24863857198E+02  0.12134394843E+02  0.96764846595E+02  0.92553831086E+02 0.  0.
         11    1    3    3    0    0 -0.35118730337E+02 -0.32480280312E+01 -0.17176477393E+02  0.39228896014E+02  0.51100000000E-03 0.  1.
         22    1    1    0    0    0 -0.56363955552E+01 -0.24863857198E+02 -0.12134394843E+02  0.28235153405E+02  0.00000000000E+00 0.  1.
</event>
<event>
 5    1  0.3183383E-003  0.9118800E+02  0.7818608E-02  0.1130116E+00
         25   -1    0    0    0    0  0.00000000000E+00  0.00000000000E+00  0.99999998245E-14  0.12500000000E+03  0.12500000000E+03 0.  0.
        -11    1    3    3    0    0  0.32292025447E+02  0.68572734076E+01 -0.20571595357E+02  0.38897141821E+02  0.51100000000E-03 0.  1.
         23    2    1    0    0    0 -0.43123210097E+01 -0.18051429011E+02  0.19115989739E+02  0.98356590580E+02  0.94679182743E+02 0.  0.
         11    1    3    3    0    0 -0.36604346457E+02 -0.24908702418E+02  0.39687585096E+02  0.59459448759E+02  0.51100000000E-03 0. -1.
         22    1    1    0    0    0  0.43123210097E+01  0.18051429011E+02 -0.19115989739E+02  0.26643409420E+02  0.00000000000E+00 0. -1.
</event>
<event>
 5    1  0.3183383E-003  0.9118800E+02  0.7818608E-02  0.1130116E+00
         25   -1    0    0    0    0  0.00000000000E+00  0.00000000000E+00  0.99999998245E-14  0.12500000000E+03  0.12500000000E+03 0.  0.
        -11    1    3    3    0    0  0.21724649954E+02 -0.12292759382E+02 -0.36141083378E+02  0.43923231403E+02  0.51100000000E-03 0.  1.
         23    2    1    0    0    0  0.25893966959E+02  0.11264821689E+02  0.92937966652E+01  0.95271757721E+02  0.90514857511E+02 0.  0.
         11    1    3    3    0    0  0.41693170048E+01  0.23557581071E+02  0.45434880043E+02  0.51348526318E+02  0.51100000000E-03 0. -1.
         22    1    1    0    0    0 -0.25893966959E+02 -0.11264821689E+02 -0.92937966652E+01  0.29728242279E+02  0.00000000000E+00 0. -1.
</event>
<event>
 4    1  0.3183383E-003  0.9118800E+02  0.7818608E-02  0.1130116E+00
         25   -1    0    0    0    0  0.00000000000E+00  0.00000000000E+00  0.99999998245E-14  0.12500000000E+03  0.12500000000E+03 0.  0.
        -11    1    1    0    0    0  0.79114617257E+01 -0.50968863280E+02  0.22556753060E+02  0.56295855616E+02  0.51100000000E-03 0.  1.
         11    1    1    0    0    0  0.12618217171E+02  0.94726295714E+01  0.26357183601E+01  0.15996784899E+02  0.51100000000E-03 0. -1.
         22    1    1    0    0    0 -0.20529678896E+02  0.41496233709E+02 -0.25192471421E+02  0.52707359485E+02  0.00000000000E+00 0.  1.
</event>
<event>
 5    1  0.3183383E-003  0.9118800E+02  0.7818608E-02  0.1130116E+00
         25   -1    0    0    0    0  0.00000000000E+00  0.00000000000E+00  0.99999998245E-14  0.12500000000E+03  0.12500000000E+03 0.  0.
        -11    1    3    3    0    0  0.45289001334E+02 -0.32969872843E+01 -0.39504367708E+02  0.60187696710E+02  0.51100000000E-03 0.  1.
         23    2    1    0    0    0  0.13283198108E+02 -0.10959367142E+00 -0.27392206263E+02  0.94556801635E+02  0.89522066602E+02 0.  0.
         11    1    3    3    0    0 -0.32005803226E+02  0.31873936129E+01  0.12112161446E+02  0.34369104925E+02  0.51100000000E-03 0. -1.
         22    1    1    0    0    0 -0.13283198108E+02  0.10959367142E+00  0.27392206263E+02  0.30443198365E+02  0.00000000000E+00 0.  1.
</event>
<event>
 5    1  0.3183383E-003  0.9118800E+02  0.7818608E-02  0.1130116E+00
         25   -1    0    0    0    0  0.00000000000E+00  0.00000000000E+00  0.99999998245E-14  0.12500000000E+03  0.12500000000E+03 0.  0.
        -11    1    3    3    0    0 -0.97787051605E+01 -0.44543506494E+02 -0.12935890306E+01  0.45622586712E+02  0.51100000000E-03 0.  1.
         23    2    1    0    0    0 -0.10866683664E+02 -0.31575077225E+01  0.26971074304E+02  0.95751179204E+02  0.91174529343E+02 0.  0.
         11    1    3    3    0    0 -0.10879785035E+01  0.41385998772E+02  0.28264663334E+02  0.50128592492E+02  0.51100000000E-03 0. -1.
         22    1    1    0    0    0  0.10866683664E+02  0.31575077225E+01 -0.26971074304E+02  0.29248820796E+02  0.00000000000E+00 0.  1.
</event>
<event>
 5    1  0.3183383E-003  0.9118800E+02  0.7818608E-02  0.1130116E+00
         25   -1    0    0    0    0  0.00000000000E+00  0.00000000000E+00  0.99999998245E-14  0.12500000000E+03  0.12500000000E+03 0.  0.
        -11    1    3    3    0    0  0.48022131943E+02 -0.27914759822E+02 -0.15093916945E+02  0.57560275375E+02  0.51100000000E-03 0.  1.
         23    2    1    0    0    0  0.28104972442E+02  0.31813768169E+01 -0.23794416086E+01  0.96615631471E+02  0.92352086429E+02 0.  0.
         11    1    3    3    0    0 -0.19917159501E+02  0.31096136639E+02  0.12714475336E+02  0.39055356096E+02  0.51100000000E-03 0. -1.
         22    1    1    0    0    0 -0.28104972442E+02 -0.31813768169E+01  0.23794416086E+01  0.28384368529E+02  0.00000000000E+00 0.  1.
</event>
<event>
 5    1  0.3183383E-003  0.9118800E+02  0.7818608E-02  0.1130116E+00
         25   -1    0    0    0    0  0.00000000000E+00  0.00000000000E+00  0.99999998245E-14  0.12500000000E+03  0.12500000000E+03 0.  0.
        -11    1    3    3    0    0  0.28328754618E+02  0.11020531538E+02  0.12735878115E+02  0.32957139517E+02  0.51100000000E-03 0.  1.
         23    2    1    0    0    0 -0.18582892639E+02 -0.11707499200E+02 -0.20645220262E+02  0.94856765999E+02  0.89939932732E+02 0.  0.
         11    1    3    3    0    0 -0.46911647256E+02 -0.22728030738E+02 -0.33381098377E+02  0.61899626482E+02  0.51100000000E-03 0. -1.
         22    1    1    0    0    0  0.18582892639E+02  0.11707499200E+02  0.20645220262E+02  0.30143234001E+02  0.00000000000E+00 0. -1.
</event>
<event>
 5    1  0.3183383E-003  0.9118800E+02  0.7818608E-02  0.1130116E+00
         25   -1    0    0    0    0  0.00000000000E+00  0.00000000000E+00  0.99999998245E-14  0.12500000000E+03  0.12500000000E+03 0.  0.
        -11    1    3    3    0    0 -0.36266070023E+02 -0.19876046008E+02  0.45390238674E+02  0.61404876085E+02  0.51100000000E-03 0. -1.
         23    2    1    0    0    0 -0.11243615324E+02 -0.15106637998E+02  0.22577493283E+02  0.95599785713E+02  0.90966732536E+02 0.  0.
         11    1    3    3    0    0  0.25022454699E+02  0.47694080101E+01 -0.22812745391E+02  0.34194909628E+02  0.51100000000E-03 0.  1.
         22    1    1    0    0    0  0.11243615324E+02  0.15106637998E+02 -0.22577493283E+02  0.29400214287E+02  0.00000000000E+00 0. -1.
</event>
<event>
 5    1  0.3183383E-003  0.9118800E+02  0.7818608E-02  0.1130116E+00
         25   -1    0    0    0    0  0.00000000000E+00  0.00000000000E+00  0.99999998245E-14  0.12500000000E+03  0.12500000000E+03 0.  0.
        -11    1    3    3    0    0 -0.29263140114E+02  0.43404419867E+02  0.20656703319E+02  0.56275877831E+02  0.51100000000E-03 0.  1.
         23    2    1    0    0    0 -0.79249667765E+01  0.13920906697E+02  0.27372075595E+02  0.93285220101E+02  0.87728587275E+02 0.  0.
         11    1    3    3    0    0  0.21338173338E+02 -0.29483513170E+02  0.67153722757E+01  0.37009342271E+02  0.51100000000E-03 0. -1.
         22    1    1    0    0    0  0.79249667765E+01 -0.13920906697E+02 -0.27372075595E+02  0.31714779899E+02  0.00000000000E+00 0.  1.
</event>
<event>
 5    1  0.3183383E-003  0.9118800E+02  0.7818608E-02  0.1130116E+00
         25   -1    0    0    0    0  0.00000000000E+00  0.00000000000E+00  0.99999998245E-14  0.12500000000E+03  0.12500000000E+03 0.  0.
        -11    1    3    3    0    0  0.10719750242E+02  0.48730817599E+02 -0.62946275373E+01  0.50291430336E+02  0.51100000000E-03 0.  1.
         23    2    1    0    0    0  0.13901484411E+02  0.83139971185E+01 -0.25214667408E+02  0.95030794648E+02  0.90181476268E+02 0.  0.
         11    1    3    3    0    0  0.31817341691E+01 -0.40416820480E+02 -0.18920039871E+02  0.44739364312E+02  0.51100000000E-03 0. -1.
         22    1    1    0    0    0 -0.13901484411E+02 -0.83139971185E+01  0.25214667408E+02  0.29969205352E+02  0.00000000000E+00 0. -1.
</event>
<event>
 5    1  0.3183383E-003  0.9118800E+02  0.7818608E-02  0.1130116E+00
         25   -1    0    0    0    0  0.00000000000E+00  0.00000000000E+00  0.99999998245E-14  0.12500000000E+03  0.12500000000E+03 0.  0.
        -11    1    3    3    0    0 -0.15507804463E+02  0.24245978485E+02  0.39691752751E+02  0.49028509142E+02  0.51100000000E-03 0. -1.
         23    2    1    0    0    0  0.17317391987E+02  0.22025392157E+02  0.55593277169E+01  0.96435755050E+02  0.92108299096E+02 0.  0.
         11    1    3    3    0    0  0.32825196450E+02 -0.22205863274E+01 -0.34132425034E+02  0.47407245908E+02  0.51100000000E-03 0.  1.
         22    1    1    0    0    0 -0.17317391987E+02 -0.22025392157E+02 -0.55593277169E+01  0.28564244950E+02  0.00000000000E+00 0. -1.
</event>
<event>
 5    1  0.3183383E-003  0.9118800E+02  0.7818608E-02  0.1130116E+00
         25   -1    0    0    0    0  0.00000000000E+00  0.00000000000E+00  0.99999998245E-14  0.12500000000E+03  0.12500000000E+03 0.  0.
        -11    1    3    3    0    0 -0.50616962586E+02 -0.18824932938E+02  0.17622059052E+02  0.56806619043E+02  0.51100000000E-03 0.  1.
         23    2    1    0    0    0 -0.18075144836E+02 -0.17014299852E+01  0.24792199280E+02  0.94271204547E+02  0.89122394137E+02 0.  0.
         11    1    3    3    0    0  0.32541817750E+02  0.17123502953E+02  0.71701402287E+01  0.37464585504E+02  0.51100000000E-03 0. -1.
         22    1    1    0    0    0  0.18075144836E+02  0.17014299852E+01 -0.24792199280E+02  0.30728795453E+02  0.00000000000E+00 0.  1.
</event>
<event>
 5    1  0.3183383E-003  0.9118800E+02  0.7818608E-02  0.1130116E+00
         25   -1    0    0    0    0  0.00000000000E+00  0.00000000000E+00  0.99999998245E-14  0.12500000000E+03  0.12500000000E+03 0.  0.
        -11    1    3    3    0    0  0.44119435499E+02 -0.89688354050E+01  0.42135845302E+02  0.61663555337E+02  0.51100000000E-03 0.  1.
         23    2    1    0    0    0  0.21674670560E+02 -0.10921583999E+02  0.17306471344E+02  0.95190835448E+02  0.90403035690E+02 0.  0.
         11    1    3    3    0    0 -0.22444764939E+02 -0.19527485936E+01 -0.24829373958E+02  0.33527280111E+02  0.51100000000E-03 0. -1.
         22    1    1    0    0    0 -0.21674670560E+02  0.10921583999E+02 -0.17306471344E+02  0.29809164552E+02  0.00000000000E+00 0.  1.
</event>
<event>
 5    1  0.3183383E-003  0.9118800E+02  0.7818608E-02  0.1130116E+00
         25   -1    0    0    0    0  0.00000000000E+00  0.00000000000E+00  0.99999998245E-14  0.12500000000E+03  0.12500000000E+03 0.  0.
        -11    1    3    3    0    0 -0.49345138188E+02  0.94172929890E+01 -0.26963037604E+02  0.57014326858E+02  0.51100000000E-03 0. -1.
         23    2    1    0    0    0 -0.11844579592E+02  0.15116523045E+02 -0.22825327304E+02  0.95170502833E+02  0.90374917473E+02 0.  0.
         11    1    3    3    0    0  0.37500558596E+02  0.56992300558E+01  0.41377102998E+01  0.38156175975E+02  0.51100000000E-03 0.  1.
         22    1    1    0    0    0  0.11844579592E+02 -0.15116523045E+02  0.22825327304E+02  0.29829497167E+02  0.00000000000E+00 0. -1.
</event>
<event>
 5    1  0.3183383E-003  0.9118800E+02  0.7818608E-02  0.1130116E+00
         25   -1    0    0    0    0  0.00000000000E+00  0.00000000000E+00  0.99999998245E-14  0.12500000000E+03  0.12500000000E+03 0.  0.
        -11    1    3    3    0    0 -0.83355495887E+01  0.12167470996E+02 -0.41149504979E+02  0.43712818460E+02  0.51100000000E-03 0.  1.
         23    2    1    0    0    0  0.56987879712E+01 -0.27465212282E+02 -0.15871505011E+02  0.92770840202E+02  0.86992586181E+02 0.  0.
         11    1    3    3    0    0  0.14034337560E+02 -0.39632683278E+02  0.25277999969E+02  0.49058021742E+02  0.51100000000E-03 0. -1.
         22    1    1    0    0    0 -0.56987879712E+01  0.27465212282E+02  0.15871505011E+02  0.32229159798E+02  0.00000000000E+00 0. -1.
</event>
<event>
 5    1  0.3183383E-003  0.9118800E+02  0.7818608E-02  0.1130116E+00
         25   -1    0    0    0    0  0.00000000000E+00  0.00000000000E+00  0.99999998245E-14  0.12500000000E+03  0.12500000000E+03 0.  0.
        -11    1    3    3    0    0 -0.28845214499E+02  0.12941725713E+02  0.48903310916E+02  0.58232881457E+02  0.51100000000E-03 0.  1.
         23    2    1    0    0    0  0.17271357356E+01  0.93554878569E+01  0.27964797603E+02  0.95461244849E+02  0.90776159934E+02 0.  0.
         11    1    3    3    0    0  0.30572350235E+02 -0.35862378564E+01 -0.20938513313E+02  0.37228363392E+02  0.51100000000E-03 0. -1.
         22    1    1    0    0    0 -0.17271357356E+01 -0.93554878569E+01 -0.27964797603E+02  0.29538755151E+02  0.00000000000E+00 0.  1.
</event>
<event>
 5    1  0.3183383E-003  0.9118800E+02  0.7818608E-02  0.1130116E+00
         25   -1    0    0    0    0  0.00000000000E+00  0.00000000000E+00  0.99999998245E-14  0.12500000000E+03  0.12500000000E+03 0.  0.
        -11    1    3    3    0    0  0.57072829852E+02 -0.91004396553E+01 -0.17538467716E+02  0.60396388628E+02  0.51100000000E-03 0.  1.
         23    2    1    0    0    0  0.23401618117E+02 -0.13439064051E+02 -0.14189866075E+02  0.94510715452E+02  0.89457693146E+02 0.  0.
         11    1    3    3    0    0 -0.33671211736E+02 -0.43386243958E+01  0.33486016412E+01  0.34114326823E+02  0.51100000000E-03 0. -1.
         22    1    1    0    0    0 -0.23401618117E+02  0.13439064051E+02  0.14189866075E+02  0.30489284548E+02  0.00000000000E+00 0.  1.
</event>
<event>
 5    1  0.3183383E-003  0.9118800E+02  0.7818608E-02  0.1130116E+00
         25   -1    0    0    0    0  0.00000000000E+00  0.00000000000E+00  0.99999998245E-14  0.12500000000E+03  0.12500000000E+03 0.  0.
        -11    1    3    3    0    0  0.28838546397E+02  0.26186178227E+02  0.10358054497E+02  0.40307157946E+02  0.51100000000E-03 0.  1.
         23    2    1    0    0    0 -0.17478062638E+02 -0.97350910680E+01  0.16262864945E+02  0.99217536038E+02  0.95809101914E+02 0.  0.
         11    1    3    3    0    0 -0.46316609036E+02 -0.35921269295E+02  0.59048104486E+01  0.58910378093E+02  0.51100000000E-03 0. -1.
         22    1    1    0    0    0  0.17478062638E+02  0.97350910680E+01 -0.16262864945E+02  0.25782463962E+02  0.00000000000E+00 0. -1.
</event>
<event>
 5    1  0.3183383E-003  0.9118800E+02  0.7818608E-02  0.1130116E+00
         25   -1    0    0    0    0  0.00000000000E+00  0.00000000000E+00  0.99999998245E-14  0.12500000000E+03  0.12500000000E+03 0.  0.
        -11    1    3    3    0    0 -0.55269521116E+01 -0.25645277950E+02  0.21167276915E+02  0.33708768786E+02  0.51100000000E-03 0. -1.
         23    2    1    0    0    0  0.17491955718E+02  0.17402603482E+02 -0.16456752527E+02  0.95341209962E+02  0.90610719511E+02 0.  0.
         11    1    3    3    0    0  0.23018907830E+02  0.43047881432E+02 -0.37624029443E+02  0.61632441176E+02  0.51100000000E-03 0.  1.
         22    1    1    0    0    0 -0.17491955718E+02 -0.17402603482E+02  0.16456752527E+02  0.29658790038E+02  0.00000000000E+00 0.  1.
</event>
<event>
 5    1  0.3183383E-003  0.9118800E+02  0.7818608E-02  0.1130116E+00
         25   -1    0    0    0    0  0.00000000000E+00  0.00000000000E+00  0.99999998245E-14  0.12500000000E+03  0.12500000000E+03 0.  0.
        -11    1    3    3    0    0 -0.20979021137E+02  0.19672722220E+02  0.29434894574E+01  0.28910196435E+02  0.51100000000E-03 0.  1.
         23    2    1    0    0    0  0.61877056629E+01 -0.32622856287E+02 -0.11978379029E+02  0.89700991263E+02  0.82463615102E+02 0.  0.
         11    1    3    3    0    0  0.27166726800E+02 -0.52295578507E+02 -0.14921868487E+02  0.60790794828E+02  0.51100000000E-03 0. -1.
         22    1    1    0    0    0 -0.61877056629E+01  0.32622856287E+02  0.11978379029E+02  0.35299008737E+02  0.00000000000E+00 0. -1.
</event>
<event>
 5    1  0.3183383E-003  0.9118800E+02  0.7818608E-02  0.1130116E+00
         25   -1    0    0    0    0  0.00000000000E+00  0.00000000000E+00  0.99999998245E-14  0.12500000000E+03  0.12500000000E+03 0.  0.
        -11    1    3    3    0    0 -0.38585707793E+01 -0.11982817562E+02  0.33153490018E+02  0.35463084832E+02  0.51100000000E-03 0. -1.
         23    2    1    0    0    0 -0.15747993756E+02  0.20390343100E+01 -0.24403595054E+02  0.95884842095E+02  0.91357596968E+02 0.  0.
         11    1    3    3    0    0 -0.11889422977E+02  0.14021851872E+02 -0.57557085072E+02  0.60421757264E+02  0.51100000000E-03 0.  1.
         22    1    1    0    0    0  0.15747993756E+02 -0.20390343100E+01  0.24403595054E+02  0.29115157905E+02  0.00000000000E+00 0.  1.
</event>
<event>
 5    1  0.3183383E-003  0.9118800E+02  0.7818608E-02  0.1130116E+00
         25   -1    0    0    0    0  0.00000000000E+00  0.00000000000E+00  0.99999998245E-14  0.12500000000E+03  0.12500000000E+03 0.  0.
        -11    1    3    3    0    0 -0.36275616633E+02 -0.12879148807E+02  0.87255478028E+01  0.39470596915E+02  0.51100000000E-03 0. -1.
         23    2    1    0    0    0 -0.20340436084E+01  0.29072988822E+02 -0.52257808700E+01  0.95391136494E+02  0.90679568390E+02 0.  0.
         11    1    3    3    0    0  0.34241573024E+02  0.41952137629E+02 -0.13951328673E+02  0.55920539579E+02  0.51100000000E-03 0.  1.
         22    1    1    0    0    0  0.20340436084E+01 -0.29072988822E+02  0.52257808700E+01  0.29608863506E+02  0.00000000000E+00 0.  1.
</event>
<event>
 5    1  0.3183383E-003  0.9118800E+02  0.7818608E-02  0.1130116E+00
         25   -1    0    0    0    0  0.00000000000E+00  0.00000000000E+00  0.99999998245E-14  0.12500000000E+03  0.12500000000E+03 0.  0.
        -11    1    3    3    0    0  0.51021075457E+02  0.52908795165E+01  0.53415828663E+01  0.51572047222E+02  0.51100000000E-03 0.  1.
         23    2    1    0    0    0  0.51993635082E+01  0.11601218503E+02  0.21039830039E+02  0.10041756522E+03  0.97362165676E+02 0.  0.
         11    1    3    3    0    0 -0.45821711949E+02  0.63103389863E+01  0.15698247172E+02  0.48845517999E+02  0.51100000000E-03 0. -1.
         22    1    1    0    0    0 -0.51993635082E+01 -0.11601218503E+02 -0.21039830039E+02  0.24582434780E+02  0.00000000000E+00 0. -1.
</event>
<event>
 5    1  0.3183383E-003  0.9118800E+02  0.7818608E-02  0.1130116E+00
         25   -1    0    0    0    0  0.00000000000E+00  0.00000000000E+00  0.99999998245E-14  0.12500000000E+03  0.12500000000E+03 0.  0.
        -11    1    3    3    0    0 -0.41443940091E+02  0.21899699244E+02 -0.32127218013E+02  0.56827415345E+02  0.51100000000E-03 0.  1.
         23    2    1    0    0    0 -0.68126392696E+01  0.34449862112E+01 -0.27640431135E+02  0.96324689764E+02  0.91957449078E+02 0.  0.
         11    1    3    3    0    0  0.34631300822E+02 -0.18454713033E+02  0.44867868785E+01  0.39497274419E+02  0.51100000000E-03 0. -1.
         22    1    1    0    0    0  0.68126392696E+01 -0.34449862112E+01  0.27640431135E+02  0.28675310236E+02  0.00000000000E+00 0.  1.
</event>
<event>
 5    1  0.3183383E-003  0.9118800E+02  0.7818608E-02  0.1130116E+00
         25   -1    0    0    0    0  0.00000000000E+00  0.00000000000E+00  0.99999998245E-14  0.12500000000E+03  0.12500000000E+03 0.  0.
        -11    1    3    3    0    0  0.47546072931E+02 -0.11172183529E+02  0.36661569750E+02  0.61069775116E+02  0.51100000000E-03 0. -1.
         23    2    1    0    0    0  0.27485176352E+02 -0.36053719371E+01  0.94506824443E+01  0.95712647361E+02  0.91121686992E+02 0.  0.
         11    1    3    3    0    0 -0.20060896578E+02  0.75668115918E+01 -0.27210887306E+02  0.34642872245E+02  0.51100000000E-03 0.  1.
         22    1    1    0    0    0 -0.27485176352E+02  0.36053719371E+01 -0.94506824443E+01  0.29287352639E+02  0.00000000000E+00 0. -1.
</event>
<event>
 5    1  0.3183383E-003  0.9118800E+02  0.7818608E-02  0.1130116E+00
         25   -1    0    0    0    0  0.00000000000E+00  0.00000000000E+00  0.99999998245E-14  0.12500000000E+03  0.12500000000E+03 0.  0.
        -11    1    3    3    0    0 -0.32331972601E+02 -0.46403746311E+02 -0.12647814803E+02  0.57953699998E+02  0.51100000000E-03 0.  1.
         23    2    1    0    0    0 -0.22197029500E+02 -0.12675358748E+02  0.72844006583E+01  0.98421148802E+02  0.94764377277E+02 0.  0.
         11    1    3    3    0    0  0.10134943101E+02  0.33728387563E+02  0.19932215462E+02  0.40467448804E+02  0.51100000000E-03 0. -1.
         22    1    1    0    0    0  0.22197029500E+02  0.12675358748E+02 -0.72844006583E+01  0.26578851198E+02  0.00000000000E+00 0.  1.
</event>
<event>
 5    1  0.3183383E-003  0.9118800E+02  0.7818608E-02  0.1130116E+00
         25   -1    0    0    0    0  0.00000000000E+00  0.00000000000E+00  0.99999998245E-14  0.12500000000E+03  0.12500000000E+03 0.  0.
        -11    1    3    3    0    0  0.21717667545E+02 -0.28612351493E+02 -0.27867901433E+02  0.45463652208E+02  0.51100000000E-03 0.  1.
         23    2    1    0    0    0  0.10478048776E+01 -0.27899858965E+02  0.15178862176E+02  0.93221109487E+02  0.87637191715E+02 0.  0.
         11    1    3    3    0    0 -0.20669862667E+02  0.71249252817E+00  0.43046763609E+02  0.47757457279E+02  0.51100000000E-03 0. -1.
         22    1    1    0    0    0 -0.10478048776E+01  0.27899858965E+02 -0.15178862176E+02  0.31778890513E+02  0.00000000000E+00 0.  1.
</event>
<event>
 5    1  0.3183383E-003  0.9118800E+02  0.7818608E-02  0.1130116E+00
         25   -1    0    0    0    0  0.00000000000E+00  0.00000000000E+00  0.99999998245E-14  0.12500000000E+03  0.12500000000E+03 0.  0.
        -11    1    3    3    0    0  0.32722020331E+02  0.26898618851E+02  0.25708074898E+02  0.49549686435E+02  0.51100000000E-03 0.  1.
         23    2    1    0    0    0  0.21017147476E+02  0.67174754022E+01 -0.16277040896E+02  0.97581265089E+02  0.93649966749E+02 0.  0.
         11    1    3    3    0    0 -0.11704872855E+02 -0.20181143449E+02 -0.41985115794E+02  0.48031578653E+02  0.51100000000E-03 0. -1.
         22    1    1    0    0    0 -0.21017147476E+02 -0.67174754022E+01  0.16277040896E+02  0.27418734911E+02  0.00000000000E+00 0.  1.
</event>
<event>
 5    1  0.3183383E-003  0.9118800E+02  0.7818608E-02  0.1130116E+00
         25   -1    0    0    0    0  0.00000000000E+00  0.00000000000E+00  0.99999998245E-14  0.12500000000E+03  0.12500000000E+03 0.  0.
        -11    1    3    3    0    0 -0.56755077082E+02 -0.20691706945E+02  0.66625905223E+00  0.60412990426E+02  0.51100000000E-03 0.  1.
         23    2    1    0    0    0 -0.33272029156E+02 -0.18758758892E+01  0.64540776175E+01  0.91055899594E+02  0.84492454683E+02 0.  0.
         11    1    3    3    0    0  0.23483047926E+02  0.18815831056E+02  0.57878185653E+01  0.30642909167E+02  0.51100000000E-03 0. -1.
         22    1    1    0    0    0  0.33272029156E+02  0.18758758892E+01 -0.64540776175E+01  0.33944100406E+02  0.00000000000E+00 0.  1.
</event>
<event>
 5    1  0.3183383E-003  0.9118800E+02  0.7818608E-02  0.1130116E+00
         25   -1    0    0    0    0  0.00000000000E+00  0.00000000000E+00  0.99999998245E-14  0.12500000000E+03  0.12500000000E+03 0.  0.
        -11    1    3    3    0    0 -0.42587142552E+02 -0.16634784062E+02  0.35139704990E+02  0.57664370443E+02  0.51100000000E-03 0.  1.
         23    2    1    0    0    0 -0.77981006275E+01 -0.17402809478E+02  0.24298807241E+02  0.94111487823E+02  0.88898098719E+02 0.  0.
         11    1    3    3    0    0  0.34789041924E+02 -0.76802541621E+00 -0.10840897749E+02  0.36447117380E+02  0.51100000000E-03 0. -1.
         22    1    1    0    0    0  0.77981006275E+01  0.17402809478E+02 -0.24298807241E+02  0.30888512177E+02  0.00000000000E+00 0.  1.
</event>
<event>
 5    1  0.3183383E-003  0.9118800E+02  0.7818608E-02  0.1130116E+00
         25   -1    0    0    0    0  0.00000000000E+00  0.00000000000E+00  0.99999998245E-14  0.12500000000E+03  0.12500000000E+03 0.  0.
        -11    1    3    3    0    0  0.14648867065E+02  0.29538570134E+02  0.99942342286E+01  0.34452883042E+02  0.51100000000E-03 0. -1.
         23    2    1    0    0    0 -0.19209057455E+02 -0.18159240441E+02 -0.10677328709E+02  0.96491207495E+02  0.92183522789E+02 0.  0.
         11    1    3    3    0    0 -0.33857924520E+02 -0.47697810575E+02 -0.20671562938E+02  0.62038324453E+02  0.51100000000E-03 0.  1.
         22    1    1    0    0    0  0.19209057455E+02  0.18159240441E+02  0.10677328709E+02  0.28508792505E+02  0.00000000000E+00 0.  1.
</event>
<event>
 5    1  0.3183383E-003  0.9118800E+02  0.7818608E-02  0.1130116E+00
         25   -1    0    0    0    0  0.00000000000E+00  0.00000000000E+00  0.99999998245E-14  0.12500000000E+03  0.12500000000E+03 0.  0.
        -11    1    3    3    0    0  0.45244386715E+02  0.78133483150E+01 -0.60974318282E+00  0.45918130713E+02  0.51100000000E-03 0. -1.
         23    2    1    0    0    0  0.88592788862E+01  0.38841183549E+01 -0.30394463162E+02  0.93103345180E+02  0.87469059073E+02 0.  0.
         11    1    3    3    0    0 -0.36385107829E+02 -0.39292299601E+01 -0.29784719979E+02  0.47185214467E+02  0.51100000000E-03 0.  1.
         22    1    1    0    0    0 -0.88592788862E+01 -0.38841183549E+01  0.30394463162E+02  0.31896654820E+02  0.00000000000E+00 0.  1.
</event>
<event>
 5    1  0.3183383E-003  0.9118800E+02  0.7818608E-02  0.1130116E+00
         25   -1    0    0    0    0  0.00000000000E+00  0.00000000000E+00  0.99999998245E-14  0.12500000000E+03  0.12500000000E+03 0.  0.
        -11    1    3    3    0    0  0.26494705536E+02  0.21694665443E+02  0.42426370114E+02  0.54521782908E+02  0.51100000000E-03 0. -1.
         23    2    1    0    0    0  0.24194297997E+02 -0.80176551269E+01  0.13060192437E+02  0.96360595750E+02  0.92006244014E+02 0.  0.
         11    1    3    3    0    0 -0.23004075393E+01 -0.29712320570E+02 -0.29366177677E+02  0.41838812843E+02  0.51100000000E-03 0.  1.
         22    1    1    0    0    0 -0.24194297997E+02  0.80176551269E+01 -0.13060192437E+02  0.28639404250E+02  0.00000000000E+00 0. -1.
</event>
<event>
 5    1  0.3183383E-003  0.9118800E+02  0.7818608E-02  0.1130116E+00
         25   -1    0    0    0    0  0.00000000000E+00  0.00000000000E+00  0.99999998245E-14  0.12500000000E+03  0.12500000000E+03 0.  0.
        -11    1    3    3    0    0  0.17406102408E+02  0.19892460902E+02  0.29854346697E+02  0.39874357910E+02  0.51100000000E-03 0. -1.
         23    2    1    0    0    0  0.19756635268E+02  0.46146026893E+00 -0.22076050295E+02  0.95370798537E+02  0.90651528582E+02 0.  0.
         11    1    3    3    0    0  0.23505328604E+01 -0.19431000633E+02 -0.51930396992E+02  0.55496440627E+02  0.51100000000E-03 0.  1.
         22    1    1    0    0    0 -0.19756635268E+02 -0.46146026893E+00  0.22076050295E+02  0.29629201463E+02  0.00000000000E+00 0.  1.
</event>
<event>
 5    1  0.3183383E-003  0.9118800E+02  0.7818608E-02  0.1130116E+00
         25   -1    0    0    0    0  0.00000000000E+00  0.00000000000E+00  0.99999998245E-14  0.12500000000E+03  0.12500000000E+03 0.  0.
        -11    1    3    3    0    0 -0.31332991257E+02 -0.14253395118E+00  0.21322958122E+02  0.37900464383E+02  0.51100000000E-03 0. -1.
         23    2    1    0    0    0  0.14171595844E+02  0.14541650418E+02 -0.16475708415E+02  0.98851525983E+02  0.95330380759E+02 0.  0.
         11    1    3    3    0    0  0.45504587102E+02  0.14684184369E+02 -0.37798666538E+02  0.60951061600E+02  0.51100000000E-03 0.  1.
         22    1    1    0    0    0 -0.14171595844E+02 -0.14541650418E+02  0.16475708415E+02  0.26148474017E+02  0.00000000000E+00 0.  1.
</event>
<event>
 5    1  0.3183383E-003  0.9118800E+02  0.7818608E-02  0.1130116E+00
         25   -1    0    0    0    0  0.00000000000E+00  0.00000000000E+00  0.99999998245E-14  0.12500000000E+03  0.12500000000E+03 0.  0.
        -11    1    3    3    0    0 -0.11515097877E+02  0.15639410823E+02 -0.28154931494E+02  0.34203637492E+02  0.51100000000E-03 0.  1.
         23    2    1    0    0    0  0.18410009853E+02  0.22717745408E+01  0.23304598706E+02  0.95214202324E+02  0.90435339227E+02 0.  0.
         11    1    3    3    0    0  0.29925107730E+02 -0.13367636282E+02  0.51459530200E+02  0.61010564832E+02  0.51100000000E-03 0. -1.
         22    1    1    0    0    0 -0.18410009853E+02 -0.22717745408E+01 -0.23304598706E+02  0.29785797676E+02  0.00000000000E+00 0. -1.
</event>
<event>
 5    1  0.3183383E-003  0.9118800E+02  0.7818608E-02  0.1130116E+00
         25   -1    0    0    0    0  0.00000000000E+00  0.00000000000E+00  0.99999998245E-14  0.12500000000E+03  0.12500000000E+03 0.  0.
        -11    1    3    3    0    0 -0.23341342614E+02  0.13707272113E+02 -0.43949040681E+02  0.51616138570E+02  0.51100000000E-03 0.  1.
         23    2    1    0    0    0  0.14826535522E+02  0.12274608357E+02 -0.22383639544E+02  0.95478491144E+02  0.90799905209E+02 0.  0.
         11    1    3    3    0    0  0.38167878136E+02 -0.14326637568E+01  0.21565401137E+02  0.43862352574E+02  0.51100000000E-03 0. -1.
         22    1    1    0    0    0 -0.14826535522E+02 -0.12274608357E+02  0.22383639544E+02  0.29521508856E+02  0.00000000000E+00 0.  1.
</event>
<event>
 5    1  0.3183383E-003  0.9118800E+02  0.7818608E-02  0.1130116E+00
         25   -1    0    0    0    0  0.00000000000E+00  0.00000000000E+00  0.99999998245E-14  0.12500000000E+03  0.12500000000E+03 0.  0.
        -11    1    3    3    0    0 -0.56642899182E+01 -0.38583769541E+02  0.33678433313E+02  0.51526966948E+02  0.51100000000E-03 0.  1.
         23    2    1    0    0    0  0.15639689225E+02 -0.11894658256E+01  0.25087084298E+02  0.95413237646E+02  0.90710029278E+02 0.  0.
         11    1    3    3    0    0  0.21303979143E+02  0.37394303715E+02 -0.85913490147E+01  0.43886270698E+02  0.51100000000E-03 0. -1.
         22    1    1    0    0    0 -0.15639689225E+02  0.11894658256E+01 -0.25087084298E+02  0.29586762354E+02  0.00000000000E+00 0.  1.
</event>
<event>
 5    1  0.3183383E-003  0.9118800E+02  0.7818608E-02  0.1130116E+00
         25   -1    0    0    0    0  0.00000000000E+00  0.00000000000E+00  0.99999998245E-14  0.12500000000E+03  0.12500000000E+03 0.  0.
        -11    1    3    3    0    0 -0.45224353671E+02  0.22678357389E+02 -0.24451061991E+02  0.56190786536E+02  0.51100000000E-03 0. -1.
         23    2    1    0    0    0 -0.28671776807E+02 -0.11154381213E+01  0.30482553007E+01  0.96145072382E+02  0.91712965798E+02 0.  0.
         11    1    3    3    0    0  0.16552576864E+02 -0.23793795510E+02  0.27499317292E+02  0.39954285845E+02  0.51100000000E-03 0.  1.
         22    1    1    0    0    0  0.28671776807E+02  0.11154381213E+01 -0.30482553007E+01  0.28854927618E+02  0.00000000000E+00 0. -1.
</event>
<event>
 5    1  0.3183383E-003  0.9118800E+02  0.7818608E-02  0.1130116E+00
         25   -1    0    0    0    0  0.00000000000E+00  0.00000000000E+00  0.99999998245E-14  0.12500000000E+03  0.12500000000E+03 0.  0.
        -11    1    3    3    0    0 -0.84515426811E+01  0.34528408535E+02  0.85218368371E+01  0.36554907646E+02  0.51100000000E-03 0.  1.
         23    2    1    0    0    0  0.89115369841E+01 -0.20982043322E+02  0.18592976387E+02  0.95582991241E+02  0.90943651842E+02 0.  0.
         11    1    3    3    0    0  0.17363079665E+02 -0.55510451857E+02  0.10071139550E+02  0.59028083595E+02  0.51100000000E-03 0. -1.
         22    1    1    0    0    0 -0.89115369841E+01  0.20982043322E+02 -0.18592976387E+02  0.29417008759E+02  0.00000000000E+00 0. -1.
</event>
<event>
 5    1  0.3183383E-003  0.9118800E+02  0.7818608E-02  0.1130116E+00
         25   -1    0    0    0    0  0.00000000000E+00  0.00000000000E+00  0.99999998245E-14  0.12500000000E+03  0.12500000000E+03 0.  0.
        -11    1    3    3    0    0 -0.12073023688E+02 -0.17348155457E+01 -0.17203923234E+02  0.21088917963E+02  0.51100000000E-03 0.  1.
         23    2    1    0    0    0  0.41489350744E+02  0.14049261291E+02  0.44303048077E+01  0.80973013177E+02  0.67957731674E+02 0.  0.
         11    1    3    3    0    0  0.53562374432E+02  0.15784076837E+02  0.21634228042E+02  0.59884095214E+02  0.51100000000E-03 0. -1.
         22    1    1    0    0    0 -0.41489350744E+02 -0.14049261291E+02 -0.44303048077E+01  0.44026986823E+02  0.00000000000E+00 0. -1.
</event>
<event>
 5    1  0.3183383E-003  0.9118800E+02  0.7818608E-02  0.1130116E+00
         25   -1    0    0    0    0  0.00000000000E+00  0.00000000000E+00  0.99999998245E-14  0.12500000000E+03  0.12500000000E+03 0.  0.
        -11    1    3    3    0    0 -0.29213458495E+02 -0.71397014750E+01  0.19235113099E+01  0.30134720679E+02  0.51100000000E-03 0. -1.
         23    2    1    0    0    0  0.31190644597E+02  0.82362871243E+01 -0.26428986645E+01  0.92632150994E+02  0.86793074311E+02 0.  0.
         11    1    3    3    0    0  0.60404103091E+02  0.15375988599E+02 -0.45664099743E+01  0.62497430315E+02  0.51100000000E-03 0.  1.
         22    1    1    0    0    0 -0.31190644597E+02 -0.82362871243E+01  0.26428986645E+01  0.32367849006E+02  0.00000000000E+00 0.  1.
</event>
<event>
 5    1  0.3183383E-003  0.9118800E+02  0.7818608E-02  0.1130116E+00
         25   -1    0    0    0    0  0.00000000000E+00  0.00000000000E+00  0.99999998245E-14  0.12500000000E+03  0.12500000000E+03 0.  0.
        -11    1    3    3    0    0  0.24881021219E+02  0.66995476012E+01 -0.32804266228E+02  0.41714134751E+02  0.51100000000E-03 0. -1.
         23    2    1    0    0    0  0.27618386698E+01 -0.25957202491E+02  0.72291611081E+01  0.97913751011E+02  0.94092708286E+02 0.  0.
         11    1    3    3    0    0 -0.22119182549E+02 -0.32656750092E+02  0.40033427336E+02  0.56199616260E+02  0.51100000000E-03 0.  1.
         22    1    1    0    0    0 -0.27618386698E+01  0.25957202491E+02 -0.72291611081E+01  0.27086248989E+02  0.00000000000E+00 0.  1.
</event>
<event>
 5    1  0.3183383E-003  0.9118800E+02  0.7818608E-02  0.1130116E+00
         25   -1    0    0    0    0  0.00000000000E+00  0.00000000000E+00  0.99999998245E-14  0.12500000000E+03  0.12500000000E+03 0.  0.
        -11    1    3    3    0    0  0.36463418953E+02 -0.28989235845E+01  0.33183253658E+01  0.36728680390E+02  0.51100000000E-03 0. -1.
         23    2    1    0    0    0 -0.16072847903E+02  0.23588995398E+02  0.67632603272E+01  0.95665398693E+02  0.91056848579E+02 0.  0.
         11    1    3    3    0    0 -0.52536266856E+02  0.26487918983E+02  0.34449349613E+01  0.58936718303E+02  0.51100000000E-03 0.  1.
         22    1    1    0    0    0  0.16072847903E+02 -0.23588995398E+02 -0.67632603272E+01  0.29334601307E+02  0.00000000000E+00 0.  1.
</event>
<event>
 5    1  0.3183383E-003  0.9118800E+02  0.7818608E-02  0.1130116E+00
         25   -1    0    0    0    0  0.00000000000E+00  0.00000000000E+00  0.99999998245E-14  0.12500000000E+03  0.12500000000E+03 0.  0.
        -11    1    3    3    0    0  0.40095558063E+02  0.12870971130E+02  0.17351357507E+01  0.42146487049E+02  0.51100000000E-03 0.  1.
         23    2    1    0    0    0 -0.15320614324E+02  0.20039438787E+02  0.83831768688E+01  0.98418465346E+02  0.94760837568E+02 0.  0.
         11    1    3    3    0    0 -0.55416172387E+02  0.71684676566E+01  0.66480411181E+01  0.56271978297E+02  0.51100000000E-03 0. -1.
         22    1    1    0    0    0  0.15320614324E+02 -0.20039438787E+02 -0.83831768688E+01  0.26581534654E+02  0.00000000000E+00 0. -1.
</event>
<event>
 5    1  0.3183383E-003  0.9118800E+02  0.7818608E-02  0.1130116E+00
         25   -1    0    0    0    0  0.00000000000E+00  0.00000000000E+00  0.99999998245E-14  0.12500000000E+03  0.12500000000E+03 0.  0.
        -11    1    3    3    0    0  0.21893274363E+02 -0.44895994413E+02  0.23947477991E+01  0.50007005449E+02  0.51100000000E-03 0.  1.
         23    2    1    0    0    0  0.80110013622E+01 -0.26698122907E+02 -0.26276011037E+02  0.86693412243E+02  0.77771158284E+02 0.  0.
         11    1    3    3    0    0 -0.13882273000E+02  0.18197871506E+02 -0.28670758836E+02  0.36686406794E+02  0.51100000000E-03 0. -1.
         22    1    1    0    0    0 -0.80110013622E+01  0.26698122907E+02  0.26276011037E+02  0.38306587757E+02  0.00000000000E+00 0.  1.
</event>
<event>
 5    1  0.3183383E-003  0.9118800E+02  0.7818608E-02  0.1130116E+00
         25   -1    0    0    0    0  0.00000000000E+00  0.00000000000E+00  0.99999998245E-14  0.12500000000E+03  0.12500000000E+03 0.  0.
        -11    1    3    3    0    0 -0.29738106841E+02 -0.37924491285E+02 -0.10828644979E+02  0.49395157556E+02  0.51100000000E-03 0.  1.
         23    2    1    0    0    0 -0.14425375208E+02  0.44397774625E+01 -0.24283325141E+02  0.96408341187E+02  0.92071088278E+02 0.  0.
         11    1    3    3    0    0  0.15312731632E+02  0.42364268747E+02 -0.13454680162E+02  0.47013183630E+02  0.51100000000E-03 0. -1.
         22    1    1    0    0    0  0.14425375208E+02 -0.44397774625E+01  0.24283325141E+02  0.28591658813E+02  0.00000000000E+00 0. -1.
</event>
<event>
 5    1  0.3183383E-003  0.9118800E+02  0.7818608E-02  0.1130116E+00
         25   -1    0    0    0    0  0.00000000000E+00  0.00000000000E+00  0.99999998245E-14  0.12500000000E+03  0.12500000000E+03 0.  0.
        -11    1    3    3    0    0 -0.96865275777E+01  0.16678233891E+01 -0.37036474363E+02  0.38318544921E+02  0.51100000000E-03 0. -1.
         23    2    1    0    0    0 -0.81693192372E+01 -0.19585936773E+02  0.17896783288E+02  0.97239568661E+02  0.93192768846E+02 0.  0.
         11    1    3    3    0    0  0.15172083405E+01 -0.21253760162E+02  0.54933257651E+02  0.58921023740E+02  0.51100000000E-03 0.  1.
         22    1    1    0    0    0  0.81693192372E+01  0.19585936773E+02 -0.17896783288E+02  0.27760431339E+02  0.00000000000E+00 0.  1.
</event>
<event>
 5    1  0.3183383E-003  0.9118800E+02  0.7818608E-02  0.1130116E+00
         25   -1    0    0    0    0  0.00000000000E+00  0.00000000000E+00  0.99999998245E-14  0.12500000000E+03  0.12500000000E+03 0.  0.
        -11    1    3    3    0    0  0.28801827232E+02  0.12767142229E+02  0.41766575266E+02  0.52316268811E+02  0.51100000000E-03 0. -1.
         23    2    1    0    0    0  0.25891977267E+02  0.40323619999E+01 -0.35481217162E+01  0.98556785410E+02  0.94943121671E+02 0.  0.
         11    1    3    3    0    0 -0.29098499644E+01 -0.87347802294E+01 -0.45314696983E+02  0.46240516599E+02  0.51100000000E-03 0.  1.
         22    1    1    0    0    0 -0.25891977267E+02 -0.40323619999E+01  0.35481217162E+01  0.26443214590E+02  0.00000000000E+00 0.  1.
</event>
<event>
 5    1  0.3183383E-003  0.9118800E+02  0.7818608E-02  0.1130116E+00
         25   -1    0    0    0    0  0.00000000000E+00  0.00000000000E+00  0.99999998245E-14  0.12500000000E+03  0.12500000000E+03 0.  0.
        -11    1    3    3    0    0 -0.17449547106E+01  0.31862706407E+02 -0.11584712039E+02  0.33948232352E+02  0.51100000000E-03 0. -1.
         23    2    1    0    0    0 -0.11642810736E+02 -0.27622216706E+02 -0.50129371333E+01  0.94608036649E+02  0.89593577685E+02 0.  0.
         11    1    3    3    0    0 -0.98978560254E+01 -0.59484923114E+02  0.65717749056E+01  0.60659804297E+02  0.51100000000E-03 0.  1.
         22    1    1    0    0    0  0.11642810736E+02  0.27622216706E+02  0.50129371333E+01  0.30391963351E+02  0.00000000000E+00 0.  1.
</event>
<event>
 5    1  0.3183383E-003  0.9118800E+02  0.7818608E-02  0.1130116E+00
         25   -1    0    0    0    0  0.00000000000E+00  0.00000000000E+00  0.99999998245E-14  0.12500000000E+03  0.12500000000E+03 0.  0.
        -11    1    3    3    0    0  0.21775613895E+02  0.29921743422E+02  0.47963890136E+02  0.60580713492E+02  0.51100000000E-03 0. -1.
         23    2    1    0    0    0 -0.12160571598E+00  0.17159413007E+02  0.24272594151E+02  0.95274269235E+02  0.90518325817E+02 0.  0.
         11    1    3    3    0    0 -0.21897219611E+02 -0.12762330415E+02 -0.23691295986E+02  0.34693555743E+02  0.51100000000E-03 0.  1.
         22    1    1    0    0    0  0.12160571598E+00 -0.17159413007E+02 -0.24272594151E+02  0.29725730765E+02  0.00000000000E+00 0. -1.
</event>
<event>
 5    1  0.3183383E-003  0.9118800E+02  0.7818608E-02  0.1130116E+00
         25   -1    0    0    0    0  0.00000000000E+00  0.00000000000E+00  0.99999998245E-14  0.12500000000E+03  0.12500000000E+03 0.  0.
        -11    1    3    3    0    0  0.24065275713E+02 -0.16158239493E+02  0.26526409245E+02  0.39292194980E+02  0.51100000000E-03 0.  1.
         23    2    1    0    0    0  0.10998068591E+02 -0.99991599377E+00 -0.26672864314E+02  0.96131348569E+02  0.91694259048E+02 0.  0.
         11    1    3    3    0    0 -0.13067207122E+02  0.15158323499E+02 -0.53199273559E+02  0.56839153589E+02  0.51100000000E-03 0. -1.
         22    1    1    0    0    0 -0.10998068591E+02  0.99991599377E+00  0.26672864314E+02  0.28868651431E+02  0.00000000000E+00 0. -1.
</event>
<event>
 5    1  0.3183383E-003  0.9118800E+02  0.7818608E-02  0.1130116E+00
         25   -1    0    0    0    0  0.00000000000E+00  0.00000000000E+00  0.99999998245E-14  0.12500000000E+03  0.12500000000E+03 0.  0.
        -11    1    3    3    0    0  0.68240939710E+01  0.32167522191E+02  0.19503728270E+02  0.38232357488E+02  0.51100000000E-03 0.  1.
         23    2    1    0    0    0 -0.25185711280E+02 -0.64338365807E+01 -0.10829919780E+02  0.96839718250E+02  0.92654894973E+02 0.  0.
         11    1    3    3    0    0 -0.32009805251E+02 -0.38601358772E+02 -0.30333648049E+02  0.58607360762E+02  0.51100000000E-03 0. -1.
         22    1    1    0    0    0  0.25185711280E+02  0.64338365807E+01  0.10829919780E+02  0.28160281750E+02  0.00000000000E+00 0. -1.
</event>
<event>
 5    1  0.3183383E-003  0.9118800E+02  0.7818608E-02  0.1130116E+00
         25   -1    0    0    0    0  0.00000000000E+00  0.00000000000E+00  0.99999998245E-14  0.12500000000E+03  0.12500000000E+03 0.  0.
        -11    1    3    3    0    0 -0.40927329559E+02  0.12910154998E+02  0.38758323629E+02  0.57826689838E+02  0.51100000000E-03 0. -1.
         23    2    1    0    0    0 -0.28735420055E+02  0.73293243616E+00  0.48683223035E+01  0.95845890208E+02  0.91304285507E+02 0.  0.
         11    1    3    3    0    0  0.12191909504E+02 -0.12177222561E+02 -0.33890001325E+02  0.38019200370E+02  0.51100000000E-03 0.  1.
         22    1    1    0    0    0  0.28735420055E+02 -0.73293243616E+00 -0.48683223035E+01  0.29154109792E+02  0.00000000000E+00 0. -1.
</event>
<event>
 5    1  0.3183383E-003  0.9118800E+02  0.7818608E-02  0.1130116E+00
         25   -1    0    0    0    0  0.00000000000E+00  0.00000000000E+00  0.99999998245E-14  0.12500000000E+03  0.12500000000E+03 0.  0.
        -11    1    3    3    0    0  0.41335678403E+02  0.85675635549E+01 -0.24816487260E+02  0.48968351968E+02  0.51100000000E-03 0. -1.
         23    2    1    0    0    0  0.16544628977E+02 -0.23382751832E+02 -0.11527445178E+00  0.96355783840E+02  0.91999706304E+02 0.  0.
         11    1    3    3    0    0 -0.24791049426E+02 -0.31950315386E+02  0.24701212809E+02  0.47387431872E+02  0.51100000000E-03 0.  1.
         22    1    1    0    0    0 -0.16544628977E+02  0.23382751832E+02  0.11527445178E+00  0.28644216160E+02  0.00000000000E+00 0.  1.
</event>
<event>
 5    1  0.3183383E-003  0.9118800E+02  0.7818608E-02  0.1130116E+00
         25   -1    0    0    0    0  0.00000000000E+00  0.00000000000E+00  0.99999998245E-14  0.12500000000E+03  0.12500000000E+03 0.  0.
        -11    1    3    3    0    0  0.64891322208E+01 -0.14368572917E+02 -0.55272896948E+02  0.57477455249E+02  0.51100000000E-03 0.  1.
         23    2    1    0    0    0  0.14035659674E+02 -0.17611903411E+02 -0.16575354819E+02  0.97037144787E+02  0.92920859858E+02 0.  0.
         11    1    3    3    0    0  0.75465274532E+01 -0.32433304944E+01  0.38697542129E+02  0.39559689538E+02  0.51100000000E-03 0. -1.
         22    1    1    0    0    0 -0.14035659674E+02  0.17611903411E+02  0.16575354819E+02  0.27962855213E+02  0.00000000000E+00 0.  1.
</event>
<event>
 5    1  0.3183383E-003  0.9118800E+02  0.7818608E-02  0.1130116E+00
         25   -1    0    0    0    0  0.00000000000E+00  0.00000000000E+00  0.99999998245E-14  0.12500000000E+03  0.12500000000E+03 0.  0.
        -11    1    3    3    0    0  0.29803695108E+02  0.19424600156E+02 -0.15879733361E+01  0.35610349519E+02  0.51100000000E-03 0. -1.
         23    2    1    0    0    0 -0.15955714929E+02 -0.22036550920E+02 -0.44798517309E+01  0.97427124073E+02  0.93443999371E+02 0.  0.
         11    1    3    3    0    0 -0.45759410037E+02 -0.41461151076E+02 -0.28918783947E+01  0.61816774555E+02  0.51100000000E-03 0.  1.
         22    1    1    0    0    0  0.15955714929E+02  0.22036550920E+02  0.44798517309E+01  0.27572875927E+02  0.00000000000E+00 0.  1.
</event>
<event>
 5    1  0.3183383E-003  0.9118800E+02  0.7818608E-02  0.1130116E+00
         25   -1    0    0    0    0  0.00000000000E+00  0.00000000000E+00  0.99999998245E-14  0.12500000000E+03  0.12500000000E+03 0.  0.
        -11    1    3    3    0    0  0.10015095971E+02 -0.13203217565E+02  0.33001930838E+02  0.36929047383E+02  0.51100000000E-03 0.  1.
         23    2    1    0    0    0  0.17999800182E+02  0.16045898849E+02 -0.17063671685E+02  0.95459645096E+02  0.90773957025E+02 0.  0.
         11    1    3    3    0    0  0.79847042111E+01  0.29249116414E+02 -0.50065602523E+02  0.58530597712E+02  0.51100000000E-03 0. -1.
         22    1    1    0    0    0 -0.17999800182E+02 -0.16045898849E+02  0.17063671685E+02  0.29540354904E+02  0.00000000000E+00 0. -1.
</event>
<event>
 5    1  0.3183383E-003  0.9118800E+02  0.7818608E-02  0.1130116E+00
         25   -1    0    0    0    0  0.00000000000E+00  0.00000000000E+00  0.99999998245E-14  0.12500000000E+03  0.12500000000E+03 0.  0.
        -11    1    3    3    0    0 -0.28798092463E+02  0.30357145645E+02  0.40786625425E+02  0.58433168963E+02  0.51100000000E-03 0. -1.
         23    2    1    0    0    0  0.13450605606E+00  0.22081248347E+02  0.13099961795E+02  0.99324941685E+02  0.95949129340E+02 0.  0.
         11    1    3    3    0    0  0.28932598519E+02 -0.82758972972E+01 -0.27686663630E+02  0.40891772722E+02  0.51100000000E-03 0.  1.
         22    1    1    0    0    0 -0.13450605606E+00 -0.22081248347E+02 -0.13099961795E+02  0.25675058315E+02  0.00000000000E+00 0.  1.
</event>
<event>
 5    1  0.3183383E-003  0.9118800E+02  0.7818608E-02  0.1130116E+00
         25   -1    0    0    0    0  0.00000000000E+00  0.00000000000E+00  0.99999998245E-14  0.12500000000E+03  0.12500000000E+03 0.  0.
        -11    1    3    3    0    0  0.52782134635E+02 -0.29730717105E+02  0.12330255808E+02  0.61821553561E+02  0.51100000000E-03 0.  1.
         23    2    1    0    0    0  0.26999509840E+02 -0.94138576510E+01  0.15794647426E+01  0.96362804670E+02  0.92009245011E+02 0.  0.
         11    1    3    3    0    0 -0.25782624795E+02  0.20316859454E+02 -0.10750791065E+02  0.34541251109E+02  0.51100000000E-03 0. -1.
         22    1    1    0    0    0 -0.26999509840E+02  0.94138576510E+01 -0.15794647426E+01  0.28637195330E+02  0.00000000000E+00 0.  1.
</event>
<event>
 5    1  0.3183383E-003  0.9118800E+02  0.7818608E-02  0.1130116E+00
         25   -1    0    0    0    0  0.00000000000E+00  0.00000000000E+00  0.99999998245E-14  0.12500000000E+03  0.12500000000E+03 0.  0.
        -11    1    3    3    0    0 -0.25533333736E+02 -0.93194150514E+00  0.21891691358E+02  0.33646185481E+02  0.51100000000E-03 0.  1.
         23    2    1    0    0    0 -0.24344430456E+02 -0.29080639860E+02 -0.18428436043E+02  0.82834348529E+02  0.71299278624E+02 0.  0.
         11    1    3    3    0    0  0.11889032799E+01 -0.28148698355E+02 -0.40320127401E+02  0.49188163048E+02  0.51100000000E-03 0. -1.
         22    1    1    0    0    0  0.24344430456E+02  0.29080639860E+02  0.18428436043E+02  0.42165651471E+02  0.00000000000E+00 0. -1.
</event>
<event>
 5    1  0.3183383E-003  0.9118800E+02  0.7818608E-02  0.1130116E+00
         25   -1    0    0    0    0  0.00000000000E+00  0.00000000000E+00  0.99999998245E-14  0.12500000000E+03  0.12500000000E+03 0.  0.
        -11    1    3    3    0    0  0.29294828031E+02 -0.38645350727E+02 -0.17895638663E+02  0.51690463004E+02  0.51100000000E-03 0.  1.
         23    2    1    0    0    0  0.55289590654E+01 -0.63965730387E+00 -0.27001634580E+02  0.97430690618E+02  0.93448770214E+02 0.  0.
         11    1    3    3    0    0 -0.23765868966E+02  0.38005693423E+02 -0.91059959171E+01  0.45740227614E+02  0.51100000000E-03 0. -1.
         22    1    1    0    0    0 -0.55289590654E+01  0.63965730387E+00  0.27001634580E+02  0.27569309382E+02  0.00000000000E+00 0.  1.
</event>
<event>
 5    1  0.3183383E-003  0.9118800E+02  0.7818608E-02  0.1130116E+00
         25   -1    0    0    0    0  0.00000000000E+00  0.00000000000E+00  0.99999998245E-14  0.12500000000E+03  0.12500000000E+03 0.  0.
        -11    1    3    3    0    0  0.53412895006E+01 -0.91864811436E+01  0.34618966976E+02  0.36213170037E+02  0.51100000000E-03 0.  1.
         23    2    1    0    0    0 -0.10375752719E+02  0.19930538672E+02 -0.16511586927E+02  0.97116041904E+02  0.93026934143E+02 0.  0.
         11    1    3    3    0    0 -0.15717042220E+02  0.29117019815E+02 -0.51130553903E+02  0.60902871868E+02  0.51100000000E-03 0. -1.
         22    1    1    0    0    0  0.10375752719E+02 -0.19930538672E+02  0.16511586927E+02  0.27883958096E+02  0.00000000000E+00 0. -1.
</event>
<event>
 5    1  0.3183383E-003  0.9118800E+02  0.7818608E-02  0.1130116E+00
         25   -1    0    0    0    0  0.00000000000E+00  0.00000000000E+00  0.99999998245E-14  0.12500000000E+03  0.12500000000E+03 0.  0.
        -11    1    3    3    0    0  0.42152967888E+02  0.21900271133E+00  0.15704112206E+02  0.44983772679E+02  0.51100000000E-03 0. -1.
         23    2    1    0    0    0 -0.79689072799E+01 -0.10394401582E+02  0.24739181025E+02  0.97007605582E+02  0.92881114310E+02 0.  0.
         11    1    3    3    0    0 -0.50121875168E+02 -0.10613404293E+02  0.90350688190E+01  0.52023832903E+02  0.51100000000E-03 0.  1.
         22    1    1    0    0    0  0.79689072799E+01  0.10394401582E+02 -0.24739181025E+02  0.27992394418E+02  0.00000000000E+00 0. -1.
</event>
<event>
 5    1  0.3183383E-003  0.9118800E+02  0.7818608E-02  0.1130116E+00
         25   -1    0    0    0    0  0.00000000000E+00  0.00000000000E+00  0.99999998245E-14  0.12500000000E+03  0.12500000000E+03 0.  0.
        -11    1    3    3    0    0  0.33897505110E+01  0.27470754692E+02  0.26633271211E+02  0.38411767826E+02  0.51100000000E-03 0.  1.
         23    2    1    0    0    0 -0.24327890643E+02 -0.16361834758E+01 -0.15073918778E+02  0.96333880855E+02  0.91969941904E+02 0.  0.
         11    1    3    3    0    0 -0.27717641154E+02 -0.29106938168E+02 -0.41707189989E+02  0.57922113029E+02  0.51100000000E-03 0. -1.
         22    1    1    0    0    0  0.24327890643E+02  0.16361834758E+01  0.15073918778E+02  0.28666119145E+02  0.00000000000E+00 0. -1.
</event>
<event>
 5    1  0.3183383E-003  0.9118800E+02  0.7818608E-02  0.1130116E+00
         25   -1    0    0    0    0  0.00000000000E+00  0.00000000000E+00  0.99999998245E-14  0.12500000000E+03  0.12500000000E+03 0.  0.
        -11    1    3    3    0    0 -0.20145515656E+02  0.48820204931E+02  0.32426412934E+02  0.61973594914E+02  0.51100000000E-03 0. -1.
         23    2    1    0    0    0 -0.47176928644E+01  0.25638320088E+02  0.13499115623E+02  0.95643464007E+02  0.91026732346E+02 0.  0.
         11    1    3    3    0    0  0.15427822792E+02 -0.23181884843E+02 -0.18927297310E+02  0.33669869092E+02  0.51100000000E-03 0.  1.
         22    1    1    0    0    0  0.47176928644E+01 -0.25638320088E+02 -0.13499115623E+02  0.29356535993E+02  0.00000000000E+00 0. -1.
</event>
<event>
 5    1  0.3183383E-003  0.9118800E+02  0.7818608E-02  0.1130116E+00
         25   -1    0    0    0    0  0.00000000000E+00  0.00000000000E+00  0.99999998245E-14  0.12500000000E+03  0.12500000000E+03 0.  0.
        -11    1    3    3    0    0  0.23007086386E+02 -0.42368528088E+02  0.33976923850E+02  0.58981773040E+02  0.51100000000E-03 0. -1.
         23    2    1    0    0    0  0.21243840729E+02 -0.16969181435E+02  0.53561486686E+01  0.97288229648E+02  0.93258015270E+02 0.  0.
         11    1    3    3    0    0 -0.17632456572E+01  0.25399346653E+02 -0.28620775182E+02  0.38306456609E+02  0.51100000000E-03 0.  1.
         22    1    1    0    0    0 -0.21243840729E+02  0.16969181435E+02 -0.53561486686E+01  0.27711770352E+02  0.00000000000E+00 0. -1.
</event>
<event>
 5    1  0.3183383E-003  0.9118800E+02  0.7818608E-02  0.1130116E+00
         25   -1    0    0    0    0  0.00000000000E+00  0.00000000000E+00  0.99999998245E-14  0.12500000000E+03  0.12500000000E+03 0.  0.
        -11    1    3    3    0    0 -0.23502329171E+02  0.25977465730E+02 -0.55717949172E+01  0.35471581598E+02  0.51100000000E-03 0.  1.
         23    2    1    0    0    0  0.92311034450E+00 -0.26815036820E+02  0.11070998126E+02  0.95974746652E+02  0.91480526141E+02 0.  0.
         11    1    3    3    0    0  0.24425439515E+02 -0.52792502550E+02  0.16642793043E+02  0.60503165054E+02  0.51100000000E-03 0. -1.
         22    1    1    0    0    0 -0.92311034450E+00  0.26815036820E+02 -0.11070998126E+02  0.29025253348E+02  0.00000000000E+00 0. -1.
</event>
<event>
 5    1  0.3183383E-003  0.9118800E+02  0.7818608E-02  0.1130116E+00
         25   -1    0    0    0    0  0.00000000000E+00  0.00000000000E+00  0.99999998245E-14  0.12500000000E+03  0.12500000000E+03 0.  0.
        -11    1    3    3    0    0 -0.51885358426E+01  0.15536152407E+02 -0.32629344547E+02  0.36509821440E+02  0.51100000000E-03 0.  1.
         23    2    1    0    0    0 -0.11159693823E+02 -0.25921454083E+02  0.88150384836E+01  0.95433710895E+02  0.90738237385E+02 0.  0.
         11    1    3    3    0    0 -0.59711579805E+01 -0.41457606489E+02  0.41444383030E+02  0.58923889455E+02  0.51100000000E-03 0. -1.
         22    1    1    0    0    0  0.11159693823E+02  0.25921454083E+02 -0.88150384836E+01  0.29566289105E+02  0.00000000000E+00 0. -1.
</event>
<event>
 5    1  0.3183383E-003  0.9118800E+02  0.7818608E-02  0.1130116E+00
         25   -1    0    0    0    0  0.00000000000E+00  0.00000000000E+00  0.99999998245E-14  0.12500000000E+03  0.12500000000E+03 0.  0.
        -11    1    3    3    0    0  0.15891383676E+02 -0.45698286223E+01 -0.40909428499E+02  0.44124831435E+02  0.51100000000E-03 0.  1.
         23    2    1    0    0    0  0.19966670717E+02 -0.19062345400E+02  0.87700773232E+01  0.96035276491E+02  0.91563197426E+02 0.  0.
         11    1    3    3    0    0  0.40752870414E+01 -0.14492516778E+02  0.49679505822E+02  0.51910445057E+02  0.51100000000E-03 0. -1.
         22    1    1    0    0    0 -0.19966670717E+02  0.19062345400E+02 -0.87700773232E+01  0.28964723509E+02  0.00000000000E+00 0. -1.
</event>
<event>
 5    1  0.3183383E-003  0.9118800E+02  0.7818608E-02  0.1130116E+00
         25   -1    0    0    0    0  0.00000000000E+00  0.00000000000E+00  0.99999998245E-14  0.12500000000E+03  0.12500000000E+03 0.  0.
        -11    1    3    3    0    0  0.19580128142E+02  0.32432681611E+02 -0.25428335563E+01  0.37970070547E+02  0.51100000000E-03 0.  1.
         23    2    1    0    0    0 -0.16291237021E+02 -0.88056903976E+01 -0.22232429311E+02  0.96065150767E+02  0.91603972031E+02 0.  0.
         11    1    3    3    0    0 -0.35871365163E+02 -0.41238372009E+02 -0.19689595754E+02  0.58095080221E+02  0.51100000000E-03 0. -1.
         22    1    1    0    0    0  0.16291237021E+02  0.88056903976E+01  0.22232429311E+02  0.28934849233E+02  0.00000000000E+00 0. -1.
</event>
<event>
 5    1  0.3183383E-003  0.9118800E+02  0.7818608E-02  0.1130116E+00
         25   -1    0    0    0    0  0.00000000000E+00  0.00000000000E+00  0.99999998245E-14  0.12500000000E+03  0.12500000000E+03 0.  0.
        -11    1    3    3    0    0  0.56329214767E+02  0.19013668832E+02 -0.13407438266E+02  0.60944724463E+02  0.51100000000E-03 0. -1.
         23    2    1    0    0    0  0.19728145054E+02  0.16717965164E+02 -0.73686151651E+01  0.98111590676E+02  0.94355167686E+02 0.  0.
         11    1    3    3    0    0 -0.36601069713E+02 -0.22957036679E+01  0.60388231005E+01  0.37166866214E+02  0.51100000000E-03 0.  1.
         22    1    1    0    0    0 -0.19728145054E+02 -0.16717965164E+02  0.73686151651E+01  0.26888409324E+02  0.00000000000E+00 0. -1.
</event>
<event>
 5    1  0.3183383E-003  0.9118800E+02  0.7818608E-02  0.1130116E+00
         25   -1    0    0    0    0  0.00000000000E+00  0.00000000000E+00  0.99999998245E-14  0.12500000000E+03  0.12500000000E+03 0.  0.
        -11    1    3    3    0    0 -0.31276535145E+02 -0.28081491488E+02  0.19977646922E+02  0.46539211335E+02  0.51100000000E-03 0. -1.
         23    2    1    0    0    0 -0.13757643482E+02  0.16825148005E+02  0.21035224907E+02  0.94753693673E+02  0.89796566851E+02 0.  0.
         11    1    3    3    0    0  0.17518891663E+02  0.44906639493E+02  0.10575779845E+01  0.48214482338E+02  0.51100000000E-03 0.  1.
         22    1    1    0    0    0  0.13757643482E+02 -0.16825148005E+02 -0.21035224907E+02  0.30246306327E+02  0.00000000000E+00 0.  1.
</event>
<event>
 5    1  0.3183383E-003  0.9118800E+02  0.7818608E-02  0.1130116E+00
         25   -1    0    0    0    0  0.00000000000E+00  0.00000000000E+00  0.99999998245E-14  0.12500000000E+03  0.12500000000E+03 0.  0.
        -11    1    3    3    0    0  0.20775235081E+02  0.22447964550E+02 -0.66526897621E+01  0.31301434255E+02  0.51100000000E-03 0.  1.
         23    2    1    0    0    0 -0.65896262835E-01 -0.30500470045E+02  0.13470445264E+02  0.91657295987E+02  0.85377538010E+02 0.  0.
         11    1    3    3    0    0 -0.20841131343E+02 -0.52948434595E+02  0.20123135027E+02  0.60355861731E+02  0.51100000000E-03 0. -1.
         22    1    1    0    0    0  0.65896262835E-01  0.30500470045E+02 -0.13470445264E+02  0.33342704013E+02  0.00000000000E+00 0. -1.
</event>
<event>
 5    1  0.3183383E-003  0.9118800E+02  0.7818608E-02  0.1130116E+00
         25   -1    0    0    0    0  0.00000000000E+00  0.00000000000E+00  0.99999998245E-14  0.12500000000E+03  0.12500000000E+03 0.  0.
        -11    1    3    3    0    0  0.45318025609E+02 -0.28829416928E+02  0.30035121490E+02  0.61538339665E+02  0.51100000000E-03 0. -1.
         23    2    1    0    0    0  0.22796458834E+02 -0.58144136929E+01  0.15185346917E+02  0.96998558913E+02  0.92868938447E+02 0.  0.
         11    1    3    3    0    0 -0.22521566776E+02  0.23015003236E+02 -0.14849774573E+02  0.35460219248E+02  0.51100000000E-03 0.  1.
         22    1    1    0    0    0 -0.22796458834E+02  0.58144136929E+01 -0.15185346917E+02  0.28001441087E+02  0.00000000000E+00 0. -1.
</event>
<event>
 5    1  0.3183383E-003  0.9118800E+02  0.7818608E-02  0.1130116E+00
         25   -1    0    0    0    0  0.00000000000E+00  0.00000000000E+00  0.99999998245E-14  0.12500000000E+03  0.12500000000E+03 0.  0.
        -11    1    3    3    0    0  0.29169774050E+02  0.57206657050E+01  0.19403464216E+02  0.35497833146E+02  0.51100000000E-03 0.  1.
         23    2    1    0    0    0 -0.25813092874E+02  0.91366816204E+01 -0.72185596919E+01  0.96682120157E+02  0.92442036105E+02 0.  0.
         11    1    3    3    0    0 -0.54982866924E+02  0.34160159155E+01 -0.26622023907E+02  0.61184287011E+02  0.51100000000E-03 0. -1.
         22    1    1    0    0    0  0.25813092874E+02 -0.91366816204E+01  0.72185596919E+01  0.28317879843E+02  0.00000000000E+00 0. -1.
</event>
<event>
 5    1  0.3183383E-003  0.9118800E+02  0.7818608E-02  0.1130116E+00
         25   -1    0    0    0    0  0.00000000000E+00  0.00000000000E+00  0.99999998245E-14  0.12500000000E+03  0.12500000000E+03 0.  0.
        -11    1    3    3    0    0 -0.30622994462E+02 -0.18350936727E+02 -0.39987215674E+02  0.53605056536E+02  0.51100000000E-03 0. -1.
         23    2    1    0    0    0 -0.14422605950E+02  0.15373729218E+02 -0.19613989589E+02  0.96206394806E+02  0.91796507023E+02 0.  0.
         11    1    3    3    0    0  0.16200388512E+02  0.33724665945E+02  0.20373226085E+02  0.42601338270E+02  0.51100000000E-03 0.  1.
         22    1    1    0    0    0  0.14422605950E+02 -0.15373729218E+02  0.19613989589E+02  0.28793605194E+02  0.00000000000E+00 0.  1.
</event>
<event>
 5    1  0.3183383E-003  0.9118800E+02  0.7818608E-02  0.1130116E+00
         25   -1    0    0    0    0  0.00000000000E+00  0.00000000000E+00  0.99999998245E-14  0.12500000000E+03  0.12500000000E+03 0.  0.
        -11    1    3    3    0    0  0.39868555788E+01 -0.26722830888E+02 -0.55089798598E+02  0.61358704500E+02  0.51100000000E-03 0. -1.
         23    2    1    0    0    0 -0.31798199942E+00 -0.19471054151E+02 -0.21496216429E+02  0.95994649062E+02  0.91507716972E+02 0.  0.
         11    1    3    3    0    0 -0.43048375782E+01  0.72517767373E+01  0.33593582170E+02  0.34635944562E+02  0.51100000000E-03 0.  1.
         22    1    1    0    0    0  0.31798199942E+00  0.19471054151E+02  0.21496216429E+02  0.29005350938E+02  0.00000000000E+00 0. -1.
</event>
<event>
 5    1  0.3183383E-003  0.9118800E+02  0.7818608E-02  0.1130116E+00
         25   -1    0    0    0    0  0.00000000000E+00  0.00000000000E+00  0.99999998245E-14  0.12500000000E+03  0.12500000000E+03 0.  0.
        -11    1    3    3    0    0  0.33089479761E+02  0.80670026700E+01  0.43404814294E+02  0.55172167867E+02  0.51100000000E-03 0. -1.
         23    2    1    0    0    0 -0.25722528002E+01  0.14577767259E+02  0.25287110546E+02  0.95698707494E+02  0.91102562388E+02 0.  0.
         11    1    3    3    0    0 -0.35661732561E+02  0.65107645892E+01 -0.18117703748E+02  0.40526539628E+02  0.51100000000E-03 0.  1.
         22    1    1    0    0    0  0.25722528002E+01 -0.14577767259E+02 -0.25287110546E+02  0.29301292506E+02  0.00000000000E+00 0. -1.
</event>
<event>
 5    1  0.3183383E-003  0.9118800E+02  0.7818608E-02  0.1130116E+00
         25   -1    0    0    0    0  0.00000000000E+00  0.00000000000E+00  0.99999998245E-14  0.12500000000E+03  0.12500000000E+03 0.  0.
        -11    1    3    3    0    0  0.56062747057E+02  0.23243854867E+02 -0.96146428604E+01  0.61447129747E+02  0.51100000000E-03 0. -1.
         23    2    1    0    0    0  0.28055043263E+02  0.91784714379E+01  0.32038978945E+01  0.95308338676E+02  0.90565361309E+02 0.  0.
         11    1    3    3    0    0 -0.28007703793E+02 -0.14065383429E+02  0.12818540755E+02  0.33861208929E+02  0.51100000000E-03 0.  1.
         22    1    1    0    0    0 -0.28055043263E+02 -0.91784714379E+01 -0.32038978945E+01  0.29691661324E+02  0.00000000000E+00 0. -1.
</event>
<event>
 5    1  0.3183383E-003  0.9118800E+02  0.7818608E-02  0.1130116E+00
         25   -1    0    0    0    0  0.00000000000E+00  0.00000000000E+00  0.99999998245E-14  0.12500000000E+03  0.12500000000E+03 0.  0.
        -11    1    3    3    0    0 -0.31623054023E+02  0.29678996658E+02  0.25393080935E+02  0.50256033946E+02  0.51100000000E-03 0. -1.
         23    2    1    0    0    0 -0.16753690957E+02 -0.13076094050E+02  0.19953191548E+02  0.95848666424E+02  0.91308086203E+02 0.  0.
         11    1    3    3    0    0  0.14869363066E+02 -0.42755090708E+02 -0.54398893863E+01  0.45592632478E+02  0.51100000000E-03 0.  1.
         22    1    1    0    0    0  0.16753690957E+02  0.13076094050E+02 -0.19953191548E+02  0.29151333576E+02  0.00000000000E+00 0. -1.
</event>
<event>
 5    1  0.3183383E-003  0.9118800E+02  0.7818608E-02  0.1130116E+00
         25   -1    0    0    0    0  0.00000000000E+00  0.00000000000E+00  0.99999998245E-14  0.12500000000E+03  0.12500000000E+03 0.  0.
        -11    1    3    3    0    0 -0.24556430362E+02  0.30067049048E+02  0.48175949232E+02  0.61870572934E+02  0.51100000000E-03 0. -1.
         23    2    1    0    0    0 -0.15687717310E+02  0.94691388430E+01  0.23176293459E+02  0.95454955689E+02  0.90767499262E+02 0.  0.
         11    1    3    3    0    0  0.88687130524E+01 -0.20597910205E+02 -0.24999655772E+02  0.33584382755E+02  0.51100000000E-03 0.  1.
         22    1    1    0    0    0  0.15687717310E+02 -0.94691388430E+01 -0.23176293459E+02  0.29545044311E+02  0.00000000000E+00 0. -1.
</event>
<event>
 5    1  0.3183383E-003  0.9118800E+02  0.7818608E-02  0.1130116E+00
         25   -1    0    0    0    0  0.00000000000E+00  0.00000000000E+00  0.99999998245E-14  0.12500000000E+03  0.12500000000E+03 0.  0.
        -11    1    3    3    0    0 -0.25277649899E+02 -0.51369165702E+01  0.24277884179E+02  0.35422636219E+02  0.51100000000E-03 0. -1.
         23    2    1    0    0    0  0.27389971697E+02  0.12234098516E+02  0.28871147555E+01  0.94863325537E+02  0.89949048824E+02 0.  0.
         11    1    3    3    0    0  0.52667621597E+02  0.17371015086E+02 -0.21390769423E+02  0.59440689318E+02  0.51100000000E-03 0.  1.
         22    1    1    0    0    0 -0.27389971697E+02 -0.12234098516E+02 -0.28871147555E+01  0.30136674463E+02  0.00000000000E+00 0.  1.
</event>
<event>
 5    1  0.3183383E-003  0.9118800E+02  0.7818608E-02  0.1130116E+00
         25   -1    0    0    0    0  0.00000000000E+00  0.00000000000E+00  0.99999998245E-14  0.12500000000E+03  0.12500000000E+03 0.  0.
        -11    1    3    3    0    0  0.43028925394E+02 -0.19570620815E+02 -0.19754193442E+02  0.51232077632E+02  0.51100000000E-03 0.  1.
         23    2    1    0    0    0  0.24911106906E+02  0.40769527355E+01  0.13905024492E+02  0.96181004580E+02  0.91761926446E+02 0.  0.
         11    1    3    3    0    0 -0.18117818488E+02  0.23647573550E+02  0.33659217935E+02  0.44948926949E+02  0.51100000000E-03 0. -1.
         22    1    1    0    0    0 -0.24911106906E+02 -0.40769527355E+01 -0.13905024492E+02  0.28818995420E+02  0.00000000000E+00 0. -1.
</event>
<event>
 5    1  0.3183383E-003  0.9118800E+02  0.7818608E-02  0.1130116E+00
         25   -1    0    0    0    0  0.00000000000E+00  0.00000000000E+00  0.99999998245E-14  0.12500000000E+03  0.12500000000E+03 0.  0.
        -11    1    3    3    0    0  0.64248601781E+01  0.38707271853E+02  0.27215040346E+02  0.47751336567E+02  0.51100000000E-03 0. -1.
         23    2    1    0    0    0  0.28222255123E+02  0.43335133221E+00  0.96464065333E+01  0.95171546527E+02  0.90376361023E+02 0.  0.
         11    1    3    3    0    0  0.21797394944E+02 -0.38273920521E+02 -0.17568633813E+02  0.47420209960E+02  0.51100000000E-03 0.  1.
         22    1    1    0    0    0 -0.28222255123E+02 -0.43335133221E+00 -0.96464065333E+01  0.29828453473E+02  0.00000000000E+00 0. -1.
</event>
<event>
 5    1  0.3183383E-003  0.9118800E+02  0.7818608E-02  0.1130116E+00
         25   -1    0    0    0    0  0.00000000000E+00  0.00000000000E+00  0.99999998245E-14  0.12500000000E+03  0.12500000000E+03 0.  0.
        -11    1    3    3    0    0  0.27863717555E+02 -0.26744152613E+02 -0.31723023324E+02  0.49979862585E+02  0.51100000000E-03 0. -1.
         23    2    1    0    0    0  0.28262598973E+01  0.10346359242E+02 -0.28154081307E+02  0.94872152602E+02  0.89961314745E+02 0.  0.
         11    1    3    3    0    0 -0.25037457658E+02  0.37090511855E+02  0.35689420169E+01  0.44892290017E+02  0.51100000000E-03 0.  1.
         22    1    1    0    0    0 -0.28262598973E+01 -0.10346359242E+02  0.28154081307E+02  0.30127847398E+02  0.00000000000E+00 0. -1.
</event>
<event>
 5    1  0.3183383E-003  0.9118800E+02  0.7818608E-02  0.1130116E+00
         25   -1    0    0    0    0  0.00000000000E+00  0.00000000000E+00  0.99999998245E-14  0.12500000000E+03  0.12500000000E+03 0.  0.
        -11    1    3    3    0    0  0.58447888312E+02  0.94896479714E+01  0.15656679718E+02  0.61248189253E+02  0.51100000000E-03 0.  1.
         23    2    1    0    0    0  0.29351911643E+02  0.12242767544E+02  0.31369390413E+01  0.93042833968E+02  0.87382541117E+02 0.  0.
         11    1    3    3    0    0 -0.29095976669E+02  0.27531195728E+01 -0.12519740676E+02  0.31794644715E+02  0.51100000000E-03 0. -1.
         22    1    1    0    0    0 -0.29351911643E+02 -0.12242767544E+02 -0.31369390413E+01  0.31957166032E+02  0.00000000000E+00 0.  1.
</event>
<event>
 5    1  0.3183383E-003  0.9118800E+02  0.7818608E-02  0.1130116E+00
         25   -1    0    0    0    0  0.00000000000E+00  0.00000000000E+00  0.99999998245E-14  0.12500000000E+03  0.12500000000E+03 0.  0.
        -11    1    3    3    0    0 -0.15775904168E+02  0.14022077196E+02  0.25627673450E+02  0.33200533850E+02  0.51100000000E-03 0.  1.
         23    2    1    0    0    0  0.17540948251E+02 -0.12627668910E+02 -0.19918594361E+02  0.95607938334E+02  0.90977934597E+02 0.  0.
         11    1    3    3    0    0  0.33316852419E+02 -0.26649746106E+02 -0.45546267812E+02  0.62407404484E+02  0.51100000000E-03 0. -1.
         22    1    1    0    0    0 -0.17540948251E+02  0.12627668910E+02  0.19918594361E+02  0.29392061666E+02  0.00000000000E+00 0. -1.
</event>
<event>
 5    1  0.3183383E-003  0.9118800E+02  0.7818608E-02  0.1130116E+00
         25   -1    0    0    0    0  0.00000000000E+00  0.00000000000E+00  0.99999998245E-14  0.12500000000E+03  0.12500000000E+03 0.  0.
        -11    1    3    3    0    0 -0.88387739138E+01 -0.18056996231E+02  0.11860042957E+02  0.23341800624E+02  0.51100000000E-03 0. -1.
         23    2    1    0    0    0  0.44856554111E+02 -0.20904663050E+01  0.66967808468E+01  0.79598156758E+02  0.65379960152E+02 0.  0.
         11    1    3    3    0    0  0.53695328025E+02  0.15966529926E+02 -0.51632621102E+01  0.56256356134E+02  0.51100000000E-03 0.  1.
         22    1    1    0    0    0 -0.44856554111E+02  0.20904663050E+01 -0.66967808468E+01  0.45401843242E+02  0.00000000000E+00 0.  1.
</event>
<event>
 5    1  0.3183383E-003  0.9118800E+02  0.7818608E-02  0.1130116E+00
         25   -1    0    0    0    0  0.00000000000E+00  0.00000000000E+00  0.99999998245E-14  0.12500000000E+03  0.12500000000E+03 0.  0.
        -11    1    3    3    0    0 -0.16634432709E+02  0.37458517406E+02 -0.11753222074E+02  0.42637813115E+02  0.51100000000E-03 0.  1.
         23    2    1    0    0    0 -0.25423586642E+02 -0.10318288025E+02  0.99097074191E+01  0.95827613628E+02  0.91279260552E+02 0.  0.
         11    1    3    3    0    0 -0.87891539331E+01 -0.47776805431E+02  0.21662929494E+02  0.53189800513E+02  0.51100000000E-03 0. -1.
         22    1    1    0    0    0  0.25423586642E+02  0.10318288025E+02 -0.99097074191E+01  0.29172386372E+02  0.00000000000E+00 0. -1.
</event>
<event>
 5    1  0.3183383E-003  0.9118800E+02  0.7818608E-02  0.1130116E+00
         25   -1    0    0    0    0  0.00000000000E+00  0.00000000000E+00  0.99999998245E-14  0.12500000000E+03  0.12500000000E+03 0.  0.
        -11    1    3    3    0    0  0.19697537742E+02  0.49601676938E+02  0.61448151831E+01  0.53722230986E+02  0.51100000000E-03 0.  1.
         23    2    1    0    0    0  0.27612742151E+02  0.81281240872E+01  0.20321907531E+01  0.96144156059E+02  0.91711716889E+02 0.  0.
         11    1    3    3    0    0  0.79152044089E+01 -0.41473552851E+02 -0.41126244300E+01  0.42421925073E+02  0.51100000000E-03 0. -1.
         22    1    1    0    0    0 -0.27612742151E+02 -0.81281240872E+01 -0.20321907531E+01  0.28855843941E+02  0.00000000000E+00 0.  1.
</event>
<event>
 5    1  0.3183383E-003  0.9118800E+02  0.7818608E-02  0.1130116E+00
         25   -1    0    0    0    0  0.00000000000E+00  0.00000000000E+00  0.99999998245E-14  0.12500000000E+03  0.12500000000E+03 0.  0.
        -11    1    3    3    0    0  0.44516110706E+02  0.45025314067E-01  0.36813785729E+02  0.57766261430E+02  0.51100000000E-03 0.  1.
         23    2    1    0    0    0  0.14930685847E+02 -0.39281419144E+01  0.33888684587E+02  0.87760254810E+02  0.79467375082E+02 0.  0.
         11    1    3    3    0    0 -0.29585424859E+02 -0.39731672284E+01 -0.29251011414E+01  0.29993993380E+02  0.51100000000E-03 0. -1.
         22    1    1    0    0    0 -0.14930685847E+02  0.39281419144E+01 -0.33888684587E+02  0.37239745190E+02  0.00000000000E+00 0.  1.
</event>
<event>
 5    1  0.3183383E-003  0.9118800E+02  0.7818608E-02  0.1130116E+00
         25   -1    0    0    0    0  0.00000000000E+00  0.00000000000E+00  0.99999998245E-14  0.12500000000E+03  0.12500000000E+03 0.  0.
        -11    1    3    3    0    0 -0.12409436072E+02 -0.54520010208E+02 -0.95100875861E+01  0.56717434558E+02  0.51100000000E-03 0.  1.
         23    2    1    0    0    0 -0.23134014080E+02 -0.17601852034E+02 -0.22248236198E+01  0.95845966958E+02  0.91304390581E+02 0.  0.
         11    1    3    3    0    0 -0.10724578008E+02  0.36918158174E+02  0.72852639663E+01  0.39128532399E+02  0.51100000000E-03 0. -1.
         22    1    1    0    0    0  0.23134014080E+02  0.17601852034E+02  0.22248236198E+01  0.29154033042E+02  0.00000000000E+00 0.  1.
</event>
<event>
 5    1  0.3183383E-003  0.9118800E+02  0.7818608E-02  0.1130116E+00
         25   -1    0    0    0    0  0.00000000000E+00  0.00000000000E+00  0.99999998245E-14  0.12500000000E+03  0.12500000000E+03 0.  0.
        -11    1    3    3    0    0 -0.37961608505E+02 -0.13377128355E+02 -0.98597810382E+01  0.41439673812E+02  0.51100000000E-03 0. -1.
         23    2    1    0    0    0 -0.39091287782E+01  0.15362501405E+01  0.29280017835E+02  0.95420263748E+02  0.90719710852E+02 0.  0.
         11    1    3    3    0    0  0.34052479727E+02  0.14913378495E+02  0.39139798874E+02  0.53980589936E+02  0.51100000000E-03 0.  1.
         22    1    1    0    0    0  0.39091287782E+01 -0.15362501405E+01 -0.29280017835E+02  0.29579736252E+02  0.00000000000E+00 0.  1.
</event>
<event>
 5    1  0.3183383E-003  0.9118800E+02  0.7818608E-02  0.1130116E+00
         25   -1    0    0    0    0  0.00000000000E+00  0.00000000000E+00  0.99999998245E-14  0.12500000000E+03  0.12500000000E+03 0.  0.
        -11    1    3    3    0    0  0.22905834287E+02 -0.77694001605E+01 -0.17325860579E+02  0.29752752282E+02  0.51100000000E-03 0.  1.
         23    2    1    0    0    0 -0.18551831862E+02 -0.54932542257E+01  0.27836051621E+02  0.91100264348E+02  0.84558063406E+02 0.  0.
         11    1    3    3    0    0 -0.41457666150E+02  0.22761459348E+01  0.45161912200E+02  0.61347512066E+02  0.51100000000E-03 0. -1.
         22    1    1    0    0    0  0.18551831862E+02  0.54932542257E+01 -0.27836051621E+02  0.33899735652E+02  0.00000000000E+00 0. -1.
</event>
<event>
 5    1  0.3183383E-003  0.9118800E+02  0.7818608E-02  0.1130116E+00
         25   -1    0    0    0    0  0.00000000000E+00  0.00000000000E+00  0.99999998245E-14  0.12500000000E+03  0.12500000000E+03 0.  0.
        -11    1    3    3    0    0  0.22204906370E+02  0.40107378430E+02 -0.42421249073E+02  0.62459763405E+02  0.51100000000E-03 0.  1.
         23    2    1    0    0    0  0.10405918104E+02  0.17620128098E+02 -0.20940158732E+02  0.95721299662E+02  0.91133555376E+02 0.  0.
         11    1    3    3    0    0 -0.11798988266E+02 -0.22487250333E+02  0.21481090342E+02  0.33261536257E+02  0.51100000000E-03 0. -1.
         22    1    1    0    0    0 -0.10405918104E+02 -0.17620128098E+02  0.20940158732E+02  0.29278700338E+02  0.00000000000E+00 0.  1.
</event>
<event>
 5    1  0.3183383E-003  0.9118800E+02  0.7818608E-02  0.1130116E+00
         25   -1    0    0    0    0  0.00000000000E+00  0.00000000000E+00  0.99999998245E-14  0.12500000000E+03  0.12500000000E+03 0.  0.
        -11    1    3    3    0    0  0.36359500444E+02  0.38270143458E+01  0.56818465520E+01  0.36999225557E+02  0.51100000000E-03 0. -1.
         23    2    1    0    0    0 -0.98356940595E+01 -0.22981714174E+02 -0.16728601363E+02  0.94921001221E+02  0.90029163637E+02 0.  0.
         11    1    3    3    0    0 -0.46195194503E+02 -0.26808728520E+02 -0.22410447915E+02  0.57921775664E+02  0.51100000000E-03 0.  1.
         22    1    1    0    0    0  0.98356940595E+01  0.22981714174E+02  0.16728601363E+02  0.30078998779E+02  0.00000000000E+00 0.  1.
</event>
<event>
 5    1  0.3183383E-003  0.9118800E+02  0.7818608E-02  0.1130116E+00
         25   -1    0    0    0    0  0.00000000000E+00  0.00000000000E+00  0.99999998245E-14  0.12500000000E+03  0.12500000000E+03 0.  0.
        -11    1    3    3    0    0  0.67393967910E+01 -0.29918006202E+02  0.15564416190E+02  0.34391243301E+02  0.51100000000E-03 0.  1.
         23    2    1    0    0    0 -0.26724786530E+01  0.16362660698E+02 -0.23882936183E+02  0.95926413225E+02  0.91414458956E+02 0.  0.
         11    1    3    3    0    0 -0.94118754440E+01  0.46280666899E+02 -0.39447352373E+02  0.61535169924E+02  0.51100000000E-03 0. -1.
         22    1    1    0    0    0  0.26724786530E+01 -0.16362660698E+02  0.23882936183E+02  0.29073586775E+02  0.00000000000E+00 0. -1.
</event>
<event>
 5    1  0.3183383E-003  0.9118800E+02  0.7818608E-02  0.1130116E+00
         25   -1    0    0    0    0  0.00000000000E+00  0.00000000000E+00  0.99999998245E-14  0.12500000000E+03  0.12500000000E+03 0.  0.
        -11    1    3    3    0    0  0.47976373305E+01  0.31972564510E+02  0.14467608338E+02  0.35419964661E+02  0.51100000000E-03 0. -1.
         23    2    1    0    0    0 -0.12334481064E+02 -0.25325811781E+02  0.87753055997E+01  0.95495048656E+02  0.90822696304E+02 0.  0.
         11    1    3    3    0    0 -0.17132118394E+02 -0.57298376291E+02 -0.56923027385E+01  0.60075083995E+02  0.51100000000E-03 0.  1.
         22    1    1    0    0    0  0.12334481064E+02  0.25325811781E+02 -0.87753055997E+01  0.29504951344E+02  0.00000000000E+00 0.  1.
</event>
<event>
 5    1  0.3183383E-003  0.9118800E+02  0.7818608E-02  0.1130116E+00
         25   -1    0    0    0    0  0.00000000000E+00  0.00000000000E+00  0.99999998245E-14  0.12500000000E+03  0.12500000000E+03 0.  0.
        -11    1    3    3    0    0  0.57229576449E+02 -0.42611867887E+01 -0.18333426961E+01  0.57417273351E+02  0.51100000000E-03 0.  1.
         23    2    1    0    0    0  0.21875915477E+02  0.21940149060E+01  0.16261700562E+02  0.97653843332E+02  0.93746791054E+02 0.  0.
         11    1    3    3    0    0 -0.35353660972E+02  0.64552016947E+01  0.18095043258E+02  0.40236569981E+02  0.51100000000E-03 0. -1.
         22    1    1    0    0    0 -0.21875915477E+02 -0.21940149060E+01 -0.16261700562E+02  0.27346156668E+02  0.00000000000E+00 0.  1.
</event>
<event>
 5    1  0.3183383E-003  0.9118800E+02  0.7818608E-02  0.1130116E+00
         25   -1    0    0    0    0  0.00000000000E+00  0.00000000000E+00  0.99999998245E-14  0.12500000000E+03  0.12500000000E+03 0.  0.
        -11    1    3    3    0    0  0.41597873035E+02 -0.59445632357E+01  0.88300253209E+01  0.42938213989E+02  0.51100000000E-03 0.  1.
         23    2    1    0    0    0 -0.73616477846E+01  0.70293574686E+01  0.26524588087E+02  0.96589447423E+02  0.92316639106E+02 0.  0.
         11    1    3    3    0    0 -0.48959520820E+02  0.12973920704E+02  0.17694562766E+02  0.53651233435E+02  0.51100000000E-03 0. -1.
         22    1    1    0    0    0  0.73616477846E+01 -0.70293574686E+01 -0.26524588087E+02  0.28410552577E+02  0.00000000000E+00 0.  1.
</event>
<event>
 5    1  0.3183383E-003  0.9118800E+02  0.7818608E-02  0.1130116E+00
         25   -1    0    0    0    0  0.00000000000E+00  0.00000000000E+00  0.99999998245E-14  0.12500000000E+03  0.12500000000E+03 0.  0.
        -11    1    3    3    0    0 -0.47841548469E+02  0.39141238832E+01  0.39841436822E+02  0.62381681718E+02  0.51100000000E-03 0. -1.
         23    2    1    0    0    0 -0.24922006373E+02 -0.47342353502E+00  0.19206367657E+02  0.93532316735E+02  0.88079959036E+02 0.  0.
         11    1    3    3    0    0  0.22919542096E+02 -0.43875474182E+01 -0.20635069165E+02  0.31150635017E+02  0.51100000000E-03 0.  1.
         22    1    1    0    0    0  0.24922006373E+02  0.47342353502E+00 -0.19206367657E+02  0.31467683265E+02  0.00000000000E+00 0. -1.
</event>
<event>
 5    1  0.3183383E-003  0.9118800E+02  0.7818608E-02  0.1130116E+00
         25   -1    0    0    0    0  0.00000000000E+00  0.00000000000E+00  0.99999998245E-14  0.12500000000E+03  0.12500000000E+03 0.  0.
        -11    1    3    3    0    0 -0.30787955151E+02 -0.37269119631E+02  0.36413473806E+02  0.60521289935E+02  0.51100000000E-03 0.  1.
         23    2    1    0    0    0 -0.17703509842E+02 -0.25912032049E+02  0.10088908763E+02  0.92035871835E+02  0.85930017798E+02 0.  0.
         11    1    3    3    0    0  0.13084445309E+02  0.11357087582E+02 -0.26324565043E+02  0.31514581901E+02  0.51100000000E-03 0. -1.
         22    1    1    0    0    0  0.17703509842E+02  0.25912032049E+02 -0.10088908763E+02  0.32964128165E+02  0.00000000000E+00 0.  1.
</event>
<event>
 5    1  0.3183383E-003  0.9118800E+02  0.7818608E-02  0.1130116E+00
         25   -1    0    0    0    0  0.00000000000E+00  0.00000000000E+00  0.99999998245E-14  0.12500000000E+03  0.12500000000E+03 0.  0.
        -11    1    3    3    0    0 -0.18115414251E+02  0.51563405383E+02  0.23111240906E+01  0.54701867454E+02  0.51100000000E-03 0. -1.
         23    2    1    0    0    0  0.13490541727E+02  0.24388313132E+02 -0.39456621121E+01  0.96851238339E+02  0.92670435333E+02 0.  0.
         11    1    3    3    0    0  0.31605955979E+02 -0.27175092251E+02 -0.62567862027E+01  0.42149370885E+02  0.51100000000E-03 0.  1.
         22    1    1    0    0    0 -0.13490541727E+02 -0.24388313132E+02  0.39456621121E+01  0.28148761661E+02  0.00000000000E+00 0. -1.
</event>
<event>
 5    1  0.3183383E-003  0.9118800E+02  0.7818608E-02  0.1130116E+00
         25   -1    0    0    0    0  0.00000000000E+00  0.00000000000E+00  0.99999998245E-14  0.12500000000E+03  0.12500000000E+03 0.  0.
        -11    1    3    3    0    0 -0.89126583548E+01 -0.81215687716E+01  0.15715656364E+02  0.19808513662E+02  0.51100000000E-03 0. -1.
         23    2    1    0    0    0  0.36588517349E+02 -0.14323571655E+02 -0.22649142369E+02  0.79647293832E+02  0.65473837966E+02 0.  0.
         11    1    3    3    0    0  0.45501175703E+02 -0.62020028837E+01 -0.38364798733E+02  0.59838780170E+02  0.51100000000E-03 0.  1.
         22    1    1    0    0    0 -0.36588517349E+02  0.14323571655E+02  0.22649142369E+02  0.45352706168E+02  0.00000000000E+00 0.  1.
</event>
<event>
 5    1  0.3183383E-003  0.9118800E+02  0.7818608E-02  0.1130116E+00
         25   -1    0    0    0    0  0.00000000000E+00  0.00000000000E+00  0.99999998245E-14  0.12500000000E+03  0.12500000000E+03 0.  0.
        -11    1    3    3    0    0  0.54867842246E+02 -0.10153161303E+02  0.72582961203E+01  0.56269438064E+02  0.51100000000E-03 0. -1.
         23    2    1    0    0    0  0.10567415879E+02  0.10501790064E+02  0.12664248898E+02  0.10544645625E+03  0.10361763394E+03 0.  0.
         11    1    3    3    0    0 -0.44300426367E+02  0.20654951367E+02  0.54059527774E+01  0.49177018189E+02  0.51100000000E-03 0.  1.
         22    1    1    0    0    0 -0.10567415879E+02 -0.10501790064E+02 -0.12664248898E+02  0.19553543747E+02  0.00000000000E+00 0. -1.
</event>
<event>
 5    1  0.3183383E-003  0.9118800E+02  0.7818608E-02  0.1130116E+00
         25   -1    0    0    0    0  0.00000000000E+00  0.00000000000E+00  0.99999998245E-14  0.12500000000E+03  0.12500000000E+03 0.  0.
        -11    1    3    3    0    0  0.12190300640E+02  0.53978724793E+02  0.28981793004E+02  0.62467995693E+02  0.51100000000E-03 0.  1.
         23    2    1    0    0    0  0.55781894994E+01  0.25926275503E+02  0.15455049049E+02  0.94305594961E+02  0.89170615902E+02 0.  0.
         11    1    3    3    0    0 -0.66121111405E+01 -0.28052449289E+02 -0.13526743955E+02  0.31837599268E+02  0.51100000000E-03 0. -1.
         22    1    1    0    0    0 -0.55781894994E+01 -0.25926275503E+02 -0.15455049049E+02  0.30694405039E+02  0.00000000000E+00 0.  1.
</event>
<event>
 5    1  0.3183383E-003  0.9118800E+02  0.7818608E-02  0.1130116E+00
         25   -1    0    0    0    0  0.00000000000E+00  0.00000000000E+00  0.99999998245E-14  0.12500000000E+03  0.12500000000E+03 0.  0.
        -11    1    3    3    0    0  0.11522317631E+02  0.14229384307E+02  0.56005076341E+02  0.58922048145E+02  0.51100000000E-03 0. -1.
         23    2    1    0    0    0 -0.67611592179E+01  0.15244835059E+02  0.24486943500E+02  0.95373514013E+02  0.90655272893E+02 0.  0.
         11    1    3    3    0    0 -0.18283476849E+02  0.10154507515E+01 -0.31518132841E+02  0.36451465868E+02  0.51100000000E-03 0.  1.
         22    1    1    0    0    0  0.67611592179E+01 -0.15244835059E+02 -0.24486943500E+02  0.29626485987E+02  0.00000000000E+00 0. -1.
</event>
<event>
 5    1  0.3183383E-003  0.9118800E+02  0.7818608E-02  0.1130116E+00
         25   -1    0    0    0    0  0.00000000000E+00  0.00000000000E+00  0.99999998245E-14  0.12500000000E+03  0.12500000000E+03 0.  0.
        -11    1    3    3    0    0  0.55878476707E+02 -0.22664062422E+02  0.43446229872E+01  0.60456096746E+02  0.51100000000E-03 0.  1.
         23    2    1    0    0    0  0.18737619794E+02 -0.19448075453E+02  0.37015074753E+01  0.97741474876E+02  0.93863564384E+02 0.  0.
         11    1    3    3    0    0 -0.37140856913E+02  0.32159869697E+01 -0.64311551193E+00  0.37285378129E+02  0.51100000000E-03 0. -1.
         22    1    1    0    0    0 -0.18737619794E+02  0.19448075453E+02 -0.37015074753E+01  0.27258525124E+02  0.00000000000E+00 0.  1.
</event>
<event>
 5    1  0.3183383E-003  0.9118800E+02  0.7818608E-02  0.1130116E+00
         25   -1    0    0    0    0  0.00000000000E+00  0.00000000000E+00  0.99999998245E-14  0.12500000000E+03  0.12500000000E+03 0.  0.
        -11    1    3    3    0    0 -0.29051381000E+02  0.51185466502E+02 -0.10715050599E+02  0.59822629737E+02  0.51100000000E-03 0. -1.
         23    2    1    0    0    0 -0.11388398353E+02  0.26216530922E+02  0.75372393497E+01  0.95439687287E+02  0.90746470024E+02 0.  0.
         11    1    3    3    0    0  0.17662982647E+02 -0.24968935580E+02  0.18252289948E+02  0.35617057551E+02  0.51100000000E-03 0.  1.
         22    1    1    0    0    0  0.11388398353E+02 -0.26216530922E+02 -0.75372393497E+01  0.29560312713E+02  0.00000000000E+00 0. -1.
</event>
<event>
 5    1  0.3183383E-003  0.9118800E+02  0.7818608E-02  0.1130116E+00
         25   -1    0    0    0    0  0.00000000000E+00  0.00000000000E+00  0.99999998245E-14  0.12500000000E+03  0.12500000000E+03 0.  0.
        -11    1    3    3    0    0 -0.44098243393E+02 -0.19314111405E+02  0.26587804352E+02  0.54996375428E+02  0.51100000000E-03 0. -1.
         23    2    1    0    0    0 -0.86719712644E+01 -0.22865568986E+00  0.28427195135E+02  0.95278613890E+02  0.90524325308E+02 0.  0.
         11    1    3    3    0    0  0.35426272128E+02  0.19085455716E+02  0.18393907833E+01  0.40282238462E+02  0.51100000000E-03 0.  1.
         22    1    1    0    0    0  0.86719712644E+01  0.22865568986E+00 -0.28427195135E+02  0.29721386110E+02  0.00000000000E+00 0. -1.
</event>
<event>
 5    1  0.3183383E-003  0.9118800E+02  0.7818608E-02  0.1130116E+00
         25   -1    0    0    0    0  0.00000000000E+00  0.00000000000E+00  0.99999998245E-14  0.12500000000E+03  0.12500000000E+03 0.  0.
        -11    1    3    3    0    0 -0.32421985030E+02 -0.12726599225E+02 -0.43364104734E+02  0.55620113455E+02  0.51100000000E-03 0. -1.
         23    2    1    0    0    0 -0.98933471043E+01 -0.24300169502E+02 -0.11423219473E+02  0.96384156523E+02  0.92038248195E+02 0.  0.
         11    1    3    3    0    0  0.22528637925E+02 -0.11573570277E+02  0.31940885261E+02  0.40764043068E+02  0.51100000000E-03 0.  1.
         22    1    1    0    0    0  0.98933471043E+01  0.24300169502E+02  0.11423219473E+02  0.28615843477E+02  0.00000000000E+00 0. -1.
</event>
<event>
 5    1  0.3183383E-003  0.9118800E+02  0.7818608E-02  0.1130116E+00
         25   -1    0    0    0    0  0.00000000000E+00  0.00000000000E+00  0.99999998245E-14  0.12500000000E+03  0.12500000000E+03 0.  0.
        -11    1    3    3    0    0 -0.27208101625E+02 -0.25545653923E+02 -0.10043207472E+02  0.38648767703E+02  0.51100000000E-03 0.  1.
         23    2    1    0    0    0  0.25443844568E+01  0.92234263048E+01  0.26253565931E+02  0.97057287011E+02  0.92947951848E+02 0.  0.
         11    1    3    3    0    0  0.29752486082E+02  0.34769080227E+02  0.36296773404E+02  0.58408519308E+02  0.51100000000E-03 0. -1.
         22    1    1    0    0    0 -0.25443844568E+01 -0.92234263048E+01 -0.26253565931E+02  0.27942712989E+02  0.00000000000E+00 0. -1.
</event>
<event>
 5    1  0.3183383E-003  0.9118800E+02  0.7818608E-02  0.1130116E+00
         25   -1    0    0    0    0  0.00000000000E+00  0.00000000000E+00  0.99999998245E-14  0.12500000000E+03  0.12500000000E+03 0.  0.
        -11    1    3    3    0    0  0.36941844162E+02 -0.78798175191E+01  0.52540519742E+01  0.38136549878E+02  0.51100000000E-03 0.  1.
         23    2    1    0    0    0 -0.17527824941E+02 -0.13482228541E+02  0.20362421006E+02  0.94939671944E+02  0.90055083066E+02 0.  0.
         11    1    3    3    0    0 -0.54469669103E+02 -0.56024110218E+01  0.15108369032E+02  0.56803122066E+02  0.51100000000E-03 0. -1.
         22    1    1    0    0    0  0.17527824941E+02  0.13482228541E+02 -0.20362421006E+02  0.30060328056E+02  0.00000000000E+00 0. -1.
</event>
<event>
 5    1  0.3183383E-003  0.9118800E+02  0.7818608E-02  0.1130116E+00
         25   -1    0    0    0    0  0.00000000000E+00  0.00000000000E+00  0.99999998245E-14  0.12500000000E+03  0.12500000000E+03 0.  0.
        -11    1    3    3    0    0 -0.27625130072E+02 -0.53480021007E+02 -0.10765310685E+02  0.61148608920E+02  0.51100000000E-03 0. -1.
         23    2    1    0    0    0 -0.21511321578E+02 -0.21652739571E+02 -0.56762772199E+01  0.93954900386E+02  0.88677647107E+02 0.  0.
         11    1    3    3    0    0  0.61138084937E+01  0.31827281436E+02  0.50890334649E+01  0.32806291466E+02  0.51100000000E-03 0.  1.
         22    1    1    0    0    0  0.21511321578E+02  0.21652739571E+02  0.56762772199E+01  0.31045099614E+02  0.00000000000E+00 0. -1.
</event>
<event>
 5    1  0.3183383E-003  0.9118800E+02  0.7818608E-02  0.1130116E+00
         25   -1    0    0    0    0  0.00000000000E+00  0.00000000000E+00  0.99999998245E-14  0.12500000000E+03  0.12500000000E+03 0.  0.
        -11    1    3    3    0    0 -0.22081478879E+02  0.31181038192E+02 -0.72699062200E+01  0.38893449177E+02  0.51100000000E-03 0. -1.
         23    2    1    0    0    0  0.12303364832E+02 -0.18718864730E+02  0.76975143428E+01  0.10131413058E+03  0.98506510677E+02 0.  0.
         11    1    3    3    0    0  0.34384843711E+02 -0.49899902921E+02  0.14967420563E+02  0.62420681406E+02  0.51100000000E-03 0.  1.
         22    1    1    0    0    0 -0.12303364832E+02  0.18718864730E+02 -0.76975143428E+01  0.23685869417E+02  0.00000000000E+00 0.  1.
</event>
<event>
 5    1  0.3183383E-003  0.9118800E+02  0.7818608E-02  0.1130116E+00
         25   -1    0    0    0    0  0.00000000000E+00  0.00000000000E+00  0.99999998245E-14  0.12500000000E+03  0.12500000000E+03 0.  0.
        -11    1    3    3    0    0 -0.37885999165E+02 -0.32022160866E+02 -0.16072453721E+01  0.49632156484E+02  0.51100000000E-03 0. -1.
         23    2    1    0    0    0  0.21931107250E+01 -0.19341610093E+02 -0.21378874685E+02  0.96086959717E+02  0.91633727029E+02 0.  0.
         11    1    3    3    0    0  0.40079109890E+02  0.12680550774E+02 -0.19771629313E+02  0.46454803233E+02  0.51100000000E-03 0.  1.
         22    1    1    0    0    0 -0.21931107250E+01  0.19341610093E+02  0.21378874685E+02  0.28913040283E+02  0.00000000000E+00 0.  1.
</event>
<event>
 5    1  0.3183383E-003  0.9118800E+02  0.7818608E-02  0.1130116E+00
         25   -1    0    0    0    0  0.00000000000E+00  0.00000000000E+00  0.99999998245E-14  0.12500000000E+03  0.12500000000E+03 0.  0.
        -11    1    3    3    0    0 -0.41543559100E+02  0.28217701757E+02 -0.30405270361E+02  0.58707635458E+02  0.51100000000E-03 0.  1.
         23    2    1    0    0    0 -0.18604702668E+02  0.57277272011E+01 -0.27967696890E+02  0.90924585262E+02  0.84297961514E+02 0.  0.
         11    1    3    3    0    0  0.22938856433E+02 -0.22489974556E+02  0.24375734704E+01  0.32216949803E+02  0.51100000000E-03 0. -1.
         22    1    1    0    0    0  0.18604702668E+02 -0.57277272011E+01  0.27967696890E+02  0.34075414738E+02  0.00000000000E+00 0.  1.
</event>
<event>
 5    1  0.3183383E-003  0.9118800E+02  0.7818608E-02  0.1130116E+00
         25   -1    0    0    0    0  0.00000000000E+00  0.00000000000E+00  0.99999998245E-14  0.12500000000E+03  0.12500000000E+03 0.  0.
        -11    1    3    3    0    0 -0.34896891454E+02  0.42650476821E+02 -0.80719322728E+01  0.55695711658E+02  0.51100000000E-03 0.  1.
         23    2    1    0    0    0 -0.10137605299E+02  0.22208481187E+02  0.15988000393E+02  0.95817747955E+02  0.91265749264E+02 0.  0.
         11    1    3    3    0    0  0.24759286156E+02 -0.20441995634E+02  0.24059932666E+02  0.40122036297E+02  0.51100000000E-03 0. -1.
         22    1    1    0    0    0  0.10137605299E+02 -0.22208481187E+02 -0.15988000393E+02  0.29182252045E+02  0.00000000000E+00 0.  1.
</event>
<event>
 5    1  0.3183383E-003  0.9118800E+02  0.7818608E-02  0.1130116E+00
         25   -1    0    0    0    0  0.00000000000E+00  0.00000000000E+00  0.99999998245E-14  0.12500000000E+03  0.12500000000E+03 0.  0.
        -11    1    3    3    0    0 -0.15611619419E+01 -0.35328311453E+02  0.13451467060E+02  0.37834756283E+02  0.51100000000E-03 0.  1.
         23    2    1    0    0    0 -0.24986112458E+02  0.13583831330E+02 -0.68578387195E+01  0.95744979213E+02  0.91166028778E+02 0.  0.
         11    1    3    3    0    0 -0.23424950516E+02  0.48912142782E+02 -0.20309305779E+02  0.57910222929E+02  0.51100000000E-03 0. -1.
         22    1    1    0    0    0  0.24986112458E+02 -0.13583831330E+02  0.68578387195E+01  0.29255020787E+02  0.00000000000E+00 0. -1.
</event>
<event>
 5    1  0.3183383E-003  0.9118800E+02  0.7818608E-02  0.1130116E+00
         25   -1    0    0    0    0  0.00000000000E+00  0.00000000000E+00  0.99999998245E-14  0.12500000000E+03  0.12500000000E+03 0.  0.
        -11    1    3    3    0    0  0.14413834744E+02 -0.34847810265E+02  0.48315751032E+02  0.61290621716E+02  0.51100000000E-03 0. -1.
         23    2    1    0    0    0 -0.82006304760E+00 -0.20262167607E+02  0.20916723913E+02  0.95866904064E+02  0.91333049966E+02 0.  0.
         11    1    3    3    0    0 -0.15233897792E+02  0.14585642658E+02 -0.27399027119E+02  0.34576282348E+02  0.51100000000E-03 0.  1.
         22    1    1    0    0    0  0.82006304760E+00  0.20262167607E+02 -0.20916723913E+02  0.29133095936E+02  0.00000000000E+00 0. -1.
</event>
<event>
 5    1  0.3183383E-003  0.9118800E+02  0.7818608E-02  0.1130116E+00
         25   -1    0    0    0    0  0.00000000000E+00  0.00000000000E+00  0.99999998245E-14  0.12500000000E+03  0.12500000000E+03 0.  0.
        -11    1    3    3    0    0  0.42748790434E+02  0.31258212047E+02 -0.28107322369E+02  0.59954620130E+02  0.51100000000E-03 0.  1.
         23    2    1    0    0    0  0.13840528992E+02  0.20663136626E+02 -0.24927348440E+01  0.10000521684E+03  0.96831318337E+02 0.  0.
         11    1    3    3    0    0 -0.28908261442E+02 -0.10595075421E+02  0.25614587525E+02  0.40050596713E+02  0.51100000000E-03 0. -1.
         22    1    1    0    0    0 -0.13840528992E+02 -0.20663136626E+02  0.24927348440E+01  0.24994783156E+02  0.00000000000E+00 0.  1.
</event>
<event>
 5    1  0.3183383E-003  0.9118800E+02  0.7818608E-02  0.1130116E+00
         25   -1    0    0    0    0  0.00000000000E+00  0.00000000000E+00  0.99999998245E-14  0.12500000000E+03  0.12500000000E+03 0.  0.
        -11    1    3    3    0    0 -0.10581672587E+02 -0.56595246043E+02 -0.27575420903E+01  0.57641978696E+02  0.51100000000E-03 0.  1.
         23    2    1    0    0    0  0.12497585479E+02 -0.25980892623E+02 -0.32708937413E+01  0.95984570136E+02  0.91493948074E+02 0.  0.
         11    1    3    3    0    0  0.23079258066E+02  0.30614353420E+02 -0.51335165099E+00  0.38342591440E+02  0.51100000000E-03 0. -1.
         22    1    1    0    0    0 -0.12497585479E+02  0.25980892623E+02  0.32708937413E+01  0.29015429864E+02  0.00000000000E+00 0.  1.
</event>
<event>
 5    1  0.3183383E-003  0.9118800E+02  0.7818608E-02  0.1130116E+00
         25   -1    0    0    0    0  0.00000000000E+00  0.00000000000E+00  0.99999998245E-14  0.12500000000E+03  0.12500000000E+03 0.  0.
        -11    1    3    3    0    0 -0.18301043549E+02  0.30166007234E+02  0.39094850813E+02  0.52662354180E+02  0.51100000000E-03 0. -1.
         23    2    1    0    0    0 -0.91208787570E+01  0.25292312683E+02 -0.47279262702E+01  0.97700827907E+02  0.93809418380E+02 0.  0.
         11    1    3    3    0    0  0.91801647916E+01 -0.48736945513E+01 -0.43822777083E+02  0.45038473728E+02  0.51100000000E-03 0.  1.
         22    1    1    0    0    0  0.91208787570E+01 -0.25292312683E+02  0.47279262702E+01  0.27299172093E+02  0.00000000000E+00 0. -1.
</event>
<event>
 5    1  0.3183383E-003  0.9118800E+02  0.7818608E-02  0.1130116E+00
         25   -1    0    0    0    0  0.00000000000E+00  0.00000000000E+00  0.99999998245E-14  0.12500000000E+03  0.12500000000E+03 0.  0.
        -11    1    3    3    0    0  0.38692758460E+02 -0.33435175443E+02 -0.25308167924E+02  0.57057373565E+02  0.51100000000E-03 0. -1.
         23    2    1    0    0    0  0.73636959371E+01 -0.28330197402E+02 -0.36109607543E+01  0.95506557673E+02  0.90838534875E+02 0.  0.
         11    1    3    3    0    0 -0.31329062523E+02  0.51049780408E+01  0.21697207170E+02  0.38449184108E+02  0.51100000000E-03 0.  1.
         22    1    1    0    0    0 -0.73636959371E+01  0.28330197402E+02  0.36109607543E+01  0.29493442327E+02  0.00000000000E+00 0. -1.
</event>
<event>
 5    1  0.3183383E-003  0.9118800E+02  0.7818608E-02  0.1130116E+00
         25   -1    0    0    0    0  0.00000000000E+00  0.00000000000E+00  0.99999998245E-14  0.12500000000E+03  0.12500000000E+03 0.  0.
        -11    1    3    3    0    0  0.86602047362E+01  0.16794741920E+02  0.50283776912E+02  0.53717043134E+02  0.51100000000E-03 0.  1.
         23    2    1    0    0    0 -0.17951977288E+02 -0.98824529614E+00  0.23224904983E+02  0.95629158528E+02  0.91007085614E+02 0.  0.
         11    1    3    3    0    0 -0.26612182024E+02 -0.17782987216E+02 -0.27058871929E+02  0.41912115394E+02  0.51100000000E-03 0. -1.
         22    1    1    0    0    0  0.17951977288E+02  0.98824529614E+00 -0.23224904983E+02  0.29370841472E+02  0.00000000000E+00 0.  1.
</event>
<event>
 5    1  0.3183383E-003  0.9118800E+02  0.7818608E-02  0.1130116E+00
         25   -1    0    0    0    0  0.00000000000E+00  0.00000000000E+00  0.99999998245E-14  0.12500000000E+03  0.12500000000E+03 0.  0.
        -11    1    3    3    0    0  0.30023147094E+02 -0.35840439922E+02 -0.83273121245E+01  0.47489689646E+02  0.51100000000E-03 0. -1.
         23    2    1    0    0    0  0.32970064942E+02 -0.31753818501E+01 -0.24250951602E+02  0.83948606774E+02  0.73226714343E+02 0.  0.
         11    1    3    3    0    0  0.29469178486E+01  0.32665058072E+02 -0.15923639478E+02  0.36458917128E+02  0.51100000000E-03 0.  1.
         22    1    1    0    0    0 -0.32970064942E+02  0.31753818501E+01  0.24250951602E+02  0.41051393226E+02  0.00000000000E+00 0.  1.
</event>
<event>
 5    1  0.3183383E-003  0.9118800E+02  0.7818608E-02  0.1130116E+00
         25   -1    0    0    0    0  0.00000000000E+00  0.00000000000E+00  0.99999998245E-14  0.12500000000E+03  0.12500000000E+03 0.  0.
        -11    1    3    3    0    0 -0.23452847423E+02  0.57797304362E+02  0.81617259683E+00  0.62379728933E+02  0.51100000000E-03 0. -1.
         23    2    1    0    0    0 -0.13395941890E+02  0.25750452287E+02  0.51919777257E+00  0.95968868117E+02  0.91472493293E+02 0.  0.
         11    1    3    3    0    0  0.10056905533E+02 -0.32046852075E+02 -0.29697482426E+00  0.33589139184E+02  0.51100000000E-03 0.  1.
         22    1    1    0    0    0  0.13395941890E+02 -0.25750452287E+02 -0.51919777257E+00  0.29031131883E+02  0.00000000000E+00 0. -1.
</event>
<event>
 5    1  0.3183383E-003  0.9118800E+02  0.7818608E-02  0.1130116E+00
         25   -1    0    0    0    0  0.00000000000E+00  0.00000000000E+00  0.99999998245E-14  0.12500000000E+03  0.12500000000E+03 0.  0.
        -11    1    3    3    0    0 -0.17788758306E+02 -0.37974864629E+02 -0.33912397588E+02  0.53931261585E+02  0.51100000000E-03 0. -1.
         23    2    1    0    0    0 -0.27068575150E+02 -0.43099367306E+01 -0.12684681738E+02  0.94797608272E+02  0.89857676734E+02 0.  0.
         11    1    3    3    0    0 -0.92798168441E+01  0.33664927899E+02  0.21227715850E+02  0.40866346687E+02  0.51100000000E-03 0.  1.
         22    1    1    0    0    0  0.27068575150E+02  0.43099367306E+01  0.12684681738E+02  0.30202391728E+02  0.00000000000E+00 0. -1.
</event>
<event>
 5    1  0.3183383E-003  0.9118800E+02  0.7818608E-02  0.1130116E+00
         25   -1    0    0    0    0  0.00000000000E+00  0.00000000000E+00  0.99999998245E-14  0.12500000000E+03  0.12500000000E+03 0.  0.
        -11    1    3    3    0    0  0.43268640502E+02 -0.76358678998E+01 -0.43614113583E+02  0.61908582873E+02  0.51100000000E-03 0.  1.
         23    2    1    0    0    0  0.22553470484E+02 -0.73894142036E+01 -0.16221916906E+02  0.96252599053E+02  0.91859402149E+02 0.  0.
         11    1    3    3    0    0 -0.20715170018E+02  0.24645369617E+00  0.27392196677E+02  0.34344016180E+02  0.51100000000E-03 0. -1.
         22    1    1    0    0    0 -0.22553470484E+02  0.73894142036E+01  0.16221916906E+02  0.28747400947E+02  0.00000000000E+00 0.  1.
</event>
<event>
 5    1  0.3183383E-003  0.9118800E+02  0.7818608E-02  0.1130116E+00
         25   -1    0    0    0    0  0.00000000000E+00  0.00000000000E+00  0.99999998245E-14  0.12500000000E+03  0.12500000000E+03 0.  0.
        -11    1    3    3    0    0  0.54574930316E+02  0.10916455414E+02 -0.11155909340E+02  0.56763071898E+02  0.51100000000E-03 0.  1.
         23    2    1    0    0    0  0.25624816891E+02 -0.13455500304E+02 -0.59914412614E+00  0.96051067329E+02  0.91584752182E+02 0.  0.
         11    1    3    3    0    0 -0.28950113426E+02 -0.24371955719E+02  0.10556765214E+02  0.39287995431E+02  0.51100000000E-03 0. -1.
         22    1    1    0    0    0 -0.25624816891E+02  0.13455500304E+02  0.59914412614E+00  0.28948932671E+02  0.00000000000E+00 0.  1.
</event>
<event>
 5    1  0.3183383E-003  0.9118800E+02  0.7818608E-02  0.1130116E+00
         25   -1    0    0    0    0  0.00000000000E+00  0.00000000000E+00  0.99999998245E-14  0.12500000000E+03  0.12500000000E+03 0.  0.
        -11    1    3    3    0    0 -0.35402811264E+02  0.62199331322E+01  0.34390473091E+01  0.36109190800E+02  0.51100000000E-03 0.  1.
         23    2    1    0    0    0  0.15388592330E+02 -0.28379579278E+00 -0.25713351073E+02  0.95032255051E+02  0.90183500501E+02 0.  0.
         11    1    3    3    0    0  0.50791403594E+02 -0.65037289250E+01 -0.29152398382E+02  0.58923064251E+02  0.51100000000E-03 0. -1.
         22    1    1    0    0    0 -0.15388592330E+02  0.28379579278E+00  0.25713351073E+02  0.29967744949E+02  0.00000000000E+00 0. -1.
</event>
