<event>
 5    1  0.8902899E-005  0.9118800E+02  0.7818608E-02  0.1130116E+00
         25   -1    0    0    0    0  0.00000000000E+00  0.00000000000E+00  0.99999998245E-14  0.12500000000E+03  0.12500000000E+03 0.  0.
        -11    1    3    3    0    0 -0.11560193960E+02  0.36723205200E+02 -0.11392887902E+02  0.40150090655E+02  0.51100000000E-03 0.  1.
         23    2    1    0    0    0 -0.59340559448E+01 -0.19360674458E+02 -0.19250154113E+02  0.97060473003E+02  0.92952236395E+02 0.  0.
         11    1    3    3    0    0  0.56261380153E+01 -0.56083879658E+02 -0.78572662108E+01  0.56910382349E+02  0.51100000000E-03 0. -1.
         22    1    1    0    0    0  0.59340559448E+01  0.19360674458E+02  0.19250154113E+02  0.27939526997E+02  0.00000000000E+00 0. -1.
</event>
<event>
 5    1  0.8902899E-005  0.9118800E+02  0.7818608E-02  0.1130116E+00
         25   -1    0    0    0    0  0.00000000000E+00  0.00000000000E+00  0.99999998245E-14  0.12500000000E+03  0.12500000000E+03 0.  0.
        -11    1    3    3    0    0 -0.26085763887E+02  0.69439156585E+00  0.20060526439E+02  0.32914646868E+02  0.51100000000E-03 0. -1.
         23    2    1    0    0    0  0.26082734622E+02 -0.92345099508E+01 -0.11883462579E+02  0.94886848351E+02  0.89981731967E+02 0.  0.
         11    1    3    3    0    0  0.52168498508E+02 -0.99289015166E+01 -0.31943989018E+02  0.61972201482E+02  0.51100000000E-03 0.  1.
         22    1    1    0    0    0 -0.26082734622E+02  0.92345099508E+01  0.11883462579E+02  0.30113151649E+02  0.00000000000E+00 0.  1.
</event>
<event>
 5    1  0.8902899E-005  0.9118800E+02  0.7818608E-02  0.1130116E+00
         25   -1    0    0    0    0  0.00000000000E+00  0.00000000000E+00  0.99999998245E-14  0.12500000000E+03  0.12500000000E+03 0.  0.
        -11    1    3    3    0    0 -0.27160937859E+01 -0.28536557021E+02  0.44451904239E+02  0.52893137956E+02  0.51100000000E-03 0.  1.
         23    2    1    0    0    0  0.22580581344E+02 -0.11553114025E+02  0.13747794630E+02  0.96149368210E+02  0.91718820601E+02 0.  0.
         11    1    3    3    0    0  0.25296675130E+02  0.16983442996E+02 -0.30704109609E+02  0.43256230254E+02  0.51100000000E-03 0. -1.
         22    1    1    0    0    0 -0.22580581344E+02  0.11553114025E+02 -0.13747794630E+02  0.28850631790E+02  0.00000000000E+00 0.  1.
</event>
<event>
 5    1  0.8902899E-005  0.9118800E+02  0.7818608E-02  0.1130116E+00
         25   -1    0    0    0    0  0.00000000000E+00  0.00000000000E+00  0.99999998245E-14  0.12500000000E+03  0.12500000000E+03 0.  0.
        -11    1    3    3    0    0 -0.40482891119E+01  0.46227055287E+02  0.65995607997E+01  0.46870923698E+02  0.51100000000E-03 0. -1.
         23    2    1    0    0    0 -0.91280457814E+01  0.13994599319E+02 -0.26706563709E+02  0.93497451293E+02  0.88030465313E+02 0.  0.
         11    1    3    3    0    0 -0.50797566695E+01 -0.32232455968E+02 -0.33306124509E+02  0.46626527595E+02  0.51100000000E-03 0.  1.
         22    1    1    0    0    0  0.91280457814E+01 -0.13994599319E+02  0.26706563709E+02  0.31502548707E+02  0.00000000000E+00 0.  1.
</event>
<event>
 5    1  0.8902899E-005  0.9118800E+02  0.7818608E-02  0.1130116E+00
         25   -1    0    0    0    0  0.00000000000E+00  0.00000000000E+00  0.99999998245E-14  0.12500000000E+03  0.12500000000E+03 0.  0.
        -11    1    3    3    0    0 -0.38168891621E+02 -0.86186042649E+01  0.39424715990E+02  0.55546852819E+02  0.51100000000E-03 0.  1.
         23    2    1    0    0    0 -0.33607703518E+02 -0.23525839328E+02  0.24029356675E+02  0.77456831889E+02  0.61149063543E+02 0.  0.
         11    1    3    3    0    0  0.45611881029E+01 -0.14907235063E+02 -0.15395359314E+02  0.21909979069E+02  0.51100000000E-03 0. -1.
         22    1    1    0    0    0  0.33607703518E+02  0.23525839328E+02 -0.24029356675E+02  0.47543168111E+02  0.00000000000E+00 0.  1.
</event>
<event>
 5    1  0.8902899E-005  0.9118800E+02  0.7818608E-02  0.1130116E+00
         25   -1    0    0    0    0  0.00000000000E+00  0.00000000000E+00  0.99999998245E-14  0.12500000000E+03  0.12500000000E+03 0.  0.
        -11    1    3    3    0    0 -0.24241372615E+02 -0.49479790661E+02 -0.65675380710E+01  0.55488975361E+02  0.51100000000E-03 0.  1.
         23    2    1    0    0    0 -0.18046159403E+02 -0.17674305232E+02  0.16110861016E+02  0.95039946974E+02  0.90194161360E+02 0.  0.
         11    1    3    3    0    0  0.61952132120E+01  0.31805485428E+02  0.22678399087E+02  0.39550971613E+02  0.51100000000E-03 0. -1.
         22    1    1    0    0    0  0.18046159403E+02  0.17674305232E+02 -0.16110861016E+02  0.29960053026E+02  0.00000000000E+00 0.  1.
</event>
<event>
 5    1  0.8902899E-005  0.9118800E+02  0.7818608E-02  0.1130116E+00
         25   -1    0    0    0    0  0.00000000000E+00  0.00000000000E+00  0.99999998245E-14  0.12500000000E+03  0.12500000000E+03 0.  0.
        -11    1    3    3    0    0 -0.60836094719E+00 -0.32503300524E+02  0.25618323132E+02  0.41390012423E+02  0.51100000000E-03 0.  1.
         23    2    1    0    0    0 -0.18655390554E+02 -0.48601067202E+01 -0.19686188388E+02  0.97446592819E+02  0.93470039075E+02 0.  0.
         11    1    3    3    0    0 -0.18047029607E+02  0.27643193804E+02 -0.45304511520E+02  0.56056580396E+02  0.51100000000E-03 0. -1.
         22    1    1    0    0    0  0.18655390554E+02  0.48601067202E+01  0.19686188388E+02  0.27553407181E+02  0.00000000000E+00 0. -1.
</event>
<event>
 5    1  0.8902899E-005  0.9118800E+02  0.7818608E-02  0.1130116E+00
         25   -1    0    0    0    0  0.00000000000E+00  0.00000000000E+00  0.99999998245E-14  0.12500000000E+03  0.12500000000E+03 0.  0.
        -11    1    3    3    0    0 -0.37540935310E+02 -0.25716544347E+02 -0.26095907913E+01  0.45579298387E+02  0.51100000000E-03 0. -1.
         23    2    1    0    0    0  0.92018255891E+01 -0.19568925925E+02  0.17837843564E+02  0.96967784264E+02  0.92827507055E+02 0.  0.
         11    1    3    3    0    0  0.46742760899E+02  0.61476184221E+01  0.20447434355E+02  0.51388485877E+02  0.51100000000E-03 0.  1.
         22    1    1    0    0    0 -0.92018255891E+01  0.19568925925E+02 -0.17837843564E+02  0.28032215736E+02  0.00000000000E+00 0.  1.
</event>
<event>
 5    1  0.8902899E-005  0.9118800E+02  0.7818608E-02  0.1130116E+00
         25   -1    0    0    0    0  0.00000000000E+00  0.00000000000E+00  0.99999998245E-14  0.12500000000E+03  0.12500000000E+03 0.  0.
        -11    1    3    3    0    0 -0.99719527217E+01 -0.29440007071E+02  0.34670920086E+02  0.46564219711E+02  0.51100000000E-03 0. -1.
         23    2    1    0    0    0  0.18656072331E+01 -0.24017178669E+02 -0.14129938996E+02  0.97072226412E+02  0.92968040761E+02 0.  0.
         11    1    3    3    0    0  0.11837559955E+02  0.54228284016E+01 -0.48800859082E+02  0.50508006701E+02  0.51100000000E-03 0.  1.
         22    1    1    0    0    0 -0.18656072331E+01  0.24017178669E+02  0.14129938996E+02  0.27927773588E+02  0.00000000000E+00 0.  1.
</event>
<event>
 5    1  0.8902899E-005  0.9118800E+02  0.7818608E-02  0.1130116E+00
         25   -1    0    0    0    0  0.00000000000E+00  0.00000000000E+00  0.99999998245E-14  0.12500000000E+03  0.12500000000E+03 0.  0.
        -11    1    3    3    0    0 -0.75491511413E+00 -0.40186182561E+02  0.39928262097E+02  0.56654790442E+02  0.51100000000E-03 0.  1.
         23    2    1    0    0    0 -0.50437931530E+01 -0.13873823209E+01  0.26581576291E+02  0.97908582960E+02  0.94085842400E+02 0.  0.
         11    1    3    3    0    0 -0.42888780388E+01  0.38798800240E+02 -0.13346685806E+02  0.41253792519E+02  0.51100000000E-03 0. -1.
         22    1    1    0    0    0  0.50437931530E+01  0.13873823209E+01 -0.26581576291E+02  0.27091417040E+02  0.00000000000E+00 0.  1.
</event>
<event>
 5    1  0.8902899E-005  0.9118800E+02  0.7818608E-02  0.1130116E+00
         25   -1    0    0    0    0  0.00000000000E+00  0.00000000000E+00  0.99999998245E-14  0.12500000000E+03  0.12500000000E+03 0.  0.
        -11    1    3    3    0    0 -0.53082490337E+02  0.42520038290E+01 -0.21269954829E+02  0.57343188747E+02  0.51100000000E-03 0.  1.
         23    2    1    0    0    0 -0.20118895201E+02  0.81964382885E+01  0.82436830872E+01  0.10176403960E+03  0.99075778577E+02 0.  0.
         11    1    3    3    0    0  0.32963595136E+02  0.39444344594E+01  0.29513637916E+02  0.44420850856E+02  0.51100000000E-03 0. -1.
         22    1    1    0    0    0  0.20118895201E+02 -0.81964382885E+01 -0.82436830872E+01  0.23235960397E+02  0.00000000000E+00 0.  1.
</event>
<event>
 5    1  0.8902899E-005  0.9118800E+02  0.7818608E-02  0.1130116E+00
         25   -1    0    0    0    0  0.00000000000E+00  0.00000000000E+00  0.99999998245E-14  0.12500000000E+03  0.12500000000E+03 0.  0.
        -11    1    3    3    0    0  0.76097896863E+01 -0.30054348883E+02  0.22829475532E+02  0.38501399185E+02  0.51100000000E-03 0.  1.
         23    2    1    0    0    0  0.12743131084E+02  0.25027952824E+02  0.66842674120E+01  0.96130201885E+02  0.91692695845E+02 0.  0.
         11    1    3    3    0    0  0.51333413976E+01  0.55082301707E+02 -0.16145208120E+02  0.57628802700E+02  0.51100000000E-03 0. -1.
         22    1    1    0    0    0 -0.12743131084E+02 -0.25027952824E+02 -0.66842674120E+01  0.28869798115E+02  0.00000000000E+00 0. -1.
</event>
<event>
 5    1  0.8902899E-005  0.9118800E+02  0.7818608E-02  0.1130116E+00
         25   -1    0    0    0    0  0.00000000000E+00  0.00000000000E+00  0.99999998245E-14  0.12500000000E+03  0.12500000000E+03 0.  0.
        -11    1    3    3    0    0 -0.17876436971E+02  0.19555109458E+02  0.27784265317E+02  0.38391857264E+02  0.51100000000E-03 0.  1.
         23    2    1    0    0    0 -0.14779816630E+02 -0.24144253625E+02 -0.86796622569E+01  0.95390466069E+02  0.90678644219E+02 0.  0.
         11    1    3    3    0    0  0.30966203418E+01 -0.43699363082E+02 -0.36463927574E+02  0.56998608805E+02  0.51100000000E-03 0. -1.
         22    1    1    0    0    0  0.14779816630E+02  0.24144253625E+02  0.86796622569E+01  0.29609533931E+02  0.00000000000E+00 0. -1.
</event>
<event>
 5    1  0.8902899E-005  0.9118800E+02  0.7818608E-02  0.1130116E+00
         25   -1    0    0    0    0  0.00000000000E+00  0.00000000000E+00  0.99999998245E-14  0.12500000000E+03  0.12500000000E+03 0.  0.
        -11    1    3    3    0    0  0.98517279829E+01 -0.29141395203E+01 -0.27875733548E+02  0.29708673388E+02  0.51100000000E-03 0.  1.
         23    2    1    0    0    0 -0.87865814770E+01  0.23467549840E+02  0.23663887893E+02  0.90533936985E+02  0.83716690368E+02 0.  0.
         11    1    3    3    0    0 -0.18638309460E+02  0.26381689361E+02  0.51539621441E+02  0.60825263597E+02  0.51100000000E-03 0. -1.
         22    1    1    0    0    0  0.87865814770E+01 -0.23467549840E+02 -0.23663887893E+02  0.34466063015E+02  0.00000000000E+00 0. -1.
</event>
<event>
 5    1  0.8902899E-005  0.9118800E+02  0.7818608E-02  0.1130116E+00
         25   -1    0    0    0    0  0.00000000000E+00  0.00000000000E+00  0.99999998245E-14  0.12500000000E+03  0.12500000000E+03 0.  0.
        -11    1    3    3    0    0  0.33757694713E+02 -0.14591482682E+02 -0.20121655782E+02  0.41921049019E+02  0.51100000000E-03 0. -1.
         23    2    1    0    0    0  0.14803097122E+02  0.89673524057E+01  0.24000534105E+02  0.95409955544E+02  0.90705506371E+02 0.  0.
         11    1    3    3    0    0 -0.18954597591E+02  0.23558835088E+02  0.44122189887E+02  0.53488906525E+02  0.51100000000E-03 0.  1.
         22    1    1    0    0    0 -0.14803097122E+02 -0.89673524057E+01 -0.24000534105E+02  0.29590044456E+02  0.00000000000E+00 0.  1.
</event>
<event>
 5    1  0.8902899E-005  0.9118800E+02  0.7818608E-02  0.1130116E+00
         25   -1    0    0    0    0  0.00000000000E+00  0.00000000000E+00  0.99999998245E-14  0.12500000000E+03  0.12500000000E+03 0.  0.
        -11    1    3    3    0    0  0.24422755414E+02 -0.11086067211E+02  0.33032364854E+02  0.42550076338E+02  0.51100000000E-03 0.  1.
         23    2    1    0    0    0 -0.10071306485E+02  0.21862105233E+02 -0.61054901868E+00  0.10092188484E+03  0.98007505887E+02 0.  0.
         11    1    3    3    0    0 -0.34494061899E+02  0.32948172444E+02 -0.33642913873E+02  0.58371808503E+02  0.51100000000E-03 0. -1.
         22    1    1    0    0    0  0.10071306485E+02 -0.21862105233E+02  0.61054901868E+00  0.24078115159E+02  0.00000000000E+00 0. -1.
</event>
<event>
 5    1  0.8902899E-005  0.9118800E+02  0.7818608E-02  0.1130116E+00
         25   -1    0    0    0    0  0.00000000000E+00  0.00000000000E+00  0.99999998245E-14  0.12500000000E+03  0.12500000000E+03 0.  0.
        -11    1    3    3    0    0  0.50640203291E+02  0.90097298394E+00 -0.10144449821E+02  0.51654155729E+02  0.51100000000E-03 0.  1.
         23    2    1    0    0    0  0.17405059013E+02 -0.55646785339E+01  0.20652967349E+02  0.97423800357E+02  0.93439553131E+02 0.  0.
         11    1    3    3    0    0 -0.33235144278E+02 -0.64656515178E+01  0.30797417170E+02  0.45769644628E+02  0.51100000000E-03 0. -1.
         22    1    1    0    0    0 -0.17405059013E+02  0.55646785339E+01 -0.20652967349E+02  0.27576199643E+02  0.00000000000E+00 0. -1.
</event>
<event>
 5    1  0.8902899E-005  0.9118800E+02  0.7818608E-02  0.1130116E+00
         25   -1    0    0    0    0  0.00000000000E+00  0.00000000000E+00  0.99999998245E-14  0.12500000000E+03  0.12500000000E+03 0.  0.
        -11    1    3    3    0    0  0.17300734624E+02 -0.16249005577E+02  0.28509894305E+02  0.37096626185E+02  0.51100000000E-03 0. -1.
         23    2    1    0    0    0 -0.26682379597E+02 -0.35507730448E+01 -0.93516814969E+01  0.96504187729E+02  0.92201122185E+02 0.  0.
         11    1    3    3    0    0 -0.43983114221E+02  0.12698232532E+02 -0.37861575802E+02  0.59407561543E+02  0.51100000000E-03 0.  1.
         22    1    1    0    0    0  0.26682379597E+02  0.35507730448E+01  0.93516814969E+01  0.28495812271E+02  0.00000000000E+00 0.  1.
</event>
<event>
 5    1  0.8902899E-005  0.9118800E+02  0.7818608E-02  0.1130116E+00
         25   -1    0    0    0    0  0.00000000000E+00  0.00000000000E+00  0.99999998245E-14  0.12500000000E+03  0.12500000000E+03 0.  0.
        -11    1    3    3    0    0 -0.84557232938E+01 -0.19207058762E+02 -0.21014328886E+02  0.29698693262E+02  0.51100000000E-03 0. -1.
         23    2    1    0    0    0 -0.18229200448E+02  0.12634249007E+02  0.28198924331E+02  0.89123721899E+02  0.81583886123E+02 0.  0.
         11    1    3    3    0    0 -0.97734771538E+01  0.31841307769E+02  0.49213253216E+02  0.59425028637E+02  0.51100000000E-03 0.  1.
         22    1    1    0    0    0  0.18229200448E+02 -0.12634249007E+02 -0.28198924331E+02  0.35876278101E+02  0.00000000000E+00 0.  1.
</event>
<event>
 5    1  0.8902899E-005  0.9118800E+02  0.7818608E-02  0.1130116E+00
         25   -1    0    0    0    0  0.00000000000E+00  0.00000000000E+00  0.99999998245E-14  0.12500000000E+03  0.12500000000E+03 0.  0.
        -11    1    3    3    0    0  0.47472421744E+02 -0.12098042448E+02  0.99648339561E+01  0.49992913232E+02  0.51100000000E-03 0.  1.
         23    2    1    0    0    0  0.36559815245E+01 -0.26764040081E+02  0.99918035315E+01  0.96198677458E+02  0.91785997649E+02 0.  0.
         11    1    3    3    0    0 -0.43816440220E+02 -0.14665997633E+02  0.26969575340E-01  0.46205764226E+02  0.51100000000E-03 0. -1.
         22    1    1    0    0    0 -0.36559815245E+01  0.26764040081E+02 -0.99918035315E+01  0.28801322542E+02  0.00000000000E+00 0.  1.
</event>
<event>
 5    1  0.8902899E-005  0.9118800E+02  0.7818608E-02  0.1130116E+00
         25   -1    0    0    0    0  0.00000000000E+00  0.00000000000E+00  0.99999998245E-14  0.12500000000E+03  0.12500000000E+03 0.  0.
        -11    1    3    3    0    0 -0.19947401535E+01 -0.86896666742E+01  0.49141003336E+02  0.49943242829E+02  0.51100000000E-03 0.  1.
         23    2    1    0    0    0  0.11556849090E+02  0.21064740116E+02  0.21565508128E+02  0.92714474174E+02  0.86911555868E+02 0.  0.
         11    1    3    3    0    0  0.13551589244E+02  0.29754406790E+02 -0.27575495208E+02  0.42771231344E+02  0.51100000000E-03 0. -1.
         22    1    1    0    0    0 -0.11556849090E+02 -0.21064740116E+02 -0.21565508128E+02  0.32285525826E+02  0.00000000000E+00 0.  1.
</event>
<event>
 5    1  0.8902899E-005  0.9118800E+02  0.7818608E-02  0.1130116E+00
         25   -1    0    0    0    0  0.00000000000E+00  0.00000000000E+00  0.99999998245E-14  0.12500000000E+03  0.12500000000E+03 0.  0.
        -11    1    3    3    0    0  0.59094158168E+02 -0.14829731680E+02 -0.10630514208E+02  0.61846974896E+02  0.51100000000E-03 0. -1.
         23    2    1    0    0    0  0.22535655527E+02 -0.88012500909E+01 -0.97678233849E+01  0.98909232536E+02  0.95406017284E+02 0.  0.
         11    1    3    3    0    0 -0.36558502641E+02  0.60284815887E+01  0.86269082308E+00  0.37062257639E+02  0.51100000000E-03 0.  1.
         22    1    1    0    0    0 -0.22535655527E+02  0.88012500909E+01  0.97678233849E+01  0.26090767464E+02  0.00000000000E+00 0. -1.
</event>
<event>
 5    1  0.8902899E-005  0.9118800E+02  0.7818608E-02  0.1130116E+00
         25   -1    0    0    0    0  0.00000000000E+00  0.00000000000E+00  0.99999998245E-14  0.12500000000E+03  0.12500000000E+03 0.  0.
        -11    1    3    3    0    0 -0.95781852319E+01  0.24412937575E+02 -0.42113983532E+02  0.49611699855E+02  0.51100000000E-03 0.  1.
         23    2    1    0    0    0  0.12964456165E+02  0.24807541288E+02 -0.42611416501E+00  0.97005843437E+02  0.92878742774E+02 0.  0.
         11    1    3    3    0    0  0.22542641397E+02  0.39460371297E+00  0.41687869367E+02  0.47394143582E+02  0.51100000000E-03 0. -1.
         22    1    1    0    0    0 -0.12964456165E+02 -0.24807541288E+02  0.42611416501E+00  0.27994156563E+02  0.00000000000E+00 0. -1.
</event>
<event>
 5    1  0.8902899E-005  0.9118800E+02  0.7818608E-02  0.1130116E+00
         25   -1    0    0    0    0  0.00000000000E+00  0.00000000000E+00  0.99999998245E-14  0.12500000000E+03  0.12500000000E+03 0.  0.
        -11    1    3    3    0    0 -0.48487446169E+02  0.11056663113E+02 -0.13790304359E+02  0.51608669134E+02  0.51100000000E-03 0. -1.
         23    2    1    0    0    0 -0.60326525322E+01  0.20260626116E+02 -0.20485878694E+02  0.95562658186E+02  0.90915700220E+02 0.  0.
         11    1    3    3    0    0  0.42454793637E+02  0.92039630036E+01 -0.66955743350E+01  0.43953989053E+02  0.51100000000E-03 0.  1.
         22    1    1    0    0    0  0.60326525322E+01 -0.20260626116E+02  0.20485878694E+02  0.29437341814E+02  0.00000000000E+00 0. -1.
</event>
<event>
 5    1  0.8902899E-005  0.9118800E+02  0.7818608E-02  0.1130116E+00
         25   -1    0    0    0    0  0.00000000000E+00  0.00000000000E+00  0.99999998245E-14  0.12500000000E+03  0.12500000000E+03 0.  0.
        -11    1    3    3    0    0 -0.12295582211E+02 -0.26559598591E+02  0.20961841664E+02  0.35999894797E+02  0.51100000000E-03 0. -1.
         23    2    1    0    0    0  0.16406886248E+02  0.21951647573E+02 -0.33589823133E+01  0.97389431196E+02  0.93393564012E+02 0.  0.
         11    1    3    3    0    0  0.28702468459E+02  0.48511246164E+02 -0.24320823977E+02  0.61389536398E+02  0.51100000000E-03 0.  1.
         22    1    1    0    0    0 -0.16406886248E+02 -0.21951647573E+02  0.33589823133E+01  0.27610568804E+02  0.00000000000E+00 0.  1.
</event>
<event>
 5    1  0.8902899E-005  0.9118800E+02  0.7818608E-02  0.1130116E+00
         25   -1    0    0    0    0  0.00000000000E+00  0.00000000000E+00  0.99999998245E-14  0.12500000000E+03  0.12500000000E+03 0.  0.
        -11    1    3    3    0    0 -0.28260023119E+02 -0.70208198926E+01  0.10805836428E+02  0.31059409521E+02  0.51100000000E-03 0.  1.
         23    2    1    0    0    0  0.31009562258E+02 -0.24171441708E+00 -0.67870466642E+01  0.93255466932E+02  0.87686183251E+02 0.  0.
         11    1    3    3    0    0  0.59269585376E+02  0.67791054755E+01 -0.17592883092E+02  0.62196057411E+02  0.51100000000E-03 0. -1.
         22    1    1    0    0    0 -0.31009562258E+02  0.24171441708E+00  0.67870466642E+01  0.31744533068E+02  0.00000000000E+00 0. -1.
</event>
<event>
 5    1  0.8902899E-005  0.9118800E+02  0.7818608E-02  0.1130116E+00
         25   -1    0    0    0    0  0.00000000000E+00  0.00000000000E+00  0.99999998245E-14  0.12500000000E+03  0.12500000000E+03 0.  0.
        -11    1    3    3    0    0  0.34787628550E+02  0.10881541859E+00 -0.32729696639E+02  0.47764254242E+02  0.51100000000E-03 0. -1.
         23    2    1    0    0    0  0.94997094595E+01 -0.25807204822E+02  0.13197775576E+01  0.97468234468E+02  0.93498976556E+02 0.  0.
         11    1    3    3    0    0 -0.25287919090E+02 -0.25916020240E+02  0.34049474196E+02  0.49703980226E+02  0.51100000000E-03 0.  1.
         22    1    1    0    0    0 -0.94997094595E+01  0.25807204822E+02 -0.13197775576E+01  0.27531765532E+02  0.00000000000E+00 0.  1.
</event>
<event>
 5    1  0.8902899E-005  0.9118800E+02  0.7818608E-02  0.1130116E+00
         25   -1    0    0    0    0  0.00000000000E+00  0.00000000000E+00  0.99999998245E-14  0.12500000000E+03  0.12500000000E+03 0.  0.
        -11    1    3    3    0    0  0.19813648407E+02  0.33406461745E+02  0.32081460076E+02  0.50376506731E+02  0.51100000000E-03 0. -1.
         23    2    1    0    0    0 -0.11059393640E+02  0.25515431994E+02 -0.21052071538E+01  0.97111304177E+02  0.93020567856E+02 0.  0.
         11    1    3    3    0    0 -0.30873042047E+02 -0.78910297511E+01 -0.34186667230E+02  0.46734797446E+02  0.51100000000E-03 0.  1.
         22    1    1    0    0    0  0.11059393640E+02 -0.25515431994E+02  0.21052071538E+01  0.27888695823E+02  0.00000000000E+00 0. -1.
</event>
<event>
 5    1  0.8902899E-005  0.9118800E+02  0.7818608E-02  0.1130116E+00
         25   -1    0    0    0    0  0.00000000000E+00  0.00000000000E+00  0.99999998245E-14  0.12500000000E+03  0.12500000000E+03 0.  0.
        -11    1    3    3    0    0  0.19600105071E+02  0.16102141006E+02 -0.20717437026E+02  0.32751416167E+02  0.51100000000E-03 0.  1.
         23    2    1    0    0    0 -0.24273533635E+01  0.99213436093E+01  0.32635944898E+02  0.90803070273E+02  0.84117581802E+02 0.  0.
         11    1    3    3    0    0 -0.22027458435E+02 -0.61807973965E+01  0.53353381923E+02  0.58051654106E+02  0.51100000000E-03 0. -1.
         22    1    1    0    0    0  0.24273533635E+01 -0.99213436093E+01 -0.32635944898E+02  0.34196929727E+02  0.00000000000E+00 0. -1.
</event>
<event>
 5    1  0.8902899E-005  0.9118800E+02  0.7818608E-02  0.1130116E+00
         25   -1    0    0    0    0  0.00000000000E+00  0.00000000000E+00  0.99999998245E-14  0.12500000000E+03  0.12500000000E+03 0.  0.
        -11    1    3    3    0    0 -0.16225169196E+02 -0.34713700943E+02  0.12466033524E+02  0.40295150337E+02  0.51100000000E-03 0. -1.
         23    2    1    0    0    0  0.19894872893E+02  0.50516748821E+01  0.22061533981E+02  0.94866353222E+02  0.89953256225E+02 0.  0.
         11    1    3    3    0    0  0.36120042089E+02  0.39765375825E+02  0.95955004572E+01  0.54571202885E+02  0.51100000000E-03 0.  1.
         22    1    1    0    0    0 -0.19894872893E+02 -0.50516748821E+01 -0.22061533981E+02  0.30133646778E+02  0.00000000000E+00 0.  1.
</event>
<event>
 5    1  0.8902899E-005  0.9118800E+02  0.7818608E-02  0.1130116E+00
         25   -1    0    0    0    0  0.00000000000E+00  0.00000000000E+00  0.99999998245E-14  0.12500000000E+03  0.12500000000E+03 0.  0.
        -11    1    3    3    0    0  0.71345510570E+01  0.25463680461E+02  0.26605485194E+02  0.37512033857E+02  0.51100000000E-03 0.  1.
         23    2    1    0    0    0 -0.19925366691E+02  0.43812948142E+02  0.52037242546E+01  0.76588499210E+02  0.59347491965E+02 0.  0.
         11    1    3    3    0    0 -0.27059917748E+02  0.18349267681E+02 -0.21401760939E+02  0.39076465353E+02  0.51100000000E-03 0. -1.
         22    1    1    0    0    0  0.19925366691E+02 -0.43812948142E+02 -0.52037242546E+01  0.48411500790E+02  0.00000000000E+00 0.  1.
</event>
<event>
 5    1  0.8902899E-005  0.9118800E+02  0.7818608E-02  0.1130116E+00
         25   -1    0    0    0    0  0.00000000000E+00  0.00000000000E+00  0.99999998245E-14  0.12500000000E+03  0.12500000000E+03 0.  0.
        -11    1    3    3    0    0 -0.28865294345E+02  0.39697624516E+02 -0.27232904610E+02  0.56131432403E+02  0.51100000000E-03 0.  1.
         23    2    1    0    0    0 -0.28635430129E+02  0.73858845048E+01 -0.59176916974E+01  0.94841117003E+02  0.89918180869E+02 0.  0.
         11    1    3    3    0    0  0.22986421594E+00 -0.32311740011E+02  0.21315212912E+02  0.38709684600E+02  0.51100000000E-03 0. -1.
         22    1    1    0    0    0  0.28635430129E+02 -0.73858845048E+01  0.59176916974E+01  0.30158882997E+02  0.00000000000E+00 0. -1.
</event>
<event>
 5    1  0.8902899E-005  0.9118800E+02  0.7818608E-02  0.1130116E+00
         25   -1    0    0    0    0  0.00000000000E+00  0.00000000000E+00  0.99999998245E-14  0.12500000000E+03  0.12500000000E+03 0.  0.
        -11    1    3    3    0    0 -0.39454241574E+02 -0.83811548599E+01  0.30999606533E+02  0.50870979354E+02  0.51100000000E-03 0. -1.
         23    2    1    0    0    0  0.45363957681E+01  0.92943508656E+01  0.24093918870E+02  0.98780145479E+02  0.95236738551E+02 0.  0.
         11    1    3    3    0    0  0.43990637342E+02  0.17675505725E+02 -0.69056876626E+01  0.47909166125E+02  0.51100000000E-03 0.  1.
         22    1    1    0    0    0 -0.45363957681E+01 -0.92943508656E+01 -0.24093918870E+02  0.26219854521E+02  0.00000000000E+00 0. -1.
</event>
<event>
 5    1  0.8902899E-005  0.9118800E+02  0.7818608E-02  0.1130116E+00
         25   -1    0    0    0    0  0.00000000000E+00  0.00000000000E+00  0.99999998245E-14  0.12500000000E+03  0.12500000000E+03 0.  0.
        -11    1    3    3    0    0  0.25725709996E+02 -0.13734789753E+02  0.25275421324E+02  0.38591495537E+02  0.51100000000E-03 0. -1.
         23    2    1    0    0    0  0.73659388879E+01  0.24012766626E+02 -0.14143452101E+02  0.96174538094E+02  0.91753117241E+02 0.  0.
         11    1    3    3    0    0 -0.18359771108E+02  0.37747556380E+02 -0.39418873425E+02  0.57583042557E+02  0.51100000000E-03 0.  1.
         22    1    1    0    0    0 -0.73659388879E+01 -0.24012766626E+02  0.14143452101E+02  0.28825461906E+02  0.00000000000E+00 0.  1.
</event>
<event>
 5    1  0.8902899E-005  0.9118800E+02  0.7818608E-02  0.1130116E+00
         25   -1    0    0    0    0  0.00000000000E+00  0.00000000000E+00  0.99999998245E-14  0.12500000000E+03  0.12500000000E+03 0.  0.
        -11    1    3    3    0    0  0.61708347395E+01 -0.60882888834E+02  0.80031252771E+01  0.61715924757E+02  0.51100000000E-03 0. -1.
         23    2    1    0    0    0  0.96665730780E+01 -0.26991140898E+02  0.47025935435E+01  0.95946967317E+02  0.91442560273E+02 0.  0.
         11    1    3    3    0    0  0.34957383385E+01  0.33891747937E+02 -0.33005317336E+01  0.34231042560E+02  0.51100000000E-03 0.  1.
         22    1    1    0    0    0 -0.96665730780E+01  0.26991140898E+02 -0.47025935435E+01  0.29053032683E+02  0.00000000000E+00 0. -1.
</event>
<event>
 5    1  0.8902899E-005  0.9118800E+02  0.7818608E-02  0.1130116E+00
         25   -1    0    0    0    0  0.00000000000E+00  0.00000000000E+00  0.99999998245E-14  0.12500000000E+03  0.12500000000E+03 0.  0.
        -11    1    3    3    0    0  0.38086358381E+02  0.39282176508E+02  0.15859888329E+02  0.56966623070E+02  0.51100000000E-03 0. -1.
         23    2    1    0    0    0  0.35277753292E+02  0.14783341149E+02  0.19784320663E+02  0.81936251940E+02  0.69706979457E+02 0.  0.
         11    1    3    3    0    0 -0.28086050886E+01 -0.24498835359E+02  0.39244323347E+01  0.24969628870E+02  0.51100000000E-03 0.  1.
         22    1    1    0    0    0 -0.35277753292E+02 -0.14783341149E+02 -0.19784320663E+02  0.43063748060E+02  0.00000000000E+00 0. -1.
</event>
<event>
 5    1  0.8902899E-005  0.9118800E+02  0.7818608E-02  0.1130116E+00
         25   -1    0    0    0    0  0.00000000000E+00  0.00000000000E+00  0.99999998245E-14  0.12500000000E+03  0.12500000000E+03 0.  0.
        -11    1    3    3    0    0  0.24964940251E+01  0.13991966604E+02  0.54420626799E+02  0.56245997487E+02  0.51100000000E-03 0.  1.
         23    2    1    0    0    0  0.18833068073E+02 -0.20282577889E+01  0.21376416925E+02  0.96438671542E+02  0.92112256978E+02 0.  0.
         11    1    3    3    0    0  0.16336574048E+02 -0.16020224393E+02 -0.33044209874E+02  0.40192674055E+02  0.51100000000E-03 0. -1.
         22    1    1    0    0    0 -0.18833068073E+02  0.20282577889E+01 -0.21376416925E+02  0.28561328458E+02  0.00000000000E+00 0.  1.
</event>
<event>
 5    1  0.8902899E-005  0.9118800E+02  0.7818608E-02  0.1130116E+00
         25   -1    0    0    0    0  0.00000000000E+00  0.00000000000E+00  0.99999998245E-14  0.12500000000E+03  0.12500000000E+03 0.  0.
        -11    1    3    3    0    0  0.12949155225E+02 -0.22895864149E+02 -0.26240274794E+02  0.37154451116E+02  0.51100000000E-03 0.  1.
         23    2    1    0    0    0  0.13446275568E+02  0.63712239293E+01  0.24850014096E+02  0.96035918424E+02  0.91564073773E+02 0.  0.
         11    1    3    3    0    0  0.49712034303E+00  0.29267088078E+02  0.51090288890E+02  0.58881467308E+02  0.51100000000E-03 0. -1.
         22    1    1    0    0    0 -0.13446275568E+02 -0.63712239293E+01 -0.24850014096E+02  0.28964081576E+02  0.00000000000E+00 0. -1.
</event>
<event>
 5    1  0.8902899E-005  0.9118800E+02  0.7818608E-02  0.1130116E+00
         25   -1    0    0    0    0  0.00000000000E+00  0.00000000000E+00  0.99999998245E-14  0.12500000000E+03  0.12500000000E+03 0.  0.
        -11    1    3    3    0    0  0.10414787929E+02 -0.38228619270E+02  0.15099421955E+02  0.42401505663E+02  0.51100000000E-03 0.  1.
         23    2    1    0    0    0  0.18608409205E+02 -0.69833422310E+00 -0.22254085193E+02  0.95982679800E+02  0.91491365439E+02 0.  0.
         11    1    3    3    0    0  0.81936212756E+01  0.37530285047E+02 -0.37353507148E+02  0.53581174136E+02  0.51100000000E-03 0. -1.
         22    1    1    0    0    0 -0.18608409205E+02  0.69833422310E+00  0.22254085193E+02  0.29017320200E+02  0.00000000000E+00 0. -1.
</event>
<event>
 5    1  0.8902899E-005  0.9118800E+02  0.7818608E-02  0.1130116E+00
         25   -1    0    0    0    0  0.00000000000E+00  0.00000000000E+00  0.99999998245E-14  0.12500000000E+03  0.12500000000E+03 0.  0.
        -11    1    3    3    0    0  0.16907653108E+02 -0.51788313566E+02  0.76514109089E+01  0.55013109754E+02  0.51100000000E-03 0. -1.
         23    2    1    0    0    0  0.84334006990E+01 -0.19980742356E+02 -0.18056601670E+02  0.96779561018E+02  0.92573701744E+02 0.  0.
         11    1    3    3    0    0 -0.84742524090E+01  0.31807571210E+02 -0.25708012579E+02  0.41766451264E+02  0.51100000000E-03 0.  1.
         22    1    1    0    0    0 -0.84334006990E+01  0.19980742356E+02  0.18056601670E+02  0.28220438982E+02  0.00000000000E+00 0. -1.
</event>
<event>
 5    1  0.8902899E-005  0.9118800E+02  0.7818608E-02  0.1130116E+00
         25   -1    0    0    0    0  0.00000000000E+00  0.00000000000E+00  0.99999998245E-14  0.12500000000E+03  0.12500000000E+03 0.  0.
        -11    1    3    3    0    0 -0.28653198051E+01  0.24285900204E+02  0.26699552955E+02  0.36206092506E+02  0.51100000000E-03 0. -1.
         23    2    1    0    0    0  0.16676294503E+02 -0.25600137941E+02  0.14627495193E+02  0.91126271588E+02  0.84596500501E+02 0.  0.
         11    1    3    3    0    0  0.19541614308E+02 -0.49886038145E+02 -0.12072057762E+02  0.54920179082E+02  0.51100000000E-03 0.  1.
         22    1    1    0    0    0 -0.16676294503E+02  0.25600137941E+02 -0.14627495193E+02  0.33873728412E+02  0.00000000000E+00 0.  1.
</event>
<event>
 5    1  0.8902899E-005  0.9118800E+02  0.7818608E-02  0.1130116E+00
         25   -1    0    0    0    0  0.00000000000E+00  0.00000000000E+00  0.99999998245E-14  0.12500000000E+03  0.12500000000E+03 0.  0.
        -11    1    3    3    0    0  0.12266136118E+02 -0.29456172871E+02  0.10551120085E+02  0.33607296095E+02  0.51100000000E-03 0. -1.
         23    2    1    0    0    0 -0.71154620709E+01  0.14262061989E+02 -0.26481786618E+02  0.94091728694E+02  0.88870310979E+02 0.  0.
         11    1    3    3    0    0 -0.19381598189E+02  0.43718234860E+02 -0.37032906704E+02  0.60484432599E+02  0.51100000000E-03 0.  1.
         22    1    1    0    0    0  0.71154620709E+01 -0.14262061989E+02  0.26481786618E+02  0.30908271306E+02  0.00000000000E+00 0.  1.
</event>
<event>
 5    1  0.8902899E-005  0.9118800E+02  0.7818608E-02  0.1130116E+00
         25   -1    0    0    0    0  0.00000000000E+00  0.00000000000E+00  0.99999998245E-14  0.12500000000E+03  0.12500000000E+03 0.  0.
        -11    1    3    3    0    0  0.26463104620E+02 -0.73937444051E+00  0.22246834556E+02  0.34579824012E+02  0.51100000000E-03 0.  1.
         23    2    1    0    0    0 -0.99729865985E+01 -0.57480884053E+01 -0.26769743455E+02  0.95860333793E+02  0.91324057336E+02 0.  0.
         11    1    3    3    0    0 -0.36436091219E+02 -0.50087139647E+01 -0.49016578011E+02  0.61280509781E+02  0.51100000000E-03 0. -1.
         22    1    1    0    0    0  0.99729865985E+01  0.57480884053E+01  0.26769743455E+02  0.29139666207E+02  0.00000000000E+00 0. -1.
</event>
<event>
 5    1  0.8902899E-005  0.9118800E+02  0.7818608E-02  0.1130116E+00
         25   -1    0    0    0    0  0.00000000000E+00  0.00000000000E+00  0.99999998245E-14  0.12500000000E+03  0.12500000000E+03 0.  0.
        -11    1    3    3    0    0  0.33465767273E+02  0.21553610631E+02 -0.32705303472E+02  0.51518468396E+02  0.51100000000E-03 0. -1.
         23    2    1    0    0    0  0.39437299431E+01 -0.13406356042E+02 -0.22678564410E+02  0.98361669123E+02  0.94685887443E+02 0.  0.
         11    1    3    3    0    0 -0.29522037330E+02 -0.34959966673E+02  0.10026739062E+02  0.46843200728E+02  0.51100000000E-03 0.  1.
         22    1    1    0    0    0 -0.39437299431E+01  0.13406356042E+02  0.22678564410E+02  0.26638330877E+02  0.00000000000E+00 0.  1.
</event>
<event>
 5    1  0.8902899E-005  0.9118800E+02  0.7818608E-02  0.1130116E+00
         25   -1    0    0    0    0  0.00000000000E+00  0.00000000000E+00  0.99999998245E-14  0.12500000000E+03  0.12500000000E+03 0.  0.
        -11    1    3    3    0    0  0.39838764722E+01 -0.48861376711E+02 -0.12674492087E+02  0.50635443671E+02  0.51100000000E-03 0. -1.
         23    2    1    0    0    0  0.23665231185E+02 -0.86878803745E+01 -0.15408418543E+02  0.95454411591E+02  0.90766749956E+02 0.  0.
         11    1    3    3    0    0  0.19681354713E+02  0.40173496337E+02 -0.27339264561E+01  0.44818967919E+02  0.51100000000E-03 0.  1.
         22    1    1    0    0    0 -0.23665231185E+02  0.86878803745E+01  0.15408418543E+02  0.29545588409E+02  0.00000000000E+00 0. -1.
</event>
<event>
 5    1  0.8902899E-005  0.9118800E+02  0.7818608E-02  0.1130116E+00
         25   -1    0    0    0    0  0.00000000000E+00  0.00000000000E+00  0.99999998245E-14  0.12500000000E+03  0.12500000000E+03 0.  0.
        -11    1    3    3    0    0  0.17449442144E+02  0.44876192690E+02  0.24647943737E+02  0.54091374841E+02  0.51100000000E-03 0. -1.
         23    2    1    0    0    0  0.24461836741E+02  0.38788633485E+01  0.70942625496E+01  0.99236545287E+02  0.95833899648E+02 0.  0.
         11    1    3    3    0    0  0.70123945972E+01 -0.40997329341E+02 -0.17553681188E+02  0.45145170446E+02  0.51100000000E-03 0.  1.
         22    1    1    0    0    0 -0.24461836741E+02 -0.38788633485E+01 -0.70942625496E+01  0.25763454713E+02  0.00000000000E+00 0.  1.
</event>
<event>
 5    1  0.8902899E-005  0.9118800E+02  0.7818608E-02  0.1130116E+00
         25   -1    0    0    0    0  0.00000000000E+00  0.00000000000E+00  0.99999998245E-14  0.12500000000E+03  0.12500000000E+03 0.  0.
        -11    1    3    3    0    0  0.25067057348E+02  0.74304461931E+01  0.38611167895E+02  0.46630367586E+02  0.51100000000E-03 0.  1.
         23    2    1    0    0    0  0.25415237386E+02  0.10377940064E+02 -0.10335121718E+02  0.95666560511E+02  0.91058443473E+02 0.  0.
         11    1    3    3    0    0  0.34818003796E+00  0.29474938709E+01 -0.48946289613E+02  0.49036192925E+02  0.51100000000E-03 0. -1.
         22    1    1    0    0    0 -0.25415237386E+02 -0.10377940064E+02  0.10335121718E+02  0.29333439489E+02  0.00000000000E+00 0. -1.
</event>
<event>
 5    1  0.8902899E-005  0.9118800E+02  0.7818608E-02  0.1130116E+00
         25   -1    0    0    0    0  0.00000000000E+00  0.00000000000E+00  0.99999998245E-14  0.12500000000E+03  0.12500000000E+03 0.  0.
        -11    1    3    3    0    0  0.81395010900E+01  0.34836835539E+02  0.22626838061E+02  0.42330017591E+02  0.51100000000E-03 0.  1.
         23    2    1    0    0    0 -0.27881482712E+02 -0.16340692823E+01  0.11567620248E+02  0.94769930552E+02  0.89819166318E+02 0.  0.
         11    1    3    3    0    0 -0.36020983802E+02 -0.36470904821E+02 -0.11059217812E+02  0.52439912961E+02  0.51100000000E-03 0. -1.
         22    1    1    0    0    0  0.27881482712E+02  0.16340692823E+01 -0.11567620248E+02  0.30230069448E+02  0.00000000000E+00 0. -1.
</event>
<event>
 5    1  0.8902899E-005  0.9118800E+02  0.7818608E-02  0.1130116E+00
         25   -1    0    0    0    0  0.00000000000E+00  0.00000000000E+00  0.99999998245E-14  0.12500000000E+03  0.12500000000E+03 0.  0.
        -11    1    3    3    0    0 -0.21337710907E+02  0.95537948825E+01 -0.27769249755E+02  0.36300194705E+02  0.51100000000E-03 0.  1.
         23    2    1    0    0    0 -0.14720927267E+01  0.76753201149E+01  0.28208904211E+02  0.95728514342E+02  0.91143450590E+02 0.  0.
         11    1    3    3    0    0  0.19865618181E+02 -0.18784747676E+01  0.55978153966E+02  0.59428319637E+02  0.51100000000E-03 0. -1.
         22    1    1    0    0    0  0.14720927267E+01 -0.76753201149E+01 -0.28208904211E+02  0.29271485658E+02  0.00000000000E+00 0. -1.
</event>
<event>
 5    1  0.8902899E-005  0.9118800E+02  0.7818608E-02  0.1130116E+00
         25   -1    0    0    0    0  0.00000000000E+00  0.00000000000E+00  0.99999998245E-14  0.12500000000E+03  0.12500000000E+03 0.  0.
        -11    1    3    3    0    0 -0.81858290464E+01  0.46414482668E+02 -0.32973948734E+02  0.57520372860E+02  0.51100000000E-03 0.  1.
         23    2    1    0    0    0 -0.20704642551E+02  0.17230966782E+02 -0.12495693040E+02  0.95306048024E+02  0.90562199653E+02 0.  0.
         11    1    3    3    0    0 -0.12518813505E+02 -0.29183515887E+02  0.20478255695E+02  0.37785675164E+02  0.51100000000E-03 0. -1.
         22    1    1    0    0    0  0.20704642551E+02 -0.17230966782E+02  0.12495693040E+02  0.29693951976E+02  0.00000000000E+00 0.  1.
</event>
<event>
 5    1  0.8902899E-005  0.9118800E+02  0.7818608E-02  0.1130116E+00
         25   -1    0    0    0    0  0.00000000000E+00  0.00000000000E+00  0.99999998245E-14  0.12500000000E+03  0.12500000000E+03 0.  0.
        -11    1    3    3    0    0  0.29213133814E+02  0.34288574086E+02  0.22440226035E+02  0.50325711568E+02  0.51100000000E-03 0. -1.
         23    2    1    0    0    0  0.60059029054E+01  0.23864364868E+02 -0.15434484460E+02  0.95951728264E+02  0.91449068153E+02 0.  0.
         11    1    3    3    0    0 -0.23207230909E+02 -0.10424209217E+02 -0.37874710494E+02  0.45626016696E+02  0.51100000000E-03 0.  1.
         22    1    1    0    0    0 -0.60059029054E+01 -0.23864364868E+02  0.15434484460E+02  0.29048271736E+02  0.00000000000E+00 0.  1.
</event>
<event>
 5    1  0.8902899E-005  0.9118800E+02  0.7818608E-02  0.1130116E+00
         25   -1    0    0    0    0  0.00000000000E+00  0.00000000000E+00  0.99999998245E-14  0.12500000000E+03  0.12500000000E+03 0.  0.
        -11    1    3    3    0    0  0.34838187743E+02 -0.35288749463E+02  0.29459615147E+02  0.57678974409E+02  0.51100000000E-03 0. -1.
         23    2    1    0    0    0  0.52591159338E+01 -0.28436171503E+02  0.75765275421E+01  0.95105553697E+02  0.90285039869E+02 0.  0.
         11    1    3    3    0    0 -0.29579071810E+02  0.68525779600E+01 -0.21883087605E+02  0.37426579288E+02  0.51100000000E-03 0.  1.
         22    1    1    0    0    0 -0.52591159338E+01  0.28436171503E+02 -0.75765275421E+01  0.29894446303E+02  0.00000000000E+00 0. -1.
</event>
<event>
 5    1  0.8902899E-005  0.9118800E+02  0.7818608E-02  0.1130116E+00
         25   -1    0    0    0    0  0.00000000000E+00  0.00000000000E+00  0.99999998245E-14  0.12500000000E+03  0.12500000000E+03 0.  0.
        -11    1    3    3    0    0 -0.26120772320E+02  0.27561333670E+02  0.46513900986E+02  0.60045523110E+02  0.51100000000E-03 0. -1.
         23    2    1    0    0    0 -0.21901222935E+02  0.52398437195E+01  0.20979126487E+02  0.94222682437E+02  0.89054312693E+02 0.  0.
         11    1    3    3    0    0  0.42195493853E+01 -0.22321489951E+02 -0.25534774500E+02  0.34177159327E+02  0.51100000000E-03 0.  1.
         22    1    1    0    0    0  0.21901222935E+02 -0.52398437195E+01 -0.20979126487E+02  0.30777317563E+02  0.00000000000E+00 0. -1.
</event>
<event>
 5    1  0.8902899E-005  0.9118800E+02  0.7818608E-02  0.1130116E+00
         25   -1    0    0    0    0  0.00000000000E+00  0.00000000000E+00  0.99999998245E-14  0.12500000000E+03  0.12500000000E+03 0.  0.
        -11    1    3    3    0    0 -0.51173820908E+02  0.20925605872E+02 -0.44735142461E+00  0.55288706360E+02  0.51100000000E-03 0. -1.
         23    2    1    0    0    0 -0.23577571254E+02 -0.29775731467E+01  0.17027738264E+02  0.95764547575E+02  0.91192855498E+02 0.  0.
         11    1    3    3    0    0  0.27596249654E+02 -0.23903179019E+02  0.17475089689E+02  0.40475841215E+02  0.51100000000E-03 0.  1.
         22    1    1    0    0    0  0.23577571254E+02  0.29775731467E+01 -0.17027738264E+02  0.29235452425E+02  0.00000000000E+00 0. -1.
</event>
<event>
 5    1  0.8902899E-005  0.9118800E+02  0.7818608E-02  0.1130116E+00
         25   -1    0    0    0    0  0.00000000000E+00  0.00000000000E+00  0.99999998245E-14  0.12500000000E+03  0.12500000000E+03 0.  0.
        -11    1    3    3    0    0 -0.53981084810E+01 -0.32971690996E+02  0.44415035040E+02  0.55578478930E+02  0.51100000000E-03 0.  1.
         23    2    1    0    0    0 -0.21037299664E+02 -0.18978245652E+02  0.11917650055E+02  0.94262853613E+02  0.89110680635E+02 0.  0.
         11    1    3    3    0    0 -0.15639191183E+02  0.13993445344E+02 -0.32497384985E+02  0.38684374683E+02  0.51100000000E-03 0. -1.
         22    1    1    0    0    0  0.21037299664E+02  0.18978245652E+02 -0.11917650055E+02  0.30737146387E+02  0.00000000000E+00 0.  1.
</event>
<event>
 5    1  0.8902899E-005  0.9118800E+02  0.7818608E-02  0.1130116E+00
         25   -1    0    0    0    0  0.00000000000E+00  0.00000000000E+00  0.99999998245E-14  0.12500000000E+03  0.12500000000E+03 0.  0.
        -11    1    3    3    0    0  0.97036004888E+01 -0.53786646413E+02  0.30210519051E+02  0.62448688187E+02  0.51100000000E-03 0.  1.
         23    2    1    0    0    0  0.50907842324E+01 -0.23979468281E+02  0.15394133898E+02  0.96053318987E+02  0.91587825320E+02 0.  0.
         11    1    3    3    0    0 -0.46128162564E+01  0.29807178131E+02 -0.14816385152E+02  0.33604630800E+02  0.51100000000E-03 0. -1.
         22    1    1    0    0    0 -0.50907842324E+01  0.23979468281E+02 -0.15394133898E+02  0.28946681013E+02  0.00000000000E+00 0.  1.
</event>
<event>
 5    1  0.8902899E-005  0.9118800E+02  0.7818608E-02  0.1130116E+00
         25   -1    0    0    0    0  0.00000000000E+00  0.00000000000E+00  0.99999998245E-14  0.12500000000E+03  0.12500000000E+03 0.  0.
        -11    1    3    3    0    0  0.27579575839E+01 -0.27027458029E+02  0.53282887934E+02  0.59809330078E+02  0.51100000000E-03 0. -1.
         23    2    1    0    0    0 -0.73979610022E+01 -0.35267723630E+01  0.28134207763E+02  0.95696389357E+02  0.91099381662E+02 0.  0.
         11    1    3    3    0    0 -0.10155918586E+02  0.23500685666E+02 -0.25148680171E+02  0.35887059279E+02  0.51100000000E-03 0.  1.
         22    1    1    0    0    0  0.73979610022E+01  0.35267723630E+01 -0.28134207763E+02  0.29303610643E+02  0.00000000000E+00 0. -1.
</event>
<event>
 5    1  0.8902899E-005  0.9118800E+02  0.7818608E-02  0.1130116E+00
         25   -1    0    0    0    0  0.00000000000E+00  0.00000000000E+00  0.99999998245E-14  0.12500000000E+03  0.12500000000E+03 0.  0.
        -11    1    3    3    0    0 -0.26998918225E+01 -0.55696102819E+02  0.27724964944E+02  0.62273742191E+02  0.51100000000E-03 0.  1.
         23    2    1    0    0    0  0.10391276550E+01 -0.24945835333E+02  0.15722832186E+02  0.95494374457E+02  0.90821768394E+02 0.  0.
         11    1    3    3    0    0  0.37390194776E+01  0.30750267486E+02 -0.12002132758E+02  0.33220632265E+02  0.51100000000E-03 0. -1.
         22    1    1    0    0    0 -0.10391276550E+01  0.24945835333E+02 -0.15722832186E+02  0.29505625543E+02  0.00000000000E+00 0.  1.
</event>
<event>
 5    1  0.8902899E-005  0.9118800E+02  0.7818608E-02  0.1130116E+00
         25   -1    0    0    0    0  0.00000000000E+00  0.00000000000E+00  0.99999998245E-14  0.12500000000E+03  0.12500000000E+03 0.  0.
        -11    1    3    3    0    0  0.14524748553E+02 -0.16341341900E+01 -0.48555407733E+02  0.50707655590E+02  0.51100000000E-03 0.  1.
         23    2    1    0    0    0 -0.18826830527E+02 -0.86369920564E+01 -0.26759289000E+02  0.91160574366E+02  0.84647171196E+02 0.  0.
         11    1    3    3    0    0 -0.33351579079E+02 -0.70028578664E+01  0.21796118733E+02  0.40452918775E+02  0.51100000000E-03 0. -1.
         22    1    1    0    0    0  0.18826830527E+02  0.86369920564E+01  0.26759289000E+02  0.33839425634E+02  0.00000000000E+00 0. -1.
</event>
<event>
 5    1  0.8902899E-005  0.9118800E+02  0.7818608E-02  0.1130116E+00
         25   -1    0    0    0    0  0.00000000000E+00  0.00000000000E+00  0.99999998245E-14  0.12500000000E+03  0.12500000000E+03 0.  0.
        -11    1    3    3    0    0  0.50501224910E+02  0.22817317394E+02 -0.18385253708E+02  0.58386824238E+02  0.51100000000E-03 0.  1.
         23    2    1    0    0    0  0.29182733282E+02 -0.38161897199E+01 -0.44665095030E+01  0.95231813408E+02  0.90459678046E+02 0.  0.
         11    1    3    3    0    0 -0.21318491627E+02 -0.26633507114E+02  0.13918744205E+02  0.36844989170E+02  0.51100000000E-03 0. -1.
         22    1    1    0    0    0 -0.29182733282E+02  0.38161897199E+01  0.44665095030E+01  0.29768186592E+02  0.00000000000E+00 0.  1.
</event>
<event>
 5    1  0.8902899E-005  0.9118800E+02  0.7818608E-02  0.1130116E+00
         25   -1    0    0    0    0  0.00000000000E+00  0.00000000000E+00  0.99999998245E-14  0.12500000000E+03  0.12500000000E+03 0.  0.
        -11    1    3    3    0    0  0.40859066032E+01 -0.29397835299E+02 -0.39689238259E+02  0.49559691150E+02  0.51100000000E-03 0.  1.
         23    2    1    0    0    0  0.24084378863E+02 -0.15694661741E+02  0.21677173236E+00  0.96252361795E+02  0.91859079294E+02 0.  0.
         11    1    3    3    0    0  0.19998472260E+02  0.13703173558E+02  0.39906009992E+02  0.46692670645E+02  0.51100000000E-03 0. -1.
         22    1    1    0    0    0 -0.24084378863E+02  0.15694661741E+02 -0.21677173236E+00  0.28747638205E+02  0.00000000000E+00 0.  1.
</event>
<event>
 5    1  0.8902899E-005  0.9118800E+02  0.7818608E-02  0.1130116E+00
         25   -1    0    0    0    0  0.00000000000E+00  0.00000000000E+00  0.99999998245E-14  0.12500000000E+03  0.12500000000E+03 0.  0.
        -11    1    3    3    0    0 -0.50266125580E+01  0.44472333800E+02 -0.15908932618E+02  0.47498941511E+02  0.51100000000E-03 0.  1.
         23    2    1    0    0    0 -0.24965761219E+00  0.22439114619E+02  0.23251704803E+02  0.92685638331E+02  0.86870072999E+02 0.  0.
         11    1    3    3    0    0  0.47769549459E+01 -0.22033219181E+02  0.39160637421E+02  0.45186696820E+02  0.51100000000E-03 0. -1.
         22    1    1    0    0    0  0.24965761219E+00 -0.22439114619E+02 -0.23251704803E+02  0.32314361669E+02  0.00000000000E+00 0.  1.
</event>
<event>
 5    1  0.8902899E-005  0.9118800E+02  0.7818608E-02  0.1130116E+00
         25   -1    0    0    0    0  0.00000000000E+00  0.00000000000E+00  0.99999998245E-14  0.12500000000E+03  0.12500000000E+03 0.  0.
        -11    1    3    3    0    0  0.46324088654E+02  0.94346143115E+01  0.23623975160E+00  0.47275669707E+02  0.51100000000E-03 0.  1.
         23    2    1    0    0    0  0.83793074014E+01 -0.12135228349E+01 -0.27993853251E+02  0.95753782296E+02  0.91178098104E+02 0.  0.
         11    1    3    3    0    0 -0.37944781252E+02 -0.10648137146E+02 -0.28230093002E+02  0.48478112588E+02  0.51100000000E-03 0. -1.
         22    1    1    0    0    0 -0.83793074014E+01  0.12135228349E+01  0.27993853251E+02  0.29246217704E+02  0.00000000000E+00 0. -1.
</event>
<event>
 5    1  0.8902899E-005  0.9118800E+02  0.7818608E-02  0.1130116E+00
         25   -1    0    0    0    0  0.00000000000E+00  0.00000000000E+00  0.99999998245E-14  0.12500000000E+03  0.12500000000E+03 0.  0.
        -11    1    3    3    0    0  0.65090357795E+01 -0.27852978873E+02  0.24249914381E+02  0.37499524353E+02  0.51100000000E-03 0. -1.
         23    2    1    0    0    0  0.14005214058E+02  0.24228586857E+02 -0.31738948828E+01  0.96835411407E+02  0.92649084463E+02 0.  0.
         11    1    3    3    0    0  0.74961782782E+01  0.52081565730E+02 -0.27423809264E+02  0.59335887054E+02  0.51100000000E-03 0.  1.
         22    1    1    0    0    0 -0.14005214058E+02 -0.24228586857E+02  0.31738948828E+01  0.28164588593E+02  0.00000000000E+00 0.  1.
</event>
<event>
 5    1  0.8902899E-005  0.9118800E+02  0.7818608E-02  0.1130116E+00
         25   -1    0    0    0    0  0.00000000000E+00  0.00000000000E+00  0.99999998245E-14  0.12500000000E+03  0.12500000000E+03 0.  0.
        -11    1    3    3    0    0  0.22986212648E+02 -0.54233578747E+01  0.50778692919E+02  0.56002271716E+02  0.51100000000E-03 0.  1.
         23    2    1    0    0    0  0.71664426754E+01  0.17367414603E+02  0.23535739666E+02  0.94884953392E+02  0.89979099506E+02 0.  0.
         11    1    3    3    0    0 -0.15819769972E+02  0.22790772478E+02 -0.27242953253E+02  0.38882681676E+02  0.51100000000E-03 0. -1.
         22    1    1    0    0    0 -0.71664426754E+01 -0.17367414603E+02 -0.23535739666E+02  0.30115046608E+02  0.00000000000E+00 0. -1.
</event>
<event>
 5    1  0.8902899E-005  0.9118800E+02  0.7818608E-02  0.1130116E+00
         25   -1    0    0    0    0  0.00000000000E+00  0.00000000000E+00  0.99999998245E-14  0.12500000000E+03  0.12500000000E+03 0.  0.
        -11    1    3    3    0    0  0.44658211971E+02 -0.31700905356E+02  0.22483327558E+02  0.59201379335E+02  0.51100000000E-03 0.  1.
         23    2    1    0    0    0  0.24801547717E+02 -0.92109364465E+00  0.12731762842E+02  0.97106219910E+02  0.93013735424E+02 0.  0.
         11    1    3    3    0    0 -0.19856664254E+02  0.30779811712E+02 -0.97515647161E+01  0.37904840575E+02  0.51100000000E-03 0. -1.
         22    1    1    0    0    0 -0.24801547717E+02  0.92109364465E+00 -0.12731762842E+02  0.27893780090E+02  0.00000000000E+00 0.  1.
</event>
<event>
 5    1  0.8902899E-005  0.9118800E+02  0.7818608E-02  0.1130116E+00
         25   -1    0    0    0    0  0.00000000000E+00  0.00000000000E+00  0.99999998245E-14  0.12500000000E+03  0.12500000000E+03 0.  0.
        -11    1    3    3    0    0 -0.35221625810E+02  0.77875256092E+00  0.39757690978E+01  0.35453859034E+02  0.51100000000E-03 0. -1.
         23    2    1    0    0    0  0.40759531151E+01  0.24628724256E+02 -0.24901206605E+02  0.89740142617E+02  0.82522940169E+02 0.  0.
         11    1    3    3    0    0  0.39297578925E+02  0.23849971695E+02 -0.28876975703E+02  0.54286283583E+02  0.51100000000E-03 0.  1.
         22    1    1    0    0    0 -0.40759531151E+01 -0.24628724256E+02  0.24901206605E+02  0.35259857383E+02  0.00000000000E+00 0.  1.
</event>
<event>
 5    1  0.8902899E-005  0.9118800E+02  0.7818608E-02  0.1130116E+00
         25   -1    0    0    0    0  0.00000000000E+00  0.00000000000E+00  0.99999998245E-14  0.12500000000E+03  0.12500000000E+03 0.  0.
        -11    1    3    3    0    0  0.28767779677E+01 -0.32046761080E+02 -0.18765914957E+01  0.32230301629E+02  0.51100000000E-03 0. -1.
         23    2    1    0    0    0 -0.25999815107E+01  0.30061701751E+02  0.24304053762E+01  0.94728351774E+02  0.89761283099E+02 0.  0.
         11    1    3    3    0    0 -0.54767594785E+01  0.62108462831E+02  0.43069968719E+01  0.62498050145E+02  0.51100000000E-03 0.  1.
         22    1    1    0    0    0  0.25999815107E+01 -0.30061701751E+02 -0.24304053762E+01  0.30271648226E+02  0.00000000000E+00 0.  1.
</event>
<event>
 5    1  0.8902899E-005  0.9118800E+02  0.7818608E-02  0.1130116E+00
         25   -1    0    0    0    0  0.00000000000E+00  0.00000000000E+00  0.99999998245E-14  0.12500000000E+03  0.12500000000E+03 0.  0.
        -11    1    3    3    0    0  0.72023048202E+01  0.34487293987E+02 -0.47733745876E+02  0.59327541133E+02  0.51100000000E-03 0.  1.
         23    2    1    0    0    0 -0.69671317524E+01  0.75812661161E+01 -0.26921584767E+02  0.96176602436E+02  0.91755929558E+02 0.  0.
         11    1    3    3    0    0 -0.14169436573E+02 -0.26906027871E+02  0.20812161109E+02  0.36849061303E+02  0.51100000000E-03 0. -1.
         22    1    1    0    0    0  0.69671317524E+01 -0.75812661161E+01  0.26921584767E+02  0.28823397564E+02  0.00000000000E+00 0.  1.
</event>
<event>
 5    1  0.8902899E-005  0.9118800E+02  0.7818608E-02  0.1130116E+00
         25   -1    0    0    0    0  0.00000000000E+00  0.00000000000E+00  0.99999998245E-14  0.12500000000E+03  0.12500000000E+03 0.  0.
        -11    1    3    3    0    0  0.29666851668E+02  0.62005583905E+01 -0.39037537933E+02  0.49421638787E+02  0.51100000000E-03 0. -1.
         23    2    1    0    0    0  0.12628924772E+02  0.26699966284E+02 -0.15454135146E+01  0.95423552557E+02  0.90724242290E+02 0.  0.
         11    1    3    3    0    0 -0.17037926896E+02  0.20499407893E+02  0.37492124418E+02  0.46001913770E+02  0.51100000000E-03 0.  1.
         22    1    1    0    0    0 -0.12628924772E+02 -0.26699966284E+02  0.15454135146E+01  0.29576447443E+02  0.00000000000E+00 0.  1.
</event>
<event>
 5    1  0.8902899E-005  0.9118800E+02  0.7818608E-02  0.1130116E+00
         25   -1    0    0    0    0  0.00000000000E+00  0.00000000000E+00  0.99999998245E-14  0.12500000000E+03  0.12500000000E+03 0.  0.
        -11    1    3    3    0    0  0.21350018436E+02 -0.39533555208E+02 -0.12512450847E+01  0.44947646092E+02  0.51100000000E-03 0.  1.
         23    2    1    0    0    0 -0.11955988221E+02 -0.96363749295E+01 -0.25034791560E+02  0.95630863741E+02  0.91009427728E+02 0.  0.
         11    1    3    3    0    0 -0.33306006658E+02  0.29897180279E+02 -0.23783546475E+02  0.50683217650E+02  0.51100000000E-03 0. -1.
         22    1    1    0    0    0  0.11955988221E+02  0.96363749295E+01  0.25034791560E+02  0.29369136259E+02  0.00000000000E+00 0.  1.
</event>
<event>
 5    1  0.8902899E-005  0.9118800E+02  0.7818608E-02  0.1130116E+00
         25   -1    0    0    0    0  0.00000000000E+00  0.00000000000E+00  0.99999998245E-14  0.12500000000E+03  0.12500000000E+03 0.  0.
        -11    1    3    3    0    0 -0.61013923608E+01 -0.19315427062E+01  0.59182548223E+02  0.59527572270E+02  0.51100000000E-03 0.  1.
         23    2    1    0    0    0  0.86912871544E+01  0.62779056936E+01  0.28241930329E+02  0.94791438283E+02  0.89849093322E+02 0.  0.
         11    1    3    3    0    0  0.14792679515E+02  0.82094483997E+01 -0.30940617894E+02  0.35263866013E+02  0.51100000000E-03 0. -1.
         22    1    1    0    0    0 -0.86912871544E+01 -0.62779056936E+01 -0.28241930329E+02  0.30208561717E+02  0.00000000000E+00 0.  1.
</event>
<event>
 5    1  0.8902899E-005  0.9118800E+02  0.7818608E-02  0.1130116E+00
         25   -1    0    0    0    0  0.00000000000E+00  0.00000000000E+00  0.99999998245E-14  0.12500000000E+03  0.12500000000E+03 0.  0.
        -11    1    3    3    0    0  0.22246430436E+02  0.27225725507E+02  0.21329641647E+01  0.35223477013E+02  0.51100000000E-03 0.  1.
         23    2    1    0    0    0 -0.19308985086E+02 -0.87579724913E+01  0.22721647370E+02  0.93922480047E+02  0.88631935620E+02 0.  0.
         11    1    3    3    0    0 -0.41555415522E+02 -0.35983697998E+02  0.20588683206E+02  0.58699003034E+02  0.51100000000E-03 0. -1.
         22    1    1    0    0    0  0.19308985086E+02  0.87579724913E+01 -0.22721647370E+02  0.31077519953E+02  0.00000000000E+00 0.  1.
</event>
<event>
 5    1  0.8902899E-005  0.9118800E+02  0.7818608E-02  0.1130116E+00
         25   -1    0    0    0    0  0.00000000000E+00  0.00000000000E+00  0.99999998245E-14  0.12500000000E+03  0.12500000000E+03 0.  0.
        -11    1    3    3    0    0  0.16940410903E+02 -0.28534819303E+02 -0.34707525391E+02  0.48019014497E+02  0.51100000000E-03 0.  1.
         23    2    1    0    0    0 -0.42512010610E+01  0.12317614252E+02 -0.27456183648E+02  0.94608580950E+02  0.89594337084E+02 0.  0.
         11    1    3    3    0    0 -0.21191611964E+02  0.40852433555E+02  0.72513417423E+01  0.46589566453E+02  0.51100000000E-03 0. -1.
         22    1    1    0    0    0  0.42512010610E+01 -0.12317614252E+02  0.27456183648E+02  0.30391419050E+02  0.00000000000E+00 0. -1.
</event>
<event>
 5    1  0.8902899E-005  0.9118800E+02  0.7818608E-02  0.1130116E+00
         25   -1    0    0    0    0  0.00000000000E+00  0.00000000000E+00  0.99999998245E-14  0.12500000000E+03  0.12500000000E+03 0.  0.
        -11    1    3    3    0    0 -0.30286133205E+02  0.23134133181E+01 -0.34651704153E+02  0.46079739004E+02  0.51100000000E-03 0.  1.
         23    2    1    0    0    0 -0.16320361980E+02  0.25346683252E+02  0.54267080146E+01  0.94369007085E+02  0.89259463203E+02 0.  0.
         11    1    3    3    0    0  0.13965771224E+02  0.23033269934E+02  0.40078412168E+02  0.48289268082E+02  0.51100000000E-03 0. -1.
         22    1    1    0    0    0  0.16320361980E+02 -0.25346683252E+02 -0.54267080146E+01  0.30630992915E+02  0.00000000000E+00 0.  1.
</event>
<event>
 5    1  0.8902899E-005  0.9118800E+02  0.7818608E-02  0.1130116E+00
         25   -1    0    0    0    0  0.00000000000E+00  0.00000000000E+00  0.99999998245E-14  0.12500000000E+03  0.12500000000E+03 0.  0.
        -11    1    3    3    0    0 -0.11195455210E+02 -0.39407967849E+02 -0.12082621084E+02  0.42712010956E+02  0.51100000000E-03 0.  1.
         23    2    1    0    0    0 -0.94641135765E+01  0.13520046345E+02 -0.22910864099E+02  0.96764051411E+02  0.92552757132E+02 0.  0.
         11    1    3    3    0    0  0.17313416332E+01  0.52928014194E+02 -0.10828243015E+02  0.54052040455E+02  0.51100000000E-03 0. -1.
         22    1    1    0    0    0  0.94641135765E+01 -0.13520046345E+02  0.22910864099E+02  0.28235948589E+02  0.00000000000E+00 0. -1.
</event>
<event>
 5    1  0.8902899E-005  0.9118800E+02  0.7818608E-02  0.1130116E+00
         25   -1    0    0    0    0  0.00000000000E+00  0.00000000000E+00  0.99999998245E-14  0.12500000000E+03  0.12500000000E+03 0.  0.
        -11    1    3    3    0    0 -0.30200120798E+02  0.24022056589E+02  0.25238094792E+02  0.46109304137E+02  0.51100000000E-03 0.  1.
         23    2    1    0    0    0  0.57982134806E+01 -0.11254416086E+02  0.25520753677E+02  0.96511580787E+02  0.92211144646E+02 0.  0.
         11    1    3    3    0    0  0.35998334278E+02 -0.35276472675E+02  0.28265888447E+00  0.50402276650E+02  0.51100000000E-03 0. -1.
         22    1    1    0    0    0 -0.57982134806E+01  0.11254416086E+02 -0.25520753677E+02  0.28488419213E+02  0.00000000000E+00 0.  1.
</event>
<event>
 5    1  0.8902899E-005  0.9118800E+02  0.7818608E-02  0.1130116E+00
         25   -1    0    0    0    0  0.00000000000E+00  0.00000000000E+00  0.99999998245E-14  0.12500000000E+03  0.12500000000E+03 0.  0.
        -11    1    3    3    0    0 -0.54578434359E+01  0.10677733041E+02 -0.28514032478E+02  0.30933025818E+02  0.51100000000E-03 0.  1.
         23    2    1    0    0    0  0.22653279079E+02 -0.17477043534E+02  0.17263498766E+02  0.91583739088E+02  0.85269776427E+02 0.  0.
         11    1    3    3    0    0  0.28111122515E+02 -0.28154776574E+02  0.45777531244E+02  0.60650713269E+02  0.51100000000E-03 0. -1.
         22    1    1    0    0    0 -0.22653279079E+02  0.17477043534E+02 -0.17263498766E+02  0.33416260912E+02  0.00000000000E+00 0. -1.
</event>
<event>
 5    1  0.8902899E-005  0.9118800E+02  0.7818608E-02  0.1130116E+00
         25   -1    0    0    0    0  0.00000000000E+00  0.00000000000E+00  0.99999998245E-14  0.12500000000E+03  0.12500000000E+03 0.  0.
        -11    1    3    3    0    0 -0.22947171418E+02  0.32066372453E+01 -0.40806323335E+02  0.46925592409E+02  0.51100000000E-03 0. -1.
         23    2    1    0    0    0 -0.18751002885E+02  0.22734640002E+02  0.33022908233E+01  0.95345841946E+02  0.90617109237E+02 0.  0.
         11    1    3    3    0    0  0.41961685334E+01  0.19528002757E+02  0.44108614158E+02  0.48420249537E+02  0.51100000000E-03 0.  1.
         22    1    1    0    0    0  0.18751002885E+02 -0.22734640002E+02 -0.33022908233E+01  0.29654158054E+02  0.00000000000E+00 0.  1.
</event>
<event>
 5    1  0.8902899E-005  0.9118800E+02  0.7818608E-02  0.1130116E+00
         25   -1    0    0    0    0  0.00000000000E+00  0.00000000000E+00  0.99999998245E-14  0.12500000000E+03  0.12500000000E+03 0.  0.
        -11    1    3    3    0    0 -0.34578154124E+02 -0.10338047881E+02 -0.92009741434E+00  0.36102223701E+02  0.51100000000E-03 0. -1.
         23    2    1    0    0    0  0.23812313175E+02 -0.66202696193E+01 -0.14742653053E+02  0.96221535002E+02  0.91817121228E+02 0.  0.
         11    1    3    3    0    0  0.58390467300E+02  0.37177782614E+01 -0.13822555638E+02  0.60119311301E+02  0.51100000000E-03 0.  1.
         22    1    1    0    0    0 -0.23812313175E+02  0.66202696193E+01  0.14742653053E+02  0.28778464998E+02  0.00000000000E+00 0.  1.
</event>
<event>
 5    1  0.8902899E-005  0.9118800E+02  0.7818608E-02  0.1130116E+00
         25   -1    0    0    0    0  0.00000000000E+00  0.00000000000E+00  0.99999998245E-14  0.12500000000E+03  0.12500000000E+03 0.  0.
        -11    1    3    3    0    0 -0.57304456884E+01 -0.26517329253E+02  0.47407048873E+02  0.54620829741E+02  0.51100000000E-03 0.  1.
         23    2    1    0    0    0 -0.23713266736E+02 -0.63476066994E+01  0.17987909461E+02  0.94566859891E+02  0.89536109882E+02 0.  0.
         11    1    3    3    0    0 -0.17982821048E+02  0.20169722553E+02 -0.29419139413E+02  0.39946030150E+02  0.51100000000E-03 0. -1.
         22    1    1    0    0    0  0.23713266736E+02  0.63476066994E+01 -0.17987909461E+02  0.30433140109E+02  0.00000000000E+00 0.  1.
</event>
<event>
 5    1  0.8902899E-005  0.9118800E+02  0.7818608E-02  0.1130116E+00
         25   -1    0    0    0    0  0.00000000000E+00  0.00000000000E+00  0.99999998245E-14  0.12500000000E+03  0.12500000000E+03 0.  0.
        -11    1    3    3    0    0  0.10914933249E-01 -0.11315863986E+02 -0.30977804403E+02  0.32979891794E+02  0.51100000000E-03 0.  1.
         23    2    1    0    0    0 -0.15253489942E+02  0.28331177855E+02  0.92838276978E+01  0.91510986118E+02  0.85163058479E+02 0.  0.
         11    1    3    3    0    0 -0.15264404875E+02  0.39647041842E+02  0.40261632101E+02  0.58531094323E+02  0.51100000000E-03 0. -1.
         22    1    1    0    0    0  0.15253489942E+02 -0.28331177855E+02 -0.92838276978E+01  0.33489013882E+02  0.00000000000E+00 0. -1.
</event>
<event>
 5    1  0.8902899E-005  0.9118800E+02  0.7818608E-02  0.1130116E+00
         25   -1    0    0    0    0  0.00000000000E+00  0.00000000000E+00  0.99999998245E-14  0.12500000000E+03  0.12500000000E+03 0.  0.
        -11    1    3    3    0    0  0.26640186021E+02 -0.20122230266E+02 -0.68113610082E+01  0.34073425146E+02  0.51100000000E-03 0. -1.
         23    2    1    0    0    0 -0.92362669091E+01  0.23524891884E+02  0.16092047707E+02  0.95038638816E+02  0.90192348368E+02 0.  0.
         11    1    3    3    0    0 -0.35876452930E+02  0.43647122151E+02  0.22903408715E+02  0.60965213671E+02  0.51100000000E-03 0.  1.
         22    1    1    0    0    0  0.92362669091E+01 -0.23524891884E+02 -0.16092047707E+02  0.29961361184E+02  0.00000000000E+00 0.  1.
</event>
<event>
 5    1  0.8902899E-005  0.9118800E+02  0.7818608E-02  0.1130116E+00
         25   -1    0    0    0    0  0.00000000000E+00  0.00000000000E+00  0.99999998245E-14  0.12500000000E+03  0.12500000000E+03 0.  0.
        -11    1    3    3    0    0 -0.24284690395E+02 -0.77954429594E+01 -0.21662961877E+02  0.33463398453E+02  0.51100000000E-03 0.  1.
         23    2    1    0    0    0  0.22948804650E+02 -0.19132431212E+01  0.18278018193E+02  0.95599420360E+02  0.90966230492E+02 0.  0.
         11    1    3    3    0    0  0.47233495045E+02  0.58821998382E+01  0.39940980070E+02  0.62136021906E+02  0.51100000000E-03 0. -1.
         22    1    1    0    0    0 -0.22948804650E+02  0.19132431212E+01 -0.18278018193E+02  0.29400579640E+02  0.00000000000E+00 0. -1.
</event>
<event>
 5    1  0.8902899E-005  0.9118800E+02  0.7818608E-02  0.1130116E+00
         25   -1    0    0    0    0  0.00000000000E+00  0.00000000000E+00  0.99999998245E-14  0.12500000000E+03  0.12500000000E+03 0.  0.
        -11    1    3    3    0    0 -0.74112065888E+01 -0.54598077850E+02  0.32256322615E+01  0.55193122686E+02  0.51100000000E-03 0.  1.
         23    2    1    0    0    0 -0.19329925908E+02 -0.18289725246E+02  0.14045013515E+02  0.94909760888E+02  0.90013555768E+02 0.  0.
         11    1    3    3    0    0 -0.11918719319E+02  0.36308352605E+02  0.10819381254E+02  0.39716638202E+02  0.51100000000E-03 0. -1.
         22    1    1    0    0    0  0.19329925908E+02  0.18289725246E+02 -0.14045013515E+02  0.30090239112E+02  0.00000000000E+00 0.  1.
</event>
<event>
 5    1  0.8902899E-005  0.9118800E+02  0.7818608E-02  0.1130116E+00
         25   -1    0    0    0    0  0.00000000000E+00  0.00000000000E+00  0.99999998245E-14  0.12500000000E+03  0.12500000000E+03 0.  0.
        -11    1    3    3    0    0 -0.40122886004E+02 -0.23541443964E+02 -0.58891156600E+01  0.46890588061E+02  0.51100000000E-03 0.  1.
         23    2    1    0    0    0  0.41031179402E+01 -0.29525277060E+02  0.88742672585E+01  0.93898067879E+02  0.88597499794E+02 0.  0.
         11    1    3    3    0    0  0.44226003944E+02 -0.59838330955E+01  0.14763382919E+02  0.47007479818E+02  0.51100000000E-03 0. -1.
         22    1    1    0    0    0 -0.41031179402E+01  0.29525277060E+02 -0.88742672585E+01  0.31101932121E+02  0.00000000000E+00 0. -1.
</event>
<event>
 5    1  0.8902899E-005  0.9118800E+02  0.7818608E-02  0.1130116E+00
         25   -1    0    0    0    0  0.00000000000E+00  0.00000000000E+00  0.99999998245E-14  0.12500000000E+03  0.12500000000E+03 0.  0.
        -11    1    3    3    0    0  0.36999194340E+02  0.22250024096E+02 -0.28045725006E+02  0.51483654158E+02  0.51100000000E-03 0. -1.
         23    2    1    0    0    0  0.16529429383E+02  0.20146642302E+02  0.11849207275E+02  0.96372863489E+02  0.92022909497E+02 0.  0.
         11    1    3    3    0    0 -0.20469764958E+02 -0.21033817947E+01  0.39894932281E+02  0.44889209331E+02  0.51100000000E-03 0.  1.
         22    1    1    0    0    0 -0.16529429383E+02 -0.20146642302E+02 -0.11849207275E+02  0.28627136511E+02  0.00000000000E+00 0. -1.
</event>
<event>
 5    1  0.8902899E-005  0.9118800E+02  0.7818608E-02  0.1130116E+00
         25   -1    0    0    0    0  0.00000000000E+00  0.00000000000E+00  0.99999998245E-14  0.12500000000E+03  0.12500000000E+03 0.  0.
        -11    1    3    3    0    0  0.24635243210E+01 -0.42460790587E+02  0.19549819521E+02  0.46810075122E+02  0.51100000000E-03 0.  1.
         23    2    1    0    0    0 -0.60997216381E+01  0.73817172537E+01  0.25528131054E+02  0.97734970589E+02  0.93854902095E+02 0.  0.
         11    1    3    3    0    0 -0.85632459591E+01  0.49842507841E+02  0.59783115329E+01  0.50924895467E+02  0.51100000000E-03 0. -1.
         22    1    1    0    0    0  0.60997216381E+01 -0.73817172537E+01 -0.25528131054E+02  0.27265029411E+02  0.00000000000E+00 0. -1.
</event>
<event>
 5    1  0.8902899E-005  0.9118800E+02  0.7818608E-02  0.1130116E+00
         25   -1    0    0    0    0  0.00000000000E+00  0.00000000000E+00  0.99999998245E-14  0.12500000000E+03  0.12500000000E+03 0.  0.
        -11    1    3    3    0    0 -0.28179158618E+02 -0.35232562879E+01 -0.10014757167E+02  0.30112682987E+02  0.51100000000E-03 0.  1.
         23    2    1    0    0    0  0.21486498158E+02 -0.15144482578E+02 -0.30193834434E+02  0.84966356730E+02  0.74943906907E+02 0.  0.
         11    1    3    3    0    0  0.49665656776E+02 -0.11621226290E+02 -0.20179077267E+02  0.54853673743E+02  0.51100000000E-03 0. -1.
         22    1    1    0    0    0 -0.21486498158E+02  0.15144482578E+02  0.30193834434E+02  0.40033643270E+02  0.00000000000E+00 0. -1.
</event>
<event>
 5    1  0.8902899E-005  0.9118800E+02  0.7818608E-02  0.1130116E+00
         25   -1    0    0    0    0  0.00000000000E+00  0.00000000000E+00  0.99999998245E-14  0.12500000000E+03  0.12500000000E+03 0.  0.
        -11    1    3    3    0    0  0.49944085821E+02 -0.37026772719E+00  0.31691323049E+02  0.59151405423E+02  0.51100000000E-03 0.  1.
         23    2    1    0    0    0  0.25407885979E+02 -0.14503869289E+02  0.13740002337E+02  0.92678017410E+02  0.86859106331E+02 0.  0.
         11    1    3    3    0    0 -0.24536199841E+02 -0.14133601562E+02 -0.17951320712E+02  0.33526611987E+02  0.51100000000E-03 0. -1.
         22    1    1    0    0    0 -0.25407885979E+02  0.14503869289E+02 -0.13740002337E+02  0.32321982590E+02  0.00000000000E+00 0.  1.
</event>
<event>
 5    1  0.8902899E-005  0.9118800E+02  0.7818608E-02  0.1130116E+00
         25   -1    0    0    0    0  0.00000000000E+00  0.00000000000E+00  0.99999998245E-14  0.12500000000E+03  0.12500000000E+03 0.  0.
        -11    1    3    3    0    0  0.97565205493E+01 -0.41208586348E+02 -0.23878124687E+02  0.48615862852E+02  0.51100000000E-03 0.  1.
         23    2    1    0    0    0 -0.85907326251E+01  0.42176106425E+01 -0.25632999086E+02  0.97638721362E+02  0.93726625568E+02 0.  0.
         11    1    3    3    0    0 -0.18347253174E+02  0.45426196990E+02 -0.17548743991E+01  0.49022858510E+02  0.51100000000E-03 0. -1.
         22    1    1    0    0    0  0.85907326251E+01 -0.42176106425E+01  0.25632999086E+02  0.27361278638E+02  0.00000000000E+00 0. -1.
</event>
<event>
 5    1  0.8902899E-005  0.9118800E+02  0.7818608E-02  0.1130116E+00
         25   -1    0    0    0    0  0.00000000000E+00  0.00000000000E+00  0.99999998245E-14  0.12500000000E+03  0.12500000000E+03 0.  0.
        -11    1    3    3    0    0 -0.26726525685E+02  0.10581395120E+02  0.21472165772E+02  0.35879339474E+02  0.51100000000E-03 0.  1.
         23    2    1    0    0    0  0.72482952604E+01 -0.27005683588E+02 -0.97431737926E+01  0.95389627396E+02  0.90677488104E+02 0.  0.
         11    1    3    3    0    0  0.33974820946E+02 -0.37587078707E+02 -0.31215339565E+02  0.59510287921E+02  0.51100000000E-03 0. -1.
         22    1    1    0    0    0 -0.72482952604E+01  0.27005683588E+02  0.97431737926E+01  0.29610372604E+02  0.00000000000E+00 0. -1.
</event>
<event>
 5    1  0.8902899E-005  0.9118800E+02  0.7818608E-02  0.1130116E+00
         25   -1    0    0    0    0  0.00000000000E+00  0.00000000000E+00  0.99999998245E-14  0.12500000000E+03  0.12500000000E+03 0.  0.
        -11    1    3    3    0    0 -0.36978011513E+02 -0.37811712253E+01  0.22409814878E+02  0.43403575825E+02  0.51100000000E-03 0.  1.
         23    2    1    0    0    0  0.18351331002E+01 -0.29553339631E+02 -0.63758521216E+00  0.95382874688E+02  0.90668178938E+02 0.  0.
         11    1    3    3    0    0  0.38813144613E+02 -0.25772168406E+02 -0.23047400090E+02  0.51979298863E+02  0.51100000000E-03 0. -1.
         22    1    1    0    0    0 -0.18351331002E+01  0.29553339631E+02  0.63758521216E+00  0.29617125312E+02  0.00000000000E+00 0. -1.
</event>
<event>
 5    1  0.8902899E-005  0.9118800E+02  0.7818608E-02  0.1130116E+00
         25   -1    0    0    0    0  0.00000000000E+00  0.00000000000E+00  0.99999998245E-14  0.12500000000E+03  0.12500000000E+03 0.  0.
        -11    1    3    3    0    0 -0.41616169730E+02  0.20204456762E+02 -0.32900748967E+02  0.56767816048E+02  0.51100000000E-03 0.  1.
         23    2    1    0    0    0 -0.20725262729E+02 -0.49847077946E+01 -0.27925096926E+02  0.89868890349E+02  0.82717728373E+02 0.  0.
         11    1    3    3    0    0  0.20890907000E+02 -0.25189164557E+02  0.49756520418E+01  0.33101074301E+02  0.51100000000E-03 0. -1.
         22    1    1    0    0    0  0.20725262729E+02  0.49847077946E+01  0.27925096926E+02  0.35131109651E+02  0.00000000000E+00 0.  1.
</event>
<event>
 5    1  0.8902899E-005  0.9118800E+02  0.7818608E-02  0.1130116E+00
         25   -1    0    0    0    0  0.00000000000E+00  0.00000000000E+00  0.99999998245E-14  0.12500000000E+03  0.12500000000E+03 0.  0.
        -11    1    3    3    0    0 -0.62778178070E+01  0.40255641858E+02  0.43860092575E+02  0.59863473160E+02  0.51100000000E-03 0. -1.
         23    2    1    0    0    0  0.73729022146E+01  0.12832289969E+02  0.25325470544E+02  0.95667308150E+02  0.91059469784E+02 0.  0.
         11    1    3    3    0    0  0.13650720022E+02 -0.27423351889E+02 -0.18534622031E+02  0.35803834990E+02  0.51100000000E-03 0.  1.
         22    1    1    0    0    0 -0.73729022146E+01 -0.12832289969E+02 -0.25325470544E+02  0.29332691850E+02  0.00000000000E+00 0. -1.
</event>
<event>
 5    1  0.8902899E-005  0.9118800E+02  0.7818608E-02  0.1130116E+00
         25   -1    0    0    0    0  0.00000000000E+00  0.00000000000E+00  0.99999998245E-14  0.12500000000E+03  0.12500000000E+03 0.  0.
        -11    1    3    3    0    0  0.17017014829E+02 -0.31727332301E+02 -0.78036302698E+01  0.36838825365E+02  0.51100000000E-03 0. -1.
         23    2    1    0    0    0 -0.23826108149E+02  0.12912378030E+02  0.39648152598E+00  0.97897045669E+02  0.94070513006E+02 0.  0.
         11    1    3    3    0    0 -0.40843122977E+02  0.44639710331E+02  0.82001117958E+01  0.61058220304E+02  0.51100000000E-03 0.  1.
         22    1    1    0    0    0  0.23826108149E+02 -0.12912378030E+02 -0.39648152598E+00  0.27102954331E+02  0.00000000000E+00 0.  1.
</event>
<event>
 5    1  0.8902899E-005  0.9118800E+02  0.7818608E-02  0.1130116E+00
         25   -1    0    0    0    0  0.00000000000E+00  0.00000000000E+00  0.99999998245E-14  0.12500000000E+03  0.12500000000E+03 0.  0.
        -11    1    3    3    0    0  0.76325432438E+01 -0.12807242483E+02  0.44398985871E+02  0.46835361886E+02  0.51100000000E-03 0.  1.
         23    2    1    0    0    0  0.34483523100E+02 -0.14206295674E+02  0.23167234453E+02  0.81094955252E+02  0.68181660386E+02 0.  0.
         11    1    3    3    0    0  0.26850979856E+02 -0.13990531907E+01 -0.21231751418E+02  0.34259593366E+02  0.51100000000E-03 0. -1.
         22    1    1    0    0    0 -0.34483523100E+02  0.14206295674E+02 -0.23167234453E+02  0.43905044748E+02  0.00000000000E+00 0.  1.
</event>
<event>
 5    1  0.8902899E-005  0.9118800E+02  0.7818608E-02  0.1130116E+00
         25   -1    0    0    0    0  0.00000000000E+00  0.00000000000E+00  0.99999998245E-14  0.12500000000E+03  0.12500000000E+03 0.  0.
        -11    1    3    3    0    0 -0.13333379215E+02 -0.33144096562E+02 -0.28156832748E+02  0.45487551801E+02  0.51100000000E-03 0.  1.
         23    2    1    0    0    0  0.19631663722E+02 -0.21370032155E+02  0.70526657102E+01  0.95136634677E+02  0.90328061361E+02 0.  0.
         11    1    3    3    0    0  0.32965042937E+02  0.11774064407E+02  0.35209498458E+02  0.49649082876E+02  0.51100000000E-03 0. -1.
         22    1    1    0    0    0 -0.19631663722E+02  0.21370032155E+02 -0.70526657102E+01  0.29863365323E+02  0.00000000000E+00 0. -1.
</event>
<event>
 5    1  0.8902899E-005  0.9118800E+02  0.7818608E-02  0.1130116E+00
         25   -1    0    0    0    0  0.00000000000E+00  0.00000000000E+00  0.99999998245E-14  0.12500000000E+03  0.12500000000E+03 0.  0.
        -11    1    3    3    0    0 -0.85281228032E+01 -0.22920922707E+02 -0.22720843183E+02  0.33381646028E+02  0.51100000000E-03 0. -1.
         23    2    1    0    0    0 -0.28852119979E+02  0.21217320223E+02 -0.23822552192E+02  0.81986821814E+02  0.69797603493E+02 0.  0.
         11    1    3    3    0    0 -0.20323997176E+02  0.44138242930E+02 -0.11017090091E+01  0.48605175786E+02  0.51100000000E-03 0.  1.
         22    1    1    0    0    0  0.28852119979E+02 -0.21217320223E+02  0.23822552192E+02  0.43013178186E+02  0.00000000000E+00 0.  1.
</event>
<event>
 5    1  0.8902899E-005  0.9118800E+02  0.7818608E-02  0.1130116E+00
         25   -1    0    0    0    0  0.00000000000E+00  0.00000000000E+00  0.99999998245E-14  0.12500000000E+03  0.12500000000E+03 0.  0.
        -11    1    3    3    0    0 -0.69291226704E+01 -0.43567260855E+02 -0.17177816578E+02  0.47341275248E+02  0.51100000000E-03 0. -1.
         23    2    1    0    0    0  0.14842071534E+02 -0.21271020561E+02  0.17305655916E+02  0.93819411010E+02  0.88486455192E+02 0.  0.
         11    1    3    3    0    0  0.21771194205E+02  0.22296240295E+02  0.34483472494E+02  0.46478135762E+02  0.51100000000E-03 0.  1.
         22    1    1    0    0    0 -0.14842071534E+02  0.21271020561E+02 -0.17305655916E+02  0.31180588990E+02  0.00000000000E+00 0.  1.
</event>
<event>
 5    1  0.8902899E-005  0.9118800E+02  0.7818608E-02  0.1130116E+00
         25   -1    0    0    0    0  0.00000000000E+00  0.00000000000E+00  0.99999998245E-14  0.12500000000E+03  0.12500000000E+03 0.  0.
        -11    1    3    3    0    0 -0.41286835567E+02  0.27195927135E+02 -0.36507780045E+02  0.61457621561E+02  0.51100000000E-03 0.  1.
         23    2    1    0    0    0 -0.22441200496E+02  0.53078480231E+01 -0.17780344865E+02  0.95880910147E+02  0.91352216923E+02 0.  0.
         11    1    3    3    0    0  0.18845635071E+02 -0.21888079112E+02  0.18727435180E+02  0.34423288587E+02  0.51100000000E-03 0. -1.
         22    1    1    0    0    0  0.22441200496E+02 -0.53078480231E+01  0.17780344865E+02  0.29119089853E+02  0.00000000000E+00 0.  1.
</event>
<event>
 5    1  0.8902899E-005  0.9118800E+02  0.7818608E-02  0.1130116E+00
         25   -1    0    0    0    0  0.00000000000E+00  0.00000000000E+00  0.99999998245E-14  0.12500000000E+03  0.12500000000E+03 0.  0.
        -11    1    3    3    0    0  0.19155538277E+02 -0.31473003672E+02  0.31531654309E+02  0.48494637132E+02  0.51100000000E-03 0.  1.
         23    2    1    0    0    0 -0.19109609063E+02 -0.50943194280E+01  0.21007874644E+02  0.96147616285E+02  0.91716432940E+02 0.  0.
         11    1    3    3    0    0 -0.38265147341E+02  0.26378684244E+02 -0.10523779665E+02  0.47652979153E+02  0.51100000000E-03 0. -1.
         22    1    1    0    0    0  0.19109609063E+02  0.50943194280E+01 -0.21007874644E+02  0.28852383715E+02  0.00000000000E+00 0.  1.
</event>
<event>
 5    1  0.8902899E-005  0.9118800E+02  0.7818608E-02  0.1130116E+00
         25   -1    0    0    0    0  0.00000000000E+00  0.00000000000E+00  0.99999998245E-14  0.12500000000E+03  0.12500000000E+03 0.  0.
        -11    1    3    3    0    0 -0.64323224023E+01  0.20938334695E+02  0.49359803243E+02  0.54001655602E+02  0.51100000000E-03 0.  1.
         23    2    1    0    0    0 -0.31661632994E+01  0.27656553593E+02  0.79923388679E+01  0.96038179835E+02  0.91567160919E+02 0.  0.
         11    1    3    3    0    0  0.32661591029E+01  0.67182188989E+01 -0.41367464375E+02  0.42036524233E+02  0.51100000000E-03 0. -1.
         22    1    1    0    0    0  0.31661632994E+01 -0.27656553593E+02 -0.79923388679E+01  0.28961820165E+02  0.00000000000E+00 0.  1.
</event>
<event>
 5    1  0.8902899E-005  0.9118800E+02  0.7818608E-02  0.1130116E+00
         25   -1    0    0    0    0  0.00000000000E+00  0.00000000000E+00  0.99999998245E-14  0.12500000000E+03  0.12500000000E+03 0.  0.
        -11    1    3    3    0    0  0.19396757736E+02 -0.57929148628E+02  0.88320056372E+01  0.61725398299E+02  0.51100000000E-03 0. -1.
         23    2    1    0    0    0  0.15296153695E+02 -0.24807434537E+02  0.62005189339E+01  0.95203564623E+02  0.90420634568E+02 0.  0.
         11    1    3    3    0    0 -0.41006040410E+01  0.33121714091E+02 -0.26314867034E+01  0.33478166323E+02  0.51100000000E-03 0.  1.
         22    1    1    0    0    0 -0.15296153695E+02  0.24807434537E+02 -0.62005189339E+01  0.29796435377E+02  0.00000000000E+00 0. -1.
</event>
<event>
 5    1  0.8902899E-005  0.9118800E+02  0.7818608E-02  0.1130116E+00
         25   -1    0    0    0    0  0.00000000000E+00  0.00000000000E+00  0.99999998245E-14  0.12500000000E+03  0.12500000000E+03 0.  0.
        -11    1    3    3    0    0  0.12126708442E+02  0.43494912597E+02  0.23765234287E+02  0.51025982013E+02  0.51100000000E-03 0. -1.
         23    2    1    0    0    0  0.21451818701E+02  0.58661864084E+00  0.20923994747E+02  0.95027709411E+02  0.90177199738E+02 0.  0.
         11    1    3    3    0    0  0.93251102593E+01 -0.42908293956E+02 -0.28412395402E+01  0.44001727397E+02  0.51100000000E-03 0.  1.
         22    1    1    0    0    0 -0.21451818701E+02 -0.58661864084E+00 -0.20923994747E+02  0.29972290589E+02  0.00000000000E+00 0. -1.
</event>
<event>
 5    1  0.8902899E-005  0.9118800E+02  0.7818608E-02  0.1130116E+00
         25   -1    0    0    0    0  0.00000000000E+00  0.00000000000E+00  0.99999998245E-14  0.12500000000E+03  0.12500000000E+03 0.  0.
        -11    1    3    3    0    0  0.10651932518E+01 -0.31082600501E+02 -0.22562855836E+02  0.38423237166E+02  0.51100000000E-03 0. -1.
         23    2    1    0    0    0 -0.24992095138E+02  0.15650590762E+02 -0.31440163288E+01  0.95344804009E+02  0.90615677465E+02 0.  0.
         11    1    3    3    0    0 -0.26057288390E+02  0.46733191263E+02  0.19418839507E+02  0.56921566843E+02  0.51100000000E-03 0.  1.
         22    1    1    0    0    0  0.24992095138E+02 -0.15650590762E+02  0.31440163288E+01  0.29655195991E+02  0.00000000000E+00 0.  1.
</event>
<event>
 5    1  0.8902899E-005  0.9118800E+02  0.7818608E-02  0.1130116E+00
         25   -1    0    0    0    0  0.00000000000E+00  0.00000000000E+00  0.99999998245E-14  0.12500000000E+03  0.12500000000E+03 0.  0.
        -11    1    3    3    0    0 -0.21358544732E+02  0.24449098542E+02 -0.37848899564E+02  0.49864667361E+02  0.51100000000E-03 0.  1.
         23    2    1    0    0    0 -0.16956966839E+02 -0.16424848378E+02 -0.16588590176E+02  0.96146998550E+02  0.91715591028E+02 0.  0.
         11    1    3    3    0    0  0.44015778932E+01 -0.40873946920E+02  0.21260309388E+02  0.46282331189E+02  0.51100000000E-03 0. -1.
         22    1    1    0    0    0  0.16956966839E+02  0.16424848378E+02  0.16588590176E+02  0.28853001450E+02  0.00000000000E+00 0. -1.
</event>
<event>
 5    1  0.8902899E-005  0.9118800E+02  0.7818608E-02  0.1130116E+00
         25   -1    0    0    0    0  0.00000000000E+00  0.00000000000E+00  0.99999998245E-14  0.12500000000E+03  0.12500000000E+03 0.  0.
        -11    1    3    3    0    0  0.55891579959E+02  0.19133406947E+02 -0.10439928548E+02  0.59991233360E+02  0.51100000000E-03 0.  1.
         23    2    1    0    0    0  0.26864424761E+02  0.22937009798E+01 -0.15455540740E+02  0.93922160282E+02  0.88631484646E+02 0.  0.
         11    1    3    3    0    0 -0.29027155197E+02 -0.16839705967E+02 -0.50156121923E+01  0.33930926923E+02  0.51100000000E-03 0. -1.
         22    1    1    0    0    0 -0.26864424761E+02 -0.22937009798E+01  0.15455540740E+02  0.31077839718E+02  0.00000000000E+00 0.  1.
</event>
<event>
 5    1  0.8902899E-005  0.9118800E+02  0.7818608E-02  0.1130116E+00
         25   -1    0    0    0    0  0.00000000000E+00  0.00000000000E+00  0.99999998245E-14  0.12500000000E+03  0.12500000000E+03 0.  0.
        -11    1    3    3    0    0  0.59009927303E+01 -0.28977403111E+02 -0.17153389475E+02  0.34186991341E+02  0.51100000000E-03 0.  1.
         23    2    1    0    0    0 -0.14544245463E+01  0.19148500056E+02  0.21369691585E+02  0.96269456608E+02  0.91882338629E+02 0.  0.
         11    1    3    3    0    0 -0.73554172766E+01  0.48125903167E+02  0.38523081060E+02  0.62082465266E+02  0.51100000000E-03 0. -1.
         22    1    1    0    0    0  0.14544245463E+01 -0.19148500056E+02 -0.21369691585E+02  0.28730543392E+02  0.00000000000E+00 0. -1.
</event>
<event>
 5    1  0.8902899E-005  0.9118800E+02  0.7818608E-02  0.1130116E+00
         25   -1    0    0    0    0  0.00000000000E+00  0.00000000000E+00  0.99999998245E-14  0.12500000000E+03  0.12500000000E+03 0.  0.
        -11    1    3    3    0    0  0.23885984971E+02 -0.27445558926E+02  0.17043991564E+02  0.40178310461E+02  0.51100000000E-03 0.  1.
         23    2    1    0    0    0  0.66372961266E+01  0.25232612511E+02  0.13247865547E+02  0.95738346329E+02  0.91156933814E+02 0.  0.
         11    1    3    3    0    0 -0.17248688845E+02  0.52678171436E+02 -0.37961260168E+01  0.55560035869E+02  0.51100000000E-03 0. -1.
         22    1    1    0    0    0 -0.66372961266E+01 -0.25232612511E+02 -0.13247865547E+02  0.29261653671E+02  0.00000000000E+00 0.  1.
</event>
<event>
 5    1  0.8902899E-005  0.9118800E+02  0.7818608E-02  0.1130116E+00
         25   -1    0    0    0    0  0.00000000000E+00  0.00000000000E+00  0.99999998245E-14  0.12500000000E+03  0.12500000000E+03 0.  0.
        -11    1    3    3    0    0  0.15332842632E+01  0.45720711164E+02  0.37146938692E+02  0.58929020393E+02  0.51100000000E-03 0. -1.
         23    2    1    0    0    0 -0.83703666038E+01  0.30054658208E+02  0.91815841728E+01  0.92478514717E+02  0.86571523489E+02 0.  0.
         11    1    3    3    0    0 -0.99036508670E+01 -0.15666052956E+02 -0.27965354520E+02  0.33549494324E+02  0.51100000000E-03 0.  1.
         22    1    1    0    0    0  0.83703666038E+01 -0.30054658208E+02 -0.91815841728E+01  0.32521485283E+02  0.00000000000E+00 0. -1.
</event>
<event>
 5    1  0.8902899E-005  0.9118800E+02  0.7818608E-02  0.1130116E+00
         25   -1    0    0    0    0  0.00000000000E+00  0.00000000000E+00  0.99999998245E-14  0.12500000000E+03  0.12500000000E+03 0.  0.
        -11    1    3    3    0    0  0.64269812815E+01 -0.41822544484E+02 -0.30322486254E+02  0.52056550869E+02  0.51100000000E-03 0.  1.
         23    2    1    0    0    0  0.25127496020E+02 -0.14666290949E+02 -0.27191289716E+02  0.85177175102E+02  0.75294712799E+02 0.  0.
         11    1    3    3    0    0  0.18700514738E+02  0.27156253536E+02  0.31311965379E+01  0.33120624233E+02  0.51100000000E-03 0. -1.
         22    1    1    0    0    0 -0.25127496020E+02  0.14666290949E+02  0.27191289716E+02  0.39822824898E+02  0.00000000000E+00 0. -1.
</event>
<event>
 5    1  0.8902899E-005  0.9118800E+02  0.7818608E-02  0.1130116E+00
         25   -1    0    0    0    0  0.00000000000E+00  0.00000000000E+00  0.99999998245E-14  0.12500000000E+03  0.12500000000E+03 0.  0.
        -11    1    3    3    0    0  0.48419397670E+02  0.51271284759E+01  0.38955326284E+02  0.62355777305E+02  0.51100000000E-03 0. -1.
         23    2    1    0    0    0  0.24985956475E+02  0.11584894557E+00  0.17792304295E+02  0.94326272902E+02  0.89199597676E+02 0.  0.
         11    1    3    3    0    0 -0.23433441195E+02 -0.50112795303E+01 -0.21163021989E+02  0.31970495597E+02  0.51100000000E-03 0.  1.
         22    1    1    0    0    0 -0.24985956475E+02 -0.11584894557E+00 -0.17792304295E+02  0.30673727098E+02  0.00000000000E+00 0. -1.
</event>
<event>
 5    1  0.8902899E-005  0.9118800E+02  0.7818608E-02  0.1130116E+00
         25   -1    0    0    0    0  0.00000000000E+00  0.00000000000E+00  0.99999998245E-14  0.12500000000E+03  0.12500000000E+03 0.  0.
        -11    1    3    3    0    0  0.31689866274E+02  0.14554152102E+02  0.16912096956E+02  0.38756805746E+02  0.51100000000E-03 0. -1.
         23    2    1    0    0    0 -0.13390420992E+02 -0.22408931928E+02  0.27373586754E+01  0.98752014610E+02  0.95199809099E+02 0.  0.
         11    1    3    3    0    0 -0.45080287266E+02 -0.36963084031E+02 -0.14174738280E+02  0.59995208864E+02  0.51100000000E-03 0.  1.
         22    1    1    0    0    0  0.13390420992E+02  0.22408931928E+02 -0.27373586754E+01  0.26247985390E+02  0.00000000000E+00 0.  1.
</event>
<event>
 5    1  0.8902899E-005  0.9118800E+02  0.7818608E-02  0.1130116E+00
         25   -1    0    0    0    0  0.00000000000E+00  0.00000000000E+00  0.99999998245E-14  0.12500000000E+03  0.12500000000E+03 0.  0.
        -11    1    3    3    0    0  0.21270350478E+02  0.49144769160E+02 -0.24303581102E+02  0.58807314170E+02  0.51100000000E-03 0. -1.
         23    2    1    0    0    0  0.30961861026E+00  0.17289114606E+02 -0.22010665375E+02  0.97009309802E+02  0.92883407832E+02 0.  0.
         11    1    3    3    0    0 -0.20960731867E+02 -0.31855654554E+02  0.22929157270E+01  0.38201995632E+02  0.51100000000E-03 0.  1.
         22    1    1    0    0    0 -0.30961861026E+00 -0.17289114606E+02  0.22010665375E+02  0.27990690198E+02  0.00000000000E+00 0. -1.
</event>
<event>
 5    1  0.8902899E-005  0.9118800E+02  0.7818608E-02  0.1130116E+00
         25   -1    0    0    0    0  0.00000000000E+00  0.00000000000E+00  0.99999998245E-14  0.12500000000E+03  0.12500000000E+03 0.  0.
        -11    1    3    3    0    0  0.54615258596E+02 -0.24873772026E+01  0.13302145224E+02  0.56266869334E+02  0.51100000000E-03 0. -1.
         23    2    1    0    0    0  0.20846001736E+02  0.17132673408E+02  0.12327762968E+02  0.95334228035E+02  0.90601087238E+02 0.  0.
         11    1    3    3    0    0 -0.33769256860E+02  0.19620050610E+02 -0.97438225562E+00  0.39067358701E+02  0.51100000000E-03 0.  1.
         22    1    1    0    0    0 -0.20846001736E+02 -0.17132673408E+02 -0.12327762968E+02  0.29665771965E+02  0.00000000000E+00 0. -1.
</event>
<event>
 5    1  0.8902899E-005  0.9118800E+02  0.7818608E-02  0.1130116E+00
         25   -1    0    0    0    0  0.00000000000E+00  0.00000000000E+00  0.99999998245E-14  0.12500000000E+03  0.12500000000E+03 0.  0.
        -11    1    3    3    0    0  0.55184265444E+01  0.10289984603E+02 -0.54710060540E+02  0.55942180322E+02  0.51100000000E-03 0. -1.
         23    2    1    0    0    0  0.16830562180E+02 -0.94570609785E+01 -0.23039309212E+02  0.94941497133E+02  0.90057616464E+02 0.  0.
         11    1    3    3    0    0  0.11312135635E+02 -0.19747045581E+02  0.31670751327E+02  0.38999316811E+02  0.51100000000E-03 0.  1.
         22    1    1    0    0    0 -0.16830562180E+02  0.94570609785E+01  0.23039309212E+02  0.30058502867E+02  0.00000000000E+00 0. -1.
</event>
<event>
 5    1  0.8902899E-005  0.9118800E+02  0.7818608E-02  0.1130116E+00
         25   -1    0    0    0    0  0.00000000000E+00  0.00000000000E+00  0.99999998245E-14  0.12500000000E+03  0.12500000000E+03 0.  0.
        -11    1    3    3    0    0  0.29148037995E+02  0.10309898767E+02  0.35028620976E+02  0.46721584084E+02  0.51100000000E-03 0. -1.
         23    2    1    0    0    0  0.17337161504E+02  0.21408825047E+02 -0.10859982788E+02  0.95388276222E+02  0.90675625476E+02 0.  0.
         11    1    3    3    0    0 -0.11810876491E+02  0.11098926281E+02 -0.45888603764E+02  0.48666692139E+02  0.51100000000E-03 0.  1.
         22    1    1    0    0    0 -0.17337161504E+02 -0.21408825047E+02  0.10859982788E+02  0.29611723778E+02  0.00000000000E+00 0.  1.
</event>
<event>
 5    1  0.8902899E-005  0.9118800E+02  0.7818608E-02  0.1130116E+00
         25   -1    0    0    0    0  0.00000000000E+00  0.00000000000E+00  0.99999998245E-14  0.12500000000E+03  0.12500000000E+03 0.  0.
        -11    1    3    3    0    0  0.49127133006E+02  0.87811560285E+01  0.33844235949E+02  0.60299388105E+02  0.51100000000E-03 0. -1.
         23    2    1    0    0    0  0.12789409514E+02 -0.25276513015E+01  0.20651145205E+02  0.10057812835E+03  0.97568089489E+02 0.  0.
         11    1    3    3    0    0 -0.36337723492E+02 -0.11308807330E+02 -0.13193090744E+02  0.40278740242E+02  0.51100000000E-03 0.  1.
         22    1    1    0    0    0 -0.12789409514E+02  0.25276513015E+01 -0.20651145205E+02  0.24421871654E+02  0.00000000000E+00 0. -1.
</event>
<event>
 5    1  0.8902899E-005  0.9118800E+02  0.7818608E-02  0.1130116E+00
         25   -1    0    0    0    0  0.00000000000E+00  0.00000000000E+00  0.99999998245E-14  0.12500000000E+03  0.12500000000E+03 0.  0.
        -11    1    3    3    0    0 -0.46180105646E+02  0.85118608587E+01 -0.38524057445E+02  0.60738430462E+02  0.51100000000E-03 0. -1.
         23    2    1    0    0    0 -0.28348274295E+02 -0.19719601068E+00 -0.11176984138E+02  0.94527249613E+02  0.89480793487E+02 0.  0.
         11    1    3    3    0    0  0.17831831351E+02 -0.87090568694E+01  0.27347073306E+02  0.33788819150E+02  0.51100000000E-03 0.  1.
         22    1    1    0    0    0  0.28348274295E+02  0.19719601068E+00  0.11176984138E+02  0.30472750387E+02  0.00000000000E+00 0. -1.
</event>
<event>
 5    1  0.8902899E-005  0.9118800E+02  0.7818608E-02  0.1130116E+00
         25   -1    0    0    0    0  0.00000000000E+00  0.00000000000E+00  0.99999998245E-14  0.12500000000E+03  0.12500000000E+03 0.  0.
        -11    1    3    3    0    0  0.16990069787E+02 -0.44593115710E+02  0.24824697690E+02  0.53791022074E+02  0.51100000000E-03 0.  1.
         23    2    1    0    0    0  0.22099801611E+02 -0.14697582746E+02 -0.67930855790E+01  0.97603537062E+02  0.93679689717E+02 0.  0.
         11    1    3    3    0    0  0.51097318239E+01  0.29895532963E+02 -0.31617783269E+02  0.43812514988E+02  0.51100000000E-03 0. -1.
         22    1    1    0    0    0 -0.22099801611E+02  0.14697582746E+02  0.67930855790E+01  0.27396462938E+02  0.00000000000E+00 0. -1.
</event>
<event>
 5    1  0.8902899E-005  0.9118800E+02  0.7818608E-02  0.1130116E+00
         25   -1    0    0    0    0  0.00000000000E+00  0.00000000000E+00  0.99999998245E-14  0.12500000000E+03  0.12500000000E+03 0.  0.
        -11    1    3    3    0    0 -0.10462757965E+02  0.87020623498E+01 -0.38687737287E+02  0.41011415606E+02  0.51100000000E-03 0. -1.
         23    2    1    0    0    0 -0.27837168541E+01 -0.28986212937E+02  0.43862207784E+00  0.95877122235E+02  0.91347033662E+02 0.  0.
         11    1    3    3    0    0  0.76790411114E+01 -0.37688275287E+02  0.39126359365E+02  0.54865706629E+02  0.51100000000E-03 0.  1.
         22    1    1    0    0    0  0.27837168541E+01  0.28986212937E+02 -0.43862207784E+00  0.29122877765E+02  0.00000000000E+00 0. -1.
</event>
<event>
 5    1  0.8902899E-005  0.9118800E+02  0.7818608E-02  0.1130116E+00
         25   -1    0    0    0    0  0.00000000000E+00  0.00000000000E+00  0.99999998245E-14  0.12500000000E+03  0.12500000000E+03 0.  0.
        -11    1    3    3    0    0 -0.13626922805E+02 -0.35515457637E+01 -0.60727558072E+02  0.62338934961E+02  0.51100000000E-03 0.  1.
         23    2    1    0    0    0 -0.79904786955E+01 -0.37357830424E+01 -0.25441421641E+02  0.98072880587E+02  0.94303871325E+02 0.  0.
         11    1    3    3    0    0  0.56364441096E+01 -0.18423727870E+00  0.35286136430E+02  0.35733945626E+02  0.51100000000E-03 0. -1.
         22    1    1    0    0    0  0.79904786955E+01  0.37357830424E+01  0.25441421641E+02  0.26927119413E+02  0.00000000000E+00 0.  1.
</event>
<event>
 5    1  0.8902899E-005  0.9118800E+02  0.7818608E-02  0.1130116E+00
         25   -1    0    0    0    0  0.00000000000E+00  0.00000000000E+00  0.99999998245E-14  0.12500000000E+03  0.12500000000E+03 0.  0.
        -11    1    3    3    0    0 -0.37332312864E+02 -0.25984396353E+02 -0.27038243442E+02  0.52914620345E+02  0.51100000000E-03 0.  1.
         23    2    1    0    0    0  0.50074470911E+01 -0.15314623447E+02 -0.23209874730E+02  0.96745610913E+02  0.92527848392E+02 0.  0.
         11    1    3    3    0    0  0.42339759955E+02  0.10669772905E+02  0.38283687120E+01  0.43830990567E+02  0.51100000000E-03 0. -1.
         22    1    1    0    0    0 -0.50074470911E+01  0.15314623447E+02  0.23209874730E+02  0.28254389087E+02  0.00000000000E+00 0. -1.
</event>
<event>
 5    1  0.8902899E-005  0.9118800E+02  0.7818608E-02  0.1130116E+00
         25   -1    0    0    0    0  0.00000000000E+00  0.00000000000E+00  0.99999998245E-14  0.12500000000E+03  0.12500000000E+03 0.  0.
        -11    1    3    3    0    0 -0.31688908154E+02 -0.32017682172E+02 -0.42923692203E+02  0.62223486115E+02  0.51100000000E-03 0. -1.
         23    2    1    0    0    0 -0.13838546247E+02 -0.18675883311E+02 -0.18448940759E+02  0.95324127733E+02  0.90587151038E+02 0.  0.
         11    1    3    3    0    0  0.17850361906E+02  0.13341798861E+02  0.24474751444E+02  0.33100641618E+02  0.51100000000E-03 0.  1.
         22    1    1    0    0    0  0.13838546247E+02  0.18675883311E+02  0.18448940759E+02  0.29675872267E+02  0.00000000000E+00 0. -1.
</event>
<event>
 5    1  0.8902899E-005  0.9118800E+02  0.7818608E-02  0.1130116E+00
         25   -1    0    0    0    0  0.00000000000E+00  0.00000000000E+00  0.99999998245E-14  0.12500000000E+03  0.12500000000E+03 0.  0.
        -11    1    3    3    0    0  0.25502098239E+02  0.10775345994E+02  0.29356054840E+02  0.40351493800E+02  0.51100000000E-03 0.  1.
         23    2    1    0    0    0  0.14851518799E+02 -0.16820332144E+02 -0.18032093208E+02  0.96213760761E+02  0.91806536751E+02 0.  0.
         11    1    3    3    0    0 -0.10650579440E+02 -0.27595678138E+02 -0.47388148048E+02  0.55862266961E+02  0.51100000000E-03 0. -1.
         22    1    1    0    0    0 -0.14851518799E+02  0.16820332144E+02  0.18032093208E+02  0.28786239239E+02  0.00000000000E+00 0. -1.
</event>
<event>
 5    1  0.8902899E-005  0.9118800E+02  0.7818608E-02  0.1130116E+00
         25   -1    0    0    0    0  0.00000000000E+00  0.00000000000E+00  0.99999998245E-14  0.12500000000E+03  0.12500000000E+03 0.  0.
        -11    1    3    3    0    0  0.29010741248E+02 -0.37495282022E+02 -0.32560341738E+02  0.57512565027E+02  0.51100000000E-03 0. -1.
         23    2    1    0    0    0 -0.38659104063E+00 -0.27891339199E+02 -0.12098648094E+02  0.94595172412E+02  0.89575627840E+02 0.  0.
         11    1    3    3    0    0 -0.29397332289E+02  0.96039428221E+01  0.20461693644E+02  0.37082607385E+02  0.51100000000E-03 0.  1.
         22    1    1    0    0    0  0.38659104063E+00  0.27891339199E+02  0.12098648094E+02  0.30404827588E+02  0.00000000000E+00 0. -1.
</event>
<event>
 5    1  0.8902899E-005  0.9118800E+02  0.7818608E-02  0.1130116E+00
         25   -1    0    0    0    0  0.00000000000E+00  0.00000000000E+00  0.99999998245E-14  0.12500000000E+03  0.12500000000E+03 0.  0.
        -11    1    3    3    0    0  0.54382838264E+02  0.16049368733E+02 -0.26113841570E+02  0.62426020666E+02  0.51100000000E-03 0. -1.
         23    2    1    0    0    0  0.27874925202E+02  0.60228752577E+01 -0.12661419734E+02  0.93797467554E+02  0.88455451434E+02 0.  0.
         11    1    3    3    0    0 -0.26507913062E+02 -0.10026493475E+02  0.13452421836E+02  0.31371446888E+02  0.51100000000E-03 0.  1.
         22    1    1    0    0    0 -0.27874925202E+02 -0.60228752577E+01  0.12661419734E+02  0.31202532446E+02  0.00000000000E+00 0. -1.
</event>
<event>
 5    1  0.8902899E-005  0.9118800E+02  0.7818608E-02  0.1130116E+00
         25   -1    0    0    0    0  0.00000000000E+00  0.00000000000E+00  0.99999998245E-14  0.12500000000E+03  0.12500000000E+03 0.  0.
        -11    1    3    3    0    0  0.30324069191E+02 -0.34732728369E+02 -0.33541945501E+02  0.57017310534E+02  0.51100000000E-03 0.  1.
         23    2    1    0    0    0  0.30995209835E+02 -0.14188362324E+02 -0.76725660157E+01  0.90058893443E+02  0.83004357481E+02 0.  0.
         11    1    3    3    0    0  0.67114064342E+00  0.20544366045E+02  0.25869379485E+02  0.33041582909E+02  0.51100000000E-03 0. -1.
         22    1    1    0    0    0 -0.30995209835E+02  0.14188362324E+02  0.76725660157E+01  0.34941106557E+02  0.00000000000E+00 0.  1.
</event>
<event>
 5    1  0.8902899E-005  0.9118800E+02  0.7818608E-02  0.1130116E+00
         25   -1    0    0    0    0  0.00000000000E+00  0.00000000000E+00  0.99999998245E-14  0.12500000000E+03  0.12500000000E+03 0.  0.
        -11    1    3    3    0    0  0.26758690252E+02 -0.14482128183E+02  0.23121649360E+02  0.38214790462E+02  0.51100000000E-03 0.  1.
         23    2    1    0    0    0  0.13984482894E+01  0.29944874534E+02 -0.14950612424E+01  0.94985230692E+02  0.90118298215E+02 0.  0.
         11    1    3    3    0    0 -0.25360241962E+02  0.44427002717E+02 -0.24616710603E+02  0.56770440230E+02  0.51100000000E-03 0. -1.
         22    1    1    0    0    0 -0.13984482894E+01 -0.29944874534E+02  0.14950612424E+01  0.30014769308E+02  0.00000000000E+00 0. -1.
</event>
<event>
 5    1  0.8902899E-005  0.9118800E+02  0.7818608E-02  0.1130116E+00
         25   -1    0    0    0    0  0.00000000000E+00  0.00000000000E+00  0.99999998245E-14  0.12500000000E+03  0.12500000000E+03 0.  0.
        -11    1    3    3    0    0 -0.48242518638E+01 -0.48809566713E+02 -0.12205329612E+02  0.50543221899E+02  0.51100000000E-03 0. -1.
         23    2    1    0    0    0  0.81033652252E+01 -0.77445809963E+01 -0.26758790128E+02  0.95988348687E+02  0.91499110224E+02 0.  0.
         11    1    3    3    0    0  0.12927617089E+02  0.41064985717E+02 -0.14553460516E+02  0.45445126788E+02  0.51100000000E-03 0.  1.
         22    1    1    0    0    0 -0.81033652252E+01  0.77445809963E+01  0.26758790128E+02  0.29011651313E+02  0.00000000000E+00 0. -1.
</event>
<event>
 5    1  0.8902899E-005  0.9118800E+02  0.7818608E-02  0.1130116E+00
         25   -1    0    0    0    0  0.00000000000E+00  0.00000000000E+00  0.99999998245E-14  0.12500000000E+03  0.12500000000E+03 0.  0.
        -11    1    3    3    0    0 -0.48007105096E+02 -0.15925412521E+02  0.98114471114E+01  0.51522474692E+02  0.51100000000E-03 0.  1.
         23    2    1    0    0    0 -0.30808333143E+02  0.17350186292E+02  0.51546749512E+01  0.89268318970E+02  0.81805132739E+02 0.  0.
         11    1    3    3    0    0  0.17198771953E+02  0.33275598812E+02 -0.46567721602E+01  0.37745844278E+02  0.51100000000E-03 0. -1.
         22    1    1    0    0    0  0.30808333143E+02 -0.17350186292E+02 -0.51546749512E+01  0.35731681030E+02  0.00000000000E+00 0.  1.
</event>
<event>
 5    1  0.8902899E-005  0.9118800E+02  0.7818608E-02  0.1130116E+00
         25   -1    0    0    0    0  0.00000000000E+00  0.00000000000E+00  0.99999998245E-14  0.12500000000E+03  0.12500000000E+03 0.  0.
        -11    1    3    3    0    0 -0.40601004635E+02 -0.15864133558E+02 -0.67384668128E+01  0.44108040606E+02  0.51100000000E-03 0.  1.
         23    2    1    0    0    0 -0.10347791365E+02  0.10650835354E+02  0.25386514740E+02  0.95589250086E+02  0.90952254076E+02 0.  0.
         11    1    3    3    0    0  0.30253213269E+02  0.26514968912E+02  0.32124981552E+02  0.51481209480E+02  0.51100000000E-03 0. -1.
         22    1    1    0    0    0  0.10347791365E+02 -0.10650835354E+02 -0.25386514740E+02  0.29410749914E+02  0.00000000000E+00 0. -1.
</event>
<event>
 5    1  0.8902899E-005  0.9118800E+02  0.7818608E-02  0.1130116E+00
         25   -1    0    0    0    0  0.00000000000E+00  0.00000000000E+00  0.99999998245E-14  0.12500000000E+03  0.12500000000E+03 0.  0.
        -11    1    3    3    0    0 -0.34560093324E+02 -0.18162296910E+02 -0.37702932293E+02  0.54275041993E+02  0.51100000000E-03 0. -1.
         23    2    1    0    0    0 -0.26335937494E+02 -0.74026159878E+01  0.32892698572E+01  0.97446422676E+02  0.93469811539E+02 0.  0.
         11    1    3    3    0    0  0.82241558300E+01  0.10759680922E+02  0.40992202150E+02  0.43171380683E+02  0.51100000000E-03 0.  1.
         22    1    1    0    0    0  0.26335937494E+02  0.74026159878E+01 -0.32892698572E+01  0.27553577324E+02  0.00000000000E+00 0.  1.
</event>
<event>
 5    1  0.8902899E-005  0.9118800E+02  0.7818608E-02  0.1130116E+00
         25   -1    0    0    0    0  0.00000000000E+00  0.00000000000E+00  0.99999998245E-14  0.12500000000E+03  0.12500000000E+03 0.  0.
        -11    1    3    3    0    0 -0.51083493381E+01 -0.46324950446E+02  0.41285649684E+02  0.62262357302E+02  0.51100000000E-03 0. -1.
         23    2    1    0    0    0  0.86827068807E+00 -0.21217401031E+02  0.21483180568E+02  0.94793062919E+02  0.89851353522E+02 0.  0.
         11    1    3    3    0    0  0.59766200262E+01  0.25107549415E+02 -0.19802469116E+02  0.32530705617E+02  0.51100000000E-03 0.  1.
         22    1    1    0    0    0 -0.86827068807E+00  0.21217401031E+02 -0.21483180568E+02  0.30206937081E+02  0.00000000000E+00 0. -1.
</event>
<event>
 5    1  0.8902899E-005  0.9118800E+02  0.7818608E-02  0.1130116E+00
         25   -1    0    0    0    0  0.00000000000E+00  0.00000000000E+00  0.99999998245E-14  0.12500000000E+03  0.12500000000E+03 0.  0.
        -11    1    3    3    0    0  0.19963265402E+02  0.48176111364E+02  0.46181299254E+01  0.52352619762E+02  0.51100000000E-03 0.  1.
         23    2    1    0    0    0  0.27532979437E+02  0.54096788970E+01  0.77304961943E+01  0.95895186758E+02  0.91371749953E+02 0.  0.
         11    1    3    3    0    0  0.75697140347E+01 -0.42766432467E+02  0.31123662689E+01  0.43542566996E+02  0.51100000000E-03 0. -1.
         22    1    1    0    0    0 -0.27532979437E+02 -0.54096788970E+01 -0.77304961943E+01  0.29104813242E+02  0.00000000000E+00 0.  1.
</event>
<event>
 5    1  0.8902899E-005  0.9118800E+02  0.7818608E-02  0.1130116E+00
         25   -1    0    0    0    0  0.00000000000E+00  0.00000000000E+00  0.99999998245E-14  0.12500000000E+03  0.12500000000E+03 0.  0.
        -11    1    3    3    0    0  0.24302388733E+01 -0.29100112242E+02  0.29663151596E+02  0.41624814190E+02  0.51100000000E-03 0. -1.
         23    2    1    0    0    0 -0.15810202984E+02  0.19725662992E+02  0.14263896249E+02  0.95973752652E+02  0.91479167918E+02 0.  0.
         11    1    3    3    0    0 -0.18240441858E+02  0.48825775235E+02 -0.15399255347E+02  0.54348938462E+02  0.51100000000E-03 0.  1.
         22    1    1    0    0    0  0.15810202984E+02 -0.19725662992E+02 -0.14263896249E+02  0.29026247348E+02  0.00000000000E+00 0.  1.
</event>
<event>
 5    1  0.8902899E-005  0.9118800E+02  0.7818608E-02  0.1130116E+00
         25   -1    0    0    0    0  0.00000000000E+00  0.00000000000E+00  0.99999998245E-14  0.12500000000E+03  0.12500000000E+03 0.  0.
        -11    1    3    3    0    0  0.22549974565E+02  0.20076581615E+02 -0.57935878372E+01  0.30743066576E+02  0.51100000000E-03 0. -1.
         23    2    1    0    0    0 -0.16425038832E+02 -0.25630800710E+02  0.10183141311E+02  0.92899903230E+02  0.87177840117E+02 0.  0.
         11    1    3    3    0    0 -0.38975013397E+02 -0.45707382325E+02  0.15976729148E+02  0.62156836654E+02  0.51100000000E-03 0.  1.
         22    1    1    0    0    0  0.16425038832E+02  0.25630800710E+02 -0.10183141311E+02  0.32100096770E+02  0.00000000000E+00 0.  1.
</event>
<event>
 5    1  0.8902899E-005  0.9118800E+02  0.7818608E-02  0.1130116E+00
         25   -1    0    0    0    0  0.00000000000E+00  0.00000000000E+00  0.99999998245E-14  0.12500000000E+03  0.12500000000E+03 0.  0.
        -11    1    3    3    0    0 -0.31218159453E+02  0.58470130569E+01 -0.47836712418E+02  0.57420484990E+02  0.51100000000E-03 0.  1.
         23    2    1    0    0    0 -0.11361820095E+01  0.15085993001E+02 -0.22815921699E+02  0.97624018240E+02  0.93707014465E+02 0.  0.
         11    1    3    3    0    0  0.30081977443E+02  0.92389799440E+01  0.25020790719E+02  0.40203533250E+02  0.51100000000E-03 0. -1.
         22    1    1    0    0    0  0.11361820095E+01 -0.15085993001E+02  0.22815921699E+02  0.27375981760E+02  0.00000000000E+00 0.  1.
</event>
<event>
 5    1  0.8902899E-005  0.9118800E+02  0.7818608E-02  0.1130116E+00
         25   -1    0    0    0    0  0.00000000000E+00  0.00000000000E+00  0.99999998245E-14  0.12500000000E+03  0.12500000000E+03 0.  0.
        -11    1    3    3    0    0  0.51603569721E+02 -0.25869254536E+01 -0.21075938269E+02  0.55801574937E+02  0.51100000000E-03 0. -1.
         23    2    1    0    0    0  0.21654552843E+02 -0.21459978059E+02 -0.10687768372E+02  0.92693983379E+02  0.86882080113E+02 0.  0.
         11    1    3    3    0    0 -0.29949016878E+02 -0.18873052606E+02  0.10388169898E+02  0.36892408443E+02  0.51100000000E-03 0.  1.
         22    1    1    0    0    0 -0.21654552843E+02  0.21459978059E+02  0.10687768372E+02  0.32306016621E+02  0.00000000000E+00 0. -1.
</event>
<event>
 5    1  0.8902899E-005  0.9118800E+02  0.7818608E-02  0.1130116E+00
         25   -1    0    0    0    0  0.00000000000E+00  0.00000000000E+00  0.99999998245E-14  0.12500000000E+03  0.12500000000E+03 0.  0.
        -11    1    3    3    0    0 -0.35884147498E+02 -0.17740958437E+02 -0.45213488492E+02  0.60387690714E+02  0.51100000000E-03 0.  1.
         23    2    1    0    0    0 -0.24588290883E+02 -0.87984054977E+01 -0.12678196912E+02  0.95970141840E+02  0.91474233859E+02 0.  0.
         11    1    3    3    0    0  0.11295856615E+02  0.89425529396E+01  0.32535291579E+02  0.35582451126E+02  0.51100000000E-03 0. -1.
         22    1    1    0    0    0  0.24588290883E+02  0.87984054977E+01  0.12678196912E+02  0.29029858160E+02  0.00000000000E+00 0.  1.
</event>
<event>
 5    1  0.8902899E-005  0.9118800E+02  0.7818608E-02  0.1130116E+00
         25   -1    0    0    0    0  0.00000000000E+00  0.00000000000E+00  0.99999998245E-14  0.12500000000E+03  0.12500000000E+03 0.  0.
        -11    1    3    3    0    0  0.35494330824E+01 -0.13233054221E+02  0.59502060495E+02  0.61059048491E+02  0.51100000000E-03 0.  1.
         23    2    1    0    0    0  0.87426175181E+01  0.33277961806E+00  0.25754914426E+02  0.97799637495E+02  0.93940988784E+02 0.  0.
         11    1    3    3    0    0  0.51931844358E+01  0.13565833839E+02 -0.33747146069E+02  0.36740589004E+02  0.51100000000E-03 0. -1.
         22    1    1    0    0    0 -0.87426175181E+01 -0.33277961806E+00 -0.25754914426E+02  0.27200362505E+02  0.00000000000E+00 0.  1.
</event>
<event>
 5    1  0.8902899E-005  0.9118800E+02  0.7818608E-02  0.1130116E+00
         25   -1    0    0    0    0  0.00000000000E+00  0.00000000000E+00  0.99999998245E-14  0.12500000000E+03  0.12500000000E+03 0.  0.
        -11    1    3    3    0    0  0.40127529225E+02  0.70075489616E+01 -0.23867798982E+02  0.47212246003E+02  0.51100000000E-03 0. -1.
         23    2    1    0    0    0 -0.72740512256E+01  0.80158604011E+01 -0.28172547993E+02  0.94819570917E+02  0.89888223530E+02 0.  0.
         11    1    3    3    0    0 -0.47401580451E+02  0.10083114395E+01 -0.43047490110E+01  0.47607324914E+02  0.51100000000E-03 0.  1.
         22    1    1    0    0    0  0.72740512256E+01 -0.80158604011E+01  0.28172547993E+02  0.30180429083E+02  0.00000000000E+00 0. -1.
</event>
<event>
 5    1  0.8902899E-005  0.9118800E+02  0.7818608E-02  0.1130116E+00
         25   -1    0    0    0    0  0.00000000000E+00  0.00000000000E+00  0.99999998245E-14  0.12500000000E+03  0.12500000000E+03 0.  0.
        -11    1    3    3    0    0 -0.35980966249E+02  0.18872883795E+02  0.40064089183E+01  0.40827282393E+02  0.51100000000E-03 0. -1.
         23    2    1    0    0    0  0.20774933953E+01  0.14732662911E+02 -0.29666185294E+02  0.91811901453E+02  0.85603594336E+02 0.  0.
         11    1    3    3    0    0  0.38058459644E+02 -0.41402208834E+01 -0.33672594212E+02  0.50984619060E+02  0.51100000000E-03 0.  1.
         22    1    1    0    0    0 -0.20774933953E+01 -0.14732662911E+02  0.29666185294E+02  0.33188098547E+02  0.00000000000E+00 0. -1.
</event>
<event>
 5    1  0.8902899E-005  0.9118800E+02  0.7818608E-02  0.1130116E+00
         25   -1    0    0    0    0  0.00000000000E+00  0.00000000000E+00  0.99999998245E-14  0.12500000000E+03  0.12500000000E+03 0.  0.
        -11    1    3    3    0    0  0.41537476799E+02 -0.32996188974E+02 -0.50667854207E+01  0.53289612313E+02  0.51100000000E-03 0.  1.
         23    2    1    0    0    0  0.23574417739E+01 -0.32089338878E+02 -0.47064085134E+01  0.92481797675E+02  0.86576263599E+02 0.  0.
         11    1    3    3    0    0 -0.39180035026E+02  0.90685009543E+00  0.36037690731E+00  0.39192185362E+02  0.51100000000E-03 0. -1.
         22    1    1    0    0    0 -0.23574417739E+01  0.32089338878E+02  0.47064085134E+01  0.32518202325E+02  0.00000000000E+00 0.  1.
</event>
<event>
 5    1  0.8902899E-005  0.9118800E+02  0.7818608E-02  0.1130116E+00
         25   -1    0    0    0    0  0.00000000000E+00  0.00000000000E+00  0.99999998245E-14  0.12500000000E+03  0.12500000000E+03 0.  0.
        -11    1    3    3    0    0  0.36397713071E+01  0.13348253084E+01 -0.46427458435E+02  0.46589039384E+02  0.51100000000E-03 0.  1.
         23    2    1    0    0    0 -0.18001672014E+02 -0.15329340902E+02  0.10167911124E+01  0.10133393248E+03  0.98531635120E+02 0.  0.
         11    1    3    3    0    0 -0.21641443321E+02 -0.16664166211E+02  0.47444249547E+02  0.54744893094E+02  0.51100000000E-03 0. -1.
         22    1    1    0    0    0  0.18001672014E+02  0.15329340902E+02 -0.10167911124E+01  0.23666067522E+02  0.00000000000E+00 0.  1.
</event>
<event>
 5    1  0.8902899E-005  0.9118800E+02  0.7818608E-02  0.1130116E+00
         25   -1    0    0    0    0  0.00000000000E+00  0.00000000000E+00  0.99999998245E-14  0.12500000000E+03  0.12500000000E+03 0.  0.
        -11    1    3    3    0    0 -0.21870317635E+02  0.20647783933E+02 -0.12253803789E+02  0.32477645887E+02  0.51100000000E-03 0. -1.
         23    2    1    0    0    0  0.23290644708E+02 -0.10999792582E+02  0.16240242910E+02  0.94550122208E+02  0.89512739607E+02 0.  0.
         11    1    3    3    0    0  0.45160962343E+02 -0.31647576515E+02  0.28494046699E+02  0.62072476321E+02  0.51100000000E-03 0.  1.
         22    1    1    0    0    0 -0.23290644708E+02  0.10999792582E+02 -0.16240242910E+02  0.30449877792E+02  0.00000000000E+00 0.  1.
</event>
<event>
 5    1  0.8902899E-005  0.9118800E+02  0.7818608E-02  0.1130116E+00
         25   -1    0    0    0    0  0.00000000000E+00  0.00000000000E+00  0.99999998245E-14  0.12500000000E+03  0.12500000000E+03 0.  0.
        -11    1    3    3    0    0 -0.18566236756E+01  0.30175277088E+02 -0.29724844805E+02  0.42397650852E+02  0.51100000000E-03 0.  1.
         23    2    1    0    0    0  0.23405666327E+02  0.12853591051E+02  0.13265274443E+02  0.95183770775E+02  0.90393266861E+02 0.  0.
         11    1    3    3    0    0  0.25262290003E+02 -0.17321686037E+02  0.42990119248E+02  0.52786119924E+02  0.51100000000E-03 0. -1.
         22    1    1    0    0    0 -0.23405666327E+02 -0.12853591051E+02 -0.13265274443E+02  0.29816229225E+02  0.00000000000E+00 0. -1.
</event>
<event>
 5    1  0.8902899E-005  0.9118800E+02  0.7818608E-02  0.1130116E+00
         25   -1    0    0    0    0  0.00000000000E+00  0.00000000000E+00  0.99999998245E-14  0.12500000000E+03  0.12500000000E+03 0.  0.
        -11    1    3    3    0    0  0.37274249674E+02 -0.30305513903E+02 -0.29379937546E+02  0.56311407301E+02  0.51100000000E-03 0.  1.
         23    2    1    0    0    0  0.27975718485E+02  0.13146648160E+01 -0.70588969802E+01  0.96117527894E+02  0.91675416408E+02 0.  0.
         11    1    3    3    0    0 -0.92985311888E+01  0.31620178719E+02  0.22321040566E+02  0.39806120594E+02  0.51100000000E-03 0. -1.
         22    1    1    0    0    0 -0.27975718485E+02 -0.13146648160E+01  0.70588969802E+01  0.28882472106E+02  0.00000000000E+00 0.  1.
</event>
<event>
 5    1  0.8902899E-005  0.9118800E+02  0.7818608E-02  0.1130116E+00
         25   -1    0    0    0    0  0.00000000000E+00  0.00000000000E+00  0.99999998245E-14  0.12500000000E+03  0.12500000000E+03 0.  0.
        -11    1    3    3    0    0 -0.26173244456E+02 -0.17307835651E+02 -0.28217629320E+02  0.42199934893E+02  0.51100000000E-03 0. -1.
         23    2    1    0    0    0 -0.25592157004E+02  0.11939037447E+02  0.13935449694E+02  0.93508796888E+02  0.88046574164E+02 0.  0.
         11    1    3    3    0    0  0.58108745247E+00  0.29246873098E+02  0.42153079014E+02  0.51308861995E+02  0.51100000000E-03 0.  1.
         22    1    1    0    0    0  0.25592157004E+02 -0.11939037447E+02 -0.13935449694E+02  0.31491203112E+02  0.00000000000E+00 0.  1.
</event>
<event>
 5    1  0.8902899E-005  0.9118800E+02  0.7818608E-02  0.1130116E+00
         25   -1    0    0    0    0  0.00000000000E+00  0.00000000000E+00  0.99999998245E-14  0.12500000000E+03  0.12500000000E+03 0.  0.
        -11    1    3    3    0    0 -0.31541154788E+02  0.47260171078E+02  0.78435806677E+01  0.57357562480E+02  0.51100000000E-03 0. -1.
         23    2    1    0    0    0 -0.13954297824E+02  0.14374498216E+02  0.20108050355E+02  0.96615456392E+02  0.92351849457E+02 0.  0.
         11    1    3    3    0    0  0.17586856963E+02 -0.32885672862E+02  0.12264469687E+02  0.39257893912E+02  0.51100000000E-03 0.  1.
         22    1    1    0    0    0  0.13954297824E+02 -0.14374498216E+02 -0.20108050355E+02  0.28384543608E+02  0.00000000000E+00 0. -1.
</event>
<event>
 5    1  0.8902899E-005  0.9118800E+02  0.7818608E-02  0.1130116E+00
         25   -1    0    0    0    0  0.00000000000E+00  0.00000000000E+00  0.99999998245E-14  0.12500000000E+03  0.12500000000E+03 0.  0.
        -11    1    3    3    0    0  0.85111849778E+01  0.25784851785E+02 -0.26184603033E+02  0.37721774713E+02  0.51100000000E-03 0.  1.
         23    2    1    0    0    0 -0.13093068857E+02  0.10832670695E+02  0.24717372760E+02  0.95004604976E+02  0.90145167614E+02 0.  0.
         11    1    3    3    0    0 -0.21604253834E+02 -0.14952181089E+02  0.50901975793E+02  0.57282830263E+02  0.51100000000E-03 0. -1.
         22    1    1    0    0    0  0.13093068857E+02 -0.10832670695E+02 -0.24717372760E+02  0.29995395024E+02  0.00000000000E+00 0. -1.
</event>
<event>
 5    1  0.8902899E-005  0.9118800E+02  0.7818608E-02  0.1130116E+00
         25   -1    0    0    0    0  0.00000000000E+00  0.00000000000E+00  0.99999998245E-14  0.12500000000E+03  0.12500000000E+03 0.  0.
        -11    1    3    3    0    0 -0.46728057453E+02 -0.35360551196E+02  0.11180098345E+02  0.59656303384E+02  0.51100000000E-03 0.  1.
         23    2    1    0    0    0 -0.18248184375E+02 -0.20242831396E+02 -0.72538819315E+01  0.96797389146E+02  0.92597771499E+02 0.  0.
         11    1    3    3    0    0  0.28479873078E+02  0.15117719800E+02 -0.18433980276E+02  0.37141085762E+02  0.51100000000E-03 0. -1.
         22    1    1    0    0    0  0.18248184375E+02  0.20242831396E+02  0.72538819315E+01  0.28202610854E+02  0.00000000000E+00 0.  1.
</event>
<event>
 5    1  0.8902899E-005  0.9118800E+02  0.7818608E-02  0.1130116E+00
         25   -1    0    0    0    0  0.00000000000E+00  0.00000000000E+00  0.99999998245E-14  0.12500000000E+03  0.12500000000E+03 0.  0.
        -11    1    3    3    0    0  0.40498564733E+01 -0.41332439137E+02  0.65278588773E+01  0.42040275977E+02  0.51100000000E-03 0.  1.
         23    2    1    0    0    0 -0.27303958261E+02  0.10544154557E+01 -0.76287573794E+01  0.96630723171E+02  0.92372511023E+02 0.  0.
         11    1    3    3    0    0 -0.31353814734E+02  0.42386854593E+02 -0.14156616257E+02  0.54590447193E+02  0.51100000000E-03 0. -1.
         22    1    1    0    0    0  0.27303958261E+02 -0.10544154557E+01  0.76287573794E+01  0.28369276829E+02  0.00000000000E+00 0. -1.
</event>
<event>
 5    1  0.8902899E-005  0.9118800E+02  0.7818608E-02  0.1130116E+00
         25   -1    0    0    0    0  0.00000000000E+00  0.00000000000E+00  0.99999998245E-14  0.12500000000E+03  0.12500000000E+03 0.  0.
        -11    1    3    3    0    0 -0.35152036884E+02  0.15575252215E+02  0.75792597486E+01  0.39188000169E+02  0.51100000000E-03 0. -1.
         23    2    1    0    0    0  0.20504351917E+02  0.21053593832E+02  0.99301951728E-01  0.95611360670E+02  0.90982636627E+02 0.  0.
         11    1    3    3    0    0  0.55656388802E+02  0.54783416169E+01 -0.74799577968E+01  0.56423360501E+02  0.51100000000E-03 0.  1.
         22    1    1    0    0    0 -0.20504351917E+02 -0.21053593832E+02 -0.99301951728E-01  0.29388639330E+02  0.00000000000E+00 0.  1.
</event>
<event>
 5    1  0.8902899E-005  0.9118800E+02  0.7818608E-02  0.1130116E+00
         25   -1    0    0    0    0  0.00000000000E+00  0.00000000000E+00  0.99999998245E-14  0.12500000000E+03  0.12500000000E+03 0.  0.
        -11    1    3    3    0    0 -0.28524825959E+02  0.14393415347E+02 -0.16362521799E+02  0.35896632449E+02  0.51100000000E-03 0. -1.
         23    2    1    0    0    0  0.18067043751E+02 -0.21704486787E+02 -0.93525595555E+01  0.95251501099E+02  0.90486879020E+02 0.  0.
         11    1    3    3    0    0  0.46591869710E+02 -0.36097902134E+02  0.70099622437E+01  0.59354868650E+02  0.51100000000E-03 0.  1.
         22    1    1    0    0    0 -0.18067043751E+02  0.21704486787E+02  0.93525595555E+01  0.29748498901E+02  0.00000000000E+00 0.  1.
</event>
<event>
 5    1  0.8902899E-005  0.9118800E+02  0.7818608E-02  0.1130116E+00
         25   -1    0    0    0    0  0.00000000000E+00  0.00000000000E+00  0.99999998245E-14  0.12500000000E+03  0.12500000000E+03 0.  0.
        -11    1    3    3    0    0 -0.11336877652E+02  0.35465075859E+02 -0.26606988387E+02  0.45762738466E+02  0.51100000000E-03 0. -1.
         23    2    1    0    0    0  0.62666507396E+01 -0.10004945380E+02 -0.28075401745E+02  0.94543506001E+02  0.89503499933E+02 0.  0.
         11    1    3    3    0    0  0.17603528392E+02 -0.45470021239E+02 -0.14684133589E+01  0.48780767536E+02  0.51100000000E-03 0.  1.
         22    1    1    0    0    0 -0.62666507396E+01  0.10004945380E+02  0.28075401745E+02  0.30456493999E+02  0.00000000000E+00 0. -1.
</event>
<event>
 5    1  0.8902899E-005  0.9118800E+02  0.7818608E-02  0.1130116E+00
         25   -1    0    0    0    0  0.00000000000E+00  0.00000000000E+00  0.99999998245E-14  0.12500000000E+03  0.12500000000E+03 0.  0.
        -11    1    3    3    0    0 -0.45762556044E+02 -0.23208249689E+02 -0.33336368379E+02  0.61189442278E+02  0.51100000000E-03 0. -1.
         23    2    1    0    0    0 -0.27212465935E+02 -0.38973205612E+01 -0.14575264381E+02  0.93884959560E+02  0.88579003663E+02 0.  0.
         11    1    3    3    0    0  0.18550090110E+02  0.19310929128E+02  0.18761103997E+02  0.32695517282E+02  0.51100000000E-03 0.  1.
         22    1    1    0    0    0  0.27212465935E+02  0.38973205612E+01  0.14575264381E+02  0.31115040440E+02  0.00000000000E+00 0. -1.
</event>
<event>
 5    1  0.8902899E-005  0.9118800E+02  0.7818608E-02  0.1130116E+00
         25   -1    0    0    0    0  0.00000000000E+00  0.00000000000E+00  0.99999998245E-14  0.12500000000E+03  0.12500000000E+03 0.  0.
        -11    1    3    3    0    0 -0.92819226903E+01  0.41676716210E+02 -0.13429758369E+02  0.44760039912E+02  0.51100000000E-03 0.  1.
         23    2    1    0    0    0  0.26239671228E+02  0.47384468494E+01 -0.11269501977E+02  0.96052203892E+02  0.91586303414E+02 0.  0.
         11    1    3    3    0    0  0.35521593918E+02 -0.36938269360E+02  0.21602563925E+01  0.51292163980E+02  0.51100000000E-03 0. -1.
         22    1    1    0    0    0 -0.26239671228E+02 -0.47384468494E+01  0.11269501977E+02  0.28947796108E+02  0.00000000000E+00 0. -1.
</event>
<event>
 5    1  0.8902899E-005  0.9118800E+02  0.7818608E-02  0.1130116E+00
         25   -1    0    0    0    0  0.00000000000E+00  0.00000000000E+00  0.99999998245E-14  0.12500000000E+03  0.12500000000E+03 0.  0.
        -11    1    3    3    0    0  0.26199204939E+02  0.13936660168E+02  0.34818323128E+02  0.45748709947E+02  0.51100000000E-03 0. -1.
         23    2    1    0    0    0  0.55993130514E+01  0.34038617064E+02  0.55187866473E+00  0.90499502491E+02  0.83665259354E+02 0.  0.
         11    1    3    3    0    0 -0.20599891888E+02  0.20101956896E+02 -0.34266444464E+02  0.44750792544E+02  0.51100000000E-03 0.  1.
         22    1    1    0    0    0 -0.55993130514E+01 -0.34038617064E+02 -0.55187866473E+00  0.34500497509E+02  0.00000000000E+00 0.  1.
</event>
<event>
 5    1  0.8902899E-005  0.9118800E+02  0.7818608E-02  0.1130116E+00
         25   -1    0    0    0    0  0.00000000000E+00  0.00000000000E+00  0.99999998245E-14  0.12500000000E+03  0.12500000000E+03 0.  0.
        -11    1    3    3    0    0  0.33595200892E+02  0.41607394776E+02 -0.28764564951E+01  0.53554521987E+02  0.51100000000E-03 0.  1.
         23    2    1    0    0    0  0.11794851194E+02  0.27716759382E+02 -0.23638807197E+02  0.86709916806E+02  0.77797681209E+02 0.  0.
         11    1    3    3    0    0 -0.21800349699E+02 -0.13890635394E+02 -0.20762350702E+02  0.33155394818E+02  0.51100000000E-03 0. -1.
         22    1    1    0    0    0 -0.11794851194E+02 -0.27716759382E+02  0.23638807197E+02  0.38290083194E+02  0.00000000000E+00 0.  1.
</event>
<event>
 5    1  0.8902899E-005  0.9118800E+02  0.7818608E-02  0.1130116E+00
         25   -1    0    0    0    0  0.00000000000E+00  0.00000000000E+00  0.99999998245E-14  0.12500000000E+03  0.12500000000E+03 0.  0.
        -11    1    3    3    0    0 -0.18771150086E+02 -0.36196618287E+02 -0.31548059523E+02  0.51554159007E+02  0.51100000000E-03 0. -1.
         23    2    1    0    0    0 -0.29058252232E+02 -0.77246510647E+01 -0.48576727274E+00  0.94928614487E+02  0.90039733572E+02 0.  0.
         11    1    3    3    0    0 -0.10287102146E+02  0.28471967222E+02  0.31062292250E+02  0.43374455480E+02  0.51100000000E-03 0.  1.
         22    1    1    0    0    0  0.29058252232E+02  0.77246510647E+01  0.48576727274E+00  0.30071385513E+02  0.00000000000E+00 0. -1.
</event>
<event>
 5    1  0.8902899E-005  0.9118800E+02  0.7818608E-02  0.1130116E+00
         25   -1    0    0    0    0  0.00000000000E+00  0.00000000000E+00  0.99999998245E-14  0.12500000000E+03  0.12500000000E+03 0.  0.
        -11    1    3    3    0    0  0.29736577443E+02  0.21008591591E+02  0.29289333155E+02  0.46727828920E+02  0.51100000000E-03 0. -1.
         23    2    1    0    0    0  0.19869410874E+02  0.46358818630E+01 -0.18035905266E+02  0.97768056112E+02  0.93898956480E+02 0.  0.
         11    1    3    3    0    0 -0.98671665688E+01 -0.16372709728E+02 -0.47325238421E+02  0.51040227192E+02  0.51100000000E-03 0.  1.
         22    1    1    0    0    0 -0.19869410874E+02 -0.46358818630E+01  0.18035905266E+02  0.27231943888E+02  0.00000000000E+00 0. -1.
</event>
<event>
 5    1  0.8902899E-005  0.9118800E+02  0.7818608E-02  0.1130116E+00
         25   -1    0    0    0    0  0.00000000000E+00  0.00000000000E+00  0.99999998245E-14  0.12500000000E+03  0.12500000000E+03 0.  0.
        -11    1    3    3    0    0  0.45214327963E+02 -0.10035896877E+02  0.76458561825E+01  0.46941599848E+02  0.51100000000E-03 0.  1.
         23    2    1    0    0    0  0.13089937015E+02 -0.16888346219E+01 -0.27016122216E+02  0.94932251947E+02  0.90044783229E+02 0.  0.
         11    1    3    3    0    0 -0.32124390948E+02  0.83470622552E+01 -0.34661978398E+02  0.47990652098E+02  0.51100000000E-03 0. -1.
         22    1    1    0    0    0 -0.13089937015E+02  0.16888346219E+01  0.27016122216E+02  0.30067748053E+02  0.00000000000E+00 0.  1.
</event>
<event>
 5    1  0.8902899E-005  0.9118800E+02  0.7818608E-02  0.1130116E+00
         25   -1    0    0    0    0  0.00000000000E+00  0.00000000000E+00  0.99999998245E-14  0.12500000000E+03  0.12500000000E+03 0.  0.
        -11    1    3    3    0    0 -0.21275553776E+02 -0.29085884668E+02 -0.71066084141E+01  0.36730665101E+02  0.51100000000E-03 0.  1.
         23    2    1    0    0    0  0.29432574738E+02 -0.59448558299E+00  0.14748314173E+01  0.95524501760E+02  0.90863223803E+02 0.  0.
         11    1    3    3    0    0  0.50708128514E+02  0.28491399085E+02  0.85814398314E+01  0.58793836658E+02  0.51100000000E-03 0. -1.
         22    1    1    0    0    0 -0.29432574738E+02  0.59448558299E+00 -0.14748314173E+01  0.29475498240E+02  0.00000000000E+00 0. -1.
</event>
<event>
 5    1  0.8902899E-005  0.9118800E+02  0.7818608E-02  0.1130116E+00
         25   -1    0    0    0    0  0.00000000000E+00  0.00000000000E+00  0.99999998245E-14  0.12500000000E+03  0.12500000000E+03 0.  0.
        -11    1    3    3    0    0  0.52003731431E+01 -0.66663076591E+01  0.45609158775E+02  0.46386193022E+02  0.51100000000E-03 0. -1.
         23    2    1    0    0    0  0.27038563507E+02  0.93112108481E+01  0.38509374833E+01  0.96144978193E+02  0.91712837423E+02 0.  0.
         11    1    3    3    0    0  0.21838190364E+02  0.15977518507E+02 -0.41758221292E+02  0.49758785171E+02  0.51100000000E-03 0.  1.
         22    1    1    0    0    0 -0.27038563507E+02 -0.93112108481E+01 -0.38509374833E+01  0.28855021807E+02  0.00000000000E+00 0. -1.
</event>
<event>
 5    1  0.8902899E-005  0.9118800E+02  0.7818608E-02  0.1130116E+00
         25   -1    0    0    0    0  0.00000000000E+00  0.00000000000E+00  0.99999998245E-14  0.12500000000E+03  0.12500000000E+03 0.  0.
        -11    1    3    3    0    0  0.78018978373E+01 -0.27799365337E+02 -0.20203506627E+02  0.35239977345E+02  0.51100000000E-03 0.  1.
         23    2    1    0    0    0 -0.12637706029E+02  0.26382023926E+02 -0.33206327624E+01  0.95559391955E+02  0.90911209368E+02 0.  0.
         11    1    3    3    0    0 -0.20439603867E+02  0.54181389263E+02  0.16882873864E+02  0.60319414610E+02  0.51100000000E-03 0. -1.
         22    1    1    0    0    0  0.12637706029E+02 -0.26382023926E+02  0.33206327624E+01  0.29440608045E+02  0.00000000000E+00 0. -1.
</event>
<event>
 5    1  0.8902899E-005  0.9118800E+02  0.7818608E-02  0.1130116E+00
         25   -1    0    0    0    0  0.00000000000E+00  0.00000000000E+00  0.99999998245E-14  0.12500000000E+03  0.12500000000E+03 0.  0.
        -11    1    3    3    0    0  0.48619313382E+02  0.68430325574E+01  0.16211073909E+02  0.51705547535E+02  0.51100000000E-03 0.  1.
         23    2    1    0    0    0  0.18140008030E+02  0.18258540002E+02 -0.13642189135E+02  0.95870230026E+02  0.91337601822E+02 0.  0.
         11    1    3    3    0    0 -0.30479305351E+02  0.11415507444E+02 -0.29853263045E+02  0.44164682492E+02  0.51100000000E-03 0. -1.
         22    1    1    0    0    0 -0.18140008030E+02 -0.18258540002E+02  0.13642189135E+02  0.29129769974E+02  0.00000000000E+00 0.  1.
</event>
<event>
 5    1  0.8902899E-005  0.9118800E+02  0.7818608E-02  0.1130116E+00
         25   -1    0    0    0    0  0.00000000000E+00  0.00000000000E+00  0.99999998245E-14  0.12500000000E+03  0.12500000000E+03 0.  0.
        -11    1    3    3    0    0 -0.45630062938E+02  0.10634505930E+02  0.28239944224E+02  0.54705482451E+02  0.51100000000E-03 0.  1.
         23    2    1    0    0    0 -0.25148410079E+02  0.14907521627E+02 -0.63054661025E+01  0.95092883232E+02  0.90267495856E+02 0.  0.
         11    1    3    3    0    0  0.20481652859E+02  0.42730156975E+01 -0.34545410327E+02  0.40387400782E+02  0.51100000000E-03 0. -1.
         22    1    1    0    0    0  0.25148410079E+02 -0.14907521627E+02  0.63054661025E+01  0.29907116768E+02  0.00000000000E+00 0.  1.
</event>
<event>
 5    1  0.8902899E-005  0.9118800E+02  0.7818608E-02  0.1130116E+00
         25   -1    0    0    0    0  0.00000000000E+00  0.00000000000E+00  0.99999998245E-14  0.12500000000E+03  0.12500000000E+03 0.  0.
        -11    1    3    3    0    0 -0.22059899311E+02  0.23059109253E+02 -0.37564392598E+02  0.49289403209E+02  0.51100000000E-03 0.  1.
         23    2    1    0    0    0 -0.14337544555E+02  0.24166317837E+02  0.82115392075E+01  0.95725344104E+02  0.91139102618E+02 0.  0.
         11    1    3    3    0    0  0.77223547559E+01  0.11072085839E+01  0.45775931806E+02  0.46435940895E+02  0.51100000000E-03 0. -1.
         22    1    1    0    0    0  0.14337544555E+02 -0.24166317837E+02 -0.82115392075E+01  0.29274655896E+02  0.00000000000E+00 0. -1.
</event>
<event>
 5    1  0.8902899E-005  0.9118800E+02  0.7818608E-02  0.1130116E+00
         25   -1    0    0    0    0  0.00000000000E+00  0.00000000000E+00  0.99999998245E-14  0.12500000000E+03  0.12500000000E+03 0.  0.
        -11    1    3    3    0    0 -0.60196327778E+01  0.27213104798E+02 -0.37773296068E+02  0.46942634647E+02  0.51100000000E-03 0.  1.
         23    2    1    0    0    0 -0.26571964917E+02 -0.60565328946E+01 -0.65852817719E+01  0.96962224655E+02  0.92820020274E+02 0.  0.
         11    1    3    3    0    0 -0.20552332140E+02 -0.33269637692E+02  0.31188014296E+02  0.50019590008E+02  0.51100000000E-03 0. -1.
         22    1    1    0    0    0  0.26571964917E+02  0.60565328946E+01  0.65852817719E+01  0.28037775345E+02  0.00000000000E+00 0.  1.
</event>
<event>
 5    1  0.8902899E-005  0.9118800E+02  0.7818608E-02  0.1130116E+00
         25   -1    0    0    0    0  0.00000000000E+00  0.00000000000E+00  0.99999998245E-14  0.12500000000E+03  0.12500000000E+03 0.  0.
        -11    1    3    3    0    0 -0.39928246303E+02  0.16306128294E+02 -0.19542318782E+02  0.47350363213E+02  0.51100000000E-03 0.  1.
         23    2    1    0    0    0 -0.23365547353E+02 -0.17368775007E+02  0.90308027565E+01  0.94517569868E+02  0.89467270367E+02 0.  0.
         11    1    3    3    0    0  0.16562698951E+02 -0.33674903301E+02  0.28573121538E+02  0.47167206654E+02  0.51100000000E-03 0. -1.
         22    1    1    0    0    0  0.23365547353E+02  0.17368775007E+02 -0.90308027565E+01  0.30482430132E+02  0.00000000000E+00 0.  1.
</event>
<event>
 5    1  0.8902899E-005  0.9118800E+02  0.7818608E-02  0.1130116E+00
         25   -1    0    0    0    0  0.00000000000E+00  0.00000000000E+00  0.99999998245E-14  0.12500000000E+03  0.12500000000E+03 0.  0.
        -11    1    3    3    0    0 -0.26616361567E+02 -0.37707937823E+02  0.37936198998E+01  0.46311022771E+02  0.51100000000E-03 0. -1.
         23    2    1    0    0    0  0.13509269996E+02 -0.15677952174E+02  0.21283159562E+02  0.95313783651E+02  0.90572876253E+02 0.  0.
         11    1    3    3    0    0  0.40125631563E+02  0.22029985649E+02  0.17489539662E+02  0.49002760880E+02  0.51100000000E-03 0.  1.
         22    1    1    0    0    0 -0.13509269996E+02  0.15677952174E+02 -0.21283159562E+02  0.29686216349E+02  0.00000000000E+00 0.  1.
</event>
<event>
 5    1  0.8902899E-005  0.9118800E+02  0.7818608E-02  0.1130116E+00
         25   -1    0    0    0    0  0.00000000000E+00  0.00000000000E+00  0.99999998245E-14  0.12500000000E+03  0.12500000000E+03 0.  0.
        -11    1    3    3    0    0 -0.25933533469E+02  0.18960105176E+02  0.28110243532E+02  0.42687463477E+02  0.51100000000E-03 0. -1.
         23    2    1    0    0    0  0.11985301459E+02  0.24587958534E+02 -0.91603214258E+01  0.96153394575E+02  0.91724307813E+02 0.  0.
         11    1    3    3    0    0  0.37918834927E+02  0.56278533580E+01 -0.37270564957E+02  0.53465931098E+02  0.51100000000E-03 0.  1.
         22    1    1    0    0    0 -0.11985301459E+02 -0.24587958534E+02  0.91603214258E+01  0.28846605425E+02  0.00000000000E+00 0.  1.
</event>
<event>
 5    1  0.8902899E-005  0.9118800E+02  0.7818608E-02  0.1130116E+00
         25   -1    0    0    0    0  0.00000000000E+00  0.00000000000E+00  0.99999998245E-14  0.12500000000E+03  0.12500000000E+03 0.  0.
        -11    1    3    3    0    0 -0.31913548069E+02  0.26826762472E+02 -0.42728505958E+02  0.59698198940E+02  0.51100000000E-03 0.  1.
         23    2    1    0    0    0 -0.20240452397E+02  0.19102472216E+02 -0.97737190259E+01  0.95502441769E+02  0.90832870934E+02 0.  0.
         11    1    3    3    0    0  0.11673095671E+02 -0.77242902558E+01  0.32954786932E+02  0.35804242828E+02  0.51100000000E-03 0. -1.
         22    1    1    0    0    0  0.20240452397E+02 -0.19102472216E+02  0.97737190259E+01  0.29497558231E+02  0.00000000000E+00 0.  1.
</event>
<event>
 5    1  0.8902899E-005  0.9118800E+02  0.7818608E-02  0.1130116E+00
         25   -1    0    0    0    0  0.00000000000E+00  0.00000000000E+00  0.99999998245E-14  0.12500000000E+03  0.12500000000E+03 0.  0.
        -11    1    3    3    0    0 -0.28707207571E+02 -0.89908855312E-01  0.30505443829E+02  0.41889067232E+02  0.51100000000E-03 0.  1.
         23    2    1    0    0    0 -0.32039924128E+01  0.28923270890E+02 -0.62789143994E+01  0.95230117024E+02  0.90457333899E+02 0.  0.
         11    1    3    3    0    0  0.25503215159E+02  0.29013179745E+02 -0.36784358228E+02  0.53341049792E+02  0.51100000000E-03 0. -1.
         22    1    1    0    0    0  0.32039924128E+01 -0.28923270890E+02  0.62789143994E+01  0.29769882976E+02  0.00000000000E+00 0. -1.
</event>
<event>
 5    1  0.8902899E-005  0.9118800E+02  0.7818608E-02  0.1130116E+00
         25   -1    0    0    0    0  0.00000000000E+00  0.00000000000E+00  0.99999998245E-14  0.12500000000E+03  0.12500000000E+03 0.  0.
        -11    1    3    3    0    0 -0.48975424060E+01  0.29732960089E+02 -0.32478858741E+02  0.44304752596E+02  0.51100000000E-03 0. -1.
         23    2    1    0    0    0  0.26858506435E+02  0.14954726717E+02  0.29408890892E+01  0.94118418956E+02  0.88907844081E+02 0.  0.
         11    1    3    3    0    0  0.31756048841E+02 -0.14778233372E+02  0.35419747830E+02  0.49813666360E+02  0.51100000000E-03 0.  1.
         22    1    1    0    0    0 -0.26858506435E+02 -0.14954726717E+02 -0.29408890892E+01  0.30881581044E+02  0.00000000000E+00 0.  1.
</event>
<event>
 5    1  0.8902899E-005  0.9118800E+02  0.7818608E-02  0.1130116E+00
         25   -1    0    0    0    0  0.00000000000E+00  0.00000000000E+00  0.99999998245E-14  0.12500000000E+03  0.12500000000E+03 0.  0.
        -11    1    3    3    0    0 -0.15008460557E+02 -0.58195229168E+02  0.16335801320E+02  0.62279988690E+02  0.51100000000E-03 0.  1.
         23    2    1    0    0    0 -0.60979611451E+01 -0.26809926259E+02  0.37424444287E+01  0.97251789852E+02  0.93209159759E+02 0.  0.
         11    1    3    3    0    0  0.89104994117E+01  0.31385302909E+02 -0.12593356891E+02  0.34971801162E+02  0.51100000000E-03 0. -1.
         22    1    1    0    0    0  0.60979611451E+01  0.26809926259E+02 -0.37424444287E+01  0.27748210148E+02  0.00000000000E+00 0.  1.
</event>
<event>
 5    1  0.8902899E-005  0.9118800E+02  0.7818608E-02  0.1130116E+00
         25   -1    0    0    0    0  0.00000000000E+00  0.00000000000E+00  0.99999998245E-14  0.12500000000E+03  0.12500000000E+03 0.  0.
        -11    1    3    3    0    0 -0.27253139300E+02 -0.19237772786E+02  0.10065427855E+02  0.34844487966E+02  0.51100000000E-03 0.  1.
         23    2    1    0    0    0  0.98272301155E+01  0.27779175384E+02  0.64704300732E+01  0.94831746784E+02  0.89905153890E+02 0.  0.
         11    1    3    3    0    0  0.37080369415E+02  0.47016948170E+02 -0.35949977817E+01  0.59987258818E+02  0.51100000000E-03 0. -1.
         22    1    1    0    0    0 -0.98272301155E+01 -0.27779175384E+02 -0.64704300732E+01  0.30168253216E+02  0.00000000000E+00 0. -1.
</event>
<event>
 5    1  0.8902899E-005  0.9118800E+02  0.7818608E-02  0.1130116E+00
         25   -1    0    0    0    0  0.00000000000E+00  0.00000000000E+00  0.99999998245E-14  0.12500000000E+03  0.12500000000E+03 0.  0.
        -11    1    3    3    0    0 -0.25730971165E+02  0.40577869691E+02  0.21641510176E+02  0.52697261302E+02  0.51100000000E-03 0. -1.
         23    2    1    0    0    0  0.85530343452E+01  0.14363418932E+02  0.23807666929E+02  0.95909327877E+02  0.91391093490E+02 0.  0.
         11    1    3    3    0    0  0.34284005510E+02 -0.26214450759E+02  0.21661567532E+01  0.43212066576E+02  0.51100000000E-03 0.  1.
         22    1    1    0    0    0 -0.85530343452E+01 -0.14363418932E+02 -0.23807666929E+02  0.29090672123E+02  0.00000000000E+00 0. -1.
</event>
<event>
 5    1  0.8902899E-005  0.9118800E+02  0.7818608E-02  0.1130116E+00
         25   -1    0    0    0    0  0.00000000000E+00  0.00000000000E+00  0.99999998245E-14  0.12500000000E+03  0.12500000000E+03 0.  0.
        -11    1    3    3    0    0  0.47453743550E+02  0.13773911618E+02  0.45380672858E+01  0.49620282880E+02  0.51100000000E-03 0.  1.
         23    2    1    0    0    0  0.13645865580E+02 -0.65341831413E+01  0.26295764153E+02  0.94662359862E+02  0.89669336818E+02 0.  0.
         11    1    3    3    0    0 -0.33807877970E+02 -0.20308094759E+02  0.21757696868E+02  0.45042076981E+02  0.51100000000E-03 0. -1.
         22    1    1    0    0    0 -0.13645865580E+02  0.65341831413E+01 -0.26295764153E+02  0.30337640138E+02  0.00000000000E+00 0. -1.
</event>
<event>
 5    1  0.8902899E-005  0.9118800E+02  0.7818608E-02  0.1130116E+00
         25   -1    0    0    0    0  0.00000000000E+00  0.00000000000E+00  0.99999998245E-14  0.12500000000E+03  0.12500000000E+03 0.  0.
        -11    1    3    3    0    0 -0.28884995015E+02  0.11741560335E+02 -0.22998434791E+02  0.38744485791E+02  0.51100000000E-03 0.  1.
         23    2    1    0    0    0  0.17580848240E+02 -0.21812307133E+01 -0.32323980641E+02  0.88139672861E+02  0.80061964848E+02 0.  0.
         11    1    3    3    0    0  0.46465843256E+02 -0.13922791048E+02 -0.93255458505E+01  0.49395187070E+02  0.51100000000E-03 0. -1.
         22    1    1    0    0    0 -0.17580848240E+02  0.21812307133E+01  0.32323980641E+02  0.36860327139E+02  0.00000000000E+00 0. -1.
</event>
<event>
 5    1  0.8902899E-005  0.9118800E+02  0.7818608E-02  0.1130116E+00
         25   -1    0    0    0    0  0.00000000000E+00  0.00000000000E+00  0.99999998245E-14  0.12500000000E+03  0.12500000000E+03 0.  0.
        -11    1    3    3    0    0 -0.18558836426E+02 -0.24948479199E+02 -0.33306529707E+02  0.45565139582E+02  0.51100000000E-03 0.  1.
         23    2    1    0    0    0  0.45320819773E+01 -0.27480419719E+02  0.10568951149E+02  0.95210472254E+02  0.90430183365E+02 0.  0.
         11    1    3    3    0    0  0.23090918403E+02 -0.25319405199E+01  0.43875480855E+02  0.49645332671E+02  0.51100000000E-03 0. -1.
         22    1    1    0    0    0 -0.45320819773E+01  0.27480419719E+02 -0.10568951149E+02  0.29789527746E+02  0.00000000000E+00 0. -1.
</event>
<event>
 5    1  0.8902899E-005  0.9118800E+02  0.7818608E-02  0.1130116E+00
         25   -1    0    0    0    0  0.00000000000E+00  0.00000000000E+00  0.99999998245E-14  0.12500000000E+03  0.12500000000E+03 0.  0.
        -11    1    3    3    0    0  0.45245218831E+02  0.13169273114E+02 -0.37994613540E+02  0.60532224805E+02  0.51100000000E-03 0. -1.
         23    2    1    0    0    0  0.17300816887E+02  0.16071228785E+02 -0.21213213749E+02  0.93257235514E+02  0.87688704395E+02 0.  0.
         11    1    3    3    0    0 -0.27944401944E+02  0.29019556713E+01  0.16781399791E+02  0.32725010710E+02  0.51100000000E-03 0.  1.
         22    1    1    0    0    0 -0.17300816887E+02 -0.16071228785E+02  0.21213213749E+02  0.31742764486E+02  0.00000000000E+00 0. -1.
</event>
<event>
 5    1  0.8902899E-005  0.9118800E+02  0.7818608E-02  0.1130116E+00
         25   -1    0    0    0    0  0.00000000000E+00  0.00000000000E+00  0.99999998245E-14  0.12500000000E+03  0.12500000000E+03 0.  0.
        -11    1    3    3    0    0  0.40200508064E+02 -0.18994579214E+02 -0.14351338317E+01  0.44485216617E+02  0.51100000000E-03 0.  1.
         23    2    1    0    0    0  0.54289025375E+01  0.39123259913E+01  0.28472473751E+02  0.95751734429E+02  0.91175290552E+02 0.  0.
         11    1    3    3    0    0 -0.34771605527E+02  0.22906905205E+02  0.29907607582E+02  0.51266517812E+02  0.51100000000E-03 0. -1.
         22    1    1    0    0    0 -0.54289025375E+01 -0.39123259913E+01 -0.28472473751E+02  0.29248265571E+02  0.00000000000E+00 0. -1.
</event>
<event>
 5    1  0.8902899E-005  0.9118800E+02  0.7818608E-02  0.1130116E+00
         25   -1    0    0    0    0  0.00000000000E+00  0.00000000000E+00  0.99999998245E-14  0.12500000000E+03  0.12500000000E+03 0.  0.
        -11    1    3    3    0    0 -0.32309859821E+02  0.34258480318E+01  0.23909278811E+02  0.40340018467E+02  0.51100000000E-03 0.  1.
         23    2    1    0    0    0  0.11170491944E+02  0.28757529849E+02  0.77766802510E+01  0.93184089373E+02  0.87584372712E+02 0.  0.
         11    1    3    3    0    0  0.43480351766E+02  0.25331681817E+02 -0.16132598560E+02  0.52844070906E+02  0.51100000000E-03 0. -1.
         22    1    1    0    0    0 -0.11170491944E+02 -0.28757529849E+02 -0.77766802510E+01  0.31815910627E+02  0.00000000000E+00 0. -1.
</event>
<event>
 5    1  0.8902899E-005  0.9118800E+02  0.7818608E-02  0.1130116E+00
         25   -1    0    0    0    0  0.00000000000E+00  0.00000000000E+00  0.99999998245E-14  0.12500000000E+03  0.12500000000E+03 0.  0.
        -11    1    3    3    0    0 -0.35770117622E+02 -0.17514877487E+02 -0.12354215581E+02  0.41700106606E+02  0.51100000000E-03 0. -1.
         23    2    1    0    0    0  0.23309363004E+01  0.18285283089E+02 -0.23476576401E+02  0.95151474388E+02  0.90348594882E+02 0.  0.
         11    1    3    3    0    0  0.38101053923E+02  0.35800160576E+02 -0.11122360820E+02  0.53451367782E+02  0.51100000000E-03 0.  1.
         22    1    1    0    0    0 -0.23309363004E+01 -0.18285283089E+02  0.23476576401E+02  0.29848525612E+02  0.00000000000E+00 0.  1.
</event>
<event>
 5    1  0.8902899E-005  0.9118800E+02  0.7818608E-02  0.1130116E+00
         25   -1    0    0    0    0  0.00000000000E+00  0.00000000000E+00  0.99999998245E-14  0.12500000000E+03  0.12500000000E+03 0.  0.
        -11    1    3    3    0    0  0.35287174959E+02 -0.82028848916E+00 -0.20629144684E+02  0.40882994025E+02  0.51100000000E-03 0.  1.
         23    2    1    0    0    0  0.35567294002E+02  0.23731997185E+02  0.10928348396E+02  0.80867598166E+02  0.67763556145E+02 0.  0.
         11    1    3    3    0    0  0.28011904286E+00  0.24552285674E+02  0.31557493080E+02  0.39984604140E+02  0.51100000000E-03 0. -1.
         22    1    1    0    0    0 -0.35567294002E+02 -0.23731997185E+02 -0.10928348396E+02  0.44132401834E+02  0.00000000000E+00 0.  1.
</event>
<event>
 5    1  0.8902899E-005  0.9118800E+02  0.7818608E-02  0.1130116E+00
         25   -1    0    0    0    0  0.00000000000E+00  0.00000000000E+00  0.99999998245E-14  0.12500000000E+03  0.12500000000E+03 0.  0.
        -11    1    3    3    0    0  0.98003286852E+01  0.18958912709E+02  0.51757212854E+02  0.55984782719E+02  0.51100000000E-03 0. -1.
         23    2    1    0    0    0 -0.13100169477E+02 -0.60159130463E+00  0.27046081521E+02  0.94942274237E+02  0.90058695078E+02 0.  0.
         11    1    3    3    0    0 -0.22900498162E+02 -0.19560504014E+02 -0.24711131333E+02  0.38957491518E+02  0.51100000000E-03 0.  1.
         22    1    1    0    0    0  0.13100169477E+02  0.60159130463E+00 -0.27046081521E+02  0.30057725763E+02  0.00000000000E+00 0. -1.
</event>
<event>
 5    1  0.8902899E-005  0.9118800E+02  0.7818608E-02  0.1130116E+00
         25   -1    0    0    0    0  0.00000000000E+00  0.00000000000E+00  0.99999998245E-14  0.12500000000E+03  0.12500000000E+03 0.  0.
        -11    1    3    3    0    0 -0.41012912521E+02 -0.38481130709E+01 -0.19437355470E+02  0.45548630667E+02  0.51100000000E-03 0. -1.
         23    2    1    0    0    0 -0.10631816616E+02  0.21795719472E+02  0.13560450087E+02  0.97215566977E+02  0.93160569686E+02 0.  0.
         11    1    3    3    0    0  0.30381095905E+02  0.25643832543E+02  0.32997805557E+02  0.51666936310E+02  0.51100000000E-03 0.  1.
         22    1    1    0    0    0  0.10631816616E+02 -0.21795719472E+02 -0.13560450087E+02  0.27784433023E+02  0.00000000000E+00 0. -1.
</event>
<event>
 5    1  0.8902899E-005  0.9118800E+02  0.7818608E-02  0.1130116E+00
         25   -1    0    0    0    0  0.00000000000E+00  0.00000000000E+00  0.99999998245E-14  0.12500000000E+03  0.12500000000E+03 0.  0.
        -11    1    3    3    0    0 -0.62798766056E+01 -0.31694497845E+02  0.61730146528E+01  0.32895047560E+02  0.51100000000E-03 0. -1.
         23    2    1    0    0    0  0.28448400162E+02  0.11769556894E+02  0.17378823879E+02  0.89646676808E+02  0.82381243023E+02 0.  0.
         11    1    3    3    0    0  0.34728276768E+02  0.43464054739E+02  0.11205809227E+02  0.56751629248E+02  0.51100000000E-03 0.  1.
         22    1    1    0    0    0 -0.28448400162E+02 -0.11769556894E+02 -0.17378823879E+02  0.35353323192E+02  0.00000000000E+00 0.  1.
</event>
<event>
 5    1  0.8902899E-005  0.9118800E+02  0.7818608E-02  0.1130116E+00
         25   -1    0    0    0    0  0.00000000000E+00  0.00000000000E+00  0.99999998245E-14  0.12500000000E+03  0.12500000000E+03 0.  0.
        -11    1    3    3    0    0 -0.10672002218E+02  0.49745961199E+02  0.18519089882E+02  0.54143411208E+02  0.51100000000E-03 0. -1.
         23    2    1    0    0    0  0.97343649532E+01  0.46059802013E+02  0.17043999137E+02  0.74932434360E+02  0.55750413362E+02 0.  0.
         11    1    3    3    0    0  0.20406367171E+02 -0.36861591858E+01 -0.14750907445E+01  0.20789023152E+02  0.51100000000E-03 0.  1.
         22    1    1    0    0    0 -0.97343649532E+01 -0.46059802013E+02 -0.17043999137E+02  0.50067565640E+02  0.00000000000E+00 0. -1.
</event>
<event>
 5    1  0.8902899E-005  0.9118800E+02  0.7818608E-02  0.1130116E+00
         25   -1    0    0    0    0  0.00000000000E+00  0.00000000000E+00  0.99999998245E-14  0.12500000000E+03  0.12500000000E+03 0.  0.
        -11    1    3    3    0    0 -0.34973491746E+02  0.57573144949E+00  0.96696544187E+01  0.36290202651E+02  0.51100000000E-03 0. -1.
         23    2    1    0    0    0  0.24158670369E+02 -0.15913530431E+01  0.16271489908E+02  0.95829207376E+02  0.91281443043E+02 0.  0.
         11    1    3    3    0    0  0.59132162115E+02 -0.21670844925E+01  0.66018354890E+01  0.59539004725E+02  0.51100000000E-03 0.  1.
         22    1    1    0    0    0 -0.24158670369E+02  0.15913530431E+01 -0.16271489908E+02  0.29170792624E+02  0.00000000000E+00 0.  1.
</event>
<event>
 5    1  0.8902899E-005  0.9118800E+02  0.7818608E-02  0.1130116E+00
         25   -1    0    0    0    0  0.00000000000E+00  0.00000000000E+00  0.99999998245E-14  0.12500000000E+03  0.12500000000E+03 0.  0.
        -11    1    3    3    0    0 -0.15896771431E+02  0.10851208084E+02 -0.55539155273E+02  0.58779705915E+02  0.51100000000E-03 0.  1.
         23    2    1    0    0    0 -0.17981038346E+01  0.18871037367E+02 -0.22550565167E+02  0.95540244094E+02  0.90884877859E+02 0.  0.
         11    1    3    3    0    0  0.14098667596E+02  0.80198292829E+01  0.32988590106E+02  0.36760538179E+02  0.51100000000E-03 0. -1.
         22    1    1    0    0    0  0.17981038346E+01 -0.18871037367E+02  0.22550565167E+02  0.29459755906E+02  0.00000000000E+00 0.  1.
</event>
<event>
 5    1  0.8902899E-005  0.9118800E+02  0.7818608E-02  0.1130116E+00
         25   -1    0    0    0    0  0.00000000000E+00  0.00000000000E+00  0.99999998245E-14  0.12500000000E+03  0.12500000000E+03 0.  0.
        -11    1    3    3    0    0  0.54154603315E+01  0.41265606031E+02 -0.44235838341E+01  0.41853859391E+02  0.51100000000E-03 0. -1.
         23    2    1    0    0    0 -0.89466097382E+01  0.21865340391E+00  0.27681336075E+02  0.95907973567E+02  0.91389241115E+02 0.  0.
         11    1    3    3    0    0 -0.14362070070E+02 -0.41046952627E+02  0.32104919909E+02  0.54054114175E+02  0.51100000000E-03 0.  1.
         22    1    1    0    0    0  0.89466097382E+01 -0.21865340391E+00 -0.27681336075E+02  0.29092026433E+02  0.00000000000E+00 0.  1.
</event>
<event>
 5    1  0.8902899E-005  0.9118800E+02  0.7818608E-02  0.1130116E+00
         25   -1    0    0    0    0  0.00000000000E+00  0.00000000000E+00  0.99999998245E-14  0.12500000000E+03  0.12500000000E+03 0.  0.
        -11    1    3    3    0    0  0.12058566605E+02  0.19940961172E+02  0.56147628874E+02  0.60791505899E+02  0.51100000000E-03 0. -1.
         23    2    1    0    0    0  0.36221483867E+01  0.18919502713E+02  0.23060741747E+02  0.94952282087E+02  0.90072584740E+02 0.  0.
         11    1    3    3    0    0 -0.84364182185E+01 -0.10214584590E+01 -0.33086887127E+02  0.34160776188E+02  0.51100000000E-03 0.  1.
         22    1    1    0    0    0 -0.36221483867E+01 -0.18919502713E+02 -0.23060741747E+02  0.30047717913E+02  0.00000000000E+00 0. -1.
</event>
<event>
 5    1  0.8902899E-005  0.9118800E+02  0.7818608E-02  0.1130116E+00
         25   -1    0    0    0    0  0.00000000000E+00  0.00000000000E+00  0.99999998245E-14  0.12500000000E+03  0.12500000000E+03 0.  0.
        -11    1    3    3    0    0 -0.90690584601E+01  0.49198726940E+02 -0.41950814990E+01  0.50203199728E+02  0.51100000000E-03 0. -1.
         23    2    1    0    0    0 -0.17284732030E+02  0.12378258028E+02  0.20639370204E+02  0.95369494848E+02  0.90649730899E+02 0.  0.
         11    1    3    3    0    0 -0.82156735700E+01 -0.36820468913E+02  0.24834451703E+02  0.45166295120E+02  0.51100000000E-03 0.  1.
         22    1    1    0    0    0  0.17284732030E+02 -0.12378258028E+02 -0.20639370204E+02  0.29630505152E+02  0.00000000000E+00 0. -1.
</event>
<event>
 5    1  0.8902899E-005  0.9118800E+02  0.7818608E-02  0.1130116E+00
         25   -1    0    0    0    0  0.00000000000E+00  0.00000000000E+00  0.99999998245E-14  0.12500000000E+03  0.12500000000E+03 0.  0.
        -11    1    3    3    0    0 -0.30875728710E+02 -0.47929951742E+02 -0.22596943328E+02  0.61328726918E+02  0.51100000000E-03 0.  1.
         23    2    1    0    0    0 -0.13853798081E+02 -0.26107003839E+02 -0.28910703778E+01  0.95303844379E+02  0.90559157985E+02 0.  0.
         11    1    3    3    0    0  0.17021930629E+02  0.21822947903E+02  0.19705872950E+02  0.33975117461E+02  0.51100000000E-03 0. -1.
         22    1    1    0    0    0  0.13853798081E+02  0.26107003839E+02  0.28910703778E+01  0.29696155621E+02  0.00000000000E+00 0.  1.
</event>
<event>
 5    1  0.8902899E-005  0.9118800E+02  0.7818608E-02  0.1130116E+00
         25   -1    0    0    0    0  0.00000000000E+00  0.00000000000E+00  0.99999998245E-14  0.12500000000E+03  0.12500000000E+03 0.  0.
        -11    1    3    3    0    0  0.47161874107E+02 -0.60485225907E+01 -0.32849986321E+02  0.57792288381E+02  0.51100000000E-03 0.  1.
         23    2    1    0    0    0  0.22627817346E+02  0.14258625186E+02 -0.13780416109E+02  0.94913019790E+02  0.90018081226E+02 0.  0.
         11    1    3    3    0    0 -0.24534056761E+02  0.20307147777E+02  0.19069570212E+02  0.37120731409E+02  0.51100000000E-03 0. -1.
         22    1    1    0    0    0 -0.22627817346E+02 -0.14258625186E+02  0.13780416109E+02  0.30086980210E+02  0.00000000000E+00 0.  1.
</event>
<event>
 5    1  0.8902899E-005  0.9118800E+02  0.7818608E-02  0.1130116E+00
         25   -1    0    0    0    0  0.00000000000E+00  0.00000000000E+00  0.99999998245E-14  0.12500000000E+03  0.12500000000E+03 0.  0.
        -11    1    3    3    0    0  0.57904467212E+02  0.21695342956E+02  0.16879995805E+01  0.61858423613E+02  0.51100000000E-03 0. -1.
         23    2    1    0    0    0  0.25040116855E+02  0.10823916037E+02  0.68926626504E+01  0.96863308494E+02  0.92686714924E+02 0.  0.
         11    1    3    3    0    0 -0.32864350356E+02 -0.10871426919E+02  0.52046630700E+01  0.35004884881E+02  0.51100000000E-03 0.  1.
         22    1    1    0    0    0 -0.25040116855E+02 -0.10823916037E+02 -0.68926626504E+01  0.28136691506E+02  0.00000000000E+00 0. -1.
</event>
<event>
 5    1  0.8902899E-005  0.9118800E+02  0.7818608E-02  0.1130116E+00
         25   -1    0    0    0    0  0.00000000000E+00  0.00000000000E+00  0.99999998245E-14  0.12500000000E+03  0.12500000000E+03 0.  0.
        -11    1    3    3    0    0 -0.32947807212E+02 -0.20944228595E+01  0.26196371448E+02  0.42144922405E+02  0.51100000000E-03 0. -1.
         23    2    1    0    0    0 -0.27375293069E+02 -0.10843058132E+02 -0.19943969597E+02  0.89436809711E+02  0.82062186345E+02 0.  0.
         11    1    3    3    0    0  0.55725141438E+01 -0.87486352721E+01 -0.46140341045E+02  0.47291887306E+02  0.51100000000E-03 0.  1.
         22    1    1    0    0    0  0.27375293069E+02  0.10843058132E+02  0.19943969597E+02  0.35563190289E+02  0.00000000000E+00 0.  1.
</event>
<event>
 5    1  0.8902899E-005  0.9118800E+02  0.7818608E-02  0.1130116E+00
         25   -1    0    0    0    0  0.00000000000E+00  0.00000000000E+00  0.99999998245E-14  0.12500000000E+03  0.12500000000E+03 0.  0.
        -11    1    3    3    0    0  0.32806642716E+01 -0.28293259049E+02 -0.27390199325E+02  0.39515747304E+02  0.51100000000E-03 0.  1.
         23    2    1    0    0    0  0.12579122727E+02  0.24407216210E+02 -0.88486606155E+01  0.96151337529E+02  0.91721504470E+02 0.  0.
         11    1    3    3    0    0  0.92984584551E+01  0.52700475259E+02  0.18541538710E+02  0.56635590225E+02  0.51100000000E-03 0. -1.
         22    1    1    0    0    0 -0.12579122727E+02 -0.24407216210E+02  0.88486606155E+01  0.28848662471E+02  0.00000000000E+00 0. -1.
</event>
<event>
 5    1  0.8902899E-005  0.9118800E+02  0.7818608E-02  0.1130116E+00
         25   -1    0    0    0    0  0.00000000000E+00  0.00000000000E+00  0.99999998245E-14  0.12500000000E+03  0.12500000000E+03 0.  0.
        -11    1    3    3    0    0  0.26091453370E+02 -0.42584857604E+02 -0.10717174183E+02  0.51079270344E+02  0.51100000000E-03 0.  1.
         23    2    1    0    0    0  0.14727993445E+02 -0.42416936342E+01 -0.26754322936E+02  0.94166583849E+02  0.88975535751E+02 0.  0.
         11    1    3    3    0    0 -0.11363459925E+02  0.38343163970E+02 -0.16037148753E+02  0.43087313505E+02  0.51100000000E-03 0. -1.
         22    1    1    0    0    0 -0.14727993445E+02  0.42416936342E+01  0.26754322936E+02  0.30833416151E+02  0.00000000000E+00 0. -1.
</event>
<event>
 5    1  0.8902899E-005  0.9118800E+02  0.7818608E-02  0.1130116E+00
         25   -1    0    0    0    0  0.00000000000E+00  0.00000000000E+00  0.99999998245E-14  0.12500000000E+03  0.12500000000E+03 0.  0.
        -11    1    3    3    0    0 -0.36575970921E+02 -0.18219561064E+02 -0.12581098364E+02  0.42755562099E+02  0.51100000000E-03 0.  1.
         23    2    1    0    0    0  0.19835421408E+02 -0.95939986686E+01  0.48762466778E+01  0.10243306546E+03  0.99916296793E+02 0.  0.
         11    1    3    3    0    0  0.56411392329E+02  0.86255623949E+01  0.17457345042E+02  0.59677503360E+02  0.51100000000E-03 0. -1.
         22    1    1    0    0    0 -0.19835421408E+02  0.95939986686E+01 -0.48762466778E+01  0.22566934541E+02  0.00000000000E+00 0. -1.
</event>
<event>
 5    1  0.8902899E-005  0.9118800E+02  0.7818608E-02  0.1130116E+00
         25   -1    0    0    0    0  0.00000000000E+00  0.00000000000E+00  0.99999998245E-14  0.12500000000E+03  0.12500000000E+03 0.  0.
        -11    1    3    3    0    0 -0.21362222437E+02 -0.54097769119E+02 -0.15369559118E+02  0.60159259627E+02  0.51100000000E-03 0. -1.
         23    2    1    0    0    0 -0.16587179376E+01 -0.30054630987E+02  0.14075950141E+00  0.94899302297E+02  0.89999030963E+02 0.  0.
         11    1    3    3    0    0  0.19703504499E+02  0.24043138132E+02  0.15510318620E+02  0.34740042670E+02  0.51100000000E-03 0.  1.
         22    1    1    0    0    0  0.16587179375E+01  0.30054630987E+02 -0.14075950141E+00  0.30100697703E+02  0.00000000000E+00 0. -1.
</event>
<event>
 5    1  0.8902899E-005  0.9118800E+02  0.7818608E-02  0.1130116E+00
         25   -1    0    0    0    0  0.00000000000E+00  0.00000000000E+00  0.99999998245E-14  0.12500000000E+03  0.12500000000E+03 0.  0.
        -11    1    3    3    0    0  0.23557381685E+02  0.38544752790E+02 -0.42088522312E+02  0.61742140473E+02  0.51100000000E-03 0. -1.
         23    2    1    0    0    0  0.18173999560E+02  0.17029445382E+02 -0.24683382716E+02  0.89934837056E+02  0.82817324660E+02 0.  0.
         11    1    3    3    0    0 -0.53833821257E+01 -0.21515307408E+02  0.17405139596E+02  0.28192696583E+02  0.51100000000E-03 0.  1.
         22    1    1    0    0    0 -0.18173999560E+02 -0.17029445382E+02  0.24683382716E+02  0.35065162944E+02  0.00000000000E+00 0. -1.
</event>
<event>
 5    1  0.8902899E-005  0.9118800E+02  0.7818608E-02  0.1130116E+00
         25   -1    0    0    0    0  0.00000000000E+00  0.00000000000E+00  0.99999998245E-14  0.12500000000E+03  0.12500000000E+03 0.  0.
        -11    1    3    3    0    0  0.19816730799E+02 -0.23267634380E+02  0.15726958830E+02  0.34371832414E+02  0.51100000000E-03 0. -1.
         23    2    1    0    0    0 -0.23023958644E+01  0.22750361255E+02 -0.18285527628E+02  0.95721330553E+02  0.91133597747E+02 0.  0.
         11    1    3    3    0    0 -0.22119126664E+02  0.46017995635E+02 -0.34012486458E+02  0.61349498139E+02  0.51100000000E-03 0.  1.
         22    1    1    0    0    0  0.23023958644E+01 -0.22750361255E+02  0.18285527628E+02  0.29278669447E+02  0.00000000000E+00 0.  1.
</event>
<event>
 5    1  0.8902899E-005  0.9118800E+02  0.7818608E-02  0.1130116E+00
         25   -1    0    0    0    0  0.00000000000E+00  0.00000000000E+00  0.99999998245E-14  0.12500000000E+03  0.12500000000E+03 0.  0.
        -11    1    3    3    0    0 -0.46839970137E+01 -0.45374835684E+02 -0.37022505194E+02  0.58749310059E+02  0.51100000000E-03 0.  1.
         23    2    1    0    0    0 -0.17059964999E+02 -0.17556264734E+02 -0.15768719734E+02  0.95880979425E+02  0.91352311718E+02 0.  0.
         11    1    3    3    0    0 -0.12375967985E+02  0.27818570950E+02  0.21253785460E+02  0.37131669366E+02  0.51100000000E-03 0. -1.
         22    1    1    0    0    0  0.17059964999E+02  0.17556264734E+02  0.15768719734E+02  0.29119020575E+02  0.00000000000E+00 0.  1.
</event>
<event>
 5    1  0.8902899E-005  0.9118800E+02  0.7818608E-02  0.1130116E+00
         25   -1    0    0    0    0  0.00000000000E+00  0.00000000000E+00  0.99999998245E-14  0.12500000000E+03  0.12500000000E+03 0.  0.
        -11    1    3    3    0    0  0.42531476189E+02  0.20243052910E+01 -0.13761448318E+02  0.44748203750E+02  0.51100000000E-03 0. -1.
         23    2    1    0    0    0  0.11315769589E+02  0.26469930796E+02  0.13840524060E+02  0.93058428592E+02  0.87404846250E+02 0.  0.
         11    1    3    3    0    0 -0.31215706601E+02  0.24445625505E+02  0.27601972377E+02  0.48310224842E+02  0.51100000000E-03 0.  1.
         22    1    1    0    0    0 -0.11315769589E+02 -0.26469930796E+02 -0.13840524060E+02  0.31941571408E+02  0.00000000000E+00 0. -1.
</event>
<event>
 5    1  0.8902899E-005  0.9118800E+02  0.7818608E-02  0.1130116E+00
         25   -1    0    0    0    0  0.00000000000E+00  0.00000000000E+00  0.99999998245E-14  0.12500000000E+03  0.12500000000E+03 0.  0.
        -11    1    3    3    0    0  0.15199726623E+02 -0.26448850646E+02 -0.17346648435E+02  0.35092443661E+02  0.51100000000E-03 0. -1.
         23    2    1    0    0    0  0.32527346333E+02  0.17335547033E+02  0.60090653368E+01  0.87654875597E+02  0.79301443236E+02 0.  0.
         11    1    3    3    0    0  0.17327619710E+02  0.43784397679E+02  0.23355713772E+02  0.52562431936E+02  0.51100000000E-03 0.  1.
         22    1    1    0    0    0 -0.32527346333E+02 -0.17335547033E+02 -0.60090653368E+01  0.37345124403E+02  0.00000000000E+00 0.  1.
</event>
<event>
 5    1  0.8902899E-005  0.9118800E+02  0.7818608E-02  0.1130116E+00
         25   -1    0    0    0    0  0.00000000000E+00  0.00000000000E+00  0.99999998245E-14  0.12500000000E+03  0.12500000000E+03 0.  0.
        -11    1    3    3    0    0  0.30017585877E+02 -0.24392773334E+02  0.42846421195E+02  0.57722427723E+02  0.51100000000E-03 0.  1.
         23    2    1    0    0    0  0.68466324063E+01  0.20463263105E+01  0.28373232341E+02  0.95740742659E+02  0.91160219750E+02 0.  0.
         11    1    3    3    0    0 -0.23170953471E+02  0.26439099644E+02 -0.14473188854E+02  0.38018314936E+02  0.51100000000E-03 0. -1.
         22    1    1    0    0    0 -0.68466324063E+01 -0.20463263105E+01 -0.28373232341E+02  0.29259257341E+02  0.00000000000E+00 0.  1.
</event>
<event>
 5    1  0.8902899E-005  0.9118800E+02  0.7818608E-02  0.1130116E+00
         25   -1    0    0    0    0  0.00000000000E+00  0.00000000000E+00  0.99999998245E-14  0.12500000000E+03  0.12500000000E+03 0.  0.
        -11    1    3    3    0    0 -0.81583608178E+01  0.27202735728E+02 -0.20486758506E+02  0.35017923363E+02  0.51100000000E-03 0. -1.
         23    2    1    0    0    0 -0.87904714840E+01 -0.25284887659E+02  0.10809049907E+02  0.96130751781E+02  0.91693445487E+02 0.  0.
         11    1    3    3    0    0 -0.63211066619E+00 -0.52487623387E+02  0.31295808413E+02  0.61112828418E+02  0.51100000000E-03 0.  1.
         22    1    1    0    0    0  0.87904714840E+01  0.25284887659E+02 -0.10809049907E+02  0.28869248219E+02  0.00000000000E+00 0.  1.
</event>
<event>
 5    1  0.8902899E-005  0.9118800E+02  0.7818608E-02  0.1130116E+00
         25   -1    0    0    0    0  0.00000000000E+00  0.00000000000E+00  0.99999998245E-14  0.12500000000E+03  0.12500000000E+03 0.  0.
        -11    1    3    3    0    0 -0.48144174418E+02 -0.12481365429E+01  0.31216441255E+02  0.57392382597E+02  0.51100000000E-03 0. -1.
         23    2    1    0    0    0 -0.28203036046E+02  0.10353470165E+02  0.16272892001E+01  0.94912566464E+02  0.90017451730E+02 0.  0.
         11    1    3    3    0    0  0.19941138372E+02  0.11601606708E+02 -0.29589152055E+02  0.37520183867E+02  0.51100000000E-03 0.  1.
         22    1    1    0    0    0  0.28203036046E+02 -0.10353470165E+02 -0.16272892001E+01  0.30087433536E+02  0.00000000000E+00 0. -1.
</event>
<event>
 5    1  0.8902899E-005  0.9118800E+02  0.7818608E-02  0.1130116E+00
         25   -1    0    0    0    0  0.00000000000E+00  0.00000000000E+00  0.99999998245E-14  0.12500000000E+03  0.12500000000E+03 0.  0.
        -11    1    3    3    0    0 -0.15172620416E+02 -0.39636367770E+02  0.31431299584E+02  0.52812656193E+02  0.51100000000E-03 0.  1.
         23    2    1    0    0    0  0.16678705890E+02 -0.10293841037E+02  0.18597783800E+02  0.97981118533E+02  0.94182161969E+02 0.  0.
         11    1    3    3    0    0  0.31851326306E+02  0.29342526733E+02 -0.12833515784E+02  0.45168462340E+02  0.51100000000E-03 0. -1.
         22    1    1    0    0    0 -0.16678705890E+02  0.10293841037E+02 -0.18597783800E+02  0.27018881467E+02  0.00000000000E+00 0.  1.
</event>
<event>
 5    1  0.8902899E-005  0.9118800E+02  0.7818608E-02  0.1130116E+00
         25   -1    0    0    0    0  0.00000000000E+00  0.00000000000E+00  0.99999998245E-14  0.12500000000E+03  0.12500000000E+03 0.  0.
        -11    1    3    3    0    0 -0.54028278654E+01  0.36118889655E+02  0.57986949397E+01  0.36978231463E+02  0.51100000000E-03 0. -1.
         23    2    1    0    0    0 -0.51467095482E+01 -0.25596728613E+02  0.12785424857E+01  0.98859690022E+02  0.95341085086E+02 0.  0.
         11    1    3    3    0    0  0.25611831717E+00 -0.61715618269E+02 -0.45201524540E+01  0.61881458559E+02  0.51100000000E-03 0.  1.
         22    1    1    0    0    0  0.51467095482E+01  0.25596728613E+02 -0.12785424857E+01  0.26140309978E+02  0.00000000000E+00 0.  1.
</event>
<event>
 5    1  0.8902899E-005  0.9118800E+02  0.7818608E-02  0.1130116E+00
         25   -1    0    0    0    0  0.00000000000E+00  0.00000000000E+00  0.99999998245E-14  0.12500000000E+03  0.12500000000E+03 0.  0.
        -11    1    3    3    0    0  0.74908244736E+01  0.20285931605E+02 -0.25851688932E+02  0.33703728181E+02  0.51100000000E-03 0.  1.
         23    2    1    0    0    0 -0.89560208086E+01 -0.12187604397E+02  0.24723966239E+02  0.96016858068E+02  0.91538049559E+02 0.  0.
         11    1    3    3    0    0 -0.16446845282E+02 -0.32473536002E+02  0.50575655171E+02  0.62313129888E+02  0.51100000000E-03 0. -1.
         22    1    1    0    0    0  0.89560208086E+01  0.12187604397E+02 -0.24723966239E+02  0.28983141932E+02  0.00000000000E+00 0. -1.
</event>
<event>
 5    1  0.8902899E-005  0.9118800E+02  0.7818608E-02  0.1130116E+00
         25   -1    0    0    0    0  0.00000000000E+00  0.00000000000E+00  0.99999998245E-14  0.12500000000E+03  0.12500000000E+03 0.  0.
        -11    1    3    3    0    0  0.12213015514E+02  0.14829217075E+02  0.34268304081E+02  0.39285876493E+02  0.51100000000E-03 0.  1.
         23    2    1    0    0    0 -0.16765661944E+02 -0.23958524944E+02  0.67059154640E+01  0.94998872686E+02  0.90137218569E+02 0.  0.
         11    1    3    3    0    0 -0.28978677458E+02 -0.38787742020E+02 -0.27562388617E+02  0.55712996192E+02  0.51100000000E-03 0. -1.
         22    1    1    0    0    0  0.16765661944E+02  0.23958524944E+02 -0.67059154640E+01  0.30001127314E+02  0.00000000000E+00 0. -1.
</event>
<event>
 5    1  0.8902899E-005  0.9118800E+02  0.7818608E-02  0.1130116E+00
         25   -1    0    0    0    0  0.00000000000E+00  0.00000000000E+00  0.99999998245E-14  0.12500000000E+03  0.12500000000E+03 0.  0.
        -11    1    3    3    0    0  0.22180141365E+02  0.17709707841E+02 -0.40017316754E+02  0.49060962722E+02  0.51100000000E-03 0.  1.
         23    2    1    0    0    0 -0.90851611181E+01 -0.14319593184E+02 -0.21788000960E+02  0.97390076289E+02  0.93394427415E+02 0.  0.
         11    1    3    3    0    0 -0.31265302483E+02 -0.32029301026E+02  0.18229315794E+02  0.48329113567E+02  0.51100000000E-03 0. -1.
         22    1    1    0    0    0  0.90851611181E+01  0.14319593184E+02  0.21788000960E+02  0.27609923711E+02  0.00000000000E+00 0.  1.
</event>
<event>
 5    1  0.8902899E-005  0.9118800E+02  0.7818608E-02  0.1130116E+00
         25   -1    0    0    0    0  0.00000000000E+00  0.00000000000E+00  0.99999998245E-14  0.12500000000E+03  0.12500000000E+03 0.  0.
        -11    1    3    3    0    0  0.35953588472E+02  0.17458172506E+02 -0.38141214642E+02  0.55246724481E+02  0.51100000000E-03 0.  1.
         23    2    1    0    0    0  0.63714459205E+01  0.25605271570E+02 -0.10312680679E+02  0.96670216413E+02  0.92425938477E+02 0.  0.
         11    1    3    3    0    0 -0.29582142552E+02  0.81470990643E+01  0.27828533963E+02  0.41423491933E+02  0.51100000000E-03 0. -1.
         22    1    1    0    0    0 -0.63714459205E+01 -0.25605271570E+02  0.10312680679E+02  0.28329783587E+02  0.00000000000E+00 0.  1.
</event>
<event>
 5    1  0.8902899E-005  0.9118800E+02  0.7818608E-02  0.1130116E+00
         25   -1    0    0    0    0  0.00000000000E+00  0.00000000000E+00  0.99999998245E-14  0.12500000000E+03  0.12500000000E+03 0.  0.
        -11    1    3    3    0    0  0.44342621887E+02  0.17506890817E+02 -0.27724760886E+02  0.55149086197E+02  0.51100000000E-03 0.  1.
         23    2    1    0    0    0  0.33780714677E+01  0.11920129116E+02 -0.25614269066E+02  0.96546676385E+02  0.92258707427E+02 0.  0.
         11    1    3    3    0    0 -0.40964550419E+02 -0.55867617010E+01  0.21104918203E+01  0.41397590188E+02  0.51100000000E-03 0. -1.
         22    1    1    0    0    0 -0.33780714677E+01 -0.11920129116E+02  0.25614269066E+02  0.28453323615E+02  0.00000000000E+00 0.  1.
</event>
<event>
 5    1  0.8902899E-005  0.9118800E+02  0.7818608E-02  0.1130116E+00
         25   -1    0    0    0    0  0.00000000000E+00  0.00000000000E+00  0.99999998245E-14  0.12500000000E+03  0.12500000000E+03 0.  0.
        -11    1    3    3    0    0 -0.34574130457E+02  0.23143191897E+02  0.24358912647E+02  0.48211351917E+02  0.51100000000E-03 0.  1.
         23    2    1    0    0    0 -0.26279248204E+02 -0.12279474431E+02 -0.57421688440E+01  0.95430473770E+02  0.90733777847E+02 0.  0.
         11    1    3    3    0    0  0.82948822529E+01 -0.35422666328E+02 -0.30101081491E+02  0.47219121853E+02  0.51100000000E-03 0. -1.
         22    1    1    0    0    0  0.26279248204E+02  0.12279474431E+02  0.57421688440E+01  0.29569526230E+02  0.00000000000E+00 0.  1.
</event>
<event>
 5    1  0.8902899E-005  0.9118800E+02  0.7818608E-02  0.1130116E+00
         25   -1    0    0    0    0  0.00000000000E+00  0.00000000000E+00  0.99999998245E-14  0.12500000000E+03  0.12500000000E+03 0.  0.
        -11    1    3    3    0    0 -0.26066990409E+02  0.44056307723E+02  0.75008237880E+01  0.51736917157E+02  0.51100000000E-03 0. -1.
         23    2    1    0    0    0  0.55743370288E+01  0.25646382023E+02 -0.15062865073E+02  0.94739463845E+02  0.89776756241E+02 0.  0.
         11    1    3    3    0    0  0.31641327438E+02 -0.18409925700E+02 -0.22563688861E+02  0.43002546687E+02  0.51100000000E-03 0.  1.
         22    1    1    0    0    0 -0.55743370288E+01 -0.25646382023E+02  0.15062865073E+02  0.30260536155E+02  0.00000000000E+00 0. -1.
</event>
<event>
 5    1  0.8902899E-005  0.9118800E+02  0.7818608E-02  0.1130116E+00
         25   -1    0    0    0    0  0.00000000000E+00  0.00000000000E+00  0.99999998245E-14  0.12500000000E+03  0.12500000000E+03 0.  0.
        -11    1    3    3    0    0  0.46485089798E+02  0.30700172896E+02  0.18568903130E+02  0.58721106538E+02  0.51100000000E-03 0. -1.
         23    2    1    0    0    0  0.22294027972E+02  0.32740132784E+01  0.19348188466E+02  0.95299911733E+02  0.90553729538E+02 0.  0.
         11    1    3    3    0    0 -0.24191061826E+02 -0.27426159617E+02  0.77928533544E+00  0.36578805195E+02  0.51100000000E-03 0.  1.
         22    1    1    0    0    0 -0.22294027972E+02 -0.32740132784E+01 -0.19348188466E+02  0.29700088267E+02  0.00000000000E+00 0. -1.
</event>
<event>
 5    1  0.8902899E-005  0.9118800E+02  0.7818608E-02  0.1130116E+00
         25   -1    0    0    0    0  0.00000000000E+00  0.00000000000E+00  0.99999998245E-14  0.12500000000E+03  0.12500000000E+03 0.  0.
        -11    1    3    3    0    0  0.28868889641E+02 -0.82598039595E+01  0.21193781758E+02  0.36753415297E+02  0.51100000000E-03 0.  1.
         23    2    1    0    0    0 -0.73033100452E+01  0.28518263490E+02 -0.58316283559E+01  0.94989375558E+02  0.90124047232E+02 0.  0.
         11    1    3    3    0    0 -0.36172199686E+02  0.36778067450E+02 -0.27025410114E+02  0.58235960261E+02  0.51100000000E-03 0. -1.
         22    1    1    0    0    0  0.73033100452E+01 -0.28518263490E+02  0.58316283559E+01  0.30010624442E+02  0.00000000000E+00 0. -1.
</event>
<event>
 5    1  0.8902899E-005  0.9118800E+02  0.7818608E-02  0.1130116E+00
         25   -1    0    0    0    0  0.00000000000E+00  0.00000000000E+00  0.99999998245E-14  0.12500000000E+03  0.12500000000E+03 0.  0.
        -11    1    3    3    0    0  0.19072736947E+02  0.47071593978E+02  0.54384938044E+01  0.51079168645E+02  0.51100000000E-03 0.  1.
         23    2    1    0    0    0  0.13418915423E+02  0.13635555173E+02 -0.22820683494E+02  0.95221161018E+02  0.90444957042E+02 0.  0.
         11    1    3    3    0    0 -0.56538215240E+01 -0.33436038805E+02 -0.28259177299E+02  0.44141992373E+02  0.51100000000E-03 0. -1.
         22    1    1    0    0    0 -0.13418915423E+02 -0.13635555173E+02  0.22820683494E+02  0.29778838982E+02  0.00000000000E+00 0.  1.
</event>
<event>
 5    1  0.8902899E-005  0.9118800E+02  0.7818608E-02  0.1130116E+00
         25   -1    0    0    0    0  0.00000000000E+00  0.00000000000E+00  0.99999998245E-14  0.12500000000E+03  0.12500000000E+03 0.  0.
        -11    1    3    3    0    0 -0.20069027461E+02  0.95897729063E+01 -0.40526897681E+02  0.46229417512E+02  0.51100000000E-03 0.  1.
         23    2    1    0    0    0 -0.11629308119E+02  0.25175144336E+02  0.65271936656E+01  0.96510827376E+02  0.92210123326E+02 0.  0.
         11    1    3    3    0    0  0.84397193413E+01  0.15585371430E+02  0.47054091346E+02  0.50281409864E+02  0.51100000000E-03 0. -1.
         22    1    1    0    0    0  0.11629308119E+02 -0.25175144336E+02 -0.65271936656E+01  0.28489172624E+02  0.00000000000E+00 0. -1.
</event>
<event>
 5    1  0.8902899E-005  0.9118800E+02  0.7818608E-02  0.1130116E+00
         25   -1    0    0    0    0  0.00000000000E+00  0.00000000000E+00  0.99999998245E-14  0.12500000000E+03  0.12500000000E+03 0.  0.
        -11    1    3    3    0    0 -0.23812004924E+02  0.14376895295E+02 -0.23184978613E+02  0.36211185155E+02  0.51100000000E-03 0. -1.
         23    2    1    0    0    0  0.21001676059E+02 -0.51533064039E+00  0.16809287034E+02  0.98094831472E+02  0.94332962786E+02 0.  0.
         11    1    3    3    0    0  0.44813680983E+02 -0.14892225935E+02  0.39994265646E+02  0.61883646316E+02  0.51100000000E-03 0.  1.
         22    1    1    0    0    0 -0.21001676059E+02  0.51533064039E+00 -0.16809287034E+02  0.26905168528E+02  0.00000000000E+00 0.  1.
</event>
<event>
 5    1  0.8902899E-005  0.9118800E+02  0.7818608E-02  0.1130116E+00
         25   -1    0    0    0    0  0.00000000000E+00  0.00000000000E+00  0.99999998245E-14  0.12500000000E+03  0.12500000000E+03 0.  0.
        -11    1    3    3    0    0  0.36870206768E+01  0.36554657947E+02 -0.89821205728E+01  0.37822157915E+02  0.51100000000E-03 0. -1.
         23    2    1    0    0    0  0.20690275703E+02 -0.73599822017E+01  0.21779840054E+02  0.94070753655E+02  0.88840803766E+02 0.  0.
         11    1    3    3    0    0  0.17003255026E+02 -0.43914640149E+02  0.30761960627E+02  0.56248595740E+02  0.51100000000E-03 0.  1.
         22    1    1    0    0    0 -0.20690275703E+02  0.73599822017E+01 -0.21779840054E+02  0.30929246345E+02  0.00000000000E+00 0.  1.
</event>
<event>
 5    1  0.8902899E-005  0.9118800E+02  0.7818608E-02  0.1130116E+00
         25   -1    0    0    0    0  0.00000000000E+00  0.00000000000E+00  0.99999998245E-14  0.12500000000E+03  0.12500000000E+03 0.  0.
        -11    1    3    3    0    0  0.44624301281E+02  0.30897014187E+02 -0.29295824152E+02  0.61678189528E+02  0.51100000000E-03 0.  1.
         23    2    1    0    0    0  0.22001008327E+02  0.84873952257E+01 -0.17493352981E+02  0.95638500658E+02  0.91019916307E+02 0.  0.
         11    1    3    3    0    0 -0.22623292954E+02 -0.22409618961E+02  0.11802471171E+02  0.33960311130E+02  0.51100000000E-03 0. -1.
         22    1    1    0    0    0 -0.22001008327E+02 -0.84873952257E+01  0.17493352981E+02  0.29361499342E+02  0.00000000000E+00 0.  1.
</event>
<event>
 5    1  0.8902899E-005  0.9118800E+02  0.7818608E-02  0.1130116E+00
         25   -1    0    0    0    0  0.00000000000E+00  0.00000000000E+00  0.99999998245E-14  0.12500000000E+03  0.12500000000E+03 0.  0.
        -11    1    3    3    0    0  0.44320292030E+02  0.36694712003E+02  0.22465324663E+02  0.61769579787E+02  0.51100000000E-03 0. -1.
         23    2    1    0    0    0  0.17017417738E+02  0.20108266294E+02  0.15394609389E+02  0.94488872881E+02  0.89427167126E+02 0.  0.
         11    1    3    3    0    0 -0.27302874292E+02 -0.16586445709E+02 -0.70707152738E+01  0.32719293094E+02  0.51100000000E-03 0.  1.
         22    1    1    0    0    0 -0.17017417738E+02 -0.20108266294E+02 -0.15394609389E+02  0.30511127119E+02  0.00000000000E+00 0. -1.
</event>
<event>
 5    1  0.8902899E-005  0.9118800E+02  0.7818608E-02  0.1130116E+00
         25   -1    0    0    0    0  0.00000000000E+00  0.00000000000E+00  0.99999998245E-14  0.12500000000E+03  0.12500000000E+03 0.  0.
        -11    1    3    3    0    0 -0.37320742847E+02 -0.44119910493E+02 -0.21643188297E+02  0.61707632822E+02  0.51100000000E-03 0.  1.
         23    2    1    0    0    0 -0.12201630172E+02 -0.25303314455E+02 -0.10240197447E+02  0.95100181522E+02  0.90277601765E+02 0.  0.
         11    1    3    3    0    0  0.25119112676E+02  0.18816596038E+02  0.11402990850E+02  0.33392548700E+02  0.51100000000E-03 0. -1.
         22    1    1    0    0    0  0.12201630172E+02  0.25303314455E+02  0.10240197447E+02  0.29899818478E+02  0.00000000000E+00 0.  1.
</event>
<event>
 5    1  0.8902899E-005  0.9118800E+02  0.7818608E-02  0.1130116E+00
         25   -1    0    0    0    0  0.00000000000E+00  0.00000000000E+00  0.99999998245E-14  0.12500000000E+03  0.12500000000E+03 0.  0.
        -11    1    3    3    0    0 -0.21829255589E+02  0.28325076123E+02  0.73042690105E+01  0.36499023042E+02  0.51100000000E-03 0. -1.
         23    2    1    0    0    0  0.16135128801E+02 -0.20608489596E+02  0.32789922438E+00  0.98824443793E+02  0.95294863178E+02 0.  0.
         11    1    3    3    0    0  0.37964384390E+02 -0.48933565719E+02 -0.69763697862E+01  0.62325420751E+02  0.51100000000E-03 0.  1.
         22    1    1    0    0    0 -0.16135128801E+02  0.20608489596E+02 -0.32789922438E+00  0.26175556207E+02  0.00000000000E+00 0.  1.
</event>
<event>
 5    1  0.8902899E-005  0.9118800E+02  0.7818608E-02  0.1130116E+00
         25   -1    0    0    0    0  0.00000000000E+00  0.00000000000E+00  0.99999998245E-14  0.12500000000E+03  0.12500000000E+03 0.  0.
        -11    1    3    3    0    0  0.11498612582E+02 -0.39275355398E+02 -0.31189925499E+02  0.51454670205E+02  0.51100000000E-03 0. -1.
         23    2    1    0    0    0  0.29184728980E+02 -0.77965824257E+01 -0.17627882737E+02  0.90024617901E+02  0.82952724339E+02 0.  0.
         11    1    3    3    0    0  0.17686116398E+02  0.31478772973E+02  0.13562042762E+02  0.38569947696E+02  0.51100000000E-03 0.  1.
         22    1    1    0    0    0 -0.29184728980E+02  0.77965824257E+01  0.17627882737E+02  0.34975382099E+02  0.00000000000E+00 0. -1.
</event>
<event>
 5    1  0.8902899E-005  0.9118800E+02  0.7818608E-02  0.1130116E+00
         25   -1    0    0    0    0  0.00000000000E+00  0.00000000000E+00  0.99999998245E-14  0.12500000000E+03  0.12500000000E+03 0.  0.
        -11    1    3    3    0    0 -0.43696504223E+02  0.59991108187E+01 -0.37163291366E+02  0.57675679774E+02  0.51100000000E-03 0. -1.
         23    2    1    0    0    0 -0.67881644568E+01  0.94796402604E+01 -0.26180798864E+02  0.96340324752E+02  0.91978699643E+02 0.  0.
         11    1    3    3    0    0  0.36908339766E+02  0.34805294417E+01  0.10982492502E+02  0.38664644978E+02  0.51100000000E-03 0.  1.
         22    1    1    0    0    0  0.67881644568E+01 -0.94796402604E+01  0.26180798864E+02  0.28659675248E+02  0.00000000000E+00 0. -1.
</event>
<event>
 5    1  0.8902899E-005  0.9118800E+02  0.7818608E-02  0.1130116E+00
         25   -1    0    0    0    0  0.00000000000E+00  0.00000000000E+00  0.99999998245E-14  0.12500000000E+03  0.12500000000E+03 0.  0.
        -11    1    3    3    0    0 -0.27764416004E+02  0.24791906263E+01  0.28841057507E+02  0.40110045882E+02  0.51100000000E-03 0.  1.
         23    2    1    0    0    0  0.12342016688E+02  0.27163849590E+02  0.33046888964E+00  0.95161948620E+02  0.90363085134E+02 0.  0.
         11    1    3    3    0    0  0.40106432693E+02  0.24684658964E+02 -0.28510588618E+02  0.55051902738E+02  0.51100000000E-03 0. -1.
         22    1    1    0    0    0 -0.12342016688E+02 -0.27163849590E+02 -0.33046888964E+00  0.29838051380E+02  0.00000000000E+00 0. -1.
</event>
<event>
 5    1  0.8902899E-005  0.9118800E+02  0.7818608E-02  0.1130116E+00
         25   -1    0    0    0    0  0.00000000000E+00  0.00000000000E+00  0.99999998245E-14  0.12500000000E+03  0.12500000000E+03 0.  0.
        -11    1    3    3    0    0  0.10668962628E+02  0.91352595503E+01  0.31299358801E+02  0.34306407452E+02  0.51100000000E-03 0.  1.
         23    2    1    0    0    0 -0.18605363904E+02  0.29931512021E+01 -0.22371292376E+02  0.95749474489E+02  0.91172192154E+02 0.  0.
         11    1    3    3    0    0 -0.29274326532E+02 -0.61421083482E+01 -0.53670651177E+02  0.61443067037E+02  0.51100000000E-03 0. -1.
         22    1    1    0    0    0  0.18605363904E+02 -0.29931512021E+01  0.22371292376E+02  0.29250525511E+02  0.00000000000E+00 0. -1.
</event>
<event>
 5    1  0.8902899E-005  0.9118800E+02  0.7818608E-02  0.1130116E+00
         25   -1    0    0    0    0  0.00000000000E+00  0.00000000000E+00  0.99999998245E-14  0.12500000000E+03  0.12500000000E+03 0.  0.
        -11    1    3    3    0    0  0.38004229148E+01  0.32757596610E+02  0.34955666934E+02  0.48056237899E+02  0.51100000000E-03 0.  1.
         23    2    1    0    0    0 -0.26152613351E+02  0.14963356966E+02  0.41071683270E+01  0.94590625320E+02  0.89569282290E+02 0.  0.
         11    1    3    3    0    0 -0.29953036266E+02 -0.17794239644E+02 -0.30848498607E+02  0.46534387421E+02  0.51100000000E-03 0. -1.
         22    1    1    0    0    0  0.26152613351E+02 -0.14963356966E+02 -0.41071683270E+01  0.30409374680E+02  0.00000000000E+00 0. -1.
</event>
<event>
 5    1  0.8902899E-005  0.9118800E+02  0.7818608E-02  0.1130116E+00
         25   -1    0    0    0    0  0.00000000000E+00  0.00000000000E+00  0.99999998245E-14  0.12500000000E+03  0.12500000000E+03 0.  0.
        -11    1    3    3    0    0 -0.35895200401E+02 -0.26748479919E+02 -0.38564839656E+02  0.59086322002E+02  0.51100000000E-03 0.  1.
         23    2    1    0    0    0 -0.12565699319E+02 -0.27166359651E+02 -0.24404714952E+02  0.86380082756E+02  0.77265908970E+02 0.  0.
         11    1    3    3    0    0  0.23329501081E+02 -0.41787973183E+00  0.14160124704E+02  0.27293760754E+02  0.51100000000E-03 0. -1.
         22    1    1    0    0    0  0.12565699319E+02  0.27166359651E+02  0.24404714952E+02  0.38619917244E+02  0.00000000000E+00 0.  1.
</event>
<event>
 5    1  0.8902899E-005  0.9118800E+02  0.7818608E-02  0.1130116E+00
         25   -1    0    0    0    0  0.00000000000E+00  0.00000000000E+00  0.99999998245E-14  0.12500000000E+03  0.12500000000E+03 0.  0.
        -11    1    3    3    0    0 -0.27660014916E+02  0.35308407409E+02 -0.26199537063E+01  0.44929102112E+02  0.51100000000E-03 0.  1.
         23    2    1    0    0    0  0.22487507044E+01  0.60815223126E+01  0.27680148971E+02  0.96570570874E+02  0.92291076051E+02 0.  0.
         11    1    3    3    0    0  0.29908765620E+02 -0.29226885097E+02  0.30300102677E+02  0.51641468762E+02  0.51100000000E-03 0. -1.
         22    1    1    0    0    0 -0.22487507044E+01 -0.60815223126E+01 -0.27680148971E+02  0.28429429126E+02  0.00000000000E+00 0.  1.
</event>
<event>
 5    1  0.8902899E-005  0.9118800E+02  0.7818608E-02  0.1130116E+00
         25   -1    0    0    0    0  0.00000000000E+00  0.00000000000E+00  0.99999998245E-14  0.12500000000E+03  0.12500000000E+03 0.  0.
        -11    1    3    3    0    0 -0.53286122439E+01 -0.27553542867E+02 -0.21651749872E+02  0.35445593602E+02  0.51100000000E-03 0.  1.
         23    2    1    0    0    0  0.10138521681E+02  0.26828793970E+02  0.87247673834E+00  0.96306184927E+02  0.91932291562E+02 0.  0.
         11    1    3    3    0    0  0.15467133925E+02  0.54382336838E+02  0.22524226611E+02  0.60860591325E+02  0.51100000000E-03 0. -1.
         22    1    1    0    0    0 -0.10138521681E+02 -0.26828793970E+02 -0.87247673834E+00  0.28693815073E+02  0.00000000000E+00 0. -1.
</event>
<event>
 5    1  0.8902899E-005  0.9118800E+02  0.7818608E-02  0.1130116E+00
         25   -1    0    0    0    0  0.00000000000E+00  0.00000000000E+00  0.99999998245E-14  0.12500000000E+03  0.12500000000E+03 0.  0.
        -11    1    3    3    0    0  0.28082454839E+02  0.65980758423E+01  0.31338895387E+02  0.42594427322E+02  0.51100000000E-03 0.  1.
         23    2    1    0    0    0 -0.62526791559E+01  0.30884266251E+02  0.29159016055E+01  0.93354520375E+02  0.87827274202E+02 0.  0.
         11    1    3    3    0    0 -0.34335133994E+02  0.24286190409E+02 -0.28422993781E+02  0.50760093053E+02  0.51100000000E-03 0. -1.
         22    1    1    0    0    0  0.62526791559E+01 -0.30884266251E+02 -0.29159016055E+01  0.31645479625E+02  0.00000000000E+00 0.  1.
</event>
<event>
 5    1  0.8902899E-005  0.9118800E+02  0.7818608E-02  0.1130116E+00
         25   -1    0    0    0    0  0.00000000000E+00  0.00000000000E+00  0.99999998245E-14  0.12500000000E+03  0.12500000000E+03 0.  0.
        -11    1    3    3    0    0 -0.41881151585E+00 -0.72475866719E+01 -0.41394043661E+02  0.42025822616E+02  0.51100000000E-03 0. -1.
         23    2    1    0    0    0  0.30000721134E+02  0.48935724308E+00  0.12420268654E+01  0.94969592580E+02  0.90096604514E+02 0.  0.
         11    1    3    3    0    0  0.30419532650E+02  0.77369439149E+01  0.42636070527E+02  0.52943769964E+02  0.51100000000E-03 0.  1.
         22    1    1    0    0    0 -0.30000721134E+02 -0.48935724308E+00 -0.12420268654E+01  0.30030407420E+02  0.00000000000E+00 0.  1.
</event>
<event>
 5    1  0.8902899E-005  0.9118800E+02  0.7818608E-02  0.1130116E+00
         25   -1    0    0    0    0  0.00000000000E+00  0.00000000000E+00  0.99999998245E-14  0.12500000000E+03  0.12500000000E+03 0.  0.
        -11    1    3    3    0    0  0.16710201277E+02 -0.18452922640E+02  0.41589365554E+02  0.48470779942E+02  0.51100000000E-03 0.  1.
         23    2    1    0    0    0 -0.18329863078E+02  0.69141927340E+01  0.20667555321E+02  0.96523030629E+02  0.92226664568E+02 0.  0.
         11    1    3    3    0    0 -0.35040064355E+02  0.25367115374E+02 -0.20921810234E+02  0.48052250687E+02  0.51100000000E-03 0. -1.
         22    1    1    0    0    0  0.18329863078E+02 -0.69141927340E+01 -0.20667555321E+02  0.28476969371E+02  0.00000000000E+00 0.  1.
</event>
<event>
 5    1  0.8902899E-005  0.9118800E+02  0.7818608E-02  0.1130116E+00
         25   -1    0    0    0    0  0.00000000000E+00  0.00000000000E+00  0.99999998245E-14  0.12500000000E+03  0.12500000000E+03 0.  0.
        -11    1    3    3    0    0 -0.52974934558E+02 -0.24761253313E+02  0.66891616657E+01  0.58857524932E+02  0.51100000000E-03 0.  1.
         23    2    1    0    0    0 -0.21161222981E+02 -0.10559562764E+02  0.17771633286E+02  0.95417358578E+02  0.90715707816E+02 0.  0.
         11    1    3    3    0    0  0.31813711577E+02  0.14201690549E+02  0.11082471621E+02  0.36559833646E+02  0.51100000000E-03 0. -1.
         22    1    1    0    0    0  0.21161222981E+02  0.10559562764E+02 -0.17771633286E+02  0.29582641422E+02  0.00000000000E+00 0.  1.
</event>
<event>
 5    1  0.8902899E-005  0.9118800E+02  0.7818608E-02  0.1130116E+00
         25   -1    0    0    0    0  0.00000000000E+00  0.00000000000E+00  0.99999998245E-14  0.12500000000E+03  0.12500000000E+03 0.  0.
        -11    1    3    3    0    0 -0.24941654903E+02 -0.25592259125E+02 -0.14644951059E+02  0.38620259816E+02  0.51100000000E-03 0.  1.
         23    2    1    0    0    0  0.63853941483E+01 -0.87498597641E+01  0.28485479902E+02  0.94524503784E+02  0.89476957627E+02 0.  0.
         11    1    3    3    0    0  0.31327049052E+02  0.16842399361E+02  0.43130430961E+02  0.55904243969E+02  0.51100000000E-03 0. -1.
         22    1    1    0    0    0 -0.63853941483E+01  0.87498597641E+01 -0.28485479902E+02  0.30475496216E+02  0.00000000000E+00 0. -1.
</event>
<event>
 5    1  0.8902899E-005  0.9118800E+02  0.7818608E-02  0.1130116E+00
         25   -1    0    0    0    0  0.00000000000E+00  0.00000000000E+00  0.99999998245E-14  0.12500000000E+03  0.12500000000E+03 0.  0.
        -11    1    3    3    0    0  0.20954363579E+02 -0.64837308653E+01 -0.31782474241E+02  0.38616703486E+02  0.51100000000E-03 0.  1.
         23    2    1    0    0    0 -0.23161145496E+02 -0.17499100260E+02  0.29324262172E+01  0.95823703215E+02  0.91273905382E+02 0.  0.
         11    1    3    3    0    0 -0.44115509075E+02 -0.11015369394E+02  0.34714900459E+02  0.57206999729E+02  0.51100000000E-03 0. -1.
         22    1    1    0    0    0  0.23161145496E+02  0.17499100260E+02 -0.29324262172E+01  0.29176296785E+02  0.00000000000E+00 0. -1.
</event>
<event>
 5    1  0.8902899E-005  0.9118800E+02  0.7818608E-02  0.1130116E+00
         25   -1    0    0    0    0  0.00000000000E+00  0.00000000000E+00  0.99999998245E-14  0.12500000000E+03  0.12500000000E+03 0.  0.
        -11    1    3    3    0    0 -0.22370711009E+02 -0.35619569050E+02  0.10653009921E+02  0.43389964635E+02  0.51100000000E-03 0.  1.
         23    2    1    0    0    0  0.23263498306E+02 -0.98352911442E+01 -0.71577753193E+01  0.98748199055E+02  0.95194799037E+02 0.  0.
         11    1    3    3    0    0  0.45634209315E+02  0.25784277906E+02 -0.17810785240E+02  0.55358234420E+02  0.51100000000E-03 0. -1.
         22    1    1    0    0    0 -0.23263498306E+02  0.98352911442E+01  0.71577753193E+01  0.26251800945E+02  0.00000000000E+00 0. -1.
</event>
<event>
 5    1  0.8902899E-005  0.9118800E+02  0.7818608E-02  0.1130116E+00
         25   -1    0    0    0    0  0.00000000000E+00  0.00000000000E+00  0.99999998245E-14  0.12500000000E+03  0.12500000000E+03 0.  0.
        -11    1    3    3    0    0  0.51096803084E+02  0.12273146255E+02 -0.51320410831E+01  0.52800106538E+02  0.51100000000E-03 0.  1.
         23    2    1    0    0    0  0.29516551786E+02  0.14462904331E+02 -0.26145164683E+02  0.83000332533E+02  0.71589685943E+02 0.  0.
         11    1    3    3    0    0 -0.21580251298E+02  0.21897580755E+01 -0.21013123600E+02  0.30200225996E+02  0.51100000000E-03 0. -1.
         22    1    1    0    0    0 -0.29516551786E+02 -0.14462904331E+02  0.26145164683E+02  0.41999667467E+02  0.00000000000E+00 0.  1.
</event>
<event>
 5    1  0.8902899E-005  0.9118800E+02  0.7818608E-02  0.1130116E+00
         25   -1    0    0    0    0  0.00000000000E+00  0.00000000000E+00  0.99999998245E-14  0.12500000000E+03  0.12500000000E+03 0.  0.
        -11    1    3    3    0    0  0.53872081935E+02 -0.98743173261E+01  0.22800577963E+02  0.59325961521E+02  0.51100000000E-03 0. -1.
         23    2    1    0    0    0  0.26433744946E+02  0.58773786275E+01  0.71316518272E+00  0.97911348207E+02  0.94089516163E+02 0.  0.
         11    1    3    3    0    0 -0.27438336989E+02  0.15751695954E+02 -0.22087412781E+02  0.38585386686E+02  0.51100000000E-03 0.  1.
         22    1    1    0    0    0 -0.26433744946E+02 -0.58773786275E+01 -0.71316518272E+00  0.27088651793E+02  0.00000000000E+00 0. -1.
</event>
<event>
 5    1  0.8902899E-005  0.9118800E+02  0.7818608E-02  0.1130116E+00
         25   -1    0    0    0    0  0.00000000000E+00  0.00000000000E+00  0.99999998245E-14  0.12500000000E+03  0.12500000000E+03 0.  0.
        -11    1    3    3    0    0 -0.42830079948E+02  0.22824681012E+02  0.20426742797E+02  0.52655803414E+02  0.51100000000E-03 0. -1.
         23    2    1    0    0    0 -0.13840554885E+02  0.24783296487E+02 -0.10166766551E+02  0.94848119687E+02  0.89927915142E+02 0.  0.
         11    1    3    3    0    0  0.28989525063E+02  0.19586154746E+01 -0.30593509349E+02  0.42192316273E+02  0.51100000000E-03 0.  1.
         22    1    1    0    0    0  0.13840554885E+02 -0.24783296487E+02  0.10166766551E+02  0.30151880313E+02  0.00000000000E+00 0. -1.
</event>
<event>
 5    1  0.8902899E-005  0.9118800E+02  0.7818608E-02  0.1130116E+00
         25   -1    0    0    0    0  0.00000000000E+00  0.00000000000E+00  0.99999998245E-14  0.12500000000E+03  0.12500000000E+03 0.  0.
        -11    1    3    3    0    0  0.56124753857E+02  0.18423693308E+02 -0.57024918972E+01  0.59345925594E+02  0.51100000000E-03 0.  1.
         23    2    1    0    0    0  0.23746881569E+02 -0.84305347982E+00 -0.13282800417E+02  0.97777621149E+02  0.93911688768E+02 0.  0.
         11    1    3    3    0    0 -0.32377872288E+02 -0.19266746788E+02 -0.75803085194E+01  0.38431695554E+02  0.51100000000E-03 0. -1.
         22    1    1    0    0    0 -0.23746881569E+02  0.84305347982E+00  0.13282800417E+02  0.27222378851E+02  0.00000000000E+00 0.  1.
</event>
<event>
 5    1  0.8902899E-005  0.9118800E+02  0.7818608E-02  0.1130116E+00
         25   -1    0    0    0    0  0.00000000000E+00  0.00000000000E+00  0.99999998245E-14  0.12500000000E+03  0.12500000000E+03 0.  0.
        -11    1    3    3    0    0 -0.16199257925E+02  0.26855297855E+02  0.19911683746E+02  0.37149672005E+02  0.51100000000E-03 0.  1.
         23    2    1    0    0    0  0.14703402113E+02  0.35992982433E+01 -0.24599377559E+02  0.96116192117E+02  0.91673595049E+02 0.  0.
         11    1    3    3    0    0  0.30902660038E+02 -0.23255999611E+02 -0.44511061305E+02  0.58966520112E+02  0.51100000000E-03 0. -1.
         22    1    1    0    0    0 -0.14703402113E+02 -0.35992982433E+01  0.24599377559E+02  0.28883807883E+02  0.00000000000E+00 0. -1.
</event>
<event>
 5    1  0.8902899E-005  0.9118800E+02  0.7818608E-02  0.1130116E+00
         25   -1    0    0    0    0  0.00000000000E+00  0.00000000000E+00  0.99999998245E-14  0.12500000000E+03  0.12500000000E+03 0.  0.
        -11    1    3    3    0    0  0.46699592374E+02  0.15303150447E+02  0.14674943152E+02  0.51287350275E+02  0.51100000000E-03 0.  1.
         23    2    1    0    0    0  0.27664618767E+01  0.19380813639E+02  0.21486688850E+02  0.95932027137E+02  0.91422135089E+02 0.  0.
         11    1    3    3    0    0 -0.43933130497E+02  0.40776631918E+01  0.68117456980E+01  0.44644676862E+02  0.51100000000E-03 0. -1.
         22    1    1    0    0    0 -0.27664618767E+01 -0.19380813639E+02 -0.21486688850E+02  0.29067972863E+02  0.00000000000E+00 0. -1.
</event>
<event>
 5    1  0.8902899E-005  0.9118800E+02  0.7818608E-02  0.1130116E+00
         25   -1    0    0    0    0  0.00000000000E+00  0.00000000000E+00  0.99999998245E-14  0.12500000000E+03  0.12500000000E+03 0.  0.
        -11    1    3    3    0    0  0.34894707069E+02  0.89417894524E+01 -0.39822468714E+02  0.53697534346E+02  0.51100000000E-03 0.  1.
         23    2    1    0    0    0  0.16184292658E+02 -0.19345628534E+02 -0.16422158539E+02  0.94902293056E+02  0.90003184743E+02 0.  0.
         11    1    3    3    0    0 -0.18710414410E+02 -0.28287417987E+02  0.23400310176E+02  0.41204758710E+02  0.51100000000E-03 0. -1.
         22    1    1    0    0    0 -0.16184292658E+02  0.19345628534E+02  0.16422158539E+02  0.30097706944E+02  0.00000000000E+00 0.  1.
</event>
<event>
 5    1  0.8902899E-005  0.9118800E+02  0.7818608E-02  0.1130116E+00
         25   -1    0    0    0    0  0.00000000000E+00  0.00000000000E+00  0.99999998245E-14  0.12500000000E+03  0.12500000000E+03 0.  0.
        -11    1    3    3    0    0 -0.36085799315E+02 -0.14664017030E+02 -0.39405775199E+01  0.39150305990E+02  0.51100000000E-03 0. -1.
         23    2    1    0    0    0  0.20410640339E+02 -0.12950302939E+01 -0.16704292934E+02  0.98593471547E+02  0.94991409542E+02 0.  0.
         11    1    3    3    0    0  0.56496439655E+02  0.13368986736E+02 -0.12763715414E+02  0.59443165557E+02  0.51100000000E-03 0.  1.
         22    1    1    0    0    0 -0.20410640339E+02  0.12950302939E+01  0.16704292934E+02  0.26406528453E+02  0.00000000000E+00 0.  1.
</event>
<event>
 5    1  0.8902899E-005  0.9118800E+02  0.7818608E-02  0.1130116E+00
         25   -1    0    0    0    0  0.00000000000E+00  0.00000000000E+00  0.99999998245E-14  0.12500000000E+03  0.12500000000E+03 0.  0.
        -11    1    3    3    0    0  0.24097074338E+01 -0.61066231120E+02 -0.49669980583E+01  0.61315270065E+02  0.51100000000E-03 0. -1.
         23    2    1    0    0    0 -0.55512504117E+01 -0.25251045639E+02  0.33339195308E+01  0.98931883335E+02  0.95435689518E+02 0.  0.
         11    1    3    3    0    0 -0.79609578455E+01  0.35815185481E+02  0.83009175891E+01  0.37616613270E+02  0.51100000000E-03 0.  1.
         22    1    1    0    0    0  0.55512504117E+01  0.25251045639E+02 -0.33339195308E+01  0.26068116665E+02  0.00000000000E+00 0. -1.
</event>
<event>
 5    1  0.8902899E-005  0.9118800E+02  0.7818608E-02  0.1130116E+00
         25   -1    0    0    0    0  0.00000000000E+00  0.00000000000E+00  0.99999998245E-14  0.12500000000E+03  0.12500000000E+03 0.  0.
        -11    1    3    3    0    0 -0.94625981796E+01 -0.32242132383E+02 -0.27648275532E+02  0.43514629782E+02  0.51100000000E-03 0.  1.
         23    2    1    0    0    0 -0.28036243066E+02  0.68288640740E+01  0.21794220653E+01  0.96061890346E+02  0.91599522850E+02 0.  0.
         11    1    3    3    0    0 -0.18573644887E+02  0.39070996457E+02  0.29827697597E+02  0.52547260564E+02  0.51100000000E-03 0. -1.
         22    1    1    0    0    0  0.28036243066E+02 -0.68288640740E+01 -0.21794220653E+01  0.28938109654E+02  0.00000000000E+00 0. -1.
</event>
<event>
 5    1  0.8902899E-005  0.9118800E+02  0.7818608E-02  0.1130116E+00
         25   -1    0    0    0    0  0.00000000000E+00  0.00000000000E+00  0.99999998245E-14  0.12500000000E+03  0.12500000000E+03 0.  0.
        -11    1    3    3    0    0 -0.28682885359E+02  0.18569250990E+02  0.15410468812E+02  0.37483430261E+02  0.51100000000E-03 0.  1.
         23    2    1    0    0    0  0.22532030214E+02  0.10668516343E+02 -0.13318886087E+02  0.96735139252E+02  0.92513700677E+02 0.  0.
         11    1    3    3    0    0  0.51214915573E+02 -0.79007346471E+01 -0.28729354900E+02  0.59251708991E+02  0.51100000000E-03 0. -1.
         22    1    1    0    0    0 -0.22532030214E+02 -0.10668516343E+02  0.13318886087E+02  0.28264860748E+02  0.00000000000E+00 0. -1.
</event>
<event>
 5    1  0.8902899E-005  0.9118800E+02  0.7818608E-02  0.1130116E+00
         25   -1    0    0    0    0  0.00000000000E+00  0.00000000000E+00  0.99999998245E-14  0.12500000000E+03  0.12500000000E+03 0.  0.
        -11    1    3    3    0    0  0.31103164115E+02  0.22463537323E+02  0.26652744540E+02  0.46716015656E+02  0.51100000000E-03 0. -1.
         23    2    1    0    0    0  0.15924148502E+02 -0.21598424778E+02  0.12315159514E+02  0.95474864737E+02  0.90794912767E+02 0.  0.
         11    1    3    3    0    0 -0.15179015612E+02 -0.44061962101E+02 -0.14337585026E+02  0.48758849082E+02  0.51100000000E-03 0.  1.
         22    1    1    0    0    0 -0.15924148502E+02  0.21598424778E+02 -0.12315159514E+02  0.29525135263E+02  0.00000000000E+00 0. -1.
</event>
<event>
 5    1  0.8902899E-005  0.9118800E+02  0.7818608E-02  0.1130116E+00
         25   -1    0    0    0    0  0.00000000000E+00  0.00000000000E+00  0.99999998245E-14  0.12500000000E+03  0.12500000000E+03 0.  0.
        -11    1    3    3    0    0 -0.12737794463E+02 -0.56365426835E+02  0.62516528006E+00  0.57790168558E+02  0.51100000000E-03 0. -1.
         23    2    1    0    0    0 -0.68309964580E+01 -0.25217545777E+02  0.17353099663E+02  0.93635733780E+02  0.88226602819E+02 0.  0.
         11    1    3    3    0    0  0.59067980050E+01  0.31147881058E+02  0.16727934383E+02  0.35845565222E+02  0.51100000000E-03 0.  1.
         22    1    1    0    0    0  0.68309964580E+01  0.25217545777E+02 -0.17353099663E+02  0.31364266220E+02  0.00000000000E+00 0. -1.
</event>
<event>
 5    1  0.8902899E-005  0.9118800E+02  0.7818608E-02  0.1130116E+00
         25   -1    0    0    0    0  0.00000000000E+00  0.00000000000E+00  0.99999998245E-14  0.12500000000E+03  0.12500000000E+03 0.  0.
        -11    1    3    3    0    0  0.88542408158E+01  0.35676313612E+02  0.23286461534E+02  0.43513862440E+02  0.51100000000E-03 0. -1.
         23    2    1    0    0    0  0.19840022572E+02 -0.15599981566E+02  0.37027317316E+01  0.99491253602E+02  0.96165552047E+02 0.  0.
         11    1    3    3    0    0  0.10985781756E+02 -0.51276295179E+02 -0.19583729803E+02  0.55977391162E+02  0.51100000000E-03 0.  1.
         22    1    1    0    0    0 -0.19840022572E+02  0.15599981566E+02 -0.37027317316E+01  0.25508746398E+02  0.00000000000E+00 0.  1.
</event>
<event>
 5    1  0.8902899E-005  0.9118800E+02  0.7818608E-02  0.1130116E+00
         25   -1    0    0    0    0  0.00000000000E+00  0.00000000000E+00  0.99999998245E-14  0.12500000000E+03  0.12500000000E+03 0.  0.
        -11    1    3    3    0    0 -0.22626842509E+02  0.33396402548E+00 -0.29870157825E+02  0.37474149258E+02  0.51100000000E-03 0. -1.
         23    2    1    0    0    0  0.18566324407E+02  0.18400154615E+02  0.94366142208E+01  0.97209286086E+02  0.93152141798E+02 0.  0.
         11    1    3    3    0    0  0.41193166916E+02  0.18066190590E+02  0.39306772046E+02  0.59735136828E+02  0.51100000000E-03 0.  1.
         22    1    1    0    0    0 -0.18566324407E+02 -0.18400154615E+02 -0.94366142208E+01  0.27790713914E+02  0.00000000000E+00 0.  1.
</event>
<event>
 5    1  0.8902899E-005  0.9118800E+02  0.7818608E-02  0.1130116E+00
         25   -1    0    0    0    0  0.00000000000E+00  0.00000000000E+00  0.99999998245E-14  0.12500000000E+03  0.12500000000E+03 0.  0.
        -11    1    3    3    0    0 -0.27274887081E+02 -0.16910807381E+01 -0.21770919780E+02  0.34939263983E+02  0.51100000000E-03 0. -1.
         23    2    1    0    0    0  0.62392111006E+01  0.23298834721E+02  0.19724340308E+02  0.93842126916E+02  0.88518538900E+02 0.  0.
         11    1    3    3    0    0  0.33514098182E+02  0.24989915459E+02  0.41495260089E+02  0.58902862933E+02  0.51100000000E-03 0.  1.
         22    1    1    0    0    0 -0.62392111006E+01 -0.23298834721E+02 -0.19724340308E+02  0.31157873084E+02  0.00000000000E+00 0.  1.
</event>
<event>
 5    1  0.8902899E-005  0.9118800E+02  0.7818608E-02  0.1130116E+00
         25   -1    0    0    0    0  0.00000000000E+00  0.00000000000E+00  0.99999998245E-14  0.12500000000E+03  0.12500000000E+03 0.  0.
        -11    1    3    3    0    0 -0.92752759182E+01  0.53394011186E+01 -0.32499609189E+02  0.34216436772E+02  0.51100000000E-03 0.  1.
         23    2    1    0    0    0  0.35372990990E+01  0.14084794122E+02  0.26261476204E+02  0.94990684067E+02  0.90125862086E+02 0.  0.
         11    1    3    3    0    0  0.12812575017E+02  0.87453930033E+01  0.58761085393E+02  0.60774247295E+02  0.51100000000E-03 0. -1.
         22    1    1    0    0    0 -0.35372990990E+01 -0.14084794122E+02 -0.26261476204E+02  0.30009315933E+02  0.00000000000E+00 0. -1.
</event>
<event>
 5    1  0.8902899E-005  0.9118800E+02  0.7818608E-02  0.1130116E+00
         25   -1    0    0    0    0  0.00000000000E+00  0.00000000000E+00  0.99999998245E-14  0.12500000000E+03  0.12500000000E+03 0.  0.
        -11    1    3    3    0    0  0.19479801852E+01 -0.27330223084E+02  0.48083469470E+02  0.55342169790E+02  0.51100000000E-03 0. -1.
         23    2    1    0    0    0  0.26274852175E+01  0.84333055549E+01  0.26377422074E+02  0.97182870091E+02  0.93116687670E+02 0.  0.
         11    1    3    3    0    0  0.67950503237E+00  0.35763528639E+02 -0.21706047396E+02  0.41840700300E+02  0.51100000000E-03 0.  1.
         22    1    1    0    0    0 -0.26274852175E+01 -0.84333055549E+01 -0.26377422074E+02  0.27817129909E+02  0.00000000000E+00 0. -1.
</event>
<event>
 5    1  0.8902899E-005  0.9118800E+02  0.7818608E-02  0.1130116E+00
         25   -1    0    0    0    0  0.00000000000E+00  0.00000000000E+00  0.99999998245E-14  0.12500000000E+03  0.12500000000E+03 0.  0.
        -11    1    3    3    0    0  0.61055958641E-01  0.60788932530E+02 -0.51326696557E+01  0.61005264888E+02  0.51100000000E-03 0.  1.
         23    2    1    0    0    0 -0.87723531411E+01  0.27268146119E+02 -0.62221524151E+01  0.95687525641E+02  0.91087218698E+02 0.  0.
         11    1    3    3    0    0 -0.88334090998E+01 -0.33520786412E+02 -0.10894827594E+01  0.34682260753E+02  0.51100000000E-03 0. -1.
         22    1    1    0    0    0  0.87723531411E+01 -0.27268146119E+02  0.62221524151E+01  0.29312474359E+02  0.00000000000E+00 0.  1.
</event>
<event>
 5    1  0.8902899E-005  0.9118800E+02  0.7818608E-02  0.1130116E+00
         25   -1    0    0    0    0  0.00000000000E+00  0.00000000000E+00  0.99999998245E-14  0.12500000000E+03  0.12500000000E+03 0.  0.
        -11    1    3    3    0    0  0.45089588821E+02  0.23221312085E+02 -0.72612499159E+01  0.51235008593E+02  0.51100000000E-03 0.  1.
         23    2    1    0    0    0  0.24419752832E+02 -0.15485868345E+02  0.17498502850E+01  0.96031078329E+02  0.91557466010E+02 0.  0.
         11    1    3    3    0    0 -0.20669835988E+02 -0.38707180430E+02  0.90111002009E+01  0.44796069735E+02  0.51100000000E-03 0. -1.
         22    1    1    0    0    0 -0.24419752832E+02  0.15485868345E+02 -0.17498502850E+01  0.28968921671E+02  0.00000000000E+00 0.  1.
</event>
<event>
 5    1  0.8902899E-005  0.9118800E+02  0.7818608E-02  0.1130116E+00
         25   -1    0    0    0    0  0.00000000000E+00  0.00000000000E+00  0.99999998245E-14  0.12500000000E+03  0.12500000000E+03 0.  0.
        -11    1    3    3    0    0  0.39817291085E+01  0.60539237459E+02 -0.43665113893E+01  0.60826966559E+02  0.51100000000E-03 0. -1.
         23    2    1    0    0    0  0.73887752140E+01  0.27750612285E+02  0.65358902178E+01  0.95548203072E+02  0.90895823710E+02 0.  0.
         11    1    3    3    0    0  0.34070461055E+01 -0.32788625174E+02  0.10902401607E+02  0.34721236513E+02  0.51100000000E-03 0.  1.
         22    1    1    0    0    0 -0.73887752140E+01 -0.27750612285E+02 -0.65358902178E+01  0.29451796928E+02  0.00000000000E+00 0. -1.
</event>
<event>
 5    1  0.8902899E-005  0.9118800E+02  0.7818608E-02  0.1130116E+00
         25   -1    0    0    0    0  0.00000000000E+00  0.00000000000E+00  0.99999998245E-14  0.12500000000E+03  0.12500000000E+03 0.  0.
        -11    1    3    3    0    0  0.19743121423E+02 -0.93821231567E+01  0.42728708751E+02  0.47995391760E+02  0.51100000000E-03 0. -1.
         23    2    1    0    0    0 -0.29030689563E+01 -0.28702636717E+02  0.55518188039E+01  0.95621574993E+02  0.90996668885E+02 0.  0.
         11    1    3    3    0    0 -0.22646190379E+02 -0.19320513560E+02 -0.37176889947E+02  0.47626183233E+02  0.51100000000E-03 0.  1.
         22    1    1    0    0    0  0.29030689563E+01  0.28702636717E+02 -0.55518188039E+01  0.29378425007E+02  0.00000000000E+00 0. -1.
</event>
<event>
 5    1  0.8902899E-005  0.9118800E+02  0.7818608E-02  0.1130116E+00
         25   -1    0    0    0    0  0.00000000000E+00  0.00000000000E+00  0.99999998245E-14  0.12500000000E+03  0.12500000000E+03 0.  0.
        -11    1    3    3    0    0 -0.41585000406E+02  0.10794016083E+02 -0.26443702285E+01  0.43044346158E+02  0.51100000000E-03 0.  1.
         23    2    1    0    0    0 -0.98773015032E+01 -0.26307227348E+02 -0.14658850992E+02  0.93305943647E+02  0.87758110233E+02 0.  0.
         11    1    3    3    0    0  0.31707698903E+02 -0.37101243431E+02 -0.12014480764E+02  0.50261597489E+02  0.51100000000E-03 0. -1.
         22    1    1    0    0    0  0.98773015032E+01  0.26307227348E+02  0.14658850992E+02  0.31694056353E+02  0.00000000000E+00 0. -1.
</event>
<event>
 5    1  0.8902899E-005  0.9118800E+02  0.7818608E-02  0.1130116E+00
         25   -1    0    0    0    0  0.00000000000E+00  0.00000000000E+00  0.99999998245E-14  0.12500000000E+03  0.12500000000E+03 0.  0.
        -11    1    3    3    0    0 -0.16849420995E+02  0.29327490287E+02 -0.32598166314E+02  0.46974941424E+02  0.51100000000E-03 0.  1.
         23    2    1    0    0    0 -0.16376298530E+02 -0.16630969690E+02 -0.18996269418E+02  0.94906303681E+02  0.90008754686E+02 0.  0.
         11    1    3    3    0    0  0.47312246484E+00 -0.45958459977E+02  0.13601896897E+02  0.47931362257E+02  0.51100000000E-03 0. -1.
         22    1    1    0    0    0  0.16376298530E+02  0.16630969690E+02  0.18996269418E+02  0.30093696319E+02  0.00000000000E+00 0. -1.
</event>
<event>
 5    1  0.8902899E-005  0.9118800E+02  0.7818608E-02  0.1130116E+00
         25   -1    0    0    0    0  0.00000000000E+00  0.00000000000E+00  0.99999998245E-14  0.12500000000E+03  0.12500000000E+03 0.  0.
        -11    1    3    3    0    0  0.74899289873E+01  0.50037940184E+02 -0.19972014475E+02  0.54394630770E+02  0.51100000000E-03 0.  1.
         23    2    1    0    0    0 -0.90962851779E+01  0.13198669500E+02 -0.25201480806E+02  0.95132594431E+02  0.90322470116E+02 0.  0.
         11    1    3    3    0    0 -0.16586214165E+02 -0.36839270685E+02 -0.52294663308E+01  0.40737963661E+02  0.51100000000E-03 0. -1.
         22    1    1    0    0    0  0.90962851779E+01 -0.13198669500E+02  0.25201480806E+02  0.29867405569E+02  0.00000000000E+00 0.  1.
</event>
<event>
 5    1  0.8902899E-005  0.9118800E+02  0.7818608E-02  0.1130116E+00
         25   -1    0    0    0    0  0.00000000000E+00  0.00000000000E+00  0.99999998245E-14  0.12500000000E+03  0.12500000000E+03 0.  0.
        -11    1    3    3    0    0 -0.21132135826E+02 -0.22027362225E+02 -0.15037923816E+02  0.34028091397E+02  0.51100000000E-03 0. -1.
         23    2    1    0    0    0  0.30145023606E+02 -0.11403105253E+01  0.76729531412E+01  0.93872890173E+02  0.88561970073E+02 0.  0.
         11    1    3    3    0    0  0.51277159432E+02  0.20887051700E+02  0.22710876957E+02  0.59844798776E+02  0.51100000000E-03 0.  1.
         22    1    1    0    0    0 -0.30145023606E+02  0.11403105253E+01 -0.76729531412E+01  0.31127109827E+02  0.00000000000E+00 0.  1.
</event>
<event>
 5    1  0.8902899E-005  0.9118800E+02  0.7818608E-02  0.1130116E+00
         25   -1    0    0    0    0  0.00000000000E+00  0.00000000000E+00  0.99999998245E-14  0.12500000000E+03  0.12500000000E+03 0.  0.
        -11    1    3    3    0    0  0.13235825929E+02 -0.52542233153E+02 -0.17913903279E+02  0.57068216055E+02  0.51100000000E-03 0. -1.
         23    2    1    0    0    0 -0.10519773797E+02 -0.26530444037E+02 -0.28840412137E+00  0.96458569089E+02  0.92139254784E+02 0.  0.
         11    1    3    3    0    0 -0.23755599725E+02  0.26011789116E+02  0.17625499157E+02  0.39390353034E+02  0.51100000000E-03 0.  1.
         22    1    1    0    0    0  0.10519773797E+02  0.26530444037E+02  0.28840412137E+00  0.28541430911E+02  0.00000000000E+00 0. -1.
</event>
<event>
 5    1  0.8902899E-005  0.9118800E+02  0.7818608E-02  0.1130116E+00
         25   -1    0    0    0    0  0.00000000000E+00  0.00000000000E+00  0.99999998245E-14  0.12500000000E+03  0.12500000000E+03 0.  0.
        -11    1    3    3    0    0 -0.29621963197E+02  0.25502748984E+01 -0.35550176830E+02  0.46344143952E+02  0.51100000000E-03 0.  1.
         23    2    1    0    0    0 -0.26246337738E+02  0.38356692958E+01  0.13299696151E+02  0.95327377579E+02  0.90591635347E+02 0.  0.
         11    1    3    3    0    0  0.33756254591E+01  0.12853943974E+01  0.48849872981E+02  0.48983233627E+02  0.51100000000E-03 0. -1.
         22    1    1    0    0    0  0.26246337738E+02 -0.38356692958E+01 -0.13299696151E+02  0.29672622421E+02  0.00000000000E+00 0.  1.
</event>
<event>
 5    1  0.8902899E-005  0.9118800E+02  0.7818608E-02  0.1130116E+00
         25   -1    0    0    0    0  0.00000000000E+00  0.00000000000E+00  0.99999998245E-14  0.12500000000E+03  0.12500000000E+03 0.  0.
        -11    1    3    3    0    0 -0.72541372296E+01  0.23844825908E+02  0.41117360739E+02  0.48081551389E+02  0.51100000000E-03 0. -1.
         23    2    1    0    0    0 -0.56173983784E+01 -0.19404355246E+02  0.21173033287E+02  0.95736003252E+02  0.91153720786E+02 0.  0.
         11    1    3    3    0    0  0.16367388512E+01 -0.43249181155E+02 -0.19944327452E+02  0.47654451864E+02  0.51100000000E-03 0.  1.
         22    1    1    0    0    0  0.56173983784E+01  0.19404355246E+02 -0.21173033287E+02  0.29263996748E+02  0.00000000000E+00 0. -1.
</event>
<event>
 5    1  0.8902899E-005  0.9118800E+02  0.7818608E-02  0.1130116E+00
         25   -1    0    0    0    0  0.00000000000E+00  0.00000000000E+00  0.99999998245E-14  0.12500000000E+03  0.12500000000E+03 0.  0.
        -11    1    3    3    0    0  0.11546392030E+02  0.37615309118E+02 -0.35885432877E+02  0.53254060334E+02  0.51100000000E-03 0.  1.
         23    2    1    0    0    0  0.24289963756E+02  0.16072841843E+02 -0.14331649095E+01  0.95838509197E+02  0.91294179985E+02 0.  0.
         11    1    3    3    0    0  0.12743571726E+02 -0.21542467275E+02  0.34452267967E+02  0.42584448863E+02  0.51100000000E-03 0. -1.
         22    1    1    0    0    0 -0.24289963756E+02 -0.16072841843E+02  0.14331649095E+01  0.29161490803E+02  0.00000000000E+00 0. -1.
</event>
<event>
 5    1  0.8902899E-005  0.9118800E+02  0.7818608E-02  0.1130116E+00
         25   -1    0    0    0    0  0.00000000000E+00  0.00000000000E+00  0.99999998245E-14  0.12500000000E+03  0.12500000000E+03 0.  0.
        -11    1    3    3    0    0  0.35892986452E+02 -0.27128335253E+02 -0.20537693676E+02  0.49457556670E+02  0.51100000000E-03 0.  1.
         23    2    1    0    0    0  0.60652020653E+01 -0.24101209183E+02  0.15014744808E+02  0.95963858352E+02  0.91465647037E+02 0.  0.
         11    1    3    3    0    0 -0.29827784387E+02  0.30271260698E+01  0.35552438484E+02  0.46506301681E+02  0.51100000000E-03 0. -1.
         22    1    1    0    0    0 -0.60652020653E+01  0.24101209183E+02 -0.15014744808E+02  0.29036141648E+02  0.00000000000E+00 0.  1.
</event>
<event>
 5    1  0.8902899E-005  0.9118800E+02  0.7818608E-02  0.1130116E+00
         25   -1    0    0    0    0  0.00000000000E+00  0.00000000000E+00  0.99999998245E-14  0.12500000000E+03  0.12500000000E+03 0.  0.
        -11    1    3    3    0    0  0.59600360381E+02 -0.14795199754E+02  0.11172574409E+02  0.62417363870E+02  0.51100000000E-03 0. -1.
         23    2    1    0    0    0  0.25480511968E+02 -0.67293153483E+01  0.70500656378E+01  0.97719171554E+02  0.93833857900E+02 0.  0.
         11    1    3    3    0    0 -0.34119848413E+02  0.80658844057E+01 -0.41225087715E+01  0.35301807684E+02  0.51100000000E-03 0.  1.
         22    1    1    0    0    0 -0.25480511968E+02  0.67293153483E+01 -0.70500656378E+01  0.27280828446E+02  0.00000000000E+00 0. -1.
</event>
<event>
 5    1  0.8902899E-005  0.9118800E+02  0.7818608E-02  0.1130116E+00
         25   -1    0    0    0    0  0.00000000000E+00  0.00000000000E+00  0.99999998245E-14  0.12500000000E+03  0.12500000000E+03 0.  0.
        -11    1    3    3    0    0  0.25927435759E+02  0.44612822889E+02  0.20508905141E+02  0.55526129719E+02  0.51100000000E-03 0. -1.
         23    2    1    0    0    0 -0.62892335158E+01  0.27998816763E+02  0.19807520917E+01  0.96235237230E+02  0.91835773572E+02 0.  0.
         11    1    3    3    0    0 -0.32216669275E+02 -0.16614006126E+02 -0.18528153049E+02  0.40709107511E+02  0.51100000000E-03 0.  1.
         22    1    1    0    0    0  0.62892335158E+01 -0.27998816763E+02 -0.19807520917E+01  0.28764762770E+02  0.00000000000E+00 0. -1.
</event>
<event>
 5    1  0.8902899E-005  0.9118800E+02  0.7818608E-02  0.1130116E+00
         25   -1    0    0    0    0  0.00000000000E+00  0.00000000000E+00  0.99999998245E-14  0.12500000000E+03  0.12500000000E+03 0.  0.
        -11    1    3    3    0    0  0.21034501187E+02  0.14985710971E+02 -0.29757322189E+02  0.39402030374E+02  0.51100000000E-03 0.  1.
         23    2    1    0    0    0  0.74048734103E+01 -0.29149876802E+02  0.10175910638E+01  0.94907094534E+02  0.90009852980E+02 0.  0.
         11    1    3    3    0    0 -0.13629627777E+02 -0.44135587773E+02  0.30774913253E+02  0.55505064160E+02  0.51100000000E-03 0. -1.
         22    1    1    0    0    0 -0.74048734103E+01  0.29149876802E+02 -0.10175910638E+01  0.30092905466E+02  0.00000000000E+00 0. -1.
</event>
<event>
 5    1  0.8902899E-005  0.9118800E+02  0.7818608E-02  0.1130116E+00
         25   -1    0    0    0    0  0.00000000000E+00  0.00000000000E+00  0.99999998245E-14  0.12500000000E+03  0.12500000000E+03 0.  0.
        -11    1    3    3    0    0  0.28987301824E+02 -0.24766571930E+02  0.10674584995E+02  0.39592846795E+02  0.51100000000E-03 0. -1.
         23    2    1    0    0    0  0.12937963575E+02  0.20900156155E+02 -0.16776591971E+02  0.95239935032E+02  0.90470900062E+02 0.  0.
         11    1    3    3    0    0 -0.16049338250E+02  0.45666728085E+02 -0.27451176965E+02  0.55647088237E+02  0.51100000000E-03 0.  1.
         22    1    1    0    0    0 -0.12937963575E+02 -0.20900156155E+02  0.16776591971E+02  0.29760064968E+02  0.00000000000E+00 0.  1.
</event>
<event>
 5    1  0.8902899E-005  0.9118800E+02  0.7818608E-02  0.1130116E+00
         25   -1    0    0    0    0  0.00000000000E+00  0.00000000000E+00  0.99999998245E-14  0.12500000000E+03  0.12500000000E+03 0.  0.
        -11    1    3    3    0    0 -0.21759393279E+02  0.22843042758E+02  0.37948139055E+02  0.49349134302E+02  0.51100000000E-03 0. -1.
         23    2    1    0    0    0  0.39669322060E+01 -0.13320213778E+02  0.26332924378E+02  0.95224379897E+02  0.90449405605E+02 0.  0.
         11    1    3    3    0    0  0.25726325485E+02 -0.36163256535E+02 -0.11615214677E+02  0.45875245595E+02  0.51100000000E-03 0.  1.
         22    1    1    0    0    0 -0.39669322060E+01  0.13320213778E+02 -0.26332924378E+02  0.29775620103E+02  0.00000000000E+00 0. -1.
</event>
<event>
 5    1  0.8902899E-005  0.9118800E+02  0.7818608E-02  0.1130116E+00
         25   -1    0    0    0    0  0.00000000000E+00  0.00000000000E+00  0.99999998245E-14  0.12500000000E+03  0.12500000000E+03 0.  0.
        -11    1    3    3    0    0 -0.17168105436E+02  0.34644510369E+02  0.38283570021E+02  0.54411558301E+02  0.51100000000E-03 0.  1.
         23    2    1    0    0    0  0.12485836903E+02  0.23743625163E+02  0.11572186692E+02  0.95784056341E+02  0.91219592661E+02 0.  0.
         11    1    3    3    0    0  0.29653942338E+02 -0.10900885207E+02 -0.26711383328E+02  0.41372498040E+02  0.51100000000E-03 0. -1.
         22    1    1    0    0    0 -0.12485836903E+02 -0.23743625163E+02 -0.11572186692E+02  0.29215943659E+02  0.00000000000E+00 0. -1.
</event>
<event>
 5    1  0.8902899E-005  0.9118800E+02  0.7818608E-02  0.1130116E+00
         25   -1    0    0    0    0  0.00000000000E+00  0.00000000000E+00  0.99999998245E-14  0.12500000000E+03  0.12500000000E+03 0.  0.
        -11    1    3    3    0    0 -0.79034006932E+00 -0.38631840919E+02 -0.37672780007E+02  0.53965564242E+02  0.51100000000E-03 0. -1.
         23    2    1    0    0    0 -0.54439859707E+01 -0.34799454953E+00 -0.31510931133E+02  0.93020367977E+02  0.87350397791E+02 0.  0.
         11    1    3    3    0    0 -0.46536459014E+01  0.38283846369E+02  0.61618488746E+01  0.39054803735E+02  0.51100000000E-03 0.  1.
         22    1    1    0    0    0  0.54439859707E+01  0.34799454953E+00  0.31510931133E+02  0.31979632023E+02  0.00000000000E+00 0. -1.
</event>
<event>
 5    1  0.8902899E-005  0.9118800E+02  0.7818608E-02  0.1130116E+00
         25   -1    0    0    0    0  0.00000000000E+00  0.00000000000E+00  0.99999998245E-14  0.12500000000E+03  0.12500000000E+03 0.  0.
        -11    1    3    3    0    0 -0.19819751125E+02  0.25518934310E+02 -0.90460802348E+01  0.33553988002E+02  0.51100000000E-03 0.  1.
         23    2    1    0    0    0  0.26399986920E+02 -0.12596954504E+02  0.55768181038E+01  0.95221761767E+02  0.90445787307E+02 0.  0.
         11    1    3    3    0    0  0.46219738045E+02 -0.38115888814E+02  0.14622898339E+02  0.61667773764E+02  0.51100000000E-03 0. -1.
         22    1    1    0    0    0 -0.26399986920E+02  0.12596954504E+02 -0.55768181038E+01  0.29778238233E+02  0.00000000000E+00 0. -1.
</event>
<event>
 5    1  0.8902899E-005  0.9118800E+02  0.7818608E-02  0.1130116E+00
         25   -1    0    0    0    0  0.00000000000E+00  0.00000000000E+00  0.99999998245E-14  0.12500000000E+03  0.12500000000E+03 0.  0.
        -11    1    3    3    0    0  0.29071895882E+02 -0.16887226949E+02 -0.22925476756E+02  0.40693132700E+02  0.51100000000E-03 0.  1.
         23    2    1    0    0    0 -0.22861440069E+02 -0.18087568605E+02 -0.71190330437E+01  0.94991897568E+02  0.90127545135E+02 0.  0.
         11    1    3    3    0    0 -0.51933335951E+02 -0.12003416563E+01  0.15806443713E+02  0.54298764868E+02  0.51100000000E-03 0. -1.
         22    1    1    0    0    0  0.22861440069E+02  0.18087568605E+02  0.71190330437E+01  0.30008102432E+02  0.00000000000E+00 0. -1.
</event>
<event>
 5    1  0.8902899E-005  0.9118800E+02  0.7818608E-02  0.1130116E+00
         25   -1    0    0    0    0  0.00000000000E+00  0.00000000000E+00  0.99999998245E-14  0.12500000000E+03  0.12500000000E+03 0.  0.
        -11    1    3    3    0    0  0.29334747954E+02  0.18332477487E+02  0.17596296496E+02  0.38810266927E+02  0.51100000000E-03 0.  1.
         23    2    1    0    0    0 -0.17620020672E+02  0.16297018418E+02 -0.15621335296E+02  0.96362890260E+02  0.92009361291E+02 0.  0.
         11    1    3    3    0    0 -0.46954768626E+02 -0.20354590685E+01 -0.33217631793E+02  0.57552623333E+02  0.51100000000E-03 0. -1.
         22    1    1    0    0    0  0.17620020672E+02 -0.16297018418E+02  0.15621335296E+02  0.28637109740E+02  0.00000000000E+00 0. -1.
</event>
<event>
 5    1  0.8902899E-005  0.9118800E+02  0.7818608E-02  0.1130116E+00
         25   -1    0    0    0    0  0.00000000000E+00  0.00000000000E+00  0.99999998245E-14  0.12500000000E+03  0.12500000000E+03 0.  0.
        -11    1    3    3    0    0 -0.17368735417E+02 -0.11907882854E+02  0.50596445381E+02  0.54803931697E+02  0.51100000000E-03 0.  1.
         23    2    1    0    0    0 -0.26121444126E+02 -0.47976003147E+01  0.10524570699E+02  0.96432301450E+02  0.92103612104E+02 0.  0.
         11    1    3    3    0    0 -0.87527087090E+01  0.71102825392E+01 -0.40071874682E+02  0.41628369753E+02  0.51100000000E-03 0. -1.
         22    1    1    0    0    0  0.26121444126E+02  0.47976003147E+01 -0.10524570699E+02  0.28567698550E+02  0.00000000000E+00 0.  1.
</event>
<event>
 5    1  0.8902899E-005  0.9118800E+02  0.7818608E-02  0.1130116E+00
         25   -1    0    0    0    0  0.00000000000E+00  0.00000000000E+00  0.99999998245E-14  0.12500000000E+03  0.12500000000E+03 0.  0.
        -11    1    3    3    0    0 -0.21480299044E+02  0.29046683078E+02  0.41660286288E+02  0.55142474543E+02  0.51100000000E-03 0. -1.
         23    2    1    0    0    0 -0.26548998556E+02  0.12959162005E+02  0.56301124040E+01  0.94925303495E+02  0.90035136884E+02 0.  0.
         11    1    3    3    0    0 -0.50686995116E+01 -0.16087521073E+02 -0.36030173884E+02  0.39782828952E+02  0.51100000000E-03 0.  1.
         22    1    1    0    0    0  0.26548998556E+02 -0.12959162005E+02 -0.56301124040E+01  0.30074696505E+02  0.00000000000E+00 0. -1.
</event>
<event>
 5    1  0.8902899E-005  0.9118800E+02  0.7818608E-02  0.1130116E+00
         25   -1    0    0    0    0  0.00000000000E+00  0.00000000000E+00  0.99999998245E-14  0.12500000000E+03  0.12500000000E+03 0.  0.
        -11    1    3    3    0    0  0.12783791443E+02 -0.17289810399E+02  0.43189240234E+02  0.48245967080E+02  0.51100000000E-03 0. -1.
         23    2    1    0    0    0 -0.19471767545E+02  0.86376437950E+01  0.20473936268E+02  0.95454430316E+02  0.90766775744E+02 0.  0.
         11    1    3    3    0    0 -0.32255558987E+02  0.25927454194E+02 -0.22715303965E+02  0.47208463236E+02  0.51100000000E-03 0.  1.
         22    1    1    0    0    0  0.19471767545E+02 -0.86376437950E+01 -0.20473936268E+02  0.29545569684E+02  0.00000000000E+00 0. -1.
</event>
<event>
 5    1  0.8902899E-005  0.9118800E+02  0.7818608E-02  0.1130116E+00
         25   -1    0    0    0    0  0.00000000000E+00  0.00000000000E+00  0.99999998245E-14  0.12500000000E+03  0.12500000000E+03 0.  0.
        -11    1    3    3    0    0  0.38240366681E+02 -0.15177737949E+02  0.16772889866E+02  0.44429935942E+02  0.51100000000E-03 0. -1.
         23    2    1    0    0    0  0.18251678889E+02  0.17870424549E+02 -0.15808841712E+02  0.94960104327E+02  0.90083439553E+02 0.  0.
         11    1    3    3    0    0 -0.19988687792E+02  0.33048162498E+02 -0.32581731577E+02  0.50530168384E+02  0.51100000000E-03 0.  1.
         22    1    1    0    0    0 -0.18251678889E+02 -0.17870424549E+02  0.15808841712E+02  0.30039895673E+02  0.00000000000E+00 0.  1.
</event>
<event>
 5    1  0.8902899E-005  0.9118800E+02  0.7818608E-02  0.1130116E+00
         25   -1    0    0    0    0  0.00000000000E+00  0.00000000000E+00  0.99999998245E-14  0.12500000000E+03  0.12500000000E+03 0.  0.
        -11    1    3    3    0    0 -0.80820828524E+01  0.59305171028E+02 -0.10158015902E+02  0.60709213973E+02  0.51100000000E-03 0. -1.
         23    2    1    0    0    0  0.99796927976E-02  0.26721988127E+02  0.54419102676E+01  0.97729518956E+02  0.93847641094E+02 0.  0.
         11    1    3    3    0    0  0.80920625452E+01 -0.32583182902E+02  0.15599926169E+02  0.37020304982E+02  0.51100000000E-03 0.  1.
         22    1    1    0    0    0 -0.99796927976E-02 -0.26721988127E+02 -0.54419102676E+01  0.27270481044E+02  0.00000000000E+00 0. -1.
</event>
<event>
 5    1  0.8902899E-005  0.9118800E+02  0.7818608E-02  0.1130116E+00
         25   -1    0    0    0    0  0.00000000000E+00  0.00000000000E+00  0.99999998245E-14  0.12500000000E+03  0.12500000000E+03 0.  0.
        -11    1    3    3    0    0 -0.33754161330E+02 -0.10765486495E+02  0.91665899566E+01  0.36595976258E+02  0.51100000000E-03 0. -1.
         23    2    1    0    0    0  0.50289472703E+01  0.18204737574E+02 -0.23392045775E+02  0.94935226821E+02  0.90048912849E+02 0.  0.
         11    1    3    3    0    0  0.38783108600E+02  0.28970224069E+02 -0.32558635731E+02  0.58339250563E+02  0.51100000000E-03 0.  1.
         22    1    1    0    0    0 -0.50289472703E+01 -0.18204737574E+02  0.23392045775E+02  0.30064773179E+02  0.00000000000E+00 0.  1.
</event>
<event>
 5    1  0.8902899E-005  0.9118800E+02  0.7818608E-02  0.1130116E+00
         25   -1    0    0    0    0  0.00000000000E+00  0.00000000000E+00  0.99999998245E-14  0.12500000000E+03  0.12500000000E+03 0.  0.
        -11    1    3    3    0    0 -0.36256333660E+02 -0.97660976626E+01 -0.55027602294E+00  0.37552645686E+02  0.51100000000E-03 0. -1.
         23    2    1    0    0    0  0.11791850926E+02  0.85197056240E+01 -0.26219657240E+02  0.95014944423E+02  0.90159503691E+02 0.  0.
         11    1    3    3    0    0  0.48048184586E+02  0.18285803287E+02 -0.25669381217E+02  0.57462298737E+02  0.51100000000E-03 0.  1.
         22    1    1    0    0    0 -0.11791850926E+02 -0.85197056240E+01  0.26219657240E+02  0.29985055577E+02  0.00000000000E+00 0.  1.
</event>
<event>
 5    1  0.8902899E-005  0.9118800E+02  0.7818608E-02  0.1130116E+00
         25   -1    0    0    0    0  0.00000000000E+00  0.00000000000E+00  0.99999998245E-14  0.12500000000E+03  0.12500000000E+03 0.  0.
        -11    1    3    3    0    0 -0.32735167359E+02  0.23608371196E+02  0.47288135263E+01  0.40636289818E+02  0.51100000000E-03 0.  1.
         23    2    1    0    0    0  0.20090726679E+02  0.16756252099E+02 -0.11644479852E+02  0.96364302105E+02  0.92011279342E+02 0.  0.
         11    1    3    3    0    0  0.52825894039E+02 -0.68521190970E+01 -0.16373293378E+02  0.55728012287E+02  0.51100000000E-03 0. -1.
         22    1    1    0    0    0 -0.20090726679E+02 -0.16756252099E+02  0.11644479852E+02  0.28635697895E+02  0.00000000000E+00 0. -1.
</event>
<event>
 5    1  0.8902899E-005  0.9118800E+02  0.7818608E-02  0.1130116E+00
         25   -1    0    0    0    0  0.00000000000E+00  0.00000000000E+00  0.99999998245E-14  0.12500000000E+03  0.12500000000E+03 0.  0.
        -11    1    3    3    0    0 -0.14665930922E+02 -0.56911268176E+01  0.31169694679E+02  0.34914586076E+02  0.51100000000E-03 0.  1.
         23    2    1    0    0    0  0.56424767988E+01 -0.12751308473E+00 -0.27332494441E+02  0.97090878617E+02  0.92993116165E+02 0.  0.
         11    1    3    3    0    0  0.20308407720E+02  0.55636137329E+01 -0.58502189120E+02  0.62176292540E+02  0.51100000000E-03 0. -1.
         22    1    1    0    0    0 -0.56424767988E+01  0.12751308473E+00  0.27332494441E+02  0.27909121383E+02  0.00000000000E+00 0. -1.
</event>
<event>
 5    1  0.8902899E-005  0.9118800E+02  0.7818608E-02  0.1130116E+00
         25   -1    0    0    0    0  0.00000000000E+00  0.00000000000E+00  0.99999998245E-14  0.12500000000E+03  0.12500000000E+03 0.  0.
        -11    1    3    3    0    0  0.18723948794E+02  0.26288727717E+02  0.51886801296E+02  0.61105839430E+02  0.51100000000E-03 0.  1.
         23    2    1    0    0    0  0.38245322313E+00  0.16223779427E+02  0.25392238001E+02  0.94864920109E+02  0.89951264733E+02 0.  0.
         11    1    3    3    0    0 -0.18341495571E+02 -0.10064948290E+02 -0.26494563295E+02  0.33759080679E+02  0.51100000000E-03 0. -1.
         22    1    1    0    0    0 -0.38245322313E+00 -0.16223779427E+02 -0.25392238001E+02  0.30135079891E+02  0.00000000000E+00 0.  1.
</event>
<event>
 5    1  0.8902899E-005  0.9118800E+02  0.7818608E-02  0.1130116E+00
         25   -1    0    0    0    0  0.00000000000E+00  0.00000000000E+00  0.99999998245E-14  0.12500000000E+03  0.12500000000E+03 0.  0.
        -11    1    3    3    0    0  0.29899440326E+01 -0.53592272333E+02  0.24965098595E+02  0.59197361151E+02  0.51100000000E-03 0. -1.
         23    2    1    0    0    0  0.13942184176E+02 -0.19145262635E+02  0.15934921171E+02  0.96454469813E+02  0.92133693365E+02 0.  0.
         11    1    3    3    0    0  0.10952240143E+02  0.34447009698E+02 -0.90301774236E+01  0.37257108662E+02  0.51100000000E-03 0.  1.
         22    1    1    0    0    0 -0.13942184176E+02  0.19145262635E+02 -0.15934921171E+02  0.28545530187E+02  0.00000000000E+00 0.  1.
</event>
<event>
 5    1  0.8902899E-005  0.9118800E+02  0.7818608E-02  0.1130116E+00
         25   -1    0    0    0    0  0.00000000000E+00  0.00000000000E+00  0.99999998245E-14  0.12500000000E+03  0.12500000000E+03 0.  0.
        -11    1    3    3    0    0 -0.34160825395E+02  0.24227005443E+02 -0.23032759321E+02  0.47795583338E+02  0.51100000000E-03 0. -1.
         23    2    1    0    0    0  0.11641231661E+02  0.67919917724E+01 -0.24732835254E+02  0.96833307497E+02  0.92646245873E+02 0.  0.
         11    1    3    3    0    0  0.45802057056E+02 -0.17435013671E+02 -0.17000759331E+01  0.49037724159E+02  0.51100000000E-03 0.  1.
         22    1    1    0    0    0 -0.11641231661E+02 -0.67919917724E+01  0.24732835254E+02  0.28166692503E+02  0.00000000000E+00 0. -1.
</event>
<event>
 5    1  0.8902899E-005  0.9118800E+02  0.7818608E-02  0.1130116E+00
         25   -1    0    0    0    0  0.00000000000E+00  0.00000000000E+00  0.99999998245E-14  0.12500000000E+03  0.12500000000E+03 0.  0.
        -11    1    3    3    0    0 -0.34806343145E+02  0.33598867375E+02 -0.39157048386E+02  0.62238572048E+02  0.51100000000E-03 0. -1.
         23    2    1    0    0    0 -0.14359517605E+02  0.14656506578E+02 -0.21743445598E+02  0.95103740077E+02  0.90282528870E+02 0.  0.
         11    1    3    3    0    0  0.20446825540E+02 -0.18942360797E+02  0.17413602788E+02  0.32865168028E+02  0.51100000000E-03 0.  1.
         22    1    1    0    0    0  0.14359517605E+02 -0.14656506578E+02  0.21743445598E+02  0.29896259923E+02  0.00000000000E+00 0. -1.
</event>
<event>
 5    1  0.8902899E-005  0.9118800E+02  0.7818608E-02  0.1130116E+00
         25   -1    0    0    0    0  0.00000000000E+00  0.00000000000E+00  0.99999998245E-14  0.12500000000E+03  0.12500000000E+03 0.  0.
        -11    1    3    3    0    0 -0.20737335159E+02 -0.20395107844E+02  0.33356106776E+02  0.44256382059E+02  0.51100000000E-03 0.  1.
         23    2    1    0    0    0 -0.23287671691E+02 -0.13975614925E+01 -0.15669944170E+02  0.96896335093E+02  0.92731244860E+02 0.  0.
         11    1    3    3    0    0 -0.25503365318E+01  0.18997546351E+02 -0.49026050946E+02  0.52639953034E+02  0.51100000000E-03 0. -1.
         22    1    1    0    0    0  0.23287671691E+02  0.13975614925E+01  0.15669944170E+02  0.28103664907E+02  0.00000000000E+00 0.  1.
</event>
<event>
 5    1  0.8902899E-005  0.9118800E+02  0.7818608E-02  0.1130116E+00
         25   -1    0    0    0    0  0.00000000000E+00  0.00000000000E+00  0.99999998245E-14  0.12500000000E+03  0.12500000000E+03 0.  0.
        -11    1    3    3    0    0  0.39009758540E+02  0.30877200546E+01  0.26861830613E+02  0.47464230960E+02  0.51100000000E-03 0.  1.
         23    2    1    0    0    0  0.21140459236E+02 -0.10326820475E+02 -0.16512709544E+02  0.96255751631E+02  0.91863691999E+02 0.  0.
         11    1    3    3    0    0 -0.17869299304E+02 -0.13414540529E+02 -0.43374540157E+02  0.48791520671E+02  0.51100000000E-03 0. -1.
         22    1    1    0    0    0 -0.21140459236E+02  0.10326820475E+02  0.16512709544E+02  0.28744248369E+02  0.00000000000E+00 0.  1.
</event>
<event>
 5    1  0.8902899E-005  0.9118800E+02  0.7818608E-02  0.1130116E+00
         25   -1    0    0    0    0  0.00000000000E+00  0.00000000000E+00  0.99999998245E-14  0.12500000000E+03  0.12500000000E+03 0.  0.
        -11    1    3    3    0    0  0.39003717826E+01 -0.32908200377E+02  0.40617606954E+01  0.33386531002E+02  0.51100000000E-03 0.  1.
         23    2    1    0    0    0 -0.11095323201E+02  0.25233379099E+02  0.13731039348E+02  0.94204366231E+02  0.89028599661E+02 0.  0.
         11    1    3    3    0    0 -0.14995694983E+02  0.58141579476E+02  0.96692786521E+01  0.60817835229E+02  0.51100000000E-03 0. -1.
         22    1    1    0    0    0  0.11095323201E+02 -0.25233379099E+02 -0.13731039348E+02  0.30795633769E+02  0.00000000000E+00 0. -1.
</event>
<event>
 5    1  0.8902899E-005  0.9118800E+02  0.7818608E-02  0.1130116E+00
         25   -1    0    0    0    0  0.00000000000E+00  0.00000000000E+00  0.99999998245E-14  0.12500000000E+03  0.12500000000E+03 0.  0.
        -11    1    3    3    0    0 -0.17570722858E+02  0.50543443437E+02  0.28713335721E+02  0.60727470100E+02  0.51100000000E-03 0.  1.
         23    2    1    0    0    0  0.60794343722E+00  0.28084141458E+02  0.98581111310E+01  0.95229696815E+02  0.90456753223E+02 0.  0.
         11    1    3    3    0    0  0.18178666295E+02 -0.22459301979E+02 -0.18855224590E+02  0.34502226715E+02  0.51100000000E-03 0. -1.
         22    1    1    0    0    0 -0.60794343722E+00 -0.28084141458E+02 -0.98581111310E+01  0.29770303185E+02  0.00000000000E+00 0.  1.
</event>
<event>
 5    1  0.8902899E-005  0.9118800E+02  0.7818608E-02  0.1130116E+00
         25   -1    0    0    0    0  0.00000000000E+00  0.00000000000E+00  0.99999998245E-14  0.12500000000E+03  0.12500000000E+03 0.  0.
        -11    1    3    3    0    0 -0.27106979827E+02 -0.47795892863E+02  0.98687770575E+01  0.55826772169E+02  0.51100000000E-03 0.  1.
         23    2    1    0    0    0 -0.26031389818E+02 -0.12364103627E+02 -0.73841852314E+01  0.95250537721E+02  0.90485548184E+02 0.  0.
         11    1    3    3    0    0  0.10755900090E+01  0.35431789236E+02 -0.17252962289E+02  0.39423765552E+02  0.51100000000E-03 0. -1.
         22    1    1    0    0    0  0.26031389818E+02  0.12364103627E+02  0.73841852314E+01  0.29749462279E+02  0.00000000000E+00 0.  1.
</event>
<event>
 5    1  0.8902899E-005  0.9118800E+02  0.7818608E-02  0.1130116E+00
         25   -1    0    0    0    0  0.00000000000E+00  0.00000000000E+00  0.99999998245E-14  0.12500000000E+03  0.12500000000E+03 0.  0.
        -11    1    3    3    0    0 -0.70861712327E+01  0.17352015343E+02 -0.27763168061E+02  0.33497757541E+02  0.51100000000E-03 0.  1.
         23    2    1    0    0    0  0.55084883357E+01 -0.18467605051E+02  0.21780452649E+02  0.95917634249E+02  0.91402453809E+02 0.  0.
         11    1    3    3    0    0  0.12594659568E+02 -0.35819620395E+02  0.49543620710E+02  0.62419876708E+02  0.51100000000E-03 0. -1.
         22    1    1    0    0    0 -0.55084883357E+01  0.18467605051E+02 -0.21780452649E+02  0.29082365751E+02  0.00000000000E+00 0. -1.
</event>
<event>
 5    1  0.8902899E-005  0.9118800E+02  0.7818608E-02  0.1130116E+00
         25   -1    0    0    0    0  0.00000000000E+00  0.00000000000E+00  0.99999998245E-14  0.12500000000E+03  0.12500000000E+03 0.  0.
        -11    1    3    3    0    0 -0.38842690819E+02  0.88636635791E+01  0.35524032628E+02  0.53378610477E+02  0.51100000000E-03 0. -1.
         23    2    1    0    0    0 -0.26018735688E+02  0.27757114687E+02  0.14922926846E+02  0.84132827743E+02  0.73540512208E+02 0.  0.
         11    1    3    3    0    0  0.12823955130E+02  0.18893451108E+02 -0.20601105782E+02  0.30754217266E+02  0.51100000000E-03 0.  1.
         22    1    1    0    0    0  0.26018735688E+02 -0.27757114687E+02 -0.14922926846E+02  0.40867172257E+02  0.00000000000E+00 0. -1.
</event>
<event>
 5    1  0.8902899E-005  0.9118800E+02  0.7818608E-02  0.1130116E+00
         25   -1    0    0    0    0  0.00000000000E+00  0.00000000000E+00  0.99999998245E-14  0.12500000000E+03  0.12500000000E+03 0.  0.
        -11    1    3    3    0    0 -0.41696632050E+02 -0.32536679759E+02  0.25867228006E+02  0.58875785676E+02  0.51100000000E-03 0. -1.
         23    2    1    0    0    0 -0.27798041838E+02 -0.42794114894E+01  0.56059970338E+01  0.96321232672E+02  0.91952749649E+02 0.  0.
         11    1    3    3    0    0  0.13898590212E+02  0.28257268269E+02 -0.20261230972E+02  0.37445446996E+02  0.51100000000E-03 0.  1.
         22    1    1    0    0    0  0.27798041838E+02  0.42794114894E+01 -0.56059970338E+01  0.28678767328E+02  0.00000000000E+00 0. -1.
</event>
<event>
 5    1  0.8902899E-005  0.9118800E+02  0.7818608E-02  0.1130116E+00
         25   -1    0    0    0    0  0.00000000000E+00  0.00000000000E+00  0.99999998245E-14  0.12500000000E+03  0.12500000000E+03 0.  0.
        -11    1    3    3    0    0 -0.23146282536E+02  0.26069416198E+02 -0.76437619406E+01  0.35690222093E+02  0.51100000000E-03 0. -1.
         23    2    1    0    0    0  0.24583963382E+02 -0.10932354299E+02  0.55999625136E+01  0.97518238662E+02  0.93565803933E+02 0.  0.
         11    1    3    3    0    0  0.47730245917E+02 -0.37001770498E+02  0.13243724454E+02  0.61828016570E+02  0.51100000000E-03 0.  1.
         22    1    1    0    0    0 -0.24583963382E+02  0.10932354299E+02 -0.55999625136E+01  0.27481761338E+02  0.00000000000E+00 0.  1.
</event>
<event>
 5    1  0.8902899E-005  0.9118800E+02  0.7818608E-02  0.1130116E+00
         25   -1    0    0    0    0  0.00000000000E+00  0.00000000000E+00  0.99999998245E-14  0.12500000000E+03  0.12500000000E+03 0.  0.
        -11    1    3    3    0    0 -0.24751773788E+02 -0.39677564204E+02  0.11471822861E+02  0.48151449894E+02  0.51100000000E-03 0.  1.
         23    2    1    0    0    0 -0.20415505777E+02 -0.46324023536E+01 -0.20436200890E+02  0.95744396528E+02  0.91165229841E+02 0.  0.
         11    1    3    3    0    0  0.43362680113E+01  0.35045161851E+02 -0.31908023750E+02  0.47592946634E+02  0.51100000000E-03 0. -1.
         22    1    1    0    0    0  0.20415505777E+02  0.46324023536E+01  0.20436200890E+02  0.29255603472E+02  0.00000000000E+00 0. -1.
</event>
<event>
 5    1  0.8902899E-005  0.9118800E+02  0.7818608E-02  0.1130116E+00
         25   -1    0    0    0    0  0.00000000000E+00  0.00000000000E+00  0.99999998245E-14  0.12500000000E+03  0.12500000000E+03 0.  0.
        -11    1    3    3    0    0  0.39463935339E+01  0.38231079189E+02 -0.54509506298E+01  0.38818839510E+02  0.51100000000E-03 0. -1.
         23    2    1    0    0    0 -0.20822298530E+02 -0.99680389592E+01  0.15797921561E+02  0.97026722709E+02  0.92906838700E+02 0.  0.
         11    1    3    3    0    0 -0.24768692064E+02 -0.48199118148E+02  0.21248872190E+02  0.58207883199E+02  0.51100000000E-03 0.  1.
         22    1    1    0    0    0  0.20822298530E+02  0.99680389592E+01 -0.15797921561E+02  0.27973277291E+02  0.00000000000E+00 0.  1.
</event>
<event>
 5    1  0.8902899E-005  0.9118800E+02  0.7818608E-02  0.1130116E+00
         25   -1    0    0    0    0  0.00000000000E+00  0.00000000000E+00  0.99999998245E-14  0.12500000000E+03  0.12500000000E+03 0.  0.
        -11    1    3    3    0    0  0.43093228290E+01  0.28770820339E+02 -0.39701658938E+02  0.49219427962E+02  0.51100000000E-03 0.  1.
         23    2    1    0    0    0 -0.25399931933E+02  0.11928845195E+02 -0.79906068479E+01  0.95822891033E+02  0.91272793089E+02 0.  0.
         11    1    3    3    0    0 -0.29709254762E+02 -0.16841975145E+02  0.31711052090E+02  0.46603463071E+02  0.51100000000E-03 0. -1.
         22    1    1    0    0    0  0.25399931933E+02 -0.11928845195E+02  0.79906068479E+01  0.29177108967E+02  0.00000000000E+00 0.  1.
</event>
<event>
 5    1  0.8902899E-005  0.9118800E+02  0.7818608E-02  0.1130116E+00
         25   -1    0    0    0    0  0.00000000000E+00  0.00000000000E+00  0.99999998245E-14  0.12500000000E+03  0.12500000000E+03 0.  0.
        -11    1    3    3    0    0  0.40737067282E+02 -0.11371239692E+02 -0.39793102946E+02  0.58071548844E+02  0.51100000000E-03 0. -1.
         23    2    1    0    0    0  0.25643692489E+02 -0.13061422314E+02 -0.53309652785E+01  0.95731947313E+02  0.91148158666E+02 0.  0.
         11    1    3    3    0    0 -0.15093374793E+02 -0.16901826219E+01  0.34462137667E+02  0.37660398468E+02  0.51100000000E-03 0.  1.
         22    1    1    0    0    0 -0.25643692489E+02  0.13061422314E+02  0.53309652785E+01  0.29268052687E+02  0.00000000000E+00 0. -1.
</event>
<event>
 5    1  0.8902899E-005  0.9118800E+02  0.7818608E-02  0.1130116E+00
         25   -1    0    0    0    0  0.00000000000E+00  0.00000000000E+00  0.99999998245E-14  0.12500000000E+03  0.12500000000E+03 0.  0.
        -11    1    3    3    0    0  0.25365211598E+01  0.10234462247E+01  0.49894925063E+02  0.49969840195E+02  0.51100000000E-03 0.  1.
         23    2    1    0    0    0  0.24179395525E+02  0.76415650149E+01  0.66415558477E+01  0.98786512100E+02  0.95245094493E+02 0.  0.
         11    1    3    3    0    0  0.21642874365E+02  0.66181187901E+01 -0.43253369216E+02  0.48816671905E+02  0.51100000000E-03 0. -1.
         22    1    1    0    0    0 -0.24179395525E+02 -0.76415650149E+01 -0.66415558477E+01  0.26213487900E+02  0.00000000000E+00 0. -1.
</event>
<event>
 5    1  0.8902899E-005  0.9118800E+02  0.7818608E-02  0.1130116E+00
         25   -1    0    0    0    0  0.00000000000E+00  0.00000000000E+00  0.99999998245E-14  0.12500000000E+03  0.12500000000E+03 0.  0.
        -11    1    3    3    0    0 -0.53709227113E+02 -0.21523713700E+02  0.70361548455E+01  0.58287724297E+02  0.51100000000E-03 0. -1.
         23    2    1    0    0    0 -0.15843724177E+02 -0.23451047157E+02  0.99097020799E+00  0.96681150615E+02  0.92440725082E+02 0.  0.
         11    1    3    3    0    0  0.37865502935E+02 -0.19273334569E+01 -0.60451846375E+01  0.38393426317E+02  0.51100000000E-03 0.  1.
         22    1    1    0    0    0  0.15843724177E+02  0.23451047157E+02 -0.99097020799E+00  0.28318849385E+02  0.00000000000E+00 0. -1.
</event>
<event>
 5    1  0.8902899E-005  0.9118800E+02  0.7818608E-02  0.1130116E+00
         25   -1    0    0    0    0  0.00000000000E+00  0.00000000000E+00  0.99999998245E-14  0.12500000000E+03  0.12500000000E+03 0.  0.
        -11    1    3    3    0    0  0.39157173771E+02 -0.25366603403E+02  0.22099883408E+02  0.51625126371E+02  0.51100000000E-03 0. -1.
         23    2    1    0    0    0 -0.39541606485E+01 -0.22378202121E+02  0.19730722721E+02  0.94904805439E+02  0.90006673973E+02 0.  0.
         11    1    3    3    0    0 -0.43111334419E+02  0.29884012814E+01 -0.23691606868E+01  0.43279679068E+02  0.51100000000E-03 0.  1.
         22    1    1    0    0    0  0.39541606485E+01  0.22378202121E+02 -0.19730722721E+02  0.30095194561E+02  0.00000000000E+00 0. -1.
</event>
<event>
 5    1  0.8902899E-005  0.9118800E+02  0.7818608E-02  0.1130116E+00
         25   -1    0    0    0    0  0.00000000000E+00  0.00000000000E+00  0.99999998245E-14  0.12500000000E+03  0.12500000000E+03 0.  0.
        -11    1    3    3    0    0 -0.68638763522E+01 -0.53360566689E+02  0.23359183322E+01  0.53850899627E+02  0.51100000000E-03 0.  1.
         23    2    1    0    0    0  0.33899228975E+01 -0.16929029970E+02  0.22424671574E+02  0.96698948285E+02  0.92464788278E+02 0.  0.
         11    1    3    3    0    0  0.10253799250E+02  0.36431536719E+02  0.20088753242E+02  0.42848048658E+02  0.51100000000E-03 0. -1.
         22    1    1    0    0    0 -0.33899228975E+01  0.16929029970E+02 -0.22424671574E+02  0.28301051715E+02  0.00000000000E+00 0.  1.
</event>
<event>
 5    1  0.8902899E-005  0.9118800E+02  0.7818608E-02  0.1130116E+00
         25   -1    0    0    0    0  0.00000000000E+00  0.00000000000E+00  0.99999998245E-14  0.12500000000E+03  0.12500000000E+03 0.  0.
        -11    1    3    3    0    0 -0.37808161702E+01  0.43653733222E+02 -0.20628340069E+02  0.48430067204E+02  0.51100000000E-03 0.  1.
         23    2    1    0    0    0 -0.55116783682E+01 -0.28565476967E+01 -0.28672994065E+02  0.95662667950E+02  0.91053099824E+02 0.  0.
         11    1    3    3    0    0 -0.17308621980E+01 -0.46510280919E+02 -0.80446539962E+01  0.47232600746E+02  0.51100000000E-03 0. -1.
         22    1    1    0    0    0  0.55116783682E+01  0.28565476967E+01  0.28672994065E+02  0.29337332050E+02  0.00000000000E+00 0. -1.
</event>
<event>
 5    1  0.8902899E-005  0.9118800E+02  0.7818608E-02  0.1130116E+00
         25   -1    0    0    0    0  0.00000000000E+00  0.00000000000E+00  0.99999998245E-14  0.12500000000E+03  0.12500000000E+03 0.  0.
        -11    1    3    3    0    0  0.33204845283E+01 -0.70109931541E+01  0.34888487122E+02  0.35740539678E+02  0.51100000000E-03 0.  1.
         23    2    1    0    0    0  0.28470430218E+01  0.24260840050E+02 -0.16233434182E+02  0.95670519963E+02  0.91063878627E+02 0.  0.
         11    1    3    3    0    0 -0.47344150643E+00  0.31271833205E+02 -0.51121921304E+02  0.59929980285E+02  0.51100000000E-03 0. -1.
         22    1    1    0    0    0 -0.28470430218E+01 -0.24260840050E+02  0.16233434182E+02  0.29329480037E+02  0.00000000000E+00 0. -1.
</event>
<event>
 5    1  0.8902899E-005  0.9118800E+02  0.7818608E-02  0.1130116E+00
         25   -1    0    0    0    0  0.00000000000E+00  0.00000000000E+00  0.99999998245E-14  0.12500000000E+03  0.12500000000E+03 0.  0.
        -11    1    3    3    0    0  0.22708979102E+02  0.24037345960E+02  0.29537336840E+02  0.44338989620E+02  0.51100000000E-03 0.  1.
         23    2    1    0    0    0  0.66422485534E+01 -0.23267334869E+02  0.15617906785E+02  0.96200566844E+02  0.91788570699E+02 0.  0.
         11    1    3    3    0    0 -0.16066730549E+02 -0.47304680829E+02 -0.13919430055E+02  0.51861577224E+02  0.51100000000E-03 0. -1.
         22    1    1    0    0    0 -0.66422485534E+01  0.23267334869E+02 -0.15617906785E+02  0.28799433156E+02  0.00000000000E+00 0. -1.
</event>
<event>
 5    1  0.8902899E-005  0.9118800E+02  0.7818608E-02  0.1130116E+00
         25   -1    0    0    0    0  0.00000000000E+00  0.00000000000E+00  0.99999998245E-14  0.12500000000E+03  0.12500000000E+03 0.  0.
        -11    1    3    3    0    0  0.33348184160E+01 -0.63513950027E+01 -0.39326942663E+02  0.39975863366E+02  0.51100000000E-03 0. -1.
         23    2    1    0    0    0 -0.11787177182E+02  0.24998776622E+02  0.55915622369E+01  0.96801738586E+02  0.92603642728E+02 0.  0.
         11    1    3    3    0    0 -0.15121995598E+02  0.31350171625E+02  0.44918504900E+02  0.56825875220E+02  0.51100000000E-03 0.  1.
         22    1    1    0    0    0  0.11787177182E+02 -0.24998776622E+02 -0.55915622369E+01  0.28198261414E+02  0.00000000000E+00 0.  1.
</event>
<event>
 5    1  0.8902899E-005  0.9118800E+02  0.7818608E-02  0.1130116E+00
         25   -1    0    0    0    0  0.00000000000E+00  0.00000000000E+00  0.99999998245E-14  0.12500000000E+03  0.12500000000E+03 0.  0.
        -11    1    3    3    0    0 -0.23238514881E+02 -0.19234807382E+01 -0.31006437284E+02  0.38795972798E+02  0.51100000000E-03 0. -1.
         23    2    1    0    0    0 -0.17086019242E+02  0.56347195948E+01  0.24193844723E+02  0.94849971128E+02  0.89930488613E+02 0.  0.
         11    1    3    3    0    0  0.61524956381E+01  0.75582003330E+01  0.55200282008E+02  0.56053998331E+02  0.51100000000E-03 0.  1.
         22    1    1    0    0    0  0.17086019242E+02 -0.56347195948E+01 -0.24193844723E+02  0.30150028872E+02  0.00000000000E+00 0.  1.
</event>
<event>
 5    1  0.8902899E-005  0.9118800E+02  0.7818608E-02  0.1130116E+00
         25   -1    0    0    0    0  0.00000000000E+00  0.00000000000E+00  0.99999998245E-14  0.12500000000E+03  0.12500000000E+03 0.  0.
        -11    1    3    3    0    0  0.83153138320E+00  0.33430596431E+02  0.94420584544E+01  0.34748362412E+02  0.51100000000E-03 0.  1.
         23    2    1    0    0    0 -0.13370818556E+02 -0.25450592463E+02 -0.11053232940E+01  0.96229647462E+02  0.91828164881E+02 0.  0.
         11    1    3    3    0    0 -0.14202349940E+02 -0.58881188894E+02 -0.10547381748E+02  0.61481285050E+02  0.51100000000E-03 0. -1.
         22    1    1    0    0    0  0.13370818556E+02  0.25450592463E+02  0.11053232940E+01  0.28770352538E+02  0.00000000000E+00 0. -1.
</event>
<event>
 5    1  0.8902899E-005  0.9118800E+02  0.7818608E-02  0.1130116E+00
         25   -1    0    0    0    0  0.00000000000E+00  0.00000000000E+00  0.99999998245E-14  0.12500000000E+03  0.12500000000E+03 0.  0.
        -11    1    3    3    0    0  0.28868189140E+02  0.23238164878E+02  0.47905257594E+02  0.60566478818E+02  0.51100000000E-03 0. -1.
         23    2    1    0    0    0  0.20232123766E+02  0.25101129264E+01  0.19363562975E+02  0.96882619787E+02  0.92712755037E+02 0.  0.
         11    1    3    3    0    0 -0.86360653736E+01 -0.20728051952E+02 -0.28541694619E+02  0.36316140968E+02  0.51100000000E-03 0.  1.
         22    1    1    0    0    0 -0.20232123766E+02 -0.25101129264E+01 -0.19363562975E+02  0.28117380213E+02  0.00000000000E+00 0. -1.
</event>
<event>
 5    1  0.8902899E-005  0.9118800E+02  0.7818608E-02  0.1130116E+00
         25   -1    0    0    0    0  0.00000000000E+00  0.00000000000E+00  0.99999998245E-14  0.12500000000E+03  0.12500000000E+03 0.  0.
        -11    1    3    3    0    0  0.38487232134E+02 -0.31594491379E+02  0.20677991646E+01  0.49837282394E+02  0.51100000000E-03 0. -1.
         23    2    1    0    0    0  0.66088517422E+01 -0.18209798443E+02 -0.24733568816E+02  0.93583076104E+02  0.88151965525E+02 0.  0.
         11    1    3    3    0    0 -0.31878380391E+02  0.13384692936E+02 -0.26801367981E+02  0.43745793709E+02  0.51100000000E-03 0.  1.
         22    1    1    0    0    0 -0.66088517422E+01  0.18209798443E+02  0.24733568816E+02  0.31416923896E+02  0.00000000000E+00 0. -1.
</event>
<event>
 5    1  0.8902899E-005  0.9118800E+02  0.7818608E-02  0.1130116E+00
         25   -1    0    0    0    0  0.00000000000E+00  0.00000000000E+00  0.99999998245E-14  0.12500000000E+03  0.12500000000E+03 0.  0.
        -11    1    3    3    0    0 -0.67544537898E+01 -0.13045284796E+02  0.47033155463E+02  0.49273926315E+02  0.51100000000E-03 0. -1.
         23    2    1    0    0    0  0.22755597909E+02  0.13078776644E+01  0.32834848988E+02  0.85029322144E+02  0.75048854329E+02 0.  0.
         11    1    3    3    0    0  0.29510051699E+02  0.14353162460E+02 -0.14198306475E+02  0.35755395829E+02  0.51100000000E-03 0.  1.
         22    1    1    0    0    0 -0.22755597909E+02 -0.13078776644E+01 -0.32834848988E+02  0.39970677856E+02  0.00000000000E+00 0. -1.
</event>
<event>
 5    1  0.8902899E-005  0.9118800E+02  0.7818608E-02  0.1130116E+00
         25   -1    0    0    0    0  0.00000000000E+00  0.00000000000E+00  0.99999998245E-14  0.12500000000E+03  0.12500000000E+03 0.  0.
        -11    1    3    3    0    0 -0.17004134759E+02 -0.30278544818E+02 -0.41608326445E+02  0.54195790473E+02  0.51100000000E-03 0. -1.
         23    2    1    0    0    0  0.37445649608E+01 -0.30353146228E+02 -0.85189346933E+01  0.93252441023E+02  0.87681869595E+02 0.  0.
         11    1    3    3    0    0  0.20748699720E+02 -0.74601410303E-01  0.33089391751E+02  0.39056650550E+02  0.51100000000E-03 0.  1.
         22    1    1    0    0    0 -0.37445649608E+01  0.30353146228E+02  0.85189346933E+01  0.31747558977E+02  0.00000000000E+00 0. -1.
</event>
<event>
 5    1  0.8902899E-005  0.9118800E+02  0.7818608E-02  0.1130116E+00
         25   -1    0    0    0    0  0.00000000000E+00  0.00000000000E+00  0.99999998245E-14  0.12500000000E+03  0.12500000000E+03 0.  0.
        -11    1    3    3    0    0  0.14800524014E+02  0.35003347374E+02 -0.42632871206E+02  0.57112621600E+02  0.51100000000E-03 0.  1.
         23    2    1    0    0    0  0.18328069878E+02  0.26188944295E+01 -0.24159985296E+02  0.94561839035E+02  0.89529100066E+02 0.  0.
         11    1    3    3    0    0  0.35275458638E+01 -0.32384452945E+02  0.18472885910E+02  0.37449217435E+02  0.51100000000E-03 0. -1.
         22    1    1    0    0    0 -0.18328069878E+02 -0.26188944295E+01  0.24159985296E+02  0.30438160965E+02  0.00000000000E+00 0. -1.
</event>
<event>
 5    1  0.8902899E-005  0.9118800E+02  0.7818608E-02  0.1130116E+00
         25   -1    0    0    0    0  0.00000000000E+00  0.00000000000E+00  0.99999998245E-14  0.12500000000E+03  0.12500000000E+03 0.  0.
        -11    1    3    3    0    0  0.52958803973E+02  0.62806685271E+01  0.17502448285E+02  0.56128579277E+02  0.51100000000E-03 0.  1.
         23    2    1    0    0    0  0.13780914563E+02  0.10282810723E+02  0.23413027535E+02  0.95951425837E+02  0.91448654770E+02 0.  0.
         11    1    3    3    0    0 -0.39177889410E+02  0.40021421957E+01  0.59105792501E+01  0.39822846560E+02  0.51100000000E-03 0. -1.
         22    1    1    0    0    0 -0.13780914563E+02 -0.10282810723E+02 -0.23413027535E+02  0.29048574163E+02  0.00000000000E+00 0.  1.
</event>
<event>
 5    1  0.8902899E-005  0.9118800E+02  0.7818608E-02  0.1130116E+00
         25   -1    0    0    0    0  0.00000000000E+00  0.00000000000E+00  0.99999998245E-14  0.12500000000E+03  0.12500000000E+03 0.  0.
        -11    1    3    3    0    0  0.30244282201E+02  0.49274222511E+02 -0.15677752699E+02  0.59903735608E+02  0.51100000000E-03 0. -1.
         23    2    1    0    0    0  0.27732355143E+02  0.29123318853E+02 -0.19070894211E+02  0.80492132956E+02  0.67067378352E+02 0.  0.
         11    1    3    3    0    0 -0.25119270580E+01 -0.20150903658E+02 -0.33931415125E+01  0.20588397348E+02  0.51100000000E-03 0.  1.
         22    1    1    0    0    0 -0.27732355143E+02 -0.29123318853E+02  0.19070894211E+02  0.44507867044E+02  0.00000000000E+00 0. -1.
</event>
<event>
 5    1  0.8902899E-005  0.9118800E+02  0.7818608E-02  0.1130116E+00
         25   -1    0    0    0    0  0.00000000000E+00  0.00000000000E+00  0.99999998245E-14  0.12500000000E+03  0.12500000000E+03 0.  0.
        -11    1    3    3    0    0  0.59032259485E+00 -0.31686353836E+02  0.31732160596E+02  0.44847558646E+02  0.51100000000E-03 0. -1.
         23    2    1    0    0    0 -0.52327509311E+01  0.13853085445E+02  0.30865509463E+02  0.90765962361E+02  0.84062420797E+02 0.  0.
         11    1    3    3    0    0 -0.58230735259E+01  0.45539439281E+02 -0.86665113220E+00  0.45918403715E+02  0.51100000000E-03 0.  1.
         22    1    1    0    0    0  0.52327509311E+01 -0.13853085445E+02 -0.30865509463E+02  0.34234037639E+02  0.00000000000E+00 0. -1.
</event>
<event>
 5    1  0.8902899E-005  0.9118800E+02  0.7818608E-02  0.1130116E+00
         25   -1    0    0    0    0  0.00000000000E+00  0.00000000000E+00  0.99999998245E-14  0.12500000000E+03  0.12500000000E+03 0.  0.
        -11    1    3    3    0    0 -0.41610746707E+02 -0.76466745865E+01  0.27201909209E+02  0.50297810476E+02  0.51100000000E-03 0.  1.
         23    2    1    0    0    0 -0.12865261433E+02  0.23718947880E+02  0.11866740787E+02  0.95522500493E+02  0.90860470631E+02 0.  0.
         11    1    3    3    0    0  0.28745485274E+02  0.31365622466E+02 -0.15335168422E+02  0.45224690017E+02  0.51100000000E-03 0. -1.
         22    1    1    0    0    0  0.12865261433E+02 -0.23718947880E+02 -0.11866740787E+02  0.29477499507E+02  0.00000000000E+00 0. -1.
</event>
<event>
 5    1  0.8902899E-005  0.9118800E+02  0.7818608E-02  0.1130116E+00
         25   -1    0    0    0    0  0.00000000000E+00  0.00000000000E+00  0.99999998245E-14  0.12500000000E+03  0.12500000000E+03 0.  0.
        -11    1    3    3    0    0 -0.23279185373E+02  0.13777861982E+00 -0.33487020018E+02  0.40783819886E+02  0.51100000000E-03 0. -1.
         23    2    1    0    0    0  0.24922316628E+02  0.10068326916E+02 -0.49627193786E+01  0.97666473761E+02  0.93763630691E+02 0.  0.
         11    1    3    3    0    0  0.48201502001E+02  0.99305482961E+01  0.28524300640E+02  0.56882653875E+02  0.51100000000E-03 0.  1.
         22    1    1    0    0    0 -0.24922316628E+02 -0.10068326916E+02  0.49627193786E+01  0.27333526239E+02  0.00000000000E+00 0.  1.
</event>
<event>
 5    1  0.8902899E-005  0.9118800E+02  0.7818608E-02  0.1130116E+00
         25   -1    0    0    0    0  0.00000000000E+00  0.00000000000E+00  0.99999998245E-14  0.12500000000E+03  0.12500000000E+03 0.  0.
        -11    1    3    3    0    0 -0.37273880999E+02 -0.46713656539E+02 -0.15457039383E+02  0.61728664158E+02  0.51100000000E-03 0. -1.
         23    2    1    0    0    0 -0.21498239655E+02 -0.16693821177E+02 -0.42098424850E+01  0.97457655374E+02  0.93484832158E+02 0.  0.
         11    1    3    3    0    0  0.15775641344E+02  0.30019835363E+02  0.11247196898E+02  0.35728991216E+02  0.51100000000E-03 0.  1.
         22    1    1    0    0    0  0.21498239655E+02  0.16693821177E+02  0.42098424850E+01  0.27542344626E+02  0.00000000000E+00 0. -1.
</event>
<event>
 5    1  0.8902899E-005  0.9118800E+02  0.7818608E-02  0.1130116E+00
         25   -1    0    0    0    0  0.00000000000E+00  0.00000000000E+00  0.99999998245E-14  0.12500000000E+03  0.12500000000E+03 0.  0.
        -11    1    3    3    0    0  0.14470307872E+02  0.11315477896E+02  0.31238292948E+02  0.36238940333E+02  0.51100000000E-03 0. -1.
         23    2    1    0    0    0  0.82955161575E+01  0.28529564836E+01 -0.27619039795E+02  0.96021278354E+02  0.91544085492E+02 0.  0.
         11    1    3    3    0    0 -0.61747917141E+01 -0.84625214119E+01 -0.58857332743E+02  0.59782338021E+02  0.51100000000E-03 0.  1.
         22    1    1    0    0    0 -0.82955161575E+01 -0.28529564836E+01  0.27619039795E+02  0.28978721646E+02  0.00000000000E+00 0.  1.
</event>
<event>
 5    1  0.8902899E-005  0.9118800E+02  0.7818608E-02  0.1130116E+00
         25   -1    0    0    0    0  0.00000000000E+00  0.00000000000E+00  0.99999998245E-14  0.12500000000E+03  0.12500000000E+03 0.  0.
        -11    1    3    3    0    0  0.32825188632E+02 -0.82718103705E+01  0.31656406394E+02  0.46346994742E+02  0.51100000000E-03 0. -1.
         23    2    1    0    0    0  0.11355567486E+02 -0.34879621516E+02  0.94312315217E+01  0.87125403790E+02  0.78462417420E+02 0.  0.
         11    1    3    3    0    0 -0.21469621146E+02 -0.26607811146E+02 -0.22225174873E+02  0.40778409048E+02  0.51100000000E-03 0.  1.
         22    1    1    0    0    0 -0.11355567486E+02  0.34879621516E+02 -0.94312315217E+01  0.37874596210E+02  0.00000000000E+00 0. -1.
</event>
<event>
 5    1  0.8902899E-005  0.9118800E+02  0.7818608E-02  0.1130116E+00
         25   -1    0    0    0    0  0.00000000000E+00  0.00000000000E+00  0.99999998245E-14  0.12500000000E+03  0.12500000000E+03 0.  0.
        -11    1    3    3    0    0  0.28575809809E+02 -0.33965910920E+02 -0.22852242725E+02  0.49924793527E+02  0.51100000000E-03 0. -1.
         23    2    1    0    0    0 -0.71449793842E+01 -0.27643814621E+02  0.54462898561E+01  0.95932951811E+02  0.91423399372E+02 0.  0.
         11    1    3    3    0    0 -0.35720789194E+02  0.63220962984E+01  0.28298532581E+02  0.46008158284E+02  0.51100000000E-03 0.  1.
         22    1    1    0    0    0  0.71449793842E+01  0.27643814621E+02 -0.54462898561E+01  0.29067048189E+02  0.00000000000E+00 0. -1.
</event>
<event>
 5    1  0.8902899E-005  0.9118800E+02  0.7818608E-02  0.1130116E+00
         25   -1    0    0    0    0  0.00000000000E+00  0.00000000000E+00  0.99999998245E-14  0.12500000000E+03  0.12500000000E+03 0.  0.
        -11    1    3    3    0    0  0.60060221208E+01  0.46198639126E+02  0.61278912274E-01  0.46587448032E+02  0.51100000000E-03 0.  1.
         23    2    1    0    0    0  0.13271033389E+02  0.67480439293E+00  0.23272506246E+02  0.98201021752E+02  0.94473570050E+02 0.  0.
         11    1    3    3    0    0  0.72650112680E+01 -0.45523834733E+02  0.23211227333E+02  0.51613573720E+02  0.51100000000E-03 0. -1.
         22    1    1    0    0    0 -0.13271033389E+02 -0.67480439293E+00 -0.23272506246E+02  0.26798978248E+02  0.00000000000E+00 0. -1.
</event>
<event>
 5    1  0.8902899E-005  0.9118800E+02  0.7818608E-02  0.1130116E+00
         25   -1    0    0    0    0  0.00000000000E+00  0.00000000000E+00  0.99999998245E-14  0.12500000000E+03  0.12500000000E+03 0.  0.
        -11    1    3    3    0    0 -0.47349556082E+01 -0.38897191085E+02  0.32339941330E+02  0.50806329177E+02  0.51100000000E-03 0.  1.
         23    2    1    0    0    0  0.68823804386E+01 -0.25936380606E+02 -0.98261682916E+01  0.96423495968E+02  0.92091660816E+02 0.  0.
         11    1    3    3    0    0  0.11617336047E+02  0.12960810479E+02 -0.42166109622E+02  0.45617166791E+02  0.51100000000E-03 0. -1.
         22    1    1    0    0    0 -0.68823804386E+01  0.25936380606E+02  0.98261682916E+01  0.28576504032E+02  0.00000000000E+00 0.  1.
</event>
<event>
 5    1  0.8902899E-005  0.9118800E+02  0.7818608E-02  0.1130116E+00
         25   -1    0    0    0    0  0.00000000000E+00  0.00000000000E+00  0.99999998245E-14  0.12500000000E+03  0.12500000000E+03 0.  0.
        -11    1    3    3    0    0  0.37701750463E+00 -0.37489606466E+02 -0.54667594071E+01  0.37887968985E+02  0.51100000000E-03 0.  1.
         23    2    1    0    0    0 -0.19330335251E+02  0.18575911995E+02 -0.68399490516E+01  0.97332125662E+02  0.93316833505E+02 0.  0.
         11    1    3    3    0    0 -0.19707352756E+02  0.56065518461E+02 -0.13731896446E+01  0.59444156677E+02  0.51100000000E-03 0. -1.
         22    1    1    0    0    0  0.19330335251E+02 -0.18575911995E+02  0.68399490516E+01  0.27667874338E+02  0.00000000000E+00 0. -1.
</event>
<event>
 5    1  0.8902899E-005  0.9118800E+02  0.7818608E-02  0.1130116E+00
         25   -1    0    0    0    0  0.00000000000E+00  0.00000000000E+00  0.99999998245E-14  0.12500000000E+03  0.12500000000E+03 0.  0.
        -11    1    3    3    0    0  0.35134207539E+02 -0.90986378040E+01 -0.11584370332E+02  0.38097183433E+02  0.51100000000E-03 0. -1.
         23    2    1    0    0    0  0.23826990391E+00  0.10169788207E+02  0.28567068539E+02  0.94675772563E+02  0.89688032316E+02 0.  0.
         11    1    3    3    0    0 -0.34895937635E+02  0.19268426011E+02  0.40151438871E+02  0.56578589131E+02  0.51100000000E-03 0.  1.
         22    1    1    0    0    0 -0.23826990391E+00 -0.10169788207E+02 -0.28567068539E+02  0.30324227437E+02  0.00000000000E+00 0.  1.
</event>
<event>
 5    1  0.8902899E-005  0.9118800E+02  0.7818608E-02  0.1130116E+00
         25   -1    0    0    0    0  0.00000000000E+00  0.00000000000E+00  0.99999998245E-14  0.12500000000E+03  0.12500000000E+03 0.  0.
        -11    1    3    3    0    0 -0.69882168173E+01  0.57224556787E+02 -0.20085194923E+02  0.61048342558E+02  0.51100000000E-03 0. -1.
         23    2    1    0    0    0 -0.12533338817E+02  0.24471626225E+02 -0.93703047620E+01  0.95952664781E+02  0.91450348251E+02 0.  0.
         11    1    3    3    0    0 -0.55451219995E+01 -0.32752930562E+02  0.10714890161E+02  0.34904322223E+02  0.51100000000E-03 0.  1.
         22    1    1    0    0    0  0.12533338817E+02 -0.24471626225E+02  0.93703047620E+01  0.29047335219E+02  0.00000000000E+00 0. -1.
</event>
<event>
 5    1  0.8902899E-005  0.9118800E+02  0.7818608E-02  0.1130116E+00
         25   -1    0    0    0    0  0.00000000000E+00  0.00000000000E+00  0.99999998245E-14  0.12500000000E+03  0.12500000000E+03 0.  0.
        -11    1    3    3    0    0  0.55473356590E+02  0.26923626869E+02 -0.84758803401E+01  0.62241589977E+02  0.51100000000E-03 0.  1.
         23    2    1    0    0    0  0.25398892069E+02  0.79283104546E+01 -0.40158874602E+01  0.98091094837E+02  0.94328011265E+02 0.  0.
         11    1    3    3    0    0 -0.30074464521E+02 -0.18995316414E+02  0.44599928799E+01  0.35849504859E+02  0.51100000000E-03 0. -1.
         22    1    1    0    0    0 -0.25398892069E+02 -0.79283104546E+01  0.40158874602E+01  0.26908905163E+02  0.00000000000E+00 0.  1.
</event>
<event>
 5    1  0.8902899E-005  0.9118800E+02  0.7818608E-02  0.1130116E+00
         25   -1    0    0    0    0  0.00000000000E+00  0.00000000000E+00  0.99999998245E-14  0.12500000000E+03  0.12500000000E+03 0.  0.
        -11    1    3    3    0    0  0.39284282221E+02  0.12535822800E+02  0.17429320950E+02  0.44768101501E+02  0.51100000000E-03 0.  1.
         23    2    1    0    0    0  0.59492391814E+01  0.17702227336E+02 -0.21660237267E+02  0.96400556335E+02  0.92060518593E+02 0.  0.
         11    1    3    3    0    0 -0.33335043040E+02  0.51664045360E+01 -0.39089558217E+02  0.51632454834E+02  0.51100000000E-03 0. -1.
         22    1    1    0    0    0 -0.59492391814E+01 -0.17702227336E+02  0.21660237267E+02  0.28599443665E+02  0.00000000000E+00 0. -1.
</event>
<event>
 5    1  0.8902899E-005  0.9118800E+02  0.7818608E-02  0.1130116E+00
         25   -1    0    0    0    0  0.00000000000E+00  0.00000000000E+00  0.99999998245E-14  0.12500000000E+03  0.12500000000E+03 0.  0.
        -11    1    3    3    0    0 -0.12705411615E+02  0.18917863822E+02  0.29536684737E+02  0.37305881593E+02  0.51100000000E-03 0.  1.
         23    2    1    0    0    0 -0.18278601241E+02 -0.86415809646E+01 -0.21444755766E+02  0.95526932044E+02  0.90866567069E+02 0.  0.
         11    1    3    3    0    0 -0.55731896259E+01 -0.27559444786E+02 -0.50981440504E+02  0.58221050451E+02  0.51100000000E-03 0. -1.
         22    1    1    0    0    0  0.18278601241E+02  0.86415809646E+01  0.21444755766E+02  0.29473067956E+02  0.00000000000E+00 0. -1.
</event>
<event>
 5    1  0.8902899E-005  0.9118800E+02  0.7818608E-02  0.1130116E+00
         25   -1    0    0    0    0  0.00000000000E+00  0.00000000000E+00  0.99999998245E-14  0.12500000000E+03  0.12500000000E+03 0.  0.
        -11    1    3    3    0    0 -0.20119525347E+02  0.52219833074E+02  0.88509414870E+01  0.56657262835E+02  0.51100000000E-03 0.  1.
         23    2    1    0    0    0 -0.12171464595E+02  0.13044632909E+02  0.20041800856E+02  0.98167542422E+02  0.94429262443E+02 0.  0.
         11    1    3    3    0    0  0.79480607518E+01 -0.39175200165E+02  0.11190859369E+02  0.41510279587E+02  0.51100000000E-03 0. -1.
         22    1    1    0    0    0  0.12171464595E+02 -0.13044632909E+02 -0.20041800856E+02  0.26832457578E+02  0.00000000000E+00 0. -1.
</event>
<event>
 5    1  0.8902899E-005  0.9118800E+02  0.7818608E-02  0.1130116E+00
         25   -1    0    0    0    0  0.00000000000E+00  0.00000000000E+00  0.99999998245E-14  0.12500000000E+03  0.12500000000E+03 0.  0.
        -11    1    3    3    0    0 -0.25126940346E+02 -0.40327763262E+02 -0.30266906655E+02  0.56336287236E+02  0.51100000000E-03 0. -1.
         23    2    1    0    0    0 -0.10387652814E+02 -0.43308137893E+01 -0.27446107950E+02  0.95336080490E+02  0.90603642987E+02 0.  0.
         11    1    3    3    0    0  0.14739287531E+02  0.35996949473E+02  0.28207987046E+01  0.38999793254E+02  0.51100000000E-03 0.  1.
         22    1    1    0    0    0  0.10387652814E+02  0.43308137893E+01  0.27446107950E+02  0.29663919510E+02  0.00000000000E+00 0. -1.
</event>
<event>
 5    1  0.8902899E-005  0.9118800E+02  0.7818608E-02  0.1130116E+00
         25   -1    0    0    0    0  0.00000000000E+00  0.00000000000E+00  0.99999998245E-14  0.12500000000E+03  0.12500000000E+03 0.  0.
        -11    1    3    3    0    0 -0.37882996812E+01  0.32993943638E+02  0.13442117303E+02  0.35827950669E+02  0.51100000000E-03 0. -1.
         23    2    1    0    0    0 -0.23894303346E+01 -0.19192309028E+02 -0.19482178509E+02  0.97548053210E+02  0.93605626446E+02 0.  0.
         11    1    3    3    0    0  0.13988693465E+01 -0.52186252666E+02 -0.32924295812E+02  0.61720102541E+02  0.51100000000E-03 0.  1.
         22    1    1    0    0    0  0.23894303346E+01  0.19192309028E+02  0.19482178509E+02  0.27451946790E+02  0.00000000000E+00 0.  1.
</event>
<event>
 5    1  0.8902899E-005  0.9118800E+02  0.7818608E-02  0.1130116E+00
         25   -1    0    0    0    0  0.00000000000E+00  0.00000000000E+00  0.99999998245E-14  0.12500000000E+03  0.12500000000E+03 0.  0.
        -11    1    3    3    0    0  0.56611904811E+01  0.13169751458E+02 -0.35000287512E+02  0.37822104084E+02  0.51100000000E-03 0. -1.
         23    2    1    0    0    0  0.87832036324E+01  0.19891721218E+02  0.21272290648E+02  0.94580670808E+02  0.89555389018E+02 0.  0.
         11    1    3    3    0    0  0.31220131513E+01  0.67219697599E+01  0.56272578160E+02  0.56758566725E+02  0.51100000000E-03 0.  1.
         22    1    1    0    0    0 -0.87832036324E+01 -0.19891721218E+02 -0.21272290648E+02  0.30419329192E+02  0.00000000000E+00 0.  1.
</event>
<event>
 5    1  0.8902899E-005  0.9118800E+02  0.7818608E-02  0.1130116E+00
         25   -1    0    0    0    0  0.00000000000E+00  0.00000000000E+00  0.99999998245E-14  0.12500000000E+03  0.12500000000E+03 0.  0.
        -11    1    3    3    0    0  0.16908259912E+02  0.32089756561E+01 -0.55729648736E+02  0.58326499351E+02  0.51100000000E-03 0.  1.
         23    2    1    0    0    0 -0.77276276127E+01  0.61460889772E+01 -0.26806193566E+02  0.96433189683E+02  0.92104817576E+02 0.  0.
         11    1    3    3    0    0 -0.24635887525E+02  0.29371133212E+01  0.28923455170E+02  0.38106690332E+02  0.51100000000E-03 0. -1.
         22    1    1    0    0    0  0.77276276127E+01 -0.61460889772E+01  0.26806193566E+02  0.28566810317E+02  0.00000000000E+00 0.  1.
</event>
<event>
 5    1  0.8902899E-005  0.9118800E+02  0.7818608E-02  0.1130116E+00
         25   -1    0    0    0    0  0.00000000000E+00  0.00000000000E+00  0.99999998245E-14  0.12500000000E+03  0.12500000000E+03 0.  0.
        -11    1    3    3    0    0 -0.44107704660E+02 -0.19010180515E+02  0.21524208278E+02  0.52632386568E+02  0.51100000000E-03 0.  1.
         23    2    1    0    0    0 -0.36243653252E+01 -0.94581991217E+01  0.28450656786E+02  0.94800108838E+02  0.89861155175E+02 0.  0.
         11    1    3    3    0    0  0.40483339335E+02  0.95519813937E+01  0.69264485081E+01  0.42167722270E+02  0.51100000000E-03 0. -1.
         22    1    1    0    0    0  0.36243653252E+01  0.94581991217E+01 -0.28450656786E+02  0.30199891162E+02  0.00000000000E+00 0.  1.
</event>
<event>
 5    1  0.8902899E-005  0.9118800E+02  0.7818608E-02  0.1130116E+00
         25   -1    0    0    0    0  0.00000000000E+00  0.00000000000E+00  0.99999998245E-14  0.12500000000E+03  0.12500000000E+03 0.  0.
        -11    1    3    3    0    0 -0.73073381382E+01 -0.55143223630E+02 -0.16726823465E+02  0.58085789368E+02  0.51100000000E-03 0.  1.
         23    2    1    0    0    0 -0.11186740617E+00 -0.28934706224E+02 -0.25278992689E+02  0.86577907267E+02  0.77585287373E+02 0.  0.
         11    1    3    3    0    0  0.71954707320E+01  0.26208517406E+02 -0.85521692243E+01  0.28492117899E+02  0.51100000000E-03 0. -1.
         22    1    1    0    0    0  0.11186740617E+00  0.28934706224E+02  0.25278992689E+02  0.38422092733E+02  0.00000000000E+00 0.  1.
</event>
<event>
 5    1  0.8902899E-005  0.9118800E+02  0.7818608E-02  0.1130116E+00
         25   -1    0    0    0    0  0.00000000000E+00  0.00000000000E+00  0.99999998245E-14  0.12500000000E+03  0.12500000000E+03 0.  0.
        -11    1    3    3    0    0  0.41151403827E+02  0.21941776295E+02  0.64085144533E+01  0.47073863679E+02  0.51100000000E-03 0.  1.
         23    2    1    0    0    0 -0.37433189495E+01  0.29655022711E+02 -0.64814945994E+01  0.94414994180E+02  0.89323840854E+02 0.  0.
         11    1    3    3    0    0 -0.44894722777E+02  0.77132464169E+01 -0.12890009053E+02  0.47341130501E+02  0.51100000000E-03 0. -1.
         22    1    1    0    0    0  0.37433189495E+01 -0.29655022711E+02  0.64814945994E+01  0.30585005820E+02  0.00000000000E+00 0. -1.
</event>
<event>
 5    1  0.8902899E-005  0.9118800E+02  0.7818608E-02  0.1130116E+00
         25   -1    0    0    0    0  0.00000000000E+00  0.00000000000E+00  0.99999998245E-14  0.12500000000E+03  0.12500000000E+03 0.  0.
        -11    1    3    3    0    0  0.29444395710E+02  0.21073458323E+02  0.33260176367E+02  0.49166069770E+02  0.51100000000E-03 0. -1.
         23    2    1    0    0    0 -0.11965835113E+02  0.23811078257E+02  0.13264687373E+02  0.95232558242E+02  0.90460707274E+02 0.  0.
         11    1    3    3    0    0 -0.41410230823E+02  0.27376199340E+01 -0.19995488994E+02  0.46066488472E+02  0.51100000000E-03 0.  1.
         22    1    1    0    0    0  0.11965835113E+02 -0.23811078257E+02 -0.13264687373E+02  0.29767441758E+02  0.00000000000E+00 0.  1.
</event>
<event>
 5    1  0.8902899E-005  0.9118800E+02  0.7818608E-02  0.1130116E+00
         25   -1    0    0    0    0  0.00000000000E+00  0.00000000000E+00  0.99999998245E-14  0.12500000000E+03  0.12500000000E+03 0.  0.
        -11    1    3    3    0    0  0.35524389708E+02 -0.33571070037E+02  0.19001274535E+02  0.52440894746E+02  0.51100000000E-03 0. -1.
         23    2    1    0    0    0  0.21758418924E+02  0.94210253748E+01  0.12940358665E+02  0.97988198957E+02  0.94191558748E+02 0.  0.
         11    1    3    3    0    0 -0.13765970784E+02  0.42992095411E+02 -0.60609158700E+01  0.45547304211E+02  0.51100000000E-03 0.  1.
         22    1    1    0    0    0 -0.21758418924E+02 -0.94210253748E+01 -0.12940358665E+02  0.27011801043E+02  0.00000000000E+00 0. -1.
</event>
<event>
 5    1  0.8902899E-005  0.9118800E+02  0.7818608E-02  0.1130116E+00
         25   -1    0    0    0    0  0.00000000000E+00  0.00000000000E+00  0.99999998245E-14  0.12500000000E+03  0.12500000000E+03 0.  0.
        -11    1    3    3    0    0  0.23516215916E+02  0.20333228161E+02  0.15747768166E+02  0.34848884931E+02  0.51100000000E-03 0.  1.
         23    2    1    0    0    0 -0.10358905223E+02 -0.80422734573E+01 -0.26151659295E+02  0.95744327667E+02  0.91165135423E+02 0.  0.
         11    1    3    3    0    0 -0.33875121138E+02 -0.28375501618E+02 -0.41899427461E+02  0.60895442736E+02  0.51100000000E-03 0. -1.
         22    1    1    0    0    0  0.10358905223E+02  0.80422734573E+01  0.26151659295E+02  0.29255672333E+02  0.00000000000E+00 0. -1.
</event>
<event>
 5    1  0.8902899E-005  0.9118800E+02  0.7818608E-02  0.1130116E+00
         25   -1    0    0    0    0  0.00000000000E+00  0.00000000000E+00  0.99999998245E-14  0.12500000000E+03  0.12500000000E+03 0.  0.
        -11    1    3    3    0    0 -0.35220126547E+02 -0.49373815595E+02 -0.12600752922E+02  0.61943603018E+02  0.51100000000E-03 0.  1.
         23    2    1    0    0    0 -0.13773917963E+02 -0.25635436721E+02 -0.13097938567E+01  0.95869054395E+02  0.91335992898E+02 0.  0.
         11    1    3    3    0    0  0.21446208583E+02  0.23738378875E+02  0.11290959066E+02  0.33925451376E+02  0.51100000000E-03 0. -1.
         22    1    1    0    0    0  0.13773917963E+02  0.25635436721E+02  0.13097938567E+01  0.29130945605E+02  0.00000000000E+00 0.  1.
</event>
<event>
 5    1  0.8902899E-005  0.9118800E+02  0.7818608E-02  0.1130116E+00
         25   -1    0    0    0    0  0.00000000000E+00  0.00000000000E+00  0.99999998245E-14  0.12500000000E+03  0.12500000000E+03 0.  0.
        -11    1    3    3    0    0  0.61719547392E+02  0.37103722270E+01 -0.19220324779E+01  0.61860840614E+02  0.51100000000E-03 0.  1.
         23    2    1    0    0    0  0.29732118485E+02  0.61627983809E+00  0.52843659738E+01  0.94795642794E+02  0.89854942538E+02 0.  0.
         11    1    3    3    0    0 -0.31987428907E+02 -0.30940923889E+01  0.72063984516E+01  0.32934802181E+02  0.51100000000E-03 0. -1.
         22    1    1    0    0    0 -0.29732118485E+02 -0.61627983809E+00 -0.52843659738E+01  0.30204357206E+02  0.00000000000E+00 0.  1.
</event>
<event>
 5    1  0.8902899E-005  0.9118800E+02  0.7818608E-02  0.1130116E+00
         25   -1    0    0    0    0  0.00000000000E+00  0.00000000000E+00  0.99999998245E-14  0.12500000000E+03  0.12500000000E+03 0.  0.
        -11    1    3    3    0    0  0.13338013381E+02  0.39532427794E+02 -0.40621450633E+02  0.58230728143E+02  0.51100000000E-03 0.  1.
         23    2    1    0    0    0  0.95633858488E+01  0.30365015812E+01 -0.24912469591E+02  0.98142788084E+02  0.94396488394E+02 0.  0.
         11    1    3    3    0    0 -0.37746275320E+01 -0.36495926213E+02  0.15708981042E+02  0.39912059941E+02  0.51100000000E-03 0. -1.
         22    1    1    0    0    0 -0.95633858488E+01 -0.30365015812E+01  0.24912469591E+02  0.26857211916E+02  0.00000000000E+00 0.  1.
</event>
<event>
 5    1  0.8902899E-005  0.9118800E+02  0.7818608E-02  0.1130116E+00
         25   -1    0    0    0    0  0.00000000000E+00  0.00000000000E+00  0.99999998245E-14  0.12500000000E+03  0.12500000000E+03 0.  0.
        -11    1    3    3    0    0 -0.30864516604E+02 -0.34802544794E+01  0.25185630635E+02  0.39988080064E+02  0.51100000000E-03 0. -1.
         23    2    1    0    0    0 -0.93552998289E+01  0.17349343762E+01 -0.26838720909E+02  0.96524597067E+02  0.92228787625E+02 0.  0.
         11    1    3    3    0    0  0.21509216775E+02  0.52151888556E+01 -0.52024351544E+02  0.56536517003E+02  0.51100000000E-03 0.  1.
         22    1    1    0    0    0  0.93552998289E+01 -0.17349343762E+01  0.26838720909E+02  0.28475402933E+02  0.00000000000E+00 0.  1.
</event>
<event>
 5    1  0.8902899E-005  0.9118800E+02  0.7818608E-02  0.1130116E+00
         25   -1    0    0    0    0  0.00000000000E+00  0.00000000000E+00  0.99999998245E-14  0.12500000000E+03  0.12500000000E+03 0.  0.
        -11    1    3    3    0    0 -0.58029798342E+01 -0.36607809608E+02 -0.13778017090E+02  0.39542888797E+02  0.51100000000E-03 0.  1.
         23    2    1    0    0    0  0.19532993677E+02  0.13830568708E+02 -0.16299294765E+02  0.96043317134E+02  0.91574173670E+02 0.  0.
         11    1    3    3    0    0  0.25335973512E+02  0.50438378315E+02 -0.25212776758E+01  0.56500428337E+02  0.51100000000E-03 0. -1.
         22    1    1    0    0    0 -0.19532993677E+02 -0.13830568708E+02  0.16299294765E+02  0.28956682866E+02  0.00000000000E+00 0. -1.
</event>
<event>
 5    1  0.8902899E-005  0.9118800E+02  0.7818608E-02  0.1130116E+00
         25   -1    0    0    0    0  0.00000000000E+00  0.00000000000E+00  0.99999998245E-14  0.12500000000E+03  0.12500000000E+03 0.  0.
        -11    1    3    3    0    0 -0.20063145532E+02 -0.25252251365E+02  0.47684980581E+02  0.57567902350E+02  0.51100000000E-03 0.  1.
         23    2    1    0    0    0 -0.19450387866E+02 -0.18568746889E+02  0.92829761598E+01  0.96551984330E+02  0.92265898806E+02 0.  0.
         11    1    3    3    0    0  0.61275766616E+00  0.66835044762E+01 -0.38402004421E+02  0.38984081981E+02  0.51100000000E-03 0. -1.
         22    1    1    0    0    0  0.19450387866E+02  0.18568746889E+02 -0.92829761598E+01  0.28448015670E+02  0.00000000000E+00 0.  1.
</event>
<event>
 5    1  0.8902899E-005  0.9118800E+02  0.7818608E-02  0.1130116E+00
         25   -1    0    0    0    0  0.00000000000E+00  0.00000000000E+00  0.99999998245E-14  0.12500000000E+03  0.12500000000E+03 0.  0.
        -11    1    3    3    0    0  0.21864461947E+02 -0.33555122376E+02 -0.45677127831E+02  0.60748670282E+02  0.51100000000E-03 0. -1.
         23    2    1    0    0    0  0.84824317037E+01 -0.22875149012E+02 -0.13703924895E+02  0.97017476035E+02  0.92894397079E+02 0.  0.
         11    1    3    3    0    0 -0.13382030244E+02  0.10679973364E+02  0.31973202936E+02  0.36268805753E+02  0.51100000000E-03 0.  1.
         22    1    1    0    0    0 -0.84824317037E+01  0.22875149012E+02  0.13703924895E+02  0.27982523965E+02  0.00000000000E+00 0. -1.
</event>
<event>
 5    1  0.8902899E-005  0.9118800E+02  0.7818608E-02  0.1130116E+00
         25   -1    0    0    0    0  0.00000000000E+00  0.00000000000E+00  0.99999998245E-14  0.12500000000E+03  0.12500000000E+03 0.  0.
        -11    1    3    3    0    0  0.23272682750E+01 -0.59411356052E+02  0.14429738814E+01  0.59474427946E+02  0.51100000000E-03 0. -1.
         23    2    1    0    0    0 -0.54681272793E+01 -0.27114870783E+02  0.12712757897E+02  0.94557745700E+02  0.89523384794E+02 0.  0.
         11    1    3    3    0    0 -0.77953955543E+01  0.32296485270E+02  0.11269784016E+02  0.35083317754E+02  0.51100000000E-03 0.  1.
         22    1    1    0    0    0  0.54681272793E+01  0.27114870783E+02 -0.12712757897E+02  0.30442254300E+02  0.00000000000E+00 0. -1.
</event>
<event>
 5    1  0.8902899E-005  0.9118800E+02  0.7818608E-02  0.1130116E+00
         25   -1    0    0    0    0  0.00000000000E+00  0.00000000000E+00  0.99999998245E-14  0.12500000000E+03  0.12500000000E+03 0.  0.
        -11    1    3    3    0    0  0.21765226164E+01 -0.33337487358E+02 -0.84154954553E+00  0.33419059232E+02  0.51100000000E-03 0.  1.
         23    2    1    0    0    0 -0.56470544295E+01  0.27314568039E+02 -0.10231750681E+02  0.95290345460E+02  0.90540523330E+02 0.  0.
         11    1    3    3    0    0 -0.78235770460E+01  0.60652055398E+02 -0.93902011357E+01  0.61871286227E+02  0.51100000000E-03 0. -1.
         22    1    1    0    0    0  0.56470544295E+01 -0.27314568039E+02  0.10231750681E+02  0.29709654540E+02  0.00000000000E+00 0. -1.
</event>
<event>
 5    1  0.8902899E-005  0.9118800E+02  0.7818608E-02  0.1130116E+00
         25   -1    0    0    0    0  0.00000000000E+00  0.00000000000E+00  0.99999998245E-14  0.12500000000E+03  0.12500000000E+03 0.  0.
        -11    1    3    3    0    0 -0.46814237320E+02 -0.33404934729E+02 -0.20577911053E+02  0.61081199265E+02  0.51100000000E-03 0.  1.
         23    2    1    0    0    0 -0.28141257697E+02 -0.85624512565E+01 -0.10886120438E+02  0.93635153843E+02  0.88225781157E+02 0.  0.
         11    1    3    3    0    0  0.18672979623E+02  0.24842483473E+02  0.96917906153E+01  0.32553954578E+02  0.51100000000E-03 0. -1.
         22    1    1    0    0    0  0.28141257697E+02  0.85624512565E+01  0.10886120438E+02  0.31364846157E+02  0.00000000000E+00 0.  1.
</event>
<event>
 5    1  0.8902899E-005  0.9118800E+02  0.7818608E-02  0.1130116E+00
         25   -1    0    0    0    0  0.00000000000E+00  0.00000000000E+00  0.99999998245E-14  0.12500000000E+03  0.12500000000E+03 0.  0.
        -11    1    3    3    0    0 -0.36302610809E+02  0.38484040884E+02 -0.32907780572E+02  0.62304277355E+02  0.51100000000E-03 0. -1.
         23    2    1    0    0    0 -0.17515448904E+02  0.16221495574E+02 -0.18469056508E+02  0.94816661596E+02  0.89884177690E+02 0.  0.
         11    1    3    3    0    0  0.18787161905E+02 -0.22262545310E+02  0.14438724064E+02  0.32512384241E+02  0.51100000000E-03 0.  1.
         22    1    1    0    0    0  0.17515448904E+02 -0.16221495574E+02  0.18469056508E+02  0.30183338404E+02  0.00000000000E+00 0. -1.
</event>
<event>
 5    1  0.8902899E-005  0.9118800E+02  0.7818608E-02  0.1130116E+00
         25   -1    0    0    0    0  0.00000000000E+00  0.00000000000E+00  0.99999998245E-14  0.12500000000E+03  0.12500000000E+03 0.  0.
        -11    1    3    3    0    0 -0.82306233396E+01 -0.41908071186E+02 -0.39085615535E+02  0.57893997384E+02  0.51100000000E-03 0.  1.
         23    2    1    0    0    0 -0.13424435014E+02 -0.40984771588E+01 -0.20003499747E+02  0.10056328638E+03  0.97549072752E+02 0.  0.
         11    1    3    3    0    0 -0.51938116745E+01  0.37809594027E+02  0.19082115788E+02  0.42669288996E+02  0.51100000000E-03 0. -1.
         22    1    1    0    0    0  0.13424435014E+02  0.40984771588E+01  0.20003499747E+02  0.24436713621E+02  0.00000000000E+00 0.  1.
</event>
<event>
 5    1  0.8902899E-005  0.9118800E+02  0.7818608E-02  0.1130116E+00
         25   -1    0    0    0    0  0.00000000000E+00  0.00000000000E+00  0.99999998245E-14  0.12500000000E+03  0.12500000000E+03 0.  0.
        -11    1    3    3    0    0 -0.13343807372E+02 -0.32782497240E+02 -0.30424660394E+02  0.46673432281E+02  0.51100000000E-03 0. -1.
         23    2    1    0    0    0  0.16750169151E+02 -0.29799983201E+02  0.16740828354E+01  0.90774136699E+02  0.84074575079E+02 0.  0.
         11    1    3    3    0    0  0.30093976523E+02  0.29825140387E+01  0.32098743230E+02  0.44100704418E+02  0.51100000000E-03 0.  1.
         22    1    1    0    0    0 -0.16750169151E+02  0.29799983201E+02 -0.16740828354E+01  0.34225863301E+02  0.00000000000E+00 0.  1.
</event>
<event>
 5    1  0.8902899E-005  0.9118800E+02  0.7818608E-02  0.1130116E+00
         25   -1    0    0    0    0  0.00000000000E+00  0.00000000000E+00  0.99999998245E-14  0.12500000000E+03  0.12500000000E+03 0.  0.
        -11    1    3    3    0    0 -0.44867920022E+02 -0.43168533979E+00 -0.26943212881E+02  0.52337876532E+02  0.51100000000E-03 0.  1.
         23    2    1    0    0    0 -0.18179818844E+02  0.24261627588E+02 -0.67055931706E+01  0.93950082670E+02  0.88670855795E+02 0.  0.
         11    1    3    3    0    0  0.26688101178E+02  0.24693312928E+02  0.20237619710E+02  0.41612206137E+02  0.51100000000E-03 0. -1.
         22    1    1    0    0    0  0.18179818844E+02 -0.24261627588E+02  0.67055931706E+01  0.31049917330E+02  0.00000000000E+00 0.  1.
</event>
<event>
 5    1  0.8902899E-005  0.9118800E+02  0.7818608E-02  0.1130116E+00
         25   -1    0    0    0    0  0.00000000000E+00  0.00000000000E+00  0.99999998245E-14  0.12500000000E+03  0.12500000000E+03 0.  0.
        -11    1    3    3    0    0  0.24262249686E+02  0.23313758872E+02  0.14663676101E+02  0.36704379978E+02  0.51100000000E-03 0.  1.
         23    2    1    0    0    0 -0.25424603735E+02 -0.99208480738E+01  0.47428834367E+01  0.97299302448E+02  0.93272855708E+02 0.  0.
         11    1    3    3    0    0 -0.49686853421E+02 -0.33234606945E+02 -0.99207926640E+01  0.60594922469E+02  0.51100000000E-03 0. -1.
         22    1    1    0    0    0  0.25424603735E+02  0.99208480738E+01 -0.47428834367E+01  0.27700697552E+02  0.00000000000E+00 0. -1.
</event>
<event>
 5    1  0.8902899E-005  0.9118800E+02  0.7818608E-02  0.1130116E+00
         25   -1    0    0    0    0  0.00000000000E+00  0.00000000000E+00  0.99999998245E-14  0.12500000000E+03  0.12500000000E+03 0.  0.
        -11    1    3    3    0    0  0.13870239325E+02  0.23675528226E+02  0.23135001122E+02  0.35890701483E+02  0.51100000000E-03 0.  1.
         23    2    1    0    0    0  0.13773525910E+00 -0.29843864976E+02  0.18611078363E+01  0.95097843387E+02  0.90274364284E+02 0.  0.
         11    1    3    3    0    0 -0.13732504066E+02 -0.53519393203E+02 -0.21273893286E+02  0.59207141904E+02  0.51100000000E-03 0. -1.
         22    1    1    0    0    0 -0.13773525910E+00  0.29843864976E+02 -0.18611078363E+01  0.29902156613E+02  0.00000000000E+00 0. -1.
</event>
<event>
 5    1  0.8902899E-005  0.9118800E+02  0.7818608E-02  0.1130116E+00
         25   -1    0    0    0    0  0.00000000000E+00  0.00000000000E+00  0.99999998245E-14  0.12500000000E+03  0.12500000000E+03 0.  0.
        -11    1    3    3    0    0  0.32806202953E+02 -0.42078176226E+01 -0.11166411952E+02  0.34909045210E+02  0.51100000000E-03 0. -1.
         23    2    1    0    0    0 -0.17164203014E+02 -0.99093198825E+01  0.22180759339E+02  0.95254570595E+02  0.90491119170E+02 0.  0.
         11    1    3    3    0    0 -0.49970405967E+02 -0.57015022599E+01  0.33347171291E+02  0.60345525384E+02  0.51100000000E-03 0.  1.
         22    1    1    0    0    0  0.17164203014E+02  0.99093198825E+01 -0.22180759339E+02  0.29745429405E+02  0.00000000000E+00 0.  1.
</event>
<event>
 5    1  0.8902899E-005  0.9118800E+02  0.7818608E-02  0.1130116E+00
         25   -1    0    0    0    0  0.00000000000E+00  0.00000000000E+00  0.99999998245E-14  0.12500000000E+03  0.12500000000E+03 0.  0.
        -11    1    3    3    0    0  0.31823162243E+02 -0.30742573991E+02  0.30673019616E+02  0.53839146013E+02  0.51100000000E-03 0. -1.
         23    2    1    0    0    0 -0.49860218251E+01 -0.84455244905E+01  0.26101191359E+02  0.97117039470E+02  0.93028274559E+02 0.  0.
         11    1    3    3    0    0 -0.36809184068E+02  0.22297049501E+02 -0.45718282568E+01  0.43277893457E+02  0.51100000000E-03 0.  1.
         22    1    1    0    0    0  0.49860218251E+01  0.84455244905E+01 -0.26101191359E+02  0.27882960530E+02  0.00000000000E+00 0. -1.
</event>
<event>
 5    1  0.8902899E-005  0.9118800E+02  0.7818608E-02  0.1130116E+00
         25   -1    0    0    0    0  0.00000000000E+00  0.00000000000E+00  0.99999998245E-14  0.12500000000E+03  0.12500000000E+03 0.  0.
        -11    1    3    3    0    0 -0.30263225643E+02 -0.14437651257E+02 -0.27799613759E+02  0.43556022839E+02  0.51100000000E-03 0.  1.
         23    2    1    0    0    0 -0.10977928742E+02  0.27591513493E+02 -0.58904263121E+01  0.94726188571E+02  0.89758270609E+02 0.  0.
         11    1    3    3    0    0  0.19285296902E+02  0.42029164750E+02  0.21909187446E+02  0.51170165732E+02  0.51100000000E-03 0. -1.
         22    1    1    0    0    0  0.10977928742E+02 -0.27591513493E+02  0.58904263121E+01  0.30273811429E+02  0.00000000000E+00 0.  1.
</event>
<event>
 5    1  0.8902899E-005  0.9118800E+02  0.7818608E-02  0.1130116E+00
         25   -1    0    0    0    0  0.00000000000E+00  0.00000000000E+00  0.99999998245E-14  0.12500000000E+03  0.12500000000E+03 0.  0.
        -11    1    3    3    0    0 -0.14520221331E+02  0.57328328342E+02  0.17932452075E+02  0.61797628560E+02  0.51100000000E-03 0.  1.
         23    2    1    0    0    0 -0.26649408411E+01  0.26866137962E+02  0.13596008158E+02  0.94771822474E+02  0.89821799239E+02 0.  0.
         11    1    3    3    0    0  0.11855280489E+02 -0.30462190380E+02 -0.43364439170E+01  0.32974193914E+02  0.51100000000E-03 0. -1.
         22    1    1    0    0    0  0.26649408411E+01 -0.26866137962E+02 -0.13596008158E+02  0.30228177526E+02  0.00000000000E+00 0.  1.
</event>
<event>
 5    1  0.8902899E-005  0.9118800E+02  0.7818608E-02  0.1130116E+00
         25   -1    0    0    0    0  0.00000000000E+00  0.00000000000E+00  0.99999998245E-14  0.12500000000E+03  0.12500000000E+03 0.  0.
        -11    1    3    3    0    0 -0.70901589182E+01 -0.42199560346E+02  0.15116237111E+02  0.45382528263E+02  0.51100000000E-03 0. -1.
         23    2    1    0    0    0  0.21519446388E+02 -0.16253725370E+02 -0.14801543280E+02  0.94237102790E+02  0.89074551346E+02 0.  0.
         11    1    3    3    0    0  0.28609605306E+02  0.25945834976E+02 -0.29917780391E+02  0.48854574527E+02  0.51100000000E-03 0.  1.
         22    1    1    0    0    0 -0.21519446388E+02  0.16253725370E+02  0.14801543280E+02  0.30762897210E+02  0.00000000000E+00 0. -1.
</event>
<event>
 5    1  0.8902899E-005  0.9118800E+02  0.7818608E-02  0.1130116E+00
         25   -1    0    0    0    0  0.00000000000E+00  0.00000000000E+00  0.99999998245E-14  0.12500000000E+03  0.12500000000E+03 0.  0.
        -11    1    3    3    0    0 -0.43492098257E+02  0.22226524208E+02  0.28226940175E+02  0.56412242829E+02  0.51100000000E-03 0.  1.
         23    2    1    0    0    0 -0.19556251553E+02  0.19951688181E+02 -0.41660511638E+01  0.96753357397E+02  0.92538312872E+02 0.  0.
         11    1    3    3    0    0  0.23935846704E+02 -0.22748360268E+01 -0.32392991339E+02  0.40341114567E+02  0.51100000000E-03 0. -1.
         22    1    1    0    0    0  0.19556251553E+02 -0.19951688181E+02  0.41660511638E+01  0.28246642603E+02  0.00000000000E+00 0.  1.
</event>
<event>
 5    1  0.8902899E-005  0.9118800E+02  0.7818608E-02  0.1130116E+00
         25   -1    0    0    0    0  0.00000000000E+00  0.00000000000E+00  0.99999998245E-14  0.12500000000E+03  0.12500000000E+03 0.  0.
        -11    1    3    3    0    0 -0.51340930536E+02 -0.15910824957E+02 -0.22383765439E+02  0.58224380242E+02  0.51100000000E-03 0. -1.
         23    2    1    0    0    0 -0.29206602905E+02  0.25475009514E+01  0.14838486624E+01  0.95644979625E+02  0.91028813605E+02 0.  0.
         11    1    3    3    0    0  0.22134327631E+02  0.18458325909E+02  0.23867614101E+02  0.37420599383E+02  0.51100000000E-03 0.  1.
         22    1    1    0    0    0  0.29206602905E+02 -0.25475009514E+01 -0.14838486624E+01  0.29355020375E+02  0.00000000000E+00 0. -1.
</event>
<event>
 5    1  0.8902899E-005  0.9118800E+02  0.7818608E-02  0.1130116E+00
         25   -1    0    0    0    0  0.00000000000E+00  0.00000000000E+00  0.99999998245E-14  0.12500000000E+03  0.12500000000E+03 0.  0.
        -11    1    3    3    0    0 -0.27013843039E+02 -0.12991628796E+02  0.54072125916E+02  0.61824953990E+02  0.51100000000E-03 0.  1.
         23    2    1    0    0    0 -0.15499265948E+02 -0.35649511812E+00  0.27804745428E+02  0.93165141716E+02  0.87557326529E+02 0.  0.
         11    1    3    3    0    0  0.11514577091E+02  0.12635133678E+02 -0.26267380489E+02  0.31340187725E+02  0.51100000000E-03 0. -1.
         22    1    1    0    0    0  0.15499265948E+02  0.35649511812E+00 -0.27804745428E+02  0.31834858284E+02  0.00000000000E+00 0.  1.
</event>
<event>
 5    1  0.8902899E-005  0.9118800E+02  0.7818608E-02  0.1130116E+00
         25   -1    0    0    0    0  0.00000000000E+00  0.00000000000E+00  0.99999998245E-14  0.12500000000E+03  0.12500000000E+03 0.  0.
        -11    1    3    3    0    0  0.31541044990E+02 -0.15934936250E+02  0.24131664816E+02  0.42791318739E+02  0.51100000000E-03 0.  1.
         23    2    1    0    0    0 -0.89863739597E+01  0.21568543507E+02  0.68076768801E+01  0.10066275590E+03  0.97676450460E+02 0.  0.
         11    1    3    3    0    0 -0.40527418949E+02  0.37503479757E+02 -0.17323987936E+02  0.57871437159E+02  0.51100000000E-03 0. -1.
         22    1    1    0    0    0  0.89863739597E+01 -0.21568543507E+02 -0.68076768801E+01  0.24337244102E+02  0.00000000000E+00 0. -1.
</event>
<event>
 5    1  0.8902899E-005  0.9118800E+02  0.7818608E-02  0.1130116E+00
         25   -1    0    0    0    0  0.00000000000E+00  0.00000000000E+00  0.99999998245E-14  0.12500000000E+03  0.12500000000E+03 0.  0.
        -11    1    3    3    0    0  0.13661060765E+02  0.24787459674E+02 -0.43927710412E+02  0.52255970766E+02  0.51100000000E-03 0. -1.
         23    2    1    0    0    0  0.20829445498E+02 -0.89966113351E+01 -0.11797858594E+02  0.99426688078E+02  0.96081590429E+02 0.  0.
         11    1    3    3    0    0  0.71683847326E+01 -0.33784071009E+02  0.32129851818E+02  0.47170717312E+02  0.51100000000E-03 0.  1.
         22    1    1    0    0    0 -0.20829445498E+02  0.89966113351E+01  0.11797858594E+02  0.25573311922E+02  0.00000000000E+00 0.  1.
</event>
<event>
 5    1  0.8902899E-005  0.9118800E+02  0.7818608E-02  0.1130116E+00
         25   -1    0    0    0    0  0.00000000000E+00  0.00000000000E+00  0.99999998245E-14  0.12500000000E+03  0.12500000000E+03 0.  0.
        -11    1    3    3    0    0 -0.42219641021E+02  0.83383505370E+01  0.94089109394E+01  0.44051717140E+02  0.51100000000E-03 0.  1.
         23    2    1    0    0    0 -0.64676201062E+01  0.57681223545E+01 -0.27897539532E+02  0.95787433231E+02  0.91224219962E+02 0.  0.
         11    1    3    3    0    0  0.35752020915E+02 -0.25702281826E+01 -0.37306450471E+02  0.51735716091E+02  0.51100000000E-03 0. -1.
         22    1    1    0    0    0  0.64676201062E+01 -0.57681223545E+01  0.27897539532E+02  0.29212566769E+02  0.00000000000E+00 0. -1.
</event>
<event>
 5    1  0.8902899E-005  0.9118800E+02  0.7818608E-02  0.1130116E+00
         25   -1    0    0    0    0  0.00000000000E+00  0.00000000000E+00  0.99999998245E-14  0.12500000000E+03  0.12500000000E+03 0.  0.
        -11    1    3    3    0    0  0.72445050032E+01 -0.73813984707E+01 -0.51902293079E+02  0.52922735410E+02  0.51100000000E-03 0.  1.
         23    2    1    0    0    0  0.26099248190E+02  0.12804643833E+01 -0.16086608756E+02  0.94314672457E+02  0.89183339892E+02 0.  0.
         11    1    3    3    0    0  0.18854743187E+02  0.86618628541E+01  0.35815684323E+02  0.41391937047E+02  0.51100000000E-03 0. -1.
         22    1    1    0    0    0 -0.26099248190E+02 -0.12804643833E+01  0.16086608756E+02  0.30685327543E+02  0.00000000000E+00 0.  1.
</event>
<event>
 5    1  0.8902899E-005  0.9118800E+02  0.7818608E-02  0.1130116E+00
         25   -1    0    0    0    0  0.00000000000E+00  0.00000000000E+00  0.99999998245E-14  0.12500000000E+03  0.12500000000E+03 0.  0.
        -11    1    3    3    0    0  0.30043936099E+02  0.31002020782E+02  0.43067603107E+02  0.60980175684E+02  0.51100000000E-03 0.  1.
         23    2    1    0    0    0  0.10549786032E+02  0.84464023246E+01  0.26904073635E+02  0.94892378445E+02  0.89989413884E+02 0.  0.
         11    1    3    3    0    0 -0.19494150066E+02 -0.22555618457E+02 -0.16163529472E+02  0.33912202760E+02  0.51100000000E-03 0. -1.
         22    1    1    0    0    0 -0.10549786032E+02 -0.84464023246E+01 -0.26904073635E+02  0.30107621555E+02  0.00000000000E+00 0.  1.
</event>
<event>
 5    1  0.8902899E-005  0.9118800E+02  0.7818608E-02  0.1130116E+00
         25   -1    0    0    0    0  0.00000000000E+00  0.00000000000E+00  0.99999998245E-14  0.12500000000E+03  0.12500000000E+03 0.  0.
        -11    1    3    3    0    0 -0.11100033627E+02 -0.41254902607E+02 -0.55629830560E+01  0.43082763565E+02  0.51100000000E-03 0.  1.
         23    2    1    0    0    0  0.58569225691E+01  0.72098423173E+01 -0.25267255756E+02  0.98079383706E+02  0.94312490829E+02 0.  0.
         11    1    3    3    0    0  0.16956956196E+02  0.48464744924E+02 -0.19704272700E+02  0.54996620141E+02  0.51100000000E-03 0. -1.
         22    1    1    0    0    0 -0.58569225691E+01 -0.72098423173E+01  0.25267255756E+02  0.26920616294E+02  0.00000000000E+00 0. -1.
</event>
<event>
 5    1  0.8902899E-005  0.9118800E+02  0.7818608E-02  0.1130116E+00
         25   -1    0    0    0    0  0.00000000000E+00  0.00000000000E+00  0.99999998245E-14  0.12500000000E+03  0.12500000000E+03 0.  0.
        -11    1    3    3    0    0 -0.31557986163E+01  0.13227200072E+02 -0.49494535369E+02  0.51328616954E+02  0.51100000000E-03 0. -1.
         23    2    1    0    0    0 -0.27240745204E+02  0.28804064207E+01 -0.18384851769E+02  0.92009733027E+02  0.85891985986E+02 0.  0.
         11    1    3    3    0    0 -0.24084946587E+02 -0.10346793651E+02  0.31109683600E+02  0.40681116073E+02  0.51100000000E-03 0.  1.
         22    1    1    0    0    0  0.27240745204E+02 -0.28804064207E+01  0.18384851769E+02  0.32990266973E+02  0.00000000000E+00 0. -1.
</event>
<event>
 5    1  0.8902899E-005  0.9118800E+02  0.7818608E-02  0.1130116E+00
         25   -1    0    0    0    0  0.00000000000E+00  0.00000000000E+00  0.99999998245E-14  0.12500000000E+03  0.12500000000E+03 0.  0.
        -11    1    3    3    0    0  0.42580584010E+01 -0.13530381108E+02 -0.33277532942E+02  0.36174527962E+02  0.51100000000E-03 0.  1.
         23    2    1    0    0    0  0.10340095274E+01 -0.14295206033E+02  0.25875458805E+02  0.95420252544E+02  0.90719695413E+02 0.  0.
         11    1    3    3    0    0 -0.32240488736E+01 -0.76482492486E+00  0.59152991747E+02  0.59245724582E+02  0.51100000000E-03 0. -1.
         22    1    1    0    0    0 -0.10340095274E+01  0.14295206033E+02 -0.25875458805E+02  0.29579747456E+02  0.00000000000E+00 0. -1.
</event>
<event>
 4    1  0.8902899E-005  0.9118800E+02  0.7818608E-02  0.1130116E+00
         25   -1    0    0    0    0  0.00000000000E+00  0.00000000000E+00  0.99999998245E-14  0.12500000000E+03  0.12500000000E+03 0.  0.
        -11    1    1    0    0    0  0.26325035637E+02  0.87971178074E+01  0.29575534223E+00  0.27757598140E+02  0.51100000000E-03 0.  1.
         11    1    1    0    0    0  0.12532760957E+02  0.34714340738E+02 -0.96799614692E+01  0.38155696879E+02  0.51100000000E-03 0. -1.
         22    1    1    0    0    0 -0.38857796594E+02 -0.43511458545E+02  0.93842061270E+01  0.59086704981E+02  0.00000000000E+00 0. -1.
</event>
<event>
 5    1  0.8902899E-005  0.9118800E+02  0.7818608E-02  0.1130116E+00
         25   -1    0    0    0    0  0.00000000000E+00  0.00000000000E+00  0.99999998245E-14  0.12500000000E+03  0.12500000000E+03 0.  0.
        -11    1    3    3    0    0 -0.35052356249E+02 -0.22024316416E+02  0.33484500324E+02  0.53244248088E+02  0.51100000000E-03 0.  1.
         23    2    1    0    0    0 -0.10983004468E+02 -0.26818872274E+02 -0.15020841399E+01  0.95980445318E+02  0.91488312530E+02 0.  0.
         11    1    3    3    0    0  0.24069351781E+02 -0.47945558572E+01 -0.34986584464E+02  0.42736197231E+02  0.51100000000E-03 0. -1.
         22    1    1    0    0    0  0.10983004468E+02  0.26818872274E+02  0.15020841399E+01  0.29019554682E+02  0.00000000000E+00 0.  1.
</event>
<event>
 5    1  0.8902899E-005  0.9118800E+02  0.7818608E-02  0.1130116E+00
         25   -1    0    0    0    0  0.00000000000E+00  0.00000000000E+00  0.99999998245E-14  0.12500000000E+03  0.12500000000E+03 0.  0.
        -11    1    3    3    0    0 -0.24667224701E+02  0.14247952179E+02  0.19217094976E+02  0.34362375578E+02  0.51100000000E-03 0.  1.
         23    2    1    0    0    0  0.30582698752E+02  0.11886045575E+02  0.11668981719E+02  0.90175516131E+02  0.83179799427E+02 0.  0.
         11    1    3    3    0    0  0.55249923454E+02 -0.23619066041E+01 -0.75481132570E+01  0.55813140553E+02  0.51100000000E-03 0. -1.
         22    1    1    0    0    0 -0.30582698752E+02 -0.11886045575E+02 -0.11668981719E+02  0.34824483869E+02  0.00000000000E+00 0. -1.
</event>
<event>
 5    1  0.8902899E-005  0.9118800E+02  0.7818608E-02  0.1130116E+00
         25   -1    0    0    0    0  0.00000000000E+00  0.00000000000E+00  0.99999998245E-14  0.12500000000E+03  0.12500000000E+03 0.  0.
        -11    1    3    3    0    0  0.43210718308E+01 -0.45163228934E+02 -0.30808421687E+02  0.54841113744E+02  0.51100000000E-03 0. -1.
         23    2    1    0    0    0  0.20148166424E+01 -0.15853891771E+01 -0.26146341810E+02  0.98728263571E+02  0.95168618214E+02 0.  0.
         11    1    3    3    0    0 -0.23062551884E+01  0.43577839757E+02  0.46620798768E+01  0.43887149827E+02  0.51100000000E-03 0.  1.
         22    1    1    0    0    0 -0.20148166424E+01  0.15853891771E+01  0.26146341810E+02  0.26271736429E+02  0.00000000000E+00 0. -1.
</event>
<event>
 5    1  0.8902899E-005  0.9118800E+02  0.7818608E-02  0.1130116E+00
         25   -1    0    0    0    0  0.00000000000E+00  0.00000000000E+00  0.99999998245E-14  0.12500000000E+03  0.12500000000E+03 0.  0.
        -11    1    3    3    0    0  0.29391851416E+02  0.22071842572E+02  0.10903586641E+02  0.38339736124E+02  0.51100000000E-03 0. -1.
         23    2    1    0    0    0 -0.41443475342E+00 -0.91637564132E+01 -0.27430151252E+02  0.96076663652E+02  0.91619680817E+02 0.  0.
         11    1    3    3    0    0 -0.29806286169E+02 -0.31235598985E+02 -0.38333737893E+02  0.57736927528E+02  0.51100000000E-03 0.  1.
         22    1    1    0    0    0  0.41443475342E+00  0.91637564132E+01  0.27430151252E+02  0.28923336348E+02  0.00000000000E+00 0.  1.
</event>
<event>
 5    1  0.8902899E-005  0.9118800E+02  0.7818608E-02  0.1130116E+00
         25   -1    0    0    0    0  0.00000000000E+00  0.00000000000E+00  0.99999998245E-14  0.12500000000E+03  0.12500000000E+03 0.  0.
        -11    1    3    3    0    0 -0.25882023130E+02 -0.31814276797E+02 -0.16825286496E+02  0.44329646912E+02  0.51100000000E-03 0.  1.
         23    2    1    0    0    0 -0.69103351262E+01 -0.50619086955E+01  0.25629536063E+02  0.97976884525E+02  0.94176542361E+02 0.  0.
         11    1    3    3    0    0  0.18971688003E+02  0.26752368101E+02  0.42454822559E+02  0.53647237613E+02  0.51100000000E-03 0. -1.
         22    1    1    0    0    0  0.69103351262E+01  0.50619086955E+01 -0.25629536063E+02  0.27023115475E+02  0.00000000000E+00 0. -1.
</event>
<event>
 5    1  0.8902899E-005  0.9118800E+02  0.7818608E-02  0.1130116E+00
         25   -1    0    0    0    0  0.00000000000E+00  0.00000000000E+00  0.99999998245E-14  0.12500000000E+03  0.12500000000E+03 0.  0.
        -11    1    3    3    0    0 -0.27905788071E+02  0.40859550708E+02  0.11728741834E+02  0.50850754933E+02  0.51100000000E-03 0. -1.
         23    2    1    0    0    0  0.12292428717E+02  0.26578275032E+02 -0.19554944438E+01  0.95651533839E+02  0.91037813352E+02 0.  0.
         11    1    3    3    0    0  0.40198216788E+02 -0.14281275676E+02 -0.13684236277E+02  0.44800778907E+02  0.51100000000E-03 0.  1.
         22    1    1    0    0    0 -0.12292428717E+02 -0.26578275032E+02  0.19554944438E+01  0.29348466161E+02  0.00000000000E+00 0. -1.
</event>
<event>
 5    1  0.8902899E-005  0.9118800E+02  0.7818608E-02  0.1130116E+00
         25   -1    0    0    0    0  0.00000000000E+00  0.00000000000E+00  0.99999998245E-14  0.12500000000E+03  0.12500000000E+03 0.  0.
        -11    1    3    3    0    0  0.53716745381E+02 -0.49568752834E+01 -0.26672912033E+02  0.60178929730E+02  0.51100000000E-03 0.  1.
         23    2    1    0    0    0  0.24378089719E+02 -0.87059471450E+01 -0.14115890820E+01  0.99075545179E+02  0.95623670159E+02 0.  0.
         11    1    3    3    0    0 -0.29338655662E+02 -0.37490718616E+01  0.25261322951E+02  0.38896615449E+02  0.51100000000E-03 0. -1.
         22    1    1    0    0    0 -0.24378089719E+02  0.87059471450E+01  0.14115890820E+01  0.25924454821E+02  0.00000000000E+00 0.  1.
</event>
<event>
 5    1  0.8902899E-005  0.9118800E+02  0.7818608E-02  0.1130116E+00
         25   -1    0    0    0    0  0.00000000000E+00  0.00000000000E+00  0.99999998245E-14  0.12500000000E+03  0.12500000000E+03 0.  0.
        -11    1    3    3    0    0  0.13667413435E+02 -0.28445324473E+02 -0.18644544475E+02  0.36654518321E+02  0.51100000000E-03 0.  1.
         23    2    1    0    0    0 -0.26460897204E+02  0.34738434943E+01  0.11283727707E+02  0.96024679805E+02  0.91548729927E+02 0.  0.
         11    1    3    3    0    0 -0.40128310639E+02  0.31919167968E+02  0.29928272182E+02  0.59370161484E+02  0.51100000000E-03 0. -1.
         22    1    1    0    0    0  0.26460897204E+02 -0.34738434943E+01 -0.11283727707E+02  0.28975320195E+02  0.00000000000E+00 0. -1.
</event>
<event>
 5    1  0.8902899E-005  0.9118800E+02  0.7818608E-02  0.1130116E+00
         25   -1    0    0    0    0  0.00000000000E+00  0.00000000000E+00  0.99999998245E-14  0.12500000000E+03  0.12500000000E+03 0.  0.
        -11    1    3    3    0    0  0.33593781927E+02 -0.14924218053E+02  0.30494982134E+02  0.47762102176E+02  0.51100000000E-03 0. -1.
         23    2    1    0    0    0 -0.10227252088E+02 -0.44865659893E+01  0.30190478234E+02  0.92810080217E+02  0.87048952057E+02 0.  0.
         11    1    3    3    0    0 -0.43821034015E+02  0.10437652063E+02 -0.30450389939E+00  0.45047978041E+02  0.51100000000E-03 0.  1.
         22    1    1    0    0    0  0.10227252088E+02  0.44865659893E+01 -0.30190478234E+02  0.32189919783E+02  0.00000000000E+00 0. -1.
</event>
<event>
 5    1  0.8902899E-005  0.9118800E+02  0.7818608E-02  0.1130116E+00
         25   -1    0    0    0    0  0.00000000000E+00  0.00000000000E+00  0.99999998245E-14  0.12500000000E+03  0.12500000000E+03 0.  0.
        -11    1    3    3    0    0  0.27994055090E+02 -0.46668822173E+02  0.27007509585E+02  0.60754025856E+02  0.51100000000E-03 0. -1.
         23    2    1    0    0    0  0.19536257513E+02 -0.21518083829E+02  0.44169222728E+01  0.95602678836E+02  0.90970707972E+02 0.  0.
         11    1    3    3    0    0 -0.84577975775E+01  0.25150738344E+02 -0.22590587313E+02  0.34848652980E+02  0.51100000000E-03 0.  1.
         22    1    1    0    0    0 -0.19536257513E+02  0.21518083829E+02 -0.44169222728E+01  0.29397321164E+02  0.00000000000E+00 0. -1.
</event>
<event>
 5    1  0.8902899E-005  0.9118800E+02  0.7818608E-02  0.1130116E+00
         25   -1    0    0    0    0  0.00000000000E+00  0.00000000000E+00  0.99999998245E-14  0.12500000000E+03  0.12500000000E+03 0.  0.
        -11    1    3    3    0    0 -0.23306371911E+02 -0.80626720126E+01  0.25837888712E+02  0.35718204672E+02  0.51100000000E-03 0. -1.
         23    2    1    0    0    0 -0.18962015372E+01  0.11380091670E+02 -0.26824712516E+02  0.95799533082E+02  0.91240798278E+02 0.  0.
         11    1    3    3    0    0  0.21410170374E+02  0.19442763683E+02 -0.52662601228E+02  0.60081328409E+02  0.51100000000E-03 0.  1.
         22    1    1    0    0    0  0.18962015372E+01 -0.11380091670E+02  0.26824712516E+02  0.29200466918E+02  0.00000000000E+00 0.  1.
</event>
<event>
 5    1  0.8902899E-005  0.9118800E+02  0.7818608E-02  0.1130116E+00
         25   -1    0    0    0    0  0.00000000000E+00  0.00000000000E+00  0.99999998245E-14  0.12500000000E+03  0.12500000000E+03 0.  0.
        -11    1    3    3    0    0  0.31880866120E+02 -0.41430570664E+01  0.44951110054E+02  0.55264426549E+02  0.51100000000E-03 0.  1.
         23    2    1    0    0    0  0.92300223464E+01  0.18813359644E+02  0.19903068760E+02  0.96098997255E+02  0.91650146283E+02 0.  0.
         11    1    3    3    0    0 -0.22650843773E+02  0.22956416710E+02 -0.25048041294E+02  0.40834570706E+02  0.51100000000E-03 0. -1.
         22    1    1    0    0    0 -0.92300223464E+01 -0.18813359644E+02 -0.19903068760E+02  0.28901002745E+02  0.00000000000E+00 0.  1.
</event>
<event>
 5    1  0.8902899E-005  0.9118800E+02  0.7818608E-02  0.1130116E+00
         25   -1    0    0    0    0  0.00000000000E+00  0.00000000000E+00  0.99999998245E-14  0.12500000000E+03  0.12500000000E+03 0.  0.
        -11    1    3    3    0    0  0.34593860898E+02 -0.99817009828E+01  0.50537799615E+01  0.36358083812E+02  0.51100000000E-03 0. -1.
         23    2    1    0    0    0 -0.24596935600E+02 -0.15420488032E+02  0.63925428254E+00  0.95961932948E+02  0.91463015679E+02 0.  0.
         11    1    3    3    0    0 -0.59190796498E+02 -0.54387870493E+01 -0.44145256790E+01  0.59603849136E+02  0.51100000000E-03 0.  1.
         22    1    1    0    0    0  0.24596935600E+02  0.15420488032E+02 -0.63925428254E+00  0.29038067052E+02  0.00000000000E+00 0.  1.
</event>
<event>
 5    1  0.8902899E-005  0.9118800E+02  0.7818608E-02  0.1130116E+00
         25   -1    0    0    0    0  0.00000000000E+00  0.00000000000E+00  0.99999998245E-14  0.12500000000E+03  0.12500000000E+03 0.  0.
        -11    1    3    3    0    0  0.14646612065E+02 -0.57423033490E+02 -0.17919693638E+01  0.59288609147E+02  0.51100000000E-03 0. -1.
         23    2    1    0    0    0  0.16129841272E+02 -0.36155074165E+02 -0.12942640415E+02  0.83348192017E+02  0.72194515057E+02 0.  0.
         11    1    3    3    0    0  0.14832292067E+01  0.21267959325E+02 -0.11150671051E+02  0.24059582870E+02  0.51100000000E-03 0.  1.
         22    1    1    0    0    0 -0.16129841272E+02  0.36155074165E+02  0.12942640415E+02  0.41651807983E+02  0.00000000000E+00 0. -1.
</event>
<event>
 5    1  0.8902899E-005  0.9118800E+02  0.7818608E-02  0.1130116E+00
         25   -1    0    0    0    0  0.00000000000E+00  0.00000000000E+00  0.99999998245E-14  0.12500000000E+03  0.12500000000E+03 0.  0.
        -11    1    3    3    0    0  0.47267762253E+02  0.76648198277E+01  0.39802965558E+02  0.62267703337E+02  0.51100000000E-03 0.  1.
         23    2    1    0    0    0  0.20469942704E+02  0.21492386559E-01  0.19322013207E+02  0.96851124168E+02  0.92670281331E+02 0.  0.
         11    1    3    3    0    0 -0.26797819549E+02 -0.76433274411E+01 -0.20480952350E+02  0.34583420831E+02  0.51100000000E-03 0. -1.
         22    1    1    0    0    0 -0.20469942704E+02 -0.21492386559E-01 -0.19322013207E+02  0.28148875832E+02  0.00000000000E+00 0.  1.
</event>
<event>
 5    1  0.8902899E-005  0.9118800E+02  0.7818608E-02  0.1130116E+00
         25   -1    0    0    0    0  0.00000000000E+00  0.00000000000E+00  0.99999998245E-14  0.12500000000E+03  0.12500000000E+03 0.  0.
        -11    1    3    3    0    0  0.29204946448E+01 -0.10794087766E+02 -0.57920527885E+02  0.58990076881E+02  0.51100000000E-03 0. -1.
         23    2    1    0    0    0  0.81196987820E+01 -0.16421294723E+02 -0.19194524819E+02  0.98466658490E+02  0.94824388331E+02 0.  0.
         11    1    3    3    0    0  0.51992041373E+01 -0.56272069569E+01  0.38726003066E+02  0.39476581609E+02  0.51100000000E-03 0.  1.
         22    1    1    0    0    0 -0.81196987820E+01  0.16421294723E+02  0.19194524819E+02  0.26533341510E+02  0.00000000000E+00 0. -1.
</event>
<event>
 5    1  0.8902899E-005  0.9118800E+02  0.7818608E-02  0.1130116E+00
         25   -1    0    0    0    0  0.00000000000E+00  0.00000000000E+00  0.99999998245E-14  0.12500000000E+03  0.12500000000E+03 0.  0.
        -11    1    3    3    0    0  0.80662141997E+01 -0.57476380240E+01 -0.33748806459E+02  0.35172163596E+02  0.51100000000E-03 0.  1.
         23    2    1    0    0    0 -0.87315652395E+01 -0.21695136746E+02  0.20336334194E+02  0.94008296620E+02  0.88752882517E+02 0.  0.
         11    1    3    3    0    0 -0.16797779439E+02 -0.15947498721E+02  0.54085140653E+02  0.58836133024E+02  0.51100000000E-03 0. -1.
         22    1    1    0    0    0  0.87315652395E+01  0.21695136746E+02 -0.20336334194E+02  0.30991703380E+02  0.00000000000E+00 0. -1.
</event>
<event>
 5    1  0.8902899E-005  0.9118800E+02  0.7818608E-02  0.1130116E+00
         25   -1    0    0    0    0  0.00000000000E+00  0.00000000000E+00  0.99999998245E-14  0.12500000000E+03  0.12500000000E+03 0.  0.
        -11    1    3    3    0    0  0.23871127982E+02  0.52468903263E+02 -0.21995640841E+02  0.61697850668E+02  0.51100000000E-03 0.  1.
         23    2    1    0    0    0  0.17334618532E+02  0.23395228184E+02 -0.70216665114E+01  0.95047879841E+02  0.90205154843E+02 0.  0.
         11    1    3    3    0    0 -0.65365094502E+01 -0.29073675079E+02  0.14973974329E+02  0.33350029174E+02  0.51100000000E-03 0. -1.
         22    1    1    0    0    0 -0.17334618532E+02 -0.23395228184E+02  0.70216665114E+01  0.29952120159E+02  0.00000000000E+00 0.  1.
</event>
<event>
 5    1  0.8902899E-005  0.9118800E+02  0.7818608E-02  0.1130116E+00
         25   -1    0    0    0    0  0.00000000000E+00  0.00000000000E+00  0.99999998245E-14  0.12500000000E+03  0.12500000000E+03 0.  0.
        -11    1    3    3    0    0 -0.10387187723E+02  0.42965157303E+02  0.48761609783E+01  0.44471062018E+02  0.51100000000E-03 0.  1.
         23    2    1    0    0    0 -0.29593186831E+02 -0.25780094446E+01 -0.50042931648E+01  0.94876159117E+02  0.89966881568E+02 0.  0.
         11    1    3    3    0    0 -0.19205999108E+02 -0.45543166748E+02 -0.98804541431E+01  0.50405097098E+02  0.51100000000E-03 0. -1.
         22    1    1    0    0    0  0.29593186831E+02  0.25780094446E+01  0.50042931648E+01  0.30123840883E+02  0.00000000000E+00 0. -1.
</event>
<event>
 5    1  0.8902899E-005  0.9118800E+02  0.7818608E-02  0.1130116E+00
         25   -1    0    0    0    0  0.00000000000E+00  0.00000000000E+00  0.99999998245E-14  0.12500000000E+03  0.12500000000E+03 0.  0.
        -11    1    3    3    0    0 -0.37663368059E+02 -0.13086977697E+02 -0.43751036258E+02  0.59194184281E+02  0.51100000000E-03 0. -1.
         23    2    1    0    0    0 -0.26754649757E+01 -0.13857864830E+02 -0.13868107041E+02  0.10521306180E+03  0.10333569301E+03 0.  0.
         11    1    3    3    0    0  0.34987903083E+02 -0.77088713237E+00  0.29882929217E+02  0.46018877518E+02  0.51100000000E-03 0.  1.
         22    1    1    0    0    0  0.26754649757E+01  0.13857864830E+02  0.13868107041E+02  0.19786938201E+02  0.00000000000E+00 0. -1.
</event>
<event>
 5    1  0.8902899E-005  0.9118800E+02  0.7818608E-02  0.1130116E+00
         25   -1    0    0    0    0  0.00000000000E+00  0.00000000000E+00  0.99999998245E-14  0.12500000000E+03  0.12500000000E+03 0.  0.
        -11    1    3    3    0    0  0.12583425585E+02  0.18822163548E+02 -0.25535024073E+02  0.34127025870E+02  0.51100000000E-03 0.  1.
         23    2    1    0    0    0 -0.29622630280E+01 -0.38466474325E+01  0.29212172727E+02  0.95387118780E+02  0.90674029882E+02 0.  0.
         11    1    3    3    0    0 -0.15545688613E+02 -0.22668810980E+02  0.54747196800E+02  0.61260092910E+02  0.51100000000E-03 0. -1.
         22    1    1    0    0    0  0.29622630280E+01  0.38466474325E+01 -0.29212172727E+02  0.29612881220E+02  0.00000000000E+00 0. -1.
</event>
<event>
 5    1  0.8902899E-005  0.9118800E+02  0.7818608E-02  0.1130116E+00
         25   -1    0    0    0    0  0.00000000000E+00  0.00000000000E+00  0.99999998245E-14  0.12500000000E+03  0.12500000000E+03 0.  0.
        -11    1    3    3    0    0  0.20306249584E+01 -0.18668454826E+02 -0.32728573673E+02  0.37733197296E+02  0.51100000000E-03 0.  1.
         23    2    1    0    0    0  0.28468446926E+02  0.15566243264E+02  0.92939627471E+00  0.92540422412E+02  0.86660865465E+02 0.  0.
         11    1    3    3    0    0  0.26437821967E+02  0.34234698090E+02  0.33657969947E+02  0.54807225116E+02  0.51100000000E-03 0. -1.
         22    1    1    0    0    0 -0.28468446926E+02 -0.15566243264E+02 -0.92939627471E+00  0.32459577588E+02  0.00000000000E+00 0.  1.
</event>
<event>
 5    1  0.8902899E-005  0.9118800E+02  0.7818608E-02  0.1130116E+00
         25   -1    0    0    0    0  0.00000000000E+00  0.00000000000E+00  0.99999998245E-14  0.12500000000E+03  0.12500000000E+03 0.  0.
        -11    1    3    3    0    0 -0.46943931191E+02  0.28868114611E+01  0.26292333325E+02  0.53882772275E+02  0.51100000000E-03 0.  1.
         23    2    1    0    0    0 -0.20448210827E+02 -0.19915317811E+02  0.21308113712E+01  0.96376765266E+02  0.92028209351E+02 0.  0.
         11    1    3    3    0    0  0.26495720363E+02 -0.22802129272E+02 -0.24161521954E+02  0.42493992991E+02  0.51100000000E-03 0. -1.
         22    1    1    0    0    0  0.20448210827E+02  0.19915317811E+02 -0.21308113712E+01  0.28623234734E+02  0.00000000000E+00 0.  1.
</event>
<event>
 5    1  0.8902899E-005  0.9118800E+02  0.7818608E-02  0.1130116E+00
         25   -1    0    0    0    0  0.00000000000E+00  0.00000000000E+00  0.99999998245E-14  0.12500000000E+03  0.12500000000E+03 0.  0.
        -11    1    3    3    0    0  0.13122988362E+02  0.58027100872E+02 -0.13283120812E+02  0.60957350319E+02  0.51100000000E-03 0.  1.
         23    2    1    0    0    0  0.15617287066E+02  0.24656896583E+02 -0.62005951668E+01  0.95161944017E+02  0.90363078767E+02 0.  0.
         11    1    3    3    0    0  0.24942987034E+01 -0.33370204288E+02  0.70825256455E+01  0.34204593698E+02  0.51100000000E-03 0. -1.
         22    1    1    0    0    0 -0.15617287066E+02 -0.24656896583E+02  0.62005951668E+01  0.29838055983E+02  0.00000000000E+00 0.  1.
</event>
<event>
 5    1  0.8902899E-005  0.9118800E+02  0.7818608E-02  0.1130116E+00
         25   -1    0    0    0    0  0.00000000000E+00  0.00000000000E+00  0.99999998245E-14  0.12500000000E+03  0.12500000000E+03 0.  0.
        -11    1    3    3    0    0  0.32978198083E+01  0.86678554492E+01 -0.61208716803E+02  0.61907304468E+02  0.51100000000E-03 0. -1.
         23    2    1    0    0    0  0.22902138278E+01  0.99273381375E+01 -0.27194879327E+02  0.95959363239E+02  0.91459503661E+02 0.  0.
         11    1    3    3    0    0 -0.10076059804E+01  0.12594826882E+01  0.34013837476E+02  0.34052058771E+02  0.51100000000E-03 0.  1.
         22    1    1    0    0    0 -0.22902138278E+01 -0.99273381375E+01  0.27194879327E+02  0.29040636761E+02  0.00000000000E+00 0. -1.
</event>
<event>
 5    1  0.8902899E-005  0.9118800E+02  0.7818608E-02  0.1130116E+00
         25   -1    0    0    0    0  0.00000000000E+00  0.00000000000E+00  0.99999998245E-14  0.12500000000E+03  0.12500000000E+03 0.  0.
        -11    1    3    3    0    0  0.75443667741E+01 -0.37570011813E+01  0.38973121236E+02  0.39874010420E+02  0.51100000000E-03 0.  1.
         23    2    1    0    0    0  0.15968903355E+02  0.23863242163E+02 -0.81600811276E+01  0.95149587525E+02  0.90345984312E+02 0.  0.
         11    1    3    3    0    0  0.84245365807E+01  0.27620243345E+02 -0.47133202363E+02  0.55275577105E+02  0.51100000000E-03 0. -1.
         22    1    1    0    0    0 -0.15968903355E+02 -0.23863242163E+02  0.81600811276E+01  0.29850412475E+02  0.00000000000E+00 0. -1.
</event>
<event>
 5    1  0.8902899E-005  0.9118800E+02  0.7818608E-02  0.1130116E+00
         25   -1    0    0    0    0  0.00000000000E+00  0.00000000000E+00  0.99999998245E-14  0.12500000000E+03  0.12500000000E+03 0.  0.
        -11    1    3    3    0    0  0.22491150933E+01  0.23877852260E+02 -0.43386286330E+02  0.49573987020E+02  0.51100000000E-03 0.  1.
         23    2    1    0    0    0  0.26549241328E+02  0.81729888141E+01 -0.64698395147E+01  0.96477749307E+02  0.92165271804E+02 0.  0.
         11    1    3    3    0    0  0.24300126235E+02 -0.15704863446E+02  0.36916446816E+02  0.46903762287E+02  0.51100000000E-03 0. -1.
         22    1    1    0    0    0 -0.26549241328E+02 -0.81729888141E+01  0.64698395147E+01  0.28522250693E+02  0.00000000000E+00 0. -1.
</event>
<event>
 5    1  0.8902899E-005  0.9118800E+02  0.7818608E-02  0.1130116E+00
         25   -1    0    0    0    0  0.00000000000E+00  0.00000000000E+00  0.99999998245E-14  0.12500000000E+03  0.12500000000E+03 0.  0.
        -11    1    3    3    0    0  0.36743939398E+02  0.11452554211E+02 -0.22931012689E+02  0.44800774811E+02  0.51100000000E-03 0.  1.
         23    2    1    0    0    0 -0.47248372310E+01  0.30739814804E+02 -0.10075809094E+02  0.92307764991E+02  0.86324627121E+02 0.  0.
         11    1    3    3    0    0 -0.41468776629E+02  0.19287260592E+02  0.12855203595E+02  0.47506990180E+02  0.51100000000E-03 0. -1.
         22    1    1    0    0    0  0.47248372310E+01 -0.30739814804E+02  0.10075809094E+02  0.32692235009E+02  0.00000000000E+00 0. -1.
</event>
<event>
 5    1  0.8902899E-005  0.9118800E+02  0.7818608E-02  0.1130116E+00
         25   -1    0    0    0    0  0.00000000000E+00  0.00000000000E+00  0.99999998245E-14  0.12500000000E+03  0.12500000000E+03 0.  0.
        -11    1    3    3    0    0  0.26299312617E+02 -0.46269206508E+02 -0.15739171424E+02  0.55499683174E+02  0.51100000000E-03 0.  1.
         23    2    1    0    0    0 -0.40270086857E+00 -0.17146247461E+02 -0.23640539650E+02  0.95793304108E+02  0.91232264177E+02 0.  0.
         11    1    3    3    0    0 -0.26702013486E+02  0.29122959047E+02 -0.79013682259E+01  0.40293620934E+02  0.51100000000E-03 0. -1.
         22    1    1    0    0    0  0.40270086857E+00  0.17146247461E+02  0.23640539650E+02  0.29206695892E+02  0.00000000000E+00 0.  1.
</event>
<event>
 5    1  0.8902899E-005  0.9118800E+02  0.7818608E-02  0.1130116E+00
         25   -1    0    0    0    0  0.00000000000E+00  0.00000000000E+00  0.99999998245E-14  0.12500000000E+03  0.12500000000E+03 0.  0.
        -11    1    3    3    0    0  0.24046069482E+02  0.10117690691E+02 -0.26886519215E+02  0.37462862120E+02  0.51100000000E-03 0.  1.
         23    2    1    0    0    0  0.53487121451E+01 -0.24186016320E+02  0.16027243228E+02  0.95496701328E+02  0.90824970862E+02 0.  0.
         11    1    3    3    0    0 -0.18697357337E+02 -0.34303707011E+02  0.42913762442E+02  0.58033839209E+02  0.51100000000E-03 0. -1.
         22    1    1    0    0    0 -0.53487121451E+01  0.24186016320E+02 -0.16027243228E+02  0.29503298672E+02  0.00000000000E+00 0. -1.
</event>
<event>
 5    1  0.8902899E-005  0.9118800E+02  0.7818608E-02  0.1130116E+00
         25   -1    0    0    0    0  0.00000000000E+00  0.00000000000E+00  0.99999998245E-14  0.12500000000E+03  0.12500000000E+03 0.  0.
        -11    1    3    3    0    0 -0.10375099967E+02 -0.57972067448E+02  0.64645391878E+01  0.59246886591E+02  0.51100000000E-03 0.  1.
         23    2    1    0    0    0  0.73859997274E+01 -0.27030232066E+02  0.10335789517E+02  0.95133380130E+02  0.90323557462E+02 0.  0.
         11    1    3    3    0    0  0.17761099695E+02  0.30941835382E+02  0.38712503290E+01  0.35886493539E+02  0.51100000000E-03 0. -1.
         22    1    1    0    0    0 -0.73859997274E+01  0.27030232066E+02 -0.10335789517E+02  0.29866619870E+02  0.00000000000E+00 0.  1.
</event>
<event>
 5    1  0.8902899E-005  0.9118800E+02  0.7818608E-02  0.1130116E+00
         25   -1    0    0    0    0  0.00000000000E+00  0.00000000000E+00  0.99999998245E-14  0.12500000000E+03  0.12500000000E+03 0.  0.
        -11    1    3    3    0    0  0.11274863632E+02 -0.12749048167E+02 -0.34776489124E+02  0.38717760461E+02  0.51100000000E-03 0.  1.
         23    2    1    0    0    0  0.20379747626E+02 -0.51779496142E+01  0.20729476796E+02  0.95472784017E+02  0.90792048133E+02 0.  0.
         11    1    3    3    0    0  0.91048839940E+01  0.75710985530E+01  0.55505965920E+02  0.56755023555E+02  0.51100000000E-03 0. -1.
         22    1    1    0    0    0 -0.20379747626E+02  0.51779496142E+01 -0.20729476796E+02  0.29527215983E+02  0.00000000000E+00 0. -1.
</event>
<event>
 5    1  0.8902899E-005  0.9118800E+02  0.7818608E-02  0.1130116E+00
         25   -1    0    0    0    0  0.00000000000E+00  0.00000000000E+00  0.99999998245E-14  0.12500000000E+03  0.12500000000E+03 0.  0.
        -11    1    3    3    0    0 -0.11128950604E+02 -0.16971851173E+02  0.29585243240E+02  0.35877345102E+02  0.51100000000E-03 0.  1.
         23    2    1    0    0    0  0.18915027498E+02 -0.64927000149E+01 -0.21230938402E+02  0.95833475281E+02  0.91287287288E+02 0.  0.
         11    1    3    3    0    0  0.30043978102E+02  0.10479151158E+02 -0.50816181641E+02  0.59956130179E+02  0.51100000000E-03 0. -1.
         22    1    1    0    0    0 -0.18915027498E+02  0.64927000149E+01  0.21230938402E+02  0.29166524719E+02  0.00000000000E+00 0. -1.
</event>
<event>
 5    1  0.8902899E-005  0.9118800E+02  0.7818608E-02  0.1130116E+00
         25   -1    0    0    0    0  0.00000000000E+00  0.00000000000E+00  0.99999998245E-14  0.12500000000E+03  0.12500000000E+03 0.  0.
        -11    1    3    3    0    0 -0.32597366994E+02  0.41405529930E+02  0.82760350522E+01  0.53343218877E+02  0.51100000000E-03 0.  1.
         23    2    1    0    0    0  0.27930314821E+01  0.31256713855E+02 -0.63919617324E+01  0.92974379621E+02  0.87284562812E+02 0.  0.
         11    1    3    3    0    0  0.35390398476E+02 -0.10148816075E+02 -0.14667996785E+02  0.39631160744E+02  0.51100000000E-03 0. -1.
         22    1    1    0    0    0 -0.27930314821E+01 -0.31256713855E+02  0.63919617324E+01  0.32025620379E+02  0.00000000000E+00 0.  1.
</event>
<event>
 5    1  0.8902899E-005  0.9118800E+02  0.7818608E-02  0.1130116E+00
         25   -1    0    0    0    0  0.00000000000E+00  0.00000000000E+00  0.99999998245E-14  0.12500000000E+03  0.12500000000E+03 0.  0.
        -11    1    3    3    0    0  0.43656079278E+01  0.54134663006E+02  0.92284255882E+01  0.55088874653E+02  0.51100000000E-03 0.  1.
         23    2    1    0    0    0  0.14343251813E+02  0.15950235107E+02  0.19651374627E+02  0.95908499570E+02  0.91389960568E+02 0.  0.
         11    1    3    3    0    0  0.99776438850E+01 -0.38184427899E+02  0.10422949039E+02  0.40819624918E+02  0.51100000000E-03 0. -1.
         22    1    1    0    0    0 -0.14343251813E+02 -0.15950235107E+02 -0.19651374627E+02  0.29091500430E+02  0.00000000000E+00 0.  1.
</event>
<event>
 5    1  0.8902899E-005  0.9118800E+02  0.7818608E-02  0.1130116E+00
         25   -1    0    0    0    0  0.00000000000E+00  0.00000000000E+00  0.99999998245E-14  0.12500000000E+03  0.12500000000E+03 0.  0.
        -11    1    3    3    0    0  0.35661381633E+02 -0.23131459077E+02  0.84620513837E+01  0.43340568211E+02  0.51100000000E-03 0. -1.
         23    2    1    0    0    0  0.62111172170E+01 -0.12897646196E+01 -0.28736362693E+02  0.95571782068E+02  0.90928243780E+02 0.  0.
         11    1    3    3    0    0 -0.29450264416E+02  0.21841694457E+02 -0.37198414076E+02  0.52231213857E+02  0.51100000000E-03 0.  1.
         22    1    1    0    0    0 -0.62111172170E+01  0.12897646196E+01  0.28736362693E+02  0.29428217932E+02  0.00000000000E+00 0. -1.
</event>
<event>
 5    1  0.8902899E-005  0.9118800E+02  0.7818608E-02  0.1130116E+00
         25   -1    0    0    0    0  0.00000000000E+00  0.00000000000E+00  0.99999998245E-14  0.12500000000E+03  0.12500000000E+03 0.  0.
        -11    1    3    3    0    0 -0.81703217572E+01 -0.13687631392E+02  0.58779672647E+02  0.60902835135E+02  0.51100000000E-03 0.  1.
         23    2    1    0    0    0 -0.43116473970E+01 -0.15770020832E+02  0.23982876928E+02  0.95974799810E+02  0.91480598777E+02 0.  0.
         11    1    3    3    0    0  0.38586743601E+01 -0.20823894400E+01 -0.34796795719E+02  0.35071964675E+02  0.51100000000E-03 0. -1.
         22    1    1    0    0    0  0.43116473970E+01  0.15770020832E+02 -0.23982876928E+02  0.29025200190E+02  0.00000000000E+00 0.  1.
</event>
<event>
 5    1  0.8902899E-005  0.9118800E+02  0.7818608E-02  0.1130116E+00
         25   -1    0    0    0    0  0.00000000000E+00  0.00000000000E+00  0.99999998245E-14  0.12500000000E+03  0.12500000000E+03 0.  0.
        -11    1    3    3    0    0  0.19934297650E+02  0.30575427989E+02  0.89222723234E+01  0.37574458921E+02  0.51100000000E-03 0.  1.
         23    2    1    0    0    0  0.12783623844E+02 -0.25893178731E+02 -0.37297117827E+01  0.95883192253E+02  0.91355339545E+02 0.  0.
         11    1    3    3    0    0 -0.71506738062E+01 -0.56468606720E+02 -0.12651984106E+02  0.58308733333E+02  0.51100000000E-03 0. -1.
         22    1    1    0    0    0 -0.12783623844E+02  0.25893178731E+02  0.37297117827E+01  0.29116807747E+02  0.00000000000E+00 0. -1.
</event>
<event>
 5    1  0.8902899E-005  0.9118800E+02  0.7818608E-02  0.1130116E+00
         25   -1    0    0    0    0  0.00000000000E+00  0.00000000000E+00  0.99999998245E-14  0.12500000000E+03  0.12500000000E+03 0.  0.
        -11    1    3    3    0    0  0.47317352226E+00 -0.44076893323E+02 -0.43626720983E+02  0.62018442436E+02  0.51100000000E-03 0.  1.
         23    2    1    0    0    0 -0.52022857580E+01 -0.19523854508E+02 -0.20320571050E+02  0.96343931188E+02  0.91983600695E+02 0.  0.
         11    1    3    3    0    0 -0.56754592802E+01  0.24553038815E+02  0.23306149933E+02  0.34325488751E+02  0.51100000000E-03 0. -1.
         22    1    1    0    0    0  0.52022857580E+01  0.19523854508E+02  0.20320571050E+02  0.28656068812E+02  0.00000000000E+00 0.  1.
</event>
<event>
 5    1  0.8902899E-005  0.9118800E+02  0.7818608E-02  0.1130116E+00
         25   -1    0    0    0    0  0.00000000000E+00  0.00000000000E+00  0.99999998245E-14  0.12500000000E+03  0.12500000000E+03 0.  0.
        -11    1    3    3    0    0  0.13717316045E+02 -0.42011069317E+02  0.29350531598E+02  0.53052317668E+02  0.51100000000E-03 0.  1.
         23    2    1    0    0    0 -0.25924820884E+01  0.20988372177E+01  0.24436385967E+02  0.10033701072E+03  0.97258689485E+02 0.  0.
         11    1    3    3    0    0 -0.16309798133E+02  0.44109906534E+02 -0.49141456313E+01  0.47284693053E+02  0.51100000000E-03 0. -1.
         22    1    1    0    0    0  0.25924820884E+01 -0.20988372177E+01 -0.24436385967E+02  0.24662989279E+02  0.00000000000E+00 0.  1.
</event>
<event>
 5    1  0.8902899E-005  0.9118800E+02  0.7818608E-02  0.1130116E+00
         25   -1    0    0    0    0  0.00000000000E+00  0.00000000000E+00  0.99999998245E-14  0.12500000000E+03  0.12500000000E+03 0.  0.
        -11    1    3    3    0    0 -0.28723479365E+02 -0.33854060910E+02  0.41689486025E+02  0.60902782795E+02  0.51100000000E-03 0.  1.
         23    2    1    0    0    0 -0.72017672510E+01 -0.23179815943E+02  0.16897427354E+02  0.95424801440E+02  0.90725962987E+02 0.  0.
         11    1    3    3    0    0  0.21521712114E+02  0.10674244967E+02 -0.24792058671E+02  0.34522018645E+02  0.51100000000E-03 0. -1.
         22    1    1    0    0    0  0.72017672510E+01  0.23179815943E+02 -0.16897427354E+02  0.29575198560E+02  0.00000000000E+00 0.  1.
</event>
<event>
 5    1  0.8902899E-005  0.9118800E+02  0.7818608E-02  0.1130116E+00
         25   -1    0    0    0    0  0.00000000000E+00  0.00000000000E+00  0.99999998245E-14  0.12500000000E+03  0.12500000000E+03 0.  0.
        -11    1    3    3    0    0  0.66122409560E+01 -0.19381287132E+02 -0.29815102355E+02  0.36170379457E+02  0.51100000000E-03 0.  1.
         23    2    1    0    0    0 -0.82076356465E+01  0.25488460037E+02  0.83924304906E+01  0.96938286447E+02  0.92787777276E+02 0.  0.
         11    1    3    3    0    0 -0.14819876602E+02  0.44869747169E+02  0.38207532846E+02  0.60767906990E+02  0.51100000000E-03 0. -1.
         22    1    1    0    0    0  0.82076356465E+01 -0.25488460037E+02 -0.83924304906E+01  0.28061713553E+02  0.00000000000E+00 0. -1.
</event>
<event>
 5    1  0.8902899E-005  0.9118800E+02  0.7818608E-02  0.1130116E+00
         25   -1    0    0    0    0  0.00000000000E+00  0.00000000000E+00  0.99999998245E-14  0.12500000000E+03  0.12500000000E+03 0.  0.
        -11    1    3    3    0    0 -0.16325483077E+02  0.13519844462E+02  0.37815469406E+02  0.43351093627E+02  0.51100000000E-03 0. -1.
         23    2    1    0    0    0 -0.12166340691E+02  0.20241074334E+02 -0.15175546900E+02  0.96928338850E+02  0.92774375301E+02 0.  0.
         11    1    3    3    0    0  0.41591423857E+01  0.67212298719E+01 -0.52991016306E+02  0.53577245223E+02  0.51100000000E-03 0.  1.
         22    1    1    0    0    0  0.12166340691E+02 -0.20241074334E+02  0.15175546900E+02  0.28071661150E+02  0.00000000000E+00 0.  1.
</event>
<event>
 5    1  0.8902899E-005  0.9118800E+02  0.7818608E-02  0.1130116E+00
         25   -1    0    0    0    0  0.00000000000E+00  0.00000000000E+00  0.99999998245E-14  0.12500000000E+03  0.12500000000E+03 0.  0.
        -11    1    3    3    0    0 -0.91683800808E+01 -0.24668815753E+02 -0.25232418144E+02  0.36459355310E+02  0.51100000000E-03 0. -1.
         23    2    1    0    0    0  0.25093269451E+02  0.15829370322E+02  0.29694915196E+00  0.95329655962E+02  0.90594779047E+02 0.  0.
         11    1    3    3    0    0  0.34261649532E+02  0.40498186075E+02  0.25529367296E+02  0.58870300652E+02  0.51100000000E-03 0.  1.
         22    1    1    0    0    0 -0.25093269451E+02 -0.15829370322E+02 -0.29694915196E+00  0.29670344038E+02  0.00000000000E+00 0.  1.
</event>
<event>
 5    1  0.8902899E-005  0.9118800E+02  0.7818608E-02  0.1130116E+00
         25   -1    0    0    0    0  0.00000000000E+00  0.00000000000E+00  0.99999998245E-14  0.12500000000E+03  0.12500000000E+03 0.  0.
        -11    1    3    3    0    0  0.32004794138E+02  0.45631220712E+02 -0.94661545185E+01  0.56534266009E+02  0.51100000000E-03 0.  1.
         23    2    1    0    0    0  0.18805894560E+02  0.95535049206E+01 -0.19537243545E+02  0.96248738953E+02  0.91854149270E+02 0.  0.
         11    1    3    3    0    0 -0.13198899578E+02 -0.36077715792E+02 -0.10071089026E+02  0.39714472944E+02  0.51100000000E-03 0. -1.
         22    1    1    0    0    0 -0.18805894560E+02 -0.95535049206E+01  0.19537243545E+02  0.28751261047E+02  0.00000000000E+00 0.  1.
</event>
<event>
 5    1  0.8902899E-005  0.9118800E+02  0.7818608E-02  0.1130116E+00
         25   -1    0    0    0    0  0.00000000000E+00  0.00000000000E+00  0.99999998245E-14  0.12500000000E+03  0.12500000000E+03 0.  0.
        -11    1    3    3    0    0 -0.49365866034E+01  0.14359135915E+01  0.36316804206E+02  0.36678904061E+02  0.51100000000E-03 0.  1.
         23    2    1    0    0    0  0.22171299342E+00  0.37630237274E+02  0.12339040439E+01  0.87348885367E+02  0.78817646132E+02 0.  0.
         11    1    3    3    0    0  0.51582995968E+01  0.36194323682E+02 -0.35082900162E+02  0.50669981306E+02  0.51100000000E-03 0. -1.
         22    1    1    0    0    0 -0.22171299342E+00 -0.37630237274E+02 -0.12339040439E+01  0.37651114633E+02  0.00000000000E+00 0. -1.
</event>
<event>
 5    1  0.8902899E-005  0.9118800E+02  0.7818608E-02  0.1130116E+00
         25   -1    0    0    0    0  0.00000000000E+00  0.00000000000E+00  0.99999998245E-14  0.12500000000E+03  0.12500000000E+03 0.  0.
        -11    1    3    3    0    0 -0.19216045366E+02 -0.35578151051E+02 -0.22684825952E+02  0.46364453630E+02  0.51100000000E-03 0.  1.
         23    2    1    0    0    0  0.15738194389E+01  0.17488208457E+02 -0.10144681652E+02  0.10472122024E+03  0.10273901431E+03 0.  0.
         11    1    3    3    0    0  0.20789864805E+02  0.53066359508E+02  0.12540144300E+02  0.58356766612E+02  0.51100000000E-03 0. -1.
         22    1    1    0    0    0 -0.15738194389E+01 -0.17488208457E+02  0.10144681652E+02  0.20278779758E+02  0.00000000000E+00 0. -1.
</event>
<event>
 5    1  0.8902899E-005  0.9118800E+02  0.7818608E-02  0.1130116E+00
         25   -1    0    0    0    0  0.00000000000E+00  0.00000000000E+00  0.99999998245E-14  0.12500000000E+03  0.12500000000E+03 0.  0.
        -11    1    3    3    0    0 -0.89094905398E+01 -0.36381805768E+02  0.12849232010E+02  0.39599464341E+02  0.51100000000E-03 0.  1.
         23    2    1    0    0    0 -0.23393234032E+02  0.16842993565E+02  0.28428223709E+00  0.96172744718E+02  0.91750674000E+02 0.  0.
         11    1    3    3    0    0 -0.14483743492E+02  0.53224799333E+02 -0.12564949773E+02  0.56573280377E+02  0.51100000000E-03 0. -1.
         22    1    1    0    0    0  0.23393234032E+02 -0.16842993565E+02 -0.28428223709E+00  0.28827255282E+02  0.00000000000E+00 0. -1.
</event>
<event>
 5    1  0.8902899E-005  0.9118800E+02  0.7818608E-02  0.1130116E+00
         25   -1    0    0    0    0  0.00000000000E+00  0.00000000000E+00  0.99999998245E-14  0.12500000000E+03  0.12500000000E+03 0.  0.
        -11    1    3    3    0    0 -0.18912653756E+02 -0.26767776814E+02  0.89972901087E+01  0.33987550326E+02  0.51100000000E-03 0. -1.
         23    2    1    0    0    0  0.15193597436E+02  0.24118841846E+02 -0.27473937751E+01  0.96362400457E+02  0.92008695862E+02 0.  0.
         11    1    3    3    0    0  0.34106251192E+02  0.50886618660E+02 -0.11744683884E+02  0.62374850130E+02  0.51100000000E-03 0.  1.
         22    1    1    0    0    0 -0.15193597436E+02 -0.24118841846E+02  0.27473937751E+01  0.28637599543E+02  0.00000000000E+00 0.  1.
</event>
<event>
 5    1  0.8902899E-005  0.9118800E+02  0.7818608E-02  0.1130116E+00
         25   -1    0    0    0    0  0.00000000000E+00  0.00000000000E+00  0.99999998245E-14  0.12500000000E+03  0.12500000000E+03 0.  0.
        -11    1    3    3    0    0  0.17798428514E+02 -0.13478032246E+02 -0.27390912414E+02  0.35336998938E+02  0.51100000000E-03 0. -1.
         23    2    1    0    0    0 -0.14958328363E+02  0.10647159649E+00  0.23366715252E+02  0.97255337355E+02  0.93213917087E+02 0.  0.
         11    1    3    3    0    0 -0.32756756877E+02  0.13584503842E+02  0.50757627666E+02  0.61918338417E+02  0.51100000000E-03 0.  1.
         22    1    1    0    0    0  0.14958328363E+02 -0.10647159649E+00 -0.23366715252E+02  0.27744662645E+02  0.00000000000E+00 0.  1.
</event>
<event>
 5    1  0.8902899E-005  0.9118800E+02  0.7818608E-02  0.1130116E+00
         25   -1    0    0    0    0  0.00000000000E+00  0.00000000000E+00  0.99999998245E-14  0.12500000000E+03  0.12500000000E+03 0.  0.
        -11    1    3    3    0    0  0.26862712652E+02 -0.39528474596E+02  0.40068171239E+02  0.62366368994E+02  0.51100000000E-03 0.  1.
         23    2    1    0    0    0  0.17080757911E+02 -0.21230844089E+02  0.20337744802E+02  0.90998163356E+02  0.84406995202E+02 0.  0.
         11    1    3    3    0    0 -0.97819547405E+01  0.18297630507E+02 -0.19730426437E+02  0.28631794361E+02  0.51100000000E-03 0. -1.
         22    1    1    0    0    0 -0.17080757911E+02  0.21230844089E+02 -0.20337744802E+02  0.34001836644E+02  0.00000000000E+00 0.  1.
</event>
<event>
 4    1  0.8902899E-005  0.9118800E+02  0.7818608E-02  0.1130116E+00
         25   -1    0    0    0    0  0.00000000000E+00  0.00000000000E+00  0.99999998245E-14  0.12500000000E+03  0.12500000000E+03 0.  0.
        -11    1    1    0    0    0 -0.97887332489E+01 -0.36059925994E+01 -0.51812099516E+01  0.11647635729E+02  0.51100000000E-03 0.  1.
         11    1    1    0    0    0  0.57648387303E+02  0.20051918014E+02 -0.66019870952E+01  0.61392199900E+02  0.51100000000E-03 0. -1.
         22    1    1    0    0    0 -0.47859654054E+02 -0.16445925414E+02  0.11783197047E+02  0.51960164372E+02  0.00000000000E+00 0. -1.
</event>
<event>
 5    1  0.8902899E-005  0.9118800E+02  0.7818608E-02  0.1130116E+00
         25   -1    0    0    0    0  0.00000000000E+00  0.00000000000E+00  0.99999998245E-14  0.12500000000E+03  0.12500000000E+03 0.  0.
        -11    1    3    3    0    0  0.11458377189E+02  0.33276632365E+02  0.12500120691E+02  0.37348114904E+02  0.51100000000E-03 0. -1.
         23    2    1    0    0    0  0.85889755741E+00 -0.15360825767E+02 -0.22172821244E+02  0.98012471859E+02  0.94223765392E+02 0.  0.
         11    1    3    3    0    0 -0.10599479631E+02 -0.48637458132E+02 -0.34672941935E+02  0.60664356954E+02  0.51100000000E-03 0.  1.
         22    1    1    0    0    0 -0.85889755741E+00  0.15360825767E+02  0.22172821244E+02  0.26987528141E+02  0.00000000000E+00 0.  1.
</event>
<event>
 5    1  0.8902899E-005  0.9118800E+02  0.7818608E-02  0.1130116E+00
         25   -1    0    0    0    0  0.00000000000E+00  0.00000000000E+00  0.99999998245E-14  0.12500000000E+03  0.12500000000E+03 0.  0.
        -11    1    3    3    0    0 -0.37512570478E+02  0.56084611890E+01  0.35842449570E+01  0.38098485441E+02  0.51100000000E-03 0. -1.
         23    2    1    0    0    0  0.17631726713E+02  0.22318423081E+02  0.66134321985E+01  0.95798505499E+02  0.91239390477E+02 0.  0.
         11    1    3    3    0    0  0.55144297190E+02  0.16709961892E+02  0.30291872415E+01  0.57700020057E+02  0.51100000000E-03 0.  1.
         22    1    1    0    0    0 -0.17631726713E+02 -0.22318423081E+02 -0.66134321985E+01  0.29201494501E+02  0.00000000000E+00 0.  1.
</event>
<event>
 5    1  0.8902899E-005  0.9118800E+02  0.7818608E-02  0.1130116E+00
         25   -1    0    0    0    0  0.00000000000E+00  0.00000000000E+00  0.99999998245E-14  0.12500000000E+03  0.12500000000E+03 0.  0.
        -11    1    3    3    0    0 -0.25002351301E+01  0.20243561685E+01 -0.35254227726E+02  0.35400702909E+02  0.51100000000E-03 0.  1.
         23    2    1    0    0    0  0.20962291813E+02 -0.32827286882E+01  0.20110819186E+02  0.95765790005E+02  0.91194558507E+02 0.  0.
         11    1    3    3    0    0  0.23462526943E+02 -0.53070848568E+01  0.55365046913E+02  0.60365087096E+02  0.51100000000E-03 0. -1.
         22    1    1    0    0    0 -0.20962291813E+02  0.32827286882E+01 -0.20110819186E+02  0.29234209995E+02  0.00000000000E+00 0. -1.
</event>
<event>
 5    1  0.8902899E-005  0.9118800E+02  0.7818608E-02  0.1130116E+00
         25   -1    0    0    0    0  0.00000000000E+00  0.00000000000E+00  0.99999998245E-14  0.12500000000E+03  0.12500000000E+03 0.  0.
        -11    1    3    3    0    0  0.54940635652E-01 -0.13562063511E+01 -0.41449531710E+02  0.41471749341E+02  0.51100000000E-03 0.  1.
         23    2    1    0    0    0  0.21579160055E+02 -0.19365140918E+02  0.48401994719E+01  0.95604483975E+02  0.90973188323E+02 0.  0.
         11    1    3    3    0    0  0.21524219419E+02 -0.18008934567E+02  0.46289731182E+02  0.54132734634E+02  0.51100000000E-03 0. -1.
         22    1    1    0    0    0 -0.21579160055E+02  0.19365140918E+02 -0.48401994719E+01  0.29395516025E+02  0.00000000000E+00 0. -1.
</event>
<event>
 5    1  0.8902899E-005  0.9118800E+02  0.7818608E-02  0.1130116E+00
         25   -1    0    0    0    0  0.00000000000E+00  0.00000000000E+00  0.99999998245E-14  0.12500000000E+03  0.12500000000E+03 0.  0.
        -11    1    3    3    0    0 -0.22883602511E+02 -0.33989487164E+02 -0.14444364889E+02  0.43446336772E+02  0.51100000000E-03 0.  1.
         23    2    1    0    0    0 -0.16593799121E+02  0.19038030327E+02  0.28705930537E+01  0.99582661971E+02  0.96284295151E+02 0.  0.
         11    1    3    3    0    0  0.62898033895E+01  0.53027517492E+02  0.17314957943E+02  0.56136325199E+02  0.51100000000E-03 0. -1.
         22    1    1    0    0    0  0.16593799121E+02 -0.19038030327E+02 -0.28705930537E+01  0.25417338029E+02  0.00000000000E+00 0. -1.
</event>
<event>
 5    1  0.8902899E-005  0.9118800E+02  0.7818608E-02  0.1130116E+00
         25   -1    0    0    0    0  0.00000000000E+00  0.00000000000E+00  0.99999998245E-14  0.12500000000E+03  0.12500000000E+03 0.  0.
        -11    1    3    3    0    0 -0.34682445029E+02  0.19379420178E+02  0.18419303151E+02  0.43791604771E+02  0.51100000000E-03 0.  1.
         23    2    1    0    0    0 -0.91636327303E+01  0.11542427620E+02 -0.25709113900E+02  0.95366263521E+02  0.90645275002E+02 0.  0.
         11    1    3    3    0    0  0.25518812298E+02 -0.78369925574E+01 -0.44128417051E+02  0.51574658750E+02  0.51100000000E-03 0. -1.
         22    1    1    0    0    0  0.91636327303E+01 -0.11542427620E+02  0.25709113900E+02  0.29633736479E+02  0.00000000000E+00 0. -1.
</event>
<event>
 5    1  0.8902899E-005  0.9118800E+02  0.7818608E-02  0.1130116E+00
         25   -1    0    0    0    0  0.00000000000E+00  0.00000000000E+00  0.99999998245E-14  0.12500000000E+03  0.12500000000E+03 0.  0.
        -11    1    3    3    0    0  0.11438181895E+02  0.34799965747E+02 -0.97448852592E+01  0.37905572282E+02  0.51100000000E-03 0.  1.
         23    2    1    0    0    0 -0.24974387281E+02 -0.67346529786E+01 -0.17623416034E+02  0.93700473429E+02  0.88318278727E+02 0.  0.
         11    1    3    3    0    0 -0.36412569176E+02 -0.41534618725E+02 -0.78785307751E+01  0.55794901148E+02  0.51100000000E-03 0. -1.
         22    1    1    0    0    0  0.24974387281E+02  0.67346529786E+01  0.17623416034E+02  0.31299526571E+02  0.00000000000E+00 0. -1.
</event>
<event>
 5    1  0.8902899E-005  0.9118800E+02  0.7818608E-02  0.1130116E+00
         25   -1    0    0    0    0  0.00000000000E+00  0.00000000000E+00  0.99999998245E-14  0.12500000000E+03  0.12500000000E+03 0.  0.
        -11    1    3    3    0    0 -0.37088631859E+02 -0.20579646115E+02  0.99428553766E+01  0.43565454441E+02  0.51100000000E-03 0.  1.
         23    2    1    0    0    0  0.14659824298E+02 -0.24859648264E+02  0.47794867405E+01  0.95746691576E+02  0.91168376612E+02 0.  0.
         11    1    3    3    0    0  0.51748456157E+02 -0.42800021495E+01 -0.51633686361E+01  0.52181237135E+02  0.51100000000E-03 0. -1.
         22    1    1    0    0    0 -0.14659824298E+02  0.24859648264E+02 -0.47794867405E+01  0.29253308424E+02  0.00000000000E+00 0.  1.
</event>
<event>
 5    1  0.8902899E-005  0.9118800E+02  0.7818608E-02  0.1130116E+00
         25   -1    0    0    0    0  0.00000000000E+00  0.00000000000E+00  0.99999998245E-14  0.12500000000E+03  0.12500000000E+03 0.  0.
        -11    1    3    3    0    0  0.11669895045E+02 -0.13596237296E+02  0.43932346118E+02  0.47445707442E+02  0.51100000000E-03 0.  1.
         23    2    1    0    0    0 -0.10037962297E+02 -0.27153827110E+02  0.27674949562E+01  0.95918218037E+02  0.91403252181E+02 0.  0.
         11    1    3    3    0    0 -0.21707857342E+02 -0.13557589814E+02 -0.41164851162E+02  0.48472510595E+02  0.51100000000E-03 0. -1.
         22    1    1    0    0    0  0.10037962297E+02  0.27153827110E+02 -0.27674949562E+01  0.29081781963E+02  0.00000000000E+00 0.  1.
</event>
<event>
 5    1  0.8902899E-005  0.9118800E+02  0.7818608E-02  0.1130116E+00
         25   -1    0    0    0    0  0.00000000000E+00  0.00000000000E+00  0.99999998245E-14  0.12500000000E+03  0.12500000000E+03 0.  0.
        -11    1    3    3    0    0  0.13356072276E+02  0.55856033381E+02  0.16114014773E+02  0.59648492052E+02  0.51100000000E-03 0. -1.
         23    2    1    0    0    0  0.15844496165E+02  0.19404835056E+02  0.14129178984E+02  0.96238404407E+02  0.91840084396E+02 0.  0.
         11    1    3    3    0    0  0.24884238891E+01 -0.36451198325E+02 -0.19848357896E+01  0.36589912355E+02  0.51100000000E-03 0.  1.
         22    1    1    0    0    0 -0.15844496165E+02 -0.19404835056E+02 -0.14129178984E+02  0.28761595593E+02  0.00000000000E+00 0. -1.
</event>
<event>
 5    1  0.8902899E-005  0.9118800E+02  0.7818608E-02  0.1130116E+00
         25   -1    0    0    0    0  0.00000000000E+00  0.00000000000E+00  0.99999998245E-14  0.12500000000E+03  0.12500000000E+03 0.  0.
        -11    1    3    3    0    0 -0.22163420052E+02 -0.18062236745E+02 -0.36386404446E+02  0.46275609271E+02  0.51100000000E-03 0. -1.
         23    2    1    0    0    0  0.50369195620E+00 -0.26224472093E+02  0.86752291224E+01  0.97373269421E+02  0.93371930232E+02 0.  0.
         11    1    3    3    0    0  0.22667112008E+02 -0.81622353481E+01  0.45061633569E+02  0.51097660150E+02  0.51100000000E-03 0.  1.
         22    1    1    0    0    0 -0.50369195620E+00  0.26224472093E+02 -0.86752291224E+01  0.27626730579E+02  0.00000000000E+00 0.  1.
</event>
<event>
 5    1  0.8902899E-005  0.9118800E+02  0.7818608E-02  0.1130116E+00
         25   -1    0    0    0    0  0.00000000000E+00  0.00000000000E+00  0.99999998245E-14  0.12500000000E+03  0.12500000000E+03 0.  0.
        -11    1    3    3    0    0 -0.17932715414E+02 -0.19984227241E+02 -0.32688339114E+02  0.42302235577E+02  0.51100000000E-03 0. -1.
         23    2    1    0    0    0  0.14621264047E+02 -0.22381896215E+02 -0.41062485738E+02  0.76001445170E+02  0.58097859620E+02 0.  0.
         11    1    3    3    0    0  0.32553979460E+02 -0.23976689738E+01 -0.83741466236E+01  0.33699209592E+02  0.51100000000E-03 0.  1.
         22    1    1    0    0    0 -0.14621264047E+02  0.22381896215E+02  0.41062485738E+02  0.48998554830E+02  0.00000000000E+00 0.  1.
</event>
<event>
 5    1  0.8902899E-005  0.9118800E+02  0.7818608E-02  0.1130116E+00
         25   -1    0    0    0    0  0.00000000000E+00  0.00000000000E+00  0.99999998245E-14  0.12500000000E+03  0.12500000000E+03 0.  0.
        -11    1    3    3    0    0 -0.15036106671E+02  0.33942483295E+02  0.32690729708E+02  0.49465750628E+02  0.51100000000E-03 0.  1.
         23    2    1    0    0    0 -0.28743987753E+02  0.37015578237E+01  0.60260998431E-01  0.96018592276E+02  0.91540417680E+02 0.  0.
         11    1    3    3    0    0 -0.13707881082E+02 -0.30240925472E+02 -0.32630468709E+02  0.46552841649E+02  0.51100000000E-03 0. -1.
         22    1    1    0    0    0  0.28743987753E+02 -0.37015578237E+01 -0.60260998431E-01  0.28981407724E+02  0.00000000000E+00 0.  1.
</event>
<event>
 5    1  0.8902899E-005  0.9118800E+02  0.7818608E-02  0.1130116E+00
         25   -1    0    0    0    0  0.00000000000E+00  0.00000000000E+00  0.99999998245E-14  0.12500000000E+03  0.12500000000E+03 0.  0.
        -11    1    3    3    0    0 -0.14506905572E+02 -0.19147306050E+02 -0.38738140258E+02  0.45581938848E+02  0.51100000000E-03 0. -1.
         23    2    1    0    0    0  0.13629575376E+02  0.17428378470E+02 -0.19245479016E+02  0.95675911547E+02  0.91071279154E+02 0.  0.
         11    1    3    3    0    0  0.28136480948E+02  0.36575684520E+02  0.19492661241E+02  0.50093972699E+02  0.51100000000E-03 0.  1.
         22    1    1    0    0    0 -0.13629575376E+02 -0.17428378470E+02  0.19245479016E+02  0.29324088453E+02  0.00000000000E+00 0.  1.
</event>
<event>
 4    1  0.8902899E-005  0.9118800E+02  0.7818608E-02  0.1130116E+00
         25   -1    0    0    0    0  0.00000000000E+00  0.00000000000E+00  0.99999998245E-14  0.12500000000E+03  0.12500000000E+03 0.  0.
        -11    1    1    0    0    0  0.57698809620E+02 -0.54509721395E+01  0.14839387403E+01  0.57974716931E+02  0.51100000000E-03 0. -1.
         11    1    1    0    0    0 -0.25572817948E+01  0.45612718643E+01 -0.99404509904E+01  0.11231983678E+02  0.51100000000E-03 0.  1.
         22    1    1    0    0    0 -0.55141527825E+02  0.88970027519E+00  0.84565122500E+01  0.55793299391E+02  0.00000000000E+00 0. -1.
</event>
<event>
 5    1  0.8902899E-005  0.9118800E+02  0.7818608E-02  0.1130116E+00
         25   -1    0    0    0    0  0.00000000000E+00  0.00000000000E+00  0.99999998245E-14  0.12500000000E+03  0.12500000000E+03 0.  0.
        -11    1    3    3    0    0 -0.36932217303E+02 -0.11625126429E+02 -0.96243579162E+01  0.39896873373E+02  0.51100000000E-03 0.  1.
         23    2    1    0    0    0  0.27497655777E+01  0.91054051908E+00  0.28510845002E+02  0.96342390583E+02  0.91981507085E+02 0.  0.
         11    1    3    3    0    0  0.39681982881E+02  0.12535666948E+02  0.38135202918E+02  0.56445517210E+02  0.51100000000E-03 0. -1.
         22    1    1    0    0    0 -0.27497655777E+01 -0.91054051908E+00 -0.28510845002E+02  0.28657609417E+02  0.00000000000E+00 0. -1.
</event>
<event>
 5    1  0.8902899E-005  0.9118800E+02  0.7818608E-02  0.1130116E+00
         25   -1    0    0    0    0  0.00000000000E+00  0.00000000000E+00  0.99999998245E-14  0.12500000000E+03  0.12500000000E+03 0.  0.
        -11    1    3    3    0    0  0.13469071133E+02 -0.42878495533E+02 -0.12584058084E+02  0.46672687671E+02  0.51100000000E-03 0.  1.
         23    2    1    0    0    0  0.31024589406E+02 -0.22553487828E+02  0.13718711550E+02  0.84264413499E+02  0.73763835141E+02 0.  0.
         11    1    3    3    0    0  0.17555518273E+02  0.20325007705E+02  0.26302769634E+02  0.37591725827E+02  0.51100000000E-03 0. -1.
         22    1    1    0    0    0 -0.31024589406E+02  0.22553487828E+02 -0.13718711550E+02  0.40735586501E+02  0.00000000000E+00 0.  1.
</event>
<event>
 5    1  0.8902899E-005  0.9118800E+02  0.7818608E-02  0.1130116E+00
         25   -1    0    0    0    0  0.00000000000E+00  0.00000000000E+00  0.99999998245E-14  0.12500000000E+03  0.12500000000E+03 0.  0.
        -11    1    3    3    0    0  0.32174899893E+02  0.31180474927E+02 -0.77031913591E+01  0.45461911059E+02  0.51100000000E-03 0. -1.
         23    2    1    0    0    0  0.13467899483E+02 -0.12052495372E+02 -0.23685977050E+02  0.95206167249E+02  0.90424232439E+02 0.  0.
         11    1    3    3    0    0 -0.18707000410E+02 -0.43232970299E+02 -0.15982785691E+02  0.49744256190E+02  0.51100000000E-03 0.  1.
         22    1    1    0    0    0 -0.13467899483E+02  0.12052495372E+02  0.23685977050E+02  0.29793832751E+02  0.00000000000E+00 0. -1.
</event>
<event>
 5    1  0.8902899E-005  0.9118800E+02  0.7818608E-02  0.1130116E+00
         25   -1    0    0    0    0  0.00000000000E+00  0.00000000000E+00  0.99999998245E-14  0.12500000000E+03  0.12500000000E+03 0.  0.
        -11    1    3    3    0    0  0.11001129683E+01  0.14142863781E+02 -0.30128957709E+02  0.33301425455E+02  0.51100000000E-03 0. -1.
         23    2    1    0    0    0 -0.83721288851E+01 -0.19557171576E+02  0.20896133231E+02  0.95180142754E+02  0.90388249726E+02 0.  0.
         11    1    3    3    0    0 -0.94722418533E+01 -0.33700035358E+02  0.51025090940E+02  0.61878717299E+02  0.51100000000E-03 0.  1.
         22    1    1    0    0    0  0.83721288851E+01  0.19557171576E+02 -0.20896133231E+02  0.29819857246E+02  0.00000000000E+00 0.  1.
</event>
<event>
 5    1  0.8902899E-005  0.9118800E+02  0.7818608E-02  0.1130116E+00
         25   -1    0    0    0    0  0.00000000000E+00  0.00000000000E+00  0.99999998245E-14  0.12500000000E+03  0.12500000000E+03 0.  0.
        -11    1    3    3    0    0  0.33231341083E+02  0.19401980118E+02  0.11692748850E+02  0.40217896994E+02  0.51100000000E-03 0.  1.
         23    2    1    0    0    0  0.31341115414E+01 -0.25975301435E+02  0.15128259756E+02  0.94777439172E+02  0.89829615344E+02 0.  0.
         11    1    3    3    0    0 -0.30097229542E+02 -0.45377281553E+02  0.34355109054E+01  0.54559542178E+02  0.51100000000E-03 0. -1.
         22    1    1    0    0    0 -0.31341115414E+01  0.25975301435E+02 -0.15128259756E+02  0.30222560828E+02  0.00000000000E+00 0. -1.
</event>
<event>
 5    1  0.8902899E-005  0.9118800E+02  0.7818608E-02  0.1130116E+00
         25   -1    0    0    0    0  0.00000000000E+00  0.00000000000E+00  0.99999998245E-14  0.12500000000E+03  0.12500000000E+03 0.  0.
        -11    1    3    3    0    0 -0.43699784063E+02 -0.19820216935E+02  0.26551697892E+00  0.47985233417E+02  0.51100000000E-03 0. -1.
         23    2    1    0    0    0 -0.20332301779E+02  0.18731965187E+02 -0.12235608108E+02  0.94767581619E+02  0.89815897283E+02 0.  0.
         11    1    3    3    0    0  0.23367482284E+02  0.38552182122E+02 -0.12501125087E+02  0.46782348203E+02  0.51100000000E-03 0.  1.
         22    1    1    0    0    0  0.20332301779E+02 -0.18731965187E+02  0.12235608108E+02  0.30232418381E+02  0.00000000000E+00 0. -1.
</event>
<event>
 5    1  0.8902899E-005  0.9118800E+02  0.7818608E-02  0.1130116E+00
         25   -1    0    0    0    0  0.00000000000E+00  0.00000000000E+00  0.99999998245E-14  0.12500000000E+03  0.12500000000E+03 0.  0.
        -11    1    3    3    0    0 -0.32696461674E+02  0.21977359816E+02  0.40735800042E+02  0.56669818738E+02  0.51100000000E-03 0.  1.
         23    2    1    0    0    0 -0.18993194618E+02 -0.85689734303E+01  0.20390740741E+02  0.95846079931E+02  0.91304545247E+02 0.  0.
         11    1    3    3    0    0  0.13703267056E+02 -0.30546333247E+02 -0.20345059301E+02  0.39176261193E+02  0.51100000000E-03 0. -1.
         22    1    1    0    0    0  0.18993194618E+02  0.85689734303E+01 -0.20390740741E+02  0.29153920069E+02  0.00000000000E+00 0.  1.
</event>
<event>
 5    1  0.8902899E-005  0.9118800E+02  0.7818608E-02  0.1130116E+00
         25   -1    0    0    0    0  0.00000000000E+00  0.00000000000E+00  0.99999998245E-14  0.12500000000E+03  0.12500000000E+03 0.  0.
        -11    1    3    3    0    0 -0.10836681905E+02 -0.39423357137E+01  0.52209098895E+02  0.53467426470E+02  0.51100000000E-03 0.  1.
         23    2    1    0    0    0  0.74763080659E+00  0.21179458535E+02  0.21177680170E+02  0.95039650318E+02  0.90193750224E+02 0.  0.
         11    1    3    3    0    0  0.11584312712E+02  0.25121794249E+02 -0.31031418725E+02  0.41572223848E+02  0.51100000000E-03 0. -1.
         22    1    1    0    0    0 -0.74763080659E+00 -0.21179458535E+02 -0.21177680170E+02  0.29960349682E+02  0.00000000000E+00 0.  1.
</event>
<event>
 5    1  0.8902899E-005  0.9118800E+02  0.7818608E-02  0.1130116E+00
         25   -1    0    0    0    0  0.00000000000E+00  0.00000000000E+00  0.99999998245E-14  0.12500000000E+03  0.12500000000E+03 0.  0.
        -11    1    3    3    0    0  0.32320851078E+02  0.26088426653E+02  0.27716041935E+01  0.41628418294E+02  0.51100000000E-03 0. -1.
         23    2    1    0    0    0 -0.84616010280E+01 -0.19657921174E+02 -0.37933291214E+01  0.10326473136E+03  0.10095138851E+03 0.  0.
         11    1    3    3    0    0 -0.40782452106E+02 -0.45746347827E+02 -0.65649333149E+01  0.61636313070E+02  0.51100000000E-03 0.  1.
         22    1    1    0    0    0  0.84616010280E+01  0.19657921174E+02  0.37933291214E+01  0.21735268635E+02  0.00000000000E+00 0.  1.
</event>
<event>
 5    1  0.8902899E-005  0.9118800E+02  0.7818608E-02  0.1130116E+00
         25   -1    0    0    0    0  0.00000000000E+00  0.00000000000E+00  0.99999998245E-14  0.12500000000E+03  0.12500000000E+03 0.  0.
        -11    1    3    3    0    0 -0.23129373986E+02  0.11269498912E+02  0.26472388912E+02  0.36915537673E+02  0.51100000000E-03 0.  1.
         23    2    1    0    0    0  0.27261689952E+02 -0.10304898484E+02  0.77072781953E+01  0.94853809379E+02  0.89935823478E+02 0.  0.
         11    1    3    3    0    0  0.50391063937E+02 -0.21574397396E+02 -0.18765110717E+02  0.57938271706E+02  0.51100000000E-03 0. -1.
         22    1    1    0    0    0 -0.27261689952E+02  0.10304898484E+02 -0.77072781953E+01  0.30146190621E+02  0.00000000000E+00 0. -1.
</event>
<event>
 5    1  0.8902899E-005  0.9118800E+02  0.7818608E-02  0.1130116E+00
         25   -1    0    0    0    0  0.00000000000E+00  0.00000000000E+00  0.99999998245E-14  0.12500000000E+03  0.12500000000E+03 0.  0.
        -11    1    3    3    0    0  0.17646495096E+02  0.72325385138E+01  0.29553404454E+02  0.35172604646E+02  0.51100000000E-03 0.  1.
         23    2    1    0    0    0  0.29043130914E+01 -0.71895758992E+01 -0.27809229683E+02  0.96129975897E+02  0.91692387766E+02 0.  0.
         11    1    3    3    0    0 -0.14742182005E+02 -0.14422114413E+02 -0.57362634137E+02  0.60957371251E+02  0.51100000000E-03 0. -1.
         22    1    1    0    0    0 -0.29043130914E+01  0.71895758992E+01  0.27809229683E+02  0.28870024103E+02  0.00000000000E+00 0. -1.
</event>
<event>
 5    1  0.8902899E-005  0.9118800E+02  0.7818608E-02  0.1130116E+00
         25   -1    0    0    0    0  0.00000000000E+00  0.00000000000E+00  0.99999998245E-14  0.12500000000E+03  0.12500000000E+03 0.  0.
        -11    1    3    3    0    0 -0.30348051445E+02 -0.52830636906E+02  0.25278803095E+01  0.60979263701E+02  0.51100000000E-03 0.  1.
         23    2    1    0    0    0 -0.12386279211E+02 -0.34789011248E+02  0.84500331479E+01  0.87117309011E+02  0.78449520412E+02 0.  0.
         11    1    3    3    0    0  0.17961772234E+02  0.18041625657E+02  0.59221528384E+01  0.26138045310E+02  0.51100000000E-03 0. -1.
         22    1    1    0    0    0  0.12386279211E+02  0.34789011248E+02 -0.84500331479E+01  0.37882690989E+02  0.00000000000E+00 0.  1.
</event>
<event>
 5    1  0.8902899E-005  0.9118800E+02  0.7818608E-02  0.1130116E+00
         25   -1    0    0    0    0  0.00000000000E+00  0.00000000000E+00  0.99999998245E-14  0.12500000000E+03  0.12500000000E+03 0.  0.
        -11    1    3    3    0    0 -0.30307916364E+02  0.28370445164E+02  0.20335205166E+02  0.46227400128E+02  0.51100000000E-03 0.  1.
         23    2    1    0    0    0  0.18039871457E+02  0.16786973076E+02  0.14810605796E+02  0.96249461374E+02  0.91855132374E+02 0.  0.
         11    1    3    3    0    0  0.48347787821E+02 -0.11583472089E+02 -0.55245993702E+01  0.50022061246E+02  0.51100000000E-03 0. -1.
         22    1    1    0    0    0 -0.18039871457E+02 -0.16786973076E+02 -0.14810605796E+02  0.28750538626E+02  0.00000000000E+00 0. -1.
</event>
<event>
 5    1  0.8902899E-005  0.9118800E+02  0.7818608E-02  0.1130116E+00
         25   -1    0    0    0    0  0.00000000000E+00  0.00000000000E+00  0.99999998245E-14  0.12500000000E+03  0.12500000000E+03 0.  0.
        -11    1    3    3    0    0 -0.38696137433E+02  0.10916228151E+02  0.67951207732E+01  0.40776571164E+02  0.51100000000E-03 0. -1.
         23    2    1    0    0    0  0.12262198557E+02  0.32706644070E+01  0.26240079075E+02  0.95852092546E+02  0.91312776414E+02 0.  0.
         11    1    3    3    0    0  0.50958335990E+02 -0.76455637445E+01  0.19444958301E+02  0.55075521382E+02  0.51100000000E-03 0.  1.
         22    1    1    0    0    0 -0.12262198557E+02 -0.32706644070E+01 -0.26240079075E+02  0.29147907454E+02  0.00000000000E+00 0.  1.
</event>
<event>
 5    1  0.8902899E-005  0.9118800E+02  0.7818608E-02  0.1130116E+00
         25   -1    0    0    0    0  0.00000000000E+00  0.00000000000E+00  0.99999998245E-14  0.12500000000E+03  0.12500000000E+03 0.  0.
        -11    1    3    3    0    0  0.12269639204E+02  0.23050065087E+02  0.31915642644E+02  0.41236607430E+02  0.51100000000E-03 0.  1.
         23    2    1    0    0    0 -0.10414092459E+02  0.23015780233E+02 -0.16585266980E+02  0.94779964555E+02  0.89833129406E+02 0.  0.
         11    1    3    3    0    0 -0.22683731664E+02 -0.34284853844E-01 -0.48500909624E+02  0.53543357125E+02  0.51100000000E-03 0. -1.
         22    1    1    0    0    0  0.10414092459E+02 -0.23015780233E+02  0.16585266980E+02  0.30220035445E+02  0.00000000000E+00 0.  1.
</event>
<event>
 5    1  0.8902899E-005  0.9118800E+02  0.7818608E-02  0.1130116E+00
         25   -1    0    0    0    0  0.00000000000E+00  0.00000000000E+00  0.99999998245E-14  0.12500000000E+03  0.12500000000E+03 0.  0.
        -11    1    3    3    0    0 -0.38951981355E+02  0.12108746943E+02 -0.92354813882E+01  0.41823112279E+02  0.51100000000E-03 0.  1.
         23    2    1    0    0    0 -0.56509260526E+01 -0.28657478953E+02  0.22629448877E+01  0.95703157427E+02  0.91108667846E+02 0.  0.
         11    1    3    3    0    0  0.33301055302E+02 -0.40766225896E+02  0.11498426276E+02  0.53880045148E+02  0.51100000000E-03 0. -1.
         22    1    1    0    0    0  0.56509260526E+01  0.28657478953E+02 -0.22629448877E+01  0.29296842573E+02  0.00000000000E+00 0. -1.
</event>
<event>
 5    1  0.8902899E-005  0.9118800E+02  0.7818608E-02  0.1130116E+00
         25   -1    0    0    0    0  0.00000000000E+00  0.00000000000E+00  0.99999998245E-14  0.12500000000E+03  0.12500000000E+03 0.  0.
        -11    1    3    3    0    0 -0.37693488846E+02  0.37655595526E+01  0.65346636232E+01  0.38440608334E+02  0.51100000000E-03 0.  1.
         23    2    1    0    0    0 -0.97497643292E+01 -0.34864386922E+02 -0.72679978071E+01  0.88075656106E+02  0.79961953618E+02 0.  0.
         11    1    3    3    0    0  0.27943724517E+02 -0.38629946474E+02 -0.13802661430E+02  0.49635047772E+02  0.51100000000E-03 0. -1.
         22    1    1    0    0    0  0.97497643292E+01  0.34864386922E+02  0.72679978071E+01  0.36924343894E+02  0.00000000000E+00 0.  1.
</event>
<event>
 5    1  0.8902899E-005  0.9118800E+02  0.7818608E-02  0.1130116E+00
         25   -1    0    0    0    0  0.00000000000E+00  0.00000000000E+00  0.99999998245E-14  0.12500000000E+03  0.12500000000E+03 0.  0.
        -11    1    3    3    0    0 -0.13143018350E+02 -0.17172734460E+02 -0.36826466391E+02  0.42706327017E+02  0.51100000000E-03 0.  1.
         23    2    1    0    0    0  0.15045841255E+02 -0.26134825168E+02  0.55020759222E+01  0.94345811622E+02  0.89226974092E+02 0.  0.
         11    1    3    3    0    0  0.28188859605E+02 -0.89620907084E+01  0.42328542313E+02  0.51639484605E+02  0.51100000000E-03 0. -1.
         22    1    1    0    0    0 -0.15045841255E+02  0.26134825168E+02 -0.55020759222E+01  0.30654188378E+02  0.00000000000E+00 0.  1.
</event>
<event>
 5    1  0.8902899E-005  0.9118800E+02  0.7818608E-02  0.1130116E+00
         25   -1    0    0    0    0  0.00000000000E+00  0.00000000000E+00  0.99999998245E-14  0.12500000000E+03  0.12500000000E+03 0.  0.
        -11    1    3    3    0    0 -0.13699628031E+02  0.56854755208E+02 -0.66916484509E+01  0.58863580907E+02  0.51100000000E-03 0. -1.
         23    2    1    0    0    0 -0.35175943131E+00  0.26467184476E+02  0.10837106255E+02  0.96397929082E+02  0.92056951234E+02 0.  0.
         11    1    3    3    0    0  0.13347868600E+02 -0.30387570731E+02  0.17528754706E+02  0.37534348175E+02  0.51100000000E-03 0.  1.
         22    1    1    0    0    0  0.35175943131E+00 -0.26467184476E+02 -0.10837106255E+02  0.28602070918E+02  0.00000000000E+00 0. -1.
</event>
<event>
 5    1  0.8902899E-005  0.9118800E+02  0.7818608E-02  0.1130116E+00
         25   -1    0    0    0    0  0.00000000000E+00  0.00000000000E+00  0.99999998245E-14  0.12500000000E+03  0.12500000000E+03 0.  0.
        -11    1    3    3    0    0  0.10312376922E+02  0.25604849435E+00  0.46278923726E+02  0.47414654486E+02  0.51100000000E-03 0. -1.
         23    2    1    0    0    0  0.25808751126E+02 -0.15984177931E+02  0.52372736733E+01  0.94193919199E+02  0.89013930369E+02 0.  0.
         11    1    3    3    0    0  0.15496374204E+02 -0.16240226425E+02 -0.41041650052E+02  0.46779264713E+02  0.51100000000E-03 0.  1.
         22    1    1    0    0    0 -0.25808751126E+02  0.15984177931E+02 -0.52372736733E+01  0.30806080801E+02  0.00000000000E+00 0.  1.
</event>
<event>
 5    1  0.8902899E-005  0.9118800E+02  0.7818608E-02  0.1130116E+00
         25   -1    0    0    0    0  0.00000000000E+00  0.00000000000E+00  0.99999998245E-14  0.12500000000E+03  0.12500000000E+03 0.  0.
        -11    1    3    3    0    0  0.17855075804E+02 -0.27785927090E+02  0.31398583548E+02  0.45571180864E+02  0.51100000000E-03 0.  1.
         23    2    1    0    0    0  0.10691849736E+02 -0.16111543291E+02 -0.19055929293E+02  0.97851778710E+02  0.94010343460E+02 0.  0.
         11    1    3    3    0    0 -0.71632260673E+01  0.11674383799E+02 -0.50454512842E+02  0.52280597846E+02  0.51100000000E-03 0. -1.
         22    1    1    0    0    0 -0.10691849736E+02  0.16111543291E+02  0.19055929293E+02  0.27148221290E+02  0.00000000000E+00 0.  1.
</event>
<event>
 5    1  0.8902899E-005  0.9118800E+02  0.7818608E-02  0.1130116E+00
         25   -1    0    0    0    0  0.00000000000E+00  0.00000000000E+00  0.99999998245E-14  0.12500000000E+03  0.12500000000E+03 0.  0.
        -11    1    3    3    0    0 -0.37667994549E+02 -0.52637999856E+01 -0.28171411817E+02  0.47330897389E+02  0.51100000000E-03 0.  1.
         23    2    1    0    0    0 -0.14835443332E+02  0.25255427523E+02  0.15565828507E+01  0.95668277439E+02  0.91060800346E+02 0.  0.
         11    1    3    3    0    0  0.22832551217E+02  0.30519227509E+02  0.29727994668E+02  0.48337380049E+02  0.51100000000E-03 0. -1.
         22    1    1    0    0    0  0.14835443332E+02 -0.25255427523E+02 -0.15565828507E+01  0.29331722561E+02  0.00000000000E+00 0.  1.
</event>
<event>
 5    1  0.8902899E-005  0.9118800E+02  0.7818608E-02  0.1130116E+00
         25   -1    0    0    0    0  0.00000000000E+00  0.00000000000E+00  0.99999998245E-14  0.12500000000E+03  0.12500000000E+03 0.  0.
        -11    1    3    3    0    0 -0.30248286698E+01 -0.30256992962E+02 -0.37949238873E+02  0.48629003104E+02  0.51100000000E-03 0. -1.
         23    2    1    0    0    0 -0.23418930049E+02  0.63589852550E+01 -0.11952124994E+02  0.97949375793E+02  0.94140023095E+02 0.  0.
         11    1    3    3    0    0 -0.20394101379E+02  0.36615978217E+02  0.25997113879E+02  0.49320372689E+02  0.51100000000E-03 0.  1.
         22    1    1    0    0    0  0.23418930049E+02 -0.63589852550E+01  0.11952124994E+02  0.27050624207E+02  0.00000000000E+00 0.  1.
</event>
<event>
 5    1  0.8902899E-005  0.9118800E+02  0.7818608E-02  0.1130116E+00
         25   -1    0    0    0    0  0.00000000000E+00  0.00000000000E+00  0.99999998245E-14  0.12500000000E+03  0.12500000000E+03 0.  0.
        -11    1    3    3    0    0  0.37313209632E+02 -0.14418379600E+02  0.28700819025E+02  0.49233142254E+02  0.51100000000E-03 0. -1.
         23    2    1    0    0    0  0.40981868023E+02 -0.68308314714E+01 -0.42418167471E+01  0.83236777249E+02  0.72001349378E+02 0.  0.
         11    1    3    3    0    0  0.36686583913E+01  0.75875481285E+01 -0.32942635772E+02  0.34003634995E+02  0.51100000000E-03 0.  1.
         22    1    1    0    0    0 -0.40981868023E+02  0.68308314714E+01  0.42418167471E+01  0.41763222751E+02  0.00000000000E+00 0. -1.
</event>
<event>
 5    1  0.8902899E-005  0.9118800E+02  0.7818608E-02  0.1130116E+00
         25   -1    0    0    0    0  0.00000000000E+00  0.00000000000E+00  0.99999998245E-14  0.12500000000E+03  0.12500000000E+03 0.  0.
        -11    1    3    3    0    0  0.35245126540E+02 -0.70437412727E-02  0.32652602184E+02  0.48045930359E+02  0.51100000000E-03 0. -1.
         23    2    1    0    0    0  0.24419760736E+02  0.10805720446E+02 -0.12350222771E+02  0.95578641920E+02  0.90937673602E+02 0.  0.
         11    1    3    3    0    0 -0.10825365805E+02  0.10812764188E+02 -0.45002824955E+02  0.47532711561E+02  0.51100000000E-03 0.  1.
         22    1    1    0    0    0 -0.24419760736E+02 -0.10805720446E+02  0.12350222771E+02  0.29421358080E+02  0.00000000000E+00 0.  1.
</event>
<event>
 5    1  0.8902899E-005  0.9118800E+02  0.7818608E-02  0.1130116E+00
         25   -1    0    0    0    0  0.00000000000E+00  0.00000000000E+00  0.99999998245E-14  0.12500000000E+03  0.12500000000E+03 0.  0.
        -11    1    3    3    0    0 -0.39708278523E+02 -0.38189920088E+02  0.92629590441E+01  0.55866088016E+02  0.51100000000E-03 0. -1.
         23    2    1    0    0    0 -0.16313631845E+02 -0.16716071842E+02 -0.16203980975E+02  0.96572361314E+02  0.92293501010E+02 0.  0.
         11    1    3    3    0    0  0.23394646678E+02  0.21473848246E+02 -0.25466940019E+02  0.40706273299E+02  0.51100000000E-03 0.  1.
         22    1    1    0    0    0  0.16313631845E+02  0.16716071842E+02  0.16203980975E+02  0.28427638686E+02  0.00000000000E+00 0. -1.
</event>
<event>
 5    1  0.8902899E-005  0.9118800E+02  0.7818608E-02  0.1130116E+00
         25   -1    0    0    0    0  0.00000000000E+00  0.00000000000E+00  0.99999998245E-14  0.12500000000E+03  0.12500000000E+03 0.  0.
        -11    1    3    3    0    0 -0.53853788464E+01  0.32043048507E+02  0.12774157300E+02  0.34913297724E+02  0.51100000000E-03 0. -1.
         23    2    1    0    0    0 -0.18083726527E+01 -0.14181760958E+02 -0.25983885391E+02  0.95342709909E+02  0.90612788707E+02 0.  0.
         11    1    3    3    0    0  0.35770061937E+01 -0.46224809466E+02 -0.38758042692E+02  0.60429412185E+02  0.51100000000E-03 0.  1.
         22    1    1    0    0    0  0.18083726527E+01  0.14181760958E+02  0.25983885391E+02  0.29657290091E+02  0.00000000000E+00 0.  1.
</event>
<event>
 5    1  0.8902899E-005  0.9118800E+02  0.7818608E-02  0.1130116E+00
         25   -1    0    0    0    0  0.00000000000E+00  0.00000000000E+00  0.99999998245E-14  0.12500000000E+03  0.12500000000E+03 0.  0.
        -11    1    3    3    0    0  0.60821508670E+00 -0.64411670880E+01 -0.39402764811E+02  0.39930394865E+02  0.51100000000E-03 0.  1.
         23    2    1    0    0    0  0.51735576172E+01 -0.27593886119E+02  0.11050657233E+02  0.94828734285E+02  0.89900965352E+02 0.  0.
         11    1    3    3    0    0  0.45653425305E+01 -0.21152719031E+02  0.50453422044E+02  0.54898339420E+02  0.51100000000E-03 0. -1.
         22    1    1    0    0    0 -0.51735576172E+01  0.27593886119E+02 -0.11050657233E+02  0.30171265715E+02  0.00000000000E+00 0. -1.
</event>
<event>
 5    1  0.8902899E-005  0.9118800E+02  0.7818608E-02  0.1130116E+00
         25   -1    0    0    0    0  0.00000000000E+00  0.00000000000E+00  0.99999998245E-14  0.12500000000E+03  0.12500000000E+03 0.  0.
        -11    1    3    3    0    0 -0.15852734103E+02 -0.11437467373E+02  0.28713127568E+02  0.34735695379E+02  0.51100000000E-03 0.  1.
         23    2    1    0    0    0  0.27324970813E+02  0.79990811446E+01 -0.88588285628E+01  0.95181915343E+02  0.90390701047E+02 0.  0.
         11    1    3    3    0    0  0.43177704917E+02  0.19436548517E+02 -0.37571956131E+02  0.60446219964E+02  0.51100000000E-03 0. -1.
         22    1    1    0    0    0 -0.27324970813E+02 -0.79990811446E+01  0.88588285628E+01  0.29818084657E+02  0.00000000000E+00 0. -1.
</event>
<event>
 5    1  0.8902899E-005  0.9118800E+02  0.7818608E-02  0.1130116E+00
         25   -1    0    0    0    0  0.00000000000E+00  0.00000000000E+00  0.99999998245E-14  0.12500000000E+03  0.12500000000E+03 0.  0.
        -11    1    3    3    0    0 -0.17797596988E+02 -0.19190513341E+02  0.27468593573E+02  0.37941453504E+02  0.51100000000E-03 0. -1.
         23    2    1    0    0    0 -0.87205950851E+01  0.86616429993E+01 -0.24495477552E+02  0.97593773361E+02  0.93666660773E+02 0.  0.
         11    1    3    3    0    0  0.90770019029E+01  0.27852156340E+02 -0.51964071124E+02  0.59652319858E+02  0.51100000000E-03 0.  1.
         22    1    1    0    0    0  0.87205950851E+01 -0.86616429993E+01  0.24495477552E+02  0.27406226639E+02  0.00000000000E+00 0.  1.
</event>
<event>
 5    1  0.8902899E-005  0.9118800E+02  0.7818608E-02  0.1130116E+00
         25   -1    0    0    0    0  0.00000000000E+00  0.00000000000E+00  0.99999998245E-14  0.12500000000E+03  0.12500000000E+03 0.  0.
        -11    1    3    3    0    0  0.18086230192E+02  0.35235510469E+02 -0.79814969461E+01  0.40402440698E+02  0.51100000000E-03 0.  1.
         23    2    1    0    0    0  0.81075827563E+01 -0.32286311437E+01  0.29017995340E+02  0.94698168194E+02  0.89719240125E+02 0.  0.
         11    1    3    3    0    0 -0.99786474358E+01 -0.38464141613E+02  0.36999492287E+02  0.54295727496E+02  0.51100000000E-03 0. -1.
         22    1    1    0    0    0 -0.81075827563E+01  0.32286311437E+01 -0.29017995340E+02  0.30301831806E+02  0.00000000000E+00 0. -1.
</event>
<event>
 5    1  0.8902899E-005  0.9118800E+02  0.7818608E-02  0.1130116E+00
         25   -1    0    0    0    0  0.00000000000E+00  0.00000000000E+00  0.99999998245E-14  0.12500000000E+03  0.12500000000E+03 0.  0.
        -11    1    3    3    0    0 -0.46529082416E+02  0.53474804077E+01 -0.34615165154E+02  0.58238824817E+02  0.51100000000E-03 0.  1.
         23    2    1    0    0    0 -0.29702264410E+02 -0.12153607651E+02 -0.24866012432E+02  0.84401314501E+02  0.73995463545E+02 0.  0.
         11    1    3    3    0    0  0.16826818006E+02 -0.17501088058E+02  0.97491527213E+01  0.26162489684E+02  0.51100000000E-03 0. -1.
         22    1    1    0    0    0  0.29702264410E+02  0.12153607651E+02  0.24866012432E+02  0.40598685499E+02  0.00000000000E+00 0.  1.
</event>
<event>
 5    1  0.8902899E-005  0.9118800E+02  0.7818608E-02  0.1130116E+00
         25   -1    0    0    0    0  0.00000000000E+00  0.00000000000E+00  0.99999998245E-14  0.12500000000E+03  0.12500000000E+03 0.  0.
        -11    1    3    3    0    0  0.36241444887E+02  0.32057808907E+02  0.47689087618E+01  0.48619830629E+02  0.51100000000E-03 0. -1.
         23    2    1    0    0    0  0.12160832820E+02  0.54091700009E+01 -0.25920267889E+02  0.95862305129E+02  0.91326755566E+02 0.  0.
         11    1    3    3    0    0 -0.24080612067E+02 -0.26648638906E+02 -0.30689176651E+02  0.47242474499E+02  0.51100000000E-03 0.  1.
         22    1    1    0    0    0 -0.12160832820E+02 -0.54091700009E+01  0.25920267889E+02  0.29137694871E+02  0.00000000000E+00 0.  1.
</event>
<event>
 5    1  0.8902899E-005  0.9118800E+02  0.7818608E-02  0.1130116E+00
         25   -1    0    0    0    0  0.00000000000E+00  0.00000000000E+00  0.99999998245E-14  0.12500000000E+03  0.12500000000E+03 0.  0.
        -11    1    3    3    0    0 -0.95949744591E+01  0.10232009359E+02  0.41081608628E+02  0.43410322714E+02  0.51100000000E-03 0. -1.
         23    2    1    0    0    0  0.81963976798E+01 -0.27081362177E+02  0.10543431558E+02  0.94804883486E+02  0.89867796632E+02 0.  0.
         11    1    3    3    0    0  0.17791372139E+02 -0.37313371536E+02 -0.30538177070E+02  0.51394560772E+02  0.51100000000E-03 0.  1.
         22    1    1    0    0    0 -0.81963976798E+01  0.27081362177E+02 -0.10543431558E+02  0.30195116514E+02  0.00000000000E+00 0.  1.
</event>
<event>
 5    1  0.8902899E-005  0.9118800E+02  0.7818608E-02  0.1130116E+00
         25   -1    0    0    0    0  0.00000000000E+00  0.00000000000E+00  0.99999998245E-14  0.12500000000E+03  0.12500000000E+03 0.  0.
        -11    1    3    3    0    0 -0.45853677063E+02 -0.26585173914E+02  0.31943071353E+02  0.61884497089E+02  0.51100000000E-03 0.  1.
         23    2    1    0    0    0 -0.19843329113E+02 -0.17720197891E+02  0.12133841657E+02  0.95759732612E+02  0.91186255285E+02 0.  0.
         11    1    3    3    0    0  0.26010347950E+02  0.88649760230E+01 -0.19809229695E+02  0.33875235523E+02  0.51100000000E-03 0. -1.
         22    1    1    0    0    0  0.19843329113E+02  0.17720197891E+02 -0.12133841657E+02  0.29240267388E+02  0.00000000000E+00 0.  1.
</event>
<event>
 5    1  0.8902899E-005  0.9118800E+02  0.7818608E-02  0.1130116E+00
         25   -1    0    0    0    0  0.00000000000E+00  0.00000000000E+00  0.99999998245E-14  0.12500000000E+03  0.12500000000E+03 0.  0.
        -11    1    3    3    0    0 -0.51919541701E+02  0.18435140280E+02  0.16198831941E+02  0.57427305040E+02  0.51100000000E-03 0. -1.
         23    2    1    0    0    0 -0.16359456151E+02  0.72575095924E+01  0.23550489760E+02  0.95420804288E+02  0.90720455642E+02 0.  0.
         11    1    3    3    0    0  0.35560085550E+02 -0.11177630688E+02  0.73516578197E+01  0.37993499248E+02  0.51100000000E-03 0.  1.
         22    1    1    0    0    0  0.16359456151E+02 -0.72575095924E+01 -0.23550489760E+02  0.29579195712E+02  0.00000000000E+00 0. -1.
</event>
<event>
 5    1  0.8902899E-005  0.9118800E+02  0.7818608E-02  0.1130116E+00
         25   -1    0    0    0    0  0.00000000000E+00  0.00000000000E+00  0.99999998245E-14  0.12500000000E+03  0.12500000000E+03 0.  0.
        -11    1    3    3    0    0 -0.56309156637E+02  0.94573449720E+01  0.55929647501E+01  0.57371105533E+02  0.51100000000E-03 0. -1.
         23    2    1    0    0    0 -0.23984076853E+02  0.48882158369E+01 -0.15303527102E+02  0.96132569593E+02  0.91695923564E+02 0.  0.
         11    1    3    3    0    0  0.32325079784E+02 -0.45691291351E+01 -0.20896491852E+02  0.38761464060E+02  0.51100000000E-03 0.  1.
         22    1    1    0    0    0  0.23984076853E+02 -0.48882158369E+01  0.15303527102E+02  0.28867430407E+02  0.00000000000E+00 0. -1.
</event>
<event>
 5    1  0.8902899E-005  0.9118800E+02  0.7818608E-02  0.1130116E+00
         25   -1    0    0    0    0  0.00000000000E+00  0.00000000000E+00  0.99999998245E-14  0.12500000000E+03  0.12500000000E+03 0.  0.
        -11    1    3    3    0    0  0.13882871080E+02  0.26328966295E+02 -0.35645164183E+02  0.46438414115E+02  0.51100000000E-03 0. -1.
         23    2    1    0    0    0 -0.12452251224E+02 -0.14814049838E+02 -0.18550065191E+02  0.98192919746E+02  0.94462849504E+02 0.  0.
         11    1    3    3    0    0 -0.26335122304E+02 -0.41143016134E+02  0.17095098992E+02  0.51754505631E+02  0.51100000000E-03 0.  1.
         22    1    1    0    0    0  0.12452251224E+02  0.14814049838E+02  0.18550065191E+02  0.26807080254E+02  0.00000000000E+00 0.  1.
</event>
<event>
 5    1  0.8902899E-005  0.9118800E+02  0.7818608E-02  0.1130116E+00
         25   -1    0    0    0    0  0.00000000000E+00  0.00000000000E+00  0.99999998245E-14  0.12500000000E+03  0.12500000000E+03 0.  0.
        -11    1    3    3    0    0  0.18756078763E+01  0.10374154426E+02 -0.38856788085E+02  0.40261532081E+02  0.51100000000E-03 0.  1.
         23    2    1    0    0    0  0.31236602347E+02 -0.25757580815E+01  0.35670537695E+01  0.93455052252E+02  0.87970239643E+02 0.  0.
         11    1    3    3    0    0  0.29360994470E+02 -0.12949912507E+02  0.42423841854E+02  0.53193520171E+02  0.51100000000E-03 0. -1.
         22    1    1    0    0    0 -0.31236602347E+02  0.25757580815E+01 -0.35670537695E+01  0.31544947748E+02  0.00000000000E+00 0. -1.
</event>
<event>
 5    1  0.8902899E-005  0.9118800E+02  0.7818608E-02  0.1130116E+00
         25   -1    0    0    0    0  0.00000000000E+00  0.00000000000E+00  0.99999998245E-14  0.12500000000E+03  0.12500000000E+03 0.  0.
        -11    1    3    3    0    0 -0.35126937069E+02  0.36619248149E+02 -0.14482485853E+02  0.52769436605E+02  0.51100000000E-03 0.  1.
         23    2    1    0    0    0  0.16377605922E+01  0.19428573806E+02 -0.23621717746E+02  0.94370973095E+02  0.89262216383E+02 0.  0.
         11    1    3    3    0    0  0.36764697661E+02 -0.17190674343E+02 -0.91392318932E+01  0.41601536490E+02  0.51100000000E-03 0. -1.
         22    1    1    0    0    0 -0.16377605922E+01 -0.19428573806E+02  0.23621717746E+02  0.30629026905E+02  0.00000000000E+00 0.  1.
</event>
<event>
 5    1  0.8902899E-005  0.9118800E+02  0.7818608E-02  0.1130116E+00
         25   -1    0    0    0    0  0.00000000000E+00  0.00000000000E+00  0.99999998245E-14  0.12500000000E+03  0.12500000000E+03 0.  0.
        -11    1    3    3    0    0  0.11762525478E+02  0.46394824262E+02 -0.20721063814E+02  0.52155529043E+02  0.51100000000E-03 0.  1.
         23    2    1    0    0    0 -0.50843804426E+01  0.78469646659E+01 -0.28560248880E+02  0.94948151554E+02  0.90066852329E+02 0.  0.
         11    1    3    3    0    0 -0.16846905921E+02 -0.38547859596E+02 -0.78391850660E+01  0.42792622511E+02  0.51100000000E-03 0. -1.
         22    1    1    0    0    0  0.50843804426E+01 -0.78469646659E+01  0.28560248880E+02  0.30051848446E+02  0.00000000000E+00 0. -1.
</event>
<event>
 5    1  0.8902899E-005  0.9118800E+02  0.7818608E-02  0.1130116E+00
         25   -1    0    0    0    0  0.00000000000E+00  0.00000000000E+00  0.99999998245E-14  0.12500000000E+03  0.12500000000E+03 0.  0.
        -11    1    3    3    0    0 -0.41733030179E+02 -0.12671874997E+02  0.34333578801E+02  0.55506908195E+02  0.51100000000E-03 0.  1.
         23    2    1    0    0    0 -0.38178041355E+02 -0.10792959834E+02  0.51191062822E+01  0.84996799218E+02  0.74994665173E+02 0.  0.
         11    1    3    3    0    0  0.35549888236E+01  0.18789151631E+01 -0.29214472519E+02  0.29489891023E+02  0.51100000000E-03 0. -1.
         22    1    1    0    0    0  0.38178041355E+02  0.10792959834E+02 -0.51191062822E+01  0.40003200782E+02  0.00000000000E+00 0.  1.
</event>
<event>
 5    1  0.8902899E-005  0.9118800E+02  0.7818608E-02  0.1130116E+00
         25   -1    0    0    0    0  0.00000000000E+00  0.00000000000E+00  0.99999998245E-14  0.12500000000E+03  0.12500000000E+03 0.  0.
        -11    1    3    3    0    0  0.25699760106E+02 -0.26186715512E+02  0.61859737051E+01  0.37208708789E+02  0.51100000000E-03 0. -1.
         23    2    1    0    0    0  0.41329535646E+01  0.27479627364E+02  0.10700328974E+02  0.95222352924E+02  0.90446604308E+02 0.  0.
         11    1    3    3    0    0 -0.21566806541E+02  0.53666342876E+02  0.45143552689E+01  0.58013644135E+02  0.51100000000E-03 0.  1.
         22    1    1    0    0    0 -0.41329535646E+01 -0.27479627364E+02 -0.10700328974E+02  0.29777647076E+02  0.00000000000E+00 0.  1.
</event>
<event>
 5    1  0.8902899E-005  0.9118800E+02  0.7818608E-02  0.1130116E+00
         25   -1    0    0    0    0  0.00000000000E+00  0.00000000000E+00  0.99999998245E-14  0.12500000000E+03  0.12500000000E+03 0.  0.
        -11    1    3    3    0    0  0.43099242535E+02 -0.85916826359E+01  0.12745772085E+02  0.45758238864E+02  0.51100000000E-03 0.  1.
         23    2    1    0    0    0 -0.48535133149E+01 -0.23783667533E+02  0.15607823840E+02  0.96141316769E+02  0.91707846950E+02 0.  0.
         11    1    3    3    0    0 -0.47952755850E+02 -0.15191984897E+02  0.28620517546E+01  0.50383077905E+02  0.51100000000E-03 0. -1.
         22    1    1    0    0    0  0.48535133149E+01  0.23783667533E+02 -0.15607823840E+02  0.28858683231E+02  0.00000000000E+00 0. -1.
</event>
<event>
 5    1  0.8902899E-005  0.9118800E+02  0.7818608E-02  0.1130116E+00
         25   -1    0    0    0    0  0.00000000000E+00  0.00000000000E+00  0.99999998245E-14  0.12500000000E+03  0.12500000000E+03 0.  0.
        -11    1    3    3    0    0 -0.17774362219E+02  0.27111566799E+02  0.20555228778E+02  0.38385966667E+02  0.51100000000E-03 0. -1.
         23    2    1    0    0    0  0.20856523358E+02 -0.14586509861E+02  0.14897503620E+02  0.95509383685E+02  0.90842423577E+02 0.  0.
         11    1    3    3    0    0  0.38630885577E+02 -0.41698076660E+02 -0.56577251580E+01  0.57123417018E+02  0.51100000000E-03 0.  1.
         22    1    1    0    0    0 -0.20856523358E+02  0.14586509861E+02 -0.14897503620E+02  0.29490616315E+02  0.00000000000E+00 0.  1.
</event>
<event>
 5    1  0.8902899E-005  0.9118800E+02  0.7818608E-02  0.1130116E+00
         25   -1    0    0    0    0  0.00000000000E+00  0.00000000000E+00  0.99999998245E-14  0.12500000000E+03  0.12500000000E+03 0.  0.
        -11    1    3    3    0    0 -0.24003185515E+02 -0.45036967694E+02  0.33119171261E+02  0.60838810633E+02  0.51100000000E-03 0. -1.
         23    2    1    0    0    0 -0.19114746434E+02 -0.16961081811E+02  0.99152100670E+01  0.97588994581E+02  0.93660283179E+02 0.  0.
         11    1    3    3    0    0  0.48884390806E+01  0.28075885884E+02 -0.23203961194E+02  0.36750183947E+02  0.51100000000E-03 0.  1.
         22    1    1    0    0    0  0.19114746434E+02  0.16961081811E+02 -0.99152100670E+01  0.27411005419E+02  0.00000000000E+00 0. -1.
</event>
<event>
 5    1  0.8902899E-005  0.9118800E+02  0.7818608E-02  0.1130116E+00
         25   -1    0    0    0    0  0.00000000000E+00  0.00000000000E+00  0.99999998245E-14  0.12500000000E+03  0.12500000000E+03 0.  0.
        -11    1    3    3    0    0  0.14743587206E+02 -0.93506823561E+01 -0.48978933318E+02  0.51997543533E+02  0.51100000000E-03 0.  1.
         23    2    1    0    0    0 -0.59361926618E+01 -0.25004416050E+02 -0.13427898664E+02  0.96004006003E+02  0.91520497709E+02 0.  0.
         11    1    3    3    0    0 -0.20679779867E+02 -0.15653733694E+02  0.35551034654E+02  0.44006462471E+02  0.51100000000E-03 0. -1.
         22    1    1    0    0    0  0.59361926618E+01  0.25004416050E+02  0.13427898664E+02  0.28995993997E+02  0.00000000000E+00 0.  1.
</event>
<event>
 5    1  0.8902899E-005  0.9118800E+02  0.7818608E-02  0.1130116E+00
         25   -1    0    0    0    0  0.00000000000E+00  0.00000000000E+00  0.99999998245E-14  0.12500000000E+03  0.12500000000E+03 0.  0.
        -11    1    3    3    0    0  0.33016209232E+02 -0.19804085266E+02  0.24880660898E+02  0.45840147822E+02  0.51100000000E-03 0.  1.
         23    2    1    0    0    0  0.22123830152E+02 -0.25058836618E+01 -0.19945550175E+02  0.95107387446E+02  0.90287578667E+02 0.  0.
         11    1    3    3    0    0 -0.10892379080E+02  0.17298201605E+02 -0.44826211073E+02  0.49267239624E+02  0.51100000000E-03 0. -1.
         22    1    1    0    0    0 -0.22123830152E+02  0.25058836618E+01  0.19945550175E+02  0.29892612554E+02  0.00000000000E+00 0. -1.
</event>
<event>
 5    1  0.8902899E-005  0.9118800E+02  0.7818608E-02  0.1130116E+00
         25   -1    0    0    0    0  0.00000000000E+00  0.00000000000E+00  0.99999998245E-14  0.12500000000E+03  0.12500000000E+03 0.  0.
        -11    1    3    3    0    0  0.22944523260E+02  0.51677982296E+02  0.22842606630E+02  0.60982371877E+02  0.51100000000E-03 0.  1.
         23    2    1    0    0    0  0.17496589522E+02  0.22048012972E+02  0.38625658187E+01  0.96589351721E+02  0.92316509521E+02 0.  0.
         11    1    3    3    0    0 -0.54479337384E+01 -0.29629969324E+02 -0.18980040811E+02  0.35606979844E+02  0.51100000000E-03 0. -1.
         22    1    1    0    0    0 -0.17496589522E+02 -0.22048012972E+02 -0.38625658187E+01  0.28410648279E+02  0.00000000000E+00 0.  1.
</event>
<event>
 5    1  0.8902899E-005  0.9118800E+02  0.7818608E-02  0.1130116E+00
         25   -1    0    0    0    0  0.00000000000E+00  0.00000000000E+00  0.99999998245E-14  0.12500000000E+03  0.12500000000E+03 0.  0.
        -11    1    3    3    0    0  0.16248402423E+02  0.24731912423E+02 -0.72068826286E+01  0.30456809269E+02  0.51100000000E-03 0. -1.
         23    2    1    0    0    0  0.43981396856E+01 -0.17204681586E+02 -0.37484906021E+02  0.83521537148E+02  0.72494029320E+02 0.  0.
         11    1    3    3    0    0 -0.11850262737E+02 -0.41936594009E+02 -0.30278023392E+02  0.53064727879E+02  0.51100000000E-03 0.  1.
         22    1    1    0    0    0 -0.43981396856E+01  0.17204681586E+02  0.37484906021E+02  0.41478462852E+02  0.00000000000E+00 0.  1.
</event>
<event>
 5    1  0.8902899E-005  0.9118800E+02  0.7818608E-02  0.1130116E+00
         25   -1    0    0    0    0  0.00000000000E+00  0.00000000000E+00  0.99999998245E-14  0.12500000000E+03  0.12500000000E+03 0.  0.
        -11    1    3    3    0    0 -0.14692969999E+02  0.79210795359E+01 -0.38500431482E+02  0.41963199270E+02  0.51100000000E-03 0.  1.
         23    2    1    0    0    0 -0.26836037716E+02 -0.61976875139E+01  0.11374436980E+02  0.95201307622E+02  0.90417514374E+02 0.  0.
         11    1    3    3    0    0 -0.12143067717E+02 -0.14118767050E+02  0.49874868462E+02  0.53238108352E+02  0.51100000000E-03 0. -1.
         22    1    1    0    0    0  0.26836037716E+02  0.61976875139E+01 -0.11374436980E+02  0.29798692378E+02  0.00000000000E+00 0. -1.
</event>
<event>
 5    1  0.8902899E-005  0.9118800E+02  0.7818608E-02  0.1130116E+00
         25   -1    0    0    0    0  0.00000000000E+00  0.00000000000E+00  0.99999998245E-14  0.12500000000E+03  0.12500000000E+03 0.  0.
        -11    1    3    3    0    0  0.28096122579E+02 -0.38299095663E+02  0.30516753398E+02  0.56457816738E+02  0.51100000000E-03 0. -1.
         23    2    1    0    0    0  0.21938926161E+02 -0.83567556214E+00  0.18528548953E+02  0.96271582692E+02  0.91885230984E+02 0.  0.
         11    1    3    3    0    0 -0.61571964182E+01  0.37463420101E+02 -0.11988204445E+02  0.39813765954E+02  0.51100000000E-03 0.  1.
         22    1    1    0    0    0 -0.21938926161E+02  0.83567556214E+00 -0.18528548953E+02  0.28728417308E+02  0.00000000000E+00 0. -1.
</event>
<event>
 5    1  0.8902899E-005  0.9118800E+02  0.7818608E-02  0.1130116E+00
         25   -1    0    0    0    0  0.00000000000E+00  0.00000000000E+00  0.99999998245E-14  0.12500000000E+03  0.12500000000E+03 0.  0.
        -11    1    3    3    0    0  0.42279922748E+01  0.27320854641E+02  0.45651540995E+02  0.53370105981E+02  0.51100000000E-03 0.  1.
         23    2    1    0    0    0 -0.18513970331E+02  0.17411813498E+02  0.81956397073E+01  0.98295939318E+02  0.94599074147E+02 0.  0.
         11    1    3    3    0    0 -0.22741962606E+02 -0.99090411427E+01 -0.37455901287E+02  0.44925833337E+02  0.51100000000E-03 0. -1.
         22    1    1    0    0    0  0.18513970331E+02 -0.17411813498E+02 -0.81956397073E+01  0.26704060682E+02  0.00000000000E+00 0.  1.
</event>
<event>
 5    1  0.8902899E-005  0.9118800E+02  0.7818608E-02  0.1130116E+00
         25   -1    0    0    0    0  0.00000000000E+00  0.00000000000E+00  0.99999998245E-14  0.12500000000E+03  0.12500000000E+03 0.  0.
        -11    1    3    3    0    0  0.30982352120E+02 -0.20004024919E+02  0.28056872524E+02  0.46338485646E+02  0.51100000000E-03 0.  1.
         23    2    1    0    0    0 -0.17416391796E+02 -0.17680763569E+02  0.12376937515E+02  0.97266830585E+02  0.93229328251E+02 0.  0.
         11    1    3    3    0    0 -0.48398743917E+02  0.23232613501E+01 -0.15679935010E+02  0.50928344938E+02  0.51100000000E-03 0. -1.
         22    1    1    0    0    0  0.17416391796E+02  0.17680763569E+02 -0.12376937515E+02  0.27733169415E+02  0.00000000000E+00 0. -1.
</event>
<event>
 5    1  0.8902899E-005  0.9118800E+02  0.7818608E-02  0.1130116E+00
         25   -1    0    0    0    0  0.00000000000E+00  0.00000000000E+00  0.99999998245E-14  0.12500000000E+03  0.12500000000E+03 0.  0.
        -11    1    3    3    0    0 -0.30835842860E+02  0.24750880100E+02 -0.50730646859E+01  0.39864661746E+02  0.51100000000E-03 0. -1.
         23    2    1    0    0    0 -0.11192568956E+02 -0.27131871117E+02  0.70607149870E+00  0.95641686576E+02  0.91024291505E+02 0.  0.
         11    1    3    3    0    0  0.19643273904E+02 -0.51882751217E+02  0.57791361846E+01  0.55777024829E+02  0.51100000000E-03 0.  1.
         22    1    1    0    0    0  0.11192568956E+02  0.27131871117E+02 -0.70607149870E+00  0.29358313424E+02  0.00000000000E+00 0.  1.
</event>
<event>
 5    1  0.8902899E-005  0.9118800E+02  0.7818608E-02  0.1130116E+00
         25   -1    0    0    0    0  0.00000000000E+00  0.00000000000E+00  0.99999998245E-14  0.12500000000E+03  0.12500000000E+03 0.  0.
        -11    1    3    3    0    0  0.44966580709E+02 -0.29681730209E+02 -0.26662768189E+02  0.60115735849E+02  0.51100000000E-03 0.  1.
         23    2    1    0    0    0  0.24071622027E+02 -0.16078217706E+02 -0.79746335022E+00  0.96041615732E+02  0.91571851204E+02 0.  0.
         11    1    3    3    0    0 -0.20894958682E+02  0.13603512503E+02  0.25865304839E+02  0.35925879883E+02  0.51100000000E-03 0. -1.
         22    1    1    0    0    0 -0.24071622027E+02  0.16078217706E+02  0.79746335022E+00  0.28958384268E+02  0.00000000000E+00 0.  1.
</event>
<event>
 5    1  0.8902899E-005  0.9118800E+02  0.7818608E-02  0.1130116E+00
         25   -1    0    0    0    0  0.00000000000E+00  0.00000000000E+00  0.99999998245E-14  0.12500000000E+03  0.12500000000E+03 0.  0.
        -11    1    3    3    0    0  0.21487750273E+02 -0.38574458653E+02 -0.35543327919E+02  0.56683687530E+02  0.51100000000E-03 0. -1.
         23    2    1    0    0    0  0.21410500640E+02 -0.11221153545E+02 -0.32913835525E+02  0.84163198050E+02  0.73592115831E+02 0.  0.
         11    1    3    3    0    0 -0.77249632790E-01  0.27353305109E+02  0.26294923941E+01  0.27479510519E+02  0.51100000000E-03 0.  1.
         22    1    1    0    0    0 -0.21410500640E+02  0.11221153545E+02  0.32913835525E+02  0.40836801950E+02  0.00000000000E+00 0. -1.
</event>
<event>
 5    1  0.8902899E-005  0.9118800E+02  0.7818608E-02  0.1130116E+00
         25   -1    0    0    0    0  0.00000000000E+00  0.00000000000E+00  0.99999998245E-14  0.12500000000E+03  0.12500000000E+03 0.  0.
        -11    1    3    3    0    0  0.45873542766E+02  0.21761572673E+02 -0.20886229983E+02  0.54901571692E+02  0.51100000000E-03 0.  1.
         23    2    1    0    0    0  0.13742789392E+02 -0.88425086514E+00 -0.27007071208E+02  0.94684524495E+02  0.89700229229E+02 0.  0.
         11    1    3    3    0    0 -0.32130753374E+02 -0.22645823538E+02 -0.61208412254E+01  0.39782952802E+02  0.51100000000E-03 0. -1.
         22    1    1    0    0    0 -0.13742789392E+02  0.88425086514E+00  0.27007071208E+02  0.30315475505E+02  0.00000000000E+00 0.  1.
</event>
<event>
 5    1  0.8902899E-005  0.9118800E+02  0.7818608E-02  0.1130116E+00
         25   -1    0    0    0    0  0.00000000000E+00  0.00000000000E+00  0.99999998245E-14  0.12500000000E+03  0.12500000000E+03 0.  0.
        -11    1    3    3    0    0 -0.21994631753E+02  0.32680944101E+01  0.38563212449E+02  0.44514779812E+02  0.51100000000E-03 0.  1.
         23    2    1    0    0    0  0.77564024688E+01  0.27498302308E+02  0.40116726171E+01  0.96148450193E+02  0.91717569464E+02 0.  0.
         11    1    3    3    0    0  0.29751034222E+02  0.24230207898E+02 -0.34551539832E+02  0.51633670382E+02  0.51100000000E-03 0. -1.
         22    1    1    0    0    0 -0.77564024688E+01 -0.27498302308E+02 -0.40116726171E+01  0.28851549807E+02  0.00000000000E+00 0. -1.
</event>
<event>
 5    1  0.8902899E-005  0.9118800E+02  0.7818608E-02  0.1130116E+00
         25   -1    0    0    0    0  0.00000000000E+00  0.00000000000E+00  0.99999998245E-14  0.12500000000E+03  0.12500000000E+03 0.  0.
        -11    1    3    3    0    0 -0.36957146906E+02 -0.18344896911E+02 -0.24563250980E+02  0.48017905505E+02  0.51100000000E-03 0.  1.
         23    2    1    0    0    0  0.86548886936E+01 -0.25239775992E+02 -0.66728749322E+01  0.97495806678E+02  0.93535830939E+02 0.  0.
         11    1    3    3    0    0  0.45612035599E+02 -0.68948790814E+01  0.17890376048E+02  0.49477901173E+02  0.51100000000E-03 0. -1.
         22    1    1    0    0    0 -0.86548886936E+01  0.25239775992E+02  0.66728749322E+01  0.27504193322E+02  0.00000000000E+00 0.  1.
</event>
<event>
 5    1  0.8902899E-005  0.9118800E+02  0.7818608E-02  0.1130116E+00
         25   -1    0    0    0    0  0.00000000000E+00  0.00000000000E+00  0.99999998245E-14  0.12500000000E+03  0.12500000000E+03 0.  0.
        -11    1    3    3    0    0  0.40688417023E+02  0.15335889317E+02  0.26761879155E+02  0.51058152700E+02  0.51100000000E-03 0.  1.
         23    2    1    0    0    0  0.61308747160E+01 -0.10884288663E+02  0.27877711226E+02  0.94451315123E+02  0.89374654018E+02 0.  0.
         11    1    3    3    0    0 -0.34557542307E+02 -0.26220177980E+02  0.11158320713E+01  0.43393162423E+02  0.51100000000E-03 0. -1.
         22    1    1    0    0    0 -0.61308747160E+01  0.10884288663E+02 -0.27877711226E+02  0.30548684877E+02  0.00000000000E+00 0.  1.
</event>
<event>
 5    1  0.8902899E-005  0.9118800E+02  0.7818608E-02  0.1130116E+00
         25   -1    0    0    0    0  0.00000000000E+00  0.00000000000E+00  0.99999998245E-14  0.12500000000E+03  0.12500000000E+03 0.  0.
        -11    1    3    3    0    0  0.20023146678E+02  0.75729868180E+01 -0.27565574207E+02  0.34901825366E+02  0.51100000000E-03 0. -1.
         23    2    1    0    0    0 -0.18510685806E+02  0.12293044663E+02  0.19166191616E+02  0.95655369535E+02  0.91043079823E+02 0.  0.
         11    1    3    3    0    0 -0.38533832484E+02  0.47200578455E+01  0.46731765823E+02  0.60753544169E+02  0.51100000000E-03 0.  1.
         22    1    1    0    0    0  0.18510685806E+02 -0.12293044663E+02 -0.19166191616E+02  0.29344630465E+02  0.00000000000E+00 0.  1.
</event>
<event>
 5    1  0.8902899E-005  0.9118800E+02  0.7818608E-02  0.1130116E+00
         25   -1    0    0    0    0  0.00000000000E+00  0.00000000000E+00  0.99999998245E-14  0.12500000000E+03  0.12500000000E+03 0.  0.
        -11    1    3    3    0    0 -0.99027410885E+00  0.23890755276E+02  0.29955778862E+02  0.38328807938E+02  0.51100000000E-03 0.  1.
         23    2    1    0    0    0 -0.11256759094E+02 -0.26740124411E+02  0.55660879207E+01  0.95457992391E+02  0.90771681144E+02 0.  0.
         11    1    3    3    0    0 -0.10266484985E+02 -0.50630879687E+02 -0.24389690941E+02  0.57129184453E+02  0.51100000000E-03 0. -1.
         22    1    1    0    0    0  0.11256759094E+02  0.26740124411E+02 -0.55660879207E+01  0.29542007609E+02  0.00000000000E+00 0. -1.
</event>
<event>
 5    1  0.8902899E-005  0.9118800E+02  0.7818608E-02  0.1130116E+00
         25   -1    0    0    0    0  0.00000000000E+00  0.00000000000E+00  0.99999998245E-14  0.12500000000E+03  0.12500000000E+03 0.  0.
        -11    1    3    3    0    0  0.36815071398E+02  0.11234110564E+02 -0.37597150190E+02  0.53806137427E+02  0.51100000000E-03 0.  1.
         23    2    1    0    0    0  0.29554576044E+02 -0.36101090178E+01  0.38070132600E+00  0.95223318087E+02  0.90447938184E+02 0.  0.
         11    1    3    3    0    0 -0.72604953541E+01 -0.14844219582E+02  0.37977851516E+02  0.41417180660E+02  0.51100000000E-03 0. -1.
         22    1    1    0    0    0 -0.29554576044E+02  0.36101090178E+01 -0.38070132600E+00  0.29776681913E+02  0.00000000000E+00 0.  1.
</event>
<event>
 5    1  0.8902899E-005  0.9118800E+02  0.7818608E-02  0.1130116E+00
         25   -1    0    0    0    0  0.00000000000E+00  0.00000000000E+00  0.99999998245E-14  0.12500000000E+03  0.12500000000E+03 0.  0.
        -11    1    3    3    0    0 -0.23061215876E+02  0.15035716844E+02 -0.27302012367E+02  0.38772314069E+02  0.51100000000E-03 0. -1.
         23    2    1    0    0    0  0.82237474370E+01  0.23151264741E+02  0.18086279044E+02  0.94492221145E+02  0.89431847159E+02 0.  0.
         11    1    3    3    0    0  0.31284963313E+02  0.81155478971E+01  0.45388291411E+02  0.55719907077E+02  0.51100000000E-03 0.  1.
         22    1    1    0    0    0 -0.82237474370E+01 -0.23151264741E+02 -0.18086279044E+02  0.30507778855E+02  0.00000000000E+00 0.  1.
</event>
<event>
 5    1  0.8902899E-005  0.9118800E+02  0.7818608E-02  0.1130116E+00
         25   -1    0    0    0    0  0.00000000000E+00  0.00000000000E+00  0.99999998245E-14  0.12500000000E+03  0.12500000000E+03 0.  0.
        -11    1    3    3    0    0  0.17378222866E+02  0.56484850977E+02  0.16916932430E+02  0.61471323583E+02  0.51100000000E-03 0.  1.
         23    2    1    0    0    0  0.39617863740E+01  0.29748169054E+02  0.15006685852E+02  0.91446312668E+02  0.85068079601E+02 0.  0.
         11    1    3    3    0    0 -0.13416436492E+02 -0.26736681923E+02 -0.19102465781E+01  0.29974989086E+02  0.51100000000E-03 0. -1.
         22    1    1    0    0    0 -0.39617863740E+01 -0.29748169054E+02 -0.15006685852E+02  0.33553687332E+02  0.00000000000E+00 0.  1.
</event>
<event>
 5    1  0.8902899E-005  0.9118800E+02  0.7818608E-02  0.1130116E+00
         25   -1    0    0    0    0  0.00000000000E+00  0.00000000000E+00  0.99999998245E-14  0.12500000000E+03  0.12500000000E+03 0.  0.
        -11    1    3    3    0    0 -0.83870676479E+01  0.19548775127E+02  0.37370194578E+02  0.43000336694E+02  0.51100000000E-03 0.  1.
         23    2    1    0    0    0 -0.23073323796E+02 -0.99778616983E+01 -0.75742332536E+01  0.98745381274E+02  0.95191098946E+02 0.  0.
         11    1    3    3    0    0 -0.14686256148E+02 -0.29526636825E+02 -0.44944427832E+02  0.55745044580E+02  0.51100000000E-03 0. -1.
         22    1    1    0    0    0  0.23073323796E+02  0.99778616983E+01  0.75742332536E+01  0.26254618726E+02  0.00000000000E+00 0. -1.
</event>
<event>
 5    1  0.8902899E-005  0.9118800E+02  0.7818608E-02  0.1130116E+00
         25   -1    0    0    0    0  0.00000000000E+00  0.00000000000E+00  0.99999998245E-14  0.12500000000E+03  0.12500000000E+03 0.  0.
        -11    1    3    3    0    0 -0.14892906680E+02  0.26509865510E+02 -0.42193818171E+02  0.52008556324E+02  0.51100000000E-03 0.  1.
         23    2    1    0    0    0  0.18852511374E+02  0.10694659814E+02 -0.20692005155E+02  0.95034152590E+02  0.90186130572E+02 0.  0.
         11    1    3    3    0    0  0.33745418054E+02 -0.15815205696E+02  0.21501813016E+02  0.43025596266E+02  0.51100000000E-03 0. -1.
         22    1    1    0    0    0 -0.18852511374E+02 -0.10694659814E+02  0.20692005155E+02  0.29965847410E+02  0.00000000000E+00 0. -1.
</event>
<event>
 5    1  0.8902899E-005  0.9118800E+02  0.7818608E-02  0.1130116E+00
         25   -1    0    0    0    0  0.00000000000E+00  0.00000000000E+00  0.99999998245E-14  0.12500000000E+03  0.12500000000E+03 0.  0.
        -11    1    3    3    0    0 -0.26964566917E+02  0.24226608648E+02  0.17740901530E+02  0.40357849583E+02  0.51100000000E-03 0. -1.
         23    2    1    0    0    0  0.78590067380E+01  0.16208942572E+02 -0.23798426656E+02  0.95152740201E+02  0.90350346155E+02 0.  0.
         11    1    3    3    0    0  0.34823573655E+02 -0.80176660763E+01 -0.41539328186E+02  0.54794890618E+02  0.51100000000E-03 0.  1.
         22    1    1    0    0    0 -0.78590067380E+01 -0.16208942572E+02  0.23798426656E+02  0.29847259799E+02  0.00000000000E+00 0. -1.
</event>
<event>
 5    1  0.8902899E-005  0.9118800E+02  0.7818608E-02  0.1130116E+00
         25   -1    0    0    0    0  0.00000000000E+00  0.00000000000E+00  0.99999998245E-14  0.12500000000E+03  0.12500000000E+03 0.  0.
        -11    1    3    3    0    0 -0.16433278400E+02 -0.29234097115E+02 -0.25167061777E+02  0.41929298490E+02  0.51100000000E-03 0. -1.
         23    2    1    0    0    0  0.39578910236E+01 -0.16236313251E+02  0.23436145016E+02  0.96215704585E+02  0.91809183344E+02 0.  0.
         11    1    3    3    0    0  0.20391169424E+02  0.12997783864E+02  0.48603206793E+02  0.54286406095E+02  0.51100000000E-03 0.  1.
         22    1    1    0    0    0 -0.39578910236E+01  0.16236313251E+02 -0.23436145016E+02  0.28784295415E+02  0.00000000000E+00 0.  1.
</event>
<event>
 5    1  0.8902899E-005  0.9118800E+02  0.7818608E-02  0.1130116E+00
         25   -1    0    0    0    0  0.00000000000E+00  0.00000000000E+00  0.99999998245E-14  0.12500000000E+03  0.12500000000E+03 0.  0.
        -11    1    3    3    0    0 -0.21421314377E+02 -0.10664853795E+02  0.39837661428E+02  0.46472046269E+02  0.51100000000E-03 0.  1.
         23    2    1    0    0    0  0.21636756466E+02  0.21559613411E+01  0.19522512593E+02  0.95777989501E+02  0.91211278772E+02 0.  0.
         11    1    3    3    0    0  0.43058070843E+02  0.12820815137E+02 -0.20315148835E+02  0.49305943232E+02  0.51100000000E-03 0. -1.
         22    1    1    0    0    0 -0.21636756466E+02 -0.21559613411E+01 -0.19522512593E+02  0.29222010499E+02  0.00000000000E+00 0.  1.
</event>
<event>
 5    1  0.8902899E-005  0.9118800E+02  0.7818608E-02  0.1130116E+00
         25   -1    0    0    0    0  0.00000000000E+00  0.00000000000E+00  0.99999998245E-14  0.12500000000E+03  0.12500000000E+03 0.  0.
        -11    1    3    3    0    0 -0.49845698965E-01  0.13185521909E+02  0.24538749554E+02  0.27856968653E+02  0.51100000000E-03 0.  1.
         23    2    1    0    0    0 -0.28345194923E+02 -0.46418779711E+01 -0.24522830452E+02  0.87232734813E+02  0.78633222643E+02 0.  0.
         11    1    3    3    0    0 -0.28295349224E+02 -0.17827399881E+02 -0.49061580005E+02  0.59375766160E+02  0.51100000000E-03 0. -1.
         22    1    1    0    0    0  0.28345194923E+02  0.46418779711E+01  0.24522830452E+02  0.37767265187E+02  0.00000000000E+00 0. -1.
</event>
<event>
 5    1  0.8902899E-005  0.9118800E+02  0.7818608E-02  0.1130116E+00
         25   -1    0    0    0    0  0.00000000000E+00  0.00000000000E+00  0.99999998245E-14  0.12500000000E+03  0.12500000000E+03 0.  0.
        -11    1    3    3    0    0  0.91950056745E+01  0.27771549727E+02  0.23790044891E+02  0.37706409797E+02  0.51100000000E-03 0. -1.
         23    2    1    0    0    0 -0.27784931507E+02  0.15106843265E+01 -0.11214444996E+02  0.94999193968E+02  0.90137664114E+02 0.  0.
         11    1    3    3    0    0 -0.36979937182E+02 -0.26260865401E+02 -0.35004489887E+02  0.57292784171E+02  0.51100000000E-03 0.  1.
         22    1    1    0    0    0  0.27784931507E+02 -0.15106843265E+01  0.11214444996E+02  0.30000806032E+02  0.00000000000E+00 0.  1.
</event>
<event>
 5    1  0.8902899E-005  0.9118800E+02  0.7818608E-02  0.1130116E+00
         25   -1    0    0    0    0  0.00000000000E+00  0.00000000000E+00  0.99999998245E-14  0.12500000000E+03  0.12500000000E+03 0.  0.
        -11    1    3    3    0    0  0.28958822830E+02 -0.33464991469E+02  0.38471162226E+02  0.58639145603E+02  0.51100000000E-03 0.  1.
         23    2    1    0    0    0  0.59760595807E+01 -0.28022674144E+02  0.12512961349E+02  0.93734079959E+02  0.88365830443E+02 0.  0.
         11    1    3    3    0    0 -0.22982763249E+02  0.54423173258E+01 -0.25958200878E+02  0.35094934357E+02  0.51100000000E-03 0. -1.
         22    1    1    0    0    0 -0.59760595807E+01  0.28022674144E+02 -0.12512961349E+02  0.31265920041E+02  0.00000000000E+00 0.  1.
</event>
<event>
 5    1  0.8902899E-005  0.9118800E+02  0.7818608E-02  0.1130116E+00
         25   -1    0    0    0    0  0.00000000000E+00  0.00000000000E+00  0.99999998245E-14  0.12500000000E+03  0.12500000000E+03 0.  0.
        -11    1    3    3    0    0 -0.85850219831E+01  0.22544832607E+02  0.40512647121E+02  0.47151316597E+02  0.51100000000E-03 0. -1.
         23    2    1    0    0    0 -0.27203761874E+02 -0.22319375040E+01  0.58163621959E+00  0.97698635459E+02  0.93806496922E+02 0.  0.
         11    1    3    3    0    0 -0.18618739891E+02 -0.24776770111E+02 -0.39931010902E+02  0.50547318862E+02  0.51100000000E-03 0.  1.
         22    1    1    0    0    0  0.27203761874E+02  0.22319375040E+01 -0.58163621959E+00  0.27301364541E+02  0.00000000000E+00 0. -1.
</event>
<event>
 5    1  0.8902899E-005  0.9118800E+02  0.7818608E-02  0.1130116E+00
         25   -1    0    0    0    0  0.00000000000E+00  0.00000000000E+00  0.99999998245E-14  0.12500000000E+03  0.12500000000E+03 0.  0.
        -11    1    3    3    0    0  0.54491824785E+02  0.21816023568E+00  0.30206072690E+02  0.62304200420E+02  0.51100000000E-03 0.  1.
         23    2    1    0    0    0  0.27739052249E+02 -0.21908920392E+01  0.12361757909E+02  0.94552207203E+02  0.89515651150E+02 0.  0.
         11    1    3    3    0    0 -0.26752772536E+02 -0.24090522748E+01 -0.17844314781E+02  0.32248006784E+02  0.51100000000E-03 0. -1.
         22    1    1    0    0    0 -0.27739052249E+02  0.21908920392E+01 -0.12361757909E+02  0.30447792797E+02  0.00000000000E+00 0.  1.
</event>
<event>
 5    1  0.8902899E-005  0.9118800E+02  0.7818608E-02  0.1130116E+00
         25   -1    0    0    0    0  0.00000000000E+00  0.00000000000E+00  0.99999998245E-14  0.12500000000E+03  0.12500000000E+03 0.  0.
        -11    1    3    3    0    0  0.28968208216E+02  0.50405007426E+01 -0.20283592198E+02  0.35720972099E+02  0.51100000000E-03 0. -1.
         23    2    1    0    0    0 -0.26378694977E+02 -0.92926177266E+01 -0.15326451558E+02  0.93108176436E+02  0.87475963035E+02 0.  0.
         11    1    3    3    0    0 -0.55346903192E+02 -0.14333118469E+02  0.49571406393E+01  0.57387204337E+02  0.51100000000E-03 0.  1.
         22    1    1    0    0    0  0.26378694977E+02  0.92926177266E+01  0.15326451558E+02  0.31891823564E+02  0.00000000000E+00 0.  1.
</event>
<event>
 5    1  0.8902899E-005  0.9118800E+02  0.7818608E-02  0.1130116E+00
         25   -1    0    0    0    0  0.00000000000E+00  0.00000000000E+00  0.99999998245E-14  0.12500000000E+03  0.12500000000E+03 0.  0.
        -11    1    3    3    0    0  0.17319686344E+02 -0.22231701048E+02  0.17676179075E+02  0.33266610490E+02  0.51100000000E-03 0. -1.
         23    2    1    0    0    0 -0.25806971821E+02  0.11514289450E+01 -0.17644254705E+02  0.93716692833E+02  0.88341231644E+02 0.  0.
         11    1    3    3    0    0 -0.43126658165E+02  0.23383129993E+02 -0.35320433780E+02  0.60450082344E+02  0.51100000000E-03 0.  1.
         22    1    1    0    0    0  0.25806971821E+02 -0.11514289450E+01  0.17644254705E+02  0.31283307167E+02  0.00000000000E+00 0.  1.
</event>
<event>
 5    1  0.8902899E-005  0.9118800E+02  0.7818608E-02  0.1130116E+00
         25   -1    0    0    0    0  0.00000000000E+00  0.00000000000E+00  0.99999998245E-14  0.12500000000E+03  0.12500000000E+03 0.  0.
        -11    1    3    3    0    0 -0.15110936791E+01 -0.26724833097E+02 -0.33681554386E+01  0.26978594839E+02  0.51100000000E-03 0. -1.
         23    2    1    0    0    0 -0.23075218594E+01  0.34204501292E+02  0.98508888528E+01  0.89330509157E+02  0.81900105551E+02 0.  0.
         11    1    3    3    0    0 -0.79642818031E+00  0.60929334389E+02  0.13219044291E+02  0.62351914318E+02  0.51100000000E-03 0.  1.
         22    1    1    0    0    0  0.23075218594E+01 -0.34204501292E+02 -0.98508888528E+01  0.35669490843E+02  0.00000000000E+00 0.  1.
</event>
<event>
 5    1  0.8902899E-005  0.9118800E+02  0.7818608E-02  0.1130116E+00
         25   -1    0    0    0    0  0.00000000000E+00  0.00000000000E+00  0.99999998245E-14  0.12500000000E+03  0.12500000000E+03 0.  0.
        -11    1    3    3    0    0 -0.47828561272E+02  0.36700763068E+02 -0.14275407584E+02  0.61954051885E+02  0.51100000000E-03 0.  1.
         23    2    1    0    0    0 -0.18283536352E+02  0.20583823774E+02 -0.90929420482E+01  0.96005809241E+02  0.91522960563E+02 0.  0.
         11    1    3    3    0    0  0.29545024920E+02 -0.16116939293E+02  0.51824655355E+01  0.34051757356E+02  0.51100000000E-03 0. -1.
         22    1    1    0    0    0  0.18283536352E+02 -0.20583823774E+02  0.90929420482E+01  0.28994190759E+02  0.00000000000E+00 0.  1.
</event>
<event>
 5    1  0.8902899E-005  0.9118800E+02  0.7818608E-02  0.1130116E+00
         25   -1    0    0    0    0  0.00000000000E+00  0.00000000000E+00  0.99999998245E-14  0.12500000000E+03  0.12500000000E+03 0.  0.
        -11    1    3    3    0    0 -0.44372850562E+02 -0.35915534525E+02  0.71701892536E+01  0.57535094519E+02  0.51100000000E-03 0.  1.
         23    2    1    0    0    0 -0.13409560041E+02 -0.23704192557E+02 -0.11200460188E+02  0.95552498346E+02  0.90901730382E+02 0.  0.
         11    1    3    3    0    0  0.30963290520E+02  0.12211341968E+02 -0.18370649441E+02  0.38017403826E+02  0.51100000000E-03 0. -1.
         22    1    1    0    0    0  0.13409560041E+02  0.23704192557E+02  0.11200460188E+02  0.29447501654E+02  0.00000000000E+00 0.  1.
</event>
<event>
 5    1  0.8902899E-005  0.9118800E+02  0.7818608E-02  0.1130116E+00
         25   -1    0    0    0    0  0.00000000000E+00  0.00000000000E+00  0.99999998245E-14  0.12500000000E+03  0.12500000000E+03 0.  0.
        -11    1    3    3    0    0  0.43310783419E+02  0.33837698793E+02 -0.30746853974E+01  0.55047865631E+02  0.51100000000E-03 0.  1.
         23    2    1    0    0    0  0.29782093868E+02 -0.27031300786E+01 -0.72307860599E+01  0.94233714972E+02  0.89069797030E+02 0.  0.
         11    1    3    3    0    0 -0.13528689551E+02 -0.36540828872E+02 -0.41561006625E+01  0.39185849341E+02  0.51100000000E-03 0. -1.
         22    1    1    0    0    0 -0.29782093868E+02  0.27031300786E+01  0.72307860599E+01  0.30766285028E+02  0.00000000000E+00 0.  1.
</event>
<event>
 5    1  0.8902899E-005  0.9118800E+02  0.7818608E-02  0.1130116E+00
         25   -1    0    0    0    0  0.00000000000E+00  0.00000000000E+00  0.99999998245E-14  0.12500000000E+03  0.12500000000E+03 0.  0.
        -11    1    3    3    0    0 -0.49037811156E+02  0.27881071583E+02 -0.15347451201E+02  0.58460288523E+02  0.51100000000E-03 0.  1.
         23    2    1    0    0    0 -0.18909148280E+02  0.90976865400E+01 -0.22016393530E+02  0.94585441428E+02  0.89562047526E+02 0.  0.
         11    1    3    3    0    0  0.30128662876E+02 -0.18783385043E+02 -0.66689423284E+01  0.36125152905E+02  0.51100000000E-03 0. -1.
         22    1    1    0    0    0  0.18909148280E+02 -0.90976865400E+01  0.22016393530E+02  0.30414558572E+02  0.00000000000E+00 0.  1.
</event>
<event>
 5    1  0.8902899E-005  0.9118800E+02  0.7818608E-02  0.1130116E+00
         25   -1    0    0    0    0  0.00000000000E+00  0.00000000000E+00  0.99999998245E-14  0.12500000000E+03  0.12500000000E+03 0.  0.
        -11    1    3    3    0    0 -0.34525837887E+02  0.48742916003E+02 -0.44088008663E+01  0.59894431023E+02  0.51100000000E-03 0. -1.
         23    2    1    0    0    0 -0.16912521196E+02  0.21149849811E+02  0.10615860321E+02  0.95913129927E+02  0.91396293589E+02 0.  0.
         11    1    3    3    0    0  0.17613316690E+02 -0.27593066192E+02  0.15024661188E+02  0.36018698904E+02  0.51100000000E-03 0.  1.
         22    1    1    0    0    0  0.16912521196E+02 -0.21149849811E+02 -0.10615860321E+02  0.29086870073E+02  0.00000000000E+00 0. -1.
</event>
<event>
 5    1  0.8902899E-005  0.9118800E+02  0.7818608E-02  0.1130116E+00
         25   -1    0    0    0    0  0.00000000000E+00  0.00000000000E+00  0.99999998245E-14  0.12500000000E+03  0.12500000000E+03 0.  0.
        -11    1    3    3    0    0 -0.13275444812E+02  0.40600291828E+02 -0.16742934238E+02  0.45879701161E+02  0.51100000000E-03 0. -1.
         23    2    1    0    0    0 -0.89253194984E+01  0.12163349686E+02  0.24537651112E+02  0.96195404432E+02  0.91781540127E+02 0.  0.
         11    1    3    3    0    0  0.43501253141E+01 -0.28436942142E+02  0.41280585350E+02  0.50315703271E+02  0.51100000000E-03 0.  1.
         22    1    1    0    0    0  0.89253194984E+01 -0.12163349686E+02 -0.24537651112E+02  0.28804595568E+02  0.00000000000E+00 0.  1.
</event>
<event>
 5    1  0.8902899E-005  0.9118800E+02  0.7818608E-02  0.1130116E+00
         25   -1    0    0    0    0  0.00000000000E+00  0.00000000000E+00  0.99999998245E-14  0.12500000000E+03  0.12500000000E+03 0.  0.
        -11    1    3    3    0    0  0.14391936208E+02  0.58678380598E+01  0.89786307509E+01  0.17949238472E+02  0.51100000000E-03 0. -1.
         23    2    1    0    0    0  0.14725525177E+01  0.24870895653E+02 -0.43293658874E+02  0.75049316719E+02  0.56011866419E+02 0.  0.
         11    1    3    3    0    0 -0.12919383691E+02  0.19003057593E+02 -0.52272289625E+02  0.57100078247E+02  0.51100000000E-03 0.  1.
         22    1    1    0    0    0 -0.14725525177E+01 -0.24870895653E+02  0.43293658874E+02  0.49950683281E+02  0.00000000000E+00 0.  1.
</event>
<event>
 5    1  0.8902899E-005  0.9118800E+02  0.7818608E-02  0.1130116E+00
         25   -1    0    0    0    0  0.00000000000E+00  0.00000000000E+00  0.99999998245E-14  0.12500000000E+03  0.12500000000E+03 0.  0.
        -11    1    3    3    0    0 -0.72228738112E+01  0.12508204572E+02  0.98175966878E+01  0.17464543873E+02  0.51100000000E-03 0.  1.
         23    2    1    0    0    0 -0.56792539429E+01 -0.14135173962E+02 -0.44489382524E+02  0.77974876655E+02  0.62199028639E+02 0.  0.
         11    1    3    3    0    0  0.15436198683E+01 -0.26643378533E+02 -0.54306979212E+02  0.60510332782E+02  0.51100000000E-03 0. -1.
         22    1    1    0    0    0  0.56792539429E+01  0.14135173962E+02  0.44489382524E+02  0.47025123345E+02  0.00000000000E+00 0. -1.
</event>
<event>
 5    1  0.8902899E-005  0.9118800E+02  0.7818608E-02  0.1130116E+00
         25   -1    0    0    0    0  0.00000000000E+00  0.00000000000E+00  0.99999998245E-14  0.12500000000E+03  0.12500000000E+03 0.  0.
        -11    1    3    3    0    0 -0.33683020442E+02  0.45429547115E+02  0.16481357885E+01  0.56578317128E+02  0.51100000000E-03 0. -1.
         23    2    1    0    0    0 -0.15148055307E+02  0.14859930131E+02 -0.17824402406E+02  0.97287359848E+02  0.93256849410E+02 0.  0.
         11    1    3    3    0    0  0.18534965136E+02 -0.30569616984E+02 -0.19472538194E+02  0.40709042719E+02  0.51100000000E-03 0.  1.
         22    1    1    0    0    0  0.15148055307E+02 -0.14859930131E+02  0.17824402406E+02  0.27712640152E+02  0.00000000000E+00 0. -1.
</event>
<event>
 5    1  0.8902899E-005  0.9118800E+02  0.7818608E-02  0.1130116E+00
         25   -1    0    0    0    0  0.00000000000E+00  0.00000000000E+00  0.99999998245E-14  0.12500000000E+03  0.12500000000E+03 0.  0.
        -11    1    3    3    0    0 -0.54006765869E+02 -0.81349854629E+01  0.73418903329E+01  0.55107278122E+02  0.51100000000E-03 0.  1.
         23    2    1    0    0    0 -0.13187209422E+02  0.59766366526E+01 -0.15353028171E+02  0.10389696344E+03  0.10173121871E+03 0.  0.
         11    1    3    3    0    0  0.40819556447E+02  0.14111622115E+02 -0.22694918504E+02  0.48789685318E+02  0.51100000000E-03 0. -1.
         22    1    1    0    0    0  0.13187209422E+02 -0.59766366526E+01  0.15353028171E+02  0.21103036559E+02  0.00000000000E+00 0.  1.
</event>
<event>
 5    1  0.8902899E-005  0.9118800E+02  0.7818608E-02  0.1130116E+00
         25   -1    0    0    0    0  0.00000000000E+00  0.00000000000E+00  0.99999998245E-14  0.12500000000E+03  0.12500000000E+03 0.  0.
        -11    1    3    3    0    0 -0.11218694058E+02  0.44719253825E+02 -0.15332469610E+02  0.48587605247E+02  0.51100000000E-03 0.  1.
         23    2    1    0    0    0 -0.13224076571E+02  0.11565170059E+02  0.20871222664E+02  0.97719287122E+02  0.93834011854E+02 0.  0.
         11    1    3    3    0    0 -0.20053825128E+01 -0.33154083766E+02  0.36203692273E+02  0.49131681875E+02  0.51100000000E-03 0. -1.
         22    1    1    0    0    0  0.13224076571E+02 -0.11565170059E+02 -0.20871222664E+02  0.27280712878E+02  0.00000000000E+00 0.  1.
</event>
<event>
 5    1  0.8902899E-005  0.9118800E+02  0.7818608E-02  0.1130116E+00
         25   -1    0    0    0    0  0.00000000000E+00  0.00000000000E+00  0.99999998245E-14  0.12500000000E+03  0.12500000000E+03 0.  0.
        -11    1    3    3    0    0  0.21045231396E+02 -0.29059781699E+02 -0.15871441130E+02  0.39233599385E+02  0.51100000000E-03 0. -1.
         23    2    1    0    0    0  0.96520104928E+01  0.51351383317E+01  0.27370238424E+02  0.95526946143E+02  0.90866586465E+02 0.  0.
         11    1    3    3    0    0 -0.11393220903E+02  0.34194920030E+02  0.43241679554E+02  0.56293346759E+02  0.51100000000E-03 0.  1.
         22    1    1    0    0    0 -0.96520104928E+01 -0.51351383317E+01 -0.27370238424E+02  0.29473053857E+02  0.00000000000E+00 0.  1.
</event>
<event>
 5    1  0.8902899E-005  0.9118800E+02  0.7818608E-02  0.1130116E+00
         25   -1    0    0    0    0  0.00000000000E+00  0.00000000000E+00  0.99999998245E-14  0.12500000000E+03  0.12500000000E+03 0.  0.
        -11    1    3    3    0    0 -0.25787916268E+02 -0.23534027263E+02  0.13328579053E+02  0.37370015848E+02  0.51100000000E-03 0. -1.
         23    2    1    0    0    0  0.14370108340E+02  0.19970167363E+02  0.14221991516E+02  0.96582177408E+02  0.92306794722E+02 0.  0.
         11    1    3    3    0    0  0.40158024608E+02  0.43504194626E+02  0.89341246315E+00  0.59212161560E+02  0.51100000000E-03 0.  1.
         22    1    1    0    0    0 -0.14370108340E+02 -0.19970167363E+02 -0.14221991516E+02  0.28417822592E+02  0.00000000000E+00 0.  1.
</event>
<event>
 5    1  0.8902899E-005  0.9118800E+02  0.7818608E-02  0.1130116E+00
         25   -1    0    0    0    0  0.00000000000E+00  0.00000000000E+00  0.99999998245E-14  0.12500000000E+03  0.12500000000E+03 0.  0.
        -11    1    3    3    0    0 -0.22411442370E+02  0.23939354038E+02  0.21106859304E+02  0.38998268305E+02  0.51100000000E-03 0.  1.
         23    2    1    0    0    0 -0.41624228640E+00  0.10767710386E+02 -0.28331316268E+02  0.94688610621E+02  0.89705923190E+02 0.  0.
         11    1    3    3    0    0  0.21995200083E+02 -0.13171643652E+02 -0.49438175572E+02  0.55690342316E+02  0.51100000000E-03 0. -1.
         22    1    1    0    0    0  0.41624228640E+00 -0.10767710386E+02  0.28331316268E+02  0.30311389379E+02  0.00000000000E+00 0. -1.
</event>
<event>
 5    1  0.8902899E-005  0.9118800E+02  0.7818608E-02  0.1130116E+00
         25   -1    0    0    0    0  0.00000000000E+00  0.00000000000E+00  0.99999998245E-14  0.12500000000E+03  0.12500000000E+03 0.  0.
        -11    1    3    3    0    0 -0.19849972019E+02 -0.23647255724E+02 -0.27942201851E+02  0.41641094330E+02  0.51100000000E-03 0.  1.
         23    2    1    0    0    0 -0.72263448662E+01 -0.15514134771E+02  0.23894198228E+02  0.95608825359E+02  0.90979153325E+02 0.  0.
         11    1    3    3    0    0  0.12623627152E+02  0.81331209530E+01  0.51836400080E+02  0.53967731029E+02  0.51100000000E-03 0. -1.
         22    1    1    0    0    0  0.72263448662E+01  0.15514134771E+02 -0.23894198228E+02  0.29391174641E+02  0.00000000000E+00 0. -1.
</event>
<event>
 5    1  0.8902899E-005  0.9118800E+02  0.7818608E-02  0.1130116E+00
         25   -1    0    0    0    0  0.00000000000E+00  0.00000000000E+00  0.99999998245E-14  0.12500000000E+03  0.12500000000E+03 0.  0.
        -11    1    3    3    0    0  0.41919352364E+02 -0.15722513266E+02  0.42376237685E+02  0.61645559829E+02  0.51100000000E-03 0. -1.
         23    2    1    0    0    0  0.20244665264E+02 -0.12663275904E+02  0.14596350407E+02  0.97013244678E+02  0.92888703131E+02 0.  0.
         11    1    3    3    0    0 -0.21674687100E+02  0.30592373616E+01 -0.27779887278E+02  0.35367684849E+02  0.51100000000E-03 0.  1.
         22    1    1    0    0    0 -0.20244665264E+02  0.12663275904E+02 -0.14596350407E+02  0.27986755322E+02  0.00000000000E+00 0. -1.
</event>
<event>
 5    1  0.8902899E-005  0.9118800E+02  0.7818608E-02  0.1130116E+00
         25   -1    0    0    0    0  0.00000000000E+00  0.00000000000E+00  0.99999998245E-14  0.12500000000E+03  0.12500000000E+03 0.  0.
        -11    1    3    3    0    0  0.14190728576E+02 -0.37093136537E+02  0.36450576738E+02  0.53906605351E+02  0.51100000000E-03 0.  1.
         23    2    1    0    0    0 -0.93762670981E+01 -0.27551002237E+02  0.32619571798E+01  0.95714978682E+02  0.91124885023E+02 0.  0.
         11    1    3    3    0    0 -0.23566995674E+02  0.95421343006E+01 -0.33188619558E+02  0.41808373331E+02  0.51100000000E-03 0. -1.
         22    1    1    0    0    0  0.93762670981E+01  0.27551002237E+02 -0.32619571798E+01  0.29285021318E+02  0.00000000000E+00 0.  1.
</event>
<event>
 5    1  0.8902899E-005  0.9118800E+02  0.7818608E-02  0.1130116E+00
         25   -1    0    0    0    0  0.00000000000E+00  0.00000000000E+00  0.99999998245E-14  0.12500000000E+03  0.12500000000E+03 0.  0.
        -11    1    3    3    0    0  0.13275885762E+02 -0.21380122795E+02 -0.53314333856E+02  0.58955720573E+02  0.51100000000E-03 0.  1.
         23    2    1    0    0    0  0.10199014891E+02  0.43158432667E+01 -0.26778241620E+02  0.96022066463E+02  0.91545161618E+02 0.  0.
         11    1    3    3    0    0 -0.30768708708E+01  0.25695966062E+02  0.26536092237E+02  0.37066345890E+02  0.51100000000E-03 0. -1.
         22    1    1    0    0    0 -0.10199014891E+02 -0.43158432667E+01  0.26778241620E+02  0.28977933537E+02  0.00000000000E+00 0.  1.
</event>
<event>
 5    1  0.8902899E-005  0.9118800E+02  0.7818608E-02  0.1130116E+00
         25   -1    0    0    0    0  0.00000000000E+00  0.00000000000E+00  0.99999998245E-14  0.12500000000E+03  0.12500000000E+03 0.  0.
        -11    1    3    3    0    0 -0.38860634666E+02 -0.15062281641E+02  0.22512358956E+02  0.47369056998E+02  0.51100000000E-03 0. -1.
         23    2    1    0    0    0 -0.11249697238E+02 -0.18122041507E+02 -0.18406018170E+02  0.96826509247E+02  0.92637073096E+02 0.  0.
         11    1    3    3    0    0  0.27610937428E+02 -0.30597598663E+01 -0.40918377126E+02  0.49457452249E+02  0.51100000000E-03 0.  1.
         22    1    1    0    0    0  0.11249697238E+02  0.18122041507E+02  0.18406018170E+02  0.28173490753E+02  0.00000000000E+00 0. -1.
</event>
<event>
 5    1  0.8902899E-005  0.9118800E+02  0.7818608E-02  0.1130116E+00
         25   -1    0    0    0    0  0.00000000000E+00  0.00000000000E+00  0.99999998245E-14  0.12500000000E+03  0.12500000000E+03 0.  0.
        -11    1    3    3    0    0  0.15934892645E+02  0.45497403444E+02 -0.16926056617E+02  0.51092327375E+02  0.51100000000E-03 0.  1.
         23    2    1    0    0    0  0.66304819980E+01  0.21066512049E+02  0.19234345886E+02  0.95713120974E+02  0.91122336688E+02 0.  0.
         11    1    3    3    0    0 -0.93044106469E+01 -0.24430891396E+02  0.36160402504E+02  0.44620793598E+02  0.51100000000E-03 0. -1.
         22    1    1    0    0    0 -0.66304819980E+01 -0.21066512049E+02 -0.19234345886E+02  0.29286879026E+02  0.00000000000E+00 0.  1.
</event>
<event>
 5    1  0.8902899E-005  0.9118800E+02  0.7818608E-02  0.1130116E+00
         25   -1    0    0    0    0  0.00000000000E+00  0.00000000000E+00  0.99999998245E-14  0.12500000000E+03  0.12500000000E+03 0.  0.
        -11    1    3    3    0    0  0.43036424720E+02  0.26052261540E+02 -0.36420484579E+02  0.62107212796E+02  0.51100000000E-03 0.  1.
         23    2    1    0    0    0  0.17295232774E+02  0.16216980404E+02 -0.16252065588E+02  0.96255519381E+02  0.91863375974E+02 0.  0.
         11    1    3    3    0    0 -0.25741191946E+02 -0.98352811360E+01  0.20168418991E+02  0.34148306585E+02  0.51100000000E-03 0. -1.
         22    1    1    0    0    0 -0.17295232774E+02 -0.16216980404E+02  0.16252065588E+02  0.28744480619E+02  0.00000000000E+00 0.  1.
</event>
<event>
 5    1  0.8902899E-005  0.9118800E+02  0.7818608E-02  0.1130116E+00
         25   -1    0    0    0    0  0.00000000000E+00  0.00000000000E+00  0.99999998245E-14  0.12500000000E+03  0.12500000000E+03 0.  0.
        -11    1    3    3    0    0 -0.10794371875E+01 -0.26311370580E+02  0.56363282644E+02  0.62211518525E+02  0.51100000000E-03 0.  1.
         23    2    1    0    0    0 -0.38120502099E+01 -0.11193869188E+02  0.30424088017E+02  0.92358621875E+02  0.86398237648E+02 0.  0.
         11    1    3    3    0    0 -0.27326130224E+01  0.15117501392E+02 -0.25939194627E+02  0.30147103350E+02  0.51100000000E-03 0. -1.
         22    1    1    0    0    0  0.38120502099E+01  0.11193869188E+02 -0.30424088017E+02  0.32641378125E+02  0.00000000000E+00 0.  1.
</event>
<event>
 5    1  0.8902899E-005  0.9118800E+02  0.7818608E-02  0.1130116E+00
         25   -1    0    0    0    0  0.00000000000E+00  0.00000000000E+00  0.99999998245E-14  0.12500000000E+03  0.12500000000E+03 0.  0.
        -11    1    3    3    0    0  0.71269439474E+01 -0.37223731039E+02 -0.47239577795E+02  0.60563827430E+02  0.51100000000E-03 0.  1.
         23    2    1    0    0    0  0.13052092587E+01 -0.25771778777E+02 -0.15275735506E+02  0.95012731905E+02  0.90156436134E+02 0.  0.
         11    1    3    3    0    0 -0.58217346887E+01  0.11451952262E+02  0.31963842289E+02  0.34448904475E+02  0.51100000000E-03 0. -1.
         22    1    1    0    0    0 -0.13052092587E+01  0.25771778777E+02  0.15275735506E+02  0.29987268095E+02  0.00000000000E+00 0.  1.
</event>
<event>
 5    1  0.8902899E-005  0.9118800E+02  0.7818608E-02  0.1130116E+00
         25   -1    0    0    0    0  0.00000000000E+00  0.00000000000E+00  0.99999998245E-14  0.12500000000E+03  0.12500000000E+03 0.  0.
        -11    1    3    3    0    0 -0.20299553090E+02 -0.25245298312E+02  0.42567219520E+01  0.32672872915E+02  0.51100000000E-03 0. -1.
         23    2    1    0    0    0  0.18509645531E+02  0.19878493154E+02 -0.13343021752E+02  0.94737850419E+02  0.89774509772E+02 0.  0.
         11    1    3    3    0    0  0.38809198622E+02  0.45123791465E+02 -0.17599743704E+02  0.62064977504E+02  0.51100000000E-03 0.  1.
         22    1    1    0    0    0 -0.18509645531E+02 -0.19878493154E+02  0.13343021752E+02  0.30262149581E+02  0.00000000000E+00 0.  1.
</event>
<event>
 5    1  0.8902899E-005  0.9118800E+02  0.7818608E-02  0.1130116E+00
         25   -1    0    0    0    0  0.00000000000E+00  0.00000000000E+00  0.99999998245E-14  0.12500000000E+03  0.12500000000E+03 0.  0.
        -11    1    3    3    0    0 -0.49901253272E+01 -0.57643921678E+02  0.10117897892E+02  0.58737508588E+02  0.51100000000E-03 0.  1.
         23    2    1    0    0    0 -0.14382388324E+02 -0.26618547425E+02 -0.47034087236E+01  0.94381015456E+02  0.89276278282E+02 0.  0.
         11    1    3    3    0    0 -0.93922629973E+01  0.31025374253E+02 -0.14821306616E+02  0.35643506867E+02  0.51100000000E-03 0. -1.
         22    1    1    0    0    0  0.14382388324E+02  0.26618547425E+02  0.47034087236E+01  0.30618984544E+02  0.00000000000E+00 0.  1.
</event>
<event>
 5    1  0.8902899E-005  0.9118800E+02  0.7818608E-02  0.1130116E+00
         25   -1    0    0    0    0  0.00000000000E+00  0.00000000000E+00  0.99999998245E-14  0.12500000000E+03  0.12500000000E+03 0.  0.
        -11    1    3    3    0    0  0.82291512620E+01 -0.31672312734E+02 -0.21034851449E+02  0.38901404861E+02  0.51100000000E-03 0. -1.
         23    2    1    0    0    0 -0.31219583840E+02 -0.76400367972E+00  0.12458235833E+01  0.93746229137E+02  0.88383014682E+02 0.  0.
         11    1    3    3    0    0 -0.39448735102E+02  0.30908309054E+02  0.22280675033E+02  0.54844824276E+02  0.51100000000E-03 0.  1.
         22    1    1    0    0    0  0.31219583840E+02  0.76400367972E+00 -0.12458235833E+01  0.31253770863E+02  0.00000000000E+00 0. -1.
</event>
<event>
 5    1  0.8902899E-005  0.9118800E+02  0.7818608E-02  0.1130116E+00
         25   -1    0    0    0    0  0.00000000000E+00  0.00000000000E+00  0.99999998245E-14  0.12500000000E+03  0.12500000000E+03 0.  0.
        -11    1    3    3    0    0  0.22998238758E+02  0.25502259230E+02 -0.46549187526E+02  0.57845579532E+02  0.51100000000E-03 0.  1.
         23    2    1    0    0    0 -0.56206313054E+01  0.11455552739E+02 -0.26720081632E+02  0.95389462226E+02  0.90677260416E+02 0.  0.
         11    1    3    3    0    0 -0.28618870063E+02 -0.14046706491E+02  0.19829105894E+02  0.37543882694E+02  0.51100000000E-03 0. -1.
         22    1    1    0    0    0  0.56206313054E+01 -0.11455552739E+02  0.26720081632E+02  0.29610537774E+02  0.00000000000E+00 0.  1.
</event>
<event>
 5    1  0.8902899E-005  0.9118800E+02  0.7818608E-02  0.1130116E+00
         25   -1    0    0    0    0  0.00000000000E+00  0.00000000000E+00  0.99999998245E-14  0.12500000000E+03  0.12500000000E+03 0.  0.
        -11    1    3    3    0    0  0.27034931047E+02 -0.24374782126E+02 -0.19180198448E+02  0.41144835802E+02  0.51100000000E-03 0. -1.
         23    2    1    0    0    0 -0.14029512751E+02 -0.16328091944E+02  0.17859674576E+02  0.97028554014E+02  0.92909302567E+02 0.  0.
         11    1    3    3    0    0 -0.41064443798E+02  0.80466901819E+01  0.37039873024E+02  0.55883718213E+02  0.51100000000E-03 0.  1.
         22    1    1    0    0    0  0.14029512751E+02  0.16328091944E+02 -0.17859674576E+02  0.27971445986E+02  0.00000000000E+00 0.  1.
</event>
<event>
 5    1  0.8902899E-005  0.9118800E+02  0.7818608E-02  0.1130116E+00
         25   -1    0    0    0    0  0.00000000000E+00  0.00000000000E+00  0.99999998245E-14  0.12500000000E+03  0.12500000000E+03 0.  0.
        -11    1    3    3    0    0 -0.12435556773E+02 -0.32910202329E+02 -0.31281446634E+02  0.47077100520E+02  0.51100000000E-03 0.  1.
         23    2    1    0    0    0 -0.30142361691E+02 -0.40258729876E+01  0.19414183402E+01  0.94528066573E+02  0.89481934731E+02 0.  0.
         11    1    3    3    0    0 -0.17706804918E+02  0.28884329342E+02  0.33222864975E+02  0.47450966053E+02  0.51100000000E-03 0. -1.
         22    1    1    0    0    0  0.30142361691E+02  0.40258729876E+01 -0.19414183402E+01  0.30471933427E+02  0.00000000000E+00 0. -1.
</event>
<event>
 5    1  0.8902899E-005  0.9118800E+02  0.7818608E-02  0.1130116E+00
         25   -1    0    0    0    0  0.00000000000E+00  0.00000000000E+00  0.99999998245E-14  0.12500000000E+03  0.12500000000E+03 0.  0.
        -11    1    3    3    0    0 -0.29616352183E+02 -0.46706626699E+02  0.98386549262E+01  0.56173271449E+02  0.51100000000E-03 0. -1.
         23    2    1    0    0    0 -0.15935513577E+02 -0.18836488330E+02 -0.15167126954E+02  0.96038031392E+02  0.91566958276E+02 0.  0.
         11    1    3    3    0    0  0.13680838605E+02  0.27870138369E+02 -0.25005781881E+02  0.39864759943E+02  0.51100000000E-03 0.  1.
         22    1    1    0    0    0  0.15935513577E+02  0.18836488330E+02  0.15167126954E+02  0.28961968608E+02  0.00000000000E+00 0. -1.
</event>
<event>
 5    1  0.8902899E-005  0.9118800E+02  0.7818608E-02  0.1130116E+00
         25   -1    0    0    0    0  0.00000000000E+00  0.00000000000E+00  0.99999998245E-14  0.12500000000E+03  0.12500000000E+03 0.  0.
        -11    1    3    3    0    0 -0.27110602637E+02 -0.32526047196E+01 -0.16931046759E+02  0.32128251702E+02  0.51100000000E-03 0. -1.
         23    2    1    0    0    0  0.24923948797E+02 -0.11566913695E+02  0.14952448579E+02  0.93717857577E+02  0.88342879703E+02 0.  0.
         11    1    3    3    0    0  0.52034551434E+02 -0.83143089750E+01  0.31883495337E+02  0.61589605875E+02  0.51100000000E-03 0.  1.
         22    1    1    0    0    0 -0.24923948797E+02  0.11566913695E+02 -0.14952448579E+02  0.31282142423E+02  0.00000000000E+00 0.  1.
</event>
<event>
 5    1  0.8902899E-005  0.9118800E+02  0.7818608E-02  0.1130116E+00
         25   -1    0    0    0    0  0.00000000000E+00  0.00000000000E+00  0.99999998245E-14  0.12500000000E+03  0.12500000000E+03 0.  0.
        -11    1    3    3    0    0 -0.38317884508E+02  0.40187756047E+02  0.18854354179E+02  0.58641305247E+02  0.51100000000E-03 0.  1.
         23    2    1    0    0    0 -0.24071658532E+02  0.17145884246E+02  0.24850081836E+02  0.86387143872E+02  0.77277331528E+02 0.  0.
         11    1    3    3    0    0  0.14246225976E+02 -0.23041871800E+02  0.59957276575E+01  0.27745838626E+02  0.51100000000E-03 0. -1.
         22    1    1    0    0    0  0.24071658532E+02 -0.17145884246E+02 -0.24850081836E+02  0.38612856128E+02  0.00000000000E+00 0.  1.
</event>
<event>
 5    1  0.8902899E-005  0.9118800E+02  0.7818608E-02  0.1130116E+00
         25   -1    0    0    0    0  0.00000000000E+00  0.00000000000E+00  0.99999998245E-14  0.12500000000E+03  0.12500000000E+03 0.  0.
        -11    1    3    3    0    0  0.21584543536E+02  0.13996001781E+02 -0.55250704301E+02  0.60946049187E+02  0.51100000000E-03 0. -1.
         23    2    1    0    0    0  0.71468104965E+00  0.35895619558E+01 -0.27777339416E+02  0.96982571334E+02  0.92847416945E+02 0.  0.
         11    1    3    3    0    0 -0.20869862486E+02 -0.10406439825E+02  0.27473364885E+02  0.36036522146E+02  0.51100000000E-03 0.  1.
         22    1    1    0    0    0 -0.71468104965E+00 -0.35895619558E+01  0.27777339416E+02  0.28017428666E+02  0.00000000000E+00 0. -1.
</event>
<event>
 5    1  0.8902899E-005  0.9118800E+02  0.7818608E-02  0.1130116E+00
         25   -1    0    0    0    0  0.00000000000E+00  0.00000000000E+00  0.99999998245E-14  0.12500000000E+03  0.12500000000E+03 0.  0.
        -11    1    3    3    0    0  0.31361523698E+02 -0.42356283404E+01  0.34839847197E+02  0.47066980667E+02  0.51100000000E-03 0. -1.
         23    2    1    0    0    0  0.16747535964E+02  0.24788367159E+02 -0.50561009092E+00  0.95080127860E+02  0.90249830831E+02 0.  0.
         11    1    3    3    0    0 -0.14613987734E+02  0.29023995500E+02 -0.35345457288E+02  0.48013147194E+02  0.51100000000E-03 0.  1.
         22    1    1    0    0    0 -0.16747535964E+02 -0.24788367159E+02  0.50561009092E+00  0.29919872140E+02  0.00000000000E+00 0.  1.
</event>
<event>
 5    1  0.8902899E-005  0.9118800E+02  0.7818608E-02  0.1130116E+00
         25   -1    0    0    0    0  0.00000000000E+00  0.00000000000E+00  0.99999998245E-14  0.12500000000E+03  0.12500000000E+03 0.  0.
        -11    1    3    3    0    0 -0.25628081558E+01 -0.50641175462E+02 -0.32555196524E+02  0.60257260631E+02  0.51100000000E-03 0. -1.
         23    2    1    0    0    0 -0.11588986759E+02 -0.25519594013E+02 -0.98803957300E+01  0.95281714173E+02  0.90528606215E+02 0.  0.
         11    1    3    3    0    0 -0.90261786034E+01  0.25121581448E+02  0.22674800794E+02  0.35024453542E+02  0.51100000000E-03 0.  1.
         22    1    1    0    0    0  0.11588986759E+02  0.25519594013E+02  0.98803957300E+01  0.29718285827E+02  0.00000000000E+00 0. -1.
</event>
<event>
 5    1  0.8902899E-005  0.9118800E+02  0.7818608E-02  0.1130116E+00
         25   -1    0    0    0    0  0.00000000000E+00  0.00000000000E+00  0.99999998245E-14  0.12500000000E+03  0.12500000000E+03 0.  0.
        -11    1    3    3    0    0 -0.12927861418E+02  0.44351073464E+02 -0.10702722628E+02  0.47420413222E+02  0.51100000000E-03 0.  1.
         23    2    1    0    0    0  0.16758016596E+02  0.51741861459E+01 -0.20998272180E+02  0.97640709859E+02  0.93729277521E+02 0.  0.
         11    1    3    3    0    0  0.29685878014E+02 -0.39176887318E+02 -0.10295549552E+02  0.50220296636E+02  0.51100000000E-03 0. -1.
         22    1    1    0    0    0 -0.16758016596E+02 -0.51741861459E+01  0.20998272180E+02  0.27359290141E+02  0.00000000000E+00 0. -1.
</event>
<event>
 5    1  0.8902899E-005  0.9118800E+02  0.7818608E-02  0.1130116E+00
         25   -1    0    0    0    0  0.00000000000E+00  0.00000000000E+00  0.99999998245E-14  0.12500000000E+03  0.12500000000E+03 0.  0.
        -11    1    3    3    0    0  0.88704581413E+01 -0.39597087046E+02 -0.12036197896E+02  0.42325930471E+02  0.51100000000E-03 0. -1.
         23    2    1    0    0    0  0.19630337095E+02 -0.34383808981E+01  0.23523654721E+02  0.94169253511E+02  0.88979286228E+02 0.  0.
         11    1    3    3    0    0  0.10759878953E+02  0.36158706148E+02  0.35559852617E+02  0.51843323040E+02  0.51100000000E-03 0.  1.
         22    1    1    0    0    0 -0.19630337095E+02  0.34383808981E+01 -0.23523654721E+02  0.30830746489E+02  0.00000000000E+00 0.  1.
</event>
<event>
 5    1  0.8902899E-005  0.9118800E+02  0.7818608E-02  0.1130116E+00
         25   -1    0    0    0    0  0.00000000000E+00  0.00000000000E+00  0.99999998245E-14  0.12500000000E+03  0.12500000000E+03 0.  0.
        -11    1    3    3    0    0 -0.38281949625E+02 -0.19524179197E+02  0.70789565007E+01  0.43552415155E+02  0.51100000000E-03 0. -1.
         23    2    1    0    0    0  0.65083925603E+01  0.17803650705E+02 -0.89734096183E+01  0.10402736945E+03  0.10189132623E+03 0.  0.
         11    1    3    3    0    0  0.44790342186E+02  0.37327829902E+02 -0.16052366119E+02  0.60474954292E+02  0.51100000000E-03 0.  1.
         22    1    1    0    0    0 -0.65083925603E+01 -0.17803650705E+02  0.89734096183E+01  0.20972630553E+02  0.00000000000E+00 0.  1.
</event>
<event>
 5    1  0.8902899E-005  0.9118800E+02  0.7818608E-02  0.1130116E+00
         25   -1    0    0    0    0  0.00000000000E+00  0.00000000000E+00  0.99999998245E-14  0.12500000000E+03  0.12500000000E+03 0.  0.
        -11    1    3    3    0    0 -0.28118896159E+02  0.36319697331E+02  0.97360511792E+01  0.46952991686E+02  0.51100000000E-03 0. -1.
         23    2    1    0    0    0  0.40097500922E+01  0.87899169621E+01  0.29722932707E+02  0.93746304783E+02  0.88383121668E+02 0.  0.
         11    1    3    3    0    0  0.32128646251E+02 -0.27529780369E+02  0.19986881528E+02  0.46793313097E+02  0.51100000000E-03 0.  1.
         22    1    1    0    0    0 -0.40097500922E+01 -0.87899169621E+01 -0.29722932707E+02  0.31253695217E+02  0.00000000000E+00 0.  1.
</event>
<event>
 5    1  0.8902899E-005  0.9118800E+02  0.7818608E-02  0.1130116E+00
         25   -1    0    0    0    0  0.00000000000E+00  0.00000000000E+00  0.99999998245E-14  0.12500000000E+03  0.12500000000E+03 0.  0.
        -11    1    3    3    0    0 -0.18803124123E+02  0.40816925131E+02  0.24656209670E+02  0.51259218971E+02  0.51100000000E-03 0.  1.
         23    2    1    0    0    0 -0.23246836488E+02  0.17460906526E+02 -0.10830653116E+02  0.93974176718E+02  0.88704814862E+02 0.  0.
         11    1    3    3    0    0 -0.44437123651E+01 -0.23356018606E+02 -0.35486862786E+02  0.42714957747E+02  0.51100000000E-03 0. -1.
         22    1    1    0    0    0  0.23246836488E+02 -0.17460906526E+02  0.10830653116E+02  0.31025823282E+02  0.00000000000E+00 0.  1.
</event>
<event>
 5    1  0.8902899E-005  0.9118800E+02  0.7818608E-02  0.1130116E+00
         25   -1    0    0    0    0  0.00000000000E+00  0.00000000000E+00  0.99999998245E-14  0.12500000000E+03  0.12500000000E+03 0.  0.
        -11    1    3    3    0    0 -0.21400286373E+02 -0.28665529014E+02  0.30054478446E+01  0.35898712059E+02  0.51100000000E-03 0. -1.
         23    2    1    0    0    0  0.50555045817E+01  0.10960176096E+02 -0.29197258864E+02  0.93406274171E+02  0.87900901831E+02 0.  0.
         11    1    3    3    0    0  0.26455790955E+02  0.39625705110E+02 -0.32202706708E+02  0.57507562112E+02  0.51100000000E-03 0.  1.
         22    1    1    0    0    0 -0.50555045817E+01 -0.10960176096E+02  0.29197258864E+02  0.31593725829E+02  0.00000000000E+00 0.  1.
</event>
<event>
 5    1  0.8902899E-005  0.9118800E+02  0.7818608E-02  0.1130116E+00
         25   -1    0    0    0    0  0.00000000000E+00  0.00000000000E+00  0.99999998245E-14  0.12500000000E+03  0.12500000000E+03 0.  0.
        -11    1    3    3    0    0 -0.31322945084E+01  0.51749028793E+01  0.32917871615E+02  0.33469047799E+02  0.51100000000E-03 0.  1.
         23    2    1    0    0    0  0.78497263970E+01 -0.11303711103E+02 -0.25976319483E+02  0.95603380074E+02  0.90971671516E+02 0.  0.
         11    1    3    3    0    0  0.10982020905E+02 -0.16478613982E+02 -0.58894191097E+02  0.62134332275E+02  0.51100000000E-03 0. -1.
         22    1    1    0    0    0 -0.78497263970E+01  0.11303711103E+02  0.25976319483E+02  0.29396619926E+02  0.00000000000E+00 0. -1.
</event>
<event>
 5    1  0.8902899E-005  0.9118800E+02  0.7818608E-02  0.1130116E+00
         25   -1    0    0    0    0  0.00000000000E+00  0.00000000000E+00  0.99999998245E-14  0.12500000000E+03  0.12500000000E+03 0.  0.
        -11    1    3    3    0    0  0.18237903046E+02 -0.73654653131E+01 -0.27159653571E+02  0.33533833201E+02  0.51100000000E-03 0. -1.
         23    2    1    0    0    0 -0.18491927444E+02  0.20336825652E+02  0.12992624648E+02  0.94596938420E+02  0.89578092215E+02 0.  0.
         11    1    3    3    0    0 -0.36729830490E+02  0.27702290966E+02  0.40152278219E+02  0.61063105219E+02  0.51100000000E-03 0.  1.
         22    1    1    0    0    0  0.18491927444E+02 -0.20336825652E+02 -0.12992624648E+02  0.30403061580E+02  0.00000000000E+00 0.  1.
</event>
<event>
 5    1  0.8902899E-005  0.9118800E+02  0.7818608E-02  0.1130116E+00
         25   -1    0    0    0    0  0.00000000000E+00  0.00000000000E+00  0.99999998245E-14  0.12500000000E+03  0.12500000000E+03 0.  0.
        -11    1    3    3    0    0 -0.18327234215E+01  0.78524064941E+01  0.49119464334E+02  0.49776911712E+02  0.51100000000E-03 0.  1.
         23    2    1    0    0    0  0.18235326170E+02  0.20578207226E+02  0.96255929242E+01  0.95868543251E+02  0.91335293358E+02 0.  0.
         11    1    3    3    0    0  0.20068049592E+02  0.12725800732E+02 -0.39493871410E+02  0.46091631539E+02  0.51100000000E-03 0. -1.
         22    1    1    0    0    0 -0.18235326170E+02 -0.20578207226E+02 -0.96255929242E+01  0.29131456749E+02  0.00000000000E+00 0. -1.
</event>
<event>
 5    1  0.8902899E-005  0.9118800E+02  0.7818608E-02  0.1130116E+00
         25   -1    0    0    0    0  0.00000000000E+00  0.00000000000E+00  0.99999998245E-14  0.12500000000E+03  0.12500000000E+03 0.  0.
        -11    1    3    3    0    0  0.19599288328E+02 -0.26031516543E+02 -0.17744042807E+02  0.37102870669E+02  0.51100000000E-03 0. -1.
         23    2    1    0    0    0  0.13156076825E+02  0.11033434363E+02  0.25397021894E+02  0.94343389744E+02  0.89223581166E+02 0.  0.
         11    1    3    3    0    0 -0.64432115032E+01  0.37064950906E+02  0.43141064702E+02  0.57240519075E+02  0.51100000000E-03 0.  1.
         22    1    1    0    0    0 -0.13156076825E+02 -0.11033434363E+02 -0.25397021894E+02  0.30656610256E+02  0.00000000000E+00 0.  1.
</event>
<event>
 5    1  0.8902899E-005  0.9118800E+02  0.7818608E-02  0.1130116E+00
         25   -1    0    0    0    0  0.00000000000E+00  0.00000000000E+00  0.99999998245E-14  0.12500000000E+03  0.12500000000E+03 0.  0.
        -11    1    3    3    0    0 -0.28661683746E+02  0.48427109363E+01  0.46267194377E+02  0.54640618958E+02  0.51100000000E-03 0.  1.
         23    2    1    0    0    0 -0.27295940509E+02  0.79132510897E+01  0.48797676790E+01  0.96164257532E+02  0.91739110432E+02 0.  0.
         11    1    3    3    0    0  0.13657432365E+01  0.30705401534E+01 -0.41387426698E+02  0.41523638573E+02  0.51100000000E-03 0. -1.
         22    1    1    0    0    0  0.27295940509E+02 -0.79132510897E+01 -0.48797676790E+01  0.28835742468E+02  0.00000000000E+00 0.  1.
</event>
<event>
 5    1  0.8902899E-005  0.9118800E+02  0.7818608E-02  0.1130116E+00
         25   -1    0    0    0    0  0.00000000000E+00  0.00000000000E+00  0.99999998245E-14  0.12500000000E+03  0.12500000000E+03 0.  0.
        -11    1    3    3    0    0  0.49244098514E+02 -0.17312114479E+02  0.67267687579E+01  0.52630219117E+02  0.51100000000E-03 0. -1.
         23    2    1    0    0    0  0.91536848347E+01 -0.16797850335E+02  0.22279221407E+02  0.95634690050E+02  0.91014682950E+02 0.  0.
         11    1    3    3    0    0 -0.40090413679E+02  0.51426414338E+00  0.15552452649E+02  0.43004470933E+02  0.51100000000E-03 0.  1.
         22    1    1    0    0    0 -0.91536848347E+01  0.16797850335E+02 -0.22279221407E+02  0.29365309950E+02  0.00000000000E+00 0. -1.
</event>
<event>
 5    1  0.8902899E-005  0.9118800E+02  0.7818608E-02  0.1130116E+00
         25   -1    0    0    0    0  0.00000000000E+00  0.00000000000E+00  0.99999998245E-14  0.12500000000E+03  0.12500000000E+03 0.  0.
        -11    1    3    3    0    0  0.54968601966E+02 -0.61553168504E+00 -0.82296092843E+01  0.55584643118E+02  0.51100000000E-03 0.  1.
         23    2    1    0    0    0  0.23174645654E+02 -0.87349573764E+01  0.15232966386E+02  0.95924117443E+02  0.91411319654E+02 0.  0.
         11    1    3    3    0    0 -0.31793956312E+02 -0.81194256913E+01  0.23462575670E+02  0.40339474325E+02  0.51100000000E-03 0. -1.
         22    1    1    0    0    0 -0.23174645654E+02  0.87349573764E+01 -0.15232966386E+02  0.29075882557E+02  0.00000000000E+00 0.  1.
</event>
<event>
 5    1  0.8902899E-005  0.9118800E+02  0.7818608E-02  0.1130116E+00
         25   -1    0    0    0    0  0.00000000000E+00  0.00000000000E+00  0.99999998245E-14  0.12500000000E+03  0.12500000000E+03 0.  0.
        -11    1    3    3    0    0 -0.29630517103E+02  0.49147180204E+02  0.19181764456E+02  0.60509114633E+02  0.51100000000E-03 0.  1.
         23    2    1    0    0    0 -0.23331687043E+02  0.17208112850E+02  0.80866724030E+01  0.94902142291E+02  0.90002975355E+02 0.  0.
         11    1    3    3    0    0  0.62988300599E+01 -0.31939067354E+02 -0.11095092053E+02  0.34393027658E+02  0.51100000000E-03 0. -1.
         22    1    1    0    0    0  0.23331687043E+02 -0.17208112850E+02 -0.80866724030E+01  0.30097857709E+02  0.00000000000E+00 0.  1.
</event>
<event>
 5    1  0.8902899E-005  0.9118800E+02  0.7818608E-02  0.1130116E+00
         25   -1    0    0    0    0  0.00000000000E+00  0.00000000000E+00  0.99999998245E-14  0.12500000000E+03  0.12500000000E+03 0.  0.
        -11    1    3    3    0    0 -0.39201865228E+02  0.18238594596E+02 -0.29646519854E+02  0.52424695611E+02  0.51100000000E-03 0. -1.
         23    2    1    0    0    0 -0.99425299560E+01  0.23978936678E+02  0.54483882281E+01  0.98475893221E+02  0.94836561016E+02 0.  0.
         11    1    3    3    0    0  0.29259335272E+02  0.57403420820E+01  0.35094908082E+02  0.46051197610E+02  0.51100000000E-03 0.  1.
         22    1    1    0    0    0  0.99425299560E+01 -0.23978936678E+02 -0.54483882281E+01  0.26524106779E+02  0.00000000000E+00 0. -1.
</event>
<event>
 5    1  0.8902899E-005  0.9118800E+02  0.7818608E-02  0.1130116E+00
         25   -1    0    0    0    0  0.00000000000E+00  0.00000000000E+00  0.99999998245E-14  0.12500000000E+03  0.12500000000E+03 0.  0.
        -11    1    3    3    0    0  0.16868378961E+02  0.59210065855E+02  0.24319965036E+00  0.61566494570E+02  0.51100000000E-03 0. -1.
         23    2    1    0    0    0  0.15716045974E+01  0.26390191126E+02  0.50226490753E+01  0.98090166623E+02  0.94326781222E+02 0.  0.
         11    1    3    3    0    0 -0.15296774363E+02 -0.32819874729E+02  0.47794494250E+01  0.36523672053E+02  0.51100000000E-03 0.  1.
         22    1    1    0    0    0 -0.15716045974E+01 -0.26390191126E+02 -0.50226490753E+01  0.26909833377E+02  0.00000000000E+00 0. -1.
</event>
<event>
 5    1  0.8902899E-005  0.9118800E+02  0.7818608E-02  0.1130116E+00
         25   -1    0    0    0    0  0.00000000000E+00  0.00000000000E+00  0.99999998245E-14  0.12500000000E+03  0.12500000000E+03 0.  0.
        -11    1    3    3    0    0 -0.10450435389E+02 -0.60551416528E+02 -0.83561223411E+01  0.62012179644E+02  0.51100000000E-03 0.  1.
         23    2    1    0    0    0 -0.98335029771E+01 -0.24904371751E+02 -0.32664198204E+01  0.98026030853E+02  0.94241751434E+02 0.  0.
         11    1    3    3    0    0  0.61693241145E+00  0.35647044777E+02  0.50897025207E+01  0.36013851210E+02  0.51100000000E-03 0. -1.
         22    1    1    0    0    0  0.98335029771E+01  0.24904371751E+02  0.32664198204E+01  0.26973969147E+02  0.00000000000E+00 0.  1.
</event>
<event>
 5    1  0.8902899E-005  0.9118800E+02  0.7818608E-02  0.1130116E+00
         25   -1    0    0    0    0  0.00000000000E+00  0.00000000000E+00  0.99999998245E-14  0.12500000000E+03  0.12500000000E+03 0.  0.
        -11    1    3    3    0    0  0.20271625767E+02 -0.61534035570E+01 -0.27124902329E+02  0.34417488479E+02  0.51100000000E-03 0.  1.
         23    2    1    0    0    0 -0.10659261026E+02  0.18239287471E+02  0.20048722654E+02  0.95875392997E+02  0.91344667327E+02 0.  0.
         11    1    3    3    0    0 -0.30930886793E+02  0.24392691028E+02  0.47173624983E+02  0.61457904517E+02  0.51100000000E-03 0. -1.
         22    1    1    0    0    0  0.10659261026E+02 -0.18239287471E+02 -0.20048722654E+02  0.29124607003E+02  0.00000000000E+00 0. -1.
</event>
<event>
 5    1  0.8902899E-005  0.9118800E+02  0.7818608E-02  0.1130116E+00
         25   -1    0    0    0    0  0.00000000000E+00  0.00000000000E+00  0.99999998245E-14  0.12500000000E+03  0.12500000000E+03 0.  0.
        -11    1    3    3    0    0  0.43183774509E+02 -0.40641311067E+02 -0.72974283171E+01  0.59747861939E+02  0.51100000000E-03 0. -1.
         23    2    1    0    0    0  0.14696175651E+02 -0.19221893507E+02 -0.15425891840E+02  0.96304758098E+02  0.91930351487E+02 0.  0.
         11    1    3    3    0    0 -0.28487598858E+02  0.21419417560E+02 -0.81284635226E+01  0.36556896159E+02  0.51100000000E-03 0.  1.
         22    1    1    0    0    0 -0.14696175651E+02  0.19221893507E+02  0.15425891840E+02  0.28695241902E+02  0.00000000000E+00 0. -1.
</event>
<event>
 5    1  0.8902899E-005  0.9118800E+02  0.7818608E-02  0.1130116E+00
         25   -1    0    0    0    0  0.00000000000E+00  0.00000000000E+00  0.99999998245E-14  0.12500000000E+03  0.12500000000E+03 0.  0.
        -11    1    3    3    0    0  0.37084568440E+02 -0.30769455724E+02  0.27162521706E+01  0.48263885547E+02  0.51100000000E-03 0. -1.
         23    2    1    0    0    0  0.40170739685E+01 -0.16037733633E+02 -0.25806886256E+02  0.94351326920E+02  0.89234700257E+02 0.  0.
         11    1    3    3    0    0 -0.33067494471E+02  0.14731722092E+02 -0.28523138426E+02  0.46087441373E+02  0.51100000000E-03 0.  1.
         22    1    1    0    0    0 -0.40170739685E+01  0.16037733633E+02  0.25806886256E+02  0.30648673080E+02  0.00000000000E+00 0. -1.
</event>
<event>
 5    1  0.8902899E-005  0.9118800E+02  0.7818608E-02  0.1130116E+00
         25   -1    0    0    0    0  0.00000000000E+00  0.00000000000E+00  0.99999998245E-14  0.12500000000E+03  0.12500000000E+03 0.  0.
        -11    1    3    3    0    0  0.11331166212E+02  0.35837953346E+02  0.28337280744E+02  0.47071814369E+02  0.51100000000E-03 0.  1.
         23    2    1    0    0    0 -0.96144972893E+01 -0.67921775341E+01  0.28060326997E+02  0.94570504688E+02  0.89541198183E+02 0.  0.
         11    1    3    3    0    0 -0.20945663501E+02 -0.42630130880E+02 -0.27695374686E+00  0.47498690319E+02  0.51100000000E-03 0. -1.
         22    1    1    0    0    0  0.96144972893E+01  0.67921775341E+01 -0.28060326997E+02  0.30429495312E+02  0.00000000000E+00 0. -1.
</event>
<event>
 5    1  0.8902899E-005  0.9118800E+02  0.7818608E-02  0.1130116E+00
         25   -1    0    0    0    0  0.00000000000E+00  0.00000000000E+00  0.99999998245E-14  0.12500000000E+03  0.12500000000E+03 0.  0.
        -11    1    3    3    0    0 -0.10101092678E+02  0.11339141558E+02 -0.67743379178E+01  0.16628284910E+02  0.51100000000E-03 0. -1.
         23    2    1    0    0    0  0.53927224422E+01 -0.43875947005E+02  0.15507710364E+02  0.78152702728E+02  0.62555380921E+02 0.  0.
         11    1    3    3    0    0  0.15493815121E+02 -0.55215088563E+02  0.22282048282E+02  0.61524417818E+02  0.51100000000E-03 0.  1.
         22    1    1    0    0    0 -0.53927224422E+01  0.43875947005E+02 -0.15507710364E+02  0.46847297272E+02  0.00000000000E+00 0.  1.
</event>
<event>
 5    1  0.8902899E-005  0.9118800E+02  0.7818608E-02  0.1130116E+00
         25   -1    0    0    0    0  0.00000000000E+00  0.00000000000E+00  0.99999998245E-14  0.12500000000E+03  0.12500000000E+03 0.  0.
        -11    1    3    3    0    0  0.31160654109E+02  0.10861225198E+02  0.16406702013E+02  0.36852848581E+02  0.51100000000E-03 0. -1.
         23    2    1    0    0    0 -0.24374451391E+02  0.17136354034E+02 -0.36058458479E+00  0.95202373728E+02  0.90418988227E+02 0.  0.
         11    1    3    3    0    0 -0.55535105500E+02  0.62751288355E+01 -0.16767286598E+02  0.58349525148E+02  0.51100000000E-03 0.  1.
         22    1    1    0    0    0  0.24374451391E+02 -0.17136354034E+02  0.36058458479E+00  0.29797626272E+02  0.00000000000E+00 0.  1.
</event>
<event>
 5    1  0.8902899E-005  0.9118800E+02  0.7818608E-02  0.1130116E+00
         25   -1    0    0    0    0  0.00000000000E+00  0.00000000000E+00  0.99999998245E-14  0.12500000000E+03  0.12500000000E+03 0.  0.
        -11    1    3    3    0    0 -0.11752327162E+02  0.57645662865E+02  0.72152413641E+01  0.59272247714E+02  0.51100000000E-03 0. -1.
         23    2    1    0    0    0 -0.11971976539E+02  0.30751459079E+02 -0.91502384000E+01  0.90755185495E+02  0.84046394174E+02 0.  0.
         11    1    3    3    0    0 -0.21964937785E+00 -0.26894203786E+02 -0.16365479764E+02  0.31482937781E+02  0.51100000000E-03 0.  1.
         22    1    1    0    0    0  0.11971976539E+02 -0.30751459079E+02  0.91502384000E+01  0.34244814505E+02  0.00000000000E+00 0. -1.
</event>
<event>
 5    1  0.8902899E-005  0.9118800E+02  0.7818608E-02  0.1130116E+00
         25   -1    0    0    0    0  0.00000000000E+00  0.00000000000E+00  0.99999998245E-14  0.12500000000E+03  0.12500000000E+03 0.  0.
        -11    1    3    3    0    0 -0.32925991225E+02 -0.23566865326E+01  0.50840091630E+02  0.60616745102E+02  0.51100000000E-03 0.  1.
         23    2    1    0    0    0 -0.13933351370E+02  0.96166047670E+01  0.24375885515E+02  0.95321705536E+02  0.90583808620E+02 0.  0.
         11    1    3    3    0    0  0.18992639855E+02  0.11973291300E+02 -0.26464206115E+02  0.34704960434E+02  0.51100000000E-03 0. -1.
         22    1    1    0    0    0  0.13933351370E+02 -0.96166047670E+01 -0.24375885515E+02  0.29678294464E+02  0.00000000000E+00 0.  1.
</event>
<event>
 5    1  0.8902899E-005  0.9118800E+02  0.7818608E-02  0.1130116E+00
         25   -1    0    0    0    0  0.00000000000E+00  0.00000000000E+00  0.99999998245E-14  0.12500000000E+03  0.12500000000E+03 0.  0.
        -11    1    3    3    0    0 -0.25495108050E+02  0.18139643694E+02 -0.15295494320E+02  0.34828140269E+02  0.51100000000E-03 0. -1.
         23    2    1    0    0    0  0.13868716660E+02 -0.23234170924E+02  0.84158409576E+01  0.96662844544E+02  0.92415967971E+02 0.  0.
         11    1    3    3    0    0  0.39363824710E+02 -0.41373814618E+02  0.23711335278E+02  0.61834704275E+02  0.51100000000E-03 0.  1.
         22    1    1    0    0    0 -0.13868716660E+02  0.23234170924E+02 -0.84158409576E+01  0.28337155456E+02  0.00000000000E+00 0.  1.
</event>
<event>
 5    1  0.8902899E-005  0.9118800E+02  0.7818608E-02  0.1130116E+00
         25   -1    0    0    0    0  0.00000000000E+00  0.00000000000E+00  0.99999998245E-14  0.12500000000E+03  0.12500000000E+03 0.  0.
        -11    1    3    3    0    0  0.18625176012E+02  0.13146949494E+02  0.56602491264E+02  0.61021156004E+02  0.51100000000E-03 0.  1.
         23    2    1    0    0    0  0.64151775062E+01 -0.36501248767E+01  0.25763811071E+02  0.98199778453E+02  0.94471925001E+02 0.  0.
         11    1    3    3    0    0 -0.12209998506E+02 -0.16797074371E+02 -0.30838680193E+02  0.37178622450E+02  0.51100000000E-03 0. -1.
         22    1    1    0    0    0 -0.64151775062E+01  0.36501248767E+01 -0.25763811071E+02  0.26800221547E+02  0.00000000000E+00 0.  1.
</event>
<event>
 5    1  0.8902899E-005  0.9118800E+02  0.7818608E-02  0.1130116E+00
         25   -1    0    0    0    0  0.00000000000E+00  0.00000000000E+00  0.99999998245E-14  0.12500000000E+03  0.12500000000E+03 0.  0.
        -11    1    3    3    0    0 -0.95507196094E-01  0.37561431721E+02  0.33868787143E+02  0.50576328627E+02  0.51100000000E-03 0. -1.
         23    2    1    0    0    0  0.19156533585E+02  0.27758319679E+02 -0.61365575358E+00  0.91267616986E+02  0.84805095641E+02 0.  0.
         11    1    3    3    0    0  0.19252040781E+02 -0.98031120421E+01 -0.34482442897E+02  0.40691288359E+02  0.51100000000E-03 0.  1.
         22    1    1    0    0    0 -0.19156533585E+02 -0.27758319679E+02  0.61365575358E+00  0.33732383014E+02  0.00000000000E+00 0. -1.
</event>
<event>
 5    1  0.8902899E-005  0.9118800E+02  0.7818608E-02  0.1130116E+00
         25   -1    0    0    0    0  0.00000000000E+00  0.00000000000E+00  0.99999998245E-14  0.12500000000E+03  0.12500000000E+03 0.  0.
        -11    1    3    3    0    0 -0.20752094737E+02  0.54853566173E+02 -0.15782810961E+02  0.60734341850E+02  0.51100000000E-03 0.  1.
         23    2    1    0    0    0 -0.27799653339E+01  0.24374927734E+02 -0.15235072614E+02  0.96121413697E+02  0.91680714571E+02 0.  0.
         11    1    3    3    0    0  0.17972129403E+02 -0.30478638439E+02  0.54773834659E+00  0.35387071847E+02  0.51100000000E-03 0. -1.
         22    1    1    0    0    0  0.27799653339E+01 -0.24374927734E+02  0.15235072614E+02  0.28878586303E+02  0.00000000000E+00 0.  1.
</event>
<event>
 5    1  0.8902899E-005  0.9118800E+02  0.7818608E-02  0.1130116E+00
         25   -1    0    0    0    0  0.00000000000E+00  0.00000000000E+00  0.99999998245E-14  0.12500000000E+03  0.12500000000E+03 0.  0.
        -11    1    3    3    0    0  0.35378690149E+02 -0.41802126277E+02  0.25827941257E+02  0.60548757442E+02  0.51100000000E-03 0.  1.
         23    2    1    0    0    0  0.20719650329E+02 -0.11601185506E+02  0.18470022898E+02  0.94916230941E+02  0.90022540151E+02 0.  0.
         11    1    3    3    0    0 -0.14659039820E+02  0.30200940771E+02 -0.73579183588E+01  0.34367473499E+02  0.51100000000E-03 0. -1.
         22    1    1    0    0    0 -0.20719650329E+02  0.11601185506E+02 -0.18470022898E+02  0.30083769059E+02  0.00000000000E+00 0.  1.
</event>
<event>
 5    1  0.8902899E-005  0.9118800E+02  0.7818608E-02  0.1130116E+00
         25   -1    0    0    0    0  0.00000000000E+00  0.00000000000E+00  0.99999998245E-14  0.12500000000E+03  0.12500000000E+03 0.  0.
        -11    1    3    3    0    0  0.46794391863E+02 -0.11457479961E+02  0.19332305530E+02  0.51910759908E+02  0.51100000000E-03 0.  1.
         23    2    1    0    0    0  0.33144553008E+01 -0.12441502971E+02  0.26073072267E+02  0.95921112340E+02  0.91407210246E+02 0.  0.
         11    1    3    3    0    0 -0.43479936562E+02 -0.98402301012E+00  0.67407667366E+01  0.44010352432E+02  0.51100000000E-03 0. -1.
         22    1    1    0    0    0 -0.33144553008E+01  0.12441502971E+02 -0.26073072267E+02  0.29078887660E+02  0.00000000000E+00 0.  1.
</event>
<event>
 5    1  0.8902899E-005  0.9118800E+02  0.7818608E-02  0.1130116E+00
         25   -1    0    0    0    0  0.00000000000E+00  0.00000000000E+00  0.99999998245E-14  0.12500000000E+03  0.12500000000E+03 0.  0.
        -11    1    3    3    0    0 -0.11101349689E+02 -0.30244405199E+02 -0.72081530327E+01  0.33013958883E+02  0.51100000000E-03 0.  1.
         23    2    1    0    0    0 -0.35716746193E+00  0.30243025465E+02 -0.13931979948E+01  0.94722794737E+02  0.89753544132E+02 0.  0.
         11    1    3    3    0    0  0.10744182227E+02  0.60487430664E+02  0.58149550379E+01  0.61708835854E+02  0.51100000000E-03 0. -1.
         22    1    1    0    0    0  0.35716746193E+00 -0.30243025465E+02  0.13931979948E+01  0.30277205263E+02  0.00000000000E+00 0. -1.
</event>
<event>
 5    1  0.8902899E-005  0.9118800E+02  0.7818608E-02  0.1130116E+00
         25   -1    0    0    0    0  0.00000000000E+00  0.00000000000E+00  0.99999998245E-14  0.12500000000E+03  0.12500000000E+03 0.  0.
        -11    1    3    3    0    0 -0.40630942572E+02 -0.58137523959E+01 -0.40526295977E+02  0.57680619597E+02  0.51100000000E-03 0.  1.
         23    2    1    0    0    0 -0.26877359389E+02 -0.10803330985E+02 -0.56699705497E+01  0.95483005334E+02  0.90806119471E+02 0.  0.
         11    1    3    3    0    0  0.13753583183E+02 -0.49895785889E+01  0.34856325427E+02  0.37802385737E+02  0.51100000000E-03 0. -1.
         22    1    1    0    0    0  0.26877359389E+02  0.10803330985E+02  0.56699705497E+01  0.29516994666E+02  0.00000000000E+00 0.  1.
</event>
<event>
 5    1  0.8902899E-005  0.9118800E+02  0.7818608E-02  0.1130116E+00
         25   -1    0    0    0    0  0.00000000000E+00  0.00000000000E+00  0.99999998245E-14  0.12500000000E+03  0.12500000000E+03 0.  0.
        -11    1    3    3    0    0 -0.22202022310E+02 -0.21077840411E+02  0.49502177481E+02  0.58203700283E+02  0.51100000000E-03 0. -1.
         23    2    1    0    0    0 -0.18101290471E+02  0.39923066237E+01  0.14431423257E+02  0.10150827367E+03  0.98752561571E+02 0.  0.
         11    1    3    3    0    0  0.41007318390E+01  0.25070147034E+02 -0.35070754224E+02  0.43304573385E+02  0.51100000000E-03 0.  1.
         22    1    1    0    0    0  0.18101290471E+02 -0.39923066237E+01 -0.14431423257E+02  0.23491726333E+02  0.00000000000E+00 0. -1.
</event>
<event>
 5    1  0.8902899E-005  0.9118800E+02  0.7818608E-02  0.1130116E+00
         25   -1    0    0    0    0  0.00000000000E+00  0.00000000000E+00  0.99999998245E-14  0.12500000000E+03  0.12500000000E+03 0.  0.
        -11    1    3    3    0    0 -0.77122626378E+01  0.30707331014E+02 -0.17737553551E+02  0.36291045442E+02  0.51100000000E-03 0. -1.
         23    2    1    0    0    0  0.13621760700E+01 -0.16322861179E+02  0.21333930559E+02  0.98103384715E+02  0.94344295952E+02 0.  0.
         11    1    3    3    0    0  0.90744387078E+01 -0.47030192194E+02  0.39071484109E+02  0.61812339273E+02  0.51100000000E-03 0.  1.
         22    1    1    0    0    0 -0.13621760700E+01  0.16322861179E+02 -0.21333930559E+02  0.26896615285E+02  0.00000000000E+00 0.  1.
</event>
<event>
 5    1  0.8902899E-005  0.9118800E+02  0.7818608E-02  0.1130116E+00
         25   -1    0    0    0    0  0.00000000000E+00  0.00000000000E+00  0.99999998245E-14  0.12500000000E+03  0.12500000000E+03 0.  0.
        -11    1    3    3    0    0  0.40810757162E+02  0.15146088498E+02 -0.10514879232E+02  0.44782637065E+02  0.51100000000E-03 0. -1.
         23    2    1    0    0    0  0.77837232707E+01 -0.25685505868E+02 -0.10861145426E+01  0.98139039398E+02  0.94391524246E+02 0.  0.
         11    1    3    3    0    0 -0.33027033891E+02 -0.40831594366E+02  0.94287646893E+01  0.53356402334E+02  0.51100000000E-03 0.  1.
         22    1    1    0    0    0 -0.77837232707E+01  0.25685505868E+02  0.10861145426E+01  0.26860960602E+02  0.00000000000E+00 0.  1.
</event>
<event>
 5    1  0.8902899E-005  0.9118800E+02  0.7818608E-02  0.1130116E+00
         25   -1    0    0    0    0  0.00000000000E+00  0.00000000000E+00  0.99999998245E-14  0.12500000000E+03  0.12500000000E+03 0.  0.
        -11    1    3    3    0    0 -0.25096951181E+02 -0.27057336789E+02 -0.58662036359E+00  0.36909355947E+02  0.51100000000E-03 0. -1.
         23    2    1    0    0    0  0.27727162831E+02  0.10867998949E+01  0.41173807045E+01  0.96947735982E+02  0.92800506439E+02 0.  0.
         11    1    3    3    0    0  0.52824114013E+02  0.28144136683E+02  0.47040010681E+01  0.60038380035E+02  0.51100000000E-03 0.  1.
         22    1    1    0    0    0 -0.27727162831E+02 -0.10867998949E+01 -0.41173807045E+01  0.28052264018E+02  0.00000000000E+00 0.  1.
</event>
<event>
 5    1  0.8902899E-005  0.9118800E+02  0.7818608E-02  0.1130116E+00
         25   -1    0    0    0    0  0.00000000000E+00  0.00000000000E+00  0.99999998245E-14  0.12500000000E+03  0.12500000000E+03 0.  0.
        -11    1    3    3    0    0 -0.35480012834E+02 -0.21052968645E+02 -0.13467491403E+02  0.43398526754E+02  0.51100000000E-03 0. -1.
         23    2    1    0    0    0 -0.14072125859E+02  0.22256388154E+02  0.96491918358E+01  0.96955777014E+02  0.92811336880E+02 0.  0.
         11    1    3    3    0    0  0.21407886975E+02  0.43309356799E+02  0.23116683239E+02  0.53557250259E+02  0.51100000000E-03 0.  1.
         22    1    1    0    0    0  0.14072125859E+02 -0.22256388154E+02 -0.96491918358E+01  0.28044222986E+02  0.00000000000E+00 0.  1.
</event>
<event>
 5    1  0.8902899E-005  0.9118800E+02  0.7818608E-02  0.1130116E+00
         25   -1    0    0    0    0  0.00000000000E+00  0.00000000000E+00  0.99999998245E-14  0.12500000000E+03  0.12500000000E+03 0.  0.
        -11    1    3    3    0    0  0.96451220637E+01  0.29979573223E+02  0.52917421454E+02  0.61579677523E+02  0.51100000000E-03 0. -1.
         23    2    1    0    0    0  0.11825594321E+02  0.12140898316E+02  0.24253417306E+02  0.95411584294E+02  0.90707750902E+02 0.  0.
         11    1    3    3    0    0  0.21804722573E+01 -0.17838674907E+02 -0.28664004148E+02  0.33831906771E+02  0.51100000000E-03 0.  1.
         22    1    1    0    0    0 -0.11825594321E+02 -0.12140898316E+02 -0.24253417306E+02  0.29588415706E+02  0.00000000000E+00 0. -1.
</event>
<event>
 5    1  0.8902899E-005  0.9118800E+02  0.7818608E-02  0.1130116E+00
         25   -1    0    0    0    0  0.00000000000E+00  0.00000000000E+00  0.99999998245E-14  0.12500000000E+03  0.12500000000E+03 0.  0.
        -11    1    3    3    0    0  0.20272425675E+02 -0.48140846586E+02 -0.24409301441E-02  0.52235164009E+02  0.51100000000E-03 0.  1.
         23    2    1    0    0    0 -0.13651761532E+02 -0.23233487401E+02 -0.11250517291E+02  0.95798293388E+02  0.91239099881E+02 0.  0.
         11    1    3    3    0    0 -0.33924187207E+02  0.24907359186E+02 -0.11248076361E+02  0.43563129379E+02  0.51100000000E-03 0. -1.
         22    1    1    0    0    0  0.13651761532E+02  0.23233487401E+02  0.11250517291E+02  0.29201706612E+02  0.00000000000E+00 0.  1.
</event>
<event>
 5    1  0.8902899E-005  0.9118800E+02  0.7818608E-02  0.1130116E+00
         25   -1    0    0    0    0  0.00000000000E+00  0.00000000000E+00  0.99999998245E-14  0.12500000000E+03  0.12500000000E+03 0.  0.
        -11    1    3    3    0    0 -0.20412011841E+02  0.12084721620E+01  0.31113752905E+02  0.37231388001E+02  0.51100000000E-03 0.  1.
         23    2    1    0    0    0  0.10757794811E+02 -0.87106740996E+01 -0.21644968284E+02  0.99307381517E+02  0.95926249689E+02 0.  0.
         11    1    3    3    0    0  0.31169806652E+02 -0.99191462616E+01 -0.52758721189E+02  0.62075993517E+02  0.51100000000E-03 0. -1.
         22    1    1    0    0    0 -0.10757794811E+02  0.87106740996E+01  0.21644968284E+02  0.25692618483E+02  0.00000000000E+00 0. -1.
</event>
<event>
 5    1  0.8902899E-005  0.9118800E+02  0.7818608E-02  0.1130116E+00
         25   -1    0    0    0    0  0.00000000000E+00  0.00000000000E+00  0.99999998245E-14  0.12500000000E+03  0.12500000000E+03 0.  0.
        -11    1    3    3    0    0 -0.38529608995E+02  0.40517114224E+02 -0.10125077428E+02  0.56821514478E+02  0.51100000000E-03 0.  1.
         23    2    1    0    0    0 -0.30254554359E+02  0.17375028118E+02  0.10130768332E+02  0.88670093194E+02  0.80885865875E+02 0.  0.
         11    1    3    3    0    0  0.82750546363E+01 -0.23142086105E+02  0.20255845759E+02  0.31848578716E+02  0.51100000000E-03 0. -1.
         22    1    1    0    0    0  0.30254554359E+02 -0.17375028118E+02 -0.10130768332E+02  0.36329906806E+02  0.00000000000E+00 0.  1.
</event>
<event>
 5    1  0.8902899E-005  0.9118800E+02  0.7818608E-02  0.1130116E+00
         25   -1    0    0    0    0  0.00000000000E+00  0.00000000000E+00  0.99999998245E-14  0.12500000000E+03  0.12500000000E+03 0.  0.
        -11    1    3    3    0    0  0.14115429118E+02 -0.29374137173E+02 -0.37183591631E+02  0.49443955755E+02  0.51100000000E-03 0. -1.
         23    2    1    0    0    0 -0.81823916590E+01  0.98275484544E+01 -0.26175889959E+02  0.95867381562E+02  0.91333703476E+02 0.  0.
         11    1    3    3    0    0 -0.22297820777E+02  0.39201685627E+02  0.11007701672E+02  0.46423425808E+02  0.51100000000E-03 0.  1.
         22    1    1    0    0    0  0.81823916590E+01 -0.98275484544E+01  0.26175889959E+02  0.29132618438E+02  0.00000000000E+00 0. -1.
</event>
<event>
 5    1  0.8902899E-005  0.9118800E+02  0.7818608E-02  0.1130116E+00
         25   -1    0    0    0    0  0.00000000000E+00  0.00000000000E+00  0.99999998245E-14  0.12500000000E+03  0.12500000000E+03 0.  0.
        -11    1    3    3    0    0 -0.14888574861E+02  0.49830188959E+02  0.11448126557E+02  0.53252013999E+02  0.51100000000E-03 0.  1.
         23    2    1    0    0    0  0.80145952660E+01  0.20817080260E+02 -0.14482722233E+02  0.98404252011E+02  0.94742086755E+02 0.  0.
         11    1    3    3    0    0  0.22903170127E+02 -0.29013108699E+02 -0.25930848790E+02  0.45152238012E+02  0.51100000000E-03 0. -1.
         22    1    1    0    0    0 -0.80145952660E+01 -0.20817080260E+02  0.14482722233E+02  0.26595747989E+02  0.00000000000E+00 0.  1.
</event>
<event>
 5    1  0.8902899E-005  0.9118800E+02  0.7818608E-02  0.1130116E+00
         25   -1    0    0    0    0  0.00000000000E+00  0.00000000000E+00  0.99999998245E-14  0.12500000000E+03  0.12500000000E+03 0.  0.
        -11    1    3    3    0    0  0.51093828690E+02  0.32690182456E+02  0.43078113629E+01  0.60809412086E+02  0.51100000000E-03 0.  1.
         23    2    1    0    0    0  0.25756339078E+02  0.13196276252E+02  0.11967600178E+02  0.93683005195E+02  0.88293551852E+02 0.  0.
         11    1    3    3    0    0 -0.25337489612E+02 -0.19493906205E+02  0.76597888150E+01  0.32873593109E+02  0.51100000000E-03 0. -1.
         22    1    1    0    0    0 -0.25756339078E+02 -0.13196276252E+02 -0.11967600178E+02  0.31316994805E+02  0.00000000000E+00 0.  1.
</event>
<event>
 5    1  0.8902899E-005  0.9118800E+02  0.7818608E-02  0.1130116E+00
         25   -1    0    0    0    0  0.00000000000E+00  0.00000000000E+00  0.99999998245E-14  0.12500000000E+03  0.12500000000E+03 0.  0.
        -11    1    3    3    0    0 -0.98812295599E+01 -0.58823894315E+02 -0.29689014880E+01  0.59721885572E+02  0.51100000000E-03 0. -1.
         23    2    1    0    0    0  0.66817348293E+01 -0.26665375309E+02  0.57140589664E+01  0.96922637400E+02  0.92766693108E+02 0.  0.
         11    1    3    3    0    0  0.16562964389E+02  0.32158519007E+02  0.86829604544E+01  0.37200751828E+02  0.51100000000E-03 0.  1.
         22    1    1    0    0    0 -0.66817348293E+01  0.26665375309E+02 -0.57140589664E+01  0.28077362600E+02  0.00000000000E+00 0. -1.
</event>
<event>
 5    1  0.8902899E-005  0.9118800E+02  0.7818608E-02  0.1130116E+00
         25   -1    0    0    0    0  0.00000000000E+00  0.00000000000E+00  0.99999998245E-14  0.12500000000E+03  0.12500000000E+03 0.  0.
        -11    1    3    3    0    0  0.14814503083E+02 -0.53158595462E+02  0.21060444026E+02  0.59066471673E+02  0.51100000000E-03 0.  1.
         23    2    1    0    0    0 -0.53729579497E+01 -0.29147688186E+02  0.31365403184E+01  0.95195733714E+02  0.90409808254E+02 0.  0.
         11    1    3    3    0    0 -0.20187461033E+02  0.24010907277E+02 -0.17923903708E+02  0.36129262040E+02  0.51100000000E-03 0. -1.
         22    1    1    0    0    0  0.53729579497E+01  0.29147688186E+02 -0.31365403184E+01  0.29804266286E+02  0.00000000000E+00 0.  1.
</event>
<event>
 5    1  0.8902899E-005  0.9118800E+02  0.7818608E-02  0.1130116E+00
         25   -1    0    0    0    0  0.00000000000E+00  0.00000000000E+00  0.99999998245E-14  0.12500000000E+03  0.12500000000E+03 0.  0.
        -11    1    3    3    0    0 -0.22674664666E+02 -0.19491978468E+02 -0.88476177468E+01  0.31182655153E+02  0.51100000000E-03 0.  1.
         23    2    1    0    0    0 -0.20000908626E+01 -0.11550286339E+02  0.39197772759E+02  0.84086984134E+02  0.73462548509E+02 0.  0.
         11    1    3    3    0    0  0.20674573804E+02  0.79416921291E+01  0.48045390506E+02  0.52904328981E+02  0.51100000000E-03 0. -1.
         22    1    1    0    0    0  0.20000908626E+01  0.11550286339E+02 -0.39197772759E+02  0.40913015866E+02  0.00000000000E+00 0. -1.
</event>
<event>
 5    1  0.8902899E-005  0.9118800E+02  0.7818608E-02  0.1130116E+00
         25   -1    0    0    0    0  0.00000000000E+00  0.00000000000E+00  0.99999998245E-14  0.12500000000E+03  0.12500000000E+03 0.  0.
        -11    1    3    3    0    0 -0.35872118221E+01  0.43835351161E+02  0.41548452424E+02  0.60503553607E+02  0.51100000000E-03 0.  1.
         23    2    1    0    0    0  0.80225754128E+01  0.23649895485E+02  0.14789869988E+02  0.95975535716E+02  0.91481604320E+02 0.  0.
         11    1    3    3    0    0  0.11609787235E+02 -0.20185455676E+02 -0.26758582435E+02  0.35471982108E+02  0.51100000000E-03 0. -1.
         22    1    1    0    0    0 -0.80225754128E+01 -0.23649895485E+02 -0.14789869988E+02  0.29024464284E+02  0.00000000000E+00 0.  1.
</event>
<event>
 5    1  0.8902899E-005  0.9118800E+02  0.7818608E-02  0.1130116E+00
         25   -1    0    0    0    0  0.00000000000E+00  0.00000000000E+00  0.99999998245E-14  0.12500000000E+03  0.12500000000E+03 0.  0.
        -11    1    3    3    0    0 -0.18799344211E+02  0.43575971011E+02  0.11560668910E+02  0.48845978936E+02  0.51100000000E-03 0.  1.
         23    2    1    0    0    0 -0.39428096586E+01  0.17268608764E+02 -0.23784711578E+02  0.95344256854E+02  0.90614922687E+02 0.  0.
         11    1    3    3    0    0  0.14856534552E+02 -0.26307362247E+02 -0.35345380488E+02  0.46498277919E+02  0.51100000000E-03 0. -1.
         22    1    1    0    0    0  0.39428096586E+01 -0.17268608764E+02  0.23784711578E+02  0.29655743146E+02  0.00000000000E+00 0. -1.
</event>
<event>
 5    1  0.8902899E-005  0.9118800E+02  0.7818608E-02  0.1130116E+00
         25   -1    0    0    0    0  0.00000000000E+00  0.00000000000E+00  0.99999998245E-14  0.12500000000E+03  0.12500000000E+03 0.  0.
        -11    1    3    3    0    0 -0.43678574062E+02 -0.16693226750E+02  0.15363975362E+02  0.49219238013E+02  0.51100000000E-03 0. -1.
         23    2    1    0    0    0 -0.36005858315E+00 -0.75662520788E+01  0.28591002092E+02  0.95422589475E+02  0.90722915346E+02 0.  0.
         11    1    3    3    0    0  0.43318515479E+02  0.91269746712E+01  0.13227026730E+02  0.46203351462E+02  0.51100000000E-03 0.  1.
         22    1    1    0    0    0  0.36005858315E+00  0.75662520788E+01 -0.28591002092E+02  0.29577410525E+02  0.00000000000E+00 0. -1.
</event>
<event>
 5    1  0.8902899E-005  0.9118800E+02  0.7818608E-02  0.1130116E+00
         25   -1    0    0    0    0  0.00000000000E+00  0.00000000000E+00  0.99999998245E-14  0.12500000000E+03  0.12500000000E+03 0.  0.
        -11    1    3    3    0    0  0.30238906566E+02 -0.47174610457E+02 -0.53036794028E+00  0.56036743592E+02  0.51100000000E-03 0.  1.
         23    2    1    0    0    0 -0.42933519270E+01 -0.29584128325E+02 -0.34845772930E+01  0.94903558376E+02  0.90004942053E+02 0.  0.
         11    1    3    3    0    0 -0.34532258493E+02  0.17590482131E+02 -0.29542093527E+01  0.38866814783E+02  0.51100000000E-03 0. -1.
         22    1    1    0    0    0  0.42933519270E+01  0.29584128325E+02  0.34845772930E+01  0.30096441624E+02  0.00000000000E+00 0.  1.
</event>
<event>
 5    1  0.8902899E-005  0.9118800E+02  0.7818608E-02  0.1130116E+00
         25   -1    0    0    0    0  0.00000000000E+00  0.00000000000E+00  0.99999998245E-14  0.12500000000E+03  0.12500000000E+03 0.  0.
        -11    1    3    3    0    0  0.20791341217E+02  0.58154171842E+02 -0.19258175528E+00  0.61759409487E+02  0.51100000000E-03 0.  1.
         23    2    1    0    0    0  0.14765169063E+02  0.24371744548E+02  0.35742705096E+01  0.96281233323E+02  0.91898358694E+02 0.  0.
         11    1    3    3    0    0 -0.60261721538E+01 -0.33782427294E+02  0.37668522649E+01  0.34521823836E+02  0.51100000000E-03 0. -1.
         22    1    1    0    0    0 -0.14765169063E+02 -0.24371744548E+02 -0.35742705096E+01  0.28718766677E+02  0.00000000000E+00 0.  1.
</event>
<event>
 5    1  0.8902899E-005  0.9118800E+02  0.7818608E-02  0.1130116E+00
         25   -1    0    0    0    0  0.00000000000E+00  0.00000000000E+00  0.99999998245E-14  0.12500000000E+03  0.12500000000E+03 0.  0.
        -11    1    3    3    0    0  0.90381887438E+01  0.30936380750E+02  0.39048070567E+02  0.50631021369E+02  0.51100000000E-03 0.  1.
         23    2    1    0    0    0  0.27597055104E+02  0.10028505289E+02  0.41511132796E+01  0.95345318916E+02  0.90616387750E+02 0.  0.
         11    1    3    3    0    0  0.18558866361E+02 -0.20907875460E+02 -0.34896957287E+02  0.44714297546E+02  0.51100000000E-03 0. -1.
         22    1    1    0    0    0 -0.27597055104E+02 -0.10028505289E+02 -0.41511132796E+01  0.29654681084E+02  0.00000000000E+00 0.  1.
</event>
<event>
 5    1  0.8902899E-005  0.9118800E+02  0.7818608E-02  0.1130116E+00
         25   -1    0    0    0    0  0.00000000000E+00  0.00000000000E+00  0.99999998245E-14  0.12500000000E+03  0.12500000000E+03 0.  0.
        -11    1    3    3    0    0  0.28320767767E+02  0.66584344995E+01 -0.39392999089E+02  0.48971512274E+02  0.51100000000E-03 0. -1.
         23    2    1    0    0    0 -0.55091776050E+01  0.25522872918E+02 -0.13093406785E+02  0.95790320421E+02  0.91228176049E+02 0.  0.
         11    1    3    3    0    0 -0.33829945372E+02  0.18864438419E+02  0.26299592304E+02  0.46818808147E+02  0.51100000000E-03 0.  1.
         22    1    1    0    0    0  0.55091776050E+01 -0.25522872918E+02  0.13093406785E+02  0.29209679579E+02  0.00000000000E+00 0. -1.
</event>
<event>
 5    1  0.8902899E-005  0.9118800E+02  0.7818608E-02  0.1130116E+00
         25   -1    0    0    0    0  0.00000000000E+00  0.00000000000E+00  0.99999998245E-14  0.12500000000E+03  0.12500000000E+03 0.  0.
        -11    1    3    3    0    0  0.26710965540E+02 -0.45838294155E+01 -0.40186201186E+02  0.48470794693E+02  0.51100000000E-03 0.  1.
         23    2    1    0    0    0  0.61532041770E+01  0.26501394628E+02 -0.11673822241E+02  0.95394865908E+02  0.90684709169E+02 0.  0.
         11    1    3    3    0    0 -0.20557761363E+02  0.31085224043E+02  0.28512378944E+02  0.46924071215E+02  0.51100000000E-03 0. -1.
         22    1    1    0    0    0 -0.61532041770E+01 -0.26501394628E+02  0.11673822241E+02  0.29605134092E+02  0.00000000000E+00 0. -1.
</event>
<event>
 5    1  0.8902899E-005  0.9118800E+02  0.7818608E-02  0.1130116E+00
         25   -1    0    0    0    0  0.00000000000E+00  0.00000000000E+00  0.99999998245E-14  0.12500000000E+03  0.12500000000E+03 0.  0.
        -11    1    3    3    0    0 -0.34873723744E+01 -0.12616602055E+02 -0.32022142306E+02  0.34594190431E+02  0.51100000000E-03 0. -1.
         23    2    1    0    0    0  0.50144509985E+00  0.25464582944E+02  0.15161643538E+02  0.95359287012E+02  0.90635653873E+02 0.  0.
         11    1    3    3    0    0  0.39888174743E+01  0.38081184999E+02  0.47183785843E+02  0.60765096581E+02  0.51100000000E-03 0.  1.
         22    1    1    0    0    0 -0.50144509985E+00 -0.25464582944E+02 -0.15161643538E+02  0.29640712988E+02  0.00000000000E+00 0.  1.
</event>
<event>
 5    1  0.8902899E-005  0.9118800E+02  0.7818608E-02  0.1130116E+00
         25   -1    0    0    0    0  0.00000000000E+00  0.00000000000E+00  0.99999998245E-14  0.12500000000E+03  0.12500000000E+03 0.  0.
        -11    1    3    3    0    0 -0.34432186429E+02 -0.24477657237E+02  0.15156652553E+02  0.44882683554E+02  0.51100000000E-03 0.  1.
         23    2    1    0    0    0 -0.25351413517E+01 -0.18891107038E+02 -0.23130600626E+02  0.95027920457E+02  0.90177492282E+02 0.  0.
         11    1    3    3    0    0  0.31897045078E+02  0.55865501988E+01 -0.38287253179E+02  0.50145236903E+02  0.51100000000E-03 0. -1.
         22    1    1    0    0    0  0.25351413517E+01  0.18891107038E+02  0.23130600626E+02  0.29972079543E+02  0.00000000000E+00 0. -1.
</event>
<event>
 5    1  0.8902899E-005  0.9118800E+02  0.7818608E-02  0.1130116E+00
         25   -1    0    0    0    0  0.00000000000E+00  0.00000000000E+00  0.99999998245E-14  0.12500000000E+03  0.12500000000E+03 0.  0.
        -11    1    3    3    0    0 -0.27143087678E+01 -0.25080375796E+02 -0.52178999789E+02  0.57957232002E+02  0.51100000000E-03 0. -1.
         23    2    1    0    0    0  0.15165470080E+02 -0.15886427327E+02 -0.26016530899E+02  0.90952534074E+02  0.84339394819E+02 0.  0.
         11    1    3    3    0    0  0.17879778848E+02  0.91939484687E+01  0.26162468890E+02  0.32995302072E+02  0.51100000000E-03 0.  1.
         22    1    1    0    0    0 -0.15165470080E+02  0.15886427327E+02  0.26016530899E+02  0.34047465926E+02  0.00000000000E+00 0. -1.
</event>
<event>
 5    1  0.8902899E-005  0.9118800E+02  0.7818608E-02  0.1130116E+00
         25   -1    0    0    0    0  0.00000000000E+00  0.00000000000E+00  0.99999998245E-14  0.12500000000E+03  0.12500000000E+03 0.  0.
        -11    1    3    3    0    0  0.12635828532E+02 -0.32874942028E+02 -0.15153099678E+02  0.38341132040E+02  0.51100000000E-03 0.  1.
         23    2    1    0    0    0  0.87195632655E+01  0.88938576518E+01  0.25413275898E+02  0.96698655874E+02  0.92464392976E+02 0.  0.
         11    1    3    3    0    0 -0.39162652663E+01  0.41768799680E+02  0.40566375576E+02  0.58357523833E+02  0.51100000000E-03 0. -1.
         22    1    1    0    0    0 -0.87195632655E+01 -0.88938576518E+01 -0.25413275898E+02  0.28301344126E+02  0.00000000000E+00 0. -1.
</event>
<event>
 5    1  0.8902899E-005  0.9118800E+02  0.7818608E-02  0.1130116E+00
         25   -1    0    0    0    0  0.00000000000E+00  0.00000000000E+00  0.99999998245E-14  0.12500000000E+03  0.12500000000E+03 0.  0.
        -11    1    3    3    0    0 -0.47807380149E+01  0.20657163219E+02 -0.31551908565E+02  0.38014428610E+02  0.51100000000E-03 0.  1.
         23    2    1    0    0    0 -0.29967426508E+02  0.10240904684E+01  0.12575237013E+02  0.92484895837E+02  0.86580736653E+02 0.  0.
         11    1    3    3    0    0 -0.25186688493E+02 -0.19633072751E+02  0.44127145577E+02  0.54470467227E+02  0.51100000000E-03 0. -1.
         22    1    1    0    0    0  0.29967426508E+02 -0.10240904684E+01 -0.12575237013E+02  0.32515104163E+02  0.00000000000E+00 0. -1.
</event>
<event>
 5    1  0.8902899E-005  0.9118800E+02  0.7818608E-02  0.1130116E+00
         25   -1    0    0    0    0  0.00000000000E+00  0.00000000000E+00  0.99999998245E-14  0.12500000000E+03  0.12500000000E+03 0.  0.
        -11    1    3    3    0    0  0.19372323528E+02  0.47294189069E+02 -0.62366559371E+01  0.51487116020E+02  0.51100000000E-03 0. -1.
         23    2    1    0    0    0  0.17063848341E+02  0.58490882194E+01 -0.22581249052E+02  0.96098450527E+02  0.91649400608E+02 0.  0.
         11    1    3    3    0    0 -0.23084751872E+01 -0.41445100849E+02 -0.16344593115E+02  0.44611334507E+02  0.51100000000E-03 0.  1.
         22    1    1    0    0    0 -0.17063848341E+02 -0.58490882194E+01  0.22581249052E+02  0.28901549473E+02  0.00000000000E+00 0. -1.
</event>
<event>
 5    1  0.8902899E-005  0.9118800E+02  0.7818608E-02  0.1130116E+00
         25   -1    0    0    0    0  0.00000000000E+00  0.00000000000E+00  0.99999998245E-14  0.12500000000E+03  0.12500000000E+03 0.  0.
        -11    1    3    3    0    0 -0.43413447362E+02 -0.36131926671E+02  0.21366468462E+02  0.60388488238E+02  0.51100000000E-03 0. -1.
         23    2    1    0    0    0 -0.19429649060E+02 -0.10423643342E+02  0.19447946761E+02  0.95599553807E+02  0.90966413867E+02 0.  0.
         11    1    3    3    0    0  0.23983798302E+02  0.25708283329E+02 -0.19185217006E+01  0.35211065569E+02  0.51100000000E-03 0.  1.
         22    1    1    0    0    0  0.19429649060E+02  0.10423643342E+02 -0.19447946761E+02  0.29400446193E+02  0.00000000000E+00 0. -1.
</event>
<event>
 5    1  0.8902899E-005  0.9118800E+02  0.7818608E-02  0.1130116E+00
         25   -1    0    0    0    0  0.00000000000E+00  0.00000000000E+00  0.99999998245E-14  0.12500000000E+03  0.12500000000E+03 0.  0.
        -11    1    3    3    0    0 -0.19622761731E+02  0.64363363154E+01 -0.24460086936E+02  0.32012107964E+02  0.51100000000E-03 0.  1.
         23    2    1    0    0    0  0.24000137571E+02 -0.24046205689E+02  0.10101949045E+01  0.91011073785E+02  0.84426112349E+02 0.  0.
         11    1    3    3    0    0  0.43622899303E+02 -0.30482542005E+02  0.25470281841E+02  0.58998965821E+02  0.51100000000E-03 0. -1.
         22    1    1    0    0    0 -0.24000137571E+02  0.24046205689E+02 -0.10101949045E+01  0.33988926215E+02  0.00000000000E+00 0. -1.
</event>
<event>
 5    1  0.8902899E-005  0.9118800E+02  0.7818608E-02  0.1130116E+00
         25   -1    0    0    0    0  0.00000000000E+00  0.00000000000E+00  0.99999998245E-14  0.12500000000E+03  0.12500000000E+03 0.  0.
        -11    1    3    3    0    0  0.33644224388E+02  0.38499023467E+02  0.30587746909E+02  0.59579517485E+02  0.51100000000E-03 0. -1.
         23    2    1    0    0    0  0.14751807939E+02  0.78835819519E+01  0.23352635074E+02  0.96275232520E+02  0.91890196050E+02 0.  0.
         11    1    3    3    0    0 -0.18892416449E+02 -0.30615441515E+02 -0.72351118344E+01  0.36695715035E+02  0.51100000000E-03 0.  1.
         22    1    1    0    0    0 -0.14751807939E+02 -0.78835819519E+01 -0.23352635074E+02  0.28724767480E+02  0.00000000000E+00 0. -1.
</event>
<event>
 5    1  0.8902899E-005  0.9118800E+02  0.7818608E-02  0.1130116E+00
         25   -1    0    0    0    0  0.00000000000E+00  0.00000000000E+00  0.99999998245E-14  0.12500000000E+03  0.12500000000E+03 0.  0.
        -11    1    3    3    0    0  0.51798473930E+01  0.49911773042E+02 -0.83911264345E+01  0.50876585089E+02  0.51100000000E-03 0.  1.
         23    2    1    0    0    0 -0.62797264915E+01  0.15545516254E+02  0.21424596531E+02  0.97795011911E+02  0.93934833676E+02 0.  0.
         11    1    3    3    0    0 -0.11459573884E+02 -0.34366256788E+02  0.29815722966E+02  0.46918426822E+02  0.51100000000E-03 0. -1.
         22    1    1    0    0    0  0.62797264915E+01 -0.15545516254E+02 -0.21424596531E+02  0.27204988089E+02  0.00000000000E+00 0.  1.
</event>
<event>
 5    1  0.8902899E-005  0.9118800E+02  0.7818608E-02  0.1130116E+00
         25   -1    0    0    0    0  0.00000000000E+00  0.00000000000E+00  0.99999998245E-14  0.12500000000E+03  0.12500000000E+03 0.  0.
        -11    1    3    3    0    0  0.18699048338E+02 -0.83348989327E+01 -0.27405337986E+02  0.34207857275E+02  0.51100000000E-03 0. -1.
         23    2    1    0    0    0  0.13666371546E+02 -0.44931916142E+00  0.29820889716E+02  0.92193642958E+02  0.86159217379E+02 0.  0.
         11    1    3    3    0    0 -0.50326767921E+01  0.78855797713E+01  0.57226227701E+02  0.57985785683E+02  0.51100000000E-03 0.  1.
         22    1    1    0    0    0 -0.13666371546E+02  0.44931916142E+00 -0.29820889716E+02  0.32806357042E+02  0.00000000000E+00 0.  1.
</event>
<event>
 5    1  0.8902899E-005  0.9118800E+02  0.7818608E-02  0.1130116E+00
         25   -1    0    0    0    0  0.00000000000E+00  0.00000000000E+00  0.99999998245E-14  0.12500000000E+03  0.12500000000E+03 0.  0.
        -11    1    3    3    0    0 -0.36458541771E+02 -0.16485963031E+02  0.31092167718E+02  0.50672824461E+02  0.51100000000E-03 0.  1.
         23    2    1    0    0    0 -0.26220506153E+02 -0.61597625169E+01 -0.11525775132E+02  0.95703223564E+02  0.91108758585E+02 0.  0.
         11    1    3    3    0    0  0.10238035618E+02  0.10326200514E+02 -0.42617942850E+02  0.45030399103E+02  0.51100000000E-03 0. -1.
         22    1    1    0    0    0  0.26220506153E+02  0.61597625169E+01  0.11525775132E+02  0.29296776436E+02  0.00000000000E+00 0.  1.
</event>
<event>
 5    1  0.8902899E-005  0.9118800E+02  0.7818608E-02  0.1130116E+00
         25   -1    0    0    0    0  0.00000000000E+00  0.00000000000E+00  0.99999998245E-14  0.12500000000E+03  0.12500000000E+03 0.  0.
        -11    1    3    3    0    0  0.44423557602E+01 -0.18677210168E+01  0.60818438217E+02  0.61009059441E+02  0.51100000000E-03 0.  1.
         23    2    1    0    0    0  0.11459083103E+02 -0.11432755591E+01  0.25569835587E+02  0.96956566606E+02  0.92812400311E+02 0.  0.
         11    1    3    3    0    0  0.70167273425E+01  0.72444545775E+00 -0.35248602629E+02  0.35947507165E+02  0.51100000000E-03 0. -1.
         22    1    1    0    0    0 -0.11459083103E+02  0.11432755591E+01 -0.25569835587E+02  0.28043433394E+02  0.00000000000E+00 0.  1.
</event>
<event>
 5    1  0.8902899E-005  0.9118800E+02  0.7818608E-02  0.1130116E+00
         25   -1    0    0    0    0  0.00000000000E+00  0.00000000000E+00  0.99999998245E-14  0.12500000000E+03  0.12500000000E+03 0.  0.
        -11    1    3    3    0    0 -0.20690786010E+02 -0.48275631689E+02 -0.28232706475E+02  0.59629950158E+02  0.51100000000E-03 0. -1.
         23    2    1    0    0    0  0.33668837433E+01 -0.22931496368E+02 -0.16717850047E+02  0.96422457384E+02  0.92090251090E+02 0.  0.
         11    1    3    3    0    0  0.24057669753E+02  0.25344135321E+02  0.11514856428E+02  0.36792507226E+02  0.51100000000E-03 0.  1.
         22    1    1    0    0    0 -0.33668837433E+01  0.22931496368E+02  0.16717850047E+02  0.28577542616E+02  0.00000000000E+00 0. -1.
</event>
<event>
 5    1  0.8902899E-005  0.9118800E+02  0.7818608E-02  0.1130116E+00
         25   -1    0    0    0    0  0.00000000000E+00  0.00000000000E+00  0.99999998245E-14  0.12500000000E+03  0.12500000000E+03 0.  0.
        -11    1    3    3    0    0 -0.33776527675E+02 -0.60795851672E+01  0.29470411985E+01  0.34445612633E+02  0.51100000000E-03 0.  1.
         23    2    1    0    0    0  0.26961204418E+02 -0.74930094326E-01  0.10746737384E+02  0.95975794195E+02  0.91481957504E+02 0.  0.
         11    1    3    3    0    0  0.60737732093E+02  0.60046550729E+01  0.77996961851E+01  0.61530181563E+02  0.51100000000E-03 0. -1.
         22    1    1    0    0    0 -0.26961204418E+02  0.74930094326E-01 -0.10746737384E+02  0.29024205805E+02  0.00000000000E+00 0. -1.
</event>
<event>
 5    1  0.8902899E-005  0.9118800E+02  0.7818608E-02  0.1130116E+00
         25   -1    0    0    0    0  0.00000000000E+00  0.00000000000E+00  0.99999998245E-14  0.12500000000E+03  0.12500000000E+03 0.  0.
        -11    1    3    3    0    0 -0.40351081748E+02  0.16931922456E+02  0.19453217773E+02  0.47888698857E+02  0.51100000000E-03 0.  1.
         23    2    1    0    0    0 -0.19207555792E+02  0.61863741932E+01 -0.21687640846E+02  0.95376441965E+02  0.90659310009E+02 0.  0.
         11    1    3    3    0    0  0.21143525955E+02 -0.10745548263E+02 -0.41140858619E+02  0.47487743108E+02  0.51100000000E-03 0. -1.
         22    1    1    0    0    0  0.19207555792E+02 -0.61863741932E+01  0.21687640846E+02  0.29623558035E+02  0.00000000000E+00 0.  1.
</event>
<event>
 5    1  0.8902899E-005  0.9118800E+02  0.7818608E-02  0.1130116E+00
         25   -1    0    0    0    0  0.00000000000E+00  0.00000000000E+00  0.99999998245E-14  0.12500000000E+03  0.12500000000E+03 0.  0.
        -11    1    3    3    0    0 -0.67795974127E+01  0.30454491315E+02 -0.35193422526E+02  0.47032073861E+02  0.51100000000E-03 0. -1.
         23    2    1    0    0    0 -0.22632216004E+02  0.16237359792E+02  0.87004446847E+01  0.95818382636E+02  0.91266618536E+02 0.  0.
         11    1    3    3    0    0 -0.15852618591E+02 -0.14217131523E+02  0.43893867211E+02  0.48786308775E+02  0.51100000000E-03 0.  1.
         22    1    1    0    0    0  0.22632216004E+02 -0.16237359792E+02 -0.87004446847E+01  0.29181617364E+02  0.00000000000E+00 0. -1.
</event>
<event>
 5    1  0.8902899E-005  0.9118800E+02  0.7818608E-02  0.1130116E+00
         25   -1    0    0    0    0  0.00000000000E+00  0.00000000000E+00  0.99999998245E-14  0.12500000000E+03  0.12500000000E+03 0.  0.
        -11    1    3    3    0    0  0.59689072125E+01  0.30752368162E+02 -0.14732562588E+02  0.34617689143E+02  0.51100000000E-03 0. -1.
         23    2    1    0    0    0 -0.92066638234E+01 -0.19415763930E+02  0.18472119028E+02  0.96663561813E+02  0.92416938129E+02 0.  0.
         11    1    3    3    0    0 -0.15175571036E+02 -0.50168132093E+02  0.33204681616E+02  0.62045872670E+02  0.51100000000E-03 0.  1.
         22    1    1    0    0    0  0.92066638234E+01  0.19415763930E+02 -0.18472119028E+02  0.28336438187E+02  0.00000000000E+00 0.  1.
</event>
<event>
 5    1  0.8902899E-005  0.9118800E+02  0.7818608E-02  0.1130116E+00
         25   -1    0    0    0    0  0.00000000000E+00  0.00000000000E+00  0.99999998245E-14  0.12500000000E+03  0.12500000000E+03 0.  0.
        -11    1    3    3    0    0 -0.25895885154E+02  0.28933027836E+02 -0.24273484301E+02  0.45792128233E+02  0.51100000000E-03 0.  1.
         23    2    1    0    0    0 -0.31165614002E+02 -0.11752617488E+02 -0.17505227353E+02  0.87372184509E+02  0.78854588499E+02 0.  0.
         11    1    3    3    0    0 -0.52697288476E+01 -0.40685645324E+02  0.67682569480E+01  0.41580056277E+02  0.51100000000E-03 0. -1.
         22    1    1    0    0    0  0.31165614002E+02  0.11752617488E+02  0.17505227353E+02  0.37627815491E+02  0.00000000000E+00 0. -1.
</event>
<event>
 5    1  0.8902899E-005  0.9118800E+02  0.7818608E-02  0.1130116E+00
         25   -1    0    0    0    0  0.00000000000E+00  0.00000000000E+00  0.99999998245E-14  0.12500000000E+03  0.12500000000E+03 0.  0.
        -11    1    3    3    0    0 -0.42718201792E+02 -0.78137623029E+01 -0.28990700103E+01  0.43523605697E+02  0.51100000000E-03 0. -1.
         23    2    1    0    0    0  0.46350751278E+01 -0.28697630905E+02 -0.57949435582E+01  0.95358486681E+02  0.90634550091E+02 0.  0.
         11    1    3    3    0    0  0.47353276920E+02 -0.20883868602E+02 -0.28958735479E+01  0.51834880984E+02  0.51100000000E-03 0.  1.
         22    1    1    0    0    0 -0.46350751278E+01  0.28697630905E+02  0.57949435582E+01  0.29641513319E+02  0.00000000000E+00 0.  1.
</event>
<event>
 5    1  0.8902899E-005  0.9118800E+02  0.7818608E-02  0.1130116E+00
         25   -1    0    0    0    0  0.00000000000E+00  0.00000000000E+00  0.99999998245E-14  0.12500000000E+03  0.12500000000E+03 0.  0.
        -11    1    3    3    0    0  0.44640760715E+01 -0.24774657726E+02  0.56132146208E+02  0.61518529557E+02  0.51100000000E-03 0.  1.
         23    2    1    0    0    0 -0.69036342001E+00 -0.22863883889E+01  0.22908848593E+02  0.10196699070E+03  0.99331503941E+02 0.  0.
         11    1    3    3    0    0 -0.51544394915E+01  0.22488269337E+02 -0.33223297615E+02  0.40448461144E+02  0.51100000000E-03 0. -1.
         22    1    1    0    0    0  0.69036342001E+00  0.22863883889E+01 -0.22908848593E+02  0.23033009300E+02  0.00000000000E+00 0.  1.
</event>
<event>
 5    1  0.8902899E-005  0.9118800E+02  0.7818608E-02  0.1130116E+00
         25   -1    0    0    0    0  0.00000000000E+00  0.00000000000E+00  0.99999998245E-14  0.12500000000E+03  0.12500000000E+03 0.  0.
        -11    1    3    3    0    0  0.35373181853E+02 -0.16232399131E+02 -0.39193462547E+02  0.55234774215E+02  0.51100000000E-03 0.  1.
         23    2    1    0    0    0  0.47049814174E+01 -0.24954924869E+02 -0.13156174343E+02  0.96399824324E+02  0.92059524662E+02 0.  0.
         11    1    3    3    0    0 -0.30668200435E+02 -0.87225257388E+01  0.26037288204E+02  0.41165050109E+02  0.51100000000E-03 0. -1.
         22    1    1    0    0    0 -0.47049814174E+01  0.24954924869E+02  0.13156174343E+02  0.28600175676E+02  0.00000000000E+00 0.  1.
</event>
<event>
 5    1  0.8902899E-005  0.9118800E+02  0.7818608E-02  0.1130116E+00
         25   -1    0    0    0    0  0.00000000000E+00  0.00000000000E+00  0.99999998245E-14  0.12500000000E+03  0.12500000000E+03 0.  0.
        -11    1    3    3    0    0  0.31563942150E+02 -0.31843976321E+02 -0.65575022538E+01  0.45313597386E+02  0.51100000000E-03 0.  1.
         23    2    1    0    0    0 -0.17364302742E+02 -0.23262787359E+02 -0.75749667164E+01  0.94999059912E+02  0.90137478209E+02 0.  0.
         11    1    3    3    0    0 -0.48928244892E+02  0.85811889621E+01 -0.10174644626E+01  0.49685462526E+02  0.51100000000E-03 0. -1.
         22    1    1    0    0    0  0.17364302742E+02  0.23262787359E+02  0.75749667164E+01  0.30000940088E+02  0.00000000000E+00 0. -1.
</event>
<event>
 5    1  0.8902899E-005  0.9118800E+02  0.7818608E-02  0.1130116E+00
         25   -1    0    0    0    0  0.00000000000E+00  0.00000000000E+00  0.99999998245E-14  0.12500000000E+03  0.12500000000E+03 0.  0.
        -11    1    3    3    0    0  0.15350274474E+02  0.72719085564E+00 -0.59695069181E+02  0.61641390460E+02  0.51100000000E-03 0.  1.
         23    2    1    0    0    0  0.12044829360E+02 -0.50441206561E+01 -0.26975964539E+02  0.95029619116E+02  0.90179846857E+02 0.  0.
         11    1    3    3    0    0 -0.33054451139E+01 -0.57713115117E+01  0.32719104642E+02  0.33388228657E+02  0.51100000000E-03 0. -1.
         22    1    1    0    0    0 -0.12044829360E+02  0.50441206561E+01  0.26975964539E+02  0.29970380884E+02  0.00000000000E+00 0.  1.
</event>
<event>
 5    1  0.8902899E-005  0.9118800E+02  0.7818608E-02  0.1130116E+00
         25   -1    0    0    0    0  0.00000000000E+00  0.00000000000E+00  0.99999998245E-14  0.12500000000E+03  0.12500000000E+03 0.  0.
        -11    1    3    3    0    0  0.41001381177E+02  0.55509494812E+00 -0.13881072220E+02  0.43290940796E+02  0.51100000000E-03 0. -1.
         23    2    1    0    0    0  0.99402974548E+01  0.52619015616E+01  0.27524877414E+02  0.95265911849E+02  0.90506784067E+02 0.  0.
         11    1    3    3    0    0 -0.31061083722E+02  0.47068066134E+01  0.41405949634E+02  0.51974971052E+02  0.51100000000E-03 0.  1.
         22    1    1    0    0    0 -0.99402974548E+01 -0.52619015616E+01 -0.27524877414E+02  0.29734088151E+02  0.00000000000E+00 0.  1.
</event>
<event>
 5    1  0.8902899E-005  0.9118800E+02  0.7818608E-02  0.1130116E+00
         25   -1    0    0    0    0  0.00000000000E+00  0.00000000000E+00  0.99999998245E-14  0.12500000000E+03  0.12500000000E+03 0.  0.
        -11    1    3    3    0    0 -0.34146796791E+02  0.50185831119E+01  0.93425938689E+01  0.35755754334E+02  0.51100000000E-03 0.  1.
         23    2    1    0    0    0  0.25273960981E+02  0.99674903018E+01  0.11678227298E+02  0.95427969982E+02  0.90730328421E+02 0.  0.
         11    1    3    3    0    0  0.59420757772E+02  0.49489071900E+01  0.23356334291E+01  0.59672215648E+02  0.51100000000E-03 0. -1.
         22    1    1    0    0    0 -0.25273960981E+02 -0.99674903018E+01 -0.11678227298E+02  0.29572030018E+02  0.00000000000E+00 0. -1.
</event>
<event>
 5    1  0.8902899E-005  0.9118800E+02  0.7818608E-02  0.1130116E+00
         25   -1    0    0    0    0  0.00000000000E+00  0.00000000000E+00  0.99999998245E-14  0.12500000000E+03  0.12500000000E+03 0.  0.
        -11    1    3    3    0    0  0.31158993064E+02 -0.39689536520E+02  0.20987724322E+02  0.54650038705E+02  0.51100000000E-03 0. -1.
         23    2    1    0    0    0  0.10150784172E+02 -0.36037587868E+01  0.26145132418E+02  0.96722916595E+02  0.92497184546E+02 0.  0.
         11    1    3    3    0    0 -0.21008208892E+02  0.36085777734E+02  0.51574080965E+01  0.42072877891E+02  0.51100000000E-03 0.  1.
         22    1    1    0    0    0 -0.10150784172E+02  0.36037587868E+01 -0.26145132418E+02  0.28277083405E+02  0.00000000000E+00 0. -1.
</event>
<event>
 5    1  0.8902899E-005  0.9118800E+02  0.7818608E-02  0.1130116E+00
         25   -1    0    0    0    0  0.00000000000E+00  0.00000000000E+00  0.99999998245E-14  0.12500000000E+03  0.12500000000E+03 0.  0.
        -11    1    3    3    0    0  0.30786026692E+02 -0.38807696443E+02 -0.30432830222E+02  0.58137542933E+02  0.51100000000E-03 0.  1.
         23    2    1    0    0    0  0.19404940788E+02 -0.22498238661E+02  0.93032889379E+00  0.95274792150E+02  0.90519047927E+02 0.  0.
         11    1    3    3    0    0 -0.11381085903E+02  0.16309457781E+02  0.31363159116E+02  0.37137249218E+02  0.51100000000E-03 0. -1.
         22    1    1    0    0    0 -0.19404940788E+02  0.22498238661E+02 -0.93032889379E+00  0.29725207850E+02  0.00000000000E+00 0.  1.
</event>
<event>
 5    1  0.8902899E-005  0.9118800E+02  0.7818608E-02  0.1130116E+00
         25   -1    0    0    0    0  0.00000000000E+00  0.00000000000E+00  0.99999998245E-14  0.12500000000E+03  0.12500000000E+03 0.  0.
        -11    1    3    3    0    0  0.93148691820E+01 -0.22060443482E+02  0.26110711806E+02  0.35428790917E+02  0.51100000000E-03 0.  1.
         23    2    1    0    0    0  0.45480610479E+01  0.22630321288E+01 -0.28842688593E+02  0.95713367230E+02  0.91122674497E+02 0.  0.
         11    1    3    3    0    0 -0.47668081341E+01  0.24323475611E+02 -0.54953400400E+02  0.60284576314E+02  0.51100000000E-03 0. -1.
         22    1    1    0    0    0 -0.45480610479E+01 -0.22630321288E+01  0.28842688593E+02  0.29286632770E+02  0.00000000000E+00 0. -1.
</event>
<event>
 5    1  0.8902899E-005  0.9118800E+02  0.7818608E-02  0.1130116E+00
         25   -1    0    0    0    0  0.00000000000E+00  0.00000000000E+00  0.99999998245E-14  0.12500000000E+03  0.12500000000E+03 0.  0.
        -11    1    3    3    0    0 -0.28334302749E+02  0.17980817233E+02 -0.17477348693E+02  0.37836493207E+02  0.51100000000E-03 0.  1.
         23    2    1    0    0    0  0.10927292943E+02  0.12707856687E+02  0.24346150259E+02  0.95442760869E+02  0.90750703674E+02 0.  0.
         11    1    3    3    0    0  0.39261595691E+02 -0.52729605467E+01  0.41823498951E+02  0.57606267662E+02  0.51100000000E-03 0. -1.
         22    1    1    0    0    0 -0.10927292943E+02 -0.12707856687E+02 -0.24346150259E+02  0.29557239131E+02  0.00000000000E+00 0.  1.
</event>
<event>
 5    1  0.8902899E-005  0.9118800E+02  0.7818608E-02  0.1130116E+00
         25   -1    0    0    0    0  0.00000000000E+00  0.00000000000E+00  0.99999998245E-14  0.12500000000E+03  0.12500000000E+03 0.  0.
        -11    1    3    3    0    0 -0.55774574616E+02  0.22325559526E+02  0.33589503429E+01  0.60170726515E+02  0.51100000000E-03 0.  1.
         23    2    1    0    0    0 -0.33109558715E+02  0.58463148272E+00 -0.95105217121E+00  0.91871625870E+02  0.85690760689E+02 0.  0.
         11    1    3    3    0    0  0.22665015901E+02 -0.21740928043E+02 -0.43100025141E+01  0.31700899355E+02  0.51100000000E-03 0. -1.
         22    1    1    0    0    0  0.33109558715E+02 -0.58463148272E+00  0.95105217121E+00  0.33128374130E+02  0.00000000000E+00 0.  1.
</event>
<event>
 5    1  0.8902899E-005  0.9118800E+02  0.7818608E-02  0.1130116E+00
         25   -1    0    0    0    0  0.00000000000E+00  0.00000000000E+00  0.99999998245E-14  0.12500000000E+03  0.12500000000E+03 0.  0.
        -11    1    3    3    0    0  0.13979757405E+02 -0.28283071362E+02  0.18337798287E+02  0.36491650950E+02  0.51100000000E-03 0.  1.
         23    2    1    0    0    0 -0.26684006242E+02  0.12077474540E+02  0.57703718222E+01  0.95147047527E+02  0.90342469978E+02 0.  0.
         11    1    3    3    0    0 -0.40663763646E+02  0.40360545902E+02 -0.12567426465E+02  0.58655396577E+02  0.51100000000E-03 0. -1.
         22    1    1    0    0    0  0.26684006242E+02 -0.12077474540E+02 -0.57703718222E+01  0.29852952473E+02  0.00000000000E+00 0. -1.
</event>
<event>
 5    1  0.8902899E-005  0.9118800E+02  0.7818608E-02  0.1130116E+00
         25   -1    0    0    0    0  0.00000000000E+00  0.00000000000E+00  0.99999998245E-14  0.12500000000E+03  0.12500000000E+03 0.  0.
        -11    1    3    3    0    0  0.64207716044E+01  0.83258146146E+01  0.31187906168E+02  0.32912474662E+02  0.51100000000E-03 0.  1.
         23    2    1    0    0    0  0.44899028045E+01 -0.83342523099E+01 -0.28529782551E+02  0.94940600785E+02  0.90056372325E+02 0.  0.
         11    1    3    3    0    0 -0.19308687999E+01 -0.16660066924E+02 -0.59717688718E+02  0.62028126123E+02  0.51100000000E-03 0. -1.
         22    1    1    0    0    0 -0.44899028045E+01  0.83342523099E+01  0.28529782551E+02  0.30059399215E+02  0.00000000000E+00 0. -1.
</event>
<event>
 5    1  0.8902899E-005  0.9118800E+02  0.7818608E-02  0.1130116E+00
         25   -1    0    0    0    0  0.00000000000E+00  0.00000000000E+00  0.99999998245E-14  0.12500000000E+03  0.12500000000E+03 0.  0.
        -11    1    3    3    0    0  0.96235523367E+01 -0.18651256276E+02  0.43568442364E+02  0.48360017478E+02  0.51100000000E-03 0.  1.
         23    2    1    0    0    0  0.28137591183E+02  0.49281804829E+01  0.71079616064E+01  0.95563048415E+02  0.90916236744E+02 0.  0.
         11    1    3    3    0    0  0.18514038846E+02  0.23579436759E+02 -0.36460480757E+02  0.47203030936E+02  0.51100000000E-03 0. -1.
         22    1    1    0    0    0 -0.28137591183E+02 -0.49281804829E+01 -0.71079616064E+01  0.29436951585E+02  0.00000000000E+00 0.  1.
</event>
<event>
 5    1  0.8902899E-005  0.9118800E+02  0.7818608E-02  0.1130116E+00
         25   -1    0    0    0    0  0.00000000000E+00  0.00000000000E+00  0.99999998245E-14  0.12500000000E+03  0.12500000000E+03 0.  0.
        -11    1    3    3    0    0  0.26191710184E+02 -0.13482664544E+01 -0.26578481747E+02  0.37339512544E+02  0.51100000000E-03 0. -1.
         23    2    1    0    0    0 -0.13023917818E+02  0.25249698227E+02  0.73923050676E+01  0.95643299400E+02  0.91026506305E+02 0.  0.
         11    1    3    3    0    0 -0.39215628001E+02  0.26597964682E+02  0.33970786814E+02  0.58303786856E+02  0.51100000000E-03 0.  1.
         22    1    1    0    0    0  0.13023917818E+02 -0.25249698227E+02 -0.73923050676E+01  0.29356700600E+02  0.00000000000E+00 0.  1.
</event>
<event>
 5    1  0.8902899E-005  0.9118800E+02  0.7818608E-02  0.1130116E+00
         25   -1    0    0    0    0  0.00000000000E+00  0.00000000000E+00  0.99999998245E-14  0.12500000000E+03  0.12500000000E+03 0.  0.
        -11    1    3    3    0    0 -0.19392125494E+02 -0.16784111741E+01 -0.53303923016E+02  0.56746628132E+02  0.51100000000E-03 0.  1.
         23    2    1    0    0    0 -0.21833711420E+02 -0.11454671000E+02 -0.15485751400E+02  0.95884214959E+02  0.91356738885E+02 0.  0.
         11    1    3    3    0    0 -0.24415859268E+01 -0.97762598263E+01  0.37818171615E+02  0.39137586827E+02  0.51100000000E-03 0. -1.
         22    1    1    0    0    0  0.21833711420E+02  0.11454671000E+02  0.15485751400E+02  0.29115785041E+02  0.00000000000E+00 0.  1.
</event>
<event>
 5    1  0.8902899E-005  0.9118800E+02  0.7818608E-02  0.1130116E+00
         25   -1    0    0    0    0  0.00000000000E+00  0.00000000000E+00  0.99999998245E-14  0.12500000000E+03  0.12500000000E+03 0.  0.
        -11    1    3    3    0    0  0.77636772937E+01  0.20167861333E+02 -0.31697851144E+02  0.38363668793E+02  0.51100000000E-03 0.  1.
         23    2    1    0    0    0 -0.22732311034E+02 -0.11874424814E+02  0.83440411068E+01  0.98029961965E+02  0.94246965422E+02 0.  0.
         11    1    3    3    0    0 -0.30495988328E+02 -0.32042286147E+02  0.40041892251E+02  0.59666293172E+02  0.51100000000E-03 0. -1.
         22    1    1    0    0    0  0.22732311034E+02  0.11874424814E+02 -0.83440411068E+01  0.26970038035E+02  0.00000000000E+00 0.  1.
</event>
<event>
 5    1  0.8902899E-005  0.9118800E+02  0.7818608E-02  0.1130116E+00
         25   -1    0    0    0    0  0.00000000000E+00  0.00000000000E+00  0.99999998245E-14  0.12500000000E+03  0.12500000000E+03 0.  0.
        -11    1    3    3    0    0  0.43035415202E+02 -0.22648784325E+02  0.54207017914E+01  0.48932590379E+02  0.51100000000E-03 0.  1.
         23    2    1    0    0    0 -0.34719014343E+01 -0.28600867975E+02 -0.45223484099E+00  0.96185623990E+02  0.91768218886E+02 0.  0.
         11    1    3    3    0    0 -0.46507316636E+02 -0.59520836498E+01 -0.58729366323E+01  0.47253033611E+02  0.51100000000E-03 0. -1.
         22    1    1    0    0    0  0.34719014343E+01  0.28600867975E+02  0.45223484099E+00  0.28814376010E+02  0.00000000000E+00 0.  1.
</event>
<event>
 5    1  0.8902899E-005  0.9118800E+02  0.7818608E-02  0.1130116E+00
         25   -1    0    0    0    0  0.00000000000E+00  0.00000000000E+00  0.99999998245E-14  0.12500000000E+03  0.12500000000E+03 0.  0.
        -11    1    3    3    0    0 -0.60390928679E+01 -0.26429111567E+02 -0.16879789642E+02  0.31935808734E+02  0.51100000000E-03 0.  1.
         23    2    1    0    0    0  0.93975889187E+00  0.31698673548E+02  0.13649865252E+01  0.93258036612E+02  0.87689846351E+02 0.  0.
         11    1    3    3    0    0  0.69788517597E+01  0.58127785115E+02  0.18244776167E+02  0.61322227878E+02  0.51100000000E-03 0. -1.
         22    1    1    0    0    0 -0.93975889187E+00 -0.31698673548E+02 -0.13649865252E+01  0.31741963388E+02  0.00000000000E+00 0. -1.
</event>
<event>
 5    1  0.8902899E-005  0.9118800E+02  0.7818608E-02  0.1130116E+00
         25   -1    0    0    0    0  0.00000000000E+00  0.00000000000E+00  0.99999998245E-14  0.12500000000E+03  0.12500000000E+03 0.  0.
        -11    1    3    3    0    0 -0.11856343680E+02 -0.12591834203E+02 -0.28372643056E+02  0.33228512581E+02  0.51100000000E-03 0.  1.
         23    2    1    0    0    0  0.10488055035E+02  0.21185682038E+02  0.18359969856E+02  0.95068061958E+02  0.90233117477E+02 0.  0.
         11    1    3    3    0    0  0.22344398715E+02  0.33777516241E+02  0.46732612913E+02  0.61839549378E+02  0.51100000000E-03 0. -1.
         22    1    1    0    0    0 -0.10488055035E+02 -0.21185682038E+02 -0.18359969856E+02  0.29931938042E+02  0.00000000000E+00 0. -1.
</event>
<event>
 5    1  0.8902899E-005  0.9118800E+02  0.7818608E-02  0.1130116E+00
         25   -1    0    0    0    0  0.00000000000E+00  0.00000000000E+00  0.99999998245E-14  0.12500000000E+03  0.12500000000E+03 0.  0.
        -11    1    3    3    0    0  0.24185378329E+02 -0.33377674004E+02 -0.27229454755E+02  0.49400858833E+02  0.51100000000E-03 0. -1.
         23    2    1    0    0    0 -0.84517514718E+01 -0.36509100788E+02 -0.17773279963E+02  0.83524271870E+02  0.72498744592E+02 0.  0.
         11    1    3    3    0    0 -0.32637129801E+02 -0.31314267835E+01  0.94561747927E+01  0.34123413037E+02  0.51100000000E-03 0.  1.
         22    1    1    0    0    0  0.84517514718E+01  0.36509100788E+02  0.17773279963E+02  0.41475728130E+02  0.00000000000E+00 0.  1.
</event>
<event>
 5    1  0.8902899E-005  0.9118800E+02  0.7818608E-02  0.1130116E+00
         25   -1    0    0    0    0  0.00000000000E+00  0.00000000000E+00  0.99999998245E-14  0.12500000000E+03  0.12500000000E+03 0.  0.
        -11    1    3    3    0    0  0.27062950443E+02  0.31157850225E+02  0.14809989750E+02  0.43846900848E+02  0.51100000000E-03 0.  1.
         23    2    1    0    0    0 -0.16209629927E+02  0.27456793660E+02 -0.68634577095E+01  0.92385054466E+02  0.86436471564E+02 0.  0.
         11    1    3    3    0    0 -0.43272580371E+02 -0.37010565649E+01 -0.21673447459E+02  0.48538153618E+02  0.51100000000E-03 0. -1.
         22    1    1    0    0    0  0.16209629927E+02 -0.27456793660E+02  0.68634577095E+01  0.32614945534E+02  0.00000000000E+00 0. -1.
</event>
<event>
 5    1  0.8902899E-005  0.9118800E+02  0.7818608E-02  0.1130116E+00
         25   -1    0    0    0    0  0.00000000000E+00  0.00000000000E+00  0.99999998245E-14  0.12500000000E+03  0.12500000000E+03 0.  0.
        -11    1    3    3    0    0 -0.18471273652E+02 -0.56568884282E+01 -0.29739533801E+02  0.35463054127E+02  0.51100000000E-03 0.  1.
         23    2    1    0    0    0 -0.23498788271E+01  0.28913279590E+02  0.13398347299E+02  0.93046668758E+02  0.87388026580E+02 0.  0.
         11    1    3    3    0    0  0.16121394825E+02  0.34570168018E+02  0.43137881100E+02  0.57583614631E+02  0.51100000000E-03 0. -1.
         22    1    1    0    0    0  0.23498788271E+01 -0.28913279590E+02 -0.13398347299E+02  0.31953331242E+02  0.00000000000E+00 0. -1.
</event>
<event>
 5    1  0.8902899E-005  0.9118800E+02  0.7818608E-02  0.1130116E+00
         25   -1    0    0    0    0  0.00000000000E+00  0.00000000000E+00  0.99999998245E-14  0.12500000000E+03  0.12500000000E+03 0.  0.
        -11    1    3    3    0    0  0.71282082548E+01 -0.25853252503E+02 -0.23995435751E+02  0.35985871604E+02  0.51100000000E-03 0.  1.
         23    2    1    0    0    0  0.24423513164E+00  0.29201051912E+02 -0.18039917049E+01  0.95742257954E+02  0.91162297517E+02 0.  0.
         11    1    3    3    0    0 -0.68839731231E+01  0.55054304415E+02  0.22191444046E+02  0.59756386351E+02  0.51100000000E-03 0. -1.
         22    1    1    0    0    0 -0.24423513164E+00 -0.29201051912E+02  0.18039917049E+01  0.29257742046E+02  0.00000000000E+00 0. -1.
</event>
<event>
 5    1  0.8902899E-005  0.9118800E+02  0.7818608E-02  0.1130116E+00
         25   -1    0    0    0    0  0.00000000000E+00  0.00000000000E+00  0.99999998245E-14  0.12500000000E+03  0.12500000000E+03 0.  0.
        -11    1    3    3    0    0 -0.57837903289E+02  0.15876864996E+02 -0.17665343908E+01  0.60003487757E+02  0.51100000000E-03 0.  1.
         23    2    1    0    0    0 -0.28837448875E+02 -0.39818136775E+01 -0.55835938318E+01  0.95358309464E+02  0.90634305679E+02 0.  0.
         11    1    3    3    0    0  0.29000454415E+02 -0.19858678673E+02 -0.38170594410E+01  0.35354821707E+02  0.51100000000E-03 0. -1.
         22    1    1    0    0    0  0.28837448875E+02  0.39818136775E+01  0.55835938318E+01  0.29641690536E+02  0.00000000000E+00 0. -1.
</event>
<event>
 5    1  0.8902899E-005  0.9118800E+02  0.7818608E-02  0.1130116E+00
         25   -1    0    0    0    0  0.00000000000E+00  0.00000000000E+00  0.99999998245E-14  0.12500000000E+03  0.12500000000E+03 0.  0.
        -11    1    3    3    0    0  0.39587844071E+02  0.29313896067E+02 -0.26278331313E+02  0.55830570458E+02  0.51100000000E-03 0. -1.
         23    2    1    0    0    0  0.64195896066E+00  0.24364409937E+02 -0.13618737755E+02  0.97080354570E+02  0.92978968818E+02 0.  0.
         11    1    3    3    0    0 -0.38945885110E+02 -0.49494861296E+01  0.12659593558E+02  0.41249784112E+02  0.51100000000E-03 0.  1.
         22    1    1    0    0    0 -0.64195896066E+00 -0.24364409937E+02  0.13618737755E+02  0.27919645430E+02  0.00000000000E+00 0. -1.
</event>
<event>
 5    1  0.8902899E-005  0.9118800E+02  0.7818608E-02  0.1130116E+00
         25   -1    0    0    0    0  0.00000000000E+00  0.00000000000E+00  0.99999998245E-14  0.12500000000E+03  0.12500000000E+03 0.  0.
        -11    1    3    3    0    0 -0.31272535821E+02  0.22179239885E+02  0.23122084389E+00  0.38339844052E+02  0.51100000000E-03 0. -1.
         23    2    1    0    0    0  0.14099729414E+02  0.62756656465E+00  0.26463786104E+02  0.95007864626E+02  0.90149687501E+02 0.  0.
         11    1    3    3    0    0  0.45372265235E+02 -0.21551673320E+02  0.26232565260E+02  0.56668020575E+02  0.51100000000E-03 0.  1.
         22    1    1    0    0    0 -0.14099729414E+02 -0.62756656465E+00 -0.26463786104E+02  0.29992135374E+02  0.00000000000E+00 0.  1.
</event>
<event>
 5    1  0.8902899E-005  0.9118800E+02  0.7818608E-02  0.1130116E+00
         25   -1    0    0    0    0  0.00000000000E+00  0.00000000000E+00  0.99999998245E-14  0.12500000000E+03  0.12500000000E+03 0.  0.
        -11    1    3    3    0    0 -0.82629209506E+01 -0.54289485922E+02  0.23077494007E+02  0.59566726234E+02  0.51100000000E-03 0. -1.
         23    2    1    0    0    0 -0.12433426119E+02 -0.26323536701E+02  0.28197534843E+00  0.95886460545E+02  0.91359811385E+02 0.  0.
         11    1    3    3    0    0 -0.41705051688E+01  0.27965949222E+02 -0.22795518659E+02  0.36319734311E+02  0.51100000000E-03 0.  1.
         22    1    1    0    0    0  0.12433426119E+02  0.26323536701E+02 -0.28197534843E+00  0.29113539455E+02  0.00000000000E+00 0. -1.
</event>
<event>
 5    1  0.8902899E-005  0.9118800E+02  0.7818608E-02  0.1130116E+00
         25   -1    0    0    0    0  0.00000000000E+00  0.00000000000E+00  0.99999998245E-14  0.12500000000E+03  0.12500000000E+03 0.  0.
        -11    1    3    3    0    0  0.46865466575E+02 -0.24316700948E+00  0.14384798089E+02  0.49024009463E+02  0.51100000000E-03 0. -1.
         23    2    1    0    0    0  0.12150132569E+02 -0.26413842647E+02 -0.28411962718E+01  0.95787174031E+02  0.91223864793E+02 0.  0.
         11    1    3    3    0    0 -0.34715334006E+02 -0.26170675638E+02 -0.17225994360E+02  0.46763164569E+02  0.51100000000E-03 0.  1.
         22    1    1    0    0    0 -0.12150132569E+02  0.26413842647E+02  0.28411962718E+01  0.29212825969E+02  0.00000000000E+00 0. -1.
</event>
<event>
 5    1  0.8902899E-005  0.9118800E+02  0.7818608E-02  0.1130116E+00
         25   -1    0    0    0    0  0.00000000000E+00  0.00000000000E+00  0.99999998245E-14  0.12500000000E+03  0.12500000000E+03 0.  0.
        -11    1    3    3    0    0 -0.17343247435E+02  0.34515651968E+02  0.55754063221E+00  0.38631972694E+02  0.51100000000E-03 0.  1.
         23    2    1    0    0    0 -0.18125450008E+02 -0.15884951795E+02 -0.20595974076E+02  0.93297353744E+02  0.87745874182E+02 0.  0.
         11    1    3    3    0    0 -0.78220257261E+00 -0.50400603763E+02 -0.21153514708E+02  0.54665381050E+02  0.51100000000E-03 0. -1.
         22    1    1    0    0    0  0.18125450008E+02  0.15884951795E+02  0.20595974076E+02  0.31702646256E+02  0.00000000000E+00 0. -1.
</event>
<event>
 5    1  0.8902899E-005  0.9118800E+02  0.7818608E-02  0.1130116E+00
         25   -1    0    0    0    0  0.00000000000E+00  0.00000000000E+00  0.99999998245E-14  0.12500000000E+03  0.12500000000E+03 0.  0.
        -11    1    3    3    0    0 -0.21742885028E+02  0.33653171454E+02 -0.23879951799E+02  0.46642696067E+02  0.51100000000E-03 0.  1.
         23    2    1    0    0    0  0.75049255206E+01  0.22911209825E+02  0.15105594727E+02  0.96549579357E+02  0.92262640539E+02 0.  0.
         11    1    3    3    0    0  0.29247810548E+02 -0.10741961629E+02  0.38985546526E+02  0.49906883290E+02  0.51100000000E-03 0. -1.
         22    1    1    0    0    0 -0.75049255206E+01 -0.22911209825E+02 -0.15105594727E+02  0.28450420643E+02  0.00000000000E+00 0. -1.
</event>
<event>
 5    1  0.8902899E-005  0.9118800E+02  0.7818608E-02  0.1130116E+00
         25   -1    0    0    0    0  0.00000000000E+00  0.00000000000E+00  0.99999998245E-14  0.12500000000E+03  0.12500000000E+03 0.  0.
        -11    1    3    3    0    0 -0.12615719939E+02  0.13217717300E+02 -0.85118889589E+00  0.18291773096E+02  0.51100000000E-03 0. -1.
         23    2    1    0    0    0 -0.14228359155E+02 -0.44375773769E+02 -0.11775238617E+02  0.76934297610E+02  0.60071410858E+02 0.  0.
         11    1    3    3    0    0 -0.16126392159E+01 -0.57593491069E+02 -0.10924049721E+02  0.58642524513E+02  0.51100000000E-03 0.  1.
         22    1    1    0    0    0  0.14228359155E+02  0.44375773769E+02  0.11775238617E+02  0.48065702390E+02  0.00000000000E+00 0.  1.
</event>
<event>
 5    1  0.8902899E-005  0.9118800E+02  0.7818608E-02  0.1130116E+00
         25   -1    0    0    0    0  0.00000000000E+00  0.00000000000E+00  0.99999998245E-14  0.12500000000E+03  0.12500000000E+03 0.  0.
        -11    1    3    3    0    0 -0.38058453866E+02 -0.85556672105E+01  0.30052003468E+01  0.39123862047E+02  0.51100000000E-03 0.  1.
         23    2    1    0    0    0  0.88194611795E+01 -0.60929927977E+01 -0.27755004779E+02  0.95246886768E+02  0.90480504486E+02 0.  0.
         11    1    3    3    0    0  0.46877915045E+02  0.24626744129E+01 -0.30760205126E+02  0.56123024721E+02  0.51100000000E-03 0. -1.
         22    1    1    0    0    0 -0.88194611795E+01  0.60929927977E+01  0.27755004779E+02  0.29753113232E+02  0.00000000000E+00 0. -1.
</event>
<event>
 5    1  0.8902899E-005  0.9118800E+02  0.7818608E-02  0.1130116E+00
         25   -1    0    0    0    0  0.00000000000E+00  0.00000000000E+00  0.99999998245E-14  0.12500000000E+03  0.12500000000E+03 0.  0.
        -11    1    3    3    0    0  0.20798766726E+02  0.25290889792E+02  0.86702230470E+01  0.33873154145E+02  0.51100000000E-03 0. -1.
         23    2    1    0    0    0 -0.13419622310E+02 -0.25879406827E+02  0.32025288006E+01  0.95672774571E+02  0.91066973392E+02 0.  0.
         11    1    3    3    0    0 -0.34218389036E+02 -0.51170296618E+02 -0.54676942463E+01  0.61799620426E+02  0.51100000000E-03 0.  1.
         22    1    1    0    0    0  0.13419622310E+02  0.25879406827E+02 -0.32025288006E+01  0.29327225429E+02  0.00000000000E+00 0.  1.
</event>
<event>
 5    1  0.8902899E-005  0.9118800E+02  0.7818608E-02  0.1130116E+00
         25   -1    0    0    0    0  0.00000000000E+00  0.00000000000E+00  0.99999998245E-14  0.12500000000E+03  0.12500000000E+03 0.  0.
        -11    1    3    3    0    0 -0.73204023403E+01 -0.19381270755E+02 -0.33236387694E+02  0.39164772611E+02  0.51100000000E-03 0. -1.
         23    2    1    0    0    0  0.27739232155E+02 -0.37749234129E+01  0.83832002416E+01  0.95776839774E+02  0.91209703121E+02 0.  0.
         11    1    3    3    0    0  0.35059634495E+02  0.15606347342E+02  0.41619587935E+02  0.56612067163E+02  0.51100000000E-03 0.  1.
         22    1    1    0    0    0 -0.27739232155E+02  0.37749234129E+01 -0.83832002416E+01  0.29223160226E+02  0.00000000000E+00 0. -1.
</event>
<event>
 5    1  0.8902899E-005  0.9118800E+02  0.7818608E-02  0.1130116E+00
         25   -1    0    0    0    0  0.00000000000E+00  0.00000000000E+00  0.99999998245E-14  0.12500000000E+03  0.12500000000E+03 0.  0.
        -11    1    3    3    0    0 -0.21147465637E+02 -0.24433939701E+02 -0.27629849585E+02  0.42516365090E+02  0.51100000000E-03 0. -1.
         23    2    1    0    0    0 -0.11837318081E+02 -0.16779901700E+02  0.22770397844E+02  0.94337674282E+02  0.89215573588E+02 0.  0.
         11    1    3    3    0    0  0.93101475551E+01  0.76540380012E+01  0.50400247429E+02  0.51821309192E+02  0.51100000000E-03 0.  1.
         22    1    1    0    0    0  0.11837318081E+02  0.16779901700E+02 -0.22770397844E+02  0.30662325718E+02  0.00000000000E+00 0.  1.
</event>
<event>
 5    1  0.8902899E-005  0.9118800E+02  0.7818608E-02  0.1130116E+00
         25   -1    0    0    0    0  0.00000000000E+00  0.00000000000E+00  0.99999998245E-14  0.12500000000E+03  0.12500000000E+03 0.  0.
        -11    1    3    3    0    0 -0.33795392145E+02 -0.31748420457E+02 -0.33893462457E+02  0.57435681673E+02  0.51100000000E-03 0.  1.
         23    2    1    0    0    0 -0.84473713111E+01 -0.60939084319E+01 -0.29436576658E+02  0.93774916375E+02  0.88423577702E+02 0.  0.
         11    1    3    3    0    0  0.25348020834E+02  0.25654512025E+02  0.44568857985E+01  0.36339234702E+02  0.51100000000E-03 0. -1.
         22    1    1    0    0    0  0.84473713111E+01  0.60939084319E+01  0.29436576658E+02  0.31225083625E+02  0.00000000000E+00 0.  1.
</event>
<event>
 5    1  0.8902899E-005  0.9118800E+02  0.7818608E-02  0.1130116E+00
         25   -1    0    0    0    0  0.00000000000E+00  0.00000000000E+00  0.99999998245E-14  0.12500000000E+03  0.12500000000E+03 0.  0.
        -11    1    3    3    0    0 -0.39894439511E+02 -0.34245111792E+02  0.30327389770E+02  0.60696330664E+02  0.51100000000E-03 0.  1.
         23    2    1    0    0    0 -0.13363594134E+02 -0.23942745274E+02  0.94348329536E+01  0.96002469548E+02  0.91518399172E+02 0.  0.
         11    1    3    3    0    0  0.26530845378E+02  0.10302366518E+02 -0.20892556816E+02  0.35306138884E+02  0.51100000000E-03 0. -1.
         22    1    1    0    0    0  0.13363594134E+02  0.23942745274E+02 -0.94348329536E+01  0.28997530452E+02  0.00000000000E+00 0.  1.
</event>
<event>
 5    1  0.8902899E-005  0.9118800E+02  0.7818608E-02  0.1130116E+00
         25   -1    0    0    0    0  0.00000000000E+00  0.00000000000E+00  0.99999998245E-14  0.12500000000E+03  0.12500000000E+03 0.  0.
        -11    1    3    3    0    0 -0.31983580703E+01  0.34126753232E+02  0.28914734169E+02  0.44843356619E+02  0.51100000000E-03 0. -1.
         23    2    1    0    0    0 -0.17868435798E+02  0.26633332411E+02 -0.13392169441E+02  0.90244200549E+02  0.83282952260E+02 0.  0.
         11    1    3    3    0    0 -0.14670077727E+02 -0.74934208214E+01 -0.42306903611E+02  0.45400843930E+02  0.51100000000E-03 0.  1.
         22    1    1    0    0    0  0.17868435798E+02 -0.26633332411E+02  0.13392169441E+02  0.34755799451E+02  0.00000000000E+00 0.  1.
</event>
<event>
 5    1  0.8902899E-005  0.9118800E+02  0.7818608E-02  0.1130116E+00
         25   -1    0    0    0    0  0.00000000000E+00  0.00000000000E+00  0.99999998245E-14  0.12500000000E+03  0.12500000000E+03 0.  0.
        -11    1    3    3    0    0 -0.34460337404E+02  0.22362533751E+02  0.12012920593E+02  0.42800794749E+02  0.51100000000E-03 0.  1.
         23    2    1    0    0    0  0.12610978500E+02  0.30447040111E+01  0.26321057921E+02  0.95655407801E+02  0.91043132362E+02 0.  0.
         11    1    3    3    0    0  0.47071315904E+02 -0.19317829740E+02  0.14308137327E+02  0.52854613052E+02  0.51100000000E-03 0. -1.
         22    1    1    0    0    0 -0.12610978500E+02 -0.30447040111E+01 -0.26321057921E+02  0.29344592199E+02  0.00000000000E+00 0. -1.
</event>
<event>
 5    1  0.8902899E-005  0.9118800E+02  0.7818608E-02  0.1130116E+00
         25   -1    0    0    0    0  0.00000000000E+00  0.00000000000E+00  0.99999998245E-14  0.12500000000E+03  0.12500000000E+03 0.  0.
        -11    1    3    3    0    0  0.35227012101E+02  0.34972237581E+01 -0.26646940363E+02  0.44308378289E+02  0.51100000000E-03 0.  1.
         23    2    1    0    0    0  0.19888549379E+02  0.22384204922E+02  0.14205844828E+02  0.91857684848E+02  0.85670422037E+02 0.  0.
         11    1    3    3    0    0 -0.15338462722E+02  0.18886981163E+02  0.40852785191E+02  0.47549306559E+02  0.51100000000E-03 0. -1.
         22    1    1    0    0    0 -0.19888549379E+02 -0.22384204922E+02 -0.14205844828E+02  0.33142315152E+02  0.00000000000E+00 0.  1.
</event>
<event>
 5    1  0.8902899E-005  0.9118800E+02  0.7818608E-02  0.1130116E+00
         25   -1    0    0    0    0  0.00000000000E+00  0.00000000000E+00  0.99999998245E-14  0.12500000000E+03  0.12500000000E+03 0.  0.
        -11    1    3    3    0    0  0.26912763148E+01  0.27488134308E+02  0.38930034025E+02  0.47732463224E+02  0.51100000000E-03 0. -1.
         23    2    1    0    0    0  0.38954687270E+01 -0.16807049173E+02  0.25826807777E+02  0.93940773054E+02  0.88657730985E+02 0.  0.
         11    1    3    3    0    0  0.12041924122E+01 -0.44295183481E+02 -0.13103226248E+02  0.46208309830E+02  0.51100000000E-03 0.  1.
         22    1    1    0    0    0 -0.38954687270E+01  0.16807049173E+02 -0.25826807777E+02  0.31059226946E+02  0.00000000000E+00 0. -1.
</event>
<event>
 5    1  0.8902899E-005  0.9118800E+02  0.7818608E-02  0.1130116E+00
         25   -1    0    0    0    0  0.00000000000E+00  0.00000000000E+00  0.99999998245E-14  0.12500000000E+03  0.12500000000E+03 0.  0.
        -11    1    3    3    0    0  0.10402234233E+02 -0.27733729473E+02  0.27342659278E+02  0.40311130525E+02  0.51100000000E-03 0. -1.
         23    2    1    0    0    0  0.18811304478E+02 -0.92675623090E+01 -0.22570666541E+02  0.94191107202E+02  0.89009981466E+02 0.  0.
         11    1    3    3    0    0  0.84090702448E+01  0.18466167164E+02 -0.49913325820E+02  0.53879976677E+02  0.51100000000E-03 0.  1.
         22    1    1    0    0    0 -0.18811304478E+02  0.92675623090E+01  0.22570666541E+02  0.30808892798E+02  0.00000000000E+00 0.  1.
</event>
<event>
 5    1  0.8902899E-005  0.9118800E+02  0.7818608E-02  0.1130116E+00
         25   -1    0    0    0    0  0.00000000000E+00  0.00000000000E+00  0.99999998245E-14  0.12500000000E+03  0.12500000000E+03 0.  0.
        -11    1    3    3    0    0  0.25121120393E+02  0.26797385759E+02  0.17202568296E+02  0.40559819151E+02  0.51100000000E-03 0.  1.
         23    2    1    0    0    0 -0.23922757539E+02  0.96315159197E-01  0.15630895219E+02  0.96423217637E+02  0.92091283025E+02 0.  0.
         11    1    3    3    0    0 -0.49043877932E+02 -0.26701070600E+02 -0.15716730768E+01  0.55863398485E+02  0.51100000000E-03 0. -1.
         22    1    1    0    0    0  0.23922757539E+02 -0.96315159197E-01 -0.15630895219E+02  0.28576782363E+02  0.00000000000E+00 0. -1.
</event>
<event>
 5    1  0.8902899E-005  0.9118800E+02  0.7818608E-02  0.1130116E+00
         25   -1    0    0    0    0  0.00000000000E+00  0.00000000000E+00  0.99999998245E-14  0.12500000000E+03  0.12500000000E+03 0.  0.
        -11    1    3    3    0    0  0.12390698744E+02 -0.26749040832E+02 -0.51845969011E+02  0.59640968333E+02  0.51100000000E-03 0. -1.
         23    2    1    0    0    0 -0.28761085266E+01 -0.23226352608E+02 -0.24778067968E+02  0.90916454000E+02  0.84285903329E+02 0.  0.
         11    1    3    3    0    0 -0.15266807270E+02  0.35226882248E+01  0.27067901043E+02  0.31275485667E+02  0.51100000000E-03 0.  1.
         22    1    1    0    0    0  0.28761085266E+01  0.23226352608E+02  0.24778067968E+02  0.34083546000E+02  0.00000000000E+00 0. -1.
</event>
<event>
 5    1  0.8902899E-005  0.9118800E+02  0.7818608E-02  0.1130116E+00
         25   -1    0    0    0    0  0.00000000000E+00  0.00000000000E+00  0.99999998245E-14  0.12500000000E+03  0.12500000000E+03 0.  0.
        -11    1    3    3    0    0  0.27359240462E+02  0.14722731836E+02 -0.49689920072E+02  0.58603541091E+02  0.51100000000E-03 0. -1.
         23    2    1    0    0    0  0.63017357969E+01  0.20462854449E+02 -0.18310371346E+02  0.96827140985E+02  0.92637925528E+02 0.  0.
         11    1    3    3    0    0 -0.21057504665E+02  0.57401226126E+01  0.31379548726E+02  0.38223599894E+02  0.51100000000E-03 0.  1.
         22    1    1    0    0    0 -0.63017357969E+01 -0.20462854449E+02  0.18310371346E+02  0.28172859015E+02  0.00000000000E+00 0. -1.
</event>
<event>
 5    1  0.8902899E-005  0.9118800E+02  0.7818608E-02  0.1130116E+00
         25   -1    0    0    0    0  0.00000000000E+00  0.00000000000E+00  0.99999998245E-14  0.12500000000E+03  0.12500000000E+03 0.  0.
        -11    1    3    3    0    0  0.35547406620E+02 -0.29497039266E+01 -0.35065096288E+02  0.50018794954E+02  0.51100000000E-03 0.  1.
         23    2    1    0    0    0  0.69385015683E+01  0.24916189975E+02 -0.18216736960E+02  0.93364437220E+02  0.87841387199E+02 0.  0.
         11    1    3    3    0    0 -0.28608905051E+02  0.27865893902E+02  0.16848359328E+02  0.43345642267E+02  0.51100000000E-03 0. -1.
         22    1    1    0    0    0 -0.69385015683E+01 -0.24916189975E+02  0.18216736960E+02  0.31635562780E+02  0.00000000000E+00 0.  1.
</event>
<event>
 5    1  0.8902899E-005  0.9118800E+02  0.7818608E-02  0.1130116E+00
         25   -1    0    0    0    0  0.00000000000E+00  0.00000000000E+00  0.99999998245E-14  0.12500000000E+03  0.12500000000E+03 0.  0.
        -11    1    3    3    0    0 -0.94747308129E+01  0.52868518721E+02 -0.19808608442E+01  0.53747321846E+02  0.51100000000E-03 0.  1.
         23    2    1    0    0    0  0.17296074783E+02  0.24325309467E+02  0.79323373799E+01  0.94116398205E+02  0.88905002959E+02 0.  0.
         11    1    3    3    0    0  0.26770805596E+02 -0.28543209254E+02  0.99131982241E+01  0.40369076358E+02  0.51100000000E-03 0. -1.
         22    1    1    0    0    0 -0.17296074783E+02 -0.24325309467E+02 -0.79323373799E+01  0.30883601795E+02  0.00000000000E+00 0.  1.
</event>
<event>
 5    1  0.8902899E-005  0.9118800E+02  0.7818608E-02  0.1130116E+00
         25   -1    0    0    0    0  0.00000000000E+00  0.00000000000E+00  0.99999998245E-14  0.12500000000E+03  0.12500000000E+03 0.  0.
        -11    1    3    3    0    0  0.19122058535E+02 -0.62767596185E+01  0.46719125089E+02  0.50869710863E+02  0.51100000000E-03 0.  1.
         23    2    1    0    0    0  0.60114854743E+00  0.22889129111E+02  0.16408439531E+02  0.96830681604E+02  0.92642702903E+02 0.  0.
         11    1    3    3    0    0 -0.18520909987E+02  0.29165888730E+02 -0.30310685559E+02  0.45960970741E+02  0.51100000000E-03 0. -1.
         22    1    1    0    0    0 -0.60114854743E+00 -0.22889129111E+02 -0.16408439531E+02  0.28169318396E+02  0.00000000000E+00 0.  1.
</event>
<event>
 5    1  0.8902899E-005  0.9118800E+02  0.7818608E-02  0.1130116E+00
         25   -1    0    0    0    0  0.00000000000E+00  0.00000000000E+00  0.99999998245E-14  0.12500000000E+03  0.12500000000E+03 0.  0.
        -11    1    3    3    0    0  0.54481849110E+02 -0.93909512495E+01  0.17662504757E+02  0.58038141962E+02  0.51100000000E-03 0. -1.
         23    2    1    0    0    0  0.18054974454E+02 -0.17960897241E+02  0.14743054774E+02  0.95573250327E+02  0.90930262190E+02 0.  0.
         11    1    3    3    0    0 -0.36426874657E+02 -0.85699459913E+01 -0.29194499826E+01  0.37535108365E+02  0.51100000000E-03 0.  1.
         22    1    1    0    0    0 -0.18054974454E+02  0.17960897241E+02 -0.14743054774E+02  0.29426749673E+02  0.00000000000E+00 0. -1.
</event>
<event>
 5    1  0.8902899E-005  0.9118800E+02  0.7818608E-02  0.1130116E+00
         25   -1    0    0    0    0  0.00000000000E+00  0.00000000000E+00  0.99999998245E-14  0.12500000000E+03  0.12500000000E+03 0.  0.
        -11    1    3    3    0    0 -0.19924683929E+02 -0.30794955950E+01 -0.35704404393E+02  0.41003424444E+02  0.51100000000E-03 0.  1.
         23    2    1    0    0    0  0.90043109539E+01 -0.26578488340E+02  0.53286159585E+01  0.96436250137E+02  0.92108970976E+02 0.  0.
         11    1    3    3    0    0  0.28928994883E+02 -0.23498992745E+02  0.41033020351E+02  0.55432825694E+02  0.51100000000E-03 0. -1.
         22    1    1    0    0    0 -0.90043109539E+01  0.26578488340E+02 -0.53286159585E+01  0.28563749863E+02  0.00000000000E+00 0. -1.
</event>
<event>
 5    1  0.8902899E-005  0.9118800E+02  0.7818608E-02  0.1130116E+00
         25   -1    0    0    0    0  0.00000000000E+00  0.00000000000E+00  0.99999998245E-14  0.12500000000E+03  0.12500000000E+03 0.  0.
        -11    1    3    3    0    0  0.16347939021E+02 -0.67281258753E+01  0.35410002599E+02  0.39577658753E+02  0.51100000000E-03 0.  1.
         23    2    1    0    0    0 -0.29185446603E+02 -0.26011549297E+01  0.31568593992E+01  0.95529301643E+02  0.90869826735E+02 0.  0.
         11    1    3    3    0    0 -0.45533385624E+02  0.41269709456E+01 -0.32253143200E+02  0.55951642890E+02  0.51100000000E-03 0. -1.
         22    1    1    0    0    0  0.29185446603E+02  0.26011549297E+01 -0.31568593992E+01  0.29470698357E+02  0.00000000000E+00 0. -1.
</event>
<event>
 5    1  0.8902899E-005  0.9118800E+02  0.7818608E-02  0.1130116E+00
         25   -1    0    0    0    0  0.00000000000E+00  0.00000000000E+00  0.99999998245E-14  0.12500000000E+03  0.12500000000E+03 0.  0.
        -11    1    3    3    0    0 -0.21317997429E+02 -0.37106135853E+02 -0.41539743067E+02  0.59639522019E+02  0.51100000000E-03 0.  1.
         23    2    1    0    0    0  0.11369810943E+01 -0.16114922799E+02 -0.26748236252E+02  0.93751774364E+02  0.88390856942E+02 0.  0.
         11    1    3    3    0    0  0.22454978523E+02  0.20991213054E+02  0.14791506815E+02  0.34112252345E+02  0.51100000000E-03 0. -1.
         22    1    1    0    0    0 -0.11369810943E+01  0.16114922799E+02  0.26748236252E+02  0.31248225636E+02  0.00000000000E+00 0.  1.
</event>
<event>
 5    1  0.8902899E-005  0.9118800E+02  0.7818608E-02  0.1130116E+00
         25   -1    0    0    0    0  0.00000000000E+00  0.00000000000E+00  0.99999998245E-14  0.12500000000E+03  0.12500000000E+03 0.  0.
        -11    1    3    3    0    0  0.39879503339E+02  0.16110909332E+02  0.11103419617E+02  0.44420964797E+02  0.51100000000E-03 0.  1.
         23    2    1    0    0    0  0.16093136636E+01  0.36056871881E+02  0.98158769861E+01  0.87596265677E+02  0.79209004660E+02 0.  0.
         11    1    3    3    0    0 -0.38270189675E+02  0.19945962549E+02 -0.12875426310E+01  0.43175300880E+02  0.51100000000E-03 0. -1.
         22    1    1    0    0    0 -0.16093136636E+01 -0.36056871881E+02 -0.98158769861E+01  0.37403734323E+02  0.00000000000E+00 0.  1.
</event>
<event>
 5    1  0.8902899E-005  0.9118800E+02  0.7818608E-02  0.1130116E+00
         25   -1    0    0    0    0  0.00000000000E+00  0.00000000000E+00  0.99999998245E-14  0.12500000000E+03  0.12500000000E+03 0.  0.
        -11    1    3    3    0    0 -0.32500020253E+01 -0.45325462630E+02 -0.41442350639E+02  0.61501451223E+02  0.51100000000E-03 0.  1.
         23    2    1    0    0    0 -0.48892903808E+01 -0.28368494835E+02 -0.16161034548E+02  0.91987037435E+02  0.85858950371E+02 0.  0.
         11    1    3    3    0    0 -0.16392883555E+01  0.16956967795E+02  0.25281316091E+02  0.30485586212E+02  0.51100000000E-03 0. -1.
         22    1    1    0    0    0  0.48892903808E+01  0.28368494835E+02  0.16161034548E+02  0.33012962565E+02  0.00000000000E+00 0.  1.
</event>
<event>
 5    1  0.8902899E-005  0.9118800E+02  0.7818608E-02  0.1130116E+00
         25   -1    0    0    0    0  0.00000000000E+00  0.00000000000E+00  0.99999998245E-14  0.12500000000E+03  0.12500000000E+03 0.  0.
        -11    1    3    3    0    0 -0.46680797906E+02 -0.38181187742E+02 -0.33369147015E+01  0.60398965145E+02  0.51100000000E-03 0. -1.
         23    2    1    0    0    0 -0.22387259044E+02 -0.12262686863E+02  0.88935903636E+01  0.97969298822E+02  0.94166473363E+02 0.  0.
         11    1    3    3    0    0  0.24293538863E+02  0.25918500878E+02  0.12230505065E+02  0.37570333678E+02  0.51100000000E-03 0.  1.
         22    1    1    0    0    0  0.22387259044E+02  0.12262686863E+02 -0.88935903636E+01  0.27030701178E+02  0.00000000000E+00 0. -1.
</event>
<event>
 5    1  0.8902899E-005  0.9118800E+02  0.7818608E-02  0.1130116E+00
         25   -1    0    0    0    0  0.00000000000E+00  0.00000000000E+00  0.99999998245E-14  0.12500000000E+03  0.12500000000E+03 0.  0.
        -11    1    3    3    0    0 -0.28464022332E+01 -0.35695563530E+02 -0.57307394719E+01  0.36264536900E+02  0.51100000000E-03 0.  1.
         23    2    1    0    0    0  0.23772602104E+02  0.17150066929E+02 -0.35104402714E+01  0.95477388372E+02  0.90798387061E+02 0.  0.
         11    1    3    3    0    0  0.26619004337E+02  0.52845630460E+02  0.22202992005E+01  0.59212851471E+02  0.51100000000E-03 0. -1.
         22    1    1    0    0    0 -0.23772602104E+02 -0.17150066929E+02  0.35104402714E+01  0.29522611628E+02  0.00000000000E+00 0. -1.
</event>
<event>
 5    1  0.8902899E-005  0.9118800E+02  0.7818608E-02  0.1130116E+00
         25   -1    0    0    0    0  0.00000000000E+00  0.00000000000E+00  0.99999998245E-14  0.12500000000E+03  0.12500000000E+03 0.  0.
        -11    1    3    3    0    0  0.35765006306E+02 -0.64407793880E+01  0.24496994446E+02  0.43826043083E+02  0.51100000000E-03 0. -1.
         23    2    1    0    0    0 -0.44963479915E+01  0.25156505714E+02  0.13197143955E+02  0.96238366987E+02  0.91840033464E+02 0.  0.
         11    1    3    3    0    0 -0.40261354297E+02  0.31597285102E+02 -0.11299850490E+02  0.52412323904E+02  0.51100000000E-03 0.  1.
         22    1    1    0    0    0  0.44963479915E+01 -0.25156505714E+02 -0.13197143955E+02  0.28761633013E+02  0.00000000000E+00 0.  1.
</event>
<event>
 5    1  0.8902899E-005  0.9118800E+02  0.7818608E-02  0.1130116E+00
         25   -1    0    0    0    0  0.00000000000E+00  0.00000000000E+00  0.99999998245E-14  0.12500000000E+03  0.12500000000E+03 0.  0.
        -11    1    3    3    0    0 -0.45826202645E+02  0.33088241514E+02 -0.45730108366E+01  0.56707891900E+02  0.51100000000E-03 0. -1.
         23    2    1    0    0    0 -0.14190136707E+02  0.16644051692E+02 -0.19817991552E+02  0.95484966108E+02  0.90808818553E+02 0.  0.
         11    1    3    3    0    0  0.31636065938E+02 -0.16444189822E+02 -0.15244980715E+02  0.38777074209E+02  0.51100000000E-03 0.  1.
         22    1    1    0    0    0  0.14190136707E+02 -0.16644051692E+02  0.19817991552E+02  0.29515033892E+02  0.00000000000E+00 0. -1.
</event>
<event>
 5    1  0.8902899E-005  0.9118800E+02  0.7818608E-02  0.1130116E+00
         25   -1    0    0    0    0  0.00000000000E+00  0.00000000000E+00  0.99999998245E-14  0.12500000000E+03  0.12500000000E+03 0.  0.
        -11    1    3    3    0    0 -0.40028147915E+02  0.24977800392E+01 -0.47327002786E+02  0.62034963719E+02  0.51100000000E-03 0. -1.
         23    2    1    0    0    0 -0.14598203389E+02  0.23991453029E+01 -0.25365409366E+02  0.95635609445E+02  0.91015945642E+02 0.  0.
         11    1    3    3    0    0  0.25429944526E+02 -0.98634736351E-01  0.21961593420E+02  0.33600645726E+02  0.51100000000E-03 0.  1.
         22    1    1    0    0    0  0.14598203389E+02 -0.23991453029E+01  0.25365409366E+02  0.29364390555E+02  0.00000000000E+00 0. -1.
</event>
<event>
 5    1  0.8902899E-005  0.9118800E+02  0.7818608E-02  0.1130116E+00
         25   -1    0    0    0    0  0.00000000000E+00  0.00000000000E+00  0.99999998245E-14  0.12500000000E+03  0.12500000000E+03 0.  0.
        -11    1    3    3    0    0  0.32273816393E+02  0.43193375484E+02  0.17068088674E+01  0.53946085187E+02  0.51100000000E-03 0. -1.
         23    2    1    0    0    0  0.11985370728E+02  0.16298480175E+02 -0.21978400802E+02  0.95127945010E+02  0.90316035412E+02 0.  0.
         11    1    3    3    0    0 -0.20288445664E+02 -0.26894895308E+02 -0.23685209669E+02  0.41181859823E+02  0.51100000000E-03 0.  1.
         22    1    1    0    0    0 -0.11985370728E+02 -0.16298480175E+02  0.21978400802E+02  0.29872054990E+02  0.00000000000E+00 0. -1.
</event>
<event>
 5    1  0.8902899E-005  0.9118800E+02  0.7818608E-02  0.1130116E+00
         25   -1    0    0    0    0  0.00000000000E+00  0.00000000000E+00  0.99999998245E-14  0.12500000000E+03  0.12500000000E+03 0.  0.
        -11    1    3    3    0    0  0.33107535330E+02 -0.45890351275E+02  0.17941973574E+02  0.59362847402E+02  0.51100000000E-03 0.  1.
         23    2    1    0    0    0  0.25172464682E+02 -0.14572078580E+02  0.87687763795E+00  0.95900732540E+02  0.91379336477E+02 0.  0.
         11    1    3    3    0    0 -0.79350706476E+01  0.31318272694E+02 -0.17065095936E+02  0.36537885137E+02  0.51100000000E-03 0. -1.
         22    1    1    0    0    0 -0.25172464682E+02  0.14572078580E+02 -0.87687763795E+00  0.29099267460E+02  0.00000000000E+00 0.  1.
</event>
<event>
 5    1  0.8902899E-005  0.9118800E+02  0.7818608E-02  0.1130116E+00
         25   -1    0    0    0    0  0.00000000000E+00  0.00000000000E+00  0.99999998245E-14  0.12500000000E+03  0.12500000000E+03 0.  0.
        -11    1    3    3    0    0 -0.85003953496E+01 -0.15937819969E+02  0.47032205708E+02  0.50381536305E+02  0.51100000000E-03 0. -1.
         23    2    1    0    0    0 -0.19062598389E+02  0.15477383590E+02  0.16744146964E+02  0.95279661549E+02  0.90525771950E+02 0.  0.
         11    1    3    3    0    0 -0.10562203039E+02  0.31415203558E+02 -0.30288058744E+02  0.44898125243E+02  0.51100000000E-03 0.  1.
         22    1    1    0    0    0  0.19062598389E+02 -0.15477383590E+02 -0.16744146964E+02  0.29720338451E+02  0.00000000000E+00 0. -1.
</event>
<event>
 5    1  0.8902899E-005  0.9118800E+02  0.7818608E-02  0.1130116E+00
         25   -1    0    0    0    0  0.00000000000E+00  0.00000000000E+00  0.99999998245E-14  0.12500000000E+03  0.12500000000E+03 0.  0.
        -11    1    3    3    0    0  0.15752413930E+02 -0.57301822815E+02  0.53909524606E+01  0.59671599704E+02  0.51100000000E-03 0.  1.
         23    2    1    0    0    0  0.29549095612E+01 -0.26321548974E+02 -0.10171052263E+02  0.96627377015E+02  0.92367982839E+02 0.  0.
         11    1    3    3    0    0 -0.12797504369E+02  0.30980273842E+02 -0.15562004724E+02  0.36955777311E+02  0.51100000000E-03 0. -1.
         22    1    1    0    0    0 -0.29549095612E+01  0.26321548974E+02  0.10171052263E+02  0.28372622985E+02  0.00000000000E+00 0.  1.
</event>
<event>
 5    1  0.8902899E-005  0.9118800E+02  0.7818608E-02  0.1130116E+00
         25   -1    0    0    0    0  0.00000000000E+00  0.00000000000E+00  0.99999998245E-14  0.12500000000E+03  0.12500000000E+03 0.  0.
        -11    1    3    3    0    0 -0.31710342822E+02 -0.12818771140E+01 -0.36141573547E+02  0.48097841839E+02  0.51100000000E-03 0. -1.
         23    2    1    0    0    0  0.24878838706E+01 -0.25716946596E+02 -0.14474442043E+02  0.95384794770E+02  0.90670826027E+02 0.  0.
         11    1    3    3    0    0  0.34198226693E+02 -0.24435069482E+02  0.21667131505E+02  0.47286952930E+02  0.51100000000E-03 0.  1.
         22    1    1    0    0    0 -0.24878838706E+01  0.25716946596E+02  0.14474442043E+02  0.29615205230E+02  0.00000000000E+00 0.  1.
</event>
<event>
 5    1  0.8902899E-005  0.9118800E+02  0.7818608E-02  0.1130116E+00
         25   -1    0    0    0    0  0.00000000000E+00  0.00000000000E+00  0.99999998245E-14  0.12500000000E+03  0.12500000000E+03 0.  0.
        -11    1    3    3    0    0 -0.11979199235E+01  0.72790660202E+01 -0.39288411948E+02  0.39974981275E+02  0.51100000000E-03 0.  1.
         23    2    1    0    0    0  0.26539907371E+02  0.39478640663E+00  0.97412442350E+01  0.96726083066E+02  0.92501463591E+02 0.  0.
         11    1    3    3    0    0  0.27737827294E+02 -0.68842796136E+01  0.49029656183E+02  0.56751101791E+02  0.51100000000E-03 0. -1.
         22    1    1    0    0    0 -0.26539907371E+02 -0.39478640663E+00 -0.97412442350E+01  0.28273916934E+02  0.00000000000E+00 0. -1.
</event>
<event>
 5    1  0.8902899E-005  0.9118800E+02  0.7818608E-02  0.1130116E+00
         25   -1    0    0    0    0  0.00000000000E+00  0.00000000000E+00  0.99999998245E-14  0.12500000000E+03  0.12500000000E+03 0.  0.
        -11    1    3    3    0    0 -0.18301963960E+02  0.27357636044E+02  0.15055002860E+02  0.36194685330E+02  0.51100000000E-03 0.  1.
         23    2    1    0    0    0 -0.14682299451E+02 -0.21455947757E+02 -0.16290960770E+02  0.94319012172E+02  0.89189422259E+02 0.  0.
         11    1    3    3    0    0  0.36196645093E+01 -0.48813583801E+02 -0.31345963630E+02  0.58124326842E+02  0.51100000000E-03 0. -1.
         22    1    1    0    0    0  0.14682299451E+02  0.21455947757E+02  0.16290960770E+02  0.30680987828E+02  0.00000000000E+00 0. -1.
</event>
<event>
 5    1  0.8902899E-005  0.9118800E+02  0.7818608E-02  0.1130116E+00
         25   -1    0    0    0    0  0.00000000000E+00  0.00000000000E+00  0.99999998245E-14  0.12500000000E+03  0.12500000000E+03 0.  0.
        -11    1    3    3    0    0 -0.23400486370E+02 -0.12233016039E+02  0.53352316325E+02  0.59528976988E+02  0.51100000000E-03 0. -1.
         23    2    1    0    0    0 -0.81658301830E+00  0.14167104275E+01  0.30555494535E+02  0.94400782321E+02  0.89303950530E+02 0.  0.
         11    1    3    3    0    0  0.22583903352E+02  0.13649726467E+02 -0.22796821789E+02  0.34871805333E+02  0.51100000000E-03 0.  1.
         22    1    1    0    0    0  0.81658301830E+00 -0.14167104275E+01 -0.30555494535E+02  0.30599217679E+02  0.00000000000E+00 0. -1.
</event>
<event>
 5    1  0.8902899E-005  0.9118800E+02  0.7818608E-02  0.1130116E+00
         25   -1    0    0    0    0  0.00000000000E+00  0.00000000000E+00  0.99999998245E-14  0.12500000000E+03  0.12500000000E+03 0.  0.
        -11    1    3    3    0    0  0.39992829813E+02 -0.17287429886E+02  0.50217562611E+01  0.43857721153E+02  0.51100000000E-03 0.  1.
         23    2    1    0    0    0  0.11826172668E+02  0.26444727789E+02  0.18816713583E+01  0.95970313903E+02  0.91474468983E+02 0.  0.
         11    1    3    3    0    0 -0.28166657145E+02  0.43732157675E+02 -0.31400849028E+01  0.52112592750E+02  0.51100000000E-03 0. -1.
         22    1    1    0    0    0 -0.11826172668E+02 -0.26444727789E+02 -0.18816713583E+01  0.29029686097E+02  0.00000000000E+00 0. -1.
</event>
<event>
 5    1  0.8902899E-005  0.9118800E+02  0.7818608E-02  0.1130116E+00
         25   -1    0    0    0    0  0.00000000000E+00  0.00000000000E+00  0.99999998245E-14  0.12500000000E+03  0.12500000000E+03 0.  0.
        -11    1    3    3    0    0  0.17495597215E+02 -0.93725602850E+01  0.28328038131E+02  0.34589283786E+02  0.51100000000E-03 0.  1.
         23    2    1    0    0    0 -0.25230059246E+02  0.19698049917E+02  0.11672872315E+01  0.92969832664E+02  0.87278050883E+02 0.  0.
         11    1    3    3    0    0 -0.42725656462E+02  0.29070610202E+02 -0.27160750899E+02  0.58380548878E+02  0.51100000000E-03 0. -1.
         22    1    1    0    0    0  0.25230059246E+02 -0.19698049917E+02 -0.11672872315E+01  0.32030167336E+02  0.00000000000E+00 0. -1.
</event>
<event>
 5    1  0.8902899E-005  0.9118800E+02  0.7818608E-02  0.1130116E+00
         25   -1    0    0    0    0  0.00000000000E+00  0.00000000000E+00  0.99999998245E-14  0.12500000000E+03  0.12500000000E+03 0.  0.
        -11    1    3    3    0    0  0.58822722095E+01  0.20010196665E+02 -0.52189290250E+02  0.56202589922E+02  0.51100000000E-03 0.  1.
         23    2    1    0    0    0 -0.65672101539E+01  0.23646101932E+02 -0.13536696171E+02  0.96973074928E+02  0.92834631102E+02 0.  0.
         11    1    3    3    0    0 -0.12449482363E+02  0.36359052675E+01  0.38652594079E+02  0.40770485005E+02  0.51100000000E-03 0. -1.
         22    1    1    0    0    0  0.65672101539E+01 -0.23646101932E+02  0.13536696171E+02  0.28026925072E+02  0.00000000000E+00 0.  1.
</event>
<event>
 5    1  0.8902899E-005  0.9118800E+02  0.7818608E-02  0.1130116E+00
         25   -1    0    0    0    0  0.00000000000E+00  0.00000000000E+00  0.99999998245E-14  0.12500000000E+03  0.12500000000E+03 0.  0.
        -11    1    3    3    0    0 -0.11335835088E+02  0.20468409943E+02 -0.23082845652E+02  0.32867533014E+02  0.51100000000E-03 0.  1.
         23    2    1    0    0    0  0.32961028713E+02 -0.10771445839E+02 -0.12785664595E+02  0.88041554708E+02  0.79908627050E+02 0.  0.
         11    1    3    3    0    0  0.44296863801E+02 -0.31239855782E+02  0.10297181057E+02  0.55174021694E+02  0.51100000000E-03 0. -1.
         22    1    1    0    0    0 -0.32961028713E+02  0.10771445839E+02  0.12785664595E+02  0.36958445292E+02  0.00000000000E+00 0. -1.
</event>
<event>
 5    1  0.8902899E-005  0.9118800E+02  0.7818608E-02  0.1130116E+00
         25   -1    0    0    0    0  0.00000000000E+00  0.00000000000E+00  0.99999998245E-14  0.12500000000E+03  0.12500000000E+03 0.  0.
        -11    1    3    3    0    0  0.42548601735E+02 -0.14232022843E+02  0.27744676380E+02  0.52751313268E+02  0.51100000000E-03 0. -1.
         23    2    1    0    0    0  0.25452192558E+02 -0.53583466748E+01 -0.11571146865E+02  0.96532168596E+02  0.92239048938E+02 0.  0.
         11    1    3    3    0    0 -0.17096409178E+02  0.88736761686E+01 -0.39315823245E+02  0.43780855328E+02  0.51100000000E-03 0.  1.
         22    1    1    0    0    0 -0.25452192558E+02  0.53583466748E+01  0.11571146865E+02  0.28467831404E+02  0.00000000000E+00 0. -1.
</event>
<event>
 5    1  0.8902899E-005  0.9118800E+02  0.7818608E-02  0.1130116E+00
         25   -1    0    0    0    0  0.00000000000E+00  0.00000000000E+00  0.99999998245E-14  0.12500000000E+03  0.12500000000E+03 0.  0.
        -11    1    3    3    0    0  0.22590566807E+02 -0.13746612575E+02  0.50927997320E+02  0.57384353070E+02  0.51100000000E-03 0.  1.
         23    2    1    0    0    0 -0.56618053671E+01 -0.74803375102E+00  0.29015077011E+02  0.95428218037E+02  0.90730670168E+02 0.  0.
         11    1    3    3    0    0 -0.28252372174E+02  0.12998578824E+02 -0.21912920309E+02  0.38043864967E+02  0.51100000000E-03 0. -1.
         22    1    1    0    0    0  0.56618053671E+01  0.74803375102E+00 -0.29015077011E+02  0.29571781963E+02  0.00000000000E+00 0.  1.
</event>
<event>
 5    1  0.8902899E-005  0.9118800E+02  0.7818608E-02  0.1130116E+00
         25   -1    0    0    0    0  0.00000000000E+00  0.00000000000E+00  0.99999998245E-14  0.12500000000E+03  0.12500000000E+03 0.  0.
        -11    1    3    3    0    0 -0.27611604159E+02 -0.34300167888E+02  0.19923113994E+02  0.48330452851E+02  0.51100000000E-03 0.  1.
         23    2    1    0    0    0 -0.10883568944E+02 -0.10443902876E+02 -0.21354360437E+02  0.98855480691E+02  0.95335566147E+02 0.  0.
         11    1    3    3    0    0  0.16728035214E+02  0.23856265012E+02 -0.41277474431E+02  0.50525027839E+02  0.51100000000E-03 0. -1.
         22    1    1    0    0    0  0.10883568944E+02  0.10443902876E+02  0.21354360437E+02  0.26144519309E+02  0.00000000000E+00 0.  1.
</event>
<event>
 5    1  0.8902899E-005  0.9118800E+02  0.7818608E-02  0.1130116E+00
         25   -1    0    0    0    0  0.00000000000E+00  0.00000000000E+00  0.99999998245E-14  0.12500000000E+03  0.12500000000E+03 0.  0.
        -11    1    3    3    0    0 -0.98553500258E+01 -0.31637934919E+02  0.10420509124E+02  0.34737211470E+02  0.51100000000E-03 0. -1.
         23    2    1    0    0    0  0.16827321643E+02  0.14826481738E+02  0.26121918983E+02  0.90571262501E+02  0.83772403721E+02 0.  0.
         11    1    3    3    0    0  0.26682671669E+02  0.46464416657E+02  0.15701409859E+02  0.55834051031E+02  0.51100000000E-03 0.  1.
         22    1    1    0    0    0 -0.16827321643E+02 -0.14826481738E+02 -0.26121918983E+02  0.34428737499E+02  0.00000000000E+00 0.  1.
</event>
<event>
 5    1  0.8902899E-005  0.9118800E+02  0.7818608E-02  0.1130116E+00
         25   -1    0    0    0    0  0.00000000000E+00  0.00000000000E+00  0.99999998245E-14  0.12500000000E+03  0.12500000000E+03 0.  0.
        -11    1    3    3    0    0 -0.26093317037E+02 -0.18313265675E+02 -0.50059165921E+02  0.59347763114E+02  0.51100000000E-03 0.  1.
         23    2    1    0    0    0 -0.21011724103E+02 -0.15095978871E+02 -0.14642475812E+02  0.95271508182E+02  0.90514512900E+02 0.  0.
         11    1    3    3    0    0  0.50815929331E+01  0.32172868039E+01  0.35416690110E+02  0.35923745068E+02  0.51100000000E-03 0. -1.
         22    1    1    0    0    0  0.21011724103E+02  0.15095978871E+02  0.14642475812E+02  0.29728491818E+02  0.00000000000E+00 0.  1.
</event>
<event>
 5    1  0.8902899E-005  0.9118800E+02  0.7818608E-02  0.1130116E+00
         25   -1    0    0    0    0  0.00000000000E+00  0.00000000000E+00  0.99999998245E-14  0.12500000000E+03  0.12500000000E+03 0.  0.
        -11    1    3    3    0    0 -0.26230019377E+02 -0.40633065035E+02  0.95511282926E+01  0.49297910123E+02  0.51100000000E-03 0. -1.
         23    2    1    0    0    0 -0.26916230702E+02 -0.12013818269E+01 -0.13379888025E+02  0.94917643093E+02  0.90024500961E+02 0.  0.
         11    1    3    3    0    0 -0.68621132552E+00  0.39431683208E+02 -0.22931016318E+02  0.45619732969E+02  0.51100000000E-03 0.  1.
         22    1    1    0    0    0  0.26916230702E+02  0.12013818269E+01  0.13379888025E+02  0.30082356907E+02  0.00000000000E+00 0.  1.
</event>
<event>
 5    1  0.8902899E-005  0.9118800E+02  0.7818608E-02  0.1130116E+00
         25   -1    0    0    0    0  0.00000000000E+00  0.00000000000E+00  0.99999998245E-14  0.12500000000E+03  0.12500000000E+03 0.  0.
        -11    1    3    3    0    0 -0.17499274697E+02  0.43663294426E+02  0.26669010492E+02  0.54073505675E+02  0.51100000000E-03 0. -1.
         23    2    1    0    0    0 -0.26383386204E+02  0.11485336830E+02  0.95785659809E+00  0.96209141747E+02  0.91800247477E+02 0.  0.
         11    1    3    3    0    0 -0.88841115068E+01 -0.32177957597E+02 -0.25711153894E+02  0.42135636072E+02  0.51100000000E-03 0.  1.
         22    1    1    0    0    0  0.26383386204E+02 -0.11485336830E+02 -0.95785659809E+00  0.28790858253E+02  0.00000000000E+00 0. -1.
</event>
<event>
 5    1  0.8902899E-005  0.9118800E+02  0.7818608E-02  0.1130116E+00
         25   -1    0    0    0    0  0.00000000000E+00  0.00000000000E+00  0.99999998245E-14  0.12500000000E+03  0.12500000000E+03 0.  0.
        -11    1    3    3    0    0 -0.12466940409E+02  0.78776935741E+01 -0.33056581744E+02  0.36196964736E+02  0.51100000000E-03 0.  1.
         23    2    1    0    0    0  0.11814356056E+02 -0.30642497471E+02 -0.53176939315E+00  0.92154537011E+02  0.86102463686E+02 0.  0.
         11    1    3    3    0    0  0.24281296465E+02 -0.38520191045E+02  0.32524812351E+02  0.55957572275E+02  0.51100000000E-03 0. -1.
         22    1    1    0    0    0 -0.11814356056E+02  0.30642497471E+02  0.53176939315E+00  0.32845462989E+02  0.00000000000E+00 0. -1.
</event>
<event>
 5    1  0.8902899E-005  0.9118800E+02  0.7818608E-02  0.1130116E+00
         25   -1    0    0    0    0  0.00000000000E+00  0.00000000000E+00  0.99999998245E-14  0.12500000000E+03  0.12500000000E+03 0.  0.
        -11    1    3    3    0    0  0.93313569114E+01 -0.32687584059E+02 -0.20272865684E+02  0.39579558572E+02  0.51100000000E-03 0. -1.
         23    2    1    0    0    0  0.20069354355E+02  0.20454297698E+02 -0.49443368598E+01  0.95920733408E+02  0.91406692053E+02 0.  0.
         11    1    3    3    0    0  0.10737997444E+02  0.53141881757E+02  0.15328528825E+02  0.56341174836E+02  0.51100000000E-03 0.  1.
         22    1    1    0    0    0 -0.20069354355E+02 -0.20454297698E+02  0.49443368598E+01  0.29079266592E+02  0.00000000000E+00 0.  1.
</event>
<event>
 5    1  0.8902899E-005  0.9118800E+02  0.7818608E-02  0.1130116E+00
         25   -1    0    0    0    0  0.00000000000E+00  0.00000000000E+00  0.99999998245E-14  0.12500000000E+03  0.12500000000E+03 0.  0.
        -11    1    3    3    0    0 -0.37084572128E+02 -0.27544855438E+02 -0.84187464942E+01  0.46955935129E+02  0.51100000000E-03 0.  1.
         23    2    1    0    0    0 -0.15281421992E+02  0.71764158414E+00  0.24894032642E+02  0.95781003975E+02  0.91215409848E+02 0.  0.
         11    1    3    3    0    0  0.21803150136E+02  0.28262497022E+02  0.33312779136E+02  0.48825068846E+02  0.51100000000E-03 0. -1.
         22    1    1    0    0    0  0.15281421992E+02 -0.71764158414E+00 -0.24894032642E+02  0.29218996025E+02  0.00000000000E+00 0.  1.
</event>
<event>
 5    1  0.8902899E-005  0.9118800E+02  0.7818608E-02  0.1130116E+00
         25   -1    0    0    0    0  0.00000000000E+00  0.00000000000E+00  0.99999998245E-14  0.12500000000E+03  0.12500000000E+03 0.  0.
        -11    1    3    3    0    0 -0.62360941296E+00 -0.19015669014E+02  0.27635092861E+02  0.33551198405E+02  0.51100000000E-03 0. -1.
         23    2    1    0    0    0  0.24295297010E+01  0.17253773655E+02 -0.23145664437E+02  0.96029030010E+02  0.91554669474E+02 0.  0.
         11    1    3    3    0    0  0.30531391140E+01  0.36269442669E+02 -0.50780757298E+02  0.62477831605E+02  0.51100000000E-03 0.  1.
         22    1    1    0    0    0 -0.24295297010E+01 -0.17253773655E+02  0.23145664437E+02  0.28970969990E+02  0.00000000000E+00 0.  1.
</event>
<event>
 5    1  0.8902899E-005  0.9118800E+02  0.7818608E-02  0.1130116E+00
         25   -1    0    0    0    0  0.00000000000E+00  0.00000000000E+00  0.99999998245E-14  0.12500000000E+03  0.12500000000E+03 0.  0.
        -11    1    3    3    0    0 -0.36495209913E+02 -0.20170398303E+02  0.29427325630E+01  0.41801973512E+02  0.51100000000E-03 0. -1.
         23    2    1    0    0    0  0.13486320128E+02 -0.15542101329E+02  0.21426653565E+02  0.95292438213E+02  0.90543412534E+02 0.  0.
         11    1    3    3    0    0  0.49981530041E+02  0.46282969734E+01  0.18483921002E+02  0.53490464701E+02  0.51100000000E-03 0.  1.
         22    1    1    0    0    0 -0.13486320128E+02  0.15542101329E+02 -0.21426653565E+02  0.29707561787E+02  0.00000000000E+00 0.  1.
</event>
<event>
 5    1  0.8902899E-005  0.9118800E+02  0.7818608E-02  0.1130116E+00
         25   -1    0    0    0    0  0.00000000000E+00  0.00000000000E+00  0.99999998245E-14  0.12500000000E+03  0.12500000000E+03 0.  0.
        -11    1    3    3    0    0  0.23164497515E+02 -0.74012395142E+01  0.40726145097E+02  0.47434071997E+02  0.51100000000E-03 0. -1.
         23    2    1    0    0    0 -0.15949614099E+02  0.12244024779E+02  0.22436076050E+02  0.94872208159E+02  0.89961391940E+02 0.  0.
         11    1    3    3    0    0 -0.39114111614E+02  0.19645264293E+02 -0.18290069047E+02  0.47438136162E+02  0.51100000000E-03 0.  1.
         22    1    1    0    0    0  0.15949614099E+02 -0.12244024779E+02 -0.22436076050E+02  0.30127791841E+02  0.00000000000E+00 0.  1.
</event>
<event>
 5    1  0.8902899E-005  0.9118800E+02  0.7818608E-02  0.1130116E+00
         25   -1    0    0    0    0  0.00000000000E+00  0.00000000000E+00  0.99999998245E-14  0.12500000000E+03  0.12500000000E+03 0.  0.
        -11    1    3    3    0    0  0.20346670572E+02  0.33546236097E+02 -0.12440781302E+02  0.41159567530E+02  0.51100000000E-03 0.  1.
         23    2    1    0    0    0 -0.26537274574E+02  0.12002309856E+02 -0.13792006060E+02  0.92774205753E+02  0.86997422021E+02 0.  0.
         11    1    3    3    0    0 -0.46883945145E+02 -0.21543926240E+02 -0.13512247574E+01  0.51614638223E+02  0.51100000000E-03 0. -1.
         22    1    1    0    0    0  0.26537274574E+02 -0.12002309856E+02  0.13792006060E+02  0.32225794247E+02  0.00000000000E+00 0.  1.
</event>
<event>
 5    1  0.8902899E-005  0.9118800E+02  0.7818608E-02  0.1130116E+00
         25   -1    0    0    0    0  0.00000000000E+00  0.00000000000E+00  0.99999998245E-14  0.12500000000E+03  0.12500000000E+03 0.  0.
        -11    1    3    3    0    0  0.18047525067E+02 -0.37955750793E+02  0.15724950717E+02  0.44873447100E+02  0.51100000000E-03 0. -1.
         23    2    1    0    0    0 -0.13241341464E+02  0.12840535897E+00  0.26544484264E+02  0.95335892791E+02  0.90603384030E+02 0.  0.
         11    1    3    3    0    0 -0.31288866531E+02  0.38084156152E+02  0.10819533547E+02  0.50462445690E+02  0.51100000000E-03 0.  1.
         22    1    1    0    0    0  0.13241341464E+02 -0.12840535897E+00 -0.26544484264E+02  0.29664107209E+02  0.00000000000E+00 0.  1.
</event>
<event>
 5    1  0.8902899E-005  0.9118800E+02  0.7818608E-02  0.1130116E+00
         25   -1    0    0    0    0  0.00000000000E+00  0.00000000000E+00  0.99999998245E-14  0.12500000000E+03  0.12500000000E+03 0.  0.
        -11    1    3    3    0    0 -0.54151344430E+00  0.39873721083E+02 -0.15690504748E+02  0.42853224025E+02  0.51100000000E-03 0.  1.
         23    2    1    0    0    0  0.19709931533E+02 -0.92946622529E+01 -0.18939808702E+02  0.96128067243E+02  0.91689785750E+02 0.  0.
         11    1    3    3    0    0  0.20251444978E+02 -0.49168383336E+02 -0.32493039542E+01  0.53274843219E+02  0.51100000000E-03 0. -1.
         22    1    1    0    0    0 -0.19709931533E+02  0.92946622529E+01  0.18939808702E+02  0.28871932757E+02  0.00000000000E+00 0. -1.
</event>
<event>
 5    1  0.8902899E-005  0.9118800E+02  0.7818608E-02  0.1130116E+00
         25   -1    0    0    0    0  0.00000000000E+00  0.00000000000E+00  0.99999998245E-14  0.12500000000E+03  0.12500000000E+03 0.  0.
        -11    1    3    3    0    0 -0.70350913555E+01  0.14865859036E+02 -0.30749633694E+02  0.34871567901E+02  0.51100000000E-03 0. -1.
         23    2    1    0    0    0  0.76121487657E+01 -0.14064130581E+02  0.22606760405E+02  0.97308662115E+02  0.93285398261E+02 0.  0.
         11    1    3    3    0    0  0.14647240121E+02 -0.28929989617E+02  0.53356394099E+02  0.62437094215E+02  0.51100000000E-03 0.  1.
         22    1    1    0    0    0 -0.76121487657E+01  0.14064130581E+02 -0.22606760405E+02  0.27691337885E+02  0.00000000000E+00 0.  1.
</event>
<event>
 5    1  0.8902899E-005  0.9118800E+02  0.7818608E-02  0.1130116E+00
         25   -1    0    0    0    0  0.00000000000E+00  0.00000000000E+00  0.99999998245E-14  0.12500000000E+03  0.12500000000E+03 0.  0.
        -11    1    3    3    0    0  0.23831706543E+02  0.74578864269E+01 -0.35796145742E+02  0.43645553690E+02  0.51100000000E-03 0. -1.
         23    2    1    0    0    0  0.10880020981E+02  0.24632511512E+02  0.11588350188E+02  0.95684042912E+02  0.91082439185E+02 0.  0.
         11    1    3    3    0    0 -0.12951685562E+02  0.17174625085E+02  0.47384495929E+02  0.52038489221E+02  0.51100000000E-03 0.  1.
         22    1    1    0    0    0 -0.10880020981E+02 -0.24632511512E+02 -0.11588350188E+02  0.29315957088E+02  0.00000000000E+00 0.  1.
</event>
<event>
 5    1  0.8902899E-005  0.9118800E+02  0.7818608E-02  0.1130116E+00
         25   -1    0    0    0    0  0.00000000000E+00  0.00000000000E+00  0.99999998245E-14  0.12500000000E+03  0.12500000000E+03 0.  0.
        -11    1    3    3    0    0  0.18288954944E+02  0.19310529560E+02  0.28523827416E+02  0.38999886610E+02  0.51100000000E-03 0. -1.
         23    2    1    0    0    0  0.95999805761E+01 -0.27466127439E+02 -0.24988044575E+01  0.95797400676E+02  0.91237876833E+02 0.  0.
         11    1    3    3    0    0 -0.86889743683E+01 -0.46776656998E+02 -0.31022631874E+02  0.56797514067E+02  0.51100000000E-03 0.  1.
         22    1    1    0    0    0 -0.95999805761E+01  0.27466127439E+02  0.24988044575E+01  0.29202599324E+02  0.00000000000E+00 0.  1.
</event>
<event>
 5    1  0.8902899E-005  0.9118800E+02  0.7818608E-02  0.1130116E+00
         25   -1    0    0    0    0  0.00000000000E+00  0.00000000000E+00  0.99999998245E-14  0.12500000000E+03  0.12500000000E+03 0.  0.
        -11    1    3    3    0    0 -0.24280121285E+02  0.12649779449E+01  0.49862508861E+02  0.55474266547E+02  0.51100000000E-03 0. -1.
         23    2    1    0    0    0 -0.15685296943E+02  0.18882411372E+02  0.13004365679E+02  0.97220735681E+02  0.93167504636E+02 0.  0.
         11    1    3    3    0    0  0.85948243428E+01  0.17617433427E+02 -0.36858143181E+02  0.41746469133E+02  0.51100000000E-03 0.  1.
         22    1    1    0    0    0  0.15685296943E+02 -0.18882411372E+02 -0.13004365679E+02  0.27779264319E+02  0.00000000000E+00 0. -1.
</event>
<event>
 5    1  0.8902899E-005  0.9118800E+02  0.7818608E-02  0.1130116E+00
         25   -1    0    0    0    0  0.00000000000E+00  0.00000000000E+00  0.99999998245E-14  0.12500000000E+03  0.12500000000E+03 0.  0.
        -11    1    3    3    0    0 -0.23032277783E+02 -0.11123527458E+02 -0.35087144262E+02  0.43420345182E+02  0.51100000000E-03 0. -1.
         23    2    1    0    0    0  0.23634338302E+02 -0.10718015581E+02 -0.19198708567E+02  0.92719228392E+02  0.86918393324E+02 0.  0.
         11    1    3    3    0    0  0.46666616085E+02  0.40551187765E+00  0.15888435696E+02  0.49298883211E+02  0.51100000000E-03 0.  1.
         22    1    1    0    0    0 -0.23634338302E+02  0.10718015581E+02  0.19198708567E+02  0.32280771608E+02  0.00000000000E+00 0.  1.
</event>
<event>
 5    1  0.8902899E-005  0.9118800E+02  0.7818608E-02  0.1130116E+00
         25   -1    0    0    0    0  0.00000000000E+00  0.00000000000E+00  0.99999998245E-14  0.12500000000E+03  0.12500000000E+03 0.  0.
        -11    1    3    3    0    0 -0.20680990588E+02  0.41158847462E+02  0.15405116454E+02  0.48570275986E+02  0.51100000000E-03 0.  1.
         23    2    1    0    0    0  0.47362889694E+01  0.24356184117E+01  0.27940578348E+02  0.96556361191E+02  0.92271828300E+02 0.  0.
         11    1    3    3    0    0  0.25417279558E+02 -0.38723229050E+02  0.12535461894E+02  0.47986085206E+02  0.51100000000E-03 0. -1.
         22    1    1    0    0    0 -0.47362889694E+01 -0.24356184117E+01 -0.27940578348E+02  0.28443638809E+02  0.00000000000E+00 0.  1.
</event>
<event>
 5    1  0.8902899E-005  0.9118800E+02  0.7818608E-02  0.1130116E+00
         25   -1    0    0    0    0  0.00000000000E+00  0.00000000000E+00  0.99999998245E-14  0.12500000000E+03  0.12500000000E+03 0.  0.
        -11    1    3    3    0    0 -0.35985856718E+01  0.52858745367E+02  0.93658403301E+01  0.53802562634E+02  0.51100000000E-03 0. -1.
         23    2    1    0    0    0  0.20480462142E+02  0.18600454736E+02  0.97135809704E+01  0.95677996296E+02  0.91074140534E+02 0.  0.
         11    1    3    3    0    0  0.24079047814E+02 -0.34258290631E+02  0.34774064028E+00  0.41875433663E+02  0.51100000000E-03 0.  1.
         22    1    1    0    0    0 -0.20480462142E+02 -0.18600454736E+02 -0.97135809704E+01  0.29322003704E+02  0.00000000000E+00 0. -1.
</event>
<event>
 5    1  0.8902899E-005  0.9118800E+02  0.7818608E-02  0.1130116E+00
         25   -1    0    0    0    0  0.00000000000E+00  0.00000000000E+00  0.99999998245E-14  0.12500000000E+03  0.12500000000E+03 0.  0.
        -11    1    3    3    0    0 -0.77932948538E+01 -0.40553396257E+02 -0.60649518391E+00  0.41299893817E+02  0.51100000000E-03 0. -1.
         23    2    1    0    0    0  0.13460579947E+02 -0.43462251568E+00  0.27276847294E+02  0.94579570885E+02  0.89553853749E+02 0.  0.
         11    1    3    3    0    0  0.21253874801E+02  0.40118773741E+02  0.27883342477E+02  0.53279677068E+02  0.51100000000E-03 0.  1.
         22    1    1    0    0    0 -0.13460579947E+02  0.43462251568E+00 -0.27276847294E+02  0.30420429115E+02  0.00000000000E+00 0.  1.
</event>
<event>
 5    1  0.8902899E-005  0.9118800E+02  0.7818608E-02  0.1130116E+00
         25   -1    0    0    0    0  0.00000000000E+00  0.00000000000E+00  0.99999998245E-14  0.12500000000E+03  0.12500000000E+03 0.  0.
        -11    1    3    3    0    0 -0.19298985225E+02 -0.26495111554E+02 -0.11087506432E+02  0.34603100528E+02  0.51100000000E-03 0. -1.
         23    2    1    0    0    0  0.20440270674E+02  0.18568197912E+02  0.53015696963E+01  0.96880802284E+02  0.92710304557E+02 0.  0.
         11    1    3    3    0    0  0.39739255899E+02  0.45063309467E+02  0.16389076128E+02  0.62277701757E+02  0.51100000000E-03 0.  1.
         22    1    1    0    0    0 -0.20440270674E+02 -0.18568197912E+02 -0.53015696963E+01  0.28119197716E+02  0.00000000000E+00 0.  1.
</event>
<event>
 5    1  0.8902899E-005  0.9118800E+02  0.7818608E-02  0.1130116E+00
         25   -1    0    0    0    0  0.00000000000E+00  0.00000000000E+00  0.99999998245E-14  0.12500000000E+03  0.12500000000E+03 0.  0.
        -11    1    3    3    0    0 -0.14056926539E+02  0.30654178278E+02 -0.14220720785E+01  0.33753490469E+02  0.51100000000E-03 0.  1.
         23    2    1    0    0    0  0.16381105095E+02 -0.20036303333E+02  0.14958656860E+02  0.95107601795E+02  0.90287875425E+02 0.  0.
         11    1    3    3    0    0  0.30438031634E+02 -0.50690481611E+02  0.16380728939E+02  0.61354111325E+02  0.51100000000E-03 0. -1.
         22    1    1    0    0    0 -0.16381105095E+02  0.20036303333E+02 -0.14958656860E+02  0.29892398205E+02  0.00000000000E+00 0. -1.
</event>
<event>
 5    1  0.8902899E-005  0.9118800E+02  0.7818608E-02  0.1130116E+00
         25   -1    0    0    0    0  0.00000000000E+00  0.00000000000E+00  0.99999998245E-14  0.12500000000E+03  0.12500000000E+03 0.  0.
        -11    1    3    3    0    0 -0.87693264937E+01 -0.54259025953E+02 -0.27742780069E+02  0.61567887984E+02  0.51100000000E-03 0. -1.
         23    2    1    0    0    0 -0.10969640594E+02 -0.26317560085E+02 -0.97840368055E+01  0.94855774022E+02  0.89938554055E+02 0.  0.
         11    1    3    3    0    0 -0.22003141000E+01  0.27941465868E+02  0.17958743264E+02  0.33287886038E+02  0.51100000000E-03 0.  1.
         22    1    1    0    0    0  0.10969640594E+02  0.26317560085E+02  0.97840368055E+01  0.30144225978E+02  0.00000000000E+00 0. -1.
</event>
<event>
 5    1  0.8902899E-005  0.9118800E+02  0.7818608E-02  0.1130116E+00
         25   -1    0    0    0    0  0.00000000000E+00  0.00000000000E+00  0.99999998245E-14  0.12500000000E+03  0.12500000000E+03 0.  0.
        -11    1    3    3    0    0  0.24849910454E+02 -0.48959798170E+02 -0.11295542665E+02  0.56055054819E+02  0.51100000000E-03 0. -1.
         23    2    1    0    0    0  0.24606680256E+02 -0.79839923453E+01  0.17855992290E+01  0.99068914184E+02  0.95615001678E+02 0.  0.
         11    1    3    3    0    0 -0.24323019761E+00  0.40975805825E+02  0.13081141894E+02  0.43013859364E+02  0.51100000000E-03 0.  1.
         22    1    1    0    0    0 -0.24606680256E+02  0.79839923453E+01 -0.17855992290E+01  0.25931085816E+02  0.00000000000E+00 0. -1.
</event>
<event>
 5    1  0.8902899E-005  0.9118800E+02  0.7818608E-02  0.1130116E+00
         25   -1    0    0    0    0  0.00000000000E+00  0.00000000000E+00  0.99999998245E-14  0.12500000000E+03  0.12500000000E+03 0.  0.
        -11    1    3    3    0    0  0.16442413992E+01 -0.26760945844E+02 -0.40295537214E+02  0.48400228014E+02  0.51100000000E-03 0.  1.
         23    2    1    0    0    0  0.45449896365E+01  0.18109964021E+02 -0.19700924591E+02  0.97856784321E+02  0.94016998890E+02 0.  0.
         11    1    3    3    0    0  0.29007482373E+01  0.44870909865E+02  0.20594612623E+02  0.49456556307E+02  0.51100000000E-03 0. -1.
         22    1    1    0    0    0 -0.45449896365E+01 -0.18109964021E+02  0.19700924591E+02  0.27143215679E+02  0.00000000000E+00 0. -1.
</event>
<event>
 5    1  0.8902899E-005  0.9118800E+02  0.7818608E-02  0.1130116E+00
         25   -1    0    0    0    0  0.00000000000E+00  0.00000000000E+00  0.99999998245E-14  0.12500000000E+03  0.12500000000E+03 0.  0.
        -11    1    3    3    0    0  0.34393609457E+02  0.28574550229E+02  0.34847865889E+02  0.56690378810E+02  0.51100000000E-03 0. -1.
         23    2    1    0    0    0  0.25291226198E+01  0.26426843431E+02  0.12588699133E+02  0.95618885984E+02  0.90992974981E+02 0.  0.
         11    1    3    3    0    0 -0.31864486838E+02 -0.21477067983E+01 -0.22259166755E+02  0.38928507174E+02  0.51100000000E-03 0.  1.
         22    1    1    0    0    0 -0.25291226198E+01 -0.26426843431E+02 -0.12588699133E+02  0.29381114016E+02  0.00000000000E+00 0. -1.
</event>
<event>
 5    1  0.8902899E-005  0.9118800E+02  0.7818608E-02  0.1130116E+00
         25   -1    0    0    0    0  0.00000000000E+00  0.00000000000E+00  0.99999998245E-14  0.12500000000E+03  0.12500000000E+03 0.  0.
        -11    1    3    3    0    0 -0.49905808676E+02 -0.25804446446E+02  0.19495746928E+01  0.56216190174E+02  0.51100000000E-03 0. -1.
         23    2    1    0    0    0 -0.19725523881E+02 -0.18972949852E+02  0.19128583332E+02  0.91608806270E+02  0.85306515387E+02 0.  0.
         11    1    3    3    0    0  0.30180284795E+02  0.68314965939E+01  0.17179008639E+02  0.35392616096E+02  0.51100000000E-03 0.  1.
         22    1    1    0    0    0  0.19725523881E+02  0.18972949852E+02 -0.19128583332E+02  0.33391193730E+02  0.00000000000E+00 0. -1.
</event>
<event>
 5    1  0.8902899E-005  0.9118800E+02  0.7818608E-02  0.1130116E+00
         25   -1    0    0    0    0  0.00000000000E+00  0.00000000000E+00  0.99999998245E-14  0.12500000000E+03  0.12500000000E+03 0.  0.
        -11    1    3    3    0    0  0.51891805541E+01 -0.17346213356E+02  0.44086950418E+02  0.47660024234E+02  0.51100000000E-03 0. -1.
         23    2    1    0    0    0 -0.13851743379E+02 -0.23116241114E+02 -0.21196626049E+01  0.97968086131E+02  0.94164863578E+02 0.  0.
         11    1    3    3    0    0 -0.19040923933E+02 -0.57700277583E+01 -0.46206613023E+02  0.50308061897E+02  0.51100000000E-03 0.  1.
         22    1    1    0    0    0  0.13851743379E+02  0.23116241114E+02  0.21196626049E+01  0.27031913869E+02  0.00000000000E+00 0.  1.
</event>
<event>
 5    1  0.8902899E-005  0.9118800E+02  0.7818608E-02  0.1130116E+00
         25   -1    0    0    0    0  0.00000000000E+00  0.00000000000E+00  0.99999998245E-14  0.12500000000E+03  0.12500000000E+03 0.  0.
        -11    1    3    3    0    0 -0.10575919472E+01  0.24661643906E+02 -0.22627719985E+02  0.33486249310E+02  0.51100000000E-03 0. -1.
         23    2    1    0    0    0 -0.77170330841E+00 -0.20201213118E+02  0.20848391913E+02  0.95959683494E+02  0.91459941359E+02 0.  0.
         11    1    3    3    0    0  0.28588863880E+00 -0.44862857024E+02  0.43476111898E+02  0.62473434184E+02  0.51100000000E-03 0.  1.
         22    1    1    0    0    0  0.77170330841E+00  0.20201213118E+02 -0.20848391913E+02  0.29040316506E+02  0.00000000000E+00 0.  1.
</event>
<event>
 5    1  0.8902899E-005  0.9118800E+02  0.7818608E-02  0.1130116E+00
         25   -1    0    0    0    0  0.00000000000E+00  0.00000000000E+00  0.99999998245E-14  0.12500000000E+03  0.12500000000E+03 0.  0.
        -11    1    3    3    0    0 -0.19768672833E+01  0.25462883041E+02 -0.32238346881E+02  0.41128790730E+02  0.51100000000E-03 0.  1.
         23    2    1    0    0    0  0.21126620750E+02  0.11429194409E+02  0.15799210630E+02  0.96249771380E+02  0.91855554242E+02 0.  0.
         11    1    3    3    0    0  0.23103488033E+02 -0.14033688632E+02  0.48037557512E+02  0.55120980650E+02  0.51100000000E-03 0. -1.
         22    1    1    0    0    0 -0.21126620750E+02 -0.11429194409E+02 -0.15799210630E+02  0.28750228620E+02  0.00000000000E+00 0. -1.
</event>
<event>
 5    1  0.8902899E-005  0.9118800E+02  0.7818608E-02  0.1130116E+00
         25   -1    0    0    0    0  0.00000000000E+00  0.00000000000E+00  0.99999998245E-14  0.12500000000E+03  0.12500000000E+03 0.  0.
        -11    1    3    3    0    0 -0.20153189616E+01  0.52168517350E+02 -0.18916296096E+02  0.55528749052E+02  0.51100000000E-03 0. -1.
         23    2    1    0    0    0  0.82019155237E+01  0.27036128791E+02  0.98586162922E+01  0.95076497640E+02  0.90244802676E+02 0.  0.
         11    1    3    3    0    0  0.10217234485E+02 -0.25132388559E+02  0.28774912388E+02  0.39547748588E+02  0.51100000000E-03 0.  1.
         22    1    1    0    0    0 -0.82019155237E+01 -0.27036128791E+02 -0.98586162922E+01  0.29923502360E+02  0.00000000000E+00 0. -1.
</event>
<event>
 5    1  0.8902899E-005  0.9118800E+02  0.7818608E-02  0.1130116E+00
         25   -1    0    0    0    0  0.00000000000E+00  0.00000000000E+00  0.99999998245E-14  0.12500000000E+03  0.12500000000E+03 0.  0.
        -11    1    3    3    0    0  0.22051095550E+02 -0.46053671551E+02  0.77913167352E+01  0.51651680466E+02  0.51100000000E-03 0.  1.
         23    2    1    0    0    0 -0.91804012610E+01 -0.21715276017E+02  0.21036232042E+02  0.93403227406E+02  0.87896569055E+02 0.  0.
         11    1    3    3    0    0 -0.31231496811E+02  0.24338395533E+02  0.13244915307E+02  0.41751546940E+02  0.51100000000E-03 0. -1.
         22    1    1    0    0    0  0.91804012610E+01  0.21715276017E+02 -0.21036232042E+02  0.31596772594E+02  0.00000000000E+00 0.  1.
</event>
<event>
 5    1  0.8902899E-005  0.9118800E+02  0.7818608E-02  0.1130116E+00
         25   -1    0    0    0    0  0.00000000000E+00  0.00000000000E+00  0.99999998245E-14  0.12500000000E+03  0.12500000000E+03 0.  0.
        -11    1    3    3    0    0 -0.29470640092E+02  0.16467037617E+02  0.31835253826E+02  0.46402212682E+02  0.51100000000E-03 0.  1.
         23    2    1    0    0    0 -0.96226582121E+01  0.22573547309E+02 -0.14018519876E+02  0.96739081956E+02  0.92519027714E+02 0.  0.
         11    1    3    3    0    0  0.19847981880E+02  0.61065096916E+01 -0.45853773703E+02  0.50336869274E+02  0.51100000000E-03 0. -1.
         22    1    1    0    0    0  0.96226582121E+01 -0.22573547309E+02  0.14018519876E+02  0.28260918044E+02  0.00000000000E+00 0. -1.
</event>
<event>
 5    1  0.8902899E-005  0.9118800E+02  0.7818608E-02  0.1130116E+00
         25   -1    0    0    0    0  0.00000000000E+00  0.00000000000E+00  0.99999998245E-14  0.12500000000E+03  0.12500000000E+03 0.  0.
        -11    1    3    3    0    0  0.35240728524E+02  0.62792775817E+01 -0.47622883923E+02  0.59575811764E+02  0.51100000000E-03 0.  1.
         23    2    1    0    0    0  0.10802919961E+02 -0.93386452040E+01 -0.24394322034E+02  0.96733477019E+02  0.92511454722E+02 0.  0.
         11    1    3    3    0    0 -0.24437808563E+02 -0.15617922786E+02  0.23228561890E+02  0.37157665256E+02  0.51100000000E-03 0. -1.
         22    1    1    0    0    0 -0.10802919961E+02  0.93386452040E+01  0.24394322034E+02  0.28266522981E+02  0.00000000000E+00 0.  1.
</event>
<event>
 5    1  0.8902899E-005  0.9118800E+02  0.7818608E-02  0.1130116E+00
         25   -1    0    0    0    0  0.00000000000E+00  0.00000000000E+00  0.99999998245E-14  0.12500000000E+03  0.12500000000E+03 0.  0.
        -11    1    3    3    0    0 -0.54442021859E+02 -0.45980048515E+01 -0.29828100237E+02  0.62247818891E+02  0.51100000000E-03 0.  1.
         23    2    1    0    0    0 -0.29731256560E+02  0.30495401426E+00 -0.19304568077E+02  0.89549937063E+02  0.82234325350E+02 0.  0.
         11    1    3    3    0    0  0.24710765299E+02  0.49029588657E+01  0.10523532159E+02  0.27302118172E+02  0.51100000000E-03 0. -1.
         22    1    1    0    0    0  0.29731256560E+02 -0.30495401426E+00  0.19304568077E+02  0.35450062937E+02  0.00000000000E+00 0.  1.
</event>
<event>
 5    1  0.8902899E-005  0.9118800E+02  0.7818608E-02  0.1130116E+00
         25   -1    0    0    0    0  0.00000000000E+00  0.00000000000E+00  0.99999998245E-14  0.12500000000E+03  0.12500000000E+03 0.  0.
        -11    1    3    3    0    0 -0.26876258135E+02  0.44640618485E+02  0.21582070310E+02  0.56399502030E+02  0.51100000000E-03 0.  1.
         23    2    1    0    0    0 -0.26165608119E+01  0.29786539204E+02 -0.42177881092E+01  0.94802747729E+02  0.89864825890E+02 0.  0.
         11    1    3    3    0    0  0.24259697323E+02 -0.14854079282E+02 -0.25799858419E+02  0.38403245699E+02  0.51100000000E-03 0. -1.
         22    1    1    0    0    0  0.26165608119E+01 -0.29786539204E+02  0.42177881092E+01  0.30197252271E+02  0.00000000000E+00 0.  1.
</event>
<event>
 5    1  0.8902899E-005  0.9118800E+02  0.7818608E-02  0.1130116E+00
         25   -1    0    0    0    0  0.00000000000E+00  0.00000000000E+00  0.99999998245E-14  0.12500000000E+03  0.12500000000E+03 0.  0.
        -11    1    3    3    0    0  0.43179371617E+02  0.14122496481E+02 -0.21842756533E+02  0.50408422444E+02  0.51100000000E-03 0. -1.
         23    2    1    0    0    0  0.27591012757E+02  0.47486858668E+01  0.16255569998E+02  0.92626282908E+02  0.86784622641E+02 0.  0.
         11    1    3    3    0    0 -0.15588358860E+02 -0.93738106140E+01  0.38098326531E+02  0.42217860463E+02  0.51100000000E-03 0.  1.
         22    1    1    0    0    0 -0.27591012757E+02 -0.47486858668E+01 -0.16255569998E+02  0.32373717092E+02  0.00000000000E+00 0. -1.
</event>
<event>
 5    1  0.8902899E-005  0.9118800E+02  0.7818608E-02  0.1130116E+00
         25   -1    0    0    0    0  0.00000000000E+00  0.00000000000E+00  0.99999998245E-14  0.12500000000E+03  0.12500000000E+03 0.  0.
        -11    1    3    3    0    0 -0.41947998240E+02 -0.15884820332E+02  0.36918393217E+01  0.45006574533E+02  0.51100000000E-03 0.  1.
         23    2    1    0    0    0 -0.10088545377E+02  0.13623692474E+02 -0.23336179666E+02  0.96156265397E+02  0.91728220027E+02 0.  0.
         11    1    3    3    0    0  0.31859452864E+02  0.29508512807E+02 -0.27028018987E+02  0.51149690864E+02  0.51100000000E-03 0. -1.
         22    1    1    0    0    0  0.10088545377E+02 -0.13623692474E+02  0.23336179666E+02  0.28843734603E+02  0.00000000000E+00 0.  1.
</event>
<event>
 5    1  0.8902899E-005  0.9118800E+02  0.7818608E-02  0.1130116E+00
         25   -1    0    0    0    0  0.00000000000E+00  0.00000000000E+00  0.99999998245E-14  0.12500000000E+03  0.12500000000E+03 0.  0.
        -11    1    3    3    0    0 -0.28196583531E+02  0.47351616111E+02 -0.73102266887E+01  0.55593725236E+02  0.51100000000E-03 0.  1.
         23    2    1    0    0    0 -0.24679752892E+01  0.19009347410E+02 -0.21296256941E+02  0.96347308142E+02  0.91988189652E+02 0.  0.
         11    1    3    3    0    0  0.25728608242E+02 -0.28342268700E+02 -0.13986030253E+02  0.40753582906E+02  0.51100000000E-03 0. -1.
         22    1    1    0    0    0  0.24679752892E+01 -0.19009347410E+02  0.21296256941E+02  0.28652691858E+02  0.00000000000E+00 0.  1.
</event>
<event>
 5    1  0.8902899E-005  0.9118800E+02  0.7818608E-02  0.1130116E+00
         25   -1    0    0    0    0  0.00000000000E+00  0.00000000000E+00  0.99999998245E-14  0.12500000000E+03  0.12500000000E+03 0.  0.
        -11    1    3    3    0    0  0.36388121880E+02 -0.38750732068E+02  0.26098001866E+02  0.59218412267E+02  0.51100000000E-03 0.  1.
         23    2    1    0    0    0  0.19561364012E+02 -0.22344399052E+02 -0.12494940028E+01  0.95276602377E+02  0.90521547679E+02 0.  0.
         11    1    3    3    0    0 -0.16826757869E+02  0.16406333016E+02 -0.27347495869E+02  0.36058190109E+02  0.51100000000E-03 0. -1.
         22    1    1    0    0    0 -0.19561364012E+02  0.22344399052E+02  0.12494940028E+01  0.29723397623E+02  0.00000000000E+00 0. -1.
</event>
<event>
 5    1  0.8902899E-005  0.9118800E+02  0.7818608E-02  0.1130116E+00
         25   -1    0    0    0    0  0.00000000000E+00  0.00000000000E+00  0.99999998245E-14  0.12500000000E+03  0.12500000000E+03 0.  0.
        -11    1    3    3    0    0  0.11045572084E+02  0.44452464754E+02  0.24981654479E+02  0.52173837755E+02  0.51100000000E-03 0. -1.
         23    2    1    0    0    0  0.11848815010E+02  0.16715148148E+02  0.37229047485E+02  0.82505381854E+02  0.70720191342E+02 0.  0.
         11    1    3    3    0    0  0.80324292644E+00 -0.27737316606E+02  0.12247393007E+02  0.30331544099E+02  0.51100000000E-03 0.  1.
         22    1    1    0    0    0 -0.11848815010E+02 -0.16715148148E+02 -0.37229047485E+02  0.42494618146E+02  0.00000000000E+00 0. -1.
</event>
<event>
 5    1  0.8902899E-005  0.9118800E+02  0.7818608E-02  0.1130116E+00
         25   -1    0    0    0    0  0.00000000000E+00  0.00000000000E+00  0.99999998245E-14  0.12500000000E+03  0.12500000000E+03 0.  0.
        -11    1    3    3    0    0 -0.79579890069E+01 -0.52749931512E+02  0.12634127548E+02  0.54822495772E+02  0.51100000000E-03 0. -1.
         23    2    1    0    0    0  0.14030870723E+02 -0.29864183762E+02 -0.57599525328E+01  0.91505047273E+02  0.85154341159E+02 0.  0.
         11    1    3    3    0    0  0.21988859730E+02  0.22885747750E+02 -0.18394080081E+02  0.36682551501E+02  0.51100000000E-03 0.  1.
         22    1    1    0    0    0 -0.14030870723E+02  0.29864183762E+02  0.57599525328E+01  0.33494952727E+02  0.00000000000E+00 0. -1.
</event>
<event>
 5    1  0.8902899E-005  0.9118800E+02  0.7818608E-02  0.1130116E+00
         25   -1    0    0    0    0  0.00000000000E+00  0.00000000000E+00  0.99999998245E-14  0.12500000000E+03  0.12500000000E+03 0.  0.
        -11    1    3    3    0    0  0.75022574810E+01  0.56797286664E+02 -0.24172385262E+01  0.57341596438E+02  0.51100000000E-03 0. -1.
         23    2    1    0    0    0 -0.25154103449E+01  0.25692893704E+02 -0.17983957352E+02  0.93537724206E+02  0.88087632796E+02 0.  0.
         11    1    3    3    0    0 -0.10017667826E+02 -0.31104392961E+02 -0.15566718826E+02  0.36196127768E+02  0.51100000000E-03 0.  1.
         22    1    1    0    0    0  0.25154103449E+01 -0.25692893704E+02  0.17983957352E+02  0.31462275794E+02  0.00000000000E+00 0. -1.
</event>
<event>
 5    1  0.8902899E-005  0.9118800E+02  0.7818608E-02  0.1130116E+00
         25   -1    0    0    0    0  0.00000000000E+00  0.00000000000E+00  0.99999998245E-14  0.12500000000E+03  0.12500000000E+03 0.  0.
        -11    1    3    3    0    0 -0.22409356489E+02  0.20368982139E+02 -0.17887911459E+02  0.35171750997E+02  0.51100000000E-03 0. -1.
         23    2    1    0    0    0 -0.13750479692E+01 -0.19853527497E+02  0.21811528388E+02  0.95473806855E+02  0.90793456338E+02 0.  0.
         11    1    3    3    0    0  0.21034308519E+02 -0.40222509636E+02  0.39699439847E+02  0.60302055858E+02  0.51100000000E-03 0.  1.
         22    1    1    0    0    0  0.13750479692E+01  0.19853527497E+02 -0.21811528388E+02  0.29526193145E+02  0.00000000000E+00 0.  1.
</event>
<event>
 5    1  0.8902899E-005  0.9118800E+02  0.7818608E-02  0.1130116E+00
         25   -1    0    0    0    0  0.00000000000E+00  0.00000000000E+00  0.99999998245E-14  0.12500000000E+03  0.12500000000E+03 0.  0.
        -11    1    3    3    0    0  0.45539049507E+02 -0.31850921952E+02  0.67521029932E+01  0.55981042812E+02  0.51100000000E-03 0. -1.
         23    2    1    0    0    0  0.22655205355E+02 -0.21302054845E+01  0.18911096848E+02  0.95412406501E+02  0.90708883937E+02 0.  0.
         11    1    3    3    0    0 -0.22883844152E+02  0.29720716468E+02  0.12158993855E+02  0.39431363689E+02  0.51100000000E-03 0.  1.
         22    1    1    0    0    0 -0.22655205355E+02  0.21302054845E+01 -0.18911096848E+02  0.29587593499E+02  0.00000000000E+00 0. -1.
</event>
<event>
 5    1  0.8902899E-005  0.9118800E+02  0.7818608E-02  0.1130116E+00
         25   -1    0    0    0    0  0.00000000000E+00  0.00000000000E+00  0.99999998245E-14  0.12500000000E+03  0.12500000000E+03 0.  0.
        -11    1    3    3    0    0 -0.30459255870E+02 -0.25483109847E+02 -0.15248668176E+02  0.42540298977E+02  0.51100000000E-03 0.  1.
         23    2    1    0    0    0  0.94477964920E+01 -0.18631251047E+02  0.19892490337E+02  0.96153933615E+02  0.91725042402E+02 0.  0.
         11    1    3    3    0    0  0.39907052362E+02  0.68518588004E+01  0.35141158513E+02  0.53613634638E+02  0.51100000000E-03 0. -1.
         22    1    1    0    0    0 -0.94477964920E+01  0.18631251047E+02 -0.19892490337E+02  0.28846066385E+02  0.00000000000E+00 0. -1.
</event>
<event>
 5    1  0.8902899E-005  0.9118800E+02  0.7818608E-02  0.1130116E+00
         25   -1    0    0    0    0  0.00000000000E+00  0.00000000000E+00  0.99999998245E-14  0.12500000000E+03  0.12500000000E+03 0.  0.
        -11    1    3    3    0    0  0.20641067786E+02 -0.41444848209E+02  0.14122142374E+02  0.48406239556E+02  0.51100000000E-03 0. -1.
         23    2    1    0    0    0  0.26297419877E+02  0.53549121554E+01 -0.16423896627E+01  0.98112701508E+02  0.94356639284E+02 0.  0.
         11    1    3    3    0    0  0.56563520912E+01  0.46799760365E+02 -0.15764532037E+02  0.49706461952E+02  0.51100000000E-03 0.  1.
         22    1    1    0    0    0 -0.26297419877E+02 -0.53549121554E+01  0.16423896627E+01  0.26887298492E+02  0.00000000000E+00 0. -1.
</event>
<event>
 5    1  0.8902899E-005  0.9118800E+02  0.7818608E-02  0.1130116E+00
         25   -1    0    0    0    0  0.00000000000E+00  0.00000000000E+00  0.99999998245E-14  0.12500000000E+03  0.12500000000E+03 0.  0.
        -11    1    3    3    0    0 -0.19829185861E+02 -0.25393518151E+02  0.18293731564E+02  0.37049804194E+02  0.51100000000E-03 0. -1.
         23    2    1    0    0    0 -0.41503691957E+01  0.25211394372E+02 -0.10533595246E+02  0.97363129710E+02  0.93358354888E+02 0.  0.
         11    1    3    3    0    0  0.15678816665E+02  0.50604912523E+02 -0.28827326810E+02  0.60313325516E+02  0.51100000000E-03 0.  1.
         22    1    1    0    0    0  0.41503691957E+01 -0.25211394372E+02  0.10533595246E+02  0.27636870290E+02  0.00000000000E+00 0.  1.
</event>
<event>
 5    1  0.8902899E-005  0.9118800E+02  0.7818608E-02  0.1130116E+00
         25   -1    0    0    0    0  0.00000000000E+00  0.00000000000E+00  0.99999998245E-14  0.12500000000E+03  0.12500000000E+03 0.  0.
        -11    1    3    3    0    0 -0.29510464529E+02  0.27986247453E+02  0.19300062266E+02  0.45017662833E+02  0.51100000000E-03 0.  1.
         23    2    1    0    0    0  0.14240048763E+02  0.41535906954E+01  0.25779092269E+02  0.95257893440E+02  0.90495709069E+02 0.  0.
         11    1    3    3    0    0  0.43750513291E+02 -0.23832656758E+02  0.64790300030E+01  0.50240230607E+02  0.51100000000E-03 0. -1.
         22    1    1    0    0    0 -0.14240048763E+02 -0.41535906954E+01 -0.25779092269E+02  0.29742106560E+02  0.00000000000E+00 0.  1.
</event>
<event>
 5    1  0.8902899E-005  0.9118800E+02  0.7818608E-02  0.1130116E+00
         25   -1    0    0    0    0  0.00000000000E+00  0.00000000000E+00  0.99999998245E-14  0.12500000000E+03  0.12500000000E+03 0.  0.
        -11    1    3    3    0    0 -0.51956026837E+01 -0.10402340224E+02 -0.42274278933E+02  0.43844242826E+02  0.51100000000E-03 0.  1.
         23    2    1    0    0    0  0.26959541334E+02  0.73279810678E+01 -0.41855205104E+01  0.96750491024E+02  0.92534440917E+02 0.  0.
         11    1    3    3    0    0  0.32155144018E+02  0.17730321292E+02  0.38088758423E+02  0.52906248198E+02  0.51100000000E-03 0. -1.
         22    1    1    0    0    0 -0.26959541334E+02 -0.73279810678E+01  0.41855205104E+01  0.28249508976E+02  0.00000000000E+00 0. -1.
</event>
<event>
 5    1  0.8902899E-005  0.9118800E+02  0.7818608E-02  0.1130116E+00
         25   -1    0    0    0    0  0.00000000000E+00  0.00000000000E+00  0.99999998245E-14  0.12500000000E+03  0.12500000000E+03 0.  0.
        -11    1    3    3    0    0 -0.28014220599E+02 -0.24088149670E+02 -0.10016088905E+02  0.38279988865E+02  0.51100000000E-03 0.  1.
         23    2    1    0    0    0 -0.12190570523E+02  0.13866180860E+02  0.26113953755E+02  0.93018449662E+02  0.87347652605E+02 0.  0.
         11    1    3    3    0    0  0.15823650076E+02  0.37954330529E+02  0.36130042659E+02  0.54738460798E+02  0.51100000000E-03 0. -1.
         22    1    1    0    0    0  0.12190570523E+02 -0.13866180860E+02 -0.26113953755E+02  0.31981550338E+02  0.00000000000E+00 0. -1.
</event>
<event>
 5    1  0.8902899E-005  0.9118800E+02  0.7818608E-02  0.1130116E+00
         25   -1    0    0    0    0  0.00000000000E+00  0.00000000000E+00  0.99999998245E-14  0.12500000000E+03  0.12500000000E+03 0.  0.
        -11    1    3    3    0    0 -0.35104014606E+02 -0.74552037208E+01  0.12824699965E+02  0.38109642263E+02  0.51100000000E-03 0. -1.
         23    2    1    0    0    0  0.24425264304E+01  0.25806246874E+02 -0.14571045690E+02  0.95263764772E+02  0.90503818665E+02 0.  0.
         11    1    3    3    0    0  0.37546541036E+02  0.33261450594E+02 -0.27395745655E+02  0.57154122508E+02  0.51100000000E-03 0.  1.
         22    1    1    0    0    0 -0.24425264304E+01 -0.25806246874E+02  0.14571045690E+02  0.29736235228E+02  0.00000000000E+00 0.  1.
</event>
<event>
 5    1  0.8902899E-005  0.9118800E+02  0.7818608E-02  0.1130116E+00
         25   -1    0    0    0    0  0.00000000000E+00  0.00000000000E+00  0.99999998245E-14  0.12500000000E+03  0.12500000000E+03 0.  0.
        -11    1    3    3    0    0  0.16638697967E+02 -0.30223857284E+02  0.86485354189E+01  0.35568595478E+02  0.51100000000E-03 0.  1.
         23    2    1    0    0    0 -0.17244676715E+02  0.16058271726E+02 -0.14398845773E+02  0.97385262532E+02  0.93387984414E+02 0.  0.
         11    1    3    3    0    0 -0.33883374682E+02  0.46282129010E+02 -0.23047381192E+02  0.61816667054E+02  0.51100000000E-03 0. -1.
         22    1    1    0    0    0  0.17244676715E+02 -0.16058271726E+02  0.14398845773E+02  0.27614737468E+02  0.00000000000E+00 0. -1.
</event>
<event>
 5    1  0.8902899E-005  0.9118800E+02  0.7818608E-02  0.1130116E+00
         25   -1    0    0    0    0  0.00000000000E+00  0.00000000000E+00  0.99999998245E-14  0.12500000000E+03  0.12500000000E+03 0.  0.
        -11    1    3    3    0    0  0.59238633696E+01  0.55492930304E+02 -0.24699922438E+02  0.61029858591E+02  0.51100000000E-03 0.  1.
         23    2    1    0    0    0  0.13451720229E+01  0.24322750163E+02 -0.70804336678E+00  0.10062979301E+03  0.97634257578E+02 0.  0.
         11    1    3    3    0    0 -0.45786913468E+01 -0.31170180141E+02  0.23991879071E+02  0.39599934420E+02  0.51100000000E-03 0. -1.
         22    1    1    0    0    0 -0.13451720229E+01 -0.24322750163E+02  0.70804336678E+00  0.24370206989E+02  0.00000000000E+00 0.  1.
</event>
<event>
 5    1  0.8902899E-005  0.9118800E+02  0.7818608E-02  0.1130116E+00
         25   -1    0    0    0    0  0.00000000000E+00  0.00000000000E+00  0.99999998245E-14  0.12500000000E+03  0.12500000000E+03 0.  0.
        -11    1    3    3    0    0  0.37943720566E+02 -0.25228332219E+02  0.39566820726E+02  0.60346731308E+02  0.51100000000E-03 0. -1.
         23    2    1    0    0    0  0.12730444883E+02 -0.13038552788E+02  0.29920962278E+02  0.89966700564E+02  0.82865403764E+02 0.  0.
         11    1    3    3    0    0 -0.25213275683E+02  0.12189779431E+02 -0.96458584481E+01  0.29619969256E+02  0.51100000000E-03 0.  1.
         22    1    1    0    0    0 -0.12730444883E+02  0.13038552788E+02 -0.29920962278E+02  0.35033299436E+02  0.00000000000E+00 0. -1.
</event>
<event>
 5    1  0.8902899E-005  0.9118800E+02  0.7818608E-02  0.1130116E+00
         25   -1    0    0    0    0  0.00000000000E+00  0.00000000000E+00  0.99999998245E-14  0.12500000000E+03  0.12500000000E+03 0.  0.
        -11    1    3    3    0    0  0.27906877868E+02  0.19750714338E+02  0.19297150657E+02  0.39258942585E+02  0.51100000000E-03 0.  1.
         23    2    1    0    0    0 -0.18810202136E+01 -0.27252593414E+02  0.11129010544E+02  0.95502594003E+02  0.90833080432E+02 0.  0.
         11    1    3    3    0    0 -0.29787898081E+02 -0.47003307752E+02 -0.81681401130E+01  0.56243651418E+02  0.51100000000E-03 0. -1.
         22    1    1    0    0    0  0.18810202136E+01  0.27252593414E+02 -0.11129010544E+02  0.29497405997E+02  0.00000000000E+00 0. -1.
</event>
<event>
 4    1  0.8902899E-005  0.9118800E+02  0.7818608E-02  0.1130116E+00
         25   -1    0    0    0    0  0.00000000000E+00  0.00000000000E+00  0.99999998245E-14  0.12500000000E+03  0.12500000000E+03 0.  0.
        -11    1    1    0    0    0 -0.20969039659E+02 -0.42490131429E+02  0.29600398235E+02  0.55868555279E+02  0.51100000000E-03 0.  1.
         11    1    1    0    0    0 -0.75515528348E+01  0.13689788308E+02  0.43834651472E+01  0.16237334174E+02  0.51100000000E-03 0. -1.
         22    1    1    0    0    0  0.28520592494E+02  0.28800343121E+02 -0.33983863382E+02  0.52894110546E+02  0.00000000000E+00 0.  1.
</event>
<event>
 5    1  0.8902899E-005  0.9118800E+02  0.7818608E-02  0.1130116E+00
         25   -1    0    0    0    0  0.00000000000E+00  0.00000000000E+00  0.99999998245E-14  0.12500000000E+03  0.12500000000E+03 0.  0.
        -11    1    3    3    0    0  0.39565742742E+02  0.35240144934E+01  0.97705675101E+01  0.40906364622E+02  0.51100000000E-03 0.  1.
         23    2    1    0    0    0 -0.75005163276E+01 -0.22815232513E+02  0.17350950451E+02  0.95371499172E+02  0.90652494687E+02 0.  0.
         11    1    3    3    0    0 -0.47066259070E+02 -0.26339247006E+02  0.75803829408E+01  0.54465134549E+02  0.51100000000E-03 0. -1.
         22    1    1    0    0    0  0.75005163276E+01  0.22815232513E+02 -0.17350950451E+02  0.29628500828E+02  0.00000000000E+00 0. -1.
</event>
<event>
 5    1  0.8902899E-005  0.9118800E+02  0.7818608E-02  0.1130116E+00
         25   -1    0    0    0    0  0.00000000000E+00  0.00000000000E+00  0.99999998245E-14  0.12500000000E+03  0.12500000000E+03 0.  0.
        -11    1    3    3    0    0 -0.74338421771E+01  0.22464791371E+02  0.17528184042E+02  0.29447684068E+02  0.51100000000E-03 0. -1.
         23    2    1    0    0    0  0.31026066094E+02 -0.64313150978E+01 -0.17357824248E+02  0.88871442683E+02  0.81196432624E+02 0.  0.
         11    1    3    3    0    0  0.38459908271E+02 -0.28896106469E+02 -0.34886008290E+02  0.59423758616E+02  0.51100000000E-03 0.  1.
         22    1    1    0    0    0 -0.31026066094E+02  0.64313150978E+01  0.17357824248E+02  0.36128557317E+02  0.00000000000E+00 0.  1.
</event>
<event>
 5    1  0.8902899E-005  0.9118800E+02  0.7818608E-02  0.1130116E+00
         25   -1    0    0    0    0  0.00000000000E+00  0.00000000000E+00  0.99999998245E-14  0.12500000000E+03  0.12500000000E+03 0.  0.
        -11    1    3    3    0    0  0.16454533932E+02 -0.14039941164E+02 -0.42431984251E+02  0.47627144808E+02  0.51100000000E-03 0. -1.
         23    2    1    0    0    0  0.26969067588E+02  0.16112275835E+02 -0.13184197584E+02  0.90930085044E+02  0.84306116392E+02 0.  0.
         11    1    3    3    0    0  0.10514533656E+02  0.30152216999E+02  0.29247786667E+02  0.43302940237E+02  0.51100000000E-03 0.  1.
         22    1    1    0    0    0 -0.26969067588E+02 -0.16112275835E+02  0.13184197584E+02  0.34069914956E+02  0.00000000000E+00 0. -1.
</event>
<event>
 5    1  0.8902899E-005  0.9118800E+02  0.7818608E-02  0.1130116E+00
         25   -1    0    0    0    0  0.00000000000E+00  0.00000000000E+00  0.99999998245E-14  0.12500000000E+03  0.12500000000E+03 0.  0.
        -11    1    3    3    0    0  0.34549572336E+02  0.10806222274E+02 -0.17780628990E+02  0.40331106555E+02  0.51100000000E-03 0. -1.
         23    2    1    0    0    0 -0.11246011697E+02  0.26642688846E+02  0.76928904638E+01  0.95075324368E+02  0.90243177537E+02 0.  0.
         11    1    3    3    0    0 -0.45795584032E+02  0.15836466572E+02  0.25473519453E+02  0.54744217813E+02  0.51100000000E-03 0.  1.
         22    1    1    0    0    0  0.11246011697E+02 -0.26642688846E+02 -0.76928904638E+01  0.29924675632E+02  0.00000000000E+00 0.  1.
</event>
<event>
 5    1  0.8902899E-005  0.9118800E+02  0.7818608E-02  0.1130116E+00
         25   -1    0    0    0    0  0.00000000000E+00  0.00000000000E+00  0.99999998245E-14  0.12500000000E+03  0.12500000000E+03 0.  0.
        -11    1    3    3    0    0  0.23402620308E+02 -0.22354980772E+02 -0.94288684476E+01  0.33709514429E+02  0.51100000000E-03 0.  1.
         23    2    1    0    0    0 -0.22766653505E+02  0.18044196964E+02 -0.70601635208E+01  0.95104189845E+02  0.90283151591E+02 0.  0.
         11    1    3    3    0    0 -0.46169273813E+02  0.40399177736E+02  0.23687049269E+01  0.61394675416E+02  0.51100000000E-03 0. -1.
         22    1    1    0    0    0  0.22766653505E+02 -0.18044196964E+02  0.70601635208E+01  0.29895810155E+02  0.00000000000E+00 0. -1.
</event>
<event>
 5    1  0.8902899E-005  0.9118800E+02  0.7818608E-02  0.1130116E+00
         25   -1    0    0    0    0  0.00000000000E+00  0.00000000000E+00  0.99999998245E-14  0.12500000000E+03  0.12500000000E+03 0.  0.
        -11    1    3    3    0    0  0.46955626904E+02 -0.10957808990E+02  0.67298117818E+01  0.48684646889E+02  0.51100000000E-03 0.  1.
         23    2    1    0    0    0  0.25964106470E+01 -0.27457563178E+02  0.87761111942E+01  0.96057310913E+02  0.91593273379E+02 0.  0.
         11    1    3    3    0    0 -0.44359216257E+02 -0.16499754188E+02  0.20462994124E+01  0.47372664024E+02  0.51100000000E-03 0. -1.
         22    1    1    0    0    0 -0.25964106470E+01  0.27457563178E+02 -0.87761111942E+01  0.28942689087E+02  0.00000000000E+00 0.  1.
</event>
<event>
 5    1  0.8902899E-005  0.9118800E+02  0.7818608E-02  0.1130116E+00
         25   -1    0    0    0    0  0.00000000000E+00  0.00000000000E+00  0.99999998245E-14  0.12500000000E+03  0.12500000000E+03 0.  0.
        -11    1    3    3    0    0 -0.96372832203E+01  0.36348188144E+02 -0.11306567803E+02  0.39267117095E+02  0.51100000000E-03 0.  1.
         23    2    1    0    0    0  0.19078292252E+02  0.42276312859E+01  0.23343728665E+02  0.94556876482E+02  0.89522171112E+02 0.  0.
         11    1    3    3    0    0  0.28715575472E+02 -0.32120556858E+02  0.34650296468E+02  0.55289759387E+02  0.51100000000E-03 0. -1.
         22    1    1    0    0    0 -0.19078292252E+02 -0.42276312859E+01 -0.23343728665E+02  0.30443123518E+02  0.00000000000E+00 0. -1.
</event>
<event>
 5    1  0.8902899E-005  0.9118800E+02  0.7818608E-02  0.1130116E+00
         25   -1    0    0    0    0  0.00000000000E+00  0.00000000000E+00  0.99999998245E-14  0.12500000000E+03  0.12500000000E+03 0.  0.
        -11    1    3    3    0    0  0.37102521768E+02 -0.41200232627E+02  0.27257864215E+02  0.61782258391E+02  0.51100000000E-03 0.  1.
         23    2    1    0    0    0  0.13590263661E+02 -0.14313545245E+02  0.17019244949E+02  0.98938005784E+02  0.95443708258E+02 0.  0.
         11    1    3    3    0    0 -0.23512258107E+02  0.26886687381E+02 -0.10238619266E+02  0.37155747394E+02  0.51100000000E-03 0. -1.
         22    1    1    0    0    0 -0.13590263661E+02  0.14313545245E+02 -0.17019244949E+02  0.26061994216E+02  0.00000000000E+00 0.  1.
</event>
<event>
 5    1  0.8902899E-005  0.9118800E+02  0.7818608E-02  0.1130116E+00
         25   -1    0    0    0    0  0.00000000000E+00  0.00000000000E+00  0.99999998245E-14  0.12500000000E+03  0.12500000000E+03 0.  0.
        -11    1    3    3    0    0  0.25283791403E+02  0.26965299646E+02  0.58373950618E+01  0.37422889708E+02  0.51100000000E-03 0.  1.
         23    2    1    0    0    0 -0.27760414870E+01 -0.20920155841E+02 -0.17454738321E+02  0.97613375224E+02  0.93692816193E+02 0.  0.
         11    1    3    3    0    0 -0.28059832890E+02 -0.47885455486E+02 -0.23292133383E+02  0.60190485517E+02  0.51100000000E-03 0. -1.
         22    1    1    0    0    0  0.27760414870E+01  0.20920155841E+02  0.17454738321E+02  0.27386624776E+02  0.00000000000E+00 0. -1.
</event>
<event>
 5    1  0.8902899E-005  0.9118800E+02  0.7818608E-02  0.1130116E+00
         25   -1    0    0    0    0  0.00000000000E+00  0.00000000000E+00  0.99999998245E-14  0.12500000000E+03  0.12500000000E+03 0.  0.
        -11    1    3    3    0    0  0.12199325017E+02  0.50380606629E+02 -0.28814976436E+02  0.59307098415E+02  0.51100000000E-03 0.  1.
         23    2    1    0    0    0 -0.27011517193E+00  0.27817044128E+02 -0.10978313308E+01  0.97159990305E+02  0.93085968740E+02 0.  0.
         11    1    3    3    0    0 -0.12469440189E+02 -0.22563562501E+02  0.27717145105E+02  0.37852891890E+02  0.51100000000E-03 0. -1.
         22    1    1    0    0    0  0.27011517193E+00 -0.27817044128E+02  0.10978313308E+01  0.27840009695E+02  0.00000000000E+00 0.  1.
</event>
<event>
 5    1  0.8902899E-005  0.9118800E+02  0.7818608E-02  0.1130116E+00
         25   -1    0    0    0    0  0.00000000000E+00  0.00000000000E+00  0.99999998245E-14  0.12500000000E+03  0.12500000000E+03 0.  0.
        -11    1    3    3    0    0  0.30093676282E+02 -0.34674693904E+01  0.21888151179E+02  0.37373036517E+02  0.51100000000E-03 0.  1.
         23    2    1    0    0    0 -0.98238216715E+01 -0.13629277436E+02 -0.21839349158E+02  0.97446019393E+02  0.93469272214E+02 0.  0.
         11    1    3    3    0    0 -0.39917497954E+02 -0.10161808045E+02 -0.43727500337E+02  0.60072982876E+02  0.51100000000E-03 0. -1.
         22    1    1    0    0    0  0.98238216715E+01  0.13629277436E+02  0.21839349158E+02  0.27553980607E+02  0.00000000000E+00 0. -1.
</event>
<event>
 5    1  0.8902899E-005  0.9118800E+02  0.7818608E-02  0.1130116E+00
         25   -1    0    0    0    0  0.00000000000E+00  0.00000000000E+00  0.99999998245E-14  0.12500000000E+03  0.12500000000E+03 0.  0.
        -11    1    3    3    0    0  0.44899907858E+01 -0.48044001116E+02 -0.35388547245E+02  0.59839245792E+02  0.51100000000E-03 0.  1.
         23    2    1    0    0    0  0.19162592671E+01 -0.18518125491E+02 -0.29592427239E+02  0.90038524471E+02  0.82973677258E+02 0.  0.
         11    1    3    3    0    0 -0.25737315187E+01  0.29525875625E+02  0.57961200062E+01  0.30199278679E+02  0.51100000000E-03 0. -1.
         22    1    1    0    0    0 -0.19162592671E+01  0.18518125491E+02  0.29592427239E+02  0.34961475529E+02  0.00000000000E+00 0.  1.
</event>
<event>
 5    1  0.8902899E-005  0.9118800E+02  0.7818608E-02  0.1130116E+00
         25   -1    0    0    0    0  0.00000000000E+00  0.00000000000E+00  0.99999998245E-14  0.12500000000E+03  0.12500000000E+03 0.  0.
        -11    1    3    3    0    0  0.22921795831E+02 -0.25962976902E+02 -0.36515821731E+02  0.50327826604E+02  0.51100000000E-03 0.  1.
         23    2    1    0    0    0  0.22072634053E+02 -0.23336654313E+02  0.54799945711E+01  0.92414252363E+02  0.86478685760E+02 0.  0.
         11    1    3    3    0    0 -0.84916177749E+00  0.26263225894E+01  0.41995816302E+02  0.42086425759E+02  0.51100000000E-03 0. -1.
         22    1    1    0    0    0 -0.22072634053E+02  0.23336654313E+02 -0.54799945711E+01  0.32585747637E+02  0.00000000000E+00 0.  1.
</event>
<event>
 5    1  0.8902899E-005  0.9118800E+02  0.7818608E-02  0.1130116E+00
         25   -1    0    0    0    0  0.00000000000E+00  0.00000000000E+00  0.99999998245E-14  0.12500000000E+03  0.12500000000E+03 0.  0.
        -11    1    3    3    0    0 -0.15761635318E+01  0.19709609159E+02  0.25709956127E+02  0.32433853132E+02  0.51100000000E-03 0. -1.
         23    2    1    0    0    0  0.45115009250E+01 -0.19386729607E+02 -0.22603234757E+02  0.94881813684E+02  0.89974737682E+02 0.  0.
         11    1    3    3    0    0  0.60876644568E+01 -0.39096338766E+02 -0.48313190885E+02  0.62447960552E+02  0.51100000000E-03 0.  1.
         22    1    1    0    0    0 -0.45115009250E+01  0.19386729607E+02  0.22603234757E+02  0.30118186316E+02  0.00000000000E+00 0.  1.
</event>
<event>
 5    1  0.8902899E-005  0.9118800E+02  0.7818608E-02  0.1130116E+00
         25   -1    0    0    0    0  0.00000000000E+00  0.00000000000E+00  0.99999998245E-14  0.12500000000E+03  0.12500000000E+03 0.  0.
        -11    1    3    3    0    0 -0.10036603098E+02 -0.32263961123E+02  0.11258332656E+01  0.33807751920E+02  0.51100000000E-03 0.  1.
         23    2    1    0    0    0 -0.92846721817E+01  0.28560947416E+02 -0.32386467999E+01  0.94793681325E+02  0.89852213835E+02 0.  0.
         11    1    3    3    0    0  0.75193091659E+00  0.60824908539E+02 -0.43644800655E+01  0.60985929405E+02  0.51100000000E-03 0. -1.
         22    1    1    0    0    0  0.92846721817E+01 -0.28560947416E+02  0.32386467999E+01  0.30206318675E+02  0.00000000000E+00 0. -1.
</event>
<event>
 5    1  0.8902899E-005  0.9118800E+02  0.7818608E-02  0.1130116E+00
         25   -1    0    0    0    0  0.00000000000E+00  0.00000000000E+00  0.99999998245E-14  0.12500000000E+03  0.12500000000E+03 0.  0.
        -11    1    3    3    0    0 -0.35184707743E+02 -0.41308868435E+01 -0.23833804334E+02  0.42697518831E+02  0.51100000000E-03 0.  1.
         23    2    1    0    0    0  0.15328815956E+02  0.10855695861E+02 -0.22881953412E+02  0.95395903608E+02  0.90686139525E+02 0.  0.
         11    1    3    3    0    0  0.50513523699E+02  0.14986582704E+02  0.95185092236E+00  0.52698384777E+02  0.51100000000E-03 0. -1.
         22    1    1    0    0    0 -0.15328815956E+02 -0.10855695861E+02  0.22881953412E+02  0.29604096392E+02  0.00000000000E+00 0. -1.
</event>
<event>
 5    1  0.8902899E-005  0.9118800E+02  0.7818608E-02  0.1130116E+00
         25   -1    0    0    0    0  0.00000000000E+00  0.00000000000E+00  0.99999998245E-14  0.12500000000E+03  0.12500000000E+03 0.  0.
        -11    1    3    3    0    0  0.21696952108E+02 -0.26252093242E+02 -0.31795141346E+02  0.46592500940E+02  0.51100000000E-03 0.  1.
         23    2    1    0    0    0 -0.16273018135E+02 -0.13096057201E+02  0.75091253017E+01  0.10280304534E+03  0.10037809191E+03 0.  0.
         11    1    3    3    0    0 -0.37969970243E+02  0.13156036042E+02  0.39304266648E+02  0.56210544399E+02  0.51100000000E-03 0. -1.
         22    1    1    0    0    0  0.16273018135E+02  0.13096057201E+02 -0.75091253017E+01  0.22196954661E+02  0.00000000000E+00 0. -1.
</event>
<event>
 5    1  0.8902899E-005  0.9118800E+02  0.7818608E-02  0.1130116E+00
         25   -1    0    0    0    0  0.00000000000E+00  0.00000000000E+00  0.99999998245E-14  0.12500000000E+03  0.12500000000E+03 0.  0.
        -11    1    3    3    0    0 -0.95773343916E+01  0.66647806555E+01 -0.37661390314E+02  0.39427464487E+02  0.51100000000E-03 0.  1.
         23    2    1    0    0    0 -0.11787904738E+02  0.21472413417E+02  0.16398589586E+02  0.95522330885E+02  0.90860237295E+02 0.  0.
         11    1    3    3    0    0 -0.22105703462E+01  0.14807632761E+02  0.54059979900E+02  0.56094866398E+02  0.51100000000E-03 0. -1.
         22    1    1    0    0    0  0.11787904738E+02 -0.21472413417E+02 -0.16398589586E+02  0.29477669115E+02  0.00000000000E+00 0. -1.
</event>
<event>
 5    1  0.8902899E-005  0.9118800E+02  0.7818608E-02  0.1130116E+00
         25   -1    0    0    0    0  0.00000000000E+00  0.00000000000E+00  0.99999998245E-14  0.12500000000E+03  0.12500000000E+03 0.  0.
        -11    1    3    3    0    0 -0.15163861619E+02 -0.58986431667E+02 -0.20773200905E+01  0.60939782401E+02  0.51100000000E-03 0.  1.
         23    2    1    0    0    0 -0.35823642560E+00 -0.28036127257E+02  0.63120371552E+01  0.96259878602E+02  0.91869307445E+02 0.  0.
         11    1    3    3    0    0  0.14805625193E+02  0.30950304410E+02  0.83893572457E+01  0.35320096201E+02  0.51100000000E-03 0. -1.
         22    1    1    0    0    0  0.35823642560E+00  0.28036127257E+02 -0.63120371552E+01  0.28740121398E+02  0.00000000000E+00 0.  1.
</event>
<event>
 5    1  0.8902899E-005  0.9118800E+02  0.7818608E-02  0.1130116E+00
         25   -1    0    0    0    0  0.00000000000E+00  0.00000000000E+00  0.99999998245E-14  0.12500000000E+03  0.12500000000E+03 0.  0.
        -11    1    3    3    0    0  0.29728390587E+02  0.17482683713E+02 -0.62403924234E+01  0.35048023262E+02  0.51100000000E-03 0.  1.
         23    2    1    0    0    0 -0.28984142189E+02  0.24654907913E+01 -0.70911639015E+00  0.95902543250E+02  0.91381813357E+02 0.  0.
         11    1    3    3    0    0 -0.58712532776E+02 -0.15017192921E+02  0.55312760333E+01  0.60854519988E+02  0.51100000000E-03 0. -1.
         22    1    1    0    0    0  0.28984142189E+02 -0.24654907913E+01  0.70911639015E+00  0.29097456750E+02  0.00000000000E+00 0. -1.
</event>
<event>
 5    1  0.8902899E-005  0.9118800E+02  0.7818608E-02  0.1130116E+00
         25   -1    0    0    0    0  0.00000000000E+00  0.00000000000E+00  0.99999998245E-14  0.12500000000E+03  0.12500000000E+03 0.  0.
        -11    1    3    3    0    0 -0.31587152889E+02  0.30772146799E+02 -0.59771646374E+01  0.44501682481E+02  0.51100000000E-03 0.  1.
         23    2    1    0    0    0  0.67699448077E+01  0.70999879585E+00 -0.26690689076E+02  0.97454961711E+02  0.93481230350E+02 0.  0.
         11    1    3    3    0    0  0.38357097696E+02 -0.30062148004E+02 -0.20713524439E+02  0.52953279230E+02  0.51100000000E-03 0. -1.
         22    1    1    0    0    0 -0.67699448077E+01 -0.70999879585E+00  0.26690689076E+02  0.27545038289E+02  0.00000000000E+00 0. -1.
</event>
<event>
 5    1  0.8902899E-005  0.9118800E+02  0.7818608E-02  0.1130116E+00
         25   -1    0    0    0    0  0.00000000000E+00  0.00000000000E+00  0.99999998245E-14  0.12500000000E+03  0.12500000000E+03 0.  0.
        -11    1    3    3    0    0 -0.30777220917E+02  0.38777113946E+02 -0.36567581514E+02  0.61547460641E+02  0.51100000000E-03 0. -1.
         23    2    1    0    0    0 -0.20520892893E+02  0.16064000522E+02 -0.12880406737E+02  0.95930014867E+02  0.91419383704E+02 0.  0.
         11    1    3    3    0    0  0.10256328023E+02 -0.22713113424E+02  0.23687174777E+02  0.34382554226E+02  0.51100000000E-03 0.  1.
         22    1    1    0    0    0  0.20520892893E+02 -0.16064000522E+02  0.12880406737E+02  0.29069985133E+02  0.00000000000E+00 0. -1.
</event>
<event>
 5    1  0.8902899E-005  0.9118800E+02  0.7818608E-02  0.1130116E+00
         25   -1    0    0    0    0  0.00000000000E+00  0.00000000000E+00  0.99999998245E-14  0.12500000000E+03  0.12500000000E+03 0.  0.
        -11    1    3    3    0    0  0.14431493536E+02  0.25220582825E+02  0.20892571226E+02  0.35788899626E+02  0.51100000000E-03 0. -1.
         23    2    1    0    0    0 -0.27897109274E+02 -0.38631863457E+01 -0.92720624988E+01  0.95349636468E+02  0.90622343365E+02 0.  0.
         11    1    3    3    0    0 -0.42328602811E+02 -0.29083769171E+02 -0.30164633725E+02  0.59560736842E+02  0.51100000000E-03 0.  1.
         22    1    1    0    0    0  0.27897109274E+02  0.38631863457E+01  0.92720624988E+01  0.29650363532E+02  0.00000000000E+00 0.  1.
</event>
<event>
 5    1  0.8902899E-005  0.9118800E+02  0.7818608E-02  0.1130116E+00
         25   -1    0    0    0    0  0.00000000000E+00  0.00000000000E+00  0.99999998245E-14  0.12500000000E+03  0.12500000000E+03 0.  0.
        -11    1    3    3    0    0 -0.60359479105E+02  0.11998990723E+02 -0.35897449323E+00  0.61541622982E+02  0.51100000000E-03 0. -1.
         23    2    1    0    0    0 -0.25227960824E+02 -0.88131835231E+00 -0.50614923454E+01  0.99254215216E+02  0.95856944475E+02 0.  0.
         11    1    3    3    0    0  0.35131518282E+02 -0.12880309075E+02 -0.47025178522E+01  0.37712592235E+02  0.51100000000E-03 0.  1.
         22    1    1    0    0    0  0.25227960824E+02  0.88131835231E+00  0.50614923454E+01  0.25745784784E+02  0.00000000000E+00 0. -1.
</event>
<event>
 5    1  0.8902899E-005  0.9118800E+02  0.7818608E-02  0.1130116E+00
         25   -1    0    0    0    0  0.00000000000E+00  0.00000000000E+00  0.99999998245E-14  0.12500000000E+03  0.12500000000E+03 0.  0.
        -11    1    3    3    0    0 -0.45677141325E+02  0.27262461297E+02 -0.19666250148E+02  0.56713353196E+02  0.51100000000E-03 0.  1.
         23    2    1    0    0    0 -0.27041809391E+02 -0.54980091792E+01 -0.10260673445E+02  0.95559059464E+02  0.90910752203E+02 0.  0.
         11    1    3    3    0    0  0.18635331934E+02 -0.32760470476E+02  0.94055767032E+01  0.38845706268E+02  0.51100000000E-03 0. -1.
         22    1    1    0    0    0  0.27041809391E+02  0.54980091792E+01  0.10260673445E+02  0.29440940536E+02  0.00000000000E+00 0.  1.
</event>
<event>
 5    1  0.8902899E-005  0.9118800E+02  0.7818608E-02  0.1130116E+00
         25   -1    0    0    0    0  0.00000000000E+00  0.00000000000E+00  0.99999998245E-14  0.12500000000E+03  0.12500000000E+03 0.  0.
        -11    1    3    3    0    0  0.98340667754E+01 -0.31885209106E+02  0.80492375792E+01  0.34324417766E+02  0.51100000000E-03 0. -1.
         23    2    1    0    0    0 -0.23415651276E+02  0.18174679026E+02 -0.21538693186E+01  0.95280463741E+02  0.90526879629E+02 0.  0.
         11    1    3    3    0    0 -0.33249718051E+02  0.50059888133E+02 -0.10203106898E+02  0.60956045976E+02  0.51100000000E-03 0.  1.
         22    1    1    0    0    0  0.23415651276E+02 -0.18174679026E+02  0.21538693186E+01  0.29719536259E+02  0.00000000000E+00 0.  1.
</event>
<event>
 5    1  0.8902899E-005  0.9118800E+02  0.7818608E-02  0.1130116E+00
         25   -1    0    0    0    0  0.00000000000E+00  0.00000000000E+00  0.99999998245E-14  0.12500000000E+03  0.12500000000E+03 0.  0.
        -11    1    3    3    0    0  0.40316831203E+02 -0.97636171000E+01 -0.80809322419E+01  0.42261999045E+02  0.51100000000E-03 0. -1.
         23    2    1    0    0    0  0.13314225184E+02  0.27296270555E+02  0.12032164817E+02  0.92333075311E+02  0.86361269257E+02 0.  0.
         11    1    3    3    0    0 -0.27002606019E+02  0.37059887655E+02  0.20113097059E+02  0.50071076265E+02  0.51100000000E-03 0.  1.
         22    1    1    0    0    0 -0.13314225184E+02 -0.27296270555E+02 -0.12032164817E+02  0.32666924689E+02  0.00000000000E+00 0. -1.
</event>
<event>
 5    1  0.8902899E-005  0.9118800E+02  0.7818608E-02  0.1130116E+00
         25   -1    0    0    0    0  0.00000000000E+00  0.00000000000E+00  0.99999998245E-14  0.12500000000E+03  0.12500000000E+03 0.  0.
        -11    1    3    3    0    0 -0.91072554613E+01  0.33353690496E+02  0.36959774668E+01  0.34771698570E+02  0.51100000000E-03 0.  1.
         23    2    1    0    0    0 -0.66830648592E+01 -0.27945731921E+02 -0.49478055770E+00  0.96262009529E+02  0.91872206800E+02 0.  0.
         11    1    3    3    0    0  0.24241906021E+01 -0.61299422417E+02 -0.41907580245E+01  0.61490310959E+02  0.51100000000E-03 0. -1.
         22    1    1    0    0    0  0.66830648592E+01  0.27945731921E+02  0.49478055770E+00  0.28737990471E+02  0.00000000000E+00 0. -1.
</event>
<event>
 5    1  0.8902899E-005  0.9118800E+02  0.7818608E-02  0.1130116E+00
         25   -1    0    0    0    0  0.00000000000E+00  0.00000000000E+00  0.99999998245E-14  0.12500000000E+03  0.12500000000E+03 0.  0.
        -11    1    3    3    0    0 -0.48450665862E+02  0.31785535131E+02 -0.15877096616E+02  0.60082189235E+02  0.51100000000E-03 0. -1.
         23    2    1    0    0    0 -0.30976109481E+02  0.27638182552E+02 -0.88545926161E+00  0.83476843431E+02  0.72416923834E+02 0.  0.
         11    1    3    3    0    0  0.17474556381E+02 -0.41473525783E+01  0.14991637354E+02  0.23394654196E+02  0.51100000000E-03 0.  1.
         22    1    1    0    0    0  0.30976109481E+02 -0.27638182552E+02  0.88545926161E+00  0.41523156569E+02  0.00000000000E+00 0. -1.
</event>
<event>
 4    1  0.8902899E-005  0.9118800E+02  0.7818608E-02  0.1130116E+00
         25   -1    0    0    0    0  0.00000000000E+00  0.00000000000E+00  0.99999998245E-14  0.12500000000E+03  0.12500000000E+03 0.  0.
        -11    1    1    0    0    0 -0.39685108241E-01 -0.73416202247E+01  0.16973272487E+02  0.18493051171E+02  0.51100000000E-03 0.  1.
         11    1    1    0    0    0 -0.49842433979E+02 -0.10055351384E+02 -0.17202146116E+02  0.53677668985E+02  0.51100000000E-03 0. -1.
         22    1    1    0    0    0  0.49882119087E+02  0.17396971609E+02  0.22887362938E+00  0.52829279845E+02  0.00000000000E+00 0. -1.
</event>
<event>
 5    1  0.8902899E-005  0.9118800E+02  0.7818608E-02  0.1130116E+00
         25   -1    0    0    0    0  0.00000000000E+00  0.00000000000E+00  0.99999998245E-14  0.12500000000E+03  0.12500000000E+03 0.  0.
        -11    1    3    3    0    0  0.26619691424E+02 -0.57227533835E+01 -0.22009848965E+02  0.35011302882E+02  0.51100000000E-03 0.  1.
         23    2    1    0    0    0 -0.24075336088E+02 -0.10053818838E+02  0.12073127211E+02  0.96251756895E+02  0.91858256154E+02 0.  0.
         11    1    3    3    0    0 -0.50695027512E+02 -0.43310654540E+01  0.34082976176E+02  0.61240454013E+02  0.51100000000E-03 0. -1.
         22    1    1    0    0    0  0.24075336088E+02  0.10053818838E+02 -0.12073127211E+02  0.28748243105E+02  0.00000000000E+00 0. -1.
</event>
<event>
 5    1  0.8902899E-005  0.9118800E+02  0.7818608E-02  0.1130116E+00
         25   -1    0    0    0    0  0.00000000000E+00  0.00000000000E+00  0.99999998245E-14  0.12500000000E+03  0.12500000000E+03 0.  0.
        -11    1    3    3    0    0  0.29425899819E+02  0.24382599168E+02 -0.13031425545E+02  0.40375893480E+02  0.51100000000E-03 0.  1.
         23    2    1    0    0    0 -0.18914106507E+02  0.21620176927E+02  0.10761070548E+02  0.94324666022E+02  0.89197345844E+02 0.  0.
         11    1    3    3    0    0 -0.48340006326E+02 -0.27624222409E+01  0.23792496093E+02  0.53948772542E+02  0.51100000000E-03 0. -1.
         22    1    1    0    0    0  0.18914106507E+02 -0.21620176927E+02 -0.10761070548E+02  0.30675333978E+02  0.00000000000E+00 0. -1.
</event>
<event>
 5    1  0.8902899E-005  0.9118800E+02  0.7818608E-02  0.1130116E+00
         25   -1    0    0    0    0  0.00000000000E+00  0.00000000000E+00  0.99999998245E-14  0.12500000000E+03  0.12500000000E+03 0.  0.
        -11    1    3    3    0    0 -0.89695433729E+01 -0.10880907194E+02 -0.33596325703E+02  0.36435696105E+02  0.51100000000E-03 0.  1.
         23    2    1    0    0    0 -0.12141794334E+02 -0.11977827659E+02  0.24785126050E+02  0.94913557897E+02  0.90018828443E+02 0.  0.
         11    1    3    3    0    0 -0.31722509609E+01 -0.10969204649E+01  0.58381451753E+02  0.58477861792E+02  0.51100000000E-03 0. -1.
         22    1    1    0    0    0  0.12141794334E+02  0.11977827659E+02 -0.24785126050E+02  0.30086442103E+02  0.00000000000E+00 0. -1.
</event>
<event>
 5    1  0.8902899E-005  0.9118800E+02  0.7818608E-02  0.1130116E+00
         25   -1    0    0    0    0  0.00000000000E+00  0.00000000000E+00  0.99999998245E-14  0.12500000000E+03  0.12500000000E+03 0.  0.
        -11    1    3    3    0    0 -0.52374262911E+02  0.59507834707E+01 -0.12878829015E+02  0.54261768092E+02  0.51100000000E-03 0.  1.
         23    2    1    0    0    0 -0.24570900987E+02  0.15901665543E+02  0.12476545478E+02  0.93184023990E+02  0.87584279397E+02 0.  0.
         11    1    3    3    0    0  0.27803361924E+02  0.99508820728E+01  0.25355374493E+02  0.38922255899E+02  0.51100000000E-03 0. -1.
         22    1    1    0    0    0  0.24570900987E+02 -0.15901665543E+02 -0.12476545478E+02  0.31815976010E+02  0.00000000000E+00 0.  1.
</event>
<event>
 5    1  0.8902899E-005  0.9118800E+02  0.7818608E-02  0.1130116E+00
         25   -1    0    0    0    0  0.00000000000E+00  0.00000000000E+00  0.99999998245E-14  0.12500000000E+03  0.12500000000E+03 0.  0.
        -11    1    3    3    0    0  0.41567120069E+02 -0.16561290756E+02  0.42038173317E+02  0.61394705297E+02  0.51100000000E-03 0.  1.
         23    2    1    0    0    0  0.22841410561E+02 -0.13598545812E+02  0.14819261400E+02  0.94565463811E+02  0.89534160814E+02 0.  0.
         11    1    3    3    0    0 -0.18725709508E+02  0.29627449445E+01 -0.27218911917E+02  0.33170758514E+02  0.51100000000E-03 0. -1.
         22    1    1    0    0    0 -0.22841410561E+02  0.13598545812E+02 -0.14819261400E+02  0.30434536189E+02  0.00000000000E+00 0.  1.
</event>
<event>
 5    1  0.8902899E-005  0.9118800E+02  0.7818608E-02  0.1130116E+00
         25   -1    0    0    0    0  0.00000000000E+00  0.00000000000E+00  0.99999998245E-14  0.12500000000E+03  0.12500000000E+03 0.  0.
        -11    1    3    3    0    0  0.21244708979E+02 -0.49031458616E+02  0.30818618368E+02  0.61686374768E+02  0.51100000000E-03 0.  1.
         23    2    1    0    0    0  0.55145164209E+01 -0.27192396342E+02  0.10813110695E+02  0.95221489743E+02  0.90445411359E+02 0.  0.
         11    1    3    3    0    0 -0.15730192558E+02  0.21839062274E+02 -0.20005507673E+02  0.33535114975E+02  0.51100000000E-03 0. -1.
         22    1    1    0    0    0 -0.55145164209E+01  0.27192396342E+02 -0.10813110695E+02  0.29778510257E+02  0.00000000000E+00 0.  1.
</event>
<event>
 5    1  0.8902899E-005  0.9118800E+02  0.7818608E-02  0.1130116E+00
         25   -1    0    0    0    0  0.00000000000E+00  0.00000000000E+00  0.99999998245E-14  0.12500000000E+03  0.12500000000E+03 0.  0.
        -11    1    3    3    0    0  0.50929533993E+01  0.20000954104E+02  0.27968420633E+02  0.34759299365E+02  0.51100000000E-03 0.  1.
         23    2    1    0    0    0 -0.79162816660E+01  0.15299394596E+02 -0.27842802179E+02  0.92259190242E+02  0.86254261116E+02 0.  0.
         11    1    3    3    0    0 -0.13009235065E+02 -0.47015595082E+01 -0.55811222812E+02  0.57499890877E+02  0.51100000000E-03 0. -1.
         22    1    1    0    0    0  0.79162816660E+01 -0.15299394596E+02  0.27842802179E+02  0.32740809758E+02  0.00000000000E+00 0. -1.
</event>
<event>
 5    1  0.8902899E-005  0.9118800E+02  0.7818608E-02  0.1130116E+00
         25   -1    0    0    0    0  0.00000000000E+00  0.00000000000E+00  0.99999998245E-14  0.12500000000E+03  0.12500000000E+03 0.  0.
        -11    1    3    3    0    0 -0.19834905761E+01  0.24460309631E+01  0.49172331200E+02  0.49273070315E+02  0.51100000000E-03 0. -1.
         23    2    1    0    0    0 -0.37846223827E+01  0.27383421774E+02  0.10283964860E+02  0.95505337976E+02  0.90836856474E+02 0.  0.
         11    1    3    3    0    0 -0.18011318066E+01  0.24937390811E+02 -0.38888366340E+02  0.46232267662E+02  0.51100000000E-03 0.  1.
         22    1    1    0    0    0  0.37846223827E+01 -0.27383421774E+02 -0.10283964860E+02  0.29494662024E+02  0.00000000000E+00 0.  1.
</event>
<event>
 5    1  0.8902899E-005  0.9118800E+02  0.7818608E-02  0.1130116E+00
         25   -1    0    0    0    0  0.00000000000E+00  0.00000000000E+00  0.99999998245E-14  0.12500000000E+03  0.12500000000E+03 0.  0.
        -11    1    3    3    0    0  0.38530267176E+01  0.43669876023E+02 -0.32089980347E+02  0.54329280556E+02  0.51100000000E-03 0.  1.
         23    2    1    0    0    0 -0.20433630941E+02  0.15547508458E+02 -0.15365339660E+02  0.95077567687E+02  0.90246284808E+02 0.  0.
         11    1    3    3    0    0 -0.24286657659E+02 -0.28122367565E+02  0.16724640687E+02  0.40748287131E+02  0.51100000000E-03 0. -1.
         22    1    1    0    0    0  0.20433630941E+02 -0.15547508458E+02  0.15365339660E+02  0.29922432313E+02  0.00000000000E+00 0.  1.
</event>
<event>
 5    1  0.8902899E-005  0.9118800E+02  0.7818608E-02  0.1130116E+00
         25   -1    0    0    0    0  0.00000000000E+00  0.00000000000E+00  0.99999998245E-14  0.12500000000E+03  0.12500000000E+03 0.  0.
        -11    1    3    3    0    0 -0.31240414846E+02 -0.96455348631E+01  0.37025168310E+02  0.49394968885E+02  0.51100000000E-03 0.  1.
         23    2    1    0    0    0  0.10407375845E+02 -0.18749332159E+02  0.21134782980E+02  0.94891363697E+02  0.89988004335E+02 0.  0.
         11    1    3    3    0    0  0.41647790691E+02 -0.91037972962E+01 -0.15890385330E+02  0.45496394812E+02  0.51100000000E-03 0. -1.
         22    1    1    0    0    0 -0.10407375845E+02  0.18749332159E+02 -0.21134782980E+02  0.30108636303E+02  0.00000000000E+00 0. -1.
</event>
<event>
 5    1  0.8902899E-005  0.9118800E+02  0.7818608E-02  0.1130116E+00
         25   -1    0    0    0    0  0.00000000000E+00  0.00000000000E+00  0.99999998245E-14  0.12500000000E+03  0.12500000000E+03 0.  0.
        -11    1    3    3    0    0  0.19298509521E+02  0.24756307354E+01  0.30635740316E+02  0.36292007416E+02  0.51100000000E-03 0. -1.
         23    2    1    0    0    0  0.13977254512E+01  0.99352553359E+01 -0.26518638142E+02  0.96646850193E+02  0.92394331798E+02 0.  0.
         11    1    3    3    0    0 -0.17900784070E+02  0.74596246005E+01 -0.57154378459E+02  0.60354842778E+02  0.51100000000E-03 0.  1.
         22    1    1    0    0    0 -0.13977254512E+01 -0.99352553359E+01  0.26518638142E+02  0.28353149807E+02  0.00000000000E+00 0.  1.
</event>
<event>
 5    1  0.8902899E-005  0.9118800E+02  0.7818608E-02  0.1130116E+00
         25   -1    0    0    0    0  0.00000000000E+00  0.00000000000E+00  0.99999998245E-14  0.12500000000E+03  0.12500000000E+03 0.  0.
        -11    1    3    3    0    0 -0.47756887127E+02 -0.18842542118E+01 -0.21562711635E+02  0.52433016462E+02  0.51100000000E-03 0. -1.
         23    2    1    0    0    0 -0.61046938040E+01 -0.15753941757E+02 -0.23123808052E+02  0.96361486314E+02  0.92007453929E+02 0.  0.
         11    1    3    3    0    0  0.41652193323E+02 -0.13869687545E+02 -0.15610964170E+01  0.43928469852E+02  0.51100000000E-03 0.  1.
         22    1    1    0    0    0  0.61046938040E+01  0.15753941757E+02  0.23123808052E+02  0.28638513686E+02  0.00000000000E+00 0. -1.
</event>
<event>
 5    1  0.8902899E-005  0.9118800E+02  0.7818608E-02  0.1130116E+00
         25   -1    0    0    0    0  0.00000000000E+00  0.00000000000E+00  0.99999998245E-14  0.12500000000E+03  0.12500000000E+03 0.  0.
        -11    1    3    3    0    0  0.35772421046E+02  0.39571845492E+02  0.20004956377E+02  0.56971882039E+02  0.51100000000E-03 0. -1.
         23    2    1    0    0    0  0.37388678735E+01  0.19410176552E+02  0.22677941632E+02  0.94916397765E+02  0.90022771793E+02 0.  0.
         11    1    3    3    0    0 -0.32033553173E+02 -0.20161668940E+02  0.26729852553E+01  0.37944515727E+02  0.51100000000E-03 0.  1.
         22    1    1    0    0    0 -0.37388678735E+01 -0.19410176552E+02 -0.22677941632E+02  0.30083602235E+02  0.00000000000E+00 0. -1.
</event>
<event>
 5    1  0.8902899E-005  0.9118800E+02  0.7818608E-02  0.1130116E+00
         25   -1    0    0    0    0  0.00000000000E+00  0.00000000000E+00  0.99999998245E-14  0.12500000000E+03  0.12500000000E+03 0.  0.
        -11    1    3    3    0    0  0.55643758061E+01 -0.16007397991E+02 -0.37478073957E+02  0.41131558399E+02  0.51100000000E-03 0. -1.
         23    2    1    0    0    0  0.25782170022E+02 -0.24576180318E+01  0.12139618532E+02  0.96397019114E+02  0.92055715622E+02 0.  0.
         11    1    3    3    0    0  0.20217794216E+02  0.13549779960E+02  0.49617692489E+02  0.55265460715E+02  0.51100000000E-03 0.  1.
         22    1    1    0    0    0 -0.25782170022E+02  0.24576180318E+01 -0.12139618532E+02  0.28602980886E+02  0.00000000000E+00 0.  1.
</event>
<event>
 5    1  0.8902899E-005  0.9118800E+02  0.7818608E-02  0.1130116E+00
         25   -1    0    0    0    0  0.00000000000E+00  0.00000000000E+00  0.99999998245E-14  0.12500000000E+03  0.12500000000E+03 0.  0.
        -11    1    3    3    0    0 -0.37231586190E+02  0.38689434634E+02  0.24500716629E+02  0.59019899001E+02  0.51100000000E-03 0.  1.
         23    2    1    0    0    0 -0.29015695390E+02  0.10659752243E+02  0.62477410566E+01  0.93463114213E+02  0.87981694421E+02 0.  0.
         11    1    3    3    0    0  0.82158907998E+01 -0.28029682392E+02 -0.18252975572E+02  0.34443215212E+02  0.51100000000E-03 0. -1.
         22    1    1    0    0    0  0.29015695390E+02 -0.10659752243E+02 -0.62477410566E+01  0.31536885787E+02  0.00000000000E+00 0.  1.
</event>
<event>
 5    1  0.8902899E-005  0.9118800E+02  0.7818608E-02  0.1130116E+00
         25   -1    0    0    0    0  0.00000000000E+00  0.00000000000E+00  0.99999998245E-14  0.12500000000E+03  0.12500000000E+03 0.  0.
        -11    1    3    3    0    0  0.31131690654E+02  0.32246962737E+02  0.40162022668E+02  0.60183360107E+02  0.51100000000E-03 0. -1.
         23    2    1    0    0    0  0.11085830563E+02  0.43679894849E+01  0.24149375005E+02  0.98071069748E+02  0.94301471022E+02 0.  0.
         11    1    3    3    0    0 -0.20045860092E+02 -0.27878973252E+02 -0.16012647663E+02  0.37887709641E+02  0.51100000000E-03 0.  1.
         22    1    1    0    0    0 -0.11085830563E+02 -0.43679894849E+01 -0.24149375005E+02  0.26928930252E+02  0.00000000000E+00 0. -1.
</event>
<event>
 5    1  0.8902899E-005  0.9118800E+02  0.7818608E-02  0.1130116E+00
         25   -1    0    0    0    0  0.00000000000E+00  0.00000000000E+00  0.99999998245E-14  0.12500000000E+03  0.12500000000E+03 0.  0.
        -11    1    3    3    0    0  0.44475370316E+01  0.35661023753E+02  0.48440575633E+02  0.60315657741E+02  0.51100000000E-03 0.  1.
         23    2    1    0    0    0  0.11467561791E+02  0.18881929847E+02  0.15272855715E+02  0.98143113176E+02  0.94396918880E+02 0.  0.
         11    1    3    3    0    0  0.70200247596E+01 -0.16779093906E+02 -0.33167719918E+02  0.37827455436E+02  0.51100000000E-03 0. -1.
         22    1    1    0    0    0 -0.11467561791E+02 -0.18881929847E+02 -0.15272855715E+02  0.26856886824E+02  0.00000000000E+00 0.  1.
</event>
<event>
 5    1  0.8902899E-005  0.9118800E+02  0.7818608E-02  0.1130116E+00
         25   -1    0    0    0    0  0.00000000000E+00  0.00000000000E+00  0.99999998245E-14  0.12500000000E+03  0.12500000000E+03 0.  0.
        -11    1    3    3    0    0  0.54886611227E+01  0.37965432896E+02  0.39065615291E+02  0.54750541497E+02  0.51100000000E-03 0.  1.
         23    2    1    0    0    0  0.19984522413E+02  0.22379333700E+02  0.54994064918E+01  0.94496570935E+02  0.89437926708E+02 0.  0.
         11    1    3    3    0    0  0.14495861290E+02 -0.15586099196E+02 -0.33566208799E+02  0.39746029438E+02  0.51100000000E-03 0. -1.
         22    1    1    0    0    0 -0.19984522413E+02 -0.22379333700E+02 -0.54994064918E+01  0.30503429065E+02  0.00000000000E+00 0.  1.
</event>
<event>
 5    1  0.8902899E-005  0.9118800E+02  0.7818608E-02  0.1130116E+00
         25   -1    0    0    0    0  0.00000000000E+00  0.00000000000E+00  0.99999998245E-14  0.12500000000E+03  0.12500000000E+03 0.  0.
        -11    1    3    3    0    0 -0.29700062228E+02 -0.11298873718E+02  0.25431833525E+02  0.40700570025E+02  0.51100000000E-03 0. -1.
         23    2    1    0    0    0  0.11757452805E+02 -0.24899342405E+02 -0.87286989784E+01  0.96113928365E+02  0.91670508296E+02 0.  0.
         11    1    3    3    0    0  0.41457515033E+02 -0.13600468687E+02 -0.34160532504E+02  0.55413358339E+02  0.51100000000E-03 0.  1.
         22    1    1    0    0    0 -0.11757452805E+02  0.24899342405E+02  0.87286989784E+01  0.28886071635E+02  0.00000000000E+00 0.  1.
</event>
<event>
 5    1  0.8902899E-005  0.9118800E+02  0.7818608E-02  0.1130116E+00
         25   -1    0    0    0    0  0.00000000000E+00  0.00000000000E+00  0.99999998245E-14  0.12500000000E+03  0.12500000000E+03 0.  0.
        -11    1    3    3    0    0  0.20328473720E+02 -0.48217605503E+01 -0.32520908858E+02  0.38653663886E+02  0.51100000000E-03 0.  1.
         23    2    1    0    0    0  0.16737066221E+02  0.72265478116E+01  0.23040350887E+02  0.95619561815E+02  0.90993903387E+02 0.  0.
         11    1    3    3    0    0 -0.35914074984E+01  0.12048308362E+02  0.55561259745E+02  0.56965897929E+02  0.51100000000E-03 0. -1.
         22    1    1    0    0    0 -0.16737066221E+02 -0.72265478116E+01 -0.23040350887E+02  0.29380438185E+02  0.00000000000E+00 0. -1.
</event>
<event>
 5    1  0.8902899E-005  0.9118800E+02  0.7818608E-02  0.1130116E+00
         25   -1    0    0    0    0  0.00000000000E+00  0.00000000000E+00  0.99999998245E-14  0.12500000000E+03  0.12500000000E+03 0.  0.
        -11    1    3    3    0    0  0.70772204615E+01  0.24431944623E+02  0.12867243328E+02  0.28505664676E+02  0.51100000000E-03 0. -1.
         23    2    1    0    0    0 -0.63075478985E+00 -0.35315863264E+02  0.65162263975E+01  0.89082465896E+02  0.81520650598E+02 0.  0.
         11    1    3    3    0    0 -0.77079752513E+01 -0.59747807886E+02 -0.63510169300E+01  0.60576801220E+02  0.51100000000E-03 0.  1.
         22    1    1    0    0    0  0.63075478985E+00  0.35315863264E+02 -0.65162263975E+01  0.35917534104E+02  0.00000000000E+00 0.  1.
</event>
<event>
 5    1  0.8902899E-005  0.9118800E+02  0.7818608E-02  0.1130116E+00
         25   -1    0    0    0    0  0.00000000000E+00  0.00000000000E+00  0.99999998245E-14  0.12500000000E+03  0.12500000000E+03 0.  0.
        -11    1    3    3    0    0 -0.32570828149E+02 -0.22737410599E+02  0.44809429057E+02  0.59880995481E+02  0.51100000000E-03 0.  1.
         23    2    1    0    0    0 -0.11346825357E+02 -0.11976836803E+02  0.26531188428E+01  0.10828970063E+03  0.10699264067E+03 0.  0.
         11    1    3    3    0    0  0.21224002791E+02  0.10760573796E+02 -0.42156310214E+02  0.48408705148E+02  0.51100000000E-03 0. -1.
         22    1    1    0    0    0  0.11346825357E+02  0.11976836803E+02 -0.26531188428E+01  0.16710299372E+02  0.00000000000E+00 0.  1.
</event>
<event>
 5    1  0.8902899E-005  0.9118800E+02  0.7818608E-02  0.1130116E+00
         25   -1    0    0    0    0  0.00000000000E+00  0.00000000000E+00  0.99999998245E-14  0.12500000000E+03  0.12500000000E+03 0.  0.
        -11    1    3    3    0    0 -0.51870567569E+02 -0.11808999749E+02  0.20782701595E+02  0.57113299160E+02  0.51100000000E-03 0.  1.
         23    2    1    0    0    0 -0.16815220403E+02 -0.19392404927E+02  0.19076094728E+02  0.93020093870E+02  0.87350005538E+02 0.  0.
         11    1    3    3    0    0  0.35055347167E+02 -0.75834051776E+01 -0.17066068671E+01  0.35906794710E+02  0.51100000000E-03 0. -1.
         22    1    1    0    0    0  0.16815220403E+02  0.19392404927E+02 -0.19076094728E+02  0.31979906130E+02  0.00000000000E+00 0.  1.
</event>
<event>
 5    1  0.8902899E-005  0.9118800E+02  0.7818608E-02  0.1130116E+00
         25   -1    0    0    0    0  0.00000000000E+00  0.00000000000E+00  0.99999998245E-14  0.12500000000E+03  0.12500000000E+03 0.  0.
        -11    1    3    3    0    0 -0.25618190312E+02 -0.21318212204E+02 -0.25291329549E+02  0.41837891881E+02  0.51100000000E-03 0. -1.
         23    2    1    0    0    0 -0.83458489288E+01  0.26645192381E+02 -0.53933583774E+01  0.96562212007E+02  0.92279754018E+02 0.  0.
         11    1    3    3    0    0  0.17272341383E+02  0.47963404585E+02  0.19897971171E+02  0.54724320126E+02  0.51100000000E-03 0.  1.
         22    1    1    0    0    0  0.83458489288E+01 -0.26645192381E+02  0.53933583774E+01  0.28437787993E+02  0.00000000000E+00 0. -1.
</event>
<event>
 5    1  0.8902899E-005  0.9118800E+02  0.7818608E-02  0.1130116E+00
         25   -1    0    0    0    0  0.00000000000E+00  0.00000000000E+00  0.99999998245E-14  0.12500000000E+03  0.12500000000E+03 0.  0.
        -11    1    3    3    0    0 -0.34008548958E+02  0.84946587346E+01 -0.47801217052E+01  0.35377820637E+02  0.51100000000E-03 0.  1.
         23    2    1    0    0    0  0.23213520336E+02 -0.40762109041E+01 -0.17886645737E+02  0.95412585151E+02  0.90709130123E+02 0.  0.
         11    1    3    3    0    0  0.57222069294E+02 -0.12570869639E+02 -0.13106524032E+02  0.60034764514E+02  0.51100000000E-03 0. -1.
         22    1    1    0    0    0 -0.23213520336E+02  0.40762109041E+01  0.17886645737E+02  0.29587414849E+02  0.00000000000E+00 0. -1.
</event>
<event>
 5    1  0.8902899E-005  0.9118800E+02  0.7818608E-02  0.1130116E+00
         25   -1    0    0    0    0  0.00000000000E+00  0.00000000000E+00  0.99999998245E-14  0.12500000000E+03  0.12500000000E+03 0.  0.
        -11    1    3    3    0    0  0.45646735321E+02 -0.19903296459E+02 -0.18081138237E+02  0.52978233413E+02  0.51100000000E-03 0.  1.
         23    2    1    0    0    0  0.16407976440E+02  0.11862760920E+02 -0.20456955151E+02  0.96217474024E+02  0.91811592438E+02 0.  0.
         11    1    3    3    0    0 -0.29238758880E+02  0.31766057380E+02 -0.23758169139E+01  0.43239240611E+02  0.51100000000E-03 0. -1.
         22    1    1    0    0    0 -0.16407976440E+02 -0.11862760920E+02  0.20456955151E+02  0.28782525976E+02  0.00000000000E+00 0.  1.
</event>
<event>
 5    1  0.8902899E-005  0.9118800E+02  0.7818608E-02  0.1130116E+00
         25   -1    0    0    0    0  0.00000000000E+00  0.00000000000E+00  0.99999998245E-14  0.12500000000E+03  0.12500000000E+03 0.  0.
        -11    1    3    3    0    0  0.16519124501E+02 -0.14887489165E+02 -0.40576443179E+02  0.46270579737E+02  0.51100000000E-03 0.  1.
         23    2    1    0    0    0  0.17196417495E+02 -0.23863225319E+02  0.70606683229E+01  0.94750647371E+02  0.89792326191E+02 0.  0.
         11    1    3    3    0    0  0.67729299364E+00 -0.89757361543E+01  0.47637111502E+02  0.48480067634E+02  0.51100000000E-03 0. -1.
         22    1    1    0    0    0 -0.17196417495E+02  0.23863225319E+02 -0.70606683229E+01  0.30249352629E+02  0.00000000000E+00 0. -1.
</event>
<event>
 5    1  0.8902899E-005  0.9118800E+02  0.7818608E-02  0.1130116E+00
         25   -1    0    0    0    0  0.00000000000E+00  0.00000000000E+00  0.99999998245E-14  0.12500000000E+03  0.12500000000E+03 0.  0.
        -11    1    3    3    0    0  0.34389503795E+02 -0.23999226952E+02  0.62436548165E+01  0.42397925554E+02  0.51100000000E-03 0.  1.
         23    2    1    0    0    0  0.89290521437E+01  0.17169775126E+02  0.24188035907E+02  0.94022746554E+02  0.88773231542E+02 0.  0.
         11    1    3    3    0    0 -0.25460451651E+02  0.41169002077E+02  0.17944381090E+02  0.51624821000E+02  0.51100000000E-03 0. -1.
         22    1    1    0    0    0 -0.89290521437E+01 -0.17169775126E+02 -0.24188035907E+02  0.30977253446E+02  0.00000000000E+00 0. -1.
</event>
<event>
 5    1  0.8902899E-005  0.9118800E+02  0.7818608E-02  0.1130116E+00
         25   -1    0    0    0    0  0.00000000000E+00  0.00000000000E+00  0.99999998245E-14  0.12500000000E+03  0.12500000000E+03 0.  0.
        -11    1    3    3    0    0 -0.32286619747E+01  0.40274001065E+02  0.14914168260E+02  0.43067990841E+02  0.51100000000E-03 0. -1.
         23    2    1    0    0    0  0.12680269616E+02 -0.80051440639E+01 -0.16404641047E+02  0.10277425329E+03  0.10034223100E+03 0.  0.
         11    1    3    3    0    0  0.15908931591E+02 -0.48279145129E+02 -0.31318809307E+02  0.59706262447E+02  0.51100000000E-03 0.  1.
         22    1    1    0    0    0 -0.12680269616E+02  0.80051440639E+01  0.16404641047E+02  0.22225746712E+02  0.00000000000E+00 0.  1.
</event>
<event>
 5    1  0.8902899E-005  0.9118800E+02  0.7818608E-02  0.1130116E+00
         25   -1    0    0    0    0  0.00000000000E+00  0.00000000000E+00  0.99999998245E-14  0.12500000000E+03  0.12500000000E+03 0.  0.
        -11    1    3    3    0    0 -0.42711312933E+02  0.28920737851E+01 -0.29179774549E+02  0.51808103481E+02  0.51100000000E-03 0. -1.
         23    2    1    0    0    0 -0.23973928571E+02  0.75146414199E+01  0.11903606650E+02  0.97198652225E+02  0.93137871225E+02 0.  0.
         11    1    3    3    0    0  0.18737384362E+02  0.46225676348E+01  0.41083381200E+02  0.45390548744E+02  0.51100000000E-03 0.  1.
         22    1    1    0    0    0  0.23973928571E+02 -0.75146414199E+01 -0.11903606650E+02  0.27801347775E+02  0.00000000000E+00 0. -1.
</event>
<event>
 5    1  0.8902899E-005  0.9118800E+02  0.7818608E-02  0.1130116E+00
         25   -1    0    0    0    0  0.00000000000E+00  0.00000000000E+00  0.99999998245E-14  0.12500000000E+03  0.12500000000E+03 0.  0.
        -11    1    3    3    0    0  0.24615372607E+02  0.26966862533E+02  0.25433597804E+02  0.44497147560E+02  0.51100000000E-03 0.  1.
         23    2    1    0    0    0  0.74992058085E+01 -0.21067421268E+02  0.18535949001E+02  0.95954247608E+02  0.91452511732E+02 0.  0.
         11    1    3    3    0    0 -0.17116166798E+02 -0.48034283801E+02 -0.68976488033E+01  0.51457100048E+02  0.51100000000E-03 0. -1.
         22    1    1    0    0    0 -0.74992058085E+01  0.21067421268E+02 -0.18535949001E+02  0.29045752392E+02  0.00000000000E+00 0. -1.
</event>
<event>
 5    1  0.8902899E-005  0.9118800E+02  0.7818608E-02  0.1130116E+00
         25   -1    0    0    0    0  0.00000000000E+00  0.00000000000E+00  0.99999998245E-14  0.12500000000E+03  0.12500000000E+03 0.  0.
        -11    1    3    3    0    0  0.10403997725E+02  0.17557647491E+02 -0.27385692513E+02  0.34153920840E+02  0.51100000000E-03 0. -1.
         23    2    1    0    0    0 -0.12451943014E+02 -0.51829578598E+01  0.25534488364E+02  0.96122257135E+02  0.91681864530E+02 0.  0.
         11    1    3    3    0    0 -0.22855940739E+02 -0.22740605350E+02  0.52920180877E+02  0.61968336294E+02  0.51100000000E-03 0.  1.
         22    1    1    0    0    0  0.12451943014E+02  0.51829578598E+01 -0.25534488364E+02  0.28877742865E+02  0.00000000000E+00 0.  1.
</event>
<event>
 5    1  0.8902899E-005  0.9118800E+02  0.7818608E-02  0.1130116E+00
         25   -1    0    0    0    0  0.00000000000E+00  0.00000000000E+00  0.99999998245E-14  0.12500000000E+03  0.12500000000E+03 0.  0.
        -11    1    3    3    0    0  0.33578699847E+01 -0.51526672467E+02  0.29228074547E+02  0.59334253247E+02  0.51100000000E-03 0. -1.
         23    2    1    0    0    0 -0.11142445805E+02 -0.20972838804E+02  0.18753814515E+02  0.94739140381E+02  0.89776305868E+02 0.  0.
         11    1    3    3    0    0 -0.14500315790E+02  0.30553833663E+02 -0.10474260033E+02  0.35404887135E+02  0.51100000000E-03 0.  1.
         22    1    1    0    0    0  0.11142445805E+02  0.20972838804E+02 -0.18753814515E+02  0.30260859619E+02  0.00000000000E+00 0. -1.
</event>
<event>
 5    1  0.8902899E-005  0.9118800E+02  0.7818608E-02  0.1130116E+00
         25   -1    0    0    0    0  0.00000000000E+00  0.00000000000E+00  0.99999998245E-14  0.12500000000E+03  0.12500000000E+03 0.  0.
        -11    1    3    3    0    0 -0.51602734030E+02  0.14077250632E+02 -0.38879445245E+01  0.53629537175E+02  0.51100000000E-03 0.  1.
         23    2    1    0    0    0 -0.14841290539E+02  0.57850783130E+00 -0.23323683491E+02  0.97348729003E+02  0.93339071405E+02 0.  0.
         11    1    3    3    0    0  0.36761443491E+02 -0.13498742801E+02 -0.19435738966E+02  0.43719191829E+02  0.51100000000E-03 0. -1.
         22    1    1    0    0    0  0.14841290539E+02 -0.57850783130E+00  0.23323683491E+02  0.27651270997E+02  0.00000000000E+00 0.  1.
</event>
<event>
 5    1  0.8902899E-005  0.9118800E+02  0.7818608E-02  0.1130116E+00
         25   -1    0    0    0    0  0.00000000000E+00  0.00000000000E+00  0.99999998245E-14  0.12500000000E+03  0.12500000000E+03 0.  0.
        -11    1    3    3    0    0  0.70968637913E+01 -0.41715191427E+01 -0.32177366295E+02  0.33213701233E+02  0.51100000000E-03 0. -1.
         23    2    1    0    0    0  0.22644499680E+01 -0.18934652869E+01  0.29615840416E+02  0.95237423700E+02  0.90467430189E+02 0.  0.
         11    1    3    3    0    0 -0.48324138233E+01  0.22780538558E+01  0.61793206711E+02  0.62023722467E+02  0.51100000000E-03 0.  1.
         22    1    1    0    0    0 -0.22644499680E+01  0.18934652869E+01 -0.29615840416E+02  0.29762576300E+02  0.00000000000E+00 0.  1.
</event>
<event>
 5    1  0.8902899E-005  0.9118800E+02  0.7818608E-02  0.1130116E+00
         25   -1    0    0    0    0  0.00000000000E+00  0.00000000000E+00  0.99999998245E-14  0.12500000000E+03  0.12500000000E+03 0.  0.
        -11    1    3    3    0    0 -0.11235035866E+02  0.37370705687E+02  0.84416042321E+01  0.39925635333E+02  0.51100000000E-03 0. -1.
         23    2    1    0    0    0 -0.92358171038E+01 -0.15067264098E+02 -0.18922837880E+02  0.99107982728E+02  0.95666063377E+02 0.  0.
         11    1    3    3    0    0  0.19992187624E+01 -0.52437969785E+02 -0.27364442112E+02  0.59182347395E+02  0.51100000000E-03 0.  1.
         22    1    1    0    0    0  0.92358171038E+01  0.15067264098E+02  0.18922837880E+02  0.25892017272E+02  0.00000000000E+00 0.  1.
</event>
<event>
 5    1  0.8902899E-005  0.9118800E+02  0.7818608E-02  0.1130116E+00
         25   -1    0    0    0    0  0.00000000000E+00  0.00000000000E+00  0.99999998245E-14  0.12500000000E+03  0.12500000000E+03 0.  0.
        -11    1    3    3    0    0 -0.34315812568E+02  0.23593411767E+02  0.44008247144E+00  0.41646341302E+02  0.51100000000E-03 0.  1.
         23    2    1    0    0    0  0.17177958965E+02  0.13363285333E+02  0.17738666486E+02  0.96922963871E+02  0.92767133015E+02 0.  0.
         11    1    3    3    0    0  0.51493771533E+02 -0.10230126434E+02  0.17298584014E+02  0.55276622569E+02  0.51100000000E-03 0. -1.
         22    1    1    0    0    0 -0.17177958965E+02 -0.13363285333E+02 -0.17738666486E+02  0.28077036129E+02  0.00000000000E+00 0. -1.
</event>
<event>
 5    1  0.8902899E-005  0.9118800E+02  0.7818608E-02  0.1130116E+00
         25   -1    0    0    0    0  0.00000000000E+00  0.00000000000E+00  0.99999998245E-14  0.12500000000E+03  0.12500000000E+03 0.  0.
        -11    1    3    3    0    0 -0.33165466956E+02 -0.34364996326E+02 -0.39357316167E+02  0.61886181875E+02  0.51100000000E-03 0.  1.
         23    2    1    0    0    0 -0.12607696113E+02 -0.13684326848E+02 -0.23323638432E+02  0.95163664564E+02  0.90365458782E+02 0.  0.
         11    1    3    3    0    0  0.20557770843E+02  0.20680669479E+02  0.16033677735E+02  0.33277482689E+02  0.51100000000E-03 0. -1.
         22    1    1    0    0    0  0.12607696113E+02  0.13684326848E+02  0.23323638432E+02  0.29836335436E+02  0.00000000000E+00 0.  1.
</event>
<event>
 5    1  0.8902899E-005  0.9118800E+02  0.7818608E-02  0.1130116E+00
         25   -1    0    0    0    0  0.00000000000E+00  0.00000000000E+00  0.99999998245E-14  0.12500000000E+03  0.12500000000E+03 0.  0.
        -11    1    3    3    0    0  0.95462232607E+01 -0.67747646977E+01 -0.31167299442E+02  0.33293067897E+02  0.51100000000E-03 0.  1.
         23    2    1    0    0    0 -0.17841200310E+02  0.41344460524E+01  0.23382430923E+02  0.95299155761E+02  0.90552685991E+02 0.  0.
         11    1    3    3    0    0 -0.27387423571E+02  0.10909210750E+02  0.54549730364E+02  0.62006087864E+02  0.51100000000E-03 0. -1.
         22    1    1    0    0    0  0.17841200310E+02 -0.41344460524E+01 -0.23382430923E+02  0.29700844239E+02  0.00000000000E+00 0. -1.
</event>
<event>
 5    1  0.8902899E-005  0.9118800E+02  0.7818608E-02  0.1130116E+00
         25   -1    0    0    0    0  0.00000000000E+00  0.00000000000E+00  0.99999998245E-14  0.12500000000E+03  0.12500000000E+03 0.  0.
        -11    1    3    3    0    0 -0.23476174876E+02  0.28229006357E+02  0.40225810000E+02  0.54462127916E+02  0.51100000000E-03 0.  1.
         23    2    1    0    0    0 -0.26065819468E+02 -0.13153699261E+01  0.93439740760E+01  0.97278762760E+02  0.93245325299E+02 0.  0.
         11    1    3    3    0    0 -0.25896445917E+01 -0.29544376283E+02 -0.30881835924E+02  0.42816634844E+02  0.51100000000E-03 0. -1.
         22    1    1    0    0    0  0.26065819468E+02  0.13153699261E+01 -0.93439740760E+01  0.27721237240E+02  0.00000000000E+00 0.  1.
</event>
<event>
 5    1  0.8902899E-005  0.9118800E+02  0.7818608E-02  0.1130116E+00
         25   -1    0    0    0    0  0.00000000000E+00  0.00000000000E+00  0.99999998245E-14  0.12500000000E+03  0.12500000000E+03 0.  0.
        -11    1    3    3    0    0 -0.29759667904E+02  0.95972957780E+01 -0.35451258372E+02  0.47270896336E+02  0.51100000000E-03 0.  1.
         23    2    1    0    0    0 -0.25355772074E+02 -0.11180398963E+02  0.84407507008E+01  0.96031693684E+02  0.91558306128E+02 0.  0.
         11    1    3    3    0    0  0.44038958303E+01 -0.20777694741E+02  0.43892009073E+02  0.48760797348E+02  0.51100000000E-03 0. -1.
         22    1    1    0    0    0  0.25355772074E+02  0.11180398963E+02 -0.84407507008E+01  0.28968306316E+02  0.00000000000E+00 0. -1.
</event>
<event>
 5    1  0.8902899E-005  0.9118800E+02  0.7818608E-02  0.1130116E+00
         25   -1    0    0    0    0  0.00000000000E+00  0.00000000000E+00  0.99999998245E-14  0.12500000000E+03  0.12500000000E+03 0.  0.
        -11    1    3    3    0    0  0.29307153265E+02  0.21265430791E+02  0.23195317294E+01  0.36283715451E+02  0.51100000000E-03 0.  1.
         23    2    1    0    0    0 -0.45684954545E+01 -0.26443435269E+02  0.12021901844E+02  0.95595025191E+02  0.90960190731E+02 0.  0.
         11    1    3    3    0    0 -0.33875648720E+02 -0.47708866060E+02  0.97023701148E+01  0.59311309740E+02  0.51100000000E-03 0. -1.
         22    1    1    0    0    0  0.45684954545E+01  0.26443435269E+02 -0.12021901844E+02  0.29404974809E+02  0.00000000000E+00 0. -1.
</event>
<event>
 5    1  0.8902899E-005  0.9118800E+02  0.7818608E-02  0.1130116E+00
         25   -1    0    0    0    0  0.00000000000E+00  0.00000000000E+00  0.99999998245E-14  0.12500000000E+03  0.12500000000E+03 0.  0.
        -11    1    3    3    0    0  0.64794947321E+01 -0.19631477521E+02  0.32374107222E+02  0.38411737533E+02  0.51100000000E-03 0.  1.
         23    2    1    0    0    0  0.22312606965E+02 -0.24129071684E+01 -0.19470123920E+02  0.95288718034E+02  0.90538276484E+02 0.  0.
         11    1    3    3    0    0  0.15833112233E+02  0.17218570353E+02 -0.51844231142E+02  0.56876980501E+02  0.51100000000E-03 0. -1.
         22    1    1    0    0    0 -0.22312606965E+02  0.24129071684E+01  0.19470123920E+02  0.29711281966E+02  0.00000000000E+00 0. -1.
</event>
<event>
 5    1  0.8902899E-005  0.9118800E+02  0.7818608E-02  0.1130116E+00
         25   -1    0    0    0    0  0.00000000000E+00  0.00000000000E+00  0.99999998245E-14  0.12500000000E+03  0.12500000000E+03 0.  0.
        -11    1    3    3    0    0 -0.13097320931E+02  0.38060882317E+02 -0.17876078421E+02  0.44042306460E+02  0.51100000000E-03 0. -1.
         23    2    1    0    0    0  0.27518612422E+02  0.11632800509E+02 -0.19075020900E+01  0.95062821750E+02  0.90225857921E+02 0.  0.
         11    1    3    3    0    0  0.40615933353E+02 -0.26428081807E+02  0.15968576332E+02  0.51020515290E+02  0.51100000000E-03 0.  1.
         22    1    1    0    0    0 -0.27518612422E+02 -0.11632800509E+02  0.19075020900E+01  0.29937178250E+02  0.00000000000E+00 0.  1.
</event>
<event>
 5    1  0.8902899E-005  0.9118800E+02  0.7818608E-02  0.1130116E+00
         25   -1    0    0    0    0  0.00000000000E+00  0.00000000000E+00  0.99999998245E-14  0.12500000000E+03  0.12500000000E+03 0.  0.
        -11    1    3    3    0    0  0.53243574682E+02  0.77499645363E+01 -0.78427790781E+01  0.54373241390E+02  0.51100000000E-03 0.  1.
         23    2    1    0    0    0  0.14183928016E+02  0.96476427246E+01 -0.22994685874E+02  0.96311737548E+02  0.91939841129E+02 0.  0.
         11    1    3    3    0    0 -0.39059646666E+02  0.18976781883E+01 -0.15151906795E+02  0.41938496158E+02  0.51100000000E-03 0. -1.
         22    1    1    0    0    0 -0.14183928016E+02 -0.96476427246E+01  0.22994685874E+02  0.28688262452E+02  0.00000000000E+00 0.  1.
</event>
<event>
 5    1  0.8902899E-005  0.9118800E+02  0.7818608E-02  0.1130116E+00
         25   -1    0    0    0    0  0.00000000000E+00  0.00000000000E+00  0.99999998245E-14  0.12500000000E+03  0.12500000000E+03 0.  0.
        -11    1    3    3    0    0 -0.37297004482E+02 -0.45753587112E+02 -0.74024449727E+01  0.59491625199E+02  0.51100000000E-03 0.  1.
         23    2    1    0    0    0 -0.25425990168E+02 -0.11226398209E+02 -0.82335071801E+01  0.96012008810E+02  0.91531427403E+02 0.  0.
         11    1    3    3    0    0  0.11871014314E+02  0.34527188903E+02 -0.83106220739E+00  0.36520383610E+02  0.51100000000E-03 0. -1.
         22    1    1    0    0    0  0.25425990168E+02  0.11226398209E+02  0.82335071801E+01  0.28987991190E+02  0.00000000000E+00 0.  1.
</event>
<event>
 5    1  0.8902899E-005  0.9118800E+02  0.7818608E-02  0.1130116E+00
         25   -1    0    0    0    0  0.00000000000E+00  0.00000000000E+00  0.99999998245E-14  0.12500000000E+03  0.12500000000E+03 0.  0.
        -11    1    3    3    0    0  0.30898709411E+02  0.53160444180E+01 -0.53424789023E+02  0.61945126151E+02  0.51100000000E-03 0. -1.
         23    2    1    0    0    0  0.13758883817E+02  0.83128733178E+01 -0.24655128911E+02  0.95567260944E+02  0.90922028333E+02 0.  0.
         11    1    3    3    0    0 -0.17139825594E+02  0.29968288998E+01  0.28769660111E+02  0.33622134793E+02  0.51100000000E-03 0.  1.
         22    1    1    0    0    0 -0.13758883817E+02 -0.83128733178E+01  0.24655128911E+02  0.29432739056E+02  0.00000000000E+00 0. -1.
</event>
<event>
 5    1  0.8902899E-005  0.9118800E+02  0.7818608E-02  0.1130116E+00
         25   -1    0    0    0    0  0.00000000000E+00  0.00000000000E+00  0.99999998245E-14  0.12500000000E+03  0.12500000000E+03 0.  0.
        -11    1    3    3    0    0  0.65915699636E+01 -0.30133624292E+02  0.35302816029E+02  0.46880410914E+02  0.51100000000E-03 0.  1.
         23    2    1    0    0    0  0.20927018941E+02 -0.17053816027E+02 -0.10037076151E+02  0.96198686480E+02  0.91786009936E+02 0.  0.
         11    1    3    3    0    0  0.14335448977E+02  0.13079808265E+02 -0.45339892180E+02  0.49318275566E+02  0.51100000000E-03 0. -1.
         22    1    1    0    0    0 -0.20927018941E+02  0.17053816027E+02  0.10037076151E+02  0.28801313520E+02  0.00000000000E+00 0. -1.
</event>
<event>
 5    1  0.8902899E-005  0.9118800E+02  0.7818608E-02  0.1130116E+00
         25   -1    0    0    0    0  0.00000000000E+00  0.00000000000E+00  0.99999998245E-14  0.12500000000E+03  0.12500000000E+03 0.  0.
        -11    1    3    3    0    0 -0.59240737111E+01 -0.24810000105E+02  0.27015956055E+02  0.37154981313E+02  0.51100000000E-03 0.  1.
         23    2    1    0    0    0 -0.23188874889E+02  0.11205981687E+02 -0.15057209884E+02  0.95166838692E+02  0.90369849358E+02 0.  0.
         11    1    3    3    0    0 -0.17264801177E+02  0.36015981792E+02 -0.42073165939E+02  0.58011857379E+02  0.51100000000E-03 0. -1.
         22    1    1    0    0    0  0.23188874889E+02 -0.11205981687E+02  0.15057209884E+02  0.29833161308E+02  0.00000000000E+00 0. -1.
</event>
<event>
 5    1  0.8902899E-005  0.9118800E+02  0.7818608E-02  0.1130116E+00
         25   -1    0    0    0    0  0.00000000000E+00  0.00000000000E+00  0.99999998245E-14  0.12500000000E+03  0.12500000000E+03 0.  0.
        -11    1    3    3    0    0 -0.24037341024E+02 -0.10279040351E+01  0.33096468419E+02  0.40917313845E+02  0.51100000000E-03 0. -1.
         23    2    1    0    0    0  0.38194762815E+01 -0.27301061960E+02 -0.72025062479E+01  0.96507676833E+02  0.92205852354E+02 0.  0.
         11    1    3    3    0    0  0.27856817306E+02 -0.26273157925E+02 -0.40298974666E+02  0.55590362988E+02  0.51100000000E-03 0.  1.
         22    1    1    0    0    0 -0.38194762815E+01  0.27301061960E+02  0.72025062479E+01  0.28492323167E+02  0.00000000000E+00 0.  1.
</event>
<event>
 5    1  0.8902899E-005  0.9118800E+02  0.7818608E-02  0.1130116E+00
         25   -1    0    0    0    0  0.00000000000E+00  0.00000000000E+00  0.99999998245E-14  0.12500000000E+03  0.12500000000E+03 0.  0.
        -11    1    3    3    0    0  0.22251019399E+02 -0.13593978098E+02  0.49530908922E+02  0.55975128796E+02  0.51100000000E-03 0.  1.
         23    2    1    0    0    0  0.19331706488E+02  0.36461330805E+01  0.37612317148E+01  0.10497112020E+03  0.10304261278E+03 0.  0.
         11    1    3    3    0    0 -0.29193129107E+01  0.17240111179E+02 -0.45769677208E+02  0.48995991400E+02  0.51100000000E-03 0. -1.
         22    1    1    0    0    0 -0.19331706488E+02 -0.36461330805E+01 -0.37612317148E+01  0.20028879804E+02  0.00000000000E+00 0.  1.
</event>
<event>
 5    1  0.8902899E-005  0.9118800E+02  0.7818608E-02  0.1130116E+00
         25   -1    0    0    0    0  0.00000000000E+00  0.00000000000E+00  0.99999998245E-14  0.12500000000E+03  0.12500000000E+03 0.  0.
        -11    1    3    3    0    0 -0.39074131920E+02  0.19683518273E+02 -0.42949855666E+01  0.43962206248E+02  0.51100000000E-03 0. -1.
         23    2    1    0    0    0 -0.13235615470E+01 -0.17806897536E+02 -0.18763467362E+02  0.99098163724E+02  0.95653232726E+02 0.  0.
         11    1    3    3    0    0  0.37750570373E+02 -0.37490415809E+02 -0.14468481796E+02  0.55135957476E+02  0.51100000000E-03 0.  1.
         22    1    1    0    0    0  0.13235615470E+01  0.17806897536E+02  0.18763467362E+02  0.25901836276E+02  0.00000000000E+00 0.  1.
</event>
<event>
 5    1  0.8902899E-005  0.9118800E+02  0.7818608E-02  0.1130116E+00
         25   -1    0    0    0    0  0.00000000000E+00  0.00000000000E+00  0.99999998245E-14  0.12500000000E+03  0.12500000000E+03 0.  0.
        -11    1    3    3    0    0  0.46086342988E+01 -0.32895117972E+02  0.57751692241E+00  0.33221406090E+02  0.51100000000E-03 0. -1.
         23    2    1    0    0    0 -0.11328894990E+02  0.26148196722E+02 -0.89832511607E+01  0.95120728675E+02  0.90306047243E+02 0.  0.
         11    1    3    3    0    0 -0.15937529289E+02  0.59043314694E+02 -0.95607680831E+01  0.61899322585E+02  0.51100000000E-03 0.  1.
         22    1    1    0    0    0  0.11328894990E+02 -0.26148196722E+02  0.89832511607E+01  0.29879271325E+02  0.00000000000E+00 0.  1.
</event>
<event>
 5    1  0.8902899E-005  0.9118800E+02  0.7818608E-02  0.1130116E+00
         25   -1    0    0    0    0  0.00000000000E+00  0.00000000000E+00  0.99999998245E-14  0.12500000000E+03  0.12500000000E+03 0.  0.
        -11    1    3    3    0    0 -0.46143828267E+01  0.18711990902E+02  0.28887721688E+02  0.34726525841E+02  0.51100000000E-03 0.  1.
         23    2    1    0    0    0  0.16589965892E+02 -0.86621426479E+01 -0.21898517015E+02  0.96193668560E+02  0.91779175961E+02 0.  0.
         11    1    3    3    0    0  0.21204348719E+02 -0.27374133550E+02 -0.50786238703E+02  0.61467142719E+02  0.51100000000E-03 0. -1.
         22    1    1    0    0    0 -0.16589965892E+02  0.86621426479E+01  0.21898517015E+02  0.28806331440E+02  0.00000000000E+00 0. -1.
</event>
<event>
 5    1  0.8902899E-005  0.9118800E+02  0.7818608E-02  0.1130116E+00
         25   -1    0    0    0    0  0.00000000000E+00  0.00000000000E+00  0.99999998245E-14  0.12500000000E+03  0.12500000000E+03 0.  0.
        -11    1    3    3    0    0  0.30753693208E+02 -0.10541279188E+02  0.12566372536E+02  0.34854295744E+02  0.51100000000E-03 0. -1.
         23    2    1    0    0    0 -0.37769656616E+00  0.32832068537E+02  0.16238629090E+02  0.88369678491E+02  0.80420268731E+02 0.  0.
         11    1    3    3    0    0 -0.31131389774E+02  0.43373347725E+02  0.36722565539E+01  0.53515382747E+02  0.51100000000E-03 0.  1.
         22    1    1    0    0    0  0.37769656616E+00 -0.32832068537E+02 -0.16238629090E+02  0.36630321509E+02  0.00000000000E+00 0.  1.
</event>
<event>
 5    1  0.8902899E-005  0.9118800E+02  0.7818608E-02  0.1130116E+00
         25   -1    0    0    0    0  0.00000000000E+00  0.00000000000E+00  0.99999998245E-14  0.12500000000E+03  0.12500000000E+03 0.  0.
        -11    1    3    3    0    0 -0.14876015878E+01  0.33092307115E+02  0.90476060192E+01  0.34339087402E+02  0.51100000000E-03 0.  1.
         23    2    1    0    0    0 -0.56993061490E+01 -0.27027604088E+02  0.12449086528E+02  0.94702257036E+02  0.89724936663E+02 0.  0.
         11    1    3    3    0    0 -0.42117045613E+01 -0.60119911203E+02  0.34014805091E+01  0.60363169634E+02  0.51100000000E-03 0. -1.
         22    1    1    0    0    0  0.56993061490E+01  0.27027604088E+02 -0.12449086528E+02  0.30297742964E+02  0.00000000000E+00 0. -1.
</event>
<event>
 5    1  0.8902899E-005  0.9118800E+02  0.7818608E-02  0.1130116E+00
         25   -1    0    0    0    0  0.00000000000E+00  0.00000000000E+00  0.99999998245E-14  0.12500000000E+03  0.12500000000E+03 0.  0.
        -11    1    3    3    0    0  0.16113953016E+01  0.11338463092E+02  0.55612607781E+02  0.56779569253E+02  0.51100000000E-03 0. -1.
         23    2    1    0    0    0 -0.37679195228E+01 -0.13424060400E+02  0.16314088108E+02  0.10353952270E+03  0.10129106908E+03 0.  0.
         11    1    3    3    0    0 -0.53793148243E+01 -0.24762523492E+02 -0.39298519673E+02  0.46759953447E+02  0.51100000000E-03 0.  1.
         22    1    1    0    0    0  0.37679195228E+01  0.13424060400E+02 -0.16314088108E+02  0.21460477300E+02  0.00000000000E+00 0. -1.
</event>
<event>
 5    1  0.8902899E-005  0.9118800E+02  0.7818608E-02  0.1130116E+00
         25   -1    0    0    0    0  0.00000000000E+00  0.00000000000E+00  0.99999998245E-14  0.12500000000E+03  0.12500000000E+03 0.  0.
        -11    1    3    3    0    0  0.19183994017E+01  0.42639670659E+02  0.19573636222E+02  0.46956884537E+02  0.51100000000E-03 0. -1.
         23    2    1    0    0    0 -0.24826110586E+02  0.94031137694E+01 -0.74135932143E+01  0.97437059669E+02  0.93457289267E+02 0.  0.
         11    1    3    3    0    0 -0.26744509987E+02 -0.33236556890E+02 -0.26987229437E+02  0.50480175131E+02  0.51100000000E-03 0.  1.
         22    1    1    0    0    0  0.24826110586E+02 -0.94031137694E+01  0.74135932143E+01  0.27562940331E+02  0.00000000000E+00 0.  1.
</event>
<event>
 5    1  0.8902899E-005  0.9118800E+02  0.7818608E-02  0.1130116E+00
         25   -1    0    0    0    0  0.00000000000E+00  0.00000000000E+00  0.99999998245E-14  0.12500000000E+03  0.12500000000E+03 0.  0.
        -11    1    3    3    0    0  0.38905080292E+02  0.43453667980E+01  0.14721007793E+02  0.41823385274E+02  0.51100000000E-03 0.  1.
         23    2    1    0    0    0  0.13581932855E+01  0.29623507081E+02 -0.10380678323E+02  0.93580971638E+02  0.88148981329E+02 0.  0.
         11    1    3    3    0    0 -0.37546887006E+02  0.25278140283E+02 -0.25101686115E+02  0.51757586363E+02  0.51100000000E-03 0. -1.
         22    1    1    0    0    0 -0.13581932855E+01 -0.29623507081E+02  0.10380678323E+02  0.31419028362E+02  0.00000000000E+00 0. -1.
</event>
<event>
 5    1  0.8902899E-005  0.9118800E+02  0.7818608E-02  0.1130116E+00
         25   -1    0    0    0    0  0.00000000000E+00  0.00000000000E+00  0.99999998245E-14  0.12500000000E+03  0.12500000000E+03 0.  0.
        -11    1    3    3    0    0 -0.19122931160E+02 -0.95933632589E+01  0.27875448617E+02  0.35139148405E+02  0.51100000000E-03 0.  1.
         23    2    1    0    0    0 -0.20420154520E+01  0.12845298123E+02 -0.25988402997E+02  0.95938537523E+02  0.91431036200E+02 0.  0.
         11    1    3    3    0    0  0.17080915708E+02  0.22438661382E+02 -0.53863851614E+02  0.60799389117E+02  0.51100000000E-03 0. -1.
         22    1    1    0    0    0  0.20420154520E+01 -0.12845298123E+02  0.25988402997E+02  0.29061462477E+02  0.00000000000E+00 0. -1.
</event>
<event>
 5    1  0.8902899E-005  0.9118800E+02  0.7818608E-02  0.1130116E+00
         25   -1    0    0    0    0  0.00000000000E+00  0.00000000000E+00  0.99999998245E-14  0.12500000000E+03  0.12500000000E+03 0.  0.
        -11    1    3    3    0    0  0.25904379645E+02  0.17355314614E+02 -0.30428958000E+02  0.43567939076E+02  0.51100000000E-03 0.  1.
         23    2    1    0    0    0  0.24607938485E+02 -0.43273329507E+01  0.16347495601E+02  0.95141717073E+02  0.90335094333E+02 0.  0.
         11    1    3    3    0    0 -0.12964411600E+01 -0.21682647564E+02  0.46776453601E+02  0.51573777996E+02  0.51100000000E-03 0. -1.
         22    1    1    0    0    0 -0.24607938485E+02  0.43273329507E+01 -0.16347495601E+02  0.29858282927E+02  0.00000000000E+00 0. -1.
</event>
<event>
 5    1  0.8902899E-005  0.9118800E+02  0.7818608E-02  0.1130116E+00
         25   -1    0    0    0    0  0.00000000000E+00  0.00000000000E+00  0.99999998245E-14  0.12500000000E+03  0.12500000000E+03 0.  0.
        -11    1    3    3    0    0 -0.15522613907E+02  0.24641066745E+02 -0.21950432981E+02  0.36468551125E+02  0.51100000000E-03 0. -1.
         23    2    1    0    0    0 -0.12220701070E+02 -0.90065010281E+01  0.25852820829E+02  0.95019490661E+02  0.90165806519E+02 0.  0.
         11    1    3    3    0    0  0.33019128372E+01 -0.33647567773E+02  0.47803253810E+02  0.58550939536E+02  0.51100000000E-03 0.  1.
         22    1    1    0    0    0  0.12220701070E+02  0.90065010281E+01 -0.25852820829E+02  0.29980509339E+02  0.00000000000E+00 0.  1.
</event>
<event>
 5    1  0.8902899E-005  0.9118800E+02  0.7818608E-02  0.1130116E+00
         25   -1    0    0    0    0  0.00000000000E+00  0.00000000000E+00  0.99999998245E-14  0.12500000000E+03  0.12500000000E+03 0.  0.
        -11    1    3    3    0    0 -0.38133063777E+02 -0.40071941332E+02  0.93572039404E+01  0.56102123854E+02  0.51100000000E-03 0. -1.
         23    2    1    0    0    0 -0.18197883923E+02 -0.78450747698E+01  0.21370780329E+02  0.95855216088E+02  0.91317052197E+02 0.  0.
         11    1    3    3    0    0  0.19935179854E+02  0.32226866562E+02  0.12013576389E+02  0.39753092234E+02  0.51100000000E-03 0.  1.
         22    1    1    0    0    0  0.18197883923E+02  0.78450747698E+01 -0.21370780329E+02  0.29144783912E+02  0.00000000000E+00 0. -1.
</event>
<event>
 5    1  0.8902899E-005  0.9118800E+02  0.7818608E-02  0.1130116E+00
         25   -1    0    0    0    0  0.00000000000E+00  0.00000000000E+00  0.99999998245E-14  0.12500000000E+03  0.12500000000E+03 0.  0.
        -11    1    3    3    0    0  0.40936588193E+02  0.27853701313E+02  0.67557615589E+01  0.49972725003E+02  0.51100000000E-03 0. -1.
         23    2    1    0    0    0 -0.18003379747E+01  0.21644919724E+02  0.20338903841E+02  0.95244079982E+02  0.90476626791E+02 0.  0.
         11    1    3    3    0    0 -0.42736926168E+02 -0.62087815894E+01  0.13583142282E+02  0.45271354979E+02  0.51100000000E-03 0.  1.
         22    1    1    0    0    0  0.18003379747E+01 -0.21644919724E+02 -0.20338903841E+02  0.29755920018E+02  0.00000000000E+00 0. -1.
</event>
<event>
 5    1  0.8902899E-005  0.9118800E+02  0.7818608E-02  0.1130116E+00
         25   -1    0    0    0    0  0.00000000000E+00  0.00000000000E+00  0.99999998245E-14  0.12500000000E+03  0.12500000000E+03 0.  0.
        -11    1    3    3    0    0  0.16741496315E+02  0.16828010498E+02  0.28296409391E+02  0.36934352856E+02  0.51100000000E-03 0.  1.
         23    2    1    0    0    0 -0.29218188194E+02 -0.69288540384E+01  0.21710139644E+01  0.94893109738E+02  0.89990429682E+02 0.  0.
         11    1    3    3    0    0 -0.45959684509E+02 -0.23756864536E+02 -0.26125395427E+02  0.57958756882E+02  0.51100000000E-03 0. -1.
         22    1    1    0    0    0  0.29218188194E+02  0.69288540384E+01 -0.21710139644E+01  0.30106890262E+02  0.00000000000E+00 0. -1.
</event>
<event>
 5    1  0.8902899E-005  0.9118800E+02  0.7818608E-02  0.1130116E+00
         25   -1    0    0    0    0  0.00000000000E+00  0.00000000000E+00  0.99999998245E-14  0.12500000000E+03  0.12500000000E+03 0.  0.
        -11    1    3    3    0    0 -0.20075173124E+01 -0.16502368872E+01 -0.38345387972E+02  0.38433347324E+02  0.51100000000E-03 0.  1.
         23    2    1    0    0    0  0.22134189778E+02  0.15291281915E+02  0.11011896093E+02  0.95930987025E+02  0.91420712950E+02 0.  0.
         11    1    3    3    0    0  0.24141707091E+02  0.16941518803E+02  0.49357284066E+02  0.57497639701E+02  0.51100000000E-03 0. -1.
         22    1    1    0    0    0 -0.22134189778E+02 -0.15291281915E+02 -0.11011896093E+02  0.29069012975E+02  0.00000000000E+00 0. -1.
</event>
<event>
 5    1  0.8902899E-005  0.9118800E+02  0.7818608E-02  0.1130116E+00
         25   -1    0    0    0    0  0.00000000000E+00  0.00000000000E+00  0.99999998245E-14  0.12500000000E+03  0.12500000000E+03 0.  0.
        -11    1    3    3    0    0  0.21119013079E+02 -0.32510242245E+02  0.15430054045E+02  0.41725473423E+02  0.51100000000E-03 0. -1.
         23    2    1    0    0    0  0.14963949839E+02  0.20129870401E+02  0.16918255813E+02  0.94745101936E+02  0.89784606052E+02 0.  0.
         11    1    3    3    0    0 -0.61550632406E+01  0.52640112646E+02  0.14882017682E+01  0.53019628513E+02  0.51100000000E-03 0.  1.
         22    1    1    0    0    0 -0.14963949839E+02 -0.20129870401E+02 -0.16918255813E+02  0.30254898064E+02  0.00000000000E+00 0. -1.
</event>
<event>
 5    1  0.8902899E-005  0.9118800E+02  0.7818608E-02  0.1130116E+00
         25   -1    0    0    0    0  0.00000000000E+00  0.00000000000E+00  0.99999998245E-14  0.12500000000E+03  0.12500000000E+03 0.  0.
        -11    1    3    3    0    0 -0.67673899829E+01  0.50181467101E+01 -0.44731286893E+02  0.45517770057E+02  0.51100000000E-03 0.  1.
         23    2    1    0    0    0  0.26211575504E+02 -0.38963883514E+01 -0.47989701978E+01  0.98069373428E+02  0.94299222462E+02 0.  0.
         11    1    3    3    0    0  0.32978965487E+02 -0.89145350615E+01  0.39932316695E+02  0.52551603371E+02  0.51100000000E-03 0. -1.
         22    1    1    0    0    0 -0.26211575504E+02  0.38963883514E+01  0.47989701978E+01  0.26930626572E+02  0.00000000000E+00 0.  1.
</event>
<event>
 5    1  0.8902899E-005  0.9118800E+02  0.7818608E-02  0.1130116E+00
         25   -1    0    0    0    0  0.00000000000E+00  0.00000000000E+00  0.99999998245E-14  0.12500000000E+03  0.12500000000E+03 0.  0.
        -11    1    3    3    0    0 -0.30929426901E+02  0.85441073570E+01  0.15553821901E+02  0.35658836141E+02  0.51100000000E-03 0.  1.
         23    2    1    0    0    0  0.15824463486E+02 -0.16957160672E+02 -0.15306697486E+02  0.97210542815E+02  0.93153828176E+02 0.  0.
         11    1    3    3    0    0  0.46753890387E+02 -0.25501268029E+02 -0.30860519388E+02  0.61551706674E+02  0.51100000000E-03 0. -1.
         22    1    1    0    0    0 -0.15824463486E+02  0.16957160672E+02  0.15306697486E+02  0.27789457185E+02  0.00000000000E+00 0. -1.
</event>
<event>
 5    1  0.8902899E-005  0.9118800E+02  0.7818608E-02  0.1130116E+00
         25   -1    0    0    0    0  0.00000000000E+00  0.00000000000E+00  0.99999998245E-14  0.12500000000E+03  0.12500000000E+03 0.  0.
        -11    1    3    3    0    0 -0.58334446981E+02  0.11215513180E+02 -0.95992578490E+01  0.60173425961E+02  0.51100000000E-03 0. -1.
         23    2    1    0    0    0 -0.24259988904E+02  0.15625441802E+02 -0.97757793355E+01  0.94532519718E+02  0.89488155247E+02 0.  0.
         11    1    3    3    0    0  0.34074458077E+02  0.44099286225E+01 -0.17652148651E+00  0.34359093757E+02  0.51100000000E-03 0.  1.
         22    1    1    0    0    0  0.24259988904E+02 -0.15625441802E+02  0.97757793355E+01  0.30467480282E+02  0.00000000000E+00 0. -1.
</event>
<event>
 5    1  0.8902899E-005  0.9118800E+02  0.7818608E-02  0.1130116E+00
         25   -1    0    0    0    0  0.00000000000E+00  0.00000000000E+00  0.99999998245E-14  0.12500000000E+03  0.12500000000E+03 0.  0.
        -11    1    3    3    0    0 -0.22935303642E+02  0.24304101047E+02  0.83739833406E+01  0.34450559910E+02  0.51100000000E-03 0. -1.
         23    2    1    0    0    0  0.77709105936E+00 -0.29667947327E+02 -0.50096372016E+01  0.94902036048E+02  0.90002827801E+02 0.  0.
         11    1    3    3    0    0  0.23712394702E+02 -0.53972048374E+02 -0.13383620542E+02  0.60451476138E+02  0.51100000000E-03 0.  1.
         22    1    1    0    0    0 -0.77709105936E+00  0.29667947327E+02  0.50096372016E+01  0.30097963952E+02  0.00000000000E+00 0.  1.
</event>
<event>
 5    1  0.8902899E-005  0.9118800E+02  0.7818608E-02  0.1130116E+00
         25   -1    0    0    0    0  0.00000000000E+00  0.00000000000E+00  0.99999998245E-14  0.12500000000E+03  0.12500000000E+03 0.  0.
        -11    1    3    3    0    0  0.11704939798E+02 -0.57701355577E+01 -0.48789211495E+02  0.50504328910E+02  0.51100000000E-03 0.  1.
         23    2    1    0    0    0  0.16514024440E+02  0.20605019841E+02 -0.12078419136E+02  0.95962643807E+02  0.91463987185E+02 0.  0.
         11    1    3    3    0    0  0.48090846422E+01  0.26375155399E+02  0.36710792359E+02  0.45458314897E+02  0.51100000000E-03 0. -1.
         22    1    1    0    0    0 -0.16514024440E+02 -0.20605019841E+02  0.12078419136E+02  0.29037356193E+02  0.00000000000E+00 0.  1.
</event>
<event>
 5    1  0.8902899E-005  0.9118800E+02  0.7818608E-02  0.1130116E+00
         25   -1    0    0    0    0  0.00000000000E+00  0.00000000000E+00  0.99999998245E-14  0.12500000000E+03  0.12500000000E+03 0.  0.
        -11    1    3    3    0    0  0.35459501476E+02  0.19914863819E+02 -0.17870748615E+02  0.44422310861E+02  0.51100000000E-03 0.  1.
         23    2    1    0    0    0 -0.17152639021E+02  0.14993186107E+02 -0.15744811557E+02  0.97306900751E+02  0.93283038050E+02 0.  0.
         11    1    3    3    0    0 -0.52612140498E+02 -0.49216777118E+01  0.21259370579E+01  0.52884589891E+02  0.51100000000E-03 0. -1.
         22    1    1    0    0    0  0.17152639021E+02 -0.14993186107E+02  0.15744811557E+02  0.27693099249E+02  0.00000000000E+00 0. -1.
</event>
<event>
 5    1  0.8902899E-005  0.9118800E+02  0.7818608E-02  0.1130116E+00
         25   -1    0    0    0    0  0.00000000000E+00  0.00000000000E+00  0.99999998245E-14  0.12500000000E+03  0.12500000000E+03 0.  0.
        -11    1    3    3    0    0  0.85210463848E+01 -0.29521461795E+02 -0.80679370837E+01  0.31768168771E+02  0.51100000000E-03 0. -1.
         23    2    1    0    0    0  0.78588032796E+00  0.26968057577E+02  0.15973767689E+02  0.93646292220E+02  0.88241560814E+02 0.  0.
         11    1    3    3    0    0 -0.77351660568E+01  0.56489519373E+02  0.24041704772E+02  0.61878123449E+02  0.51100000000E-03 0.  1.
         22    1    1    0    0    0 -0.78588032796E+00 -0.26968057577E+02 -0.15973767689E+02  0.31353707780E+02  0.00000000000E+00 0.  1.
</event>
<event>
 5    1  0.8902899E-005  0.9118800E+02  0.7818608E-02  0.1130116E+00
         25   -1    0    0    0    0  0.00000000000E+00  0.00000000000E+00  0.99999998245E-14  0.12500000000E+03  0.12500000000E+03 0.  0.
        -11    1    3    3    0    0  0.26134641835E+02 -0.42239573110E+02 -0.32150035294E+02  0.59167776788E+02  0.51100000000E-03 0.  1.
         23    2    1    0    0    0  0.79860534978E+01 -0.12096798116E+02 -0.26488229992E+02  0.94805035135E+02  0.89868007565E+02 0.  0.
         11    1    3    3    0    0 -0.18148588337E+02  0.30142774994E+02  0.56618053022E+01  0.35637258347E+02  0.51100000000E-03 0. -1.
         22    1    1    0    0    0 -0.79860534978E+01  0.12096798116E+02  0.26488229992E+02  0.30194964865E+02  0.00000000000E+00 0.  1.
</event>
<event>
 5    1  0.8902899E-005  0.9118800E+02  0.7818608E-02  0.1130116E+00
         25   -1    0    0    0    0  0.00000000000E+00  0.00000000000E+00  0.99999998245E-14  0.12500000000E+03  0.12500000000E+03 0.  0.
        -11    1    3    3    0    0 -0.33639655715E+02  0.39916685421E+02  0.16909248485E+02  0.54871585509E+02  0.51100000000E-03 0.  1.
         23    2    1    0    0    0 -0.60032262013E+01 -0.51523493398E+01 -0.83792952894E+01  0.11347619776E+03  0.11288954531E+03 0.  0.
         11    1    3    3    0    0  0.27636429514E+02 -0.45069034760E+02 -0.25288543775E+02  0.58604612250E+02  0.51100000000E-03 0. -1.
         22    1    1    0    0    0  0.60032262013E+01  0.51523493398E+01  0.83792952894E+01  0.11523802241E+02  0.00000000000E+00 0. -1.
</event>
<event>
 5    1  0.8902899E-005  0.9118800E+02  0.7818608E-02  0.1130116E+00
         25   -1    0    0    0    0  0.00000000000E+00  0.00000000000E+00  0.99999998245E-14  0.12500000000E+03  0.12500000000E+03 0.  0.
        -11    1    3    3    0    0  0.17370929274E+02  0.37101754331E+02  0.42925390638E+02  0.59336991160E+02  0.51100000000E-03 0.  1.
         23    2    1    0    0    0  0.16597199580E+02  0.58866128616E+01  0.21513814099E+02  0.97197779910E+02  0.93136700486E+02 0.  0.
         11    1    3    3    0    0 -0.77372969433E+00 -0.31215141469E+02 -0.21411576539E+02  0.37860788750E+02  0.51100000000E-03 0. -1.
         22    1    1    0    0    0 -0.16597199580E+02 -0.58866128616E+01 -0.21513814099E+02  0.27802220090E+02  0.00000000000E+00 0.  1.
</event>
<event>
 5    1  0.8902899E-005  0.9118800E+02  0.7818608E-02  0.1130116E+00
         25   -1    0    0    0    0  0.00000000000E+00  0.00000000000E+00  0.99999998245E-14  0.12500000000E+03  0.12500000000E+03 0.  0.
        -11    1    3    3    0    0  0.10463765504E+02  0.17331610114E+02 -0.31324061760E+02  0.37297076870E+02  0.51100000000E-03 0. -1.
         23    2    1    0    0    0  0.63199660453E+00 -0.16926631575E+02  0.19371466969E+02  0.99267452347E+02  0.95874204491E+02 0.  0.
         11    1    3    3    0    0 -0.98317688997E+01 -0.34258241689E+02  0.50695528729E+02  0.61970375476E+02  0.51100000000E-03 0.  1.
         22    1    1    0    0    0 -0.63199660453E+00  0.16926631575E+02 -0.19371466969E+02  0.25732547653E+02  0.00000000000E+00 0.  1.
</event>
<event>
 4    1  0.8902899E-005  0.9118800E+02  0.7818608E-02  0.1130116E+00
         25   -1    0    0    0    0  0.00000000000E+00  0.00000000000E+00  0.99999998245E-14  0.12500000000E+03  0.12500000000E+03 0.  0.
        -11    1    1    0    0    0 -0.19068792537E+02  0.60902189529E+01  0.56781055341E+02  0.60206294203E+02  0.51100000000E-03 0.  1.
         11    1    1    0    0    0 -0.41968483822E+01 -0.10026205690E+01 -0.14450786477E+01  0.45504985340E+01  0.51100000000E-03 0. -1.
         22    1    1    0    0    0  0.23265640920E+02 -0.50875983839E+01 -0.55335976694E+02  0.60243207263E+02  0.00000000000E+00 0.  1.
</event>
<event>
 5    1  0.8902899E-005  0.9118800E+02  0.7818608E-02  0.1130116E+00
         25   -1    0    0    0    0  0.00000000000E+00  0.00000000000E+00  0.99999998245E-14  0.12500000000E+03  0.12500000000E+03 0.  0.
        -11    1    3    3    0    0  0.46174120004E+02 -0.34976875660E+02  0.15313466924E+02  0.59916053429E+02  0.51100000000E-03 0. -1.
         23    2    1    0    0    0  0.16454482709E+02 -0.22165865923E+02 -0.32146528572E+01  0.97207741971E+02  0.93150069741E+02 0.  0.
         11    1    3    3    0    0 -0.29719637295E+02  0.12811009737E+02 -0.18528119781E+02  0.37291688542E+02  0.51100000000E-03 0.  1.
         22    1    1    0    0    0 -0.16454482709E+02  0.22165865923E+02  0.32146528572E+01  0.27792258029E+02  0.00000000000E+00 0. -1.
</event>
<event>
 5    1  0.8902899E-005  0.9118800E+02  0.7818608E-02  0.1130116E+00
         25   -1    0    0    0    0  0.00000000000E+00  0.00000000000E+00  0.99999998245E-14  0.12500000000E+03  0.12500000000E+03 0.  0.
        -11    1    3    3    0    0 -0.39053697181E+02 -0.18166390060E+02 -0.97351500409E+01  0.44158602083E+02  0.51100000000E-03 0.  1.
         23    2    1    0    0    0 -0.11433899869E+02  0.25181005729E+02 -0.10097846087E+02  0.95558810972E+02  0.90910410532E+02 0.  0.
         11    1    3    3    0    0  0.27619797312E+02  0.43347395789E+02 -0.36269604655E+00  0.51400208890E+02  0.51100000000E-03 0. -1.
         22    1    1    0    0    0  0.11433899869E+02 -0.25181005729E+02  0.10097846087E+02  0.29441189028E+02  0.00000000000E+00 0. -1.
</event>
<event>
 5    1  0.8902899E-005  0.9118800E+02  0.7818608E-02  0.1130116E+00
         25   -1    0    0    0    0  0.00000000000E+00  0.00000000000E+00  0.99999998245E-14  0.12500000000E+03  0.12500000000E+03 0.  0.
        -11    1    3    3    0    0  0.18175045507E+02  0.54856769076E+02 -0.15370282160E+02  0.59798352540E+02  0.51100000000E-03 0.  1.
         23    2    1    0    0    0 -0.17502721041E+01  0.29950850996E+02 -0.49030430042E+00  0.94994045155E+02  0.90130523624E+02 0.  0.
         11    1    3    3    0    0 -0.19925317611E+02 -0.24905918079E+02  0.14879977860E+02  0.35195692615E+02  0.51100000000E-03 0. -1.
         22    1    1    0    0    0  0.17502721041E+01 -0.29950850996E+02  0.49030430042E+00  0.30005954845E+02  0.00000000000E+00 0.  1.
</event>
<event>
 5    1  0.8902899E-005  0.9118800E+02  0.7818608E-02  0.1130116E+00
         25   -1    0    0    0    0  0.00000000000E+00  0.00000000000E+00  0.99999998245E-14  0.12500000000E+03  0.12500000000E+03 0.  0.
        -11    1    3    3    0    0 -0.22816449759E+02  0.32641913550E+02 -0.14149957837E+02  0.42264715862E+02  0.51100000000E-03 0. -1.
         23    2    1    0    0    0 -0.24637368992E+02 -0.12802549745E+02  0.12028109884E+02  0.94741436614E+02  0.89779502970E+02 0.  0.
         11    1    3    3    0    0 -0.18209192325E+01 -0.45444463295E+02  0.26178067721E+02  0.52476720752E+02  0.51100000000E-03 0.  1.
         22    1    1    0    0    0  0.24637368992E+02  0.12802549745E+02 -0.12028109884E+02  0.30258563386E+02  0.00000000000E+00 0.  1.
</event>
<event>
 5    1  0.8902899E-005  0.9118800E+02  0.7818608E-02  0.1130116E+00
         25   -1    0    0    0    0  0.00000000000E+00  0.00000000000E+00  0.99999998245E-14  0.12500000000E+03  0.12500000000E+03 0.  0.
        -11    1    3    3    0    0  0.20154771344E+02 -0.36143101185E+02  0.17303306898E+01  0.41418988589E+02  0.51100000000E-03 0. -1.
         23    2    1    0    0    0 -0.20780423769E+02 -0.93962818021E+01 -0.19752993843E+02  0.94828873248E+02  0.89901158569E+02 0.  0.
         11    1    3    3    0    0 -0.40935195112E+02  0.26746819383E+02 -0.21483324533E+02  0.53409884659E+02  0.51100000000E-03 0.  1.
         22    1    1    0    0    0  0.20780423769E+02  0.93962818021E+01  0.19752993843E+02  0.30171126752E+02  0.00000000000E+00 0.  1.
</event>
<event>
 5    1  0.8902899E-005  0.9118800E+02  0.7818608E-02  0.1130116E+00
         25   -1    0    0    0    0  0.00000000000E+00  0.00000000000E+00  0.99999998245E-14  0.12500000000E+03  0.12500000000E+03 0.  0.
        -11    1    3    3    0    0  0.44651012554E+02 -0.98792256404E+01 -0.55018863514E+01  0.46060642365E+02  0.51100000000E-03 0.  1.
         23    2    1    0    0    0 -0.51872243499E-01 -0.84820106190E+01 -0.27728016243E+02  0.96003619542E+02  0.91519969873E+02 0.  0.
         11    1    3    3    0    0 -0.44702884798E+02  0.13972150214E+01 -0.22226129892E+02  0.49942977177E+02  0.51100000000E-03 0. -1.
         22    1    1    0    0    0  0.51872243499E-01  0.84820106190E+01  0.27728016243E+02  0.28996380458E+02  0.00000000000E+00 0. -1.
</event>
<event>
 5    1  0.8902899E-005  0.9118800E+02  0.7818608E-02  0.1130116E+00
         25   -1    0    0    0    0  0.00000000000E+00  0.00000000000E+00  0.99999998245E-14  0.12500000000E+03  0.12500000000E+03 0.  0.
        -11    1    3    3    0    0  0.34877216603E+02  0.16194115261E+02 -0.43331151881E+02  0.57933223030E+02  0.51100000000E-03 0.  1.
         23    2    1    0    0    0  0.11001013326E+02  0.22883046265E+02 -0.15304021202E+02  0.95354272390E+02  0.90628737703E+02 0.  0.
         11    1    3    3    0    0 -0.23876203277E+02  0.66889310034E+01  0.28027130678E+02  0.37421049360E+02  0.51100000000E-03 0. -1.
         22    1    1    0    0    0 -0.11001013326E+02 -0.22883046265E+02  0.15304021202E+02  0.29645727610E+02  0.00000000000E+00 0.  1.
</event>
<event>
 5    1  0.8902899E-005  0.9118800E+02  0.7818608E-02  0.1130116E+00
         25   -1    0    0    0    0  0.00000000000E+00  0.00000000000E+00  0.99999998245E-14  0.12500000000E+03  0.12500000000E+03 0.  0.
        -11    1    3    3    0    0 -0.18386818253E+02 -0.29040918170E+02  0.12580875299E+02  0.36602300982E+02  0.51100000000E-03 0.  1.
         23    2    1    0    0    0  0.27032527756E+02 -0.10638454850E+01 -0.12080929998E+02  0.95371665695E+02  0.90652724304E+02 0.  0.
         11    1    3    3    0    0  0.45419346009E+02  0.27977072685E+02 -0.24661805298E+02  0.58769364713E+02  0.51100000000E-03 0. -1.
         22    1    1    0    0    0 -0.27032527756E+02  0.10638454850E+01  0.12080929998E+02  0.29628334305E+02  0.00000000000E+00 0. -1.
</event>
<event>
 5    1  0.8902899E-005  0.9118800E+02  0.7818608E-02  0.1130116E+00
         25   -1    0    0    0    0  0.00000000000E+00  0.00000000000E+00  0.99999998245E-14  0.12500000000E+03  0.12500000000E+03 0.  0.
        -11    1    3    3    0    0  0.16811801529E+02 -0.40407537459E+02  0.62821839486E+01  0.44213929814E+02  0.51100000000E-03 0. -1.
         23    2    1    0    0    0  0.26899585953E+02  0.10326900396E+02  0.22955958577E+01  0.96094942371E+02  0.91644615732E+02 0.  0.
         11    1    3    3    0    0  0.10087784423E+02  0.50734437855E+02 -0.39865880909E+01  0.51881012557E+02  0.51100000000E-03 0.  1.
         22    1    1    0    0    0 -0.26899585953E+02 -0.10326900396E+02 -0.22955958577E+01  0.28905057629E+02  0.00000000000E+00 0.  1.
</event>
<event>
 5    1  0.8902899E-005  0.9118800E+02  0.7818608E-02  0.1130116E+00
         25   -1    0    0    0    0  0.00000000000E+00  0.00000000000E+00  0.99999998245E-14  0.12500000000E+03  0.12500000000E+03 0.  0.
        -11    1    3    3    0    0 -0.12680488633E+02 -0.33753923559E+02 -0.39248638270E+02  0.53297070782E+02  0.51100000000E-03 0.  1.
         23    2    1    0    0    0 -0.21363864273E+02  0.30551462981E+01 -0.19262171804E+02  0.96072852228E+02  0.91614480608E+02 0.  0.
         11    1    3    3    0    0 -0.86833756407E+01  0.36809069857E+02  0.19986466466E+02  0.42775781446E+02  0.51100000000E-03 0. -1.
         22    1    1    0    0    0  0.21363864273E+02 -0.30551462981E+01  0.19262171804E+02  0.28927147772E+02  0.00000000000E+00 0.  1.
</event>
<event>
 5    1  0.8902899E-005  0.9118800E+02  0.7818608E-02  0.1130116E+00
         25   -1    0    0    0    0  0.00000000000E+00  0.00000000000E+00  0.99999998245E-14  0.12500000000E+03  0.12500000000E+03 0.  0.
        -11    1    3    3    0    0  0.55442528559E+02 -0.23295960114E+02 -0.24799969470E+01  0.60189086351E+02  0.51100000000E-03 0.  1.
         23    2    1    0    0    0  0.20340665032E+02 -0.21229531870E+02  0.14016391469E+01  0.95565321988E+02  0.90919362608E+02 0.  0.
         11    1    3    3    0    0 -0.35101863527E+02  0.20664282440E+01  0.38816360938E+01  0.35376235636E+02  0.51100000000E-03 0. -1.
         22    1    1    0    0    0 -0.20340665032E+02  0.21229531870E+02 -0.14016391469E+01  0.29434678012E+02  0.00000000000E+00 0.  1.
</event>
<event>
 5    1  0.8902899E-005  0.9118800E+02  0.7818608E-02  0.1130116E+00
         25   -1    0    0    0    0  0.00000000000E+00  0.00000000000E+00  0.99999998245E-14  0.12500000000E+03  0.12500000000E+03 0.  0.
        -11    1    3    3    0    0  0.25418117275E+01 -0.99619202361E+00 -0.46287162226E+02  0.46367602834E+02  0.51100000000E-03 0.  1.
         23    2    1    0    0    0  0.24359407343E+01  0.28168632066E+02 -0.60113345023E+01  0.96094260393E+02  0.91643685533E+02 0.  0.
         11    1    3    3    0    0 -0.10587099318E+00  0.29164824090E+02  0.40275827723E+02  0.49726657558E+02  0.51100000000E-03 0. -1.
         22    1    1    0    0    0 -0.24359407343E+01 -0.28168632066E+02  0.60113345023E+01  0.28905739607E+02  0.00000000000E+00 0. -1.
</event>
<event>
 5    1  0.8902899E-005  0.9118800E+02  0.7818608E-02  0.1130116E+00
         25   -1    0    0    0    0  0.00000000000E+00  0.00000000000E+00  0.99999998245E-14  0.12500000000E+03  0.12500000000E+03 0.  0.
        -11    1    3    3    0    0  0.11632934399E+02  0.32306152982E+02 -0.44219775079E+02  0.55985723104E+02  0.51100000000E-03 0.  1.
         23    2    1    0    0    0 -0.38319539694E+01  0.28957504881E+02 -0.92637677976E+01  0.94356267297E+02  0.89241620471E+02 0.  0.
         11    1    3    3    0    0 -0.15464888368E+02 -0.33486481007E+01  0.34956007281E+02  0.38370544193E+02  0.51100000000E-03 0. -1.
         22    1    1    0    0    0  0.38319539694E+01 -0.28957504881E+02  0.92637677976E+01  0.30643732703E+02  0.00000000000E+00 0.  1.
</event>
<event>
 5    1  0.8902899E-005  0.9118800E+02  0.7818608E-02  0.1130116E+00
         25   -1    0    0    0    0  0.00000000000E+00  0.00000000000E+00  0.99999998245E-14  0.12500000000E+03  0.12500000000E+03 0.  0.
        -11    1    3    3    0    0 -0.18469770724E+02 -0.47891846609E+02 -0.99685318815E+01  0.52288937935E+02  0.51100000000E-03 0.  1.
         23    2    1    0    0    0 -0.26485421370E+02 -0.93536003163E+01  0.83370976317E+01  0.95700263125E+02  0.91104696812E+02 0.  0.
         11    1    3    3    0    0 -0.80156506460E+01  0.38538246293E+02  0.18305629513E+02  0.43411325190E+02  0.51100000000E-03 0. -1.
         22    1    1    0    0    0  0.26485421370E+02  0.93536003163E+01 -0.83370976317E+01  0.29299736875E+02  0.00000000000E+00 0.  1.
</event>
<event>
 5    1  0.8902899E-005  0.9118800E+02  0.7818608E-02  0.1130116E+00
         25   -1    0    0    0    0  0.00000000000E+00  0.00000000000E+00  0.99999998245E-14  0.12500000000E+03  0.12500000000E+03 0.  0.
        -11    1    3    3    0    0  0.30738137815E+02 -0.10284191297E+02  0.21116231013E+02  0.38684530751E+02  0.51100000000E-03 0.  1.
         23    2    1    0    0    0 -0.15736097357E+02  0.21179455849E+02  0.98027051296E-01  0.98614327384E+02  0.95018849952E+02 0.  0.
         11    1    3    3    0    0 -0.46474235172E+02  0.31463647146E+02 -0.21018203962E+02  0.59929796634E+02  0.51100000000E-03 0. -1.
         22    1    1    0    0    0  0.15736097357E+02 -0.21179455849E+02 -0.98027051296E-01  0.26385672616E+02  0.00000000000E+00 0. -1.
</event>
<event>
 5    1  0.8902899E-005  0.9118800E+02  0.7818608E-02  0.1130116E+00
         25   -1    0    0    0    0  0.00000000000E+00  0.00000000000E+00  0.99999998245E-14  0.12500000000E+03  0.12500000000E+03 0.  0.
        -11    1    3    3    0    0 -0.38372045345E+02  0.33164023513E+02 -0.32446319144E+02  0.60208221579E+02  0.51100000000E-03 0.  1.
         23    2    1    0    0    0 -0.87390081577E+01  0.15980016559E+02 -0.22844509365E+02  0.95783518334E+02  0.91218855417E+02 0.  0.
         11    1    3    3    0    0  0.29633037187E+02 -0.17184006953E+02  0.96018097790E+01  0.35575296755E+02  0.51100000000E-03 0. -1.
         22    1    1    0    0    0  0.87390081577E+01 -0.15980016559E+02  0.22844509365E+02  0.29216481666E+02  0.00000000000E+00 0.  1.
</event>
<event>
 5    1  0.8902899E-005  0.9118800E+02  0.7818608E-02  0.1130116E+00
         25   -1    0    0    0    0  0.00000000000E+00  0.00000000000E+00  0.99999998245E-14  0.12500000000E+03  0.12500000000E+03 0.  0.
        -11    1    3    3    0    0  0.23174745175E+01  0.46484889364E+02 -0.11573334644E+02  0.47959959365E+02  0.51100000000E-03 0.  1.
         23    2    1    0    0    0  0.12084074197E+02  0.14645945623E+02  0.22468494058E+02  0.95582967559E+02  0.90943619291E+02 0.  0.
         11    1    3    3    0    0  0.97665996795E+01 -0.31838943740E+02  0.34041828702E+02  0.47623008194E+02  0.51100000000E-03 0. -1.
         22    1    1    0    0    0 -0.12084074197E+02 -0.14645945623E+02 -0.22468494058E+02  0.29417032441E+02  0.00000000000E+00 0. -1.
</event>
<event>
 5    1  0.8902899E-005  0.9118800E+02  0.7818608E-02  0.1130116E+00
         25   -1    0    0    0    0  0.00000000000E+00  0.00000000000E+00  0.99999998245E-14  0.12500000000E+03  0.12500000000E+03 0.  0.
        -11    1    3    3    0    0 -0.19946724036E+02 -0.35854035410E+02  0.17233938856E+02  0.44501598890E+02  0.51100000000E-03 0.  1.
         23    2    1    0    0    0  0.81090593014E+01  0.71596242743E+01  0.26219692778E+02  0.96636478500E+02  0.92380298900E+02 0.  0.
         11    1    3    3    0    0  0.28055783338E+02  0.43013659684E+02  0.89857539223E+01  0.52134879610E+02  0.51100000000E-03 0. -1.
         22    1    1    0    0    0 -0.81090593014E+01 -0.71596242743E+01 -0.26219692778E+02  0.28363521500E+02  0.00000000000E+00 0. -1.
</event>
<event>
 5    1  0.8902899E-005  0.9118800E+02  0.7818608E-02  0.1130116E+00
         25   -1    0    0    0    0  0.00000000000E+00  0.00000000000E+00  0.99999998245E-14  0.12500000000E+03  0.12500000000E+03 0.  0.
        -11    1    3    3    0    0 -0.27001826932E+02 -0.33668574548E+02 -0.35238626600E+02  0.55717433310E+02  0.51100000000E-03 0.  1.
         23    2    1    0    0    0  0.61737395201E+01 -0.12022195485E+02 -0.24918343980E+02  0.96652652493E+02  0.92402181378E+02 0.  0.
         11    1    3    3    0    0  0.33175566452E+02  0.21646379063E+02  0.10320282620E+02  0.40935219183E+02  0.51100000000E-03 0. -1.
         22    1    1    0    0    0 -0.61737395201E+01  0.12022195485E+02  0.24918343980E+02  0.28347347507E+02  0.00000000000E+00 0.  1.
</event>
<event>
 5    1  0.8902899E-005  0.9118800E+02  0.7818608E-02  0.1130116E+00
         25   -1    0    0    0    0  0.00000000000E+00  0.00000000000E+00  0.99999998245E-14  0.12500000000E+03  0.12500000000E+03 0.  0.
        -11    1    3    3    0    0  0.69846768125E+01 -0.44379793199E+02 -0.23609250362E+02  0.50751832060E+02  0.51100000000E-03 0.  1.
         23    2    1    0    0    0 -0.48589735446E+01  0.12167240861E+01 -0.26577262441E+02  0.97954835547E+02  0.94147272328E+02 0.  0.
         11    1    3    3    0    0 -0.11843650357E+02  0.45596517285E+02 -0.29680120788E+01  0.47203003487E+02  0.51100000000E-03 0. -1.
         22    1    1    0    0    0  0.48589735446E+01 -0.12167240861E+01  0.26577262441E+02  0.27045164453E+02  0.00000000000E+00 0.  1.
</event>
<event>
 5    1  0.8902899E-005  0.9118800E+02  0.7818608E-02  0.1130116E+00
         25   -1    0    0    0    0  0.00000000000E+00  0.00000000000E+00  0.99999998245E-14  0.12500000000E+03  0.12500000000E+03 0.  0.
        -11    1    3    3    0    0 -0.14566642553E+02  0.49490117478E+02 -0.34935192369E+02  0.62305107891E+02  0.51100000000E-03 0.  1.
         23    2    1    0    0    0 -0.42062550262E+01  0.25142594158E+02 -0.19154180055E+02  0.93113870791E+02  0.87484099686E+02 0.  0.
         11    1    3    3    0    0  0.10360387527E+02 -0.24347523319E+02  0.15781012315E+02  0.30808762900E+02  0.51100000000E-03 0. -1.
         22    1    1    0    0    0  0.42062550262E+01 -0.25142594158E+02  0.19154180055E+02  0.31886129209E+02  0.00000000000E+00 0.  1.
</event>
<event>
 5    1  0.8902899E-005  0.9118800E+02  0.7818608E-02  0.1130116E+00
         25   -1    0    0    0    0  0.00000000000E+00  0.00000000000E+00  0.99999998245E-14  0.12500000000E+03  0.12500000000E+03 0.  0.
        -11    1    3    3    0    0  0.63936553934E+01 -0.38977947059E+02 -0.39072161927E+02  0.55558914894E+02  0.51100000000E-03 0.  1.
         23    2    1    0    0    0  0.29394739436E+00 -0.22653386344E+01 -0.31349205198E+02  0.93567678566E+02  0.88130129022E+02 0.  0.
         11    1    3    3    0    0 -0.60997079990E+01  0.36712608424E+02  0.77229567297E+01  0.38008763672E+02  0.51100000000E-03 0. -1.
         22    1    1    0    0    0 -0.29394739436E+00  0.22653386344E+01  0.31349205198E+02  0.31432321434E+02  0.00000000000E+00 0.  1.
</event>
<event>
 5    1  0.8902899E-005  0.9118800E+02  0.7818608E-02  0.1130116E+00
         25   -1    0    0    0    0  0.00000000000E+00  0.00000000000E+00  0.99999998245E-14  0.12500000000E+03  0.12500000000E+03 0.  0.
        -11    1    3    3    0    0 -0.21782767470E+01  0.58191162601E+02  0.22101973423E+02  0.62285259283E+02  0.51100000000E-03 0.  1.
         23    2    1    0    0    0  0.11655652457E+01  0.26930940728E+02  0.70732011868E+01  0.97131302760E+02  0.93047437847E+02 0.  0.
         11    1    3    3    0    0  0.33438419926E+01 -0.31260221873E+02 -0.15028772237E+02  0.34846043477E+02  0.51100000000E-03 0. -1.
         22    1    1    0    0    0 -0.11655652457E+01 -0.26930940728E+02 -0.70732011868E+01  0.27868697240E+02  0.00000000000E+00 0.  1.
</event>
<event>
 5    1  0.8902899E-005  0.9118800E+02  0.7818608E-02  0.1130116E+00
         25   -1    0    0    0    0  0.00000000000E+00  0.00000000000E+00  0.99999998245E-14  0.12500000000E+03  0.12500000000E+03 0.  0.
        -11    1    3    3    0    0  0.33939605105E+02 -0.22994804451E+02  0.72173379953E+01  0.41626287301E+02  0.51100000000E-03 0. -1.
         23    2    1    0    0    0  0.15582228238E-01  0.90682199662E+00 -0.28564527945E+02  0.96421077249E+02  0.92088377726E+02 0.  0.
         11    1    3    3    0    0 -0.33924022877E+02  0.23901626448E+02 -0.35781865940E+02  0.54794789948E+02  0.51100000000E-03 0.  1.
         22    1    1    0    0    0 -0.15582228238E-01 -0.90682199662E+00  0.28564527945E+02  0.28578922751E+02  0.00000000000E+00 0. -1.
</event>
<event>
 5    1  0.8902899E-005  0.9118800E+02  0.7818608E-02  0.1130116E+00
         25   -1    0    0    0    0  0.00000000000E+00  0.00000000000E+00  0.99999998245E-14  0.12500000000E+03  0.12500000000E+03 0.  0.
        -11    1    3    3    0    0 -0.10107624280E+02 -0.19509823509E+02  0.25677994845E+02  0.33795808933E+02  0.51100000000E-03 0.  1.
         23    2    1    0    0    0  0.27445066454E+01  0.22783481733E+02 -0.17921516921E+02  0.95882992507E+02  0.91355066235E+02 0.  0.
         11    1    3    3    0    0  0.12852130926E+02  0.42293305242E+02 -0.43599511766E+02  0.62087183574E+02  0.51100000000E-03 0. -1.
         22    1    1    0    0    0 -0.27445066454E+01 -0.22783481733E+02  0.17921516921E+02  0.29117007493E+02  0.00000000000E+00 0. -1.
</event>
<event>
 5    1  0.8902899E-005  0.9118800E+02  0.7818608E-02  0.1130116E+00
         25   -1    0    0    0    0  0.00000000000E+00  0.00000000000E+00  0.99999998245E-14  0.12500000000E+03  0.12500000000E+03 0.  0.
        -11    1    3    3    0    0  0.42546479410E+02  0.16096912938E+02 -0.22036356373E+01  0.45543051353E+02  0.51100000000E-03 0. -1.
         23    2    1    0    0    0  0.11712728442E+02 -0.22341061116E+02 -0.13913564927E+02  0.96192044358E+02  0.91776963827E+02 0.  0.
         11    1    3    3    0    0 -0.30833750968E+02 -0.38437974054E+02 -0.11709929290E+02  0.50648993004E+02  0.51100000000E-03 0.  1.
         22    1    1    0    0    0 -0.11712728442E+02  0.22341061116E+02  0.13913564927E+02  0.28807955642E+02  0.00000000000E+00 0.  1.
</event>
<event>
 5    1  0.8902899E-005  0.9118800E+02  0.7818608E-02  0.1130116E+00
         25   -1    0    0    0    0  0.00000000000E+00  0.00000000000E+00  0.99999998245E-14  0.12500000000E+03  0.12500000000E+03 0.  0.
        -11    1    3    3    0    0 -0.11384411100E+02  0.25206401045E+02  0.50775006560E+02  0.57819276727E+02  0.51100000000E-03 0.  1.
         23    2    1    0    0    0 -0.11537400911E+02  0.26412925711E+02  0.17161176470E+02  0.91455101100E+02  0.85080992442E+02 0.  0.
         11    1    3    3    0    0 -0.15298981186E+00  0.12065246654E+01 -0.33613830090E+02  0.33635824373E+02  0.51100000000E-03 0. -1.
         22    1    1    0    0    0  0.11537400911E+02 -0.26412925711E+02 -0.17161176470E+02  0.33544898900E+02  0.00000000000E+00 0.  1.
</event>
<event>
 5    1  0.8902899E-005  0.9118800E+02  0.7818608E-02  0.1130116E+00
         25   -1    0    0    0    0  0.00000000000E+00  0.00000000000E+00  0.99999998245E-14  0.12500000000E+03  0.12500000000E+03 0.  0.
        -11    1    3    3    0    0 -0.48295243694E+01  0.50795304704E+02  0.84598475368E+01  0.51720946493E+02  0.51100000000E-03 0. -1.
         23    2    1    0    0    0  0.20907921884E+02  0.19003956385E+02 -0.77229634705E+01  0.95709460220E+02  0.91117314793E+02 0.  0.
         11    1    3    3    0    0  0.25737446254E+02 -0.31791348318E+02 -0.16182811007E+02  0.43988513727E+02  0.51100000000E-03 0.  1.
         22    1    1    0    0    0 -0.20907921884E+02 -0.19003956385E+02  0.77229634705E+01  0.29290539780E+02  0.00000000000E+00 0. -1.
</event>
<event>
 5    1  0.8902899E-005  0.9118800E+02  0.7818608E-02  0.1130116E+00
         25   -1    0    0    0    0  0.00000000000E+00  0.00000000000E+00  0.99999998245E-14  0.12500000000E+03  0.12500000000E+03 0.  0.
        -11    1    3    3    0    0 -0.37470037439E+02 -0.25964530504E+02 -0.10454995777E+01  0.45598833533E+02  0.51100000000E-03 0. -1.
         23    2    1    0    0    0  0.12654447438E+02 -0.26382968992E+02  0.13130129950E+00  0.95738876767E+02  0.91157661180E+02 0.  0.
         11    1    3    3    0    0  0.50124484877E+02 -0.41843848837E+00  0.11768008772E+01  0.50140043234E+02  0.51100000000E-03 0.  1.
         22    1    1    0    0    0 -0.12654447438E+02  0.26382968992E+02 -0.13130129950E+00  0.29261123233E+02  0.00000000000E+00 0.  1.
</event>
<event>
 5    1  0.8902899E-005  0.9118800E+02  0.7818608E-02  0.1130116E+00
         25   -1    0    0    0    0  0.00000000000E+00  0.00000000000E+00  0.99999998245E-14  0.12500000000E+03  0.12500000000E+03 0.  0.
        -11    1    3    3    0    0 -0.31245244559E+02 -0.43640803403E+02 -0.25443528157E+02  0.59398300940E+02  0.51100000000E-03 0. -1.
         23    2    1    0    0    0 -0.13715043282E+02 -0.12887722823E+02 -0.23558548578E+02  0.94847039567E+02  0.89926413760E+02 0.  0.
         11    1    3    3    0    0  0.17530201277E+02  0.30753080580E+02  0.18849795794E+01  0.35448738627E+02  0.51100000000E-03 0.  1.
         22    1    1    0    0    0  0.13715043282E+02  0.12887722823E+02  0.23558548578E+02  0.30152960433E+02  0.00000000000E+00 0. -1.
</event>
<event>
 5    1  0.8902899E-005  0.9118800E+02  0.7818608E-02  0.1130116E+00
         25   -1    0    0    0    0  0.00000000000E+00  0.00000000000E+00  0.99999998245E-14  0.12500000000E+03  0.12500000000E+03 0.  0.
        -11    1    3    3    0    0 -0.20861631041E+02  0.30552143098E+02  0.16971291375E+02  0.40702160001E+02  0.51100000000E-03 0.  1.
         23    2    1    0    0    0 -0.41350969000E+02  0.15106839242E+01 -0.62423720975E+01  0.83153231755E+02  0.71856161454E+02 0.  0.
         11    1    3    3    0    0 -0.20489337959E+02 -0.29041459174E+02 -0.23213663473E+02  0.42451071754E+02  0.51100000000E-03 0. -1.
         22    1    1    0    0    0  0.41350969000E+02 -0.15106839242E+01  0.62423720975E+01  0.41846768245E+02  0.00000000000E+00 0.  1.
</event>
<event>
 5    1  0.8902899E-005  0.9118800E+02  0.7818608E-02  0.1130116E+00
         25   -1    0    0    0    0  0.00000000000E+00  0.00000000000E+00  0.99999998245E-14  0.12500000000E+03  0.12500000000E+03 0.  0.
        -11    1    3    3    0    0 -0.27357144806E+02 -0.10541652530E+02 -0.17166481942E+02  0.33973929895E+02  0.51100000000E-03 0.  1.
         23    2    1    0    0    0  0.24412627805E+02  0.12257125106E+02  0.89156679805E+01  0.96264957843E+02  0.91876218146E+02 0.  0.
         11    1    3    3    0    0  0.51769772611E+02  0.22798777636E+02  0.26082149922E+02  0.62291027948E+02  0.51100000000E-03 0. -1.
         22    1    1    0    0    0 -0.24412627805E+02 -0.12257125106E+02 -0.89156679805E+01  0.28735042157E+02  0.00000000000E+00 0. -1.
</event>
<event>
 5    1  0.8902899E-005  0.9118800E+02  0.7818608E-02  0.1130116E+00
         25   -1    0    0    0    0  0.00000000000E+00  0.00000000000E+00  0.99999998245E-14  0.12500000000E+03  0.12500000000E+03 0.  0.
        -11    1    3    3    0    0 -0.36978348473E+02 -0.21098758421E+02  0.55269925766E+01  0.42931381411E+02  0.51100000000E-03 0. -1.
         23    2    1    0    0    0  0.62365900253E+01 -0.32188455517E+00  0.28303308667E+02  0.96015936339E+02  0.91536790881E+02 0.  0.
         11    1    3    3    0    0  0.43214938498E+02  0.20776873865E+02  0.22776316090E+02  0.53084554928E+02  0.51100000000E-03 0.  1.
         22    1    1    0    0    0 -0.62365900253E+01  0.32188455517E+00 -0.28303308667E+02  0.28984063661E+02  0.00000000000E+00 0.  1.
</event>
<event>
 5    1  0.8902899E-005  0.9118800E+02  0.7818608E-02  0.1130116E+00
         25   -1    0    0    0    0  0.00000000000E+00  0.00000000000E+00  0.99999998245E-14  0.12500000000E+03  0.12500000000E+03 0.  0.
        -11    1    3    3    0    0  0.49188619805E+00 -0.25829122550E+02  0.49176387400E+02  0.55549100818E+02  0.51100000000E-03 0. -1.
         23    2    1    0    0    0  0.10819535424E+02  0.57508901061E+01  0.26583224822E+02  0.95728803821E+02  0.91143847600E+02 0.  0.
         11    1    3    3    0    0  0.10327649225E+02  0.31580012656E+02 -0.22593162578E+02  0.40179703003E+02  0.51100000000E-03 0.  1.
         22    1    1    0    0    0 -0.10819535424E+02 -0.57508901061E+01 -0.26583224822E+02  0.29271196179E+02  0.00000000000E+00 0. -1.
</event>
<event>
 5    1  0.8902899E-005  0.9118800E+02  0.7818608E-02  0.1130116E+00
         25   -1    0    0    0    0  0.00000000000E+00  0.00000000000E+00  0.99999998245E-14  0.12500000000E+03  0.12500000000E+03 0.  0.
        -11    1    3    3    0    0 -0.19952592810E+02  0.24114650268E+02  0.26539636276E+02  0.41036259714E+02  0.51100000000E-03 0. -1.
         23    2    1    0    0    0 -0.20032669293E+02 -0.23439129140E+02  0.32237585737E+01  0.93998496275E+02  0.88739078589E+02 0.  0.
         11    1    3    3    0    0 -0.80076482582E-01 -0.47553779409E+02 -0.23315877702E+02  0.52962236561E+02  0.51100000000E-03 0.  1.
         22    1    1    0    0    0  0.20032669293E+02  0.23439129140E+02 -0.32237585737E+01  0.31001503725E+02  0.00000000000E+00 0. -1.
</event>
<event>
 5    1  0.8902899E-005  0.9118800E+02  0.7818608E-02  0.1130116E+00
         25   -1    0    0    0    0  0.00000000000E+00  0.00000000000E+00  0.99999998245E-14  0.12500000000E+03  0.12500000000E+03 0.  0.
        -11    1    3    3    0    0  0.37329671808E+02 -0.44795458799E+02 -0.17631901030E+02  0.60918153784E+02  0.51100000000E-03 0. -1.
         23    2    1    0    0    0  0.17759416033E+02 -0.22752568215E+02  0.15643700179E+01  0.96094577121E+02  0.91644117544E+02 0.  0.
         11    1    3    3    0    0 -0.19570255774E+02  0.22042890584E+02  0.19196271048E+02  0.35176423337E+02  0.51100000000E-03 0.  1.
         22    1    1    0    0    0 -0.17759416033E+02  0.22752568215E+02 -0.15643700179E+01  0.28905422879E+02  0.00000000000E+00 0. -1.
</event>
<event>
 5    1  0.8902899E-005  0.9118800E+02  0.7818608E-02  0.1130116E+00
         25   -1    0    0    0    0  0.00000000000E+00  0.00000000000E+00  0.99999998245E-14  0.12500000000E+03  0.12500000000E+03 0.  0.
        -11    1    3    3    0    0 -0.28574701242E+01 -0.66296447339E+01  0.51398334306E+02  0.51902852470E+02  0.51100000000E-03 0. -1.
         23    2    1    0    0    0  0.13284430273E+02  0.36310857390E+01 -0.41212680948E+01  0.11062482271E+03  0.10968685281E+03 0.  0.
         11    1    3    3    0    0  0.16141900397E+02  0.10260730473E+02 -0.55519602401E+02  0.58721970243E+02  0.51100000000E-03 0.  1.
         22    1    1    0    0    0 -0.13284430273E+02 -0.36310857390E+01  0.41212680948E+01  0.14375177287E+02  0.00000000000E+00 0.  1.
</event>
<event>
 5    1  0.8902899E-005  0.9118800E+02  0.7818608E-02  0.1130116E+00
         25   -1    0    0    0    0  0.00000000000E+00  0.00000000000E+00  0.99999998245E-14  0.12500000000E+03  0.12500000000E+03 0.  0.
        -11    1    3    3    0    0 -0.23847065165E+02 -0.34670479685E+02 -0.26907742704E+02  0.49947485385E+02  0.51100000000E-03 0.  1.
         23    2    1    0    0    0 -0.16028591477E+02 -0.21238662103E+02  0.14867367944E+02  0.94519922207E+02  0.89470556899E+02 0.  0.
         11    1    3    3    0    0  0.78184736876E+01  0.13431817582E+02  0.41775110648E+02  0.44572436823E+02  0.51100000000E-03 0. -1.
         22    1    1    0    0    0  0.16028591477E+02  0.21238662103E+02 -0.14867367944E+02  0.30480077793E+02  0.00000000000E+00 0. -1.
</event>
<event>
 5    1  0.8902899E-005  0.9118800E+02  0.7818608E-02  0.1130116E+00
         25   -1    0    0    0    0  0.00000000000E+00  0.00000000000E+00  0.99999998245E-14  0.12500000000E+03  0.12500000000E+03 0.  0.
        -11    1    3    3    0    0  0.25652171197E+02 -0.45661414211E+01 -0.44494994558E+02  0.51562467702E+02  0.51100000000E-03 0.  1.
         23    2    1    0    0    0  0.18091558958E+02 -0.23401900617E+02 -0.63866939258E+01  0.94738748914E+02  0.89775760807E+02 0.  0.
         11    1    3    3    0    0 -0.75606122390E+01 -0.18835759196E+02  0.38108300632E+02  0.43176281211E+02  0.51100000000E-03 0. -1.
         22    1    1    0    0    0 -0.18091558958E+02  0.23401900617E+02  0.63866939258E+01  0.30261251086E+02  0.00000000000E+00 0.  1.
</event>
<event>
 4    1  0.8902899E-005  0.9118800E+02  0.7818608E-02  0.1130116E+00
         25   -1    0    0    0    0  0.00000000000E+00  0.00000000000E+00  0.99999998245E-14  0.12500000000E+03  0.12500000000E+03 0.  0.
        -11    1    1    0    0    0  0.73080133998E+01  0.34960753890E+02 -0.38729362218E+02  0.52684199439E+02  0.51100000000E-03 0.  1.
         11    1    1    0    0    0  0.65701225607E+00 -0.16992593009E+02 -0.10030937729E+02  0.19743343036E+02  0.51100000000E-03 0. -1.
         22    1    1    0    0    0 -0.79650256559E+01 -0.17968160882E+02  0.48760299948E+02  0.52572457525E+02  0.00000000000E+00 0.  1.
</event>
<event>
 5    1  0.8902899E-005  0.9118800E+02  0.7818608E-02  0.1130116E+00
         25   -1    0    0    0    0  0.00000000000E+00  0.00000000000E+00  0.99999998245E-14  0.12500000000E+03  0.12500000000E+03 0.  0.
        -11    1    3    3    0    0 -0.29839935997E+02  0.43534323836E+02 -0.36985340509E+00  0.52780639669E+02  0.51100000000E-03 0.  1.
         23    2    1    0    0    0 -0.11836976031E+02  0.12585369431E+02 -0.23814884342E+02  0.95577997323E+02  0.90936787555E+02 0.  0.
         11    1    3    3    0    0  0.18002959965E+02 -0.30948954404E+02 -0.23445030937E+02  0.42797357654E+02  0.51100000000E-03 0. -1.
         22    1    1    0    0    0  0.11836976031E+02 -0.12585369431E+02  0.23814884342E+02  0.29422002677E+02  0.00000000000E+00 0.  1.
</event>
<event>
 5    1  0.8902899E-005  0.9118800E+02  0.7818608E-02  0.1130116E+00
         25   -1    0    0    0    0  0.00000000000E+00  0.00000000000E+00  0.99999998245E-14  0.12500000000E+03  0.12500000000E+03 0.  0.
        -11    1    3    3    0    0 -0.12877381957E+02  0.50566776812E+01  0.35289595379E+02  0.37904518168E+02  0.51100000000E-03 0. -1.
         23    2    1    0    0    0  0.23731106014E+02 -0.18029046807E+02 -0.21345627248E+01  0.95120771773E+02  0.90306106899E+02 0.  0.
         11    1    3    3    0    0  0.36608487970E+02 -0.23085724488E+02 -0.37424158104E+02  0.57216253606E+02  0.51100000000E-03 0.  1.
         22    1    1    0    0    0 -0.23731106014E+02  0.18029046807E+02  0.21345627248E+01  0.29879228227E+02  0.00000000000E+00 0.  1.
</event>
<event>
 5    1  0.8902899E-005  0.9118800E+02  0.7818608E-02  0.1130116E+00
         25   -1    0    0    0    0  0.00000000000E+00  0.00000000000E+00  0.99999998245E-14  0.12500000000E+03  0.12500000000E+03 0.  0.
        -11    1    3    3    0    0  0.10641099685E+02 -0.48322453033E+02 -0.12129320922E+02  0.50945195023E+02  0.51100000000E-03 0. -1.
         23    2    1    0    0    0  0.18817885492E+02 -0.25467688369E+02  0.17158474153E+02  0.88984320074E+02  0.81370019163E+02 0.  0.
         11    1    3    3    0    0  0.81767858064E+01  0.22854764664E+02  0.29287795075E+02  0.38039125051E+02  0.51100000000E-03 0.  1.
         22    1    1    0    0    0 -0.18817885492E+02  0.25467688369E+02 -0.17158474153E+02  0.36015679926E+02  0.00000000000E+00 0. -1.
</event>
<event>
 5    1  0.8902899E-005  0.9118800E+02  0.7818608E-02  0.1130116E+00
         25   -1    0    0    0    0  0.00000000000E+00  0.00000000000E+00  0.99999998245E-14  0.12500000000E+03  0.12500000000E+03 0.  0.
        -11    1    3    3    0    0 -0.60026386898E+01  0.36578126411E+02 -0.36215505341E+01  0.37243880457E+02  0.51100000000E-03 0.  1.
         23    2    1    0    0    0 -0.24887093683E+01 -0.19271796291E+02 -0.21527809725E+02  0.95999269006E+02  0.91514027622E+02 0.  0.
         11    1    3    3    0    0  0.35139293215E+01 -0.55849922702E+02 -0.17906259191E+02  0.58755388549E+02  0.51100000000E-03 0. -1.
         22    1    1    0    0    0  0.24887093683E+01  0.19271796291E+02  0.21527809725E+02  0.29000730994E+02  0.00000000000E+00 0. -1.
</event>
<event>
 5    1  0.8902899E-005  0.9118800E+02  0.7818608E-02  0.1130116E+00
         25   -1    0    0    0    0  0.00000000000E+00  0.00000000000E+00  0.99999998245E-14  0.12500000000E+03  0.12500000000E+03 0.  0.
        -11    1    3    3    0    0 -0.50861952196E+02  0.13119618629E+02 -0.10981811648E+02  0.53662489334E+02  0.51100000000E-03 0. -1.
         23    2    1    0    0    0 -0.12061126113E+02  0.26764787711E+02 -0.46321227826E+01  0.95279953133E+02  0.90526174575E+02 0.  0.
         11    1    3    3    0    0  0.38800826084E+02  0.13645169082E+02  0.63496888658E+01  0.41617463798E+02  0.51100000000E-03 0.  1.
         22    1    1    0    0    0  0.12061126113E+02 -0.26764787711E+02  0.46321227826E+01  0.29720046867E+02  0.00000000000E+00 0. -1.
</event>
<event>
 5    1  0.8902899E-005  0.9118800E+02  0.7818608E-02  0.1130116E+00
         25   -1    0    0    0    0  0.00000000000E+00  0.00000000000E+00  0.99999998245E-14  0.12500000000E+03  0.12500000000E+03 0.  0.
        -11    1    3    3    0    0 -0.25951636290E+02 -0.19542992841E+02 -0.24858984421E+02  0.40907029983E+02  0.51100000000E-03 0.  1.
         23    2    1    0    0    0  0.24926338197E+02  0.53453450942E+00 -0.13032504663E+02  0.96867203465E+02  0.92691967647E+02 0.  0.
         11    1    3    3    0    0  0.50877974487E+02  0.20077527351E+02  0.11826479758E+02  0.55960173482E+02  0.51100000000E-03 0. -1.
         22    1    1    0    0    0 -0.24926338197E+02 -0.53453450942E+00  0.13032504663E+02  0.28132796535E+02  0.00000000000E+00 0. -1.
</event>
<event>
 5    1  0.8902899E-005  0.9118800E+02  0.7818608E-02  0.1130116E+00
         25   -1    0    0    0    0  0.00000000000E+00  0.00000000000E+00  0.99999998245E-14  0.12500000000E+03  0.12500000000E+03 0.  0.
        -11    1    3    3    0    0  0.55816840307E+01  0.54772378072E+02  0.44754743380E+01  0.55237654432E+02  0.51100000000E-03 0.  1.
         23    2    1    0    0    0  0.18371396287E+02  0.20454623972E+02 -0.11505429817E+02  0.95196061357E+02  0.90410261250E+02 0.  0.
         11    1    3    3    0    0  0.12789712256E+02 -0.34317754101E+02 -0.15980904155E+02  0.39958406925E+02  0.51100000000E-03 0. -1.
         22    1    1    0    0    0 -0.18371396287E+02 -0.20454623972E+02  0.11505429817E+02  0.29803938643E+02  0.00000000000E+00 0.  1.
</event>
<event>
 5    1  0.8902899E-005  0.9118800E+02  0.7818608E-02  0.1130116E+00
         25   -1    0    0    0    0  0.00000000000E+00  0.00000000000E+00  0.99999998245E-14  0.12500000000E+03  0.12500000000E+03 0.  0.
        -11    1    3    3    0    0  0.27266574000E+02  0.23712009715E+02  0.50375264057E+02  0.61995102157E+02  0.51100000000E-03 0.  1.
         23    2    1    0    0    0  0.85736150729E+01  0.95980143459E+01  0.27016521809E+02  0.95074739676E+02  0.90242367649E+02 0.  0.
         11    1    3    3    0    0 -0.18692958928E+02 -0.14113995369E+02 -0.23358742247E+02  0.33079637519E+02  0.51100000000E-03 0. -1.
         22    1    1    0    0    0 -0.85736150729E+01 -0.95980143459E+01 -0.27016521809E+02  0.29925260324E+02  0.00000000000E+00 0.  1.
</event>
<event>
 5    1  0.8902899E-005  0.9118800E+02  0.7818608E-02  0.1130116E+00
         25   -1    0    0    0    0  0.00000000000E+00  0.00000000000E+00  0.99999998245E-14  0.12500000000E+03  0.12500000000E+03 0.  0.
        -11    1    3    3    0    0  0.28679935562E+02 -0.20546693126E+02  0.23506104275E+02  0.42393893909E+02  0.51100000000E-03 0. -1.
         23    2    1    0    0    0  0.17888024096E+02  0.25910898034E+02  0.10012989315E+02  0.91960387441E+02  0.85820142509E+02 0.  0.
         11    1    3    3    0    0 -0.10791911467E+02  0.46457591161E+02 -0.13493114960E+02  0.49566493533E+02  0.51100000000E-03 0.  1.
         22    1    1    0    0    0 -0.17888024096E+02 -0.25910898034E+02 -0.10012989315E+02  0.33039612559E+02  0.00000000000E+00 0.  1.
</event>
<event>
 5    1  0.8902899E-005  0.9118800E+02  0.7818608E-02  0.1130116E+00
         25   -1    0    0    0    0  0.00000000000E+00  0.00000000000E+00  0.99999998245E-14  0.12500000000E+03  0.12500000000E+03 0.  0.
        -11    1    3    3    0    0  0.35822875248E+02 -0.14161746652E+02 -0.63753038817E+01  0.39044563759E+02  0.51100000000E-03 0.  1.
         23    2    1    0    0    0 -0.20332587286E+02 -0.13290096979E+02  0.11692602876E+02  0.98041555211E+02  0.94262340320E+02 0.  0.
         11    1    3    3    0    0 -0.56155462534E+02  0.87164967204E+00  0.18067906758E+02  0.58996991452E+02  0.51100000000E-03 0. -1.
         22    1    1    0    0    0  0.20332587286E+02  0.13290096979E+02 -0.11692602876E+02  0.26958444789E+02  0.00000000000E+00 0. -1.
</event>
<event>
 5    1  0.8902899E-005  0.9118800E+02  0.7818608E-02  0.1130116E+00
         25   -1    0    0    0    0  0.00000000000E+00  0.00000000000E+00  0.99999998245E-14  0.12500000000E+03  0.12500000000E+03 0.  0.
        -11    1    3    3    0    0  0.46974493238E+02 -0.35606967881E+00 -0.37479228779E+02  0.60095111205E+02  0.51100000000E-03 0. -1.
         23    2    1    0    0    0  0.14951087772E+02 -0.40108457537E+01 -0.26802061268E+02  0.94048870821E+02  0.88810009038E+02 0.  0.
         11    1    3    3    0    0 -0.32023405466E+02 -0.36547760749E+01  0.10677167511E+02  0.33953759617E+02  0.51100000000E-03 0.  1.
         22    1    1    0    0    0 -0.14951087772E+02  0.40108457537E+01  0.26802061268E+02  0.30951129179E+02  0.00000000000E+00 0. -1.
</event>
<event>
 5    1  0.8902899E-005  0.9118800E+02  0.7818608E-02  0.1130116E+00
         25   -1    0    0    0    0  0.00000000000E+00  0.00000000000E+00  0.99999998245E-14  0.12500000000E+03  0.12500000000E+03 0.  0.
        -11    1    3    3    0    0 -0.51233361742E+02 -0.11506720740E+02  0.45263856626E+01  0.52704365521E+02  0.51100000000E-03 0. -1.
         23    2    1    0    0    0 -0.12731167910E+02 -0.26376740142E+02 -0.55495999666E+01  0.95190385500E+02  0.90402413546E+02 0.  0.
         11    1    3    3    0    0  0.38502193833E+02 -0.14870019402E+02 -0.10075985629E+02  0.42486019978E+02  0.51100000000E-03 0.  1.
         22    1    1    0    0    0  0.12731167910E+02  0.26376740142E+02  0.55495999666E+01  0.29809614500E+02  0.00000000000E+00 0.  1.
</event>
<event>
 5    1  0.8902899E-005  0.9118800E+02  0.7818608E-02  0.1130116E+00
         25   -1    0    0    0    0  0.00000000000E+00  0.00000000000E+00  0.99999998245E-14  0.12500000000E+03  0.12500000000E+03 0.  0.
        -11    1    3    3    0    0  0.28543774839E+02 -0.25027190089E+02  0.21906562552E+02  0.43829268861E+02  0.51100000000E-03 0.  1.
         23    2    1    0    0    0 -0.66201640402E+00  0.19185232364E+02  0.20612390871E+02  0.96832961391E+02  0.92645778899E+02 0.  0.
         11    1    3    3    0    0 -0.29205791243E+02  0.44212422453E+02 -0.12941716809E+01  0.53003692530E+02  0.51100000000E-03 0. -1.
         22    1    1    0    0    0  0.66201640402E+00 -0.19185232364E+02 -0.20612390871E+02  0.28167038609E+02  0.00000000000E+00 0. -1.
</event>
<event>
 5    1  0.8902899E-005  0.9118800E+02  0.7818608E-02  0.1130116E+00
         25   -1    0    0    0    0  0.00000000000E+00  0.00000000000E+00  0.99999998245E-14  0.12500000000E+03  0.12500000000E+03 0.  0.
        -11    1    3    3    0    0  0.25319492475E+02 -0.27292719900E+02 -0.30198553724E+02  0.47936644710E+02  0.51100000000E-03 0. -1.
         23    2    1    0    0    0  0.14949152692E+02  0.18425264270E+02 -0.13500247455E+02  0.97701204954E+02  0.93809920789E+02 0.  0.
         11    1    3    3    0    0 -0.10370339783E+02  0.45717984170E+02  0.16698306269E+02  0.49764560244E+02  0.51100000000E-03 0.  1.
         22    1    1    0    0    0 -0.14949152692E+02 -0.18425264270E+02  0.13500247455E+02  0.27298795046E+02  0.00000000000E+00 0. -1.
</event>
<event>
 5    1  0.8902899E-005  0.9118800E+02  0.7818608E-02  0.1130116E+00
         25   -1    0    0    0    0  0.00000000000E+00  0.00000000000E+00  0.99999998245E-14  0.12500000000E+03  0.12500000000E+03 0.  0.
        -11    1    3    3    0    0 -0.26135607519E+02 -0.20929638361E+02  0.36337187958E+02  0.49411648134E+02  0.51100000000E-03 0.  1.
         23    2    1    0    0    0 -0.26085767521E+02 -0.30366354377E+01 -0.82642999073E+01  0.97468434936E+02  0.93499244564E+02 0.  0.
         11    1    3    3    0    0  0.49839998928E-01  0.17893002923E+02 -0.44601487866E+02  0.48056786802E+02  0.51100000000E-03 0. -1.
         22    1    1    0    0    0  0.26085767521E+02  0.30366354377E+01  0.82642999073E+01  0.27531565064E+02  0.00000000000E+00 0.  1.
</event>
<event>
 5    1  0.8902899E-005  0.9118800E+02  0.7818608E-02  0.1130116E+00
         25   -1    0    0    0    0  0.00000000000E+00  0.00000000000E+00  0.99999998245E-14  0.12500000000E+03  0.12500000000E+03 0.  0.
        -11    1    3    3    0    0 -0.10162680442E+02 -0.43099104018E+02  0.38137758076E+02  0.58440580355E+02  0.51100000000E-03 0. -1.
         23    2    1    0    0    0 -0.19740933305E+02 -0.15142262157E+02  0.15259302450E+02  0.95813721336E+02  0.91260234133E+02 0.  0.
         11    1    3    3    0    0 -0.95782528632E+01  0.27956841860E+02 -0.22878455626E+02  0.37373140981E+02  0.51100000000E-03 0.  1.
         22    1    1    0    0    0  0.19740933305E+02  0.15142262157E+02 -0.15259302450E+02  0.29186278664E+02  0.00000000000E+00 0. -1.
</event>
<event>
 5    1  0.8902899E-005  0.9118800E+02  0.7818608E-02  0.1130116E+00
         25   -1    0    0    0    0  0.00000000000E+00  0.00000000000E+00  0.99999998245E-14  0.12500000000E+03  0.12500000000E+03 0.  0.
        -11    1    3    3    0    0 -0.21800285157E+02 -0.19995674116E+02  0.24533173860E+02  0.38431185725E+02  0.51100000000E-03 0.  1.
         23    2    1    0    0    0  0.64354091717E+01  0.27208081956E+02  0.97880916694E+01  0.95377357419E+02  0.90660572217E+02 0.  0.
         11    1    3    3    0    0  0.28235694329E+02  0.47203756073E+02 -0.14745082190E+02  0.56946171695E+02  0.51100000000E-03 0. -1.
         22    1    1    0    0    0 -0.64354091717E+01 -0.27208081956E+02 -0.97880916694E+01  0.29622642581E+02  0.00000000000E+00 0. -1.
</event>
<event>
 5    1  0.8902899E-005  0.9118800E+02  0.7818608E-02  0.1130116E+00
         25   -1    0    0    0    0  0.00000000000E+00  0.00000000000E+00  0.99999998245E-14  0.12500000000E+03  0.12500000000E+03 0.  0.
        -11    1    3    3    0    0 -0.33916068606E+02  0.34479074382E+02  0.87966300379E+01  0.49157776396E+02  0.51100000000E-03 0. -1.
         23    2    1    0    0    0 -0.12101890761E+02 -0.11522005787E+01 -0.21180789900E+02  0.10057850973E+03  0.97568578101E+02 0.  0.
         11    1    3    3    0    0  0.21814177845E+02 -0.35631274960E+02 -0.29977419938E+02  0.51420733335E+02  0.51100000000E-03 0.  1.
         22    1    1    0    0    0  0.12101890761E+02  0.11522005787E+01  0.21180789900E+02  0.24421490269E+02  0.00000000000E+00 0.  1.
</event>
<event>
 5    1  0.8902899E-005  0.9118800E+02  0.7818608E-02  0.1130116E+00
         25   -1    0    0    0    0  0.00000000000E+00  0.00000000000E+00  0.99999998245E-14  0.12500000000E+03  0.12500000000E+03 0.  0.
        -11    1    3    3    0    0 -0.56827092482E+01  0.57642553091E+01  0.31675565615E+02  0.32693444006E+02  0.51100000000E-03 0. -1.
         23    2    1    0    0    0 -0.13963829856E+01 -0.90445918098E+01 -0.28632318131E+02  0.94940655895E+02  0.90056448818E+02 0.  0.
         11    1    3    3    0    0  0.42863262626E+01 -0.14808847119E+02 -0.60307883746E+02  0.62247211889E+02  0.51100000000E-03 0.  1.
         22    1    1    0    0    0  0.13963829856E+01  0.90445918098E+01  0.28632318131E+02  0.30059344105E+02  0.00000000000E+00 0.  1.
</event>
<event>
 5    1  0.8902899E-005  0.9118800E+02  0.7818608E-02  0.1130116E+00
         25   -1    0    0    0    0  0.00000000000E+00  0.00000000000E+00  0.99999998245E-14  0.12500000000E+03  0.12500000000E+03 0.  0.
        -11    1    3    3    0    0 -0.28432580607E+02 -0.13735800722E+02 -0.47293766684E+02  0.56866371688E+02  0.51100000000E-03 0.  1.
         23    2    1    0    0    0  0.25731322531E+01 -0.32691128167E+01 -0.31542136437E+02  0.93184681689E+02  0.87585218058E+02 0.  0.
         11    1    3    3    0    0  0.31005712860E+02  0.10466687905E+02  0.15751630247E+02  0.36318310002E+02  0.51100000000E-03 0. -1.
         22    1    1    0    0    0 -0.25731322531E+01  0.32691128167E+01  0.31542136437E+02  0.31815318311E+02  0.00000000000E+00 0.  1.
</event>
<event>
 5    1  0.8902899E-005  0.9118800E+02  0.7818608E-02  0.1130116E+00
         25   -1    0    0    0    0  0.00000000000E+00  0.00000000000E+00  0.99999998245E-14  0.12500000000E+03  0.12500000000E+03 0.  0.
        -11    1    3    3    0    0  0.24771815911E+02 -0.48509551316E+02 -0.16220883565E+02  0.56832530265E+02  0.51100000000E-03 0. -1.
         23    2    1    0    0    0  0.69192472209E+01 -0.25953485042E+02  0.10563293912E+02  0.96137523561E+02  0.91702676570E+02 0.  0.
         11    1    3    3    0    0 -0.17852568690E+02  0.22556066274E+02  0.26784177477E+02  0.39304993296E+02  0.51100000000E-03 0.  1.
         22    1    1    0    0    0 -0.69192472209E+01  0.25953485042E+02 -0.10563293912E+02  0.28862476439E+02  0.00000000000E+00 0. -1.
</event>
<event>
 5    1  0.8902899E-005  0.9118800E+02  0.7818608E-02  0.1130116E+00
         25   -1    0    0    0    0  0.00000000000E+00  0.00000000000E+00  0.99999998245E-14  0.12500000000E+03  0.12500000000E+03 0.  0.
        -11    1    3    3    0    0  0.53204817544E+02 -0.27559628980E+02  0.65641164906E+01  0.60277469962E+02  0.51100000000E-03 0.  1.
         23    2    1    0    0    0  0.26158909721E+02 -0.26623428427E+02  0.35233439373E+01  0.87509875280E+02  0.79072554152E+02 0.  0.
         11    1    3    3    0    0 -0.27045907823E+02  0.93620055256E+00 -0.30407725534E+01  0.27232405319E+02  0.51100000000E-03 0. -1.
         22    1    1    0    0    0 -0.26158909721E+02  0.26623428427E+02 -0.35233439373E+01  0.37490124720E+02  0.00000000000E+00 0.  1.
</event>
<event>
 5    1  0.8902899E-005  0.9118800E+02  0.7818608E-02  0.1130116E+00
         25   -1    0    0    0    0  0.00000000000E+00  0.00000000000E+00  0.99999998245E-14  0.12500000000E+03  0.12500000000E+03 0.  0.
        -11    1    3    3    0    0 -0.33501128395E+02  0.10163249260E+02  0.41680832797E+02  0.54432610282E+02  0.51100000000E-03 0. -1.
         23    2    1    0    0    0 -0.30603310826E+02 -0.55377225096E+01  0.62735131932E+01  0.93273260932E+02  0.87711545608E+02 0.  0.
         11    1    3    3    0    0  0.28978175686E+01 -0.15700971769E+02 -0.35407319603E+02  0.38840650650E+02  0.51100000000E-03 0.  1.
         22    1    1    0    0    0  0.30603310826E+02  0.55377225096E+01 -0.62735131932E+01  0.31726739068E+02  0.00000000000E+00 0. -1.
</event>
<event>
 5    1  0.8902899E-005  0.9118800E+02  0.7818608E-02  0.1130116E+00
         25   -1    0    0    0    0  0.00000000000E+00  0.00000000000E+00  0.99999998245E-14  0.12500000000E+03  0.12500000000E+03 0.  0.
        -11    1    3    3    0    0 -0.44804031305E+02  0.21304077710E+02 -0.26798894970E+02  0.56386573935E+02  0.51100000000E-03 0. -1.
         23    2    1    0    0    0 -0.13666359771E+02 -0.14586176160E-01 -0.27676484164E+02  0.94133231821E+02  0.88928667792E+02 0.  0.
         11    1    3    3    0    0  0.31137671534E+02 -0.21318663886E+02 -0.87758919378E+00  0.37746657885E+02  0.51100000000E-03 0.  1.
         22    1    1    0    0    0  0.13666359771E+02  0.14586176160E-01  0.27676484164E+02  0.30866768179E+02  0.00000000000E+00 0. -1.
</event>
<event>
 5    1  0.8902899E-005  0.9118800E+02  0.7818608E-02  0.1130116E+00
         25   -1    0    0    0    0  0.00000000000E+00  0.00000000000E+00  0.99999998245E-14  0.12500000000E+03  0.12500000000E+03 0.  0.
        -11    1    3    3    0    0  0.23511130883E+02  0.25479668870E+02 -0.27532574312E+01  0.34778833044E+02  0.51100000000E-03 0. -1.
         23    2    1    0    0    0 -0.57812289895E+01 -0.27821780097E+02 -0.69590291061E+01  0.95744194722E+02  0.91164953137E+02 0.  0.
         11    1    3    3    0    0 -0.29292359873E+02 -0.53301448967E+02 -0.42057716748E+01  0.60965361678E+02  0.51100000000E-03 0.  1.
         22    1    1    0    0    0  0.57812289895E+01  0.27821780097E+02  0.69590291061E+01  0.29255805278E+02  0.00000000000E+00 0.  1.
</event>
<event>
 5    1  0.8902899E-005  0.9118800E+02  0.7818608E-02  0.1130116E+00
         25   -1    0    0    0    0  0.00000000000E+00  0.00000000000E+00  0.99999998245E-14  0.12500000000E+03  0.12500000000E+03 0.  0.
        -11    1    3    3    0    0  0.18538475824E+01 -0.26170328577E+02  0.13814329087E+02  0.29650607701E+02  0.51100000000E-03 0. -1.
         23    2    1    0    0    0 -0.14910761116E+02  0.31153363590E+02  0.69642859197E+01  0.89767002138E+02  0.82563615076E+02 0.  0.
         11    1    3    3    0    0 -0.16764608698E+02  0.57323692166E+02 -0.68500431674E+01  0.60116394436E+02  0.51100000000E-03 0.  1.
         22    1    1    0    0    0  0.14910761116E+02 -0.31153363590E+02 -0.69642859197E+01  0.35232997862E+02  0.00000000000E+00 0.  1.
</event>
<event>
 5    1  0.8902899E-005  0.9118800E+02  0.7818608E-02  0.1130116E+00
         25   -1    0    0    0    0  0.00000000000E+00  0.00000000000E+00  0.99999998245E-14  0.12500000000E+03  0.12500000000E+03 0.  0.
        -11    1    3    3    0    0  0.54686943936E+02 -0.20844881947E+02 -0.92808414873E+01  0.59256265149E+02  0.51100000000E-03 0.  1.
         23    2    1    0    0    0  0.33743016643E+02  0.11574648794E+01  0.69734965654E+00  0.91229936428E+02  0.84749537503E+02 0.  0.
         11    1    3    3    0    0 -0.20943927293E+02  0.22002346826E+02  0.99781911439E+01  0.31973671279E+02  0.51100000000E-03 0. -1.
         22    1    1    0    0    0 -0.33743016643E+02 -0.11574648794E+01 -0.69734965654E+00  0.33770063572E+02  0.00000000000E+00 0.  1.
</event>
<event>
 5    1  0.8902899E-005  0.9118800E+02  0.7818608E-02  0.1130116E+00
         25   -1    0    0    0    0  0.00000000000E+00  0.00000000000E+00  0.99999998245E-14  0.12500000000E+03  0.12500000000E+03 0.  0.
        -11    1    3    3    0    0  0.24387779780E+02  0.47616965938E+02 -0.86872816707E+01  0.54199705819E+02  0.51100000000E-03 0.  1.
         23    2    1    0    0    0 -0.98340078653E+01  0.30142599994E+02 -0.61046327786E+01  0.92711448059E+02  0.86907203469E+02 0.  0.
         11    1    3    3    0    0 -0.34221787645E+02 -0.17474365945E+02  0.25826488921E+01  0.38511742240E+02  0.51100000000E-03 0. -1.
         22    1    1    0    0    0  0.98340078653E+01 -0.30142599994E+02  0.61046327786E+01  0.32288551941E+02  0.00000000000E+00 0. -1.
</event>
<event>
 5    1  0.8902899E-005  0.9118800E+02  0.7818608E-02  0.1130116E+00
         25   -1    0    0    0    0  0.00000000000E+00  0.00000000000E+00  0.99999998245E-14  0.12500000000E+03  0.12500000000E+03 0.  0.
        -11    1    3    3    0    0 -0.17266095070E+02  0.32842864409E+02 -0.23565202316E+02  0.43955551890E+02  0.51100000000E-03 0. -1.
         23    2    1    0    0    0 -0.24109745645E+02 -0.35492757435E+01  0.14157887243E+02  0.96816264184E+02  0.92623247870E+02 0.  0.
         11    1    3    3    0    0 -0.68436505745E+01 -0.36392140152E+02  0.37723089559E+02  0.52860712293E+02  0.51100000000E-03 0.  1.
         22    1    1    0    0    0  0.24109745645E+02  0.35492757435E+01 -0.14157887243E+02  0.28183735816E+02  0.00000000000E+00 0.  1.
</event>
<event>
 5    1  0.8902899E-005  0.9118800E+02  0.7818608E-02  0.1130116E+00
         25   -1    0    0    0    0  0.00000000000E+00  0.00000000000E+00  0.99999998245E-14  0.12500000000E+03  0.12500000000E+03 0.  0.
        -11    1    3    3    0    0 -0.84054666798E+01  0.24694981977E+02  0.34303772579E+02  0.43095740142E+02  0.51100000000E-03 0.  1.
         23    2    1    0    0    0 -0.11182167344E+02 -0.23539033642E+02  0.11874673827E+02  0.96362003390E+02  0.92008156419E+02 0.  0.
         11    1    3    3    0    0 -0.27767006642E+01 -0.48234015620E+02 -0.22429098752E+02  0.53266263249E+02  0.51100000000E-03 0. -1.
         22    1    1    0    0    0  0.11182167344E+02  0.23539033642E+02 -0.11874673827E+02  0.28637996610E+02  0.00000000000E+00 0. -1.
</event>
<event>
 5    1  0.8902899E-005  0.9118800E+02  0.7818608E-02  0.1130116E+00
         25   -1    0    0    0    0  0.00000000000E+00  0.00000000000E+00  0.99999998245E-14  0.12500000000E+03  0.12500000000E+03 0.  0.
        -11    1    3    3    0    0  0.19564381876E+02  0.88077839039E+01  0.30128895333E+02  0.36987733503E+02  0.51100000000E-03 0. -1.
         23    2    1    0    0    0 -0.17593626631E+02 -0.23960615156E+02 -0.56561781566E+00  0.95268422508E+02  0.90510251502E+02 0.  0.
         11    1    3    3    0    0 -0.37158008507E+02 -0.32768399060E+02 -0.30694513149E+02  0.58280689004E+02  0.51100000000E-03 0.  1.
         22    1    1    0    0    0  0.17593626631E+02  0.23960615156E+02  0.56561781566E+00  0.29731577492E+02  0.00000000000E+00 0.  1.
</event>
<event>
 5    1  0.8902899E-005  0.9118800E+02  0.7818608E-02  0.1130116E+00
         25   -1    0    0    0    0  0.00000000000E+00  0.00000000000E+00  0.99999998245E-14  0.12500000000E+03  0.12500000000E+03 0.  0.
        -11    1    3    3    0    0  0.34718816628E+02  0.44374048183E+02  0.12616727230E+02  0.57737632325E+02  0.51100000000E-03 0. -1.
         23    2    1    0    0    0  0.11467590827E+02  0.92022014143E+01  0.19624366871E+02  0.10047854153E+03  0.97440419659E+02 0.  0.
         11    1    3    3    0    0 -0.23251225801E+02 -0.35171846769E+02  0.70076396414E+01  0.42740909209E+02  0.51100000000E-03 0.  1.
         22    1    1    0    0    0 -0.11467590827E+02 -0.92022014143E+01 -0.19624366871E+02  0.24521458467E+02  0.00000000000E+00 0. -1.
</event>
<event>
 5    1  0.8902899E-005  0.9118800E+02  0.7818608E-02  0.1130116E+00
         25   -1    0    0    0    0  0.00000000000E+00  0.00000000000E+00  0.99999998245E-14  0.12500000000E+03  0.12500000000E+03 0.  0.
        -11    1    3    3    0    0  0.27412998221E+02  0.32446864017E+02  0.12625273543E+02  0.44313304868E+02  0.51100000000E-03 0.  1.
         23    2    1    0    0    0 -0.18847222575E+02  0.10131232352E+02  0.19396930955E+02  0.96119200180E+02  0.91677696551E+02 0.  0.
         11    1    3    3    0    0 -0.46260220796E+02 -0.22315631665E+02  0.67716574118E+01  0.51805895312E+02  0.51100000000E-03 0. -1.
         22    1    1    0    0    0  0.18847222575E+02 -0.10131232352E+02 -0.19396930955E+02  0.28880799820E+02  0.00000000000E+00 0.  1.
</event>
<event>
 5    1  0.8902899E-005  0.9118800E+02  0.7818608E-02  0.1130116E+00
         25   -1    0    0    0    0  0.00000000000E+00  0.00000000000E+00  0.99999998245E-14  0.12500000000E+03  0.12500000000E+03 0.  0.
        -11    1    3    3    0    0 -0.82590227495E+01  0.21784921282E+02 -0.23931440376E+02  0.33399222907E+02  0.51100000000E-03 0.  1.
         23    2    1    0    0    0  0.68744369507E+00 -0.29877434247E+02  0.70425496066E+01  0.94296072548E+02  0.89157266317E+02 0.  0.
         11    1    3    3    0    0  0.89464664445E+01 -0.51662355528E+02  0.30973989983E+02  0.60896849642E+02  0.51100000000E-03 0. -1.
         22    1    1    0    0    0 -0.68744369507E+00  0.29877434247E+02 -0.70425496066E+01  0.30703927452E+02  0.00000000000E+00 0. -1.
</event>
<event>
 5    1  0.8902899E-005  0.9118800E+02  0.7818608E-02  0.1130116E+00
         25   -1    0    0    0    0  0.00000000000E+00  0.00000000000E+00  0.99999998245E-14  0.12500000000E+03  0.12500000000E+03 0.  0.
        -11    1    3    3    0    0  0.15779967349E+02  0.27178691822E+02 -0.11959463884E+02  0.33626142142E+02  0.51100000000E-03 0. -1.
         23    2    1    0    0    0 -0.17917333703E+02 -0.15105197540E+02  0.18008829826E+02  0.95444699435E+02  0.90753373815E+02 0.  0.
         11    1    3    3    0    0 -0.33697301052E+02 -0.42283889362E+02  0.29968293710E+02  0.61818557294E+02  0.51100000000E-03 0.  1.
         22    1    1    0    0    0  0.17917333703E+02  0.15105197540E+02 -0.18008829826E+02  0.29555300565E+02  0.00000000000E+00 0.  1.
</event>
<event>
 5    1  0.8902899E-005  0.9118800E+02  0.7818608E-02  0.1130116E+00
         25   -1    0    0    0    0  0.00000000000E+00  0.00000000000E+00  0.99999998245E-14  0.12500000000E+03  0.12500000000E+03 0.  0.
        -11    1    3    3    0    0  0.47194027501E+02  0.21274412665E+02  0.32086187317E+02  0.60904846136E+02  0.51100000000E-03 0.  1.
         23    2    1    0    0    0  0.17538351861E+02  0.63128488206E+01  0.23104659531E+02  0.95313788752E+02  0.90572883293E+02 0.  0.
         11    1    3    3    0    0 -0.29655675640E+02 -0.14961563845E+02 -0.89815277865E+01  0.34408942616E+02  0.51100000000E-03 0. -1.
         22    1    1    0    0    0 -0.17538351861E+02 -0.63128488206E+01 -0.23104659531E+02  0.29686211248E+02  0.00000000000E+00 0.  1.
</event>
<event>
 5    1  0.8902899E-005  0.9118800E+02  0.7818608E-02  0.1130116E+00
         25   -1    0    0    0    0  0.00000000000E+00  0.00000000000E+00  0.99999998245E-14  0.12500000000E+03  0.12500000000E+03 0.  0.
        -11    1    3    3    0    0  0.47028905473E+02 -0.17958964338E+02  0.32819881005E+02  0.60094816245E+02  0.51100000000E-03 0.  1.
         23    2    1    0    0    0  0.13586842621E+02 -0.17224441139E+02  0.17738696615E+02  0.96787502370E+02  0.92584424135E+02 0.  0.
         11    1    3    3    0    0 -0.33442062852E+02  0.73452319822E+00 -0.15081184391E+02  0.36692686124E+02  0.51100000000E-03 0. -1.
         22    1    1    0    0    0 -0.13586842621E+02  0.17224441139E+02 -0.17738696615E+02  0.28212497630E+02  0.00000000000E+00 0.  1.
</event>
<event>
 5    1  0.8902899E-005  0.9118800E+02  0.7818608E-02  0.1130116E+00
         25   -1    0    0    0    0  0.00000000000E+00  0.00000000000E+00  0.99999998245E-14  0.12500000000E+03  0.12500000000E+03 0.  0.
        -11    1    3    3    0    0  0.22875894020E+02  0.12793151736E+02  0.18904263010E+02  0.32316287205E+02  0.51100000000E-03 0. -1.
         23    2    1    0    0    0 -0.25439162818E+01 -0.35198393292E+02  0.14647219510E+02  0.86790846126E+02  0.77927604425E+02 0.  0.
         11    1    3    3    0    0 -0.25419810301E+02 -0.47991545028E+02 -0.42570435000E+01  0.54474558920E+02  0.51100000000E-03 0.  1.
         22    1    1    0    0    0  0.25439162818E+01  0.35198393292E+02 -0.14647219510E+02  0.38209153874E+02  0.00000000000E+00 0.  1.
</event>
<event>
 5    1  0.8902899E-005  0.9118800E+02  0.7818608E-02  0.1130116E+00
         25   -1    0    0    0    0  0.00000000000E+00  0.00000000000E+00  0.99999998245E-14  0.12500000000E+03  0.12500000000E+03 0.  0.
        -11    1    3    3    0    0 -0.19161308671E+02 -0.20219777858E+02  0.19829238377E+02  0.34193476885E+02  0.51100000000E-03 0.  1.
         23    2    1    0    0    0  0.39463445495E+01  0.20776727019E+02 -0.20034803548E+02  0.95868584412E+02  0.91335349690E+02 0.  0.
         11    1    3    3    0    0  0.23107653221E+02  0.40996504878E+02 -0.39864041925E+02  0.61675107527E+02  0.51100000000E-03 0. -1.
         22    1    1    0    0    0 -0.39463445495E+01 -0.20776727019E+02  0.20034803548E+02  0.29131415588E+02  0.00000000000E+00 0. -1.
</event>
<event>
 5    1  0.8902899E-005  0.9118800E+02  0.7818608E-02  0.1130116E+00
         25   -1    0    0    0    0  0.00000000000E+00  0.00000000000E+00  0.99999998245E-14  0.12500000000E+03  0.12500000000E+03 0.  0.
        -11    1    3    3    0    0 -0.28452303053E+02  0.35301677880E+02 -0.65351433814E+01  0.45808843136E+02  0.51100000000E-03 0. -1.
         23    2    1    0    0    0  0.13330983499E+02  0.10528265532E+02 -0.22380178950E+02  0.96903169111E+02  0.92740456532E+02 0.  0.
         11    1    3    3    0    0  0.41783286552E+02 -0.24773412348E+02 -0.15845035569E+02  0.51094325975E+02  0.51100000000E-03 0.  1.
         22    1    1    0    0    0 -0.13330983499E+02 -0.10528265532E+02  0.22380178950E+02  0.28096830889E+02  0.00000000000E+00 0.  1.
</event>
<event>
 5    1  0.8902899E-005  0.9118800E+02  0.7818608E-02  0.1130116E+00
         25   -1    0    0    0    0  0.00000000000E+00  0.00000000000E+00  0.99999998245E-14  0.12500000000E+03  0.12500000000E+03 0.  0.
        -11    1    3    3    0    0  0.19151637987E+02  0.29604430675E+02 -0.28507759454E+02  0.45342032404E+02  0.51100000000E-03 0.  1.
         23    2    1    0    0    0 -0.54528678108E+01 -0.16754828333E+02 -0.19717342174E+02  0.98557011851E+02  0.94943419797E+02 0.  0.
         11    1    3    3    0    0 -0.24604505798E+02 -0.46359259008E+02  0.87904172792E+01  0.53214979447E+02  0.51100000000E-03 0. -1.
         22    1    1    0    0    0  0.54528678108E+01  0.16754828333E+02  0.19717342174E+02  0.26442988149E+02  0.00000000000E+00 0.  1.
</event>
<event>
 5    1  0.8902899E-005  0.9118800E+02  0.7818608E-02  0.1130116E+00
         25   -1    0    0    0    0  0.00000000000E+00  0.00000000000E+00  0.99999998245E-14  0.12500000000E+03  0.12500000000E+03 0.  0.
        -11    1    3    3    0    0  0.38037922006E+02  0.22031818119E+01 -0.27304864014E+02  0.46875293276E+02  0.51100000000E-03 0. -1.
         23    2    1    0    0    0  0.10560353782E+02 -0.20733249269E+02  0.10968030143E+02  0.99276734607E+02  0.95886305862E+02 0.  0.
         11    1    3    3    0    0 -0.27477568224E+02 -0.22936431081E+02  0.38272894157E+02  0.52401441332E+02  0.51100000000E-03 0.  1.
         22    1    1    0    0    0 -0.10560353782E+02  0.20733249269E+02 -0.10968030143E+02  0.25723265393E+02  0.00000000000E+00 0.  1.
</event>
<event>
 5    1  0.8902899E-005  0.9118800E+02  0.7818608E-02  0.1130116E+00
         25   -1    0    0    0    0  0.00000000000E+00  0.00000000000E+00  0.99999998245E-14  0.12500000000E+03  0.12500000000E+03 0.  0.
        -11    1    3    3    0    0  0.22504289563E+02  0.26242135146E+02 -0.70341140670E+01  0.35278484473E+02  0.51100000000E-03 0.  1.
         23    2    1    0    0    0 -0.11965038654E+01 -0.28925203713E+02  0.19245998140E+01  0.95986156480E+02  0.91496115328E+02 0.  0.
         11    1    3    3    0    0 -0.23700793428E+02 -0.55167338859E+02  0.89587138811E+01  0.60707672007E+02  0.51100000000E-03 0. -1.
         22    1    1    0    0    0  0.11965038654E+01  0.28925203713E+02 -0.19245998140E+01  0.29013843520E+02  0.00000000000E+00 0. -1.
</event>
<event>
 5    1  0.8902899E-005  0.9118800E+02  0.7818608E-02  0.1130116E+00
         25   -1    0    0    0    0  0.00000000000E+00  0.00000000000E+00  0.99999998245E-14  0.12500000000E+03  0.12500000000E+03 0.  0.
        -11    1    3    3    0    0  0.17361976873E+02  0.35736437074E+02  0.17757561261E+02  0.43518526605E+02  0.51100000000E-03 0. -1.
         23    2    1    0    0    0 -0.17226607817E+02  0.76765469512E+01 -0.16683215003E+02  0.99820344466E+02  0.96592370902E+02 0.  0.
         11    1    3    3    0    0 -0.34588584690E+02 -0.28059890122E+02 -0.34440776264E+02  0.56301817861E+02  0.51100000000E-03 0.  1.
         22    1    1    0    0    0  0.17226607817E+02 -0.76765469512E+01  0.16683215003E+02  0.25179655534E+02  0.00000000000E+00 0.  1.
</event>
<event>
 5    1  0.8902899E-005  0.9118800E+02  0.7818608E-02  0.1130116E+00
         25   -1    0    0    0    0  0.00000000000E+00  0.00000000000E+00  0.99999998245E-14  0.12500000000E+03  0.12500000000E+03 0.  0.
        -11    1    3    3    0    0 -0.24476991560E+02  0.24735384886E+02  0.51264939806E+01  0.35174469749E+02  0.51100000000E-03 0.  1.
         23    2    1    0    0    0  0.13817297683E+01 -0.29162578542E+02 -0.35827945789E+01  0.95585690874E+02  0.90947362351E+02 0.  0.
         11    1    3    3    0    0  0.25858721328E+02 -0.53897963428E+02 -0.87092885595E+01  0.60411221126E+02  0.51100000000E-03 0. -1.
         22    1    1    0    0    0 -0.13817297683E+01  0.29162578542E+02  0.35827945789E+01  0.29414309126E+02  0.00000000000E+00 0. -1.
</event>
<event>
 5    1  0.8902899E-005  0.9118800E+02  0.7818608E-02  0.1130116E+00
         25   -1    0    0    0    0  0.00000000000E+00  0.00000000000E+00  0.99999998245E-14  0.12500000000E+03  0.12500000000E+03 0.  0.
        -11    1    3    3    0    0  0.25179029571E+02  0.22191465883E+02  0.84223100970E+01  0.34603178984E+02  0.51100000000E-03 0. -1.
         23    2    1    0    0    0 -0.14491751913E+02 -0.15751913853E+02 -0.19369841642E+02  0.96132640772E+02  0.91696020596E+02 0.  0.
         11    1    3    3    0    0 -0.39670781484E+02 -0.37943379736E+02 -0.27792151739E+02  0.61529461788E+02  0.51100000000E-03 0.  1.
         22    1    1    0    0    0  0.14491751913E+02  0.15751913853E+02  0.19369841642E+02  0.28867359228E+02  0.00000000000E+00 0.  1.
</event>
<event>
 5    1  0.8902899E-005  0.9118800E+02  0.7818608E-02  0.1130116E+00
         25   -1    0    0    0    0  0.00000000000E+00  0.00000000000E+00  0.99999998245E-14  0.12500000000E+03  0.12500000000E+03 0.  0.
        -11    1    3    3    0    0 -0.28032337391E+02  0.27118237296E+02 -0.26678718505E+02  0.47254256474E+02  0.51100000000E-03 0. -1.
         23    2    1    0    0    0 -0.23277423597E+02 -0.29344672734E+01  0.13713807630E+02  0.97824311100E+02  0.93973814305E+02 0.  0.
         11    1    3    3    0    0  0.47549137942E+01 -0.30052704569E+02  0.40392526134E+02  0.50570054626E+02  0.51100000000E-03 0.  1.
         22    1    1    0    0    0  0.23277423597E+02  0.29344672734E+01 -0.13713807630E+02  0.27175688900E+02  0.00000000000E+00 0. -1.
</event>
<event>
 5    1  0.8902899E-005  0.9118800E+02  0.7818608E-02  0.1130116E+00
         25   -1    0    0    0    0  0.00000000000E+00  0.00000000000E+00  0.99999998245E-14  0.12500000000E+03  0.12500000000E+03 0.  0.
        -11    1    3    3    0    0 -0.43970226668E+02 -0.96247877258E+01 -0.34420865780E+02  0.56664039507E+02  0.51100000000E-03 0.  1.
         23    2    1    0    0    0 -0.23716106450E+02 -0.15856379636E+02 -0.73383315916E+00  0.96462007930E+02  0.92143919943E+02 0.  0.
         11    1    3    3    0    0  0.20254120218E+02 -0.62315919102E+01  0.33687032621E+02  0.39797968423E+02  0.51100000000E-03 0. -1.
         22    1    1    0    0    0  0.23716106450E+02  0.15856379636E+02  0.73383315916E+00  0.28537992070E+02  0.00000000000E+00 0.  1.
</event>
<event>
 5    1  0.8902899E-005  0.9118800E+02  0.7818608E-02  0.1130116E+00
         25   -1    0    0    0    0  0.00000000000E+00  0.00000000000E+00  0.99999998245E-14  0.12500000000E+03  0.12500000000E+03 0.  0.
        -11    1    3    3    0    0  0.34950317956E+02  0.21864494131E+02 -0.31928481582E+02  0.52144115346E+02  0.51100000000E-03 0.  1.
         23    2    1    0    0    0  0.27047346305E+02  0.10942624607E+01  0.70633158957E+01  0.97024175009E+02  0.92903410875E+02 0.  0.
         11    1    3    3    0    0 -0.79029716506E+01 -0.20770231671E+02  0.38991797477E+02  0.44880059663E+02  0.51100000000E-03 0. -1.
         22    1    1    0    0    0 -0.27047346305E+02 -0.10942624607E+01 -0.70633158957E+01  0.27975824991E+02  0.00000000000E+00 0.  1.
</event>
<event>
 5    1  0.8902899E-005  0.9118800E+02  0.7818608E-02  0.1130116E+00
         25   -1    0    0    0    0  0.00000000000E+00  0.00000000000E+00  0.99999998245E-14  0.12500000000E+03  0.12500000000E+03 0.  0.
        -11    1    3    3    0    0  0.13088986221E+02  0.41273468392E+02  0.30299155310E+02  0.52847512393E+02  0.51100000000E-03 0. -1.
         23    2    1    0    0    0  0.13088085323E+02  0.21327185449E+02 -0.10188942579E+02  0.97982202765E+02  0.94183600967E+02 0.  0.
         11    1    3    3    0    0 -0.90089809449E-03 -0.19946282943E+02 -0.40488097889E+02  0.45134690372E+02  0.51100000000E-03 0.  1.
         22    1    1    0    0    0 -0.13088085323E+02 -0.21327185449E+02  0.10188942579E+02  0.27017797235E+02  0.00000000000E+00 0. -1.
</event>
<event>
 5    1  0.8902899E-005  0.9118800E+02  0.7818608E-02  0.1130116E+00
         25   -1    0    0    0    0  0.00000000000E+00  0.00000000000E+00  0.99999998245E-14  0.12500000000E+03  0.12500000000E+03 0.  0.
        -11    1    3    3    0    0 -0.25172019799E+02  0.16797007858E+01 -0.20569650209E+02  0.32550921423E+02  0.51100000000E-03 0.  1.
         23    2    1    0    0    0  0.26019899900E+02 -0.10631746222E+02  0.11973400248E+02  0.94447888256E+02  0.89369861050E+02 0.  0.
         11    1    3    3    0    0  0.51191919699E+02 -0.12311447007E+02  0.32543050456E+02  0.61896966833E+02  0.51100000000E-03 0. -1.
         22    1    1    0    0    0 -0.26019899900E+02  0.10631746222E+02 -0.11973400248E+02  0.30552111744E+02  0.00000000000E+00 0. -1.
</event>
<event>
 5    1  0.8902899E-005  0.9118800E+02  0.7818608E-02  0.1130116E+00
         25   -1    0    0    0    0  0.00000000000E+00  0.00000000000E+00  0.99999998245E-14  0.12500000000E+03  0.12500000000E+03 0.  0.
        -11    1    3    3    0    0 -0.22278172041E+02 -0.93047680621E+01  0.47380925264E+02  0.53177511575E+02  0.51100000000E-03 0.  1.
         23    2    1    0    0    0  0.13706934262E+02 -0.67098301474E+01  0.25230330014E+02  0.95513199222E+02  0.90847673639E+02 0.  0.
         11    1    3    3    0    0  0.35985106303E+02  0.25949379147E+01 -0.22150595249E+02  0.42335687647E+02  0.51100000000E-03 0. -1.
         22    1    1    0    0    0 -0.13706934262E+02  0.67098301474E+01 -0.25230330014E+02  0.29486800778E+02  0.00000000000E+00 0.  1.
</event>
<event>
 5    1  0.8902899E-005  0.9118800E+02  0.7818608E-02  0.1130116E+00
         25   -1    0    0    0    0  0.00000000000E+00  0.00000000000E+00  0.99999998245E-14  0.12500000000E+03  0.12500000000E+03 0.  0.
        -11    1    3    3    0    0 -0.13121870584E+02 -0.24655361303E+02 -0.25069097726E+02  0.37530387551E+02  0.51100000000E-03 0. -1.
         23    2    1    0    0    0  0.24282277604E+02  0.15259694244E+02 -0.45075719062E+01  0.95968887748E+02  0.91472520120E+02 0.  0.
         11    1    3    3    0    0  0.37404148188E+02  0.39915055548E+02  0.20561525820E+02  0.58438500198E+02  0.51100000000E-03 0.  1.
         22    1    1    0    0    0 -0.24282277604E+02 -0.15259694244E+02  0.45075719062E+01  0.29031112252E+02  0.00000000000E+00 0.  1.
</event>
<event>
 5    1  0.8902899E-005  0.9118800E+02  0.7818608E-02  0.1130116E+00
         25   -1    0    0    0    0  0.00000000000E+00  0.00000000000E+00  0.99999998245E-14  0.12500000000E+03  0.12500000000E+03 0.  0.
        -11    1    3    3    0    0 -0.40973166607E+02 -0.93623318536E+00  0.23391070727E+01  0.41050558297E+02  0.51100000000E-03 0. -1.
         23    2    1    0    0    0  0.96644682540E+01 -0.17009418732E+02  0.19986735566E+02  0.97032306659E+02  0.92914351231E+02 0.  0.
         11    1    3    3    0    0  0.50637634861E+02 -0.16073185547E+02  0.17647628494E+02  0.55981748362E+02  0.51100000000E-03 0.  1.
         22    1    1    0    0    0 -0.96644682540E+01  0.17009418732E+02 -0.19986735566E+02  0.27967693341E+02  0.00000000000E+00 0.  1.
</event>
<event>
 5    1  0.8902899E-005  0.9118800E+02  0.7818608E-02  0.1130116E+00
         25   -1    0    0    0    0  0.00000000000E+00  0.00000000000E+00  0.99999998245E-14  0.12500000000E+03  0.12500000000E+03 0.  0.
        -11    1    3    3    0    0 -0.21988272584E+00  0.37471064046E+02 -0.10584107282E+02  0.38937800611E+02  0.51100000000E-03 0.  1.
         23    2    1    0    0    0 -0.15505864474E+02  0.55813114208E+01  0.28768485917E+02  0.91845684260E+02  0.85652910429E+02 0.  0.
         11    1    3    3    0    0 -0.15285981748E+02 -0.31889752625E+02  0.39352593199E+02  0.52907883649E+02  0.51100000000E-03 0. -1.
         22    1    1    0    0    0  0.15505864474E+02 -0.55813114208E+01 -0.28768485917E+02  0.33154315740E+02  0.00000000000E+00 0. -1.
</event>
<event>
 5    1  0.8902899E-005  0.9118800E+02  0.7818608E-02  0.1130116E+00
         25   -1    0    0    0    0  0.00000000000E+00  0.00000000000E+00  0.99999998245E-14  0.12500000000E+03  0.12500000000E+03 0.  0.
        -11    1    3    3    0    0 -0.20185108461E+02  0.31332895240E+02 -0.26993518357E+02  0.46019984369E+02  0.51100000000E-03 0. -1.
         23    2    1    0    0    0 -0.23688510417E+02  0.91979330425E+01  0.16328022922E+02  0.94794837683E+02  0.89853822516E+02 0.  0.
         11    1    3    3    0    0 -0.35034019563E+01 -0.22134962198E+02  0.43321541279E+02  0.48774853315E+02  0.51100000000E-03 0.  1.
         22    1    1    0    0    0  0.23688510417E+02 -0.91979330425E+01 -0.16328022922E+02  0.30205162317E+02  0.00000000000E+00 0.  1.
</event>
<event>
 5    1  0.8902899E-005  0.9118800E+02  0.7818608E-02  0.1130116E+00
         25   -1    0    0    0    0  0.00000000000E+00  0.00000000000E+00  0.99999998245E-14  0.12500000000E+03  0.12500000000E+03 0.  0.
        -11    1    3    3    0    0 -0.24544631860E+02 -0.95735192890E+01  0.23424636407E+02  0.35253436936E+02  0.51100000000E-03 0.  1.
         23    2    1    0    0    0  0.21332793075E+02  0.17754320040E+02 -0.65393149224E+01  0.96485677632E+02  0.92176024040E+02 0.  0.
         11    1    3    3    0    0  0.45877424935E+02  0.27327839329E+02 -0.29963951330E+02  0.61232240696E+02  0.51100000000E-03 0. -1.
         22    1    1    0    0    0 -0.21332793075E+02 -0.17754320040E+02  0.65393149224E+01  0.28514322368E+02  0.00000000000E+00 0. -1.
</event>
<event>
 5    1  0.8902899E-005  0.9118800E+02  0.7818608E-02  0.1130116E+00
         25   -1    0    0    0    0  0.00000000000E+00  0.00000000000E+00  0.99999998245E-14  0.12500000000E+03  0.12500000000E+03 0.  0.
        -11    1    3    3    0    0  0.38834777402E+02 -0.24973868571E+02  0.28644757253E+02  0.54335588390E+02  0.51100000000E-03 0. -1.
         23    2    1    0    0    0 -0.28505932457E+01  0.17740003785E+01  0.20130960087E+02  0.10459096981E+03  0.10258041944E+03 0.  0.
         11    1    3    3    0    0 -0.41685370648E+02  0.26747868950E+02 -0.85137971651E+01  0.50255381422E+02  0.51100000000E-03 0.  1.
         22    1    1    0    0    0  0.28505932457E+01 -0.17740003785E+01 -0.20130960087E+02  0.20409030189E+02  0.00000000000E+00 0.  1.
</event>
<event>
 5    1  0.8902899E-005  0.9118800E+02  0.7818608E-02  0.1130116E+00
         25   -1    0    0    0    0  0.00000000000E+00  0.00000000000E+00  0.99999998245E-14  0.12500000000E+03  0.12500000000E+03 0.  0.
        -11    1    3    3    0    0  0.17039251022E+02 -0.59917836695E+02 -0.49955933788E+01  0.62493513128E+02  0.51100000000E-03 0.  1.
         23    2    1    0    0    0  0.78296921633E+01 -0.26268838137E+02 -0.27290560553E+01  0.97453608523E+02  0.93479420895E+02 0.  0.
         11    1    3    3    0    0 -0.92095588588E+01  0.33648998558E+02  0.22665373235E+01  0.34960095395E+02  0.51100000000E-03 0. -1.
         22    1    1    0    0    0 -0.78296921633E+01  0.26268838137E+02  0.27290560553E+01  0.27546391477E+02  0.00000000000E+00 0.  1.
</event>
<event>
 5    1  0.8902899E-005  0.9118800E+02  0.7818608E-02  0.1130116E+00
         25   -1    0    0    0    0  0.00000000000E+00  0.00000000000E+00  0.99999998245E-14  0.12500000000E+03  0.12500000000E+03 0.  0.
        -11    1    3    3    0    0  0.93774019121E+01 -0.33788777501E+02 -0.17282682060E+02  0.39093583247E+02  0.51100000000E-03 0. -1.
         23    2    1    0    0    0  0.59741249759E+01  0.19919812591E+01  0.27655048476E+02  0.96636998312E+02  0.92381002257E+02 0.  0.
         11    1    3    3    0    0 -0.34032769362E+01  0.35780758760E+02  0.44937730536E+02  0.57543415065E+02  0.51100000000E-03 0.  1.
         22    1    1    0    0    0 -0.59741249759E+01 -0.19919812591E+01 -0.27655048476E+02  0.28363001688E+02  0.00000000000E+00 0.  1.
</event>
<event>
 5    1  0.8902899E-005  0.9118800E+02  0.7818608E-02  0.1130116E+00
         25   -1    0    0    0    0  0.00000000000E+00  0.00000000000E+00  0.99999998245E-14  0.12500000000E+03  0.12500000000E+03 0.  0.
        -11    1    3    3    0    0  0.18536709691E+02 -0.32261774566E+02  0.11200841546E+02  0.38857310199E+02  0.51100000000E-03 0.  1.
         23    2    1    0    0    0  0.10892413696E+02  0.13836534336E+02 -0.22469489557E+02  0.96452279959E+02  0.92130722291E+02 0.  0.
         11    1    3    3    0    0 -0.76442959947E+01  0.46098308902E+02 -0.33670331103E+02  0.57594969761E+02  0.51100000000E-03 0. -1.
         22    1    1    0    0    0 -0.10892413696E+02 -0.13836534336E+02  0.22469489557E+02  0.28547720041E+02  0.00000000000E+00 0. -1.
</event>
<event>
 5    1  0.8902899E-005  0.9118800E+02  0.7818608E-02  0.1130116E+00
         25   -1    0    0    0    0  0.00000000000E+00  0.00000000000E+00  0.99999998245E-14  0.12500000000E+03  0.12500000000E+03 0.  0.
        -11    1    3    3    0    0  0.44270004534E+02  0.88225337267E+01 -0.15810561963E+02  0.47829324401E+02  0.51100000000E-03 0.  1.
         23    2    1    0    0    0  0.79208942222E-01  0.16352895593E+01 -0.30122784525E+02  0.94832756282E+02  0.89906557439E+02 0.  0.
         11    1    3    3    0    0 -0.44190795592E+02 -0.71872441674E+01 -0.14312222561E+02  0.47003431882E+02  0.51100000000E-03 0. -1.
         22    1    1    0    0    0 -0.79208942222E-01 -0.16352895593E+01  0.30122784525E+02  0.30167243718E+02  0.00000000000E+00 0.  1.
</event>
<event>
 5    1  0.8902899E-005  0.9118800E+02  0.7818608E-02  0.1130116E+00
         25   -1    0    0    0    0  0.00000000000E+00  0.00000000000E+00  0.99999998245E-14  0.12500000000E+03  0.12500000000E+03 0.  0.
        -11    1    3    3    0    0 -0.37473212790E+02 -0.21245859869E+02  0.67787138194E+01  0.43607100336E+02  0.51100000000E-03 0. -1.
         23    2    1    0    0    0 -0.75581364796E+00  0.13564948640E+02  0.24307399579E+02  0.97153478491E+02  0.93077223974E+02 0.  0.
         11    1    3    3    0    0  0.36717399142E+02  0.34810808509E+02  0.17528685760E+02  0.53546378155E+02  0.51100000000E-03 0.  1.
         22    1    1    0    0    0  0.75581364796E+00 -0.13564948640E+02 -0.24307399579E+02  0.27846521509E+02  0.00000000000E+00 0.  1.
</event>
<event>
 5    1  0.8902899E-005  0.9118800E+02  0.7818608E-02  0.1130116E+00
         25   -1    0    0    0    0  0.00000000000E+00  0.00000000000E+00  0.99999998245E-14  0.12500000000E+03  0.12500000000E+03 0.  0.
        -11    1    3    3    0    0 -0.50474347795E+02  0.51607531055E+01 -0.12494403387E+02  0.52253260895E+02  0.51100000000E-03 0. -1.
         23    2    1    0    0    0 -0.16517116709E+02  0.23557353708E+02  0.68168314753E+01  0.95432564374E+02  0.90736657937E+02 0.  0.
         11    1    3    3    0    0  0.33957231086E+02  0.18396600603E+02  0.19311234863E+02  0.43179303479E+02  0.51100000000E-03 0.  1.
         22    1    1    0    0    0  0.16517116709E+02 -0.23557353708E+02 -0.68168314753E+01  0.29567435626E+02  0.00000000000E+00 0.  1.
</event>
<event>
 5    1  0.8902899E-005  0.9118800E+02  0.7818608E-02  0.1130116E+00
         25   -1    0    0    0    0  0.00000000000E+00  0.00000000000E+00  0.99999998245E-14  0.12500000000E+03  0.12500000000E+03 0.  0.
        -11    1    3    3    0    0  0.20531641628E+02  0.24442929292E+02  0.46041714216E+02  0.56025391998E+02  0.51100000000E-03 0.  1.
         23    2    1    0    0    0 -0.93119653356E+01  0.87450049486E+01  0.27896128364E+02  0.94318054369E+02  0.89188079878E+02 0.  0.
         11    1    3    3    0    0 -0.29843606964E+02 -0.15697924343E+02 -0.18145585852E+02  0.38292662371E+02  0.51100000000E-03 0. -1.
         22    1    1    0    0    0  0.93119653356E+01 -0.87450049486E+01 -0.27896128364E+02  0.30681945631E+02  0.00000000000E+00 0.  1.
</event>
<event>
 5    1  0.8902899E-005  0.9118800E+02  0.7818608E-02  0.1130116E+00
         25   -1    0    0    0    0  0.00000000000E+00  0.00000000000E+00  0.99999998245E-14  0.12500000000E+03  0.12500000000E+03 0.  0.
        -11    1    3    3    0    0 -0.25023415291E+02 -0.24501686264E+02 -0.41207964239E+02  0.54079573404E+02  0.51100000000E-03 0.  1.
         23    2    1    0    0    0 -0.92307719155E+01  0.11977002563E+02 -0.22195888598E+02  0.98142725172E+02  0.94396405085E+02 0.  0.
         11    1    3    3    0    0  0.15792643375E+02  0.36478688826E+02  0.19012075642E+02  0.44063151768E+02  0.51100000000E-03 0. -1.
         22    1    1    0    0    0  0.92307719155E+01 -0.11977002563E+02  0.22195888598E+02  0.26857274828E+02  0.00000000000E+00 0.  1.
</event>
<event>
 5    1  0.8902899E-005  0.9118800E+02  0.7818608E-02  0.1130116E+00
         25   -1    0    0    0    0  0.00000000000E+00  0.00000000000E+00  0.99999998245E-14  0.12500000000E+03  0.12500000000E+03 0.  0.
        -11    1    3    3    0    0 -0.22545176893E+02 -0.15887560974E+02 -0.26160279286E+02  0.38013942277E+02  0.51100000000E-03 0. -1.
         23    2    1    0    0    0 -0.12027965973E+02  0.12289204022E+02  0.23384999107E+02  0.95973207477E+02  0.91478422971E+02 0.  0.
         11    1    3    3    0    0  0.10517210920E+02  0.28176764996E+02  0.49545278393E+02  0.57959265200E+02  0.51100000000E-03 0.  1.
         22    1    1    0    0    0  0.12027965973E+02 -0.12289204022E+02 -0.23384999107E+02  0.29026792523E+02  0.00000000000E+00 0.  1.
</event>
<event>
 5    1  0.8902899E-005  0.9118800E+02  0.7818608E-02  0.1130116E+00
         25   -1    0    0    0    0  0.00000000000E+00  0.00000000000E+00  0.99999998245E-14  0.12500000000E+03  0.12500000000E+03 0.  0.
        -11    1    3    3    0    0 -0.11184480644E+01 -0.33654606911E+02  0.15202052628E+01  0.33707484580E+02  0.51100000000E-03 0.  1.
         23    2    1    0    0    0  0.56260403957E+01  0.27359370666E+02 -0.82715758927E+01  0.95869149317E+02  0.91336122805E+02 0.  0.
         11    1    3    3    0    0  0.67444884601E+01  0.61013977577E+02 -0.97917811555E+01  0.62161664737E+02  0.51100000000E-03 0. -1.
         22    1    1    0    0    0 -0.56260403957E+01 -0.27359370666E+02  0.82715758927E+01  0.29130850683E+02  0.00000000000E+00 0. -1.
</event>
<event>
 5    1  0.8902899E-005  0.9118800E+02  0.7818608E-02  0.1130116E+00
         25   -1    0    0    0    0  0.00000000000E+00  0.00000000000E+00  0.99999998245E-14  0.12500000000E+03  0.12500000000E+03 0.  0.
        -11    1    3    3    0    0 -0.64600209373E+01  0.50797593768E+02  0.20707877796E+02  0.55235347434E+02  0.51100000000E-03 0.  1.
         23    2    1    0    0    0 -0.14171335925E+02  0.23480421869E+02 -0.88175109188E+01  0.96191920025E+02  0.91776794487E+02 0.  0.
         11    1    3    3    0    0 -0.77113149874E+01 -0.27317171899E+02 -0.29525388714E+02  0.40956572591E+02  0.51100000000E-03 0. -1.
         22    1    1    0    0    0  0.14171335925E+02 -0.23480421869E+02  0.88175109188E+01  0.28808079975E+02  0.00000000000E+00 0.  1.
</event>
<event>
 5    1  0.8902899E-005  0.9118800E+02  0.7818608E-02  0.1130116E+00
         25   -1    0    0    0    0  0.00000000000E+00  0.00000000000E+00  0.99999998245E-14  0.12500000000E+03  0.12500000000E+03 0.  0.
        -11    1    3    3    0    0 -0.38574123141E+02 -0.41404650922E+02  0.17639613420E+02  0.59274480647E+02  0.51100000000E-03 0. -1.
         23    2    1    0    0    0 -0.17314846207E+02 -0.22692591975E+02 -0.56020262786E+01  0.95911508665E+02  0.91394076210E+02 0.  0.
         11    1    3    3    0    0  0.21259276934E+02  0.18712058948E+02 -0.23241639699E+02  0.36637028018E+02  0.51100000000E-03 0.  1.
         22    1    1    0    0    0  0.17314846207E+02  0.22692591975E+02  0.56020262786E+01  0.29088491335E+02  0.00000000000E+00 0. -1.
</event>
<event>
 5    1  0.8902899E-005  0.9118800E+02  0.7818608E-02  0.1130116E+00
         25   -1    0    0    0    0  0.00000000000E+00  0.00000000000E+00  0.99999998245E-14  0.12500000000E+03  0.12500000000E+03 0.  0.
        -11    1    3    3    0    0 -0.40772064767E+02 -0.33617852146E+02  0.29915128761E+01  0.52928918351E+02  0.51100000000E-03 0. -1.
         23    2    1    0    0    0 -0.14377122189E+02 -0.77816685064E+01  0.24407294391E+02  0.95623614472E+02  0.90999470428E+02 0.  0.
         11    1    3    3    0    0  0.26394942578E+02  0.25836183639E+02  0.21415781515E+02  0.42694696121E+02  0.51100000000E-03 0.  1.
         22    1    1    0    0    0  0.14377122189E+02  0.77816685064E+01 -0.24407294391E+02  0.29376385528E+02  0.00000000000E+00 0. -1.
</event>
<event>
 5    1  0.8902899E-005  0.9118800E+02  0.7818608E-02  0.1130116E+00
         25   -1    0    0    0    0  0.00000000000E+00  0.00000000000E+00  0.99999998245E-14  0.12500000000E+03  0.12500000000E+03 0.  0.
        -11    1    3    3    0    0 -0.10984069466E+02 -0.32000684007E+02 -0.36530533840E+02  0.49791299058E+02  0.51100000000E-03 0.  1.
         23    2    1    0    0    0 -0.74179668017E+01  0.13168802286E+02 -0.23713575586E+02  0.96879238058E+02  0.92708195509E+02 0.  0.
         11    1    3    3    0    0  0.35661026639E+01  0.45169486293E+02  0.12816958254E+02  0.47087939000E+02  0.51100000000E-03 0. -1.
         22    1    1    0    0    0  0.74179668017E+01 -0.13168802286E+02  0.23713575586E+02  0.28120761942E+02  0.00000000000E+00 0.  1.
</event>
<event>
 5    1  0.8902899E-005  0.9118800E+02  0.7818608E-02  0.1130116E+00
         25   -1    0    0    0    0  0.00000000000E+00  0.00000000000E+00  0.99999998245E-14  0.12500000000E+03  0.12500000000E+03 0.  0.
        -11    1    3    3    0    0 -0.62013011754E+02  0.50982354169E+01 -0.20925430505E+01  0.62257404121E+02  0.51100000000E-03 0.  1.
         23    2    1    0    0    0 -0.31715566837E+02 -0.40928340038E-01 -0.39263786206E+01  0.93042288818E+02  0.87381761280E+02 0.  0.
         11    1    3    3    0    0  0.30297444917E+02 -0.51391637570E+01 -0.18338355702E+01  0.30784884697E+02  0.51100000000E-03 0. -1.
         22    1    1    0    0    0  0.31715566837E+02  0.40928340038E-01  0.39263786206E+01  0.31957711182E+02  0.00000000000E+00 0.  1.
</event>
<event>
 5    1  0.8902899E-005  0.9118800E+02  0.7818608E-02  0.1130116E+00
         25   -1    0    0    0    0  0.00000000000E+00  0.00000000000E+00  0.99999998245E-14  0.12500000000E+03  0.12500000000E+03 0.  0.
        -11    1    3    3    0    0 -0.29773645899E+02 -0.19760541804E+02  0.50773648289E+02  0.62087940563E+02  0.51100000000E-03 0.  1.
         23    2    1    0    0    0 -0.10579690139E+02 -0.12703442479E+02  0.25671914855E+02  0.94465519383E+02  0.89394517984E+02 0.  0.
         11    1    3    3    0    0  0.19193955760E+02  0.70570993257E+01 -0.25101733433E+02  0.32377578820E+02  0.51100000000E-03 0. -1.
         22    1    1    0    0    0  0.10579690139E+02  0.12703442479E+02 -0.25671914855E+02  0.30534480617E+02  0.00000000000E+00 0.  1.
</event>
<event>
 5    1  0.8902899E-005  0.9118800E+02  0.7818608E-02  0.1130116E+00
         25   -1    0    0    0    0  0.00000000000E+00  0.00000000000E+00  0.99999998245E-14  0.12500000000E+03  0.12500000000E+03 0.  0.
        -11    1    3    3    0    0  0.11314640717E+02 -0.23269891220E+02 -0.23932499424E+02  0.35245899916E+02  0.51100000000E-03 0.  1.
         23    2    1    0    0    0 -0.16444704185E+02  0.24759523422E+02 -0.10384174748E+01  0.95258772609E+02  0.90496923441E+02 0.  0.
         11    1    3    3    0    0 -0.27759344902E+02  0.48029414643E+02  0.22894081949E+02  0.60012872693E+02  0.51100000000E-03 0. -1.
         22    1    1    0    0    0  0.16444704185E+02 -0.24759523422E+02  0.10384174748E+01  0.29741227391E+02  0.00000000000E+00 0. -1.
</event>
<event>
 5    1  0.8902899E-005  0.9118800E+02  0.7818608E-02  0.1130116E+00
         25   -1    0    0    0    0  0.00000000000E+00  0.00000000000E+00  0.99999998245E-14  0.12500000000E+03  0.12500000000E+03 0.  0.
        -11    1    3    3    0    0  0.22948295724E+02  0.33482786955E+02  0.14507594181E+02  0.43106746434E+02  0.51100000000E-03 0. -1.
         23    2    1    0    0    0 -0.16341280752E+01  0.31325056565E+02  0.36997726200E+02  0.76494729283E+02  0.59149660361E+02 0.  0.
         11    1    3    3    0    0 -0.24582423799E+02 -0.21577303905E+01  0.22490132019E+02  0.33387982850E+02  0.51100000000E-03 0.  1.
         22    1    1    0    0    0  0.16341280752E+01 -0.31325056565E+02 -0.36997726200E+02  0.48505270717E+02  0.00000000000E+00 0. -1.
</event>
<event>
 5    1  0.8902899E-005  0.9118800E+02  0.7818608E-02  0.1130116E+00
         25   -1    0    0    0    0  0.00000000000E+00  0.00000000000E+00  0.99999998245E-14  0.12500000000E+03  0.12500000000E+03 0.  0.
        -11    1    3    3    0    0 -0.45340399014E+01  0.14820422074E+02  0.26053240400E+02  0.30314580055E+02  0.51100000000E-03 0. -1.
         23    2    1    0    0    0  0.37181543629E+02  0.23824295273E+02 -0.97486755873E+00  0.80829709095E+02  0.67693628014E+02 0.  0.
         11    1    3    3    0    0  0.41715583530E+02  0.90038731991E+01 -0.27028107959E+02  0.50515129040E+02  0.51100000000E-03 0.  1.
         22    1    1    0    0    0 -0.37181543629E+02 -0.23824295273E+02  0.97486755873E+00  0.44170290905E+02  0.00000000000E+00 0.  1.
</event>
<event>
 5    1  0.8902899E-005  0.9118800E+02  0.7818608E-02  0.1130116E+00
         25   -1    0    0    0    0  0.00000000000E+00  0.00000000000E+00  0.99999998245E-14  0.12500000000E+03  0.12500000000E+03 0.  0.
        -11    1    3    3    0    0 -0.98066602489E+01 -0.16675032993E+02  0.55745370145E+02  0.59006555597E+02  0.51100000000E-03 0.  1.
         23    2    1    0    0    0  0.87621220421E+01  0.19858873268E+01  0.14923582278E+02  0.10758070498E+03  0.10616108630E+03 0.  0.
         11    1    3    3    0    0  0.18568782291E+02  0.18660920320E+02 -0.40821787867E+02  0.48574149379E+02  0.51100000000E-03 0. -1.
         22    1    1    0    0    0 -0.87621220421E+01 -0.19858873268E+01 -0.14923582278E+02  0.17419295025E+02  0.00000000000E+00 0.  1.
</event>
<event>
 5    1  0.8902899E-005  0.9118800E+02  0.7818608E-02  0.1130116E+00
         25   -1    0    0    0    0  0.00000000000E+00  0.00000000000E+00  0.99999998245E-14  0.12500000000E+03  0.12500000000E+03 0.  0.
        -11    1    3    3    0    0  0.78139030462E+01  0.91876480230E+01 -0.19797331229E+02  0.23181981819E+02  0.51100000000E-03 0. -1.
         23    2    1    0    0    0  0.39631688714E+02 -0.80691509084E+00  0.24325790353E+02  0.78491227294E+02  0.63228212244E+02 0.  0.
         11    1    3    3    0    0  0.31817785668E+02 -0.99945631138E+01  0.44123121582E+02  0.55309245475E+02  0.51100000000E-03 0.  1.
         22    1    1    0    0    0 -0.39631688714E+02  0.80691509084E+00 -0.24325790353E+02  0.46508772706E+02  0.00000000000E+00 0. -1.
</event>
<event>
 5    1  0.8902899E-005  0.9118800E+02  0.7818608E-02  0.1130116E+00
         25   -1    0    0    0    0  0.00000000000E+00  0.00000000000E+00  0.99999998245E-14  0.12500000000E+03  0.12500000000E+03 0.  0.
        -11    1    3    3    0    0  0.37450942742E+02 -0.26756360335E+01  0.47010373562E+02  0.60164003882E+02  0.51100000000E-03 0.  1.
         23    2    1    0    0    0  0.16680335521E+02 -0.13249683060E+02  0.21052102477E+02  0.95050397114E+02  0.90208643037E+02 0.  0.
         11    1    3    3    0    0 -0.20770607220E+02 -0.10574047027E+02 -0.25958271084E+02  0.34886393233E+02  0.51100000000E-03 0. -1.
         22    1    1    0    0    0 -0.16680335521E+02  0.13249683060E+02 -0.21052102477E+02  0.29949602886E+02  0.00000000000E+00 0.  1.
</event>
<event>
 5    1  0.8902899E-005  0.9118800E+02  0.7818608E-02  0.1130116E+00
         25   -1    0    0    0    0  0.00000000000E+00  0.00000000000E+00  0.99999998245E-14  0.12500000000E+03  0.12500000000E+03 0.  0.
        -11    1    3    3    0    0 -0.20167492672E+01 -0.67846836754E+01 -0.26048357024E+02  0.26992890066E+02  0.51100000000E-03 0. -1.
         23    2    1    0    0    0  0.28185598984E+00 -0.47561739330E+01  0.35783499482E+02  0.88900699889E+02  0.81241460920E+02 0.  0.
         11    1    3    3    0    0  0.22986052570E+01  0.20285097423E+01  0.61831856506E+02  0.61907809824E+02  0.51100000000E-03 0.  1.
         22    1    1    0    0    0 -0.28185598984E+00  0.47561739330E+01 -0.35783499482E+02  0.36099300111E+02  0.00000000000E+00 0.  1.
</event>
<event>
 5    1  0.8902899E-005  0.9118800E+02  0.7818608E-02  0.1130116E+00
         25   -1    0    0    0    0  0.00000000000E+00  0.00000000000E+00  0.99999998245E-14  0.12500000000E+03  0.12500000000E+03 0.  0.
        -11    1    3    3    0    0  0.12591050180E+02 -0.22782829002E+02 -0.56819286428E+02  0.62498185193E+02  0.51100000000E-03 0.  1.
         23    2    1    0    0    0  0.62481509145E+01 -0.11482544132E+02 -0.27751773952E+02  0.94323475310E+02  0.89195677180E+02 0.  0.
         11    1    3    3    0    0 -0.63428992653E+01  0.11300284870E+02  0.29067512476E+02  0.31825290117E+02  0.51100000000E-03 0. -1.
         22    1    1    0    0    0 -0.62481509145E+01  0.11482544132E+02  0.27751773952E+02  0.30676524690E+02  0.00000000000E+00 0.  1.
</event>
<event>
 5    1  0.8902899E-005  0.9118800E+02  0.7818608E-02  0.1130116E+00
         25   -1    0    0    0    0  0.00000000000E+00  0.00000000000E+00  0.99999998245E-14  0.12500000000E+03  0.12500000000E+03 0.  0.
        -11    1    3    3    0    0  0.23055258975E+02  0.59154575288E+01 -0.24972819574E+02  0.34498975665E+02  0.51100000000E-03 0. -1.
         23    2    1    0    0    0 -0.11528397637E+02 -0.86341077380E+01  0.24493993608E+02  0.96585083295E+02  0.92310729732E+02 0.  0.
         11    1    3    3    0    0 -0.34583656612E+02 -0.14549565267E+02  0.49466813181E+02  0.62086107630E+02  0.51100000000E-03 0.  1.
         22    1    1    0    0    0  0.11528397637E+02  0.86341077380E+01 -0.24493993608E+02  0.28414916705E+02  0.00000000000E+00 0.  1.
</event>
<event>
 5    1  0.8902899E-005  0.9118800E+02  0.7818608E-02  0.1130116E+00
         25   -1    0    0    0    0  0.00000000000E+00  0.00000000000E+00  0.99999998245E-14  0.12500000000E+03  0.12500000000E+03 0.  0.
        -11    1    3    3    0    0 -0.20230618431E+02  0.41761892297E+02  0.39690913788E+02  0.61063100215E+02  0.51100000000E-03 0.  1.
         23    2    1    0    0    0 -0.36536718224E+01  0.14238386539E+02  0.24087259914E+02  0.96781618417E+02  0.92576479757E+02 0.  0.
         11    1    3    3    0    0  0.16576946609E+02 -0.27523505758E+02 -0.15603653873E+02  0.35718518202E+02  0.51100000000E-03 0. -1.
         22    1    1    0    0    0  0.36536718224E+01 -0.14238386539E+02 -0.24087259914E+02  0.28218381583E+02  0.00000000000E+00 0.  1.
</event>
<event>
 5    1  0.8902899E-005  0.9118800E+02  0.7818608E-02  0.1130116E+00
         25   -1    0    0    0    0  0.00000000000E+00  0.00000000000E+00  0.99999998245E-14  0.12500000000E+03  0.12500000000E+03 0.  0.
        -11    1    3    3    0    0 -0.30404186543E+02  0.51037424132E+02  0.13840376570E+02  0.60998272478E+02  0.51100000000E-03 0. -1.
         23    2    1    0    0    0 -0.17410368565E+02  0.19907609741E+02 -0.24144204959E+01  0.98443206415E+02  0.94793468149E+02 0.  0.
         11    1    3    3    0    0  0.12993817978E+02 -0.31129814391E+02 -0.16254797066E+02  0.37444933937E+02  0.51100000000E-03 0.  1.
         22    1    1    0    0    0  0.17410368565E+02 -0.19907609741E+02  0.24144204959E+01  0.26556793585E+02  0.00000000000E+00 0. -1.
</event>
<event>
 5    1  0.8902899E-005  0.9118800E+02  0.7818608E-02  0.1130116E+00
         25   -1    0    0    0    0  0.00000000000E+00  0.00000000000E+00  0.99999998245E-14  0.12500000000E+03  0.12500000000E+03 0.  0.
        -11    1    3    3    0    0  0.27973515869E+02  0.13075539593E+02 -0.27703251162E+02  0.41484424197E+02  0.51100000000E-03 0. -1.
         23    2    1    0    0    0  0.13786103715E+02 -0.24800938989E+02  0.80899052728E+01  0.95494241279E+02  0.90821585098E+02 0.  0.
         11    1    3    3    0    0 -0.14187412154E+02 -0.37876478582E+02  0.35793156435E+02  0.54009817082E+02  0.51100000000E-03 0.  1.
         22    1    1    0    0    0 -0.13786103715E+02  0.24800938989E+02 -0.80899052728E+01  0.29505758721E+02  0.00000000000E+00 0.  1.
</event>
<event>
 5    1  0.8902899E-005  0.9118800E+02  0.7818608E-02  0.1130116E+00
         25   -1    0    0    0    0  0.00000000000E+00  0.00000000000E+00  0.99999998245E-14  0.12500000000E+03  0.12500000000E+03 0.  0.
        -11    1    3    3    0    0  0.26845448150E+02 -0.36866669422E+01  0.43932574065E+02  0.51617251610E+02  0.51100000000E-03 0.  1.
         23    2    1    0    0    0  0.32389581836E+02 -0.20330401682E+02  0.18486115946E+02  0.82524751597E+02  0.70754419645E+02 0.  0.
         11    1    3    3    0    0  0.55441336865E+01 -0.16643734740E+02 -0.25446458119E+02  0.30907499988E+02  0.51100000000E-03 0. -1.
         22    1    1    0    0    0 -0.32389581836E+02  0.20330401682E+02 -0.18486115946E+02  0.42475248403E+02  0.00000000000E+00 0.  1.
</event>
<event>
 5    1  0.8902899E-005  0.9118800E+02  0.7818608E-02  0.1130116E+00
         25   -1    0    0    0    0  0.00000000000E+00  0.00000000000E+00  0.99999998245E-14  0.12500000000E+03  0.12500000000E+03 0.  0.
        -11    1    3    3    0    0  0.64239378352E+01 -0.29903641822E+02 -0.40682138217E+02  0.50897260650E+02  0.51100000000E-03 0. -1.
         23    2    1    0    0    0  0.10963321588E+02  0.11611290101E+02 -0.24646021363E+02  0.95632622741E+02  0.91011843654E+02 0.  0.
         11    1    3    3    0    0  0.45393837523E+01  0.41514931923E+02  0.16036116854E+02  0.44735362091E+02  0.51100000000E-03 0.  1.
         22    1    1    0    0    0 -0.10963321588E+02 -0.11611290101E+02  0.24646021363E+02  0.29367377259E+02  0.00000000000E+00 0. -1.
</event>
<event>
 5    1  0.8902899E-005  0.9118800E+02  0.7818608E-02  0.1130116E+00
         25   -1    0    0    0    0  0.00000000000E+00  0.00000000000E+00  0.99999998245E-14  0.12500000000E+03  0.12500000000E+03 0.  0.
        -11    1    3    3    0    0 -0.21107953469E+02 -0.51714047651E+02  0.73672026993E+01  0.56339720447E+02  0.51100000000E-03 0.  1.
         23    2    1    0    0    0 -0.26099040597E+02 -0.15155257522E+02  0.96675077695E+01  0.93309268593E+02  0.87762846059E+02 0.  0.
         11    1    3    3    0    0 -0.49910871281E+01  0.36558790130E+02  0.23003050701E+01  0.36969548147E+02  0.51100000000E-03 0. -1.
         22    1    1    0    0    0  0.26099040597E+02  0.15155257522E+02 -0.96675077695E+01  0.31690731407E+02  0.00000000000E+00 0.  1.
</event>
<event>
 5    1  0.8902899E-005  0.9118800E+02  0.7818608E-02  0.1130116E+00
         25   -1    0    0    0    0  0.00000000000E+00  0.00000000000E+00  0.99999998245E-14  0.12500000000E+03  0.12500000000E+03 0.  0.
        -11    1    3    3    0    0  0.30947305798E+01 -0.24790927144E+02 -0.43112794547E+02  0.49828510714E+02  0.51100000000E-03 0. -1.
         23    2    1    0    0    0  0.27376496887E+02 -0.14664544796E+02 -0.94803564316E+01  0.92528495354E+02  0.86643660117E+02 0.  0.
         11    1    3    3    0    0  0.24281766307E+02  0.10126382348E+02  0.33632438115E+02  0.42699984641E+02  0.51100000000E-03 0.  1.
         22    1    1    0    0    0 -0.27376496887E+02  0.14664544796E+02  0.94803564316E+01  0.32471504646E+02  0.00000000000E+00 0. -1.
</event>
<event>
 5    1  0.8902899E-005  0.9118800E+02  0.7818608E-02  0.1130116E+00
         25   -1    0    0    0    0  0.00000000000E+00  0.00000000000E+00  0.99999998245E-14  0.12500000000E+03  0.12500000000E+03 0.  0.
        -11    1    3    3    0    0  0.12189343730E+02 -0.26405560226E+02 -0.10844562217E+02  0.31039301560E+02  0.51100000000E-03 0. -1.
         23    2    1    0    0    0 -0.29829571141E+02  0.12539524860E+02  0.85620342474E+01  0.91528348881E+02  0.85188539254E+02 0.  0.
         11    1    3    3    0    0 -0.42018914871E+02  0.38945085086E+02  0.19406596464E+02  0.60489047321E+02  0.51100000000E-03 0.  1.
         22    1    1    0    0    0  0.29829571141E+02 -0.12539524860E+02 -0.85620342474E+01  0.33471651119E+02  0.00000000000E+00 0.  1.
</event>
<event>
 5    1  0.8902899E-005  0.9118800E+02  0.7818608E-02  0.1130116E+00
         25   -1    0    0    0    0  0.00000000000E+00  0.00000000000E+00  0.99999998245E-14  0.12500000000E+03  0.12500000000E+03 0.  0.
        -11    1    3    3    0    0  0.26263784683E+01 -0.54936113575E+01 -0.46319759765E+02  0.46718280946E+02  0.51100000000E-03 0.  1.
         23    2    1    0    0    0 -0.27251788637E+02 -0.56322790015E+01 -0.66368686705E+01  0.96391774323E+02  0.92048593583E+02 0.  0.
         11    1    3    3    0    0 -0.29878167105E+02 -0.13866764401E+00  0.39682891095E+02  0.49673493376E+02  0.51100000000E-03 0. -1.
         22    1    1    0    0    0  0.27251788637E+02  0.56322790015E+01  0.66368686705E+01  0.28608225677E+02  0.00000000000E+00 0.  1.
</event>
<event>
 5    1  0.8902899E-005  0.9118800E+02  0.7818608E-02  0.1130116E+00
         25   -1    0    0    0    0  0.00000000000E+00  0.00000000000E+00  0.99999998245E-14  0.12500000000E+03  0.12500000000E+03 0.  0.
        -11    1    3    3    0    0 -0.11893455930E+02  0.30696865349E+02  0.11751872004E+02  0.34955090217E+02  0.51100000000E-03 0. -1.
         23    2    1    0    0    0  0.27972223382E+02 -0.74538160770E+01 -0.10152513561E+02  0.94323002320E+02  0.89195014322E+02 0.  0.
         11    1    3    3    0    0  0.39865679312E+02 -0.38150681426E+02 -0.21904385565E+02  0.59367912103E+02  0.51100000000E-03 0.  1.
         22    1    1    0    0    0 -0.27972223382E+02  0.74538160770E+01  0.10152513561E+02  0.30676997680E+02  0.00000000000E+00 0.  1.
</event>
<event>
 5    1  0.8902899E-005  0.9118800E+02  0.7818608E-02  0.1130116E+00
         25   -1    0    0    0    0  0.00000000000E+00  0.00000000000E+00  0.99999998245E-14  0.12500000000E+03  0.12500000000E+03 0.  0.
        -11    1    3    3    0    0  0.29218293308E+02  0.23186857199E+02  0.39503557677E+02  0.54331115210E+02  0.51100000000E-03 0. -1.
         23    2    1    0    0    0 -0.83499196417E+01  0.89871779387E+01  0.25214766725E+02  0.96959404673E+02  0.92816222549E+02 0.  0.
         11    1    3    3    0    0 -0.37568212950E+02 -0.14199679260E+02 -0.14288790952E+02  0.42628289462E+02  0.51100000000E-03 0.  1.
         22    1    1    0    0    0  0.83499196417E+01 -0.89871779387E+01 -0.25214766725E+02  0.28040595327E+02  0.00000000000E+00 0. -1.
</event>
<event>
 5    1  0.8902899E-005  0.9118800E+02  0.7818608E-02  0.1130116E+00
         25   -1    0    0    0    0  0.00000000000E+00  0.00000000000E+00  0.99999998245E-14  0.12500000000E+03  0.12500000000E+03 0.  0.
        -11    1    3    3    0    0  0.12225398272E+02  0.19005509805E+02  0.29157078937E+02  0.36889090776E+02  0.51100000000E-03 0.  1.
         23    2    1    0    0    0  0.11964611930E+02 -0.20153955455E+02 -0.15970042896E+02  0.96638474490E+02  0.92382999641E+02 0.  0.
         11    1    3    3    0    0 -0.26078634199E+00 -0.39159465260E+02 -0.45127121833E+02  0.59749383714E+02  0.51100000000E-03 0. -1.
         22    1    1    0    0    0 -0.11964611930E+02  0.20153955455E+02  0.15970042896E+02  0.28361525510E+02  0.00000000000E+00 0. -1.
</event>
<event>
 5    1  0.8902899E-005  0.9118800E+02  0.7818608E-02  0.1130116E+00
         25   -1    0    0    0    0  0.00000000000E+00  0.00000000000E+00  0.99999998245E-14  0.12500000000E+03  0.12500000000E+03 0.  0.
        -11    1    3    3    0    0 -0.21993151122E+02  0.26664084250E+02  0.10548786632E+02  0.36137916166E+02  0.51100000000E-03 0.  1.
         23    2    1    0    0    0  0.73325900226E+01 -0.25219341718E+01 -0.29966990581E+02  0.94046041402E+02  0.88806026544E+02 0.  0.
         11    1    3    3    0    0  0.29325741144E+02 -0.29186018421E+02 -0.40515777213E+02  0.57908125236E+02  0.51100000000E-03 0. -1.
         22    1    1    0    0    0 -0.73325900226E+01  0.25219341718E+01  0.29966990581E+02  0.30953958598E+02  0.00000000000E+00 0. -1.
</event>
<event>
 5    1  0.8902899E-005  0.9118800E+02  0.7818608E-02  0.1130116E+00
         25   -1    0    0    0    0  0.00000000000E+00  0.00000000000E+00  0.99999998245E-14  0.12500000000E+03  0.12500000000E+03 0.  0.
        -11    1    3    3    0    0 -0.33333283724E+02 -0.28561488167E+02 -0.32152712404E+02  0.54411977774E+02  0.51100000000E-03 0.  1.
         23    2    1    0    0    0 -0.28315427592E+02  0.21252009060E+01 -0.40620984354E+01  0.96315848238E+02  0.91945429791E+02 0.  0.
         11    1    3    3    0    0  0.50178561318E+01  0.30686689073E+02  0.28090613968E+02  0.41903870463E+02  0.51100000000E-03 0. -1.
         22    1    1    0    0    0  0.28315427592E+02 -0.21252009060E+01  0.40620984354E+01  0.28684151762E+02  0.00000000000E+00 0.  1.
</event>
<event>
 5    1  0.8902899E-005  0.9118800E+02  0.7818608E-02  0.1130116E+00
         25   -1    0    0    0    0  0.00000000000E+00  0.00000000000E+00  0.99999998245E-14  0.12500000000E+03  0.12500000000E+03 0.  0.
        -11    1    3    3    0    0  0.31589491279E+02  0.38486658892E+02 -0.24044568160E+01  0.49848774155E+02  0.51100000000E-03 0. -1.
         23    2    1    0    0    0 -0.11978816242E+02  0.27740694315E+02 -0.70555735479E-01  0.94783396323E+02  0.89837904477E+02 0.  0.
         11    1    3    3    0    0 -0.43568307521E+02 -0.10745964577E+02  0.23339010805E+01  0.44934622168E+02  0.51100000000E-03 0.  1.
         22    1    1    0    0    0  0.11978816242E+02 -0.27740694315E+02  0.70555735479E-01  0.30216603677E+02  0.00000000000E+00 0. -1.
</event>
<event>
 5    1  0.8902899E-005  0.9118800E+02  0.7818608E-02  0.1130116E+00
         25   -1    0    0    0    0  0.00000000000E+00  0.00000000000E+00  0.99999998245E-14  0.12500000000E+03  0.12500000000E+03 0.  0.
        -11    1    3    3    0    0 -0.23990176923E+02  0.22970612191E+02 -0.12782321604E+02  0.35588837563E+02  0.51100000000E-03 0.  1.
         23    2    1    0    0    0  0.21659843607E+02 -0.43023894201E+01  0.17536111655E+02  0.96801159744E+02  0.92602861382E+02 0.  0.
         11    1    3    3    0    0  0.45650020530E+02 -0.27273001611E+02  0.30318433259E+02  0.61212322181E+02  0.51100000000E-03 0. -1.
         22    1    1    0    0    0 -0.21659843607E+02  0.43023894201E+01 -0.17536111655E+02  0.28198840256E+02  0.00000000000E+00 0. -1.
</event>
<event>
 5    1  0.8902899E-005  0.9118800E+02  0.7818608E-02  0.1130116E+00
         25   -1    0    0    0    0  0.00000000000E+00  0.00000000000E+00  0.99999998245E-14  0.12500000000E+03  0.12500000000E+03 0.  0.
        -11    1    3    3    0    0  0.34718652768E+02  0.46965330135E+02  0.17892110513E+02  0.61083997115E+02  0.51100000000E-03 0.  1.
         23    2    1    0    0    0  0.99664849781E+01  0.28466046834E+02  0.56880377829E+01  0.94307974668E+02  0.89173951729E+02 0.  0.
         11    1    3    3    0    0 -0.24752167790E+02 -0.18499283301E+02 -0.12204072730E+02  0.33223977553E+02  0.51100000000E-03 0. -1.
         22    1    1    0    0    0 -0.99664849781E+01 -0.28466046834E+02 -0.56880377829E+01  0.30692025332E+02  0.00000000000E+00 0.  1.
</event>
<event>
 5    1  0.8902899E-005  0.9118800E+02  0.7818608E-02  0.1130116E+00
         25   -1    0    0    0    0  0.00000000000E+00  0.00000000000E+00  0.99999998245E-14  0.12500000000E+03  0.12500000000E+03 0.  0.
        -11    1    3    3    0    0 -0.54777714455E+02 -0.42226744560E+01 -0.23367922879E+02  0.59703339944E+02  0.51100000000E-03 0.  1.
         23    2    1    0    0    0 -0.22071896534E+02  0.95858074562E+01 -0.16392612010E+02  0.95883440284E+02  0.91355678920E+02 0.  0.
         11    1    3    3    0    0  0.32705817921E+02  0.13808481912E+02  0.69753108685E+01  0.36180100340E+02  0.51100000000E-03 0. -1.
         22    1    1    0    0    0  0.22071896534E+02 -0.95858074562E+01  0.16392612010E+02  0.29116559716E+02  0.00000000000E+00 0.  1.
</event>
<event>
 5    1  0.8902899E-005  0.9118800E+02  0.7818608E-02  0.1130116E+00
         25   -1    0    0    0    0  0.00000000000E+00  0.00000000000E+00  0.99999998245E-14  0.12500000000E+03  0.12500000000E+03 0.  0.
        -11    1    3    3    0    0  0.14426618708E+02 -0.45220966511E+02 -0.34496163888E+02  0.58677495369E+02  0.51100000000E-03 0.  1.
         23    2    1    0    0    0 -0.37822046319E+01 -0.12474962989E+02 -0.24163878559E+02  0.97544166367E+02  0.93600435853E+02 0.  0.
         11    1    3    3    0    0 -0.18208823339E+02  0.32746003523E+02  0.10332285328E+02  0.38866670998E+02  0.51100000000E-03 0. -1.
         22    1    1    0    0    0  0.37822046319E+01  0.12474962989E+02  0.24163878559E+02  0.27455833633E+02  0.00000000000E+00 0.  1.
</event>
<event>
 5    1  0.8902899E-005  0.9118800E+02  0.7818608E-02  0.1130116E+00
         25   -1    0    0    0    0  0.00000000000E+00  0.00000000000E+00  0.99999998245E-14  0.12500000000E+03  0.12500000000E+03 0.  0.
        -11    1    3    3    0    0  0.35758632977E+02  0.29010092704E+02  0.69432473686E+01  0.46566876590E+02  0.51100000000E-03 0. -1.
         23    2    1    0    0    0  0.18630753512E+02 -0.10242234673E+02 -0.18871653594E+02  0.96572062036E+02  0.92293095674E+02 0.  0.
         11    1    3    3    0    0 -0.17127879465E+02 -0.39252327377E+02 -0.25814900963E+02  0.50005185446E+02  0.51100000000E-03 0.  1.
         22    1    1    0    0    0 -0.18630753512E+02  0.10242234673E+02  0.18871653594E+02  0.28427937964E+02  0.00000000000E+00 0. -1.
</event>
<event>
 5    1  0.8902899E-005  0.9118800E+02  0.7818608E-02  0.1130116E+00
         25   -1    0    0    0    0  0.00000000000E+00  0.00000000000E+00  0.99999998245E-14  0.12500000000E+03  0.12500000000E+03 0.  0.
        -11    1    3    3    0    0 -0.15717599163E+01 -0.44845650253E+02 -0.24816120590E+02  0.51278091006E+02  0.51100000000E-03 0.  1.
         23    2    1    0    0    0  0.17445883926E+02 -0.10110432905E+02 -0.27420006462E+02  0.90964188362E+02  0.84356665952E+02 0.  0.
         11    1    3    3    0    0  0.19017643842E+02  0.34735217348E+02 -0.26038858716E+01  0.39686097356E+02  0.51100000000E-03 0. -1.
         22    1    1    0    0    0 -0.17445883926E+02  0.10110432905E+02  0.27420006462E+02  0.34035811638E+02  0.00000000000E+00 0.  1.
</event>
<event>
 5    1  0.8902899E-005  0.9118800E+02  0.7818608E-02  0.1130116E+00
         25   -1    0    0    0    0  0.00000000000E+00  0.00000000000E+00  0.99999998245E-14  0.12500000000E+03  0.12500000000E+03 0.  0.
        -11    1    3    3    0    0  0.86225163602E+01  0.37991780571E+01  0.33792710703E+02  0.35081745100E+02  0.51100000000E-03 0.  1.
         23    2    1    0    0    0 -0.24833675606E+02 -0.42763355645E+01 -0.15659402094E+02  0.95331576316E+02  0.90597428655E+02 0.  0.
         11    1    3    3    0    0 -0.33456191967E+02 -0.80755136216E+01 -0.49452112797E+02  0.60249831216E+02  0.51100000000E-03 0. -1.
         22    1    1    0    0    0  0.24833675606E+02  0.42763355645E+01  0.15659402094E+02  0.29668423684E+02  0.00000000000E+00 0. -1.
</event>
<event>
 5    1  0.8902899E-005  0.9118800E+02  0.7818608E-02  0.1130116E+00
         25   -1    0    0    0    0  0.00000000000E+00  0.00000000000E+00  0.99999998245E-14  0.12500000000E+03  0.12500000000E+03 0.  0.
        -11    1    3    3    0    0  0.48176258065E+02  0.15594490628E+02  0.43347928537E+01  0.50822538390E+02  0.51100000000E-03 0.  1.
         23    2    1    0    0    0  0.17453461949E+02 -0.14603963610E+02  0.17964328387E+02  0.96006618315E+02  0.91524065572E+02 0.  0.
         11    1    3    3    0    0 -0.30722796116E+02 -0.30198454238E+02  0.13629535533E+02  0.45184079925E+02  0.51100000000E-03 0. -1.
         22    1    1    0    0    0 -0.17453461949E+02  0.14603963610E+02 -0.17964328387E+02  0.28993381685E+02  0.00000000000E+00 0.  1.
</event>
<event>
 5    1  0.8902899E-005  0.9118800E+02  0.7818608E-02  0.1130116E+00
         25   -1    0    0    0    0  0.00000000000E+00  0.00000000000E+00  0.99999998245E-14  0.12500000000E+03  0.12500000000E+03 0.  0.
        -11    1    3    3    0    0 -0.27148200640E+02 -0.30792127247E+02 -0.96641715088E+01  0.42173168124E+02  0.51100000000E-03 0.  1.
         23    2    1    0    0    0  0.58864190480E+01 -0.13109296185E+02  0.26884429446E+02  0.94515969389E+02  0.89465034216E+02 0.  0.
         11    1    3    3    0    0  0.33034619688E+02  0.17682831062E+02  0.36548600955E+02  0.52342801265E+02  0.51100000000E-03 0. -1.
         22    1    1    0    0    0 -0.58864190480E+01  0.13109296185E+02 -0.26884429446E+02  0.30484030611E+02  0.00000000000E+00 0. -1.
</event>
<event>
 5    1  0.8902899E-005  0.9118800E+02  0.7818608E-02  0.1130116E+00
         25   -1    0    0    0    0  0.00000000000E+00  0.00000000000E+00  0.99999998245E-14  0.12500000000E+03  0.12500000000E+03 0.  0.
        -11    1    3    3    0    0 -0.91659288005E+00  0.26698296815E+02  0.27099793049E+02  0.38053094209E+02  0.51100000000E-03 0.  1.
         23    2    1    0    0    0  0.13051120273E+02 -0.67952622609E+01 -0.21647658725E+02  0.98825041397E+02  0.95295647064E+02 0.  0.
         11    1    3    3    0    0  0.13967713153E+02 -0.33493559076E+02 -0.48747451774E+02  0.60771947188E+02  0.51100000000E-03 0. -1.
         22    1    1    0    0    0 -0.13051120273E+02  0.67952622609E+01  0.21647658725E+02  0.26174958603E+02  0.00000000000E+00 0. -1.
</event>
<event>
 5    1  0.8902899E-005  0.9118800E+02  0.7818608E-02  0.1130116E+00
         25   -1    0    0    0    0  0.00000000000E+00  0.00000000000E+00  0.99999998245E-14  0.12500000000E+03  0.12500000000E+03 0.  0.
        -11    1    3    3    0    0  0.25863306787E+02 -0.29030871723E+02 -0.45945286474E+02  0.60188632651E+02  0.51100000000E-03 0.  1.
         23    2    1    0    0    0  0.22581845582E+02 -0.92616189280E+01 -0.17572270845E+02  0.94925059639E+02  0.90034798327E+02 0.  0.
         11    1    3    3    0    0 -0.32814612046E+01  0.19769252795E+02  0.28373015630E+02  0.34736426988E+02  0.51100000000E-03 0. -1.
         22    1    1    0    0    0 -0.22581845582E+02  0.92616189280E+01  0.17572270845E+02  0.30074940361E+02  0.00000000000E+00 0.  1.
</event>
<event>
 5    1  0.8902899E-005  0.9118800E+02  0.7818608E-02  0.1130116E+00
         25   -1    0    0    0    0  0.00000000000E+00  0.00000000000E+00  0.99999998245E-14  0.12500000000E+03  0.12500000000E+03 0.  0.
        -11    1    3    3    0    0  0.11666005752E+02  0.42446122778E+02  0.45717043754E+01  0.44256858341E+02  0.51100000000E-03 0.  1.
         23    2    1    0    0    0  0.18646624393E+02 -0.13700521467E+02 -0.41133656819E+01  0.10149849650E+03  0.98740184951E+02 0.  0.
         11    1    3    3    0    0  0.69806186404E+01 -0.56146644244E+02 -0.86850700574E+01  0.57241638155E+02  0.51100000000E-03 0. -1.
         22    1    1    0    0    0 -0.18646624393E+02  0.13700521467E+02  0.41133656819E+01  0.23501503504E+02  0.00000000000E+00 0. -1.
</event>
<event>
 5    1  0.8902899E-005  0.9118800E+02  0.7818608E-02  0.1130116E+00
         25   -1    0    0    0    0  0.00000000000E+00  0.00000000000E+00  0.99999998245E-14  0.12500000000E+03  0.12500000000E+03 0.  0.
        -11    1    3    3    0    0 -0.27187028708E+02  0.49332247814E+02  0.10561266304E+02  0.57309209997E+02  0.51100000000E-03 0. -1.
         23    2    1    0    0    0  0.44134068269E+01  0.26162311311E+02  0.10423237225E+02  0.96494060843E+02  0.92187391821E+02 0.  0.
         11    1    3    3    0    0  0.31600435535E+02 -0.23169936503E+02 -0.13802907849E+00  0.39184850846E+02  0.51100000000E-03 0.  1.
         22    1    1    0    0    0 -0.44134068269E+01 -0.26162311311E+02 -0.10423237225E+02  0.28505939157E+02  0.00000000000E+00 0. -1.
</event>
<event>
 5    1  0.8902899E-005  0.9118800E+02  0.7818608E-02  0.1130116E+00
         25   -1    0    0    0    0  0.00000000000E+00  0.00000000000E+00  0.99999998245E-14  0.12500000000E+03  0.12500000000E+03 0.  0.
        -11    1    3    3    0    0 -0.66353586272E+00  0.42538496797E+02 -0.53678846676E+01  0.42880976850E+02  0.51100000000E-03 0.  1.
         23    2    1    0    0    0 -0.11823349476E+02 -0.68519916584E+01 -0.24447955180E+02  0.96992074425E+02  0.92860210027E+02 0.  0.
         11    1    3    3    0    0 -0.11159813613E+02 -0.49390488455E+02 -0.19080070513E+02  0.54111097575E+02  0.51100000000E-03 0. -1.
         22    1    1    0    0    0  0.11823349476E+02  0.68519916584E+01  0.24447955180E+02  0.28007925575E+02  0.00000000000E+00 0. -1.
</event>
<event>
 5    1  0.8902899E-005  0.9118800E+02  0.7818608E-02  0.1130116E+00
         25   -1    0    0    0    0  0.00000000000E+00  0.00000000000E+00  0.99999998245E-14  0.12500000000E+03  0.12500000000E+03 0.  0.
        -11    1    3    3    0    0  0.48085755744E+02 -0.67987255521E+01  0.38244915420E+02  0.61815338957E+02  0.51100000000E-03 0.  1.
         23    2    1    0    0    0  0.18954192051E+02 -0.71172226423E+01  0.21711758032E+02  0.95313021520E+02  0.90571824427E+02 0.  0.
         11    1    3    3    0    0 -0.29131563694E+02 -0.31849709020E+00 -0.16533157388E+02  0.33497682563E+02  0.51100000000E-03 0. -1.
         22    1    1    0    0    0 -0.18954192051E+02  0.71172226423E+01 -0.21711758032E+02  0.29686978480E+02  0.00000000000E+00 0.  1.
</event>
<event>
 5    1  0.8902899E-005  0.9118800E+02  0.7818608E-02  0.1130116E+00
         25   -1    0    0    0    0  0.00000000000E+00  0.00000000000E+00  0.99999998245E-14  0.12500000000E+03  0.12500000000E+03 0.  0.
        -11    1    3    3    0    0 -0.27505542431E+02  0.23989549649E+02 -0.47660118313E+02  0.60029494705E+02  0.51100000000E-03 0.  1.
         23    2    1    0    0    0 -0.17521025349E+02  0.11997670442E-01 -0.24832327451E+02  0.94608702564E+02  0.89594506756E+02 0.  0.
         11    1    3    3    0    0  0.99845170825E+01 -0.23977551978E+02  0.22827790861E+02  0.34579207858E+02  0.51100000000E-03 0. -1.
         22    1    1    0    0    0  0.17521025349E+02 -0.11997670442E-01  0.24832327451E+02  0.30391297436E+02  0.00000000000E+00 0.  1.
</event>
<event>
 5    1  0.8902899E-005  0.9118800E+02  0.7818608E-02  0.1130116E+00
         25   -1    0    0    0    0  0.00000000000E+00  0.00000000000E+00  0.99999998245E-14  0.12500000000E+03  0.12500000000E+03 0.  0.
        -11    1    3    3    0    0 -0.95818615670E+01 -0.31887451493E+02  0.11885108270E+02  0.35353605653E+02  0.51100000000E-03 0. -1.
         23    2    1    0    0    0 -0.97779596059E+01  0.26196068320E+02 -0.65288971805E+01  0.96286431990E+02  0.91905429641E+02 0.  0.
         11    1    3    3    0    0 -0.19609803888E+00  0.58083519813E+02 -0.18414005451E+02  0.60932826337E+02  0.51100000000E-03 0.  1.
         22    1    1    0    0    0  0.97779596059E+01 -0.26196068320E+02  0.65288971805E+01  0.28713568010E+02  0.00000000000E+00 0.  1.
</event>
<event>
 5    1  0.8902899E-005  0.9118800E+02  0.7818608E-02  0.1130116E+00
         25   -1    0    0    0    0  0.00000000000E+00  0.00000000000E+00  0.99999998245E-14  0.12500000000E+03  0.12500000000E+03 0.  0.
        -11    1    3    3    0    0  0.22661059615E+02 -0.30093210325E+02  0.27037069767E+02  0.46369473497E+02  0.51100000000E-03 0.  1.
         23    2    1    0    0    0  0.28576109931E+02  0.12129849295E+02  0.13928961651E+02  0.90974373256E+02  0.84371756613E+02 0.  0.
         11    1    3    3    0    0  0.59150503158E+01  0.42223059619E+02 -0.13108108116E+02  0.44604899759E+02  0.51100000000E-03 0. -1.
         22    1    1    0    0    0 -0.28576109931E+02 -0.12129849295E+02 -0.13928961651E+02  0.34025626744E+02  0.00000000000E+00 0. -1.
</event>
<event>
 5    1  0.8902899E-005  0.9118800E+02  0.7818608E-02  0.1130116E+00
         25   -1    0    0    0    0  0.00000000000E+00  0.00000000000E+00  0.99999998245E-14  0.12500000000E+03  0.12500000000E+03 0.  0.
        -11    1    3    3    0    0 -0.33922505118E+02 -0.12045923324E+02 -0.98925211276E+01  0.37332326431E+02  0.51100000000E-03 0.  1.
         23    2    1    0    0    0  0.51827066888E+01 -0.14416213840E+02  0.28789646608E+02  0.92388170522E+02  0.86440977727E+02 0.  0.
         11    1    3    3    0    0  0.39105211807E+02 -0.23702905159E+01  0.38682167736E+02  0.55055844091E+02  0.51100000000E-03 0. -1.
         22    1    1    0    0    0 -0.51827066888E+01  0.14416213840E+02 -0.28789646608E+02  0.32611829478E+02  0.00000000000E+00 0.  1.
</event>
<event>
 5    1  0.8902899E-005  0.9118800E+02  0.7818608E-02  0.1130116E+00
         25   -1    0    0    0    0  0.00000000000E+00  0.00000000000E+00  0.99999998245E-14  0.12500000000E+03  0.12500000000E+03 0.  0.
        -11    1    3    3    0    0  0.23350378251E+02  0.11583056544E+02  0.23937003468E+02  0.35389087282E+02  0.51100000000E-03 0. -1.
         23    2    1    0    0    0 -0.23232572986E+02  0.95794143250E+01 -0.14650153072E+02  0.95911435041E+02  0.91393975514E+02 0.  0.
         11    1    3    3    0    0 -0.46582951237E+02 -0.20036422185E+01 -0.38587156541E+02  0.60522347759E+02  0.51100000000E-03 0.  1.
         22    1    1    0    0    0  0.23232572986E+02 -0.95794143250E+01  0.14650153072E+02  0.29088564959E+02  0.00000000000E+00 0.  1.
</event>
<event>
 5    1  0.8902899E-005  0.9118800E+02  0.7818608E-02  0.1130116E+00
         25   -1    0    0    0    0  0.00000000000E+00  0.00000000000E+00  0.99999998245E-14  0.12500000000E+03  0.12500000000E+03 0.  0.
        -11    1    3    3    0    0 -0.40404371550E+02 -0.31772372043E+02  0.30554324066E+02  0.59796016465E+02  0.51100000000E-03 0. -1.
         23    2    1    0    0    0 -0.11685242863E+02 -0.10200428204E+02  0.24175248369E+02  0.96276555394E+02  0.91891995563E+02 0.  0.
         11    1    3    3    0    0  0.28719128688E+02  0.21571943839E+02 -0.63790756970E+01  0.36480538929E+02  0.51100000000E-03 0.  1.
         22    1    1    0    0    0  0.11685242863E+02  0.10200428204E+02 -0.24175248369E+02  0.28723444606E+02  0.00000000000E+00 0. -1.
</event>
<event>
 5    1  0.8902899E-005  0.9118800E+02  0.7818608E-02  0.1130116E+00
         25   -1    0    0    0    0  0.00000000000E+00  0.00000000000E+00  0.99999998245E-14  0.12500000000E+03  0.12500000000E+03 0.  0.
        -11    1    3    3    0    0 -0.21504707761E+02  0.12914377680E+02 -0.34043521055E+02  0.42287053962E+02  0.51100000000E-03 0.  1.
         23    2    1    0    0    0  0.25977506325E+02  0.94975478826E+01 -0.10295074849E+02  0.95486904317E+02  0.90811486494E+02 0.  0.
         11    1    3    3    0    0  0.47482214086E+02 -0.34168297970E+01  0.23748446205E+02  0.53199850355E+02  0.51100000000E-03 0. -1.
         22    1    1    0    0    0 -0.25977506325E+02 -0.94975478826E+01  0.10295074849E+02  0.29513095683E+02  0.00000000000E+00 0. -1.
</event>
<event>
 5    1  0.8902899E-005  0.9118800E+02  0.7818608E-02  0.1130116E+00
         25   -1    0    0    0    0  0.00000000000E+00  0.00000000000E+00  0.99999998245E-14  0.12500000000E+03  0.12500000000E+03 0.  0.
        -11    1    3    3    0    0  0.41799612682E+02  0.94182559317E+01 -0.42014449561E+02  0.60009375411E+02  0.51100000000E-03 0. -1.
         23    2    1    0    0    0  0.13696763639E+02 -0.85970719240E+01 -0.14800909047E+02  0.10307791323E+03  0.10071980097E+03 0.  0.
         11    1    3    3    0    0 -0.28102849043E+02 -0.18015327856E+02  0.27213540514E+02  0.43068537816E+02  0.51100000000E-03 0.  1.
         22    1    1    0    0    0 -0.13696763639E+02  0.85970719240E+01  0.14800909047E+02  0.21922086773E+02  0.00000000000E+00 0. -1.
</event>
<event>
 5    1  0.8902899E-005  0.9118800E+02  0.7818608E-02  0.1130116E+00
         25   -1    0    0    0    0  0.00000000000E+00  0.00000000000E+00  0.99999998245E-14  0.12500000000E+03  0.12500000000E+03 0.  0.
        -11    1    3    3    0    0  0.18933275160E+02  0.81024820521E+01  0.53903693528E+02  0.57703789303E+02  0.51100000000E-03 0.  1.
         23    2    1    0    0    0  0.16565024737E+02  0.15567806140E+02  0.14145805765E+02  0.98225750182E+02  0.94506283101E+02 0.  0.
         11    1    3    3    0    0 -0.23682504230E+01  0.74653240883E+01 -0.39757887764E+02  0.40521960879E+02  0.51100000000E-03 0. -1.
         22    1    1    0    0    0 -0.16565024737E+02 -0.15567806140E+02 -0.14145805765E+02  0.26774249818E+02  0.00000000000E+00 0.  1.
</event>
<event>
 5    1  0.8902899E-005  0.9118800E+02  0.7818608E-02  0.1130116E+00
         25   -1    0    0    0    0  0.00000000000E+00  0.00000000000E+00  0.99999998245E-14  0.12500000000E+03  0.12500000000E+03 0.  0.
        -11    1    3    3    0    0  0.30884592735E+01 -0.45339956933E+02 -0.14188746709E+02  0.47608516137E+02  0.51100000000E-03 0. -1.
         23    2    1    0    0    0 -0.32642289706E+01  0.20085717050E+01 -0.27526250906E+02  0.97208201929E+02  0.93150686966E+02 0.  0.
         11    1    3    3    0    0 -0.63526882441E+01  0.47348528638E+02 -0.13337504198E+02  0.49599685791E+02  0.51100000000E-03 0.  1.
         22    1    1    0    0    0  0.32642289706E+01 -0.20085717050E+01  0.27526250906E+02  0.27791798071E+02  0.00000000000E+00 0.  1.
</event>
<event>
 5    1  0.8902899E-005  0.9118800E+02  0.7818608E-02  0.1130116E+00
         25   -1    0    0    0    0  0.00000000000E+00  0.00000000000E+00  0.99999998245E-14  0.12500000000E+03  0.12500000000E+03 0.  0.
        -11    1    3    3    0    0  0.12325247671E+02 -0.56009489116E+02  0.92462897154E+00  0.57357035665E+02  0.51100000000E-03 0. -1.
         23    2    1    0    0    0 -0.10835108971E+02 -0.33202426286E+02 -0.21582173492E+01  0.90007735143E+02  0.82927280106E+02 0.  0.
         11    1    3    3    0    0 -0.23160356642E+02  0.22807062830E+02 -0.30828463207E+01  0.32650699478E+02  0.51100000000E-03 0.  1.
         22    1    1    0    0    0  0.10835108971E+02  0.33202426286E+02  0.21582173492E+01  0.34992264857E+02  0.00000000000E+00 0. -1.
</event>
<event>
 5    1  0.8902899E-005  0.9118800E+02  0.7818608E-02  0.1130116E+00
         25   -1    0    0    0    0  0.00000000000E+00  0.00000000000E+00  0.99999998245E-14  0.12500000000E+03  0.12500000000E+03 0.  0.
        -11    1    3    3    0    0  0.52016819549E+02  0.94011626057E+01  0.18162088162E+01  0.52890736325E+02  0.51100000000E-03 0.  1.
         23    2    1    0    0    0  0.22319864587E+02 -0.17917548471E+02 -0.95748928791E+01  0.94818988221E+02  0.89887413219E+02 0.  0.
         11    1    3    3    0    0 -0.29696954962E+02 -0.27318711077E+02 -0.11391101695E+02  0.41928251895E+02  0.51100000000E-03 0. -1.
         22    1    1    0    0    0 -0.22319864587E+02  0.17917548471E+02  0.95748928791E+01  0.30181011779E+02  0.00000000000E+00 0.  1.
</event>
<event>
 5    1  0.8902899E-005  0.9118800E+02  0.7818608E-02  0.1130116E+00
         25   -1    0    0    0    0  0.00000000000E+00  0.00000000000E+00  0.99999998245E-14  0.12500000000E+03  0.12500000000E+03 0.  0.
        -11    1    3    3    0    0  0.30210963740E+01 -0.44551199105E+02 -0.36948528022E+02  0.57958002798E+02  0.51100000000E-03 0.  1.
         23    2    1    0    0    0 -0.32673779800E+01 -0.88332670643E+01 -0.28204610039E+02  0.95264459088E+02  0.90504777619E+02 0.  0.
         11    1    3    3    0    0 -0.62884743540E+01  0.35717932041E+02  0.87439179833E+01  0.37306456290E+02  0.51100000000E-03 0. -1.
         22    1    1    0    0    0  0.32673779800E+01  0.88332670643E+01  0.28204610039E+02  0.29735540912E+02  0.00000000000E+00 0.  1.
</event>
<event>
 5    1  0.8902899E-005  0.9118800E+02  0.7818608E-02  0.1130116E+00
         25   -1    0    0    0    0  0.00000000000E+00  0.00000000000E+00  0.99999998245E-14  0.12500000000E+03  0.12500000000E+03 0.  0.
        -11    1    3    3    0    0 -0.20279801989E+02 -0.53466535160E+01 -0.54104753451E+02  0.58027419543E+02  0.51100000000E-03 0.  1.
         23    2    1    0    0    0  0.23475638114E+01 -0.13737342749E+02 -0.28857734083E+02  0.92953245749E+02  0.87254291798E+02 0.  0.
         11    1    3    3    0    0  0.22627365801E+02 -0.83906892331E+01  0.25247019369E+02  0.34925826206E+02  0.51100000000E-03 0. -1.
         22    1    1    0    0    0 -0.23475638114E+01  0.13737342749E+02  0.28857734083E+02  0.32046754251E+02  0.00000000000E+00 0.  1.
</event>
<event>
 5    1  0.8902899E-005  0.9118800E+02  0.7818608E-02  0.1130116E+00
         25   -1    0    0    0    0  0.00000000000E+00  0.00000000000E+00  0.99999998245E-14  0.12500000000E+03  0.12500000000E+03 0.  0.
        -11    1    3    3    0    0 -0.83234194693E+00  0.29156907793E+02 -0.33331757255E+02  0.44292483642E+02  0.51100000000E-03 0.  1.
         23    2    1    0    0    0 -0.28832918524E+02  0.19590814376E+02  0.16400375992E+01  0.90102622995E+02  0.83070185678E+02 0.  0.
         11    1    3    3    0    0 -0.28000576577E+02 -0.95660934171E+01  0.34971794855E+02  0.45810139353E+02  0.51100000000E-03 0. -1.
         22    1    1    0    0    0  0.28832918524E+02 -0.19590814376E+02 -0.16400375992E+01  0.34897377005E+02  0.00000000000E+00 0.  1.
</event>
<event>
 5    1  0.8902899E-005  0.9118800E+02  0.7818608E-02  0.1130116E+00
         25   -1    0    0    0    0  0.00000000000E+00  0.00000000000E+00  0.99999998245E-14  0.12500000000E+03  0.12500000000E+03 0.  0.
        -11    1    3    3    0    0  0.75521094380E+01  0.37935416400E+02 -0.27014260123E+01  0.38774061912E+02  0.51100000000E-03 0. -1.
         23    2    1    0    0    0 -0.16615507048E+02 -0.17718031655E+02  0.57621765568E+01  0.10003589780E+03  0.96870916424E+02 0.  0.
         11    1    3    3    0    0 -0.24167616486E+02 -0.55653448056E+02  0.84636025691E+01  0.61261835883E+02  0.51100000000E-03 0.  1.
         22    1    1    0    0    0  0.16615507048E+02  0.17718031655E+02 -0.57621765568E+01  0.24964102204E+02  0.00000000000E+00 0.  1.
</event>
<event>
 5    1  0.8902899E-005  0.9118800E+02  0.7818608E-02  0.1130116E+00
         25   -1    0    0    0    0  0.00000000000E+00  0.00000000000E+00  0.99999998245E-14  0.12500000000E+03  0.12500000000E+03 0.  0.
        -11    1    3    3    0    0 -0.85989410863E+01 -0.24125966157E+01  0.39927045866E+02  0.40913706775E+02  0.51100000000E-03 0.  1.
         23    2    1    0    0    0  0.17209376314E+02 -0.21588443452E+02 -0.57763677345E+01  0.96793795930E+02  0.92592920802E+02 0.  0.
         11    1    3    3    0    0  0.25808317400E+02 -0.19175846837E+02 -0.45703413601E+02  0.55880089155E+02  0.51100000000E-03 0. -1.
         22    1    1    0    0    0 -0.17209376314E+02  0.21588443452E+02  0.57763677345E+01  0.28206204070E+02  0.00000000000E+00 0. -1.
</event>
<event>
 5    1  0.8902899E-005  0.9118800E+02  0.7818608E-02  0.1130116E+00
         25   -1    0    0    0    0  0.00000000000E+00  0.00000000000E+00  0.99999998245E-14  0.12500000000E+03  0.12500000000E+03 0.  0.
        -11    1    3    3    0    0 -0.21318992667E+02 -0.44072399937E+02 -0.27053044798E+02  0.55935168880E+02  0.51100000000E-03 0.  1.
         23    2    1    0    0    0  0.10294338937E+02 -0.23260657328E+02 -0.13957608665E+02  0.95985409995E+02  0.91495095490E+02 0.  0.
         11    1    3    3    0    0  0.31613331605E+02  0.20811742609E+02  0.13095436133E+02  0.40050241115E+02  0.51100000000E-03 0. -1.
         22    1    1    0    0    0 -0.10294338937E+02  0.23260657328E+02  0.13957608665E+02  0.29014590005E+02  0.00000000000E+00 0.  1.
</event>
<event>
 5    1  0.8902899E-005  0.9118800E+02  0.7818608E-02  0.1130116E+00
         25   -1    0    0    0    0  0.00000000000E+00  0.00000000000E+00  0.99999998245E-14  0.12500000000E+03  0.12500000000E+03 0.  0.
        -11    1    3    3    0    0 -0.55140248560E+02 -0.84235112784E+01  0.26755996225E+02  0.61865061931E+02  0.51100000000E-03 0.  1.
         23    2    1    0    0    0 -0.28509575917E+02 -0.93936605512E+00  0.77059195467E+01  0.95452419327E+02  0.90764006257E+02 0.  0.
         11    1    3    3    0    0  0.26630672642E+02  0.74841452233E+01 -0.19050076679E+02  0.33587357396E+02  0.51100000000E-03 0. -1.
         22    1    1    0    0    0  0.28509575917E+02  0.93936605512E+00 -0.77059195467E+01  0.29547580673E+02  0.00000000000E+00 0.  1.
</event>
<event>
 5    1  0.8902899E-005  0.9118800E+02  0.7818608E-02  0.1130116E+00
         25   -1    0    0    0    0  0.00000000000E+00  0.00000000000E+00  0.99999998245E-14  0.12500000000E+03  0.12500000000E+03 0.  0.
        -11    1    3    3    0    0  0.31274696186E+02 -0.10539351012E+02  0.12031720599E+02  0.35127579508E+02  0.51100000000E-03 0. -1.
         23    2    1    0    0    0 -0.19094668820E+02 -0.17089944595E+02 -0.17581277573E+02  0.93923096925E+02  0.88632805616E+02 0.  0.
         11    1    3    3    0    0 -0.50369365006E+02 -0.65505935833E+01 -0.29612998172E+02  0.58795517417E+02  0.51100000000E-03 0.  1.
         22    1    1    0    0    0  0.19094668820E+02  0.17089944595E+02  0.17581277573E+02  0.31076903075E+02  0.00000000000E+00 0.  1.
</event>
<event>
 5    1  0.8902899E-005  0.9118800E+02  0.7818608E-02  0.1130116E+00
         25   -1    0    0    0    0  0.00000000000E+00  0.00000000000E+00  0.99999998245E-14  0.12500000000E+03  0.12500000000E+03 0.  0.
        -11    1    3    3    0    0  0.14312068890E+02  0.45069528464E+02 -0.19208754433E+02  0.51039925147E+02  0.51100000000E-03 0.  1.
         23    2    1    0    0    0  0.86243049813E+01  0.22014489240E+01  0.15924503289E+02  0.10675678705E+03  0.10518648564E+03 0.  0.
         11    1    3    3    0    0 -0.56877639089E+01 -0.42868079540E+02  0.35133257722E+02  0.55716861902E+02  0.51100000000E-03 0. -1.
         22    1    1    0    0    0 -0.86243049813E+01 -0.22014489240E+01 -0.15924503289E+02  0.18243212951E+02  0.00000000000E+00 0. -1.
</event>
<event>
 5    1  0.8902899E-005  0.9118800E+02  0.7818608E-02  0.1130116E+00
         25   -1    0    0    0    0  0.00000000000E+00  0.00000000000E+00  0.99999998245E-14  0.12500000000E+03  0.12500000000E+03 0.  0.
        -11    1    3    3    0    0  0.19337754026E+02 -0.22871224685E+02  0.40840746409E+02  0.50645910169E+02  0.51100000000E-03 0.  1.
         23    2    1    0    0    0 -0.17919032373E+02 -0.16341025459E+02  0.14403271981E+02  0.96794059527E+02  0.92593276655E+02 0.  0.
         11    1    3    3    0    0 -0.37256786399E+02  0.65301992260E+01 -0.26437474429E+02  0.46148149358E+02  0.51100000000E-03 0. -1.
         22    1    1    0    0    0  0.17919032373E+02  0.16341025459E+02 -0.14403271981E+02  0.28205940473E+02  0.00000000000E+00 0.  1.
</event>
<event>
 5    1  0.8902899E-005  0.9118800E+02  0.7818608E-02  0.1130116E+00
         25   -1    0    0    0    0  0.00000000000E+00  0.00000000000E+00  0.99999998245E-14  0.12500000000E+03  0.12500000000E+03 0.  0.
        -11    1    3    3    0    0  0.10599218055E+02  0.36570741710E+02 -0.48806779038E+02  0.61902053706E+02  0.51100000000E-03 0.  1.
         23    2    1    0    0    0  0.16324970591E+01  0.19722670164E+02 -0.17424845122E+02  0.98631951294E+02  0.95042031878E+02 0.  0.
         11    1    3    3    0    0 -0.89667209955E+01 -0.16848071546E+02  0.31381933917E+02  0.36729897588E+02  0.51100000000E-03 0. -1.
         22    1    1    0    0    0 -0.16324970591E+01 -0.19722670164E+02  0.17424845122E+02  0.26368048706E+02  0.00000000000E+00 0.  1.
</event>
<event>
 5    1  0.8902899E-005  0.9118800E+02  0.7818608E-02  0.1130116E+00
         25   -1    0    0    0    0  0.00000000000E+00  0.00000000000E+00  0.99999998245E-14  0.12500000000E+03  0.12500000000E+03 0.  0.
        -11    1    3    3    0    0  0.24240965684E+02  0.51377908704E+02 -0.17087559069E+02  0.59323676515E+02  0.51100000000E-03 0. -1.
         23    2    1    0    0    0  0.13741197127E+02  0.23155188997E+02  0.61754143633E+01  0.97375391070E+02  0.93374770509E+02 0.  0.
         11    1    3    3    0    0 -0.10499768557E+02 -0.28222719707E+02  0.23262973432E+02  0.38051714555E+02  0.51100000000E-03 0.  1.
         22    1    1    0    0    0 -0.13741197127E+02 -0.23155188997E+02 -0.61754143633E+01  0.27624608930E+02  0.00000000000E+00 0. -1.
</event>
<event>
 5    1  0.8902899E-005  0.9118800E+02  0.7818608E-02  0.1130116E+00
         25   -1    0    0    0    0  0.00000000000E+00  0.00000000000E+00  0.99999998245E-14  0.12500000000E+03  0.12500000000E+03 0.  0.
        -11    1    3    3    0    0 -0.21221613426E+02 -0.53863727690E+01 -0.29196069499E+02  0.36493566042E+02  0.51100000000E-03 0. -1.
         23    2    1    0    0    0  0.27219514505E+02  0.10357797810E+02  0.12764670929E+01  0.95848408044E+02  0.91307732482E+02 0.  0.
         11    1    3    3    0    0  0.48441127930E+02  0.15744170579E+02  0.30472536592E+02  0.59354842002E+02  0.51100000000E-03 0.  1.
         22    1    1    0    0    0 -0.27219514505E+02 -0.10357797810E+02 -0.12764670929E+01  0.29151591956E+02  0.00000000000E+00 0.  1.
</event>
<event>
 5    1  0.8902899E-005  0.9118800E+02  0.7818608E-02  0.1130116E+00
         25   -1    0    0    0    0  0.00000000000E+00  0.00000000000E+00  0.99999998245E-14  0.12500000000E+03  0.12500000000E+03 0.  0.
        -11    1    3    3    0    0  0.32268422989E+02 -0.36507565591E+02 -0.70187014642E+01  0.49227183934E+02  0.51100000000E-03 0. -1.
         23    2    1    0    0    0 -0.13124697117E+02 -0.19967945674E+02  0.79690866263E+01  0.99811056582E+02  0.96580350722E+02 0.  0.
         11    1    3    3    0    0 -0.45393120106E+02  0.16539619917E+02  0.14987788091E+02  0.50583872648E+02  0.51100000000E-03 0.  1.
         22    1    1    0    0    0  0.13124697117E+02  0.19967945674E+02 -0.79690866263E+01  0.25188943418E+02  0.00000000000E+00 0.  1.
</event>
<event>
 5    1  0.8902899E-005  0.9118800E+02  0.7818608E-02  0.1130116E+00
         25   -1    0    0    0    0  0.00000000000E+00  0.00000000000E+00  0.99999998245E-14  0.12500000000E+03  0.12500000000E+03 0.  0.
        -11    1    3    3    0    0  0.34894121481E+02  0.29629980421E+02 -0.31821853435E+01  0.45887490207E+02  0.51100000000E-03 0.  1.
         23    2    1    0    0    0 -0.12427009475E+02  0.17578734864E+02 -0.18022336235E+02  0.96924261590E+02  0.92768881623E+02 0.  0.
         11    1    3    3    0    0 -0.47321130956E+02 -0.12051245557E+02 -0.14840150891E+02  0.51036771383E+02  0.51100000000E-03 0. -1.
         22    1    1    0    0    0  0.12427009475E+02 -0.17578734864E+02  0.18022336235E+02  0.28075738410E+02  0.00000000000E+00 0. -1.
</event>
<event>
 5    1  0.8902899E-005  0.9118800E+02  0.7818608E-02  0.1130116E+00
         25   -1    0    0    0    0  0.00000000000E+00  0.00000000000E+00  0.99999998245E-14  0.12500000000E+03  0.12500000000E+03 0.  0.
        -11    1    3    3    0    0 -0.64025071597E+01 -0.29950267454E+02 -0.25676249122E+02  0.39965990388E+02  0.51100000000E-03 0.  1.
         23    2    1    0    0    0 -0.22898083284E+02  0.22427450024E+01  0.17354471332E+02  0.96181086099E+02  0.91762037492E+02 0.  0.
         11    1    3    3    0    0 -0.16495576125E+02  0.32193012457E+02  0.43030720454E+02  0.56215095710E+02  0.51100000000E-03 0. -1.
         22    1    1    0    0    0  0.22898083284E+02 -0.22427450024E+01 -0.17354471332E+02  0.28818913901E+02  0.00000000000E+00 0. -1.
</event>
<event>
 5    1  0.8902899E-005  0.9118800E+02  0.7818608E-02  0.1130116E+00
         25   -1    0    0    0    0  0.00000000000E+00  0.00000000000E+00  0.99999998245E-14  0.12500000000E+03  0.12500000000E+03 0.  0.
        -11    1    3    3    0    0 -0.30075015223E+02  0.26046668803E+02  0.34703304161E+02  0.52794458197E+02  0.51100000000E-03 0. -1.
         23    2    1    0    0    0  0.92768876138E+01  0.18432748319E+02  0.21989670455E+02  0.94844196891E+02  0.89922462282E+02 0.  0.
         11    1    3    3    0    0  0.39351902837E+02 -0.76139204844E+01 -0.12713633705E+02  0.42049738694E+02  0.51100000000E-03 0.  1.
         22    1    1    0    0    0 -0.92768876138E+01 -0.18432748319E+02 -0.21989670455E+02  0.30155803109E+02  0.00000000000E+00 0. -1.
</event>
<event>
 5    1  0.8902899E-005  0.9118800E+02  0.7818608E-02  0.1130116E+00
         25   -1    0    0    0    0  0.00000000000E+00  0.00000000000E+00  0.99999998245E-14  0.12500000000E+03  0.12500000000E+03 0.  0.
        -11    1    3    3    0    0  0.40472566797E+02 -0.27656015848E+02  0.16454000915E+02  0.51707040353E+02  0.51100000000E-03 0.  1.
         23    2    1    0    0    0  0.72311925639E+01 -0.39740228541E+01  0.29351384115E+02  0.94510874840E+02  0.89457915860E+02 0.  0.
         11    1    3    3    0    0 -0.33241374233E+02  0.23681992994E+02  0.12897383200E+02  0.42803834486E+02  0.51100000000E-03 0. -1.
         22    1    1    0    0    0 -0.72311925639E+01  0.39740228541E+01 -0.29351384115E+02  0.30489125160E+02  0.00000000000E+00 0.  1.
</event>
<event>
 5    1  0.8902899E-005  0.9118800E+02  0.7818608E-02  0.1130116E+00
         25   -1    0    0    0    0  0.00000000000E+00  0.00000000000E+00  0.99999998245E-14  0.12500000000E+03  0.12500000000E+03 0.  0.
        -11    1    3    3    0    0 -0.36488187750E+01 -0.48379839932E+02 -0.13616287020E+02  0.50391726134E+02  0.51100000000E-03 0. -1.
         23    2    1    0    0    0 -0.28239895887E+02 -0.19040288523E+02 -0.25112047366E+00  0.90939944683E+02  0.84320733931E+02 0.  0.
         11    1    3    3    0    0 -0.24591077112E+02  0.29339551409E+02  0.13365166546E+02  0.40548218548E+02  0.51100000000E-03 0.  1.
         22    1    1    0    0    0  0.28239895887E+02  0.19040288523E+02  0.25112047366E+00  0.34060055317E+02  0.00000000000E+00 0. -1.
</event>
<event>
 5    1  0.8902899E-005  0.9118800E+02  0.7818608E-02  0.1130116E+00
         25   -1    0    0    0    0  0.00000000000E+00  0.00000000000E+00  0.99999998245E-14  0.12500000000E+03  0.12500000000E+03 0.  0.
        -11    1    3    3    0    0 -0.41191439285E+02 -0.30373334424E+01 -0.14884158197E+02  0.43903282682E+02  0.51100000000E-03 0. -1.
         23    2    1    0    0    0 -0.10351072269E+02 -0.50525369156E+01  0.26820040509E+02  0.95811176808E+02  0.91256748803E+02 0.  0.
         11    1    3    3    0    0  0.30840367016E+02 -0.20152034732E+01  0.41704198706E+02  0.51907894126E+02  0.51100000000E-03 0.  1.
         22    1    1    0    0    0  0.10351072269E+02  0.50525369156E+01 -0.26820040509E+02  0.29188823192E+02  0.00000000000E+00 0. -1.
</event>
<event>
 5    1  0.8902899E-005  0.9118800E+02  0.7818608E-02  0.1130116E+00
         25   -1    0    0    0    0  0.00000000000E+00  0.00000000000E+00  0.99999998245E-14  0.12500000000E+03  0.12500000000E+03 0.  0.
        -11    1    3    3    0    0 -0.45791089957E+02 -0.38716156349E+02 -0.10451927931E+02  0.60868772614E+02  0.51100000000E-03 0.  1.
         23    2    1    0    0    0 -0.35462826513E+02 -0.29049324943E+02 -0.16534490616E+02  0.76267416199E+02  0.58667316709E+02 0.  0.
         11    1    3    3    0    0  0.10328263443E+02  0.96668314054E+01 -0.60825626849E+01  0.15398643585E+02  0.51100000000E-03 0. -1.
         22    1    1    0    0    0  0.35462826513E+02  0.29049324943E+02  0.16534490616E+02  0.48732583801E+02  0.00000000000E+00 0.  1.
</event>
<event>
 5    1  0.8902899E-005  0.9118800E+02  0.7818608E-02  0.1130116E+00
         25   -1    0    0    0    0  0.00000000000E+00  0.00000000000E+00  0.99999998245E-14  0.12500000000E+03  0.12500000000E+03 0.  0.
        -11    1    3    3    0    0 -0.28780970519E+02 -0.23129371134E+02 -0.72111686662E+01  0.37620646284E+02  0.51100000000E-03 0.  1.
         23    2    1    0    0    0  0.20598030594E+02  0.56657154962E+01 -0.19485554278E+02  0.96085193724E+02  0.91631317959E+02 0.  0.
         11    1    3    3    0    0  0.49379001113E+02  0.28795086630E+02 -0.12274385612E+02  0.58464547440E+02  0.51100000000E-03 0. -1.
         22    1    1    0    0    0 -0.20598030594E+02 -0.56657154962E+01  0.19485554278E+02  0.28914806276E+02  0.00000000000E+00 0. -1.
</event>
<event>
 5    1  0.8902899E-005  0.9118800E+02  0.7818608E-02  0.1130116E+00
         25   -1    0    0    0    0  0.00000000000E+00  0.00000000000E+00  0.99999998245E-14  0.12500000000E+03  0.12500000000E+03 0.  0.
        -11    1    3    3    0    0  0.42846459662E+02 -0.35357682672E+02 -0.91432661758E+01  0.56299059905E+02  0.51100000000E-03 0. -1.
         23    2    1    0    0    0  0.26905372647E+02 -0.49226133525E+01  0.10296022369E+02  0.95774338740E+02  0.91206275469E+02 0.  0.
         11    1    3    3    0    0 -0.15941087016E+02  0.30435069319E+02  0.19439288545E+02  0.39475278835E+02  0.51100000000E-03 0.  1.
         22    1    1    0    0    0 -0.26905372647E+02  0.49226133525E+01 -0.10296022369E+02  0.29225661260E+02  0.00000000000E+00 0. -1.
</event>
<event>
 5    1  0.8902899E-005  0.9118800E+02  0.7818608E-02  0.1130116E+00
         25   -1    0    0    0    0  0.00000000000E+00  0.00000000000E+00  0.99999998245E-14  0.12500000000E+03  0.12500000000E+03 0.  0.
        -11    1    3    3    0    0  0.24315169192E+02 -0.26135879184E+02 -0.26106000188E+02  0.44224821985E+02  0.51100000000E-03 0.  1.
         23    2    1    0    0    0  0.20272961934E+02 -0.95428805435E+01  0.20975114583E+02  0.94307737353E+02  0.89173619071E+02 0.  0.
         11    1    3    3    0    0 -0.40422072581E+01  0.16592998640E+02  0.47081114771E+02  0.50082915368E+02  0.51100000000E-03 0. -1.
         22    1    1    0    0    0 -0.20272961934E+02  0.95428805435E+01 -0.20975114583E+02  0.30692262647E+02  0.00000000000E+00 0. -1.
</event>
<event>
 5    1  0.8902899E-005  0.9118800E+02  0.7818608E-02  0.1130116E+00
         25   -1    0    0    0    0  0.00000000000E+00  0.00000000000E+00  0.99999998245E-14  0.12500000000E+03  0.12500000000E+03 0.  0.
        -11    1    3    3    0    0 -0.36932772837E+02 -0.71758417821E+01  0.13956949466E+01  0.37649307821E+02  0.51100000000E-03 0.  1.
         23    2    1    0    0    0  0.20590006518E+02 -0.89839279768E+01  0.16473207362E+02  0.97142758732E+02  0.93062826536E+02 0.  0.
         11    1    3    3    0    0  0.57522779355E+02 -0.18080861948E+01  0.15077512415E+02  0.59493450911E+02  0.51100000000E-03 0. -1.
         22    1    1    0    0    0 -0.20590006518E+02  0.89839279768E+01 -0.16473207362E+02  0.27857241268E+02  0.00000000000E+00 0. -1.
</event>
<event>
 5    1  0.8902899E-005  0.9118800E+02  0.7818608E-02  0.1130116E+00
         25   -1    0    0    0    0  0.00000000000E+00  0.00000000000E+00  0.99999998245E-14  0.12500000000E+03  0.12500000000E+03 0.  0.
        -11    1    3    3    0    0 -0.18057297427E+02  0.53669277002E+02 -0.47989977776E+01  0.56828581403E+02  0.51100000000E-03 0.  1.
         23    2    1    0    0    0  0.79131591268E+01  0.29801954504E+02  0.57277317344E+01  0.93637897226E+02  0.88229667949E+02 0.  0.
         11    1    3    3    0    0  0.25970456554E+02 -0.23867322498E+02  0.10526729512E+02  0.36809315823E+02  0.51100000000E-03 0. -1.
         22    1    1    0    0    0 -0.79131591268E+01 -0.29801954504E+02 -0.57277317344E+01  0.31362102774E+02  0.00000000000E+00 0.  1.
</event>
<event>
 5    1  0.8902899E-005  0.9118800E+02  0.7818608E-02  0.1130116E+00
         25   -1    0    0    0    0  0.00000000000E+00  0.00000000000E+00  0.99999998245E-14  0.12500000000E+03  0.12500000000E+03 0.  0.
        -11    1    3    3    0    0  0.41244867195E+02 -0.14315689108E+02 -0.16909041500E+02  0.46818732461E+02  0.51100000000E-03 0. -1.
         23    2    1    0    0    0 -0.99870641909E+01 -0.81118133609E+01 -0.22861017418E+02  0.98767022957E+02  0.95219513437E+02 0.  0.
         11    1    3    3    0    0 -0.51231931386E+02  0.62038757472E+01 -0.59519759184E+01  0.51948290496E+02  0.51100000000E-03 0.  1.
         22    1    1    0    0    0  0.99870641909E+01  0.81118133609E+01  0.22861017418E+02  0.26232977043E+02  0.00000000000E+00 0. -1.
</event>
<event>
 5    1  0.8902899E-005  0.9118800E+02  0.7818608E-02  0.1130116E+00
         25   -1    0    0    0    0  0.00000000000E+00  0.00000000000E+00  0.99999998245E-14  0.12500000000E+03  0.12500000000E+03 0.  0.
        -11    1    3    3    0    0  0.10088835901E+02  0.15951689212E+02 -0.36963105219E+02  0.41503158268E+02  0.51100000000E-03 0.  1.
         23    2    1    0    0    0 -0.25617751333E+02 -0.12899640625E+02 -0.10726897745E+02  0.94377520563E+02  0.89271384782E+02 0.  0.
         11    1    3    3    0    0 -0.35706587234E+02 -0.28851329837E+02  0.26236207474E+02  0.52874362295E+02  0.51100000000E-03 0. -1.
         22    1    1    0    0    0  0.25617751333E+02  0.12899640625E+02  0.10726897745E+02  0.30622479437E+02  0.00000000000E+00 0. -1.
</event>
<event>
 5    1  0.8902899E-005  0.9118800E+02  0.7818608E-02  0.1130116E+00
         25   -1    0    0    0    0  0.00000000000E+00  0.00000000000E+00  0.99999998245E-14  0.12500000000E+03  0.12500000000E+03 0.  0.
        -11    1    3    3    0    0 -0.50100929857E+02 -0.11990218336E+02  0.34959916170E+02  0.62258045642E+02  0.51100000000E-03 0.  1.
         23    2    1    0    0    0 -0.23877774402E+02 -0.17699968740E+01  0.16736593619E+02  0.95787082219E+02  0.91223738987E+02 0.  0.
         11    1    3    3    0    0  0.26223155455E+02  0.10220221462E+02 -0.18223322551E+02  0.33529036577E+02  0.51100000000E-03 0. -1.
         22    1    1    0    0    0  0.23877774402E+02  0.17699968740E+01 -0.16736593619E+02  0.29212917781E+02  0.00000000000E+00 0.  1.
</event>
<event>
 5    1  0.8902899E-005  0.9118800E+02  0.7818608E-02  0.1130116E+00
         25   -1    0    0    0    0  0.00000000000E+00  0.00000000000E+00  0.99999998245E-14  0.12500000000E+03  0.12500000000E+03 0.  0.
        -11    1    3    3    0    0 -0.10116226947E+02  0.32835230122E+02  0.84863900279E+01  0.35390806727E+02  0.51100000000E-03 0.  1.
         23    2    1    0    0    0 -0.12917067407E+02 -0.24348028733E+02 -0.10193846330E+02  0.95613070310E+02  0.90984985452E+02 0.  0.
         11    1    3    3    0    0 -0.28008404603E+01 -0.57183258855E+02 -0.18680236358E+02  0.60222263584E+02  0.51100000000E-03 0. -1.
         22    1    1    0    0    0  0.12917067407E+02  0.24348028733E+02  0.10193846330E+02  0.29386929690E+02  0.00000000000E+00 0. -1.
</event>
<event>
 5    1  0.8902899E-005  0.9118800E+02  0.7818608E-02  0.1130116E+00
         25   -1    0    0    0    0  0.00000000000E+00  0.00000000000E+00  0.99999998245E-14  0.12500000000E+03  0.12500000000E+03 0.  0.
        -11    1    3    3    0    0  0.26223125776E+02 -0.52908659829E+02 -0.11522626034E+02  0.60164354242E+02  0.51100000000E-03 0.  1.
         23    2    1    0    0    0  0.12314377398E+01 -0.28099914366E+02 -0.89967350194E+01  0.95469289421E+02  0.90787236743E+02 0.  0.
         11    1    3    3    0    0 -0.24991688036E+02  0.24808745463E+02  0.25258910149E+01  0.35304935180E+02  0.51100000000E-03 0. -1.
         22    1    1    0    0    0 -0.12314377398E+01  0.28099914366E+02  0.89967350194E+01  0.29530710579E+02  0.00000000000E+00 0.  1.
</event>
<event>
 5    1  0.8902899E-005  0.9118800E+02  0.7818608E-02  0.1130116E+00
         25   -1    0    0    0    0  0.00000000000E+00  0.00000000000E+00  0.99999998245E-14  0.12500000000E+03  0.12500000000E+03 0.  0.
        -11    1    3    3    0    0 -0.97985089078E+01 -0.30270261739E+02 -0.40115926469E+02  0.51201436301E+02  0.51100000000E-03 0. -1.
         23    2    1    0    0    0 -0.10155510451E+02 -0.29167646610E+02  0.26669631881E+01  0.94000021066E+02  0.88741226420E+02 0.  0.
         11    1    3    3    0    0 -0.35700154310E+00  0.11026151295E+01  0.42782889657E+02  0.42798584765E+02  0.51100000000E-03 0.  1.
         22    1    1    0    0    0  0.10155510451E+02  0.29167646610E+02 -0.26669631881E+01  0.30999978934E+02  0.00000000000E+00 0.  1.
</event>
<event>
 5    1  0.8902899E-005  0.9118800E+02  0.7818608E-02  0.1130116E+00
         25   -1    0    0    0    0  0.00000000000E+00  0.00000000000E+00  0.99999998245E-14  0.12500000000E+03  0.12500000000E+03 0.  0.
        -11    1    3    3    0    0  0.55256408018E+01 -0.32667736323E+02  0.30653741407E+02  0.45137186058E+02  0.51100000000E-03 0.  1.
         23    2    1    0    0    0  0.23963757222E+02 -0.48796601763E+01 -0.10737179574E+02  0.98291204279E+02  0.94592817221E+02 0.  0.
         11    1    3    3    0    0  0.18438116421E+02  0.27788076147E+02 -0.41390920981E+02  0.53154018221E+02  0.51100000000E-03 0. -1.
         22    1    1    0    0    0 -0.23963757222E+02  0.48796601763E+01  0.10737179574E+02  0.26708795721E+02  0.00000000000E+00 0. -1.
</event>
<event>
 5    1  0.8902899E-005  0.9118800E+02  0.7818608E-02  0.1130116E+00
         25   -1    0    0    0    0  0.00000000000E+00  0.00000000000E+00  0.99999998245E-14  0.12500000000E+03  0.12500000000E+03 0.  0.
        -11    1    3    3    0    0  0.24565757782E+02 -0.42646781942E+01 -0.43516168619E+02  0.50152974658E+02  0.51100000000E-03 0.  1.
         23    2    1    0    0    0  0.25325036078E+02  0.15240471133E+02 -0.27950116425E+01  0.95310919469E+02  0.90568923297E+02 0.  0.
         11    1    3    3    0    0  0.75927829618E+00  0.19505149327E+02  0.40721156976E+02  0.45157944811E+02  0.51100000000E-03 0. -1.
         22    1    1    0    0    0 -0.25325036078E+02 -0.15240471133E+02  0.27950116425E+01  0.29689080531E+02  0.00000000000E+00 0.  1.
</event>
<event>
 5    1  0.8902899E-005  0.9118800E+02  0.7818608E-02  0.1130116E+00
         25   -1    0    0    0    0  0.00000000000E+00  0.00000000000E+00  0.99999998245E-14  0.12500000000E+03  0.12500000000E+03 0.  0.
        -11    1    3    3    0    0 -0.39264670174E+02  0.26067324581E+02  0.29862382530E+02  0.55794100273E+02  0.51100000000E-03 0. -1.
         23    2    1    0    0    0 -0.27036880126E+02  0.69774676637E+01 -0.42531849985E+01  0.96755221286E+02  0.92540830564E+02 0.  0.
         11    1    3    3    0    0  0.12227790048E+02 -0.19089856917E+02 -0.34115567528E+02  0.40961121013E+02  0.51100000000E-03 0.  1.
         22    1    1    0    0    0  0.27036880126E+02 -0.69774676637E+01  0.42531849985E+01  0.28244778714E+02  0.00000000000E+00 0. -1.
</event>
<event>
 5    1  0.8902899E-005  0.9118800E+02  0.7818608E-02  0.1130116E+00
         25   -1    0    0    0    0  0.00000000000E+00  0.00000000000E+00  0.99999998245E-14  0.12500000000E+03  0.12500000000E+03 0.  0.
        -11    1    3    3    0    0  0.38728231249E+02 -0.22419033099E+02  0.43448944055E+02  0.62372266919E+02  0.51100000000E-03 0.  1.
         23    2    1    0    0    0  0.16559344710E+02 -0.12489562572E+02  0.21783745678E+02  0.94921225986E+02  0.90029475709E+02 0.  0.
         11    1    3    3    0    0 -0.22168886540E+02  0.99294705270E+01 -0.21665198377E+02  0.32548959067E+02  0.51100000000E-03 0. -1.
         22    1    1    0    0    0 -0.16559344710E+02  0.12489562572E+02 -0.21783745678E+02  0.30078774014E+02  0.00000000000E+00 0.  1.
</event>
<event>
 5    1  0.8902899E-005  0.9118800E+02  0.7818608E-02  0.1130116E+00
         25   -1    0    0    0    0  0.00000000000E+00  0.00000000000E+00  0.99999998245E-14  0.12500000000E+03  0.12500000000E+03 0.  0.
        -11    1    3    3    0    0 -0.38714177444E+02  0.14494670670E+02  0.14809469274E+02  0.43911312818E+02  0.51100000000E-03 0.  1.
         23    2    1    0    0    0 -0.53455756604E+01 -0.11455435777E+02 -0.21778902930E+02  0.99818204972E+02  0.96589602148E+02 0.  0.
         11    1    3    3    0    0  0.33368601783E+02 -0.25950106447E+02 -0.36588372204E+02  0.55906892154E+02  0.51100000000E-03 0. -1.
         22    1    1    0    0    0  0.53455756604E+01  0.11455435777E+02  0.21778902930E+02  0.25181795028E+02  0.00000000000E+00 0. -1.
</event>
<event>
 5    1  0.8902899E-005  0.9118800E+02  0.7818608E-02  0.1130116E+00
         25   -1    0    0    0    0  0.00000000000E+00  0.00000000000E+00  0.99999998245E-14  0.12500000000E+03  0.12500000000E+03 0.  0.
        -11    1    3    3    0    0 -0.16381040414E+02  0.31693875562E+02 -0.29907699010E+01  0.35802024217E+02  0.51100000000E-03 0. -1.
         23    2    1    0    0    0 -0.98688592931E+01 -0.26907155612E+02  0.67320625496E+01  0.95560059901E+02  0.90912127767E+02 0.  0.
         11    1    3    3    0    0  0.65121811212E+01 -0.58601031174E+02  0.97228324506E+01  0.59758035683E+02  0.51100000000E-03 0.  1.
         22    1    1    0    0    0  0.98688592931E+01  0.26907155612E+02 -0.67320625496E+01  0.29439940099E+02  0.00000000000E+00 0.  1.
</event>
<event>
 5    1  0.8902899E-005  0.9118800E+02  0.7818608E-02  0.1130116E+00
         25   -1    0    0    0    0  0.00000000000E+00  0.00000000000E+00  0.99999998245E-14  0.12500000000E+03  0.12500000000E+03 0.  0.
        -11    1    3    3    0    0  0.40162665827E+02 -0.45329340761E+02  0.21510290505E+01  0.60600460282E+02  0.51100000000E-03 0. -1.
         23    2    1    0    0    0  0.19432508320E+02 -0.20037498421E+02 -0.97986383923E+01  0.95417284829E+02  0.90715606194E+02 0.  0.
         11    1    3    3    0    0 -0.20730157508E+02  0.25291842340E+02 -0.11949667443E+02  0.34816824546E+02  0.51100000000E-03 0.  1.
         22    1    1    0    0    0 -0.19432508320E+02  0.20037498421E+02  0.97986383923E+01  0.29582715171E+02  0.00000000000E+00 0. -1.
</event>
<event>
 5    1  0.8902899E-005  0.9118800E+02  0.7818608E-02  0.1130116E+00
         25   -1    0    0    0    0  0.00000000000E+00  0.00000000000E+00  0.99999998245E-14  0.12500000000E+03  0.12500000000E+03 0.  0.
        -11    1    3    3    0    0 -0.38778225654E+02 -0.30326197442E+02 -0.35541422172E+01  0.49356468303E+02  0.51100000000E-03 0. -1.
         23    2    1    0    0    0  0.31518583285E+01 -0.21145096665E+02 -0.20383512057E+02  0.95461264623E+02  0.90776187163E+02 0.  0.
         11    1    3    3    0    0  0.41930083983E+02  0.91811007772E+01 -0.16829369840E+02  0.46104796320E+02  0.51100000000E-03 0.  1.
         22    1    1    0    0    0 -0.31518583285E+01  0.21145096665E+02  0.20383512057E+02  0.29538735377E+02  0.00000000000E+00 0. -1.
</event>
<event>
 5    1  0.8902899E-005  0.9118800E+02  0.7818608E-02  0.1130116E+00
         25   -1    0    0    0    0  0.00000000000E+00  0.00000000000E+00  0.99999998245E-14  0.12500000000E+03  0.12500000000E+03 0.  0.
        -11    1    3    3    0    0 -0.11422224173E+02 -0.34998463541E+02  0.27145111912E+01  0.36915149012E+02  0.51100000000E-03 0.  1.
         23    2    1    0    0    0 -0.17739012692E+02  0.23326571102E+02 -0.76916772984E+00  0.95684592623E+02  0.91083193597E+02 0.  0.
         11    1    3    3    0    0 -0.63167885192E+01  0.58325034643E+02 -0.34836789210E+01  0.58769443611E+02  0.51100000000E-03 0. -1.
         22    1    1    0    0    0  0.17739012692E+02 -0.23326571102E+02  0.76916772984E+00  0.29315407377E+02  0.00000000000E+00 0. -1.
</event>
<event>
 5    1  0.8902899E-005  0.9118800E+02  0.7818608E-02  0.1130116E+00
         25   -1    0    0    0    0  0.00000000000E+00  0.00000000000E+00  0.99999998245E-14  0.12500000000E+03  0.12500000000E+03 0.  0.
        -11    1    3    3    0    0 -0.53672648926E+02  0.11467681769E+02  0.11976826701E+02  0.56175665069E+02  0.51100000000E-03 0.  1.
         23    2    1    0    0    0 -0.17383693898E+02 -0.40102575624E+00  0.23232727006E+02  0.95980812566E+02  0.91488814297E+02 0.  0.
         11    1    3    3    0    0  0.36288955027E+02 -0.11868707525E+02  0.11255900305E+02  0.39805147497E+02  0.51100000000E-03 0. -1.
         22    1    1    0    0    0  0.17383693898E+02  0.40102575624E+00 -0.23232727006E+02  0.29019187434E+02  0.00000000000E+00 0.  1.
</event>
<event>
 5    1  0.8902899E-005  0.9118800E+02  0.7818608E-02  0.1130116E+00
         25   -1    0    0    0    0  0.00000000000E+00  0.00000000000E+00  0.99999998245E-14  0.12500000000E+03  0.12500000000E+03 0.  0.
        -11    1    3    3    0    0 -0.16559502159E+01 -0.55836359067E+02  0.16617520688E+02  0.58280212415E+02  0.51100000000E-03 0. -1.
         23    2    1    0    0    0 -0.87604953552E+00 -0.18755140441E+02  0.22350182190E+02  0.95810046254E+02  0.91255200200E+02 0.  0.
         11    1    3    3    0    0  0.77990068034E+00  0.37081218626E+02  0.57326615017E+01  0.37529833840E+02  0.51100000000E-03 0.  1.
         22    1    1    0    0    0  0.87604953552E+00  0.18755140441E+02 -0.22350182190E+02  0.29189953746E+02  0.00000000000E+00 0. -1.
</event>
<event>
 5    1  0.8902899E-005  0.9118800E+02  0.7818608E-02  0.1130116E+00
         25   -1    0    0    0    0  0.00000000000E+00  0.00000000000E+00  0.99999998245E-14  0.12500000000E+03  0.12500000000E+03 0.  0.
        -11    1    3    3    0    0 -0.77997764996E+01  0.29312337170E+02  0.16364586048E+02  0.34465189693E+02  0.51100000000E-03 0.  1.
         23    2    1    0    0    0  0.88710212516E+01 -0.24771336970E+02 -0.99386274688E+01  0.96873669467E+02  0.92700686981E+02 0.  0.
         11    1    3    3    0    0  0.16670797751E+02 -0.54083674139E+02 -0.26303213517E+02  0.62408479774E+02  0.51100000000E-03 0. -1.
         22    1    1    0    0    0 -0.88710212516E+01  0.24771336970E+02  0.99386274688E+01  0.28126330533E+02  0.00000000000E+00 0. -1.
</event>
<event>
 5    1  0.8902899E-005  0.9118800E+02  0.7818608E-02  0.1130116E+00
         25   -1    0    0    0    0  0.00000000000E+00  0.00000000000E+00  0.99999998245E-14  0.12500000000E+03  0.12500000000E+03 0.  0.
        -11    1    3    3    0    0 -0.29832751628E+02 -0.35871321276E+02 -0.20091666460E+02  0.50797832840E+02  0.51100000000E-03 0. -1.
         23    2    1    0    0    0  0.12687174580E+02 -0.23752550246E+02 -0.10856919997E+02  0.95965180321E+02  0.91467453667E+02 0.  0.
         11    1    3    3    0    0  0.42519926208E+02  0.12118771030E+02  0.92347464635E+01  0.45167347481E+02  0.51100000000E-03 0.  1.
         22    1    1    0    0    0 -0.12687174580E+02  0.23752550246E+02  0.10856919997E+02  0.29034819679E+02  0.00000000000E+00 0. -1.
</event>
<event>
 5    1  0.8902899E-005  0.9118800E+02  0.7818608E-02  0.1130116E+00
         25   -1    0    0    0    0  0.00000000000E+00  0.00000000000E+00  0.99999998245E-14  0.12500000000E+03  0.12500000000E+03 0.  0.
        -11    1    3    3    0    0  0.46498722241E+02  0.15480161037E+01 -0.31326319421E+02  0.56088018441E+02  0.51100000000E-03 0. -1.
         23    2    1    0    0    0  0.19274977574E+02 -0.18444918076E+02 -0.79591253507E+01  0.97159607767E+02  0.93085455050E+02 0.  0.
         11    1    3    3    0    0 -0.27223744667E+02 -0.19992934180E+02  0.23367194071E+02  0.41071589326E+02  0.51100000000E-03 0.  1.
         22    1    1    0    0    0 -0.19274977574E+02  0.18444918076E+02  0.79591253507E+01  0.27840392233E+02  0.00000000000E+00 0. -1.
</event>
<event>
 5    1  0.8902899E-005  0.9118800E+02  0.7818608E-02  0.1130116E+00
         25   -1    0    0    0    0  0.00000000000E+00  0.00000000000E+00  0.99999998245E-14  0.12500000000E+03  0.12500000000E+03 0.  0.
        -11    1    3    3    0    0  0.40038260177E+02  0.67424464484E+01  0.12282192929E+01  0.40620578344E+02  0.51100000000E-03 0.  1.
         23    2    1    0    0    0 -0.33585313804E+01 -0.64570846557E+01  0.29863206860E+02  0.94262648142E+02  0.89110392410E+02 0.  0.
         11    1    3    3    0    0 -0.43396791558E+02 -0.13199531104E+02  0.28634987568E+02  0.53642069797E+02  0.51100000000E-03 0. -1.
         22    1    1    0    0    0  0.33585313804E+01  0.64570846557E+01 -0.29863206860E+02  0.30737351858E+02  0.00000000000E+00 0. -1.
</event>
<event>
 5    1  0.8902899E-005  0.9118800E+02  0.7818608E-02  0.1130116E+00
         25   -1    0    0    0    0  0.00000000000E+00  0.00000000000E+00  0.99999998245E-14  0.12500000000E+03  0.12500000000E+03 0.  0.
        -11    1    3    3    0    0 -0.44901614732E+02 -0.32320241245E+02  0.43899258505E+01  0.55497967971E+02  0.51100000000E-03 0.  1.
         23    2    1    0    0    0 -0.21329234218E+02 -0.96596602451E+01 -0.18287387496E+02  0.95290173178E+02  0.90540285478E+02 0.  0.
         11    1    3    3    0    0  0.23572380514E+02  0.22660581000E+02 -0.22677313347E+02  0.39792205207E+02  0.51100000000E-03 0. -1.
         22    1    1    0    0    0  0.21329234218E+02  0.96596602451E+01  0.18287387496E+02  0.29709826822E+02  0.00000000000E+00 0.  1.
</event>
<event>
 5    1  0.8902899E-005  0.9118800E+02  0.7818608E-02  0.1130116E+00
         25   -1    0    0    0    0  0.00000000000E+00  0.00000000000E+00  0.99999998245E-14  0.12500000000E+03  0.12500000000E+03 0.  0.
        -11    1    3    3    0    0 -0.38884614082E+02  0.12194693734E+02  0.43649593063E+02  0.59716084453E+02  0.51100000000E-03 0.  1.
         23    2    1    0    0    0 -0.22605276980E+02  0.15490296302E+02  0.12796312214E+02  0.94756100894E+02  0.89799917726E+02 0.  0.
         11    1    3    3    0    0  0.16279337102E+02  0.32956025670E+01 -0.30853280849E+02  0.35040016441E+02  0.51100000000E-03 0. -1.
         22    1    1    0    0    0  0.22605276980E+02 -0.15490296302E+02 -0.12796312214E+02  0.30243899106E+02  0.00000000000E+00 0.  1.
</event>
<event>
 5    1  0.8902899E-005  0.9118800E+02  0.7818608E-02  0.1130116E+00
         25   -1    0    0    0    0  0.00000000000E+00  0.00000000000E+00  0.99999998245E-14  0.12500000000E+03  0.12500000000E+03 0.  0.
        -11    1    3    3    0    0  0.60961100326E+02  0.83963471303E+01  0.87975829591E+00  0.61542898640E+02  0.51100000000E-03 0. -1.
         23    2    1    0    0    0  0.30287513822E+02  0.68483544020E+01 -0.68238853927E+01  0.93206936867E+02  0.87616974478E+02 0.  0.
         11    1    3    3    0    0 -0.30673586504E+02 -0.15479927283E+01 -0.77036436886E+01  0.31664038227E+02  0.51100000000E-03 0.  1.
         22    1    1    0    0    0 -0.30287513822E+02 -0.68483544020E+01  0.68238853927E+01  0.31793063133E+02  0.00000000000E+00 0. -1.
</event>
<event>
 5    1  0.8902899E-005  0.9118800E+02  0.7818608E-02  0.1130116E+00
         25   -1    0    0    0    0  0.00000000000E+00  0.00000000000E+00  0.99999998245E-14  0.12500000000E+03  0.12500000000E+03 0.  0.
        -11    1    3    3    0    0 -0.25869989901E+02 -0.39113565116E+02 -0.35010430305E+02  0.58522282799E+02  0.51100000000E-03 0. -1.
         23    2    1    0    0    0  0.86220648803E-01 -0.11992788080E+02 -0.24840929812E+02  0.97415471839E+02  0.93428410881E+02 0.  0.
         11    1    3    3    0    0  0.25956210550E+02  0.27120777037E+02  0.10169500493E+02  0.38893189040E+02  0.51100000000E-03 0.  1.
         22    1    1    0    0    0 -0.86220648803E-01  0.11992788080E+02  0.24840929812E+02  0.27584528161E+02  0.00000000000E+00 0. -1.
</event>
<event>
 5    1  0.8902899E-005  0.9118800E+02  0.7818608E-02  0.1130116E+00
         25   -1    0    0    0    0  0.00000000000E+00  0.00000000000E+00  0.99999998245E-14  0.12500000000E+03  0.12500000000E+03 0.  0.
        -11    1    3    3    0    0  0.29292649612E+02 -0.22230618088E+02 -0.66574488132E+01  0.37370862003E+02  0.51100000000E-03 0.  1.
         23    2    1    0    0    0 -0.27100019792E+02 -0.11656308416E+02  0.21624923294E+01  0.95420328405E+02  0.90719799940E+02 0.  0.
         11    1    3    3    0    0 -0.56392669404E+02  0.10574309672E+02  0.88199411426E+01  0.58049466402E+02  0.51100000000E-03 0. -1.
         22    1    1    0    0    0  0.27100019792E+02  0.11656308416E+02 -0.21624923294E+01  0.29579671595E+02  0.00000000000E+00 0. -1.
</event>
<event>
 5    1  0.8902899E-005  0.9118800E+02  0.7818608E-02  0.1130116E+00
         25   -1    0    0    0    0  0.00000000000E+00  0.00000000000E+00  0.99999998245E-14  0.12500000000E+03  0.12500000000E+03 0.  0.
        -11    1    3    3    0    0  0.11259987830E+01 -0.46842853688E+02 -0.11883735215E+02  0.48339879787E+02  0.51100000000E-03 0.  1.
         23    2    1    0    0    0 -0.19446867474E+02 -0.46106235253E+01 -0.20798941353E+02  0.96154992369E+02  0.91726485227E+02 0.  0.
         11    1    3    3    0    0 -0.20572866257E+02  0.42232230162E+02 -0.89152061373E+01  0.47815112582E+02  0.51100000000E-03 0. -1.
         22    1    1    0    0    0  0.19446867474E+02  0.46106235253E+01  0.20798941353E+02  0.28845007631E+02  0.00000000000E+00 0. -1.
</event>
<event>
 5    1  0.8902899E-005  0.9118800E+02  0.7818608E-02  0.1130116E+00
         25   -1    0    0    0    0  0.00000000000E+00  0.00000000000E+00  0.99999998245E-14  0.12500000000E+03  0.12500000000E+03 0.  0.
        -11    1    3    3    0    0 -0.35191284668E+02  0.36072743142E+01 -0.17579138214E+01  0.35419333786E+02  0.51100000000E-03 0.  1.
         23    2    1    0    0    0  0.11404030456E+02  0.27987484164E+02  0.15846309076E+02  0.90875863501E+02  0.84225684177E+02 0.  0.
         11    1    3    3    0    0  0.46595315125E+02  0.24380209850E+02  0.17604222897E+02  0.55456529715E+02  0.51100000000E-03 0. -1.
         22    1    1    0    0    0 -0.11404030456E+02 -0.27987484164E+02 -0.15846309076E+02  0.34124136499E+02  0.00000000000E+00 0. -1.
</event>
<event>
 5    1  0.8902899E-005  0.9118800E+02  0.7818608E-02  0.1130116E+00
         25   -1    0    0    0    0  0.00000000000E+00  0.00000000000E+00  0.99999998245E-14  0.12500000000E+03  0.12500000000E+03 0.  0.
        -11    1    3    3    0    0  0.30122619124E+01 -0.47530303349E+02 -0.20748699490E+02  0.51949128857E+02  0.51100000000E-03 0. -1.
         23    2    1    0    0    0 -0.23441808266E+02 -0.17508694223E+02 -0.34631204164E+01  0.95537041031E+02  0.90880472368E+02 0.  0.
         11    1    3    3    0    0 -0.26454070179E+02  0.30021609125E+02  0.17285579074E+02  0.43587912174E+02  0.51100000000E-03 0.  1.
         22    1    1    0    0    0  0.23441808266E+02  0.17508694223E+02  0.34631204164E+01  0.29462958969E+02  0.00000000000E+00 0. -1.
</event>
<event>
 5    1  0.8902899E-005  0.9118800E+02  0.7818608E-02  0.1130116E+00
         25   -1    0    0    0    0  0.00000000000E+00  0.00000000000E+00  0.99999998245E-14  0.12500000000E+03  0.12500000000E+03 0.  0.
        -11    1    3    3    0    0  0.14091492649E+02  0.30912405660E+02  0.39627271277E+02  0.52196433000E+02  0.51100000000E-03 0. -1.
         23    2    1    0    0    0 -0.15587298301E+02  0.24091922449E+02  0.10193382436E+02  0.94548569146E+02  0.89510570808E+02 0.  0.
         11    1    3    3    0    0 -0.29678790950E+02 -0.68204832112E+01 -0.29433888842E+02  0.42352136145E+02  0.51100000000E-03 0.  1.
         22    1    1    0    0    0  0.15587298301E+02 -0.24091922449E+02 -0.10193382436E+02  0.30451430854E+02  0.00000000000E+00 0.  1.
</event>
<event>
 5    1  0.8902899E-005  0.9118800E+02  0.7818608E-02  0.1130116E+00
         25   -1    0    0    0    0  0.00000000000E+00  0.00000000000E+00  0.99999998245E-14  0.12500000000E+03  0.12500000000E+03 0.  0.
        -11    1    3    3    0    0  0.30780083953E+02  0.45031992529E+02 -0.24485550786E+02  0.59789933240E+02  0.51100000000E-03 0. -1.
         23    2    1    0    0    0  0.19316065968E+02  0.11558953523E+02 -0.18894798739E+02  0.95610661279E+02  0.90981675737E+02 0.  0.
         11    1    3    3    0    0 -0.11464017985E+02 -0.33473039005E+02  0.55907520465E+01  0.35820728040E+02  0.51100000000E-03 0.  1.
         22    1    1    0    0    0 -0.19316065968E+02 -0.11558953523E+02  0.18894798739E+02  0.29389338721E+02  0.00000000000E+00 0. -1.
</event>
<event>
 5    1  0.8902899E-005  0.9118800E+02  0.7818608E-02  0.1130116E+00
         25   -1    0    0    0    0  0.00000000000E+00  0.00000000000E+00  0.99999998245E-14  0.12500000000E+03  0.12500000000E+03 0.  0.
        -11    1    3    3    0    0 -0.12807040985E+02  0.88071816703E+01  0.32306343263E+02  0.35850893476E+02  0.51100000000E-03 0. -1.
         23    2    1    0    0    0 -0.11612245347E+02 -0.83122470681E+00 -0.26816128149E+02  0.95765775102E+02  0.91194538079E+02 0.  0.
         11    1    3    3    0    0  0.11947956381E+01 -0.96384063771E+01 -0.59122471412E+02  0.59914881625E+02  0.51100000000E-03 0.  1.
         22    1    1    0    0    0  0.11612245347E+02  0.83122470681E+00  0.26816128149E+02  0.29234224898E+02  0.00000000000E+00 0.  1.
</event>
<event>
 5    1  0.8902899E-005  0.9118800E+02  0.7818608E-02  0.1130116E+00
         25   -1    0    0    0    0  0.00000000000E+00  0.00000000000E+00  0.99999998245E-14  0.12500000000E+03  0.12500000000E+03 0.  0.
        -11    1    3    3    0    0 -0.30604666313E+02 -0.21239706250E+02  0.47401994738E+02  0.60288637629E+02  0.51100000000E-03 0. -1.
         23    2    1    0    0    0 -0.97285558920E+01 -0.99768110248E+00  0.28244121079E+02  0.95110695176E+02  0.90292157987E+02 0.  0.
         11    1    3    3    0    0  0.20876110421E+02  0.20242025147E+02 -0.19157873659E+02  0.34822057547E+02  0.51100000000E-03 0.  1.
         22    1    1    0    0    0  0.97285558920E+01  0.99768110248E+00 -0.28244121079E+02  0.29889304824E+02  0.00000000000E+00 0. -1.
</event>
<event>
 5    1  0.8902899E-005  0.9118800E+02  0.7818608E-02  0.1130116E+00
         25   -1    0    0    0    0  0.00000000000E+00  0.00000000000E+00  0.99999998245E-14  0.12500000000E+03  0.12500000000E+03 0.  0.
        -11    1    3    3    0    0 -0.40753098313E+02 -0.26772888420E+02  0.30142136985E+02  0.57324959649E+02  0.51100000000E-03 0. -1.
         23    2    1    0    0    0 -0.14790243142E+02  0.17499176078E+00  0.26149077672E+02  0.94957427250E+02  0.90079724759E+02 0.  0.
         11    1    3    3    0    0  0.25962855171E+02  0.26947880181E+02 -0.39930593126E+01  0.37632467602E+02  0.51100000000E-03 0.  1.
         22    1    1    0    0    0  0.14790243142E+02 -0.17499176078E+00 -0.26149077672E+02  0.30042572750E+02  0.00000000000E+00 0. -1.
</event>
<event>
 5    1  0.8902899E-005  0.9118800E+02  0.7818608E-02  0.1130116E+00
         25   -1    0    0    0    0  0.00000000000E+00  0.00000000000E+00  0.99999998245E-14  0.12500000000E+03  0.12500000000E+03 0.  0.
        -11    1    3    3    0    0  0.31635229336E+02  0.37016182235E+02 -0.28776088732E+02  0.56560134065E+02  0.51100000000E-03 0. -1.
         23    2    1    0    0    0  0.25613646542E+02  0.15135491156E+02  0.24343978901E+01  0.95149233262E+02  0.90345494163E+02 0.  0.
         11    1    3    3    0    0 -0.60215827936E+01 -0.21880691079E+02  0.31210486622E+02  0.38589099198E+02  0.51100000000E-03 0.  1.
         22    1    1    0    0    0 -0.25613646542E+02 -0.15135491156E+02 -0.24343978901E+01  0.29850766738E+02  0.00000000000E+00 0. -1.
</event>
<event>
 5    1  0.8902899E-005  0.9118800E+02  0.7818608E-02  0.1130116E+00
         25   -1    0    0    0    0  0.00000000000E+00  0.00000000000E+00  0.99999998245E-14  0.12500000000E+03  0.12500000000E+03 0.  0.
        -11    1    3    3    0    0  0.36340291129E+02  0.19175306270E+02 -0.35678657992E+02  0.54417605297E+02  0.51100000000E-03 0.  1.
         23    2    1    0    0    0  0.18018478376E+02  0.32388261785E+02 -0.28898109963E+02  0.78002491302E+02  0.62254500443E+02 0.  0.
         11    1    3    3    0    0 -0.18321812754E+02  0.13212955515E+02  0.67805480289E+01  0.23584886004E+02  0.51100000000E-03 0. -1.
         22    1    1    0    0    0 -0.18018478376E+02 -0.32388261785E+02  0.28898109963E+02  0.46997508698E+02  0.00000000000E+00 0.  1.
</event>
<event>
 5    1  0.8902899E-005  0.9118800E+02  0.7818608E-02  0.1130116E+00
         25   -1    0    0    0    0  0.00000000000E+00  0.00000000000E+00  0.99999998245E-14  0.12500000000E+03  0.12500000000E+03 0.  0.
        -11    1    3    3    0    0  0.64617925552E+01 -0.36380467679E+02  0.95698408498E+01  0.38169032549E+02  0.51100000000E-03 0.  1.
         23    2    1    0    0    0 -0.54239070750E+01  0.18257334229E+02  0.22460516108E+02  0.95551336110E+02  0.90900132164E+02 0.  0.
         11    1    3    3    0    0 -0.11885699630E+02  0.54637801908E+02  0.12890675258E+02  0.57382303560E+02  0.51100000000E-03 0. -1.
         22    1    1    0    0    0  0.54239070750E+01 -0.18257334229E+02 -0.22460516108E+02  0.29448663890E+02  0.00000000000E+00 0. -1.
</event>
<event>
 5    1  0.8902899E-005  0.9118800E+02  0.7818608E-02  0.1130116E+00
         25   -1    0    0    0    0  0.00000000000E+00  0.00000000000E+00  0.99999998245E-14  0.12500000000E+03  0.12500000000E+03 0.  0.
        -11    1    3    3    0    0 -0.25903815498E+02  0.38023073430E+02 -0.40496330855E+02  0.61292043394E+02  0.51100000000E-03 0.  1.
         23    2    1    0    0    0 -0.17054114859E+02  0.21392447249E+02 -0.12781823980E+02  0.94803068746E+02  0.89865272416E+02 0.  0.
         11    1    3    3    0    0  0.88497006387E+01 -0.16630626181E+02  0.27714506875E+02  0.33511025352E+02  0.51100000000E-03 0. -1.
         22    1    1    0    0    0  0.17054114859E+02 -0.21392447249E+02  0.12781823980E+02  0.30196931254E+02  0.00000000000E+00 0.  1.
</event>
<event>
 5    1  0.8902899E-005  0.9118800E+02  0.7818608E-02  0.1130116E+00
         25   -1    0    0    0    0  0.00000000000E+00  0.00000000000E+00  0.99999998245E-14  0.12500000000E+03  0.12500000000E+03 0.  0.
        -11    1    3    3    0    0 -0.27784539644E+02  0.46460375823E+01  0.18458374145E+02  0.33679042219E+02  0.51100000000E-03 0.  1.
         23    2    1    0    0    0  0.26026540013E+02 -0.21176361092E+01 -0.12416136299E+02  0.96085892573E+02  0.91632271298E+02 0.  0.
         11    1    3    3    0    0  0.53811079657E+02 -0.67636736915E+01 -0.30874510443E+02  0.62406850354E+02  0.51100000000E-03 0. -1.
         22    1    1    0    0    0 -0.26026540013E+02  0.21176361092E+01  0.12416136299E+02  0.28914107427E+02  0.00000000000E+00 0. -1.
</event>
<event>
 5    1  0.8902899E-005  0.9118800E+02  0.7818608E-02  0.1130116E+00
         25   -1    0    0    0    0  0.00000000000E+00  0.00000000000E+00  0.99999998245E-14  0.12500000000E+03  0.12500000000E+03 0.  0.
        -11    1    3    3    0    0  0.49765513806E+02 -0.98828907120E+01 -0.30479536711E+02  0.59188512835E+02  0.51100000000E-03 0.  1.
         23    2    1    0    0    0  0.30791791462E+02 -0.15942559241E+02 -0.76380939822E+01  0.89494506111E+02  0.82150024515E+02 0.  0.
         11    1    3    3    0    0 -0.18973722344E+02 -0.60596685295E+01  0.22841442729E+02  0.30305993276E+02  0.51100000000E-03 0. -1.
         22    1    1    0    0    0 -0.30791791462E+02  0.15942559241E+02  0.76380939822E+01  0.35505493889E+02  0.00000000000E+00 0.  1.
</event>
<event>
 5    1  0.8902899E-005  0.9118800E+02  0.7818608E-02  0.1130116E+00
         25   -1    0    0    0    0  0.00000000000E+00  0.00000000000E+00  0.99999998245E-14  0.12500000000E+03  0.12500000000E+03 0.  0.
        -11    1    3    3    0    0  0.31510250543E+02  0.77561613828E+01  0.40832903919E+02  0.52157261924E+02  0.51100000000E-03 0. -1.
         23    2    1    0    0    0 -0.67423086846E+01  0.18668514313E+02  0.18950481758E+02  0.97557461635E+02  0.93618189518E+02 0.  0.
         11    1    3    3    0    0 -0.38252559227E+02  0.10912352930E+02 -0.21882422161E+02  0.45400199711E+02  0.51100000000E-03 0.  1.
         22    1    1    0    0    0  0.67423086846E+01 -0.18668514313E+02 -0.18950481758E+02  0.27442538365E+02  0.00000000000E+00 0.  1.
</event>
<event>
 5    1  0.8902899E-005  0.9118800E+02  0.7818608E-02  0.1130116E+00
         25   -1    0    0    0    0  0.00000000000E+00  0.00000000000E+00  0.99999998245E-14  0.12500000000E+03  0.12500000000E+03 0.  0.
        -11    1    3    3    0    0  0.26311822933E+02  0.10369580517E+02  0.45871418380E+02  0.53889027183E+02  0.51100000000E-03 0.  1.
         23    2    1    0    0    0  0.15067348321E+01 -0.15238652339E+02  0.26318305169E+02  0.94551026915E+02  0.89514002976E+02 0.  0.
         11    1    3    3    0    0 -0.24805088101E+02 -0.25608232856E+02 -0.19553113212E+02  0.40661999733E+02  0.51100000000E-03 0. -1.
         22    1    1    0    0    0 -0.15067348321E+01  0.15238652339E+02 -0.26318305169E+02  0.30448973085E+02  0.00000000000E+00 0.  1.
</event>
<event>
 5    1  0.8902899E-005  0.9118800E+02  0.7818608E-02  0.1130116E+00
         25   -1    0    0    0    0  0.00000000000E+00  0.00000000000E+00  0.99999998245E-14  0.12500000000E+03  0.12500000000E+03 0.  0.
        -11    1    3    3    0    0  0.23401430954E+02 -0.68376791701E+01 -0.22236924660E+02  0.32997903656E+02  0.51100000000E-03 0.  1.
         23    2    1    0    0    0 -0.70368368420E+01 -0.26315893207E+02 -0.42568354144E+02  0.74461815599E+02  0.54685042743E+02 0.  0.
         11    1    3    3    0    0 -0.30438267796E+02 -0.19478214037E+02 -0.20331429484E+02  0.41463911943E+02  0.51100000000E-03 0. -1.
         22    1    1    0    0    0  0.70368368420E+01  0.26315893207E+02  0.42568354144E+02  0.50538184401E+02  0.00000000000E+00 0. -1.
</event>
<event>
 5    1  0.8902899E-005  0.9118800E+02  0.7818608E-02  0.1130116E+00
         25   -1    0    0    0    0  0.00000000000E+00  0.00000000000E+00  0.99999998245E-14  0.12500000000E+03  0.12500000000E+03 0.  0.
        -11    1    3    3    0    0  0.36438512774E+02 -0.81370358700E+01  0.25565117567E+02  0.45249881795E+02  0.51100000000E-03 0.  1.
         23    2    1    0    0    0  0.88247690090E+01  0.28051217314E+02  0.51194941784E+01  0.95151104518E+02  0.90348083153E+02 0.  0.
         11    1    3    3    0    0 -0.27613743765E+02  0.36188253184E+02 -0.20445623389E+02  0.49901222723E+02  0.51100000000E-03 0. -1.
         22    1    1    0    0    0 -0.88247690090E+01 -0.28051217314E+02 -0.51194941784E+01  0.29848895482E+02  0.00000000000E+00 0.  1.
</event>
<event>
 5    1  0.8902899E-005  0.9118800E+02  0.7818608E-02  0.1130116E+00
         25   -1    0    0    0    0  0.00000000000E+00  0.00000000000E+00  0.99999998245E-14  0.12500000000E+03  0.12500000000E+03 0.  0.
        -11    1    3    3    0    0  0.35768554883E+02 -0.92159765066E+01 -0.23576208278E+01  0.37011918589E+02  0.51100000000E-03 0. -1.
         23    2    1    0    0    0 -0.21028844925E+02 -0.11678044186E+02 -0.16789813994E+02  0.95665943191E+02  0.91057596047E+02 0.  0.
         11    1    3    3    0    0 -0.56797399808E+02 -0.24620676795E+01 -0.14432193166E+02  0.58654024603E+02  0.51100000000E-03 0.  1.
         22    1    1    0    0    0  0.21028844925E+02  0.11678044186E+02  0.16789813994E+02  0.29334056809E+02  0.00000000000E+00 0.  1.
</event>
<event>
 5    1  0.8902899E-005  0.9118800E+02  0.7818608E-02  0.1130116E+00
         25   -1    0    0    0    0  0.00000000000E+00  0.00000000000E+00  0.99999998245E-14  0.12500000000E+03  0.12500000000E+03 0.  0.
        -11    1    3    3    0    0  0.31084625546E+02 -0.21003499015E+02  0.18744829218E+02  0.41937686380E+02  0.51100000000E-03 0.  1.
         23    2    1    0    0    0 -0.11760733948E+02  0.17093127406E+02 -0.44414560477E+01  0.10378169660E+03  0.10158948838E+03 0.  0.
         11    1    3    3    0    0 -0.42845359495E+02  0.38096626421E+02 -0.23186285266E+02  0.61844010216E+02  0.51100000000E-03 0. -1.
         22    1    1    0    0    0  0.11760733948E+02 -0.17093127406E+02  0.44414560477E+01  0.21218303404E+02  0.00000000000E+00 0. -1.
</event>
<event>
 5    1  0.8902899E-005  0.9118800E+02  0.7818608E-02  0.1130116E+00
         25   -1    0    0    0    0  0.00000000000E+00  0.00000000000E+00  0.99999998245E-14  0.12500000000E+03  0.12500000000E+03 0.  0.
        -11    1    3    3    0    0  0.16462767609E+01 -0.14064337402E+02 -0.31561460674E+02  0.34592508060E+02  0.51100000000E-03 0.  1.
         23    2    1    0    0    0 -0.21211930587E+02 -0.88074863623E+00  0.22077609977E+02  0.94370886730E+02  0.89262095441E+02 0.  0.
         11    1    3    3    0    0 -0.22858207348E+02  0.13183588766E+02  0.53639070651E+02  0.59778378671E+02  0.51100000000E-03 0. -1.
         22    1    1    0    0    0  0.21211930587E+02  0.88074863623E+00 -0.22077609977E+02  0.30629113270E+02  0.00000000000E+00 0. -1.
</event>
<event>
 5    1  0.8902899E-005  0.9118800E+02  0.7818608E-02  0.1130116E+00
         25   -1    0    0    0    0  0.00000000000E+00  0.00000000000E+00  0.99999998245E-14  0.12500000000E+03  0.12500000000E+03 0.  0.
        -11    1    3    3    0    0  0.64646080104E+01 -0.57919522233E+02 -0.93575973546E+01  0.59025645621E+02  0.51100000000E-03 0.  1.
         23    2    1    0    0    0  0.12127515651E+02 -0.25230095901E+02  0.71873438367E+01  0.96098576394E+02  0.91649572277E+02 0.  0.
         11    1    3    3    0    0  0.56629076401E+01  0.32689426332E+02  0.16544941191E+02  0.37072930774E+02  0.51100000000E-03 0. -1.
         22    1    1    0    0    0 -0.12127515651E+02  0.25230095901E+02 -0.71873438367E+01  0.28901423606E+02  0.00000000000E+00 0.  1.
</event>
<event>
 5    1  0.8902899E-005  0.9118800E+02  0.7818608E-02  0.1130116E+00
         25   -1    0    0    0    0  0.00000000000E+00  0.00000000000E+00  0.99999998245E-14  0.12500000000E+03  0.12500000000E+03 0.  0.
        -11    1    3    3    0    0  0.23392192052E+02  0.54705183357E+02 -0.11153378700E+02  0.60533045453E+02  0.51100000000E-03 0.  1.
         23    2    1    0    0    0  0.10646793881E+02  0.22164950742E+02 -0.15776284649E+02  0.95784757083E+02  0.91220552897E+02 0.  0.
         11    1    3    3    0    0 -0.12745398171E+02 -0.32540232615E+02 -0.46229059493E+01  0.35251711630E+02  0.51100000000E-03 0. -1.
         22    1    1    0    0    0 -0.10646793881E+02 -0.22164950742E+02  0.15776284649E+02  0.29215242917E+02  0.00000000000E+00 0.  1.
</event>
<event>
 5    1  0.8902899E-005  0.9118800E+02  0.7818608E-02  0.1130116E+00
         25   -1    0    0    0    0  0.00000000000E+00  0.00000000000E+00  0.99999998245E-14  0.12500000000E+03  0.12500000000E+03 0.  0.
        -11    1    3    3    0    0  0.28788514613E+02 -0.86198553719E+01  0.20766208841E+02  0.36528289176E+02  0.51100000000E-03 0. -1.
         23    2    1    0    0    0  0.26687971143E+02  0.14902645080E+02 -0.23327887419E+02  0.86548381496E+02  0.77537702919E+02 0.  0.
         11    1    3    3    0    0 -0.21005434694E+01  0.23522500452E+02 -0.44094096261E+02  0.50020092320E+02  0.51100000000E-03 0.  1.
         22    1    1    0    0    0 -0.26687971143E+02 -0.14902645080E+02  0.23327887419E+02  0.38451618504E+02  0.00000000000E+00 0.  1.
</event>
<event>
 5    1  0.8902899E-005  0.9118800E+02  0.7818608E-02  0.1130116E+00
         25   -1    0    0    0    0  0.00000000000E+00  0.00000000000E+00  0.99999998245E-14  0.12500000000E+03  0.12500000000E+03 0.  0.
        -11    1    3    3    0    0  0.31300539357E+02 -0.11032892747E+02 -0.18482464569E+02  0.37987497723E+02  0.51100000000E-03 0.  1.
         23    2    1    0    0    0 -0.55720044961E+01 -0.94870668166E+01  0.26579610627E+02  0.96233224513E+02  0.91833033970E+02 0.  0.
         11    1    3    3    0    0 -0.36872543853E+02  0.15458259309E+01  0.45062075196E+02  0.58245726790E+02  0.51100000000E-03 0. -1.
         22    1    1    0    0    0  0.55720044961E+01  0.94870668166E+01 -0.26579610627E+02  0.28766775487E+02  0.00000000000E+00 0. -1.
</event>
<event>
 5    1  0.8902899E-005  0.9118800E+02  0.7818608E-02  0.1130116E+00
         25   -1    0    0    0    0  0.00000000000E+00  0.00000000000E+00  0.99999998245E-14  0.12500000000E+03  0.12500000000E+03 0.  0.
        -11    1    3    3    0    0 -0.25316571353E+02  0.35192148989E+02 -0.12764865283E+02  0.45192454254E+02  0.51100000000E-03 0.  1.
         23    2    1    0    0    0  0.10991936281E+02  0.38076363836E+02  0.37642531906E+01  0.85190431449E+02  0.75316717017E+02 0.  0.
         11    1    3    3    0    0  0.36308507634E+02  0.28842148468E+01  0.16529118473E+02  0.39997977194E+02  0.51100000000E-03 0. -1.
         22    1    1    0    0    0 -0.10991936281E+02 -0.38076363836E+02 -0.37642531906E+01  0.39809568551E+02  0.00000000000E+00 0.  1.
</event>
<event>
 5    1  0.8902899E-005  0.9118800E+02  0.7818608E-02  0.1130116E+00
         25   -1    0    0    0    0  0.00000000000E+00  0.00000000000E+00  0.99999998245E-14  0.12500000000E+03  0.12500000000E+03 0.  0.
        -11    1    3    3    0    0  0.13488409286E+02 -0.45657401539E+02 -0.28841964900E+02  0.55663223406E+02  0.51100000000E-03 0.  1.
         23    2    1    0    0    0  0.17633886304E+02 -0.81350837527E+01 -0.24610410887E+02  0.93650265425E+02  0.88247188943E+02 0.  0.
         11    1    3    3    0    0  0.41454770182E+01  0.37522317787E+02  0.42315540125E+01  0.37987042020E+02  0.51100000000E-03 0. -1.
         22    1    1    0    0    0 -0.17633886304E+02  0.81350837527E+01  0.24610410887E+02  0.31349734575E+02  0.00000000000E+00 0.  1.
</event>
<event>
 5    1  0.8902899E-005  0.9118800E+02  0.7818608E-02  0.1130116E+00
         25   -1    0    0    0    0  0.00000000000E+00  0.00000000000E+00  0.99999998245E-14  0.12500000000E+03  0.12500000000E+03 0.  0.
        -11    1    3    3    0    0  0.21476150458E+02  0.20433559693E+02 -0.20826635223E+02  0.36228498936E+02  0.51100000000E-03 0. -1.
         23    2    1    0    0    0  0.68474254913E+01 -0.23470559704E+02  0.16348962085E+02  0.95588387158E+02  0.90951068106E+02 0.  0.
         11    1    3    3    0    0 -0.14628724966E+02 -0.43904119397E+02  0.37175597308E+02  0.59359888222E+02  0.51100000000E-03 0.  1.
         22    1    1    0    0    0 -0.68474254913E+01  0.23470559704E+02 -0.16348962085E+02  0.29411612842E+02  0.00000000000E+00 0.  1.
</event>
<event>
 5    1  0.8902899E-005  0.9118800E+02  0.7818608E-02  0.1130116E+00
         25   -1    0    0    0    0  0.00000000000E+00  0.00000000000E+00  0.99999998245E-14  0.12500000000E+03  0.12500000000E+03 0.  0.
        -11    1    3    3    0    0 -0.42388388418E+02  0.15836653790E+01  0.34379748944E+02  0.54600829723E+02  0.51100000000E-03 0.  1.
         23    2    1    0    0    0 -0.17226569210E+02 -0.21130764703E+02  0.12047327730E+02  0.95193926641E+02  0.90407309772E+02 0.  0.
         11    1    3    3    0    0  0.25161819208E+02 -0.22714430082E+02 -0.22332421214E+02  0.40593096917E+02  0.51100000000E-03 0. -1.
         22    1    1    0    0    0  0.17226569210E+02  0.21130764703E+02 -0.12047327730E+02  0.29806073359E+02  0.00000000000E+00 0.  1.
</event>
<event>
 5    1  0.8902899E-005  0.9118800E+02  0.7818608E-02  0.1130116E+00
         25   -1    0    0    0    0  0.00000000000E+00  0.00000000000E+00  0.99999998245E-14  0.12500000000E+03  0.12500000000E+03 0.  0.
        -11    1    3    3    0    0 -0.23844425422E+02 -0.24821442193E+02  0.57800241604E+01  0.34900849500E+02  0.51100000000E-03 0. -1.
         23    2    1    0    0    0  0.27038524411E+02  0.93257698116E+00 -0.13055372415E+02  0.94960122320E+02  0.90083464520E+02 0.  0.
         11    1    3    3    0    0  0.50882949833E+02  0.25754019174E+02 -0.18835396576E+02  0.60059272820E+02  0.51100000000E-03 0.  1.
         22    1    1    0    0    0 -0.27038524411E+02 -0.93257698116E+00  0.13055372415E+02  0.30039877680E+02  0.00000000000E+00 0.  1.
</event>
<event>
 5    1  0.8902899E-005  0.9118800E+02  0.7818608E-02  0.1130116E+00
         25   -1    0    0    0    0  0.00000000000E+00  0.00000000000E+00  0.99999998245E-14  0.12500000000E+03  0.12500000000E+03 0.  0.
        -11    1    3    3    0    0 -0.11383218760E+01  0.39929692139E+02 -0.17596182122E+02  0.43649761930E+02  0.51100000000E-03 0.  1.
         23    2    1    0    0    0  0.30679169150E+02  0.36515139872E+01 -0.10179507082E+02  0.92470515858E+02  0.86559973223E+02 0.  0.
         11    1    3    3    0    0  0.31817491026E+02 -0.36278178152E+02  0.74166750401E+01  0.48820753928E+02  0.51100000000E-03 0. -1.
         22    1    1    0    0    0 -0.30679169150E+02 -0.36515139872E+01  0.10179507082E+02  0.32529484142E+02  0.00000000000E+00 0.  1.
</event>
<event>
 5    1  0.8902899E-005  0.9118800E+02  0.7818608E-02  0.1130116E+00
         25   -1    0    0    0    0  0.00000000000E+00  0.00000000000E+00  0.99999998245E-14  0.12500000000E+03  0.12500000000E+03 0.  0.
        -11    1    3    3    0    0  0.19363799951E+02  0.47926772755E+02  0.25970583710E+02  0.57848107262E+02  0.51100000000E-03 0.  1.
         23    2    1    0    0    0  0.37281881649E+01  0.28799978357E+02 -0.28645529102E+01  0.95818776521E+02  0.91267158005E+02 0.  0.
         11    1    3    3    0    0 -0.15635611786E+02 -0.19126794398E+02 -0.28835136620E+02  0.37970669260E+02  0.51100000000E-03 0. -1.
         22    1    1    0    0    0 -0.37281881649E+01 -0.28799978357E+02  0.28645529102E+01  0.29181223479E+02  0.00000000000E+00 0.  1.
</event>
<event>
 5    1  0.8902899E-005  0.9118800E+02  0.7818608E-02  0.1130116E+00
         25   -1    0    0    0    0  0.00000000000E+00  0.00000000000E+00  0.99999998245E-14  0.12500000000E+03  0.12500000000E+03 0.  0.
        -11    1    3    3    0    0  0.26460619309E+02  0.36973290766E+02  0.20315574850E+02  0.49798706670E+02  0.51100000000E-03 0.  1.
         23    2    1    0    0    0  0.25701652546E+02  0.49200175071E+00 -0.10178027528E+02  0.97352047930E+02  0.93343516018E+02 0.  0.
         11    1    3    3    0    0 -0.75896676380E+00 -0.36481289015E+02 -0.30493602378E+02  0.47553341260E+02  0.51100000000E-03 0. -1.
         22    1    1    0    0    0 -0.25701652546E+02 -0.49200175071E+00  0.10178027528E+02  0.27647952070E+02  0.00000000000E+00 0. -1.
</event>
<event>
 5    1  0.8902899E-005  0.9118800E+02  0.7818608E-02  0.1130116E+00
         25   -1    0    0    0    0  0.00000000000E+00  0.00000000000E+00  0.99999998245E-14  0.12500000000E+03  0.12500000000E+03 0.  0.
        -11    1    3    3    0    0 -0.45782402274E+02 -0.33335925850E+02  0.22977900015E+02  0.61117069625E+02  0.51100000000E-03 0.  1.
         23    2    1    0    0    0 -0.17977834909E+02 -0.10996380104E+02  0.18298993214E+02  0.97089857111E+02  0.92991743063E+02 0.  0.
         11    1    3    3    0    0  0.27804567364E+02  0.22339545745E+02 -0.46789068009E+01  0.35972787486E+02  0.51100000000E-03 0. -1.
         22    1    1    0    0    0  0.17977834909E+02  0.10996380104E+02 -0.18298993214E+02  0.27910142889E+02  0.00000000000E+00 0.  1.
</event>
<event>
 5    1  0.8902899E-005  0.9118800E+02  0.7818608E-02  0.1130116E+00
         25   -1    0    0    0    0  0.00000000000E+00  0.00000000000E+00  0.99999998245E-14  0.12500000000E+03  0.12500000000E+03 0.  0.
        -11    1    3    3    0    0 -0.25236790596E+02 -0.46444497084E+01  0.35192027533E+02  0.43553935699E+02  0.51100000000E-03 0.  1.
         23    2    1    0    0    0 -0.36708815206E+00 -0.30352671262E+02 -0.12531617392E+01  0.94619252465E+02  0.89609224504E+02 0.  0.
         11    1    3    3    0    0  0.24869702443E+02 -0.25708221554E+02 -0.36445189273E+02  0.51065316766E+02  0.51100000000E-03 0. -1.
         22    1    1    0    0    0  0.36708815206E+00  0.30352671262E+02  0.12531617392E+01  0.30380747535E+02  0.00000000000E+00 0.  1.
</event>
<event>
 5    1  0.8902899E-005  0.9118800E+02  0.7818608E-02  0.1130116E+00
         25   -1    0    0    0    0  0.00000000000E+00  0.00000000000E+00  0.99999998245E-14  0.12500000000E+03  0.12500000000E+03 0.  0.
        -11    1    3    3    0    0  0.52869103023E+02  0.17363558614E+02  0.63391862932E+01  0.56007325461E+02  0.51100000000E-03 0.  1.
         23    2    1    0    0    0  0.11499876547E+02  0.21124733386E+02  0.12321191060E+02  0.97975691121E+02  0.94174958351E+02 0.  0.
         11    1    3    3    0    0 -0.41369226476E+02  0.37611747723E+01  0.59820047666E+01  0.41968365660E+02  0.51100000000E-03 0. -1.
         22    1    1    0    0    0 -0.11499876547E+02 -0.21124733386E+02 -0.12321191060E+02  0.27024308879E+02  0.00000000000E+00 0.  1.
</event>
<event>
 5    1  0.8902899E-005  0.9118800E+02  0.7818608E-02  0.1130116E+00
         25   -1    0    0    0    0  0.00000000000E+00  0.00000000000E+00  0.99999998245E-14  0.12500000000E+03  0.12500000000E+03 0.  0.
        -11    1    3    3    0    0 -0.25106252713E+02  0.28825281375E+02  0.23597490925E+02  0.44922848862E+02  0.51100000000E-03 0.  1.
         23    2    1    0    0    0 -0.48545297164E+01 -0.17937959678E+02  0.22397377250E+02  0.95897090113E+02  0.91374353778E+02 0.  0.
         11    1    3    3    0    0  0.20251722997E+02 -0.46763241053E+02 -0.12001136741E+01  0.50974241252E+02  0.51100000000E-03 0. -1.
         22    1    1    0    0    0  0.48545297164E+01  0.17937959678E+02 -0.22397377250E+02  0.29102909887E+02  0.00000000000E+00 0. -1.
</event>
<event>
 5    1  0.8902899E-005  0.9118800E+02  0.7818608E-02  0.1130116E+00
         25   -1    0    0    0    0  0.00000000000E+00  0.00000000000E+00  0.99999998245E-14  0.12500000000E+03  0.12500000000E+03 0.  0.
        -11    1    3    3    0    0 -0.23222578251E+02  0.17130393445E+02  0.20067643602E+02  0.35148952192E+02  0.51100000000E-03 0.  1.
         23    2    1    0    0    0  0.90371349854E+01 -0.25794598290E+02 -0.90212344255E+01  0.96217821829E+02  0.91812065968E+02 0.  0.
         11    1    3    3    0    0  0.32259713236E+02 -0.42924991736E+02 -0.29088878027E+02  0.61068869637E+02  0.51100000000E-03 0. -1.
         22    1    1    0    0    0 -0.90371349854E+01  0.25794598290E+02  0.90212344255E+01  0.28782178171E+02  0.00000000000E+00 0. -1.
</event>
<event>
 5    1  0.8902899E-005  0.9118800E+02  0.7818608E-02  0.1130116E+00
         25   -1    0    0    0    0  0.00000000000E+00  0.00000000000E+00  0.99999998245E-14  0.12500000000E+03  0.12500000000E+03 0.  0.
        -11    1    3    3    0    0  0.93209425476E+01  0.29483377295E+02  0.17843414638E+02  0.35700657597E+02  0.51100000000E-03 0.  1.
         23    2    1    0    0    0  0.91900484907E+01 -0.27878616040E+02  0.44848973389E+00  0.95642286080E+02  0.91025114776E+02 0.  0.
         11    1    3    3    0    0 -0.13089405687E+00 -0.57361993334E+02 -0.17394924904E+02  0.59941628483E+02  0.51100000000E-03 0. -1.
         22    1    1    0    0    0 -0.91900484907E+01  0.27878616040E+02 -0.44848973389E+00  0.29357713920E+02  0.00000000000E+00 0. -1.
</event>
<event>
 5    1  0.8902899E-005  0.9118800E+02  0.7818608E-02  0.1130116E+00
         25   -1    0    0    0    0  0.00000000000E+00  0.00000000000E+00  0.99999998245E-14  0.12500000000E+03  0.12500000000E+03 0.  0.
        -11    1    3    3    0    0 -0.15969326219E+02 -0.77470970643E+01 -0.34014042005E+00  0.17752537525E+02  0.51100000000E-03 0.  1.
         23    2    1    0    0    0  0.22587865983E+02 -0.17755442928E+02 -0.41170348773E+02  0.74795766500E+02  0.55443138664E+02 0.  0.
         11    1    3    3    0    0  0.38557192202E+02 -0.10008345864E+02 -0.40830208353E+02  0.57043228975E+02  0.51100000000E-03 0. -1.
         22    1    1    0    0    0 -0.22587865983E+02  0.17755442928E+02  0.41170348773E+02  0.50204233500E+02  0.00000000000E+00 0. -1.
</event>
<event>
 5    1  0.8902899E-005  0.9118800E+02  0.7818608E-02  0.1130116E+00
         25   -1    0    0    0    0  0.00000000000E+00  0.00000000000E+00  0.99999998245E-14  0.12500000000E+03  0.12500000000E+03 0.  0.
        -11    1    3    3    0    0  0.51658925453E+01 -0.42925787401E+02 -0.54515542963E+01  0.43577851189E+02  0.51100000000E-03 0. -1.
         23    2    1    0    0    0  0.28637108617E+02 -0.11481316421E+02  0.17990057810E+02  0.89285201993E+02  0.81830926295E+02 0.  0.
         11    1    3    3    0    0  0.23471216071E+02  0.31444470980E+02  0.23441612106E+02  0.45707350804E+02  0.51100000000E-03 0.  1.
         22    1    1    0    0    0 -0.28637108617E+02  0.11481316421E+02 -0.17990057810E+02  0.35714798007E+02  0.00000000000E+00 0. -1.
</event>
<event>
 5    1  0.8902899E-005  0.9118800E+02  0.7818608E-02  0.1130116E+00
         25   -1    0    0    0    0  0.00000000000E+00  0.00000000000E+00  0.99999998245E-14  0.12500000000E+03  0.12500000000E+03 0.  0.
        -11    1    3    3    0    0  0.19984899879E+02  0.15059982053E+02  0.10254796977E+02  0.27043671051E+02  0.51100000000E-03 0.  1.
         23    2    1    0    0    0 -0.15008334057E+02 -0.18882892093E+02 -0.27291338656E+02  0.88577055712E+02  0.80741958906E+02 0.  0.
         11    1    3    3    0    0 -0.34993233935E+02 -0.33942874146E+02 -0.37546135633E+02  0.61533384661E+02  0.51100000000E-03 0. -1.
         22    1    1    0    0    0  0.15008334057E+02  0.18882892093E+02  0.27291338656E+02  0.36422944288E+02  0.00000000000E+00 0. -1.
</event>
<event>
 5    1  0.8902899E-005  0.9118800E+02  0.7818608E-02  0.1130116E+00
         25   -1    0    0    0    0  0.00000000000E+00  0.00000000000E+00  0.99999998245E-14  0.12500000000E+03  0.12500000000E+03 0.  0.
        -11    1    3    3    0    0 -0.21801921245E+02  0.99581096510E+01  0.30896556320E+02  0.39103515321E+02  0.51100000000E-03 0. -1.
         23    2    1    0    0    0  0.33515628218E+00  0.21384778573E+02 -0.19967329567E+02  0.95740551365E+02  0.91159957445E+02 0.  0.
         11    1    3    3    0    0  0.22137077527E+02  0.11426668922E+02 -0.50863885887E+02  0.56637036044E+02  0.51100000000E-03 0.  1.
         22    1    1    0    0    0 -0.33515628218E+00 -0.21384778573E+02  0.19967329567E+02  0.29259448635E+02  0.00000000000E+00 0.  1.
</event>
<event>
 5    1  0.8902899E-005  0.9118800E+02  0.7818608E-02  0.1130116E+00
         25   -1    0    0    0    0  0.00000000000E+00  0.00000000000E+00  0.99999998245E-14  0.12500000000E+03  0.12500000000E+03 0.  0.
        -11    1    3    3    0    0 -0.12276905519E+02  0.30693266586E+02 -0.79372761892E+01  0.33997049525E+02  0.51100000000E-03 0. -1.
         23    2    1    0    0    0  0.12235107649E+02 -0.19083434442E+02 -0.24224742277E+02  0.91822997910E+02  0.85619796061E+02 0.  0.
         11    1    3    3    0    0  0.24512013168E+02 -0.49776701028E+02 -0.16287466088E+02  0.57825948385E+02  0.51100000000E-03 0.  1.
         22    1    1    0    0    0 -0.12235107649E+02  0.19083434442E+02  0.24224742277E+02  0.33177002090E+02  0.00000000000E+00 0.  1.
</event>
<event>
 5    1  0.8902899E-005  0.9118800E+02  0.7818608E-02  0.1130116E+00
         25   -1    0    0    0    0  0.00000000000E+00  0.00000000000E+00  0.99999998245E-14  0.12500000000E+03  0.12500000000E+03 0.  0.
        -11    1    3    3    0    0 -0.11729272587E+02  0.33136766218E+02 -0.37353555830E+01  0.35349313889E+02  0.51100000000E-03 0.  1.
         23    2    1    0    0    0 -0.13381947214E+02 -0.25892025589E+02 -0.86291991640E+01  0.94603674917E+02  0.89587492036E+02 0.  0.
         11    1    3    3    0    0 -0.16526746270E+01 -0.59028791807E+02 -0.48938435810E+01  0.59254361028E+02  0.51100000000E-03 0. -1.
         22    1    1    0    0    0  0.13381947214E+02  0.25892025589E+02  0.86291991640E+01  0.30396325083E+02  0.00000000000E+00 0. -1.
</event>
<event>
 5    1  0.8902899E-005  0.9118800E+02  0.7818608E-02  0.1130116E+00
         25   -1    0    0    0    0  0.00000000000E+00  0.00000000000E+00  0.99999998245E-14  0.12500000000E+03  0.12500000000E+03 0.  0.
        -11    1    3    3    0    0  0.34325317964E+02  0.64204397063E+01  0.15052880371E+01  0.34953045528E+02  0.51100000000E-03 0.  1.
         23    2    1    0    0    0 -0.18784514245E+02 -0.12507114676E+02  0.20563702445E+02  0.94468839669E+02  0.89399160607E+02 0.  0.
         11    1    3    3    0    0 -0.53109832209E+02 -0.18927554382E+02  0.19058414408E+02  0.59515794140E+02  0.51100000000E-03 0. -1.
         22    1    1    0    0    0  0.18784514245E+02  0.12507114676E+02 -0.20563702445E+02  0.30531160331E+02  0.00000000000E+00 0. -1.
</event>
<event>
 5    1  0.8902899E-005  0.9118800E+02  0.7818608E-02  0.1130116E+00
         25   -1    0    0    0    0  0.00000000000E+00  0.00000000000E+00  0.99999998245E-14  0.12500000000E+03  0.12500000000E+03 0.  0.
        -11    1    3    3    0    0  0.35695376174E+02 -0.81748038436E+01  0.17600642948E+02  0.40629668108E+02  0.51100000000E-03 0. -1.
         23    2    1    0    0    0 -0.10428809514E+01 -0.43709998938E+01 -0.26481634094E+02  0.98139802959E+02  0.94392535403E+02 0.  0.
         11    1    3    3    0    0 -0.36738257126E+02  0.38038039499E+01 -0.44082277043E+02  0.57510134852E+02  0.51100000000E-03 0.  1.
         22    1    1    0    0    0  0.10428809514E+01  0.43709998938E+01  0.26481634094E+02  0.26860197041E+02  0.00000000000E+00 0.  1.
</event>
<event>
 5    1  0.8902899E-005  0.9118800E+02  0.7818608E-02  0.1130116E+00
         25   -1    0    0    0    0  0.00000000000E+00  0.00000000000E+00  0.99999998245E-14  0.12500000000E+03  0.12500000000E+03 0.  0.
        -11    1    3    3    0    0 -0.36365185159E+02  0.18171359374E+02  0.69327514136E+01  0.41239399069E+02  0.51100000000E-03 0. -1.
         23    2    1    0    0    0 -0.92124720689E+01 -0.23911954558E+02 -0.14320201928E+02  0.95644942588E+02  0.91028762746E+02 0.  0.
         11    1    3    3    0    0  0.27152713090E+02 -0.42083313932E+02 -0.21252953342E+02  0.54405543519E+02  0.51100000000E-03 0.  1.
         22    1    1    0    0    0  0.92124720689E+01  0.23911954558E+02  0.14320201928E+02  0.29355057412E+02  0.00000000000E+00 0.  1.
</event>
<event>
 5    1  0.8902899E-005  0.9118800E+02  0.7818608E-02  0.1130116E+00
         25   -1    0    0    0    0  0.00000000000E+00  0.00000000000E+00  0.99999998245E-14  0.12500000000E+03  0.12500000000E+03 0.  0.
        -11    1    3    3    0    0 -0.53238624493E+02  0.26096845108E+02 -0.16478543117E+01  0.59313673690E+02  0.51100000000E-03 0.  1.
         23    2    1    0    0    0 -0.21088839291E+02  0.14059476951E+02 -0.14297794196E+02  0.95899571247E+02  0.91377747902E+02 0.  0.
         11    1    3    3    0    0  0.32149785202E+02 -0.12037368157E+02 -0.12649939884E+02  0.36585897557E+02  0.51100000000E-03 0. -1.
         22    1    1    0    0    0  0.21088839291E+02 -0.14059476951E+02  0.14297794196E+02  0.29100428753E+02  0.00000000000E+00 0.  1.
</event>
<event>
 5    1  0.8902899E-005  0.9118800E+02  0.7818608E-02  0.1130116E+00
         25   -1    0    0    0    0  0.00000000000E+00  0.00000000000E+00  0.99999998245E-14  0.12500000000E+03  0.12500000000E+03 0.  0.
        -11    1    3    3    0    0 -0.36576175665E+02  0.79143165025E+00  0.56407388510E+01  0.37017035611E+02  0.51100000000E-03 0.  1.
         23    2    1    0    0    0 -0.27839640801E+02  0.27378130572E+02 -0.25095164379E+02  0.78584755642E+02  0.63412844997E+02 0.  0.
         11    1    3    3    0    0  0.87365348645E+01  0.26586698922E+02 -0.30735903230E+02  0.41567720032E+02  0.51100000000E-03 0. -1.
         22    1    1    0    0    0  0.27839640801E+02 -0.27378130572E+02  0.25095164379E+02  0.46415244358E+02  0.00000000000E+00 0. -1.
</event>
<event>
 5    1  0.8902899E-005  0.9118800E+02  0.7818608E-02  0.1130116E+00
         25   -1    0    0    0    0  0.00000000000E+00  0.00000000000E+00  0.99999998245E-14  0.12500000000E+03  0.12500000000E+03 0.  0.
        -11    1    3    3    0    0 -0.19528175643E+02 -0.29866544201E+02  0.43766919222E+02  0.56470375640E+02  0.51100000000E-03 0.  1.
         23    2    1    0    0    0 -0.64383507929E+00 -0.27084093700E+02  0.84407791125E+01  0.96623788005E+02  0.92363125766E+02 0.  0.
         11    1    3    3    0    0  0.18884340564E+02  0.27824505017E+01 -0.35326140109E+02  0.40153412366E+02  0.51100000000E-03 0. -1.
         22    1    1    0    0    0  0.64383507929E+00  0.27084093700E+02 -0.84407791125E+01  0.28376211995E+02  0.00000000000E+00 0.  1.
</event>
<event>
 5    1  0.8902899E-005  0.9118800E+02  0.7818608E-02  0.1130116E+00
         25   -1    0    0    0    0  0.00000000000E+00  0.00000000000E+00  0.99999998245E-14  0.12500000000E+03  0.12500000000E+03 0.  0.
        -11    1    3    3    0    0 -0.19898467096E+02 -0.21234616800E+02 -0.32475608461E+01  0.29281471874E+02  0.51100000000E-03 0.  1.
         23    2    1    0    0    0  0.10941079710E+02  0.16293338343E+02  0.30714380222E+02  0.88550675562E+02  0.80701108360E+02 0.  0.
         11    1    3    3    0    0  0.30839546807E+02  0.37527955143E+02  0.33961941068E+02  0.59269203688E+02  0.51100000000E-03 0. -1.
         22    1    1    0    0    0 -0.10941079710E+02 -0.16293338343E+02 -0.30714380222E+02  0.36449324438E+02  0.00000000000E+00 0. -1.
</event>
<event>
 5    1  0.8902899E-005  0.9118800E+02  0.7818608E-02  0.1130116E+00
         25   -1    0    0    0    0  0.00000000000E+00  0.00000000000E+00  0.99999998245E-14  0.12500000000E+03  0.12500000000E+03 0.  0.
        -11    1    3    3    0    0  0.26473954565E+02 -0.33687642738E+02  0.13841257841E+02  0.45025636725E+02  0.51100000000E-03 0.  1.
         23    2    1    0    0    0 -0.21216324658E+02 -0.15897611204E+02  0.11838112945E+02  0.95965410420E+02  0.91467768121E+02 0.  0.
         11    1    3    3    0    0 -0.47690279223E+02  0.17790031535E+02 -0.20031448962E+01  0.50939773695E+02  0.51100000000E-03 0. -1.
         22    1    1    0    0    0  0.21216324658E+02  0.15897611204E+02 -0.11838112945E+02  0.29034589580E+02  0.00000000000E+00 0.  1.
</event>
<event>
 5    1  0.8902899E-005  0.9118800E+02  0.7818608E-02  0.1130116E+00
         25   -1    0    0    0    0  0.00000000000E+00  0.00000000000E+00  0.99999998245E-14  0.12500000000E+03  0.12500000000E+03 0.  0.
        -11    1    3    3    0    0 -0.34015295494E+02 -0.38304693203E+01  0.49199718750E+02  0.59936008777E+02  0.51100000000E-03 0.  1.
         23    2    1    0    0    0 -0.24084208323E+02  0.39547321880E+01  0.15089924342E+02  0.96305143076E+02  0.91930874950E+02 0.  0.
         11    1    3    3    0    0  0.99310871708E+01  0.77852015083E+01 -0.34109794407E+02  0.36369134300E+02  0.51100000000E-03 0. -1.
         22    1    1    0    0    0  0.24084208323E+02 -0.39547321880E+01 -0.15089924342E+02  0.28694856924E+02  0.00000000000E+00 0.  1.
</event>
<event>
 5    1  0.8902899E-005  0.9118800E+02  0.7818608E-02  0.1130116E+00
         25   -1    0    0    0    0  0.00000000000E+00  0.00000000000E+00  0.99999998245E-14  0.12500000000E+03  0.12500000000E+03 0.  0.
        -11    1    3    3    0    0  0.46845671137E+01  0.24876702466E+02  0.34110612629E+02  0.42477398564E+02  0.51100000000E-03 0.  1.
         23    2    1    0    0    0  0.23615000317E+02  0.16515682920E+02 -0.12585924129E+02  0.93554149583E+02  0.88110938002E+02 0.  0.
         11    1    3    3    0    0  0.18930433203E+02 -0.83610195452E+01 -0.46696536758E+02  0.51076751018E+02  0.51100000000E-03 0. -1.
         22    1    1    0    0    0 -0.23615000317E+02 -0.16515682920E+02  0.12585924129E+02  0.31445850417E+02  0.00000000000E+00 0.  1.
</event>
<event>
 5    1  0.8902899E-005  0.9118800E+02  0.7818608E-02  0.1130116E+00
         25   -1    0    0    0    0  0.00000000000E+00  0.00000000000E+00  0.99999998245E-14  0.12500000000E+03  0.12500000000E+03 0.  0.
        -11    1    3    3    0    0  0.34030128452E+02 -0.29609645690E+02 -0.33014600915E+02  0.55899415329E+02  0.51100000000E-03 0.  1.
         23    2    1    0    0    0  0.70035640201E+01 -0.26602767349E+02 -0.16065016566E+01  0.97443911976E+02  0.93466453843E+02 0.  0.
         11    1    3    3    0    0 -0.27026564432E+02  0.30068783406E+01  0.31408099258E+02  0.41544496646E+02  0.51100000000E-03 0. -1.
         22    1    1    0    0    0 -0.70035640201E+01  0.26602767349E+02  0.16065016566E+01  0.27556088024E+02  0.00000000000E+00 0.  1.
</event>
<event>
 5    1  0.8902899E-005  0.9118800E+02  0.7818608E-02  0.1130116E+00
         25   -1    0    0    0    0  0.00000000000E+00  0.00000000000E+00  0.99999998245E-14  0.12500000000E+03  0.12500000000E+03 0.  0.
        -11    1    3    3    0    0 -0.19950361550E+02  0.31646086575E+02  0.38254855024E+02  0.53506314157E+02  0.51100000000E-03 0. -1.
         23    2    1    0    0    0 -0.26786532621E+02  0.88751282809E+01  0.21979872200E+01  0.96695982976E+02  0.92460779490E+02 0.  0.
         11    1    3    3    0    0 -0.68361710717E+01 -0.22770958294E+02 -0.36056867804E+02  0.43189668819E+02  0.51100000000E-03 0.  1.
         22    1    1    0    0    0  0.26786532621E+02 -0.88751282809E+01 -0.21979872200E+01  0.28304017024E+02  0.00000000000E+00 0. -1.
</event>
<event>
 5    1  0.8902899E-005  0.9118800E+02  0.7818608E-02  0.1130116E+00
         25   -1    0    0    0    0  0.00000000000E+00  0.00000000000E+00  0.99999998245E-14  0.12500000000E+03  0.12500000000E+03 0.  0.
        -11    1    3    3    0    0  0.16855181267E+02  0.44513589629E+02 -0.14134103404E+02  0.49652086325E+02  0.51100000000E-03 0. -1.
         23    2    1    0    0    0 -0.15024130480E+02  0.20724536416E+02  0.11462556064E+02  0.96953233736E+02  0.92807911484E+02 0.  0.
         11    1    3    3    0    0 -0.31879311747E+02 -0.23789053213E+02  0.25596659468E+02  0.47301147411E+02  0.51100000000E-03 0.  1.
         22    1    1    0    0    0  0.15024130480E+02 -0.20724536416E+02 -0.11462556064E+02  0.28046766264E+02  0.00000000000E+00 0.  1.
</event>
<event>
 5    1  0.8902899E-005  0.9118800E+02  0.7818608E-02  0.1130116E+00
         25   -1    0    0    0    0  0.00000000000E+00  0.00000000000E+00  0.99999998245E-14  0.12500000000E+03  0.12500000000E+03 0.  0.
        -11    1    3    3    0    0 -0.32410977438E+02  0.24439932044E+02 -0.35873328148E+02  0.54172662935E+02  0.51100000000E-03 0.  1.
         23    2    1    0    0    0  0.47359826730E+01  0.10729364825E+02 -0.28135367521E+02  0.94518075734E+02  0.89467977139E+02 0.  0.
         11    1    3    3    0    0  0.37146960111E+02 -0.13710567220E+02  0.77379606264E+01  0.40345412799E+02  0.51100000000E-03 0. -1.
         22    1    1    0    0    0 -0.47359826730E+01 -0.10729364825E+02  0.28135367521E+02  0.30481924266E+02  0.00000000000E+00 0.  1.
</event>
<event>
 5    1  0.8902899E-005  0.9118800E+02  0.7818608E-02  0.1130116E+00
         25   -1    0    0    0    0  0.00000000000E+00  0.00000000000E+00  0.99999998245E-14  0.12500000000E+03  0.12500000000E+03 0.  0.
        -11    1    3    3    0    0  0.32134074040E+02  0.26588013129E+02  0.12894424088E+02  0.43655324181E+02  0.51100000000E-03 0.  1.
         23    2    1    0    0    0 -0.18229477620E+02  0.22745987694E+02 -0.25732469990E+00  0.95849356328E+02  0.91309030670E+02 0.  0.
         11    1    3    3    0    0 -0.50363551660E+02 -0.38420254345E+01 -0.13151748788E+02  0.52194032147E+02  0.51100000000E-03 0. -1.
         22    1    1    0    0    0  0.18229477620E+02 -0.22745987694E+02  0.25732469990E+00  0.29150643672E+02  0.00000000000E+00 0. -1.
</event>
<event>
 5    1  0.8902899E-005  0.9118800E+02  0.7818608E-02  0.1130116E+00
         25   -1    0    0    0    0  0.00000000000E+00  0.00000000000E+00  0.99999998245E-14  0.12500000000E+03  0.12500000000E+03 0.  0.
        -11    1    3    3    0    0 -0.10484976496E+02  0.17996752169E+02 -0.33517089088E+02  0.39461539275E+02  0.51100000000E-03 0.  1.
         23    2    1    0    0    0 -0.13321018485E+02 -0.28702952259E+02 -0.10076869477E+02  0.91790779890E+02  0.85572746670E+02 0.  0.
         11    1    3    3    0    0 -0.28360419883E+01 -0.46699704427E+02  0.23440219610E+02  0.52329240616E+02  0.51100000000E-03 0. -1.
         22    1    1    0    0    0  0.13321018485E+02  0.28702952259E+02  0.10076869477E+02  0.33209220110E+02  0.00000000000E+00 0. -1.
</event>
<event>
 5    1  0.8902899E-005  0.9118800E+02  0.7818608E-02  0.1130116E+00
         25   -1    0    0    0    0  0.00000000000E+00  0.00000000000E+00  0.99999998245E-14  0.12500000000E+03  0.12500000000E+03 0.  0.
        -11    1    3    3    0    0  0.31201308140E+02 -0.29033851797E+02 -0.74626693213E+01  0.43268667804E+02  0.51100000000E-03 0.  1.
         23    2    1    0    0    0  0.21434433026E+02  0.19113994054E+02 -0.14380501089E+02  0.92881804232E+02  0.87151884994E+02 0.  0.
         11    1    3    3    0    0 -0.97668751144E+01  0.48147845851E+02 -0.69178317680E+01  0.49613136428E+02  0.51100000000E-03 0. -1.
         22    1    1    0    0    0 -0.21434433026E+02 -0.19113994054E+02  0.14380501089E+02  0.32118195768E+02  0.00000000000E+00 0. -1.
</event>
<event>
 5    1  0.8902899E-005  0.9118800E+02  0.7818608E-02  0.1130116E+00
         25   -1    0    0    0    0  0.00000000000E+00  0.00000000000E+00  0.99999998245E-14  0.12500000000E+03  0.12500000000E+03 0.  0.
        -11    1    3    3    0    0  0.12076736403E+02  0.14630468652E+02 -0.34993690110E+02  0.39805232356E+02  0.51100000000E-03 0.  1.
         23    2    1    0    0    0 -0.26678721902E+02 -0.12158212677E+02 -0.61592634146E+01  0.95041480951E+02  0.90196287272E+02 0.  0.
         11    1    3    3    0    0 -0.38755458305E+02 -0.26788681328E+02  0.28834426695E+02  0.55236248595E+02  0.51100000000E-03 0. -1.
         22    1    1    0    0    0  0.26678721902E+02  0.12158212677E+02  0.61592634146E+01  0.29958519049E+02  0.00000000000E+00 0. -1.
</event>
<event>
 5    1  0.8902899E-005  0.9118800E+02  0.7818608E-02  0.1130116E+00
         25   -1    0    0    0    0  0.00000000000E+00  0.00000000000E+00  0.99999998245E-14  0.12500000000E+03  0.12500000000E+03 0.  0.
        -11    1    3    3    0    0  0.22978687009E+02  0.42140109875E+02 -0.29312812718E+02  0.56240998450E+02  0.51100000000E-03 0. -1.
         23    2    1    0    0    0  0.13039727877E+02  0.48222145556E+01 -0.26637888984E+02  0.94952281520E+02  0.90072583953E+02 0.  0.
         11    1    3    3    0    0 -0.99389591312E+01 -0.37317895320E+02  0.26749237337E+01  0.38711283070E+02  0.51100000000E-03 0.  1.
         22    1    1    0    0    0 -0.13039727877E+02 -0.48222145556E+01  0.26637888984E+02  0.30047718480E+02  0.00000000000E+00 0. -1.
</event>
<event>
 5    1  0.8902899E-005  0.9118800E+02  0.7818608E-02  0.1130116E+00
         25   -1    0    0    0    0  0.00000000000E+00  0.00000000000E+00  0.99999998245E-14  0.12500000000E+03  0.12500000000E+03 0.  0.
        -11    1    3    3    0    0 -0.13001091634E+02 -0.56142205691E+02 -0.13682290759E+02  0.59229897216E+02  0.51100000000E-03 0. -1.
         23    2    1    0    0    0 -0.50907787244E+00 -0.20052752017E+02 -0.18486747894E+02  0.97721219393E+02  0.93836585872E+02 0.  0.
         11    1    3    3    0    0  0.12492013762E+02  0.36089453674E+02 -0.48044571352E+01  0.38491322177E+02  0.51100000000E-03 0.  1.
         22    1    1    0    0    0  0.50907787244E+00  0.20052752017E+02  0.18486747894E+02  0.27278780607E+02  0.00000000000E+00 0. -1.
</event>
<event>
 5    1  0.8902899E-005  0.9118800E+02  0.7818608E-02  0.1130116E+00
         25   -1    0    0    0    0  0.00000000000E+00  0.00000000000E+00  0.99999998245E-14  0.12500000000E+03  0.12500000000E+03 0.  0.
        -11    1    3    3    0    0  0.26085339414E+02 -0.18100661575E+02 -0.40732846865E+02  0.51645364708E+02  0.51100000000E-03 0.  1.
         23    2    1    0    0    0  0.25649013595E+02 -0.10622445388E+02  0.39562021153E+01  0.96957892740E+02  0.92814186335E+02 0.  0.
         11    1    3    3    0    0 -0.43632581943E+00  0.74782161877E+01  0.44689048981E+02  0.45312528032E+02  0.51100000000E-03 0. -1.
         22    1    1    0    0    0 -0.25649013595E+02  0.10622445388E+02 -0.39562021153E+01  0.28042107260E+02  0.00000000000E+00 0.  1.
</event>
<event>
 5    1  0.8902899E-005  0.9118800E+02  0.7818608E-02  0.1130116E+00
         25   -1    0    0    0    0  0.00000000000E+00  0.00000000000E+00  0.99999998245E-14  0.12500000000E+03  0.12500000000E+03 0.  0.
        -11    1    3    3    0    0 -0.77852193364E+01  0.47583824095E+02  0.21503059191E+02  0.52794048059E+02  0.51100000000E-03 0.  1.
         23    2    1    0    0    0 -0.25785886497E+00  0.61208481006E+01  0.28794579921E+02  0.95560925533E+02  0.90913317964E+02 0.  0.
         11    1    3    3    0    0  0.75273604714E+01 -0.41462975995E+02  0.72915207298E+01  0.42766877473E+02  0.51100000000E-03 0. -1.
         22    1    1    0    0    0  0.25785886497E+00 -0.61208481006E+01 -0.28794579921E+02  0.29439074467E+02  0.00000000000E+00 0.  1.
</event>
<event>
 5    1  0.8902899E-005  0.9118800E+02  0.7818608E-02  0.1130116E+00
         25   -1    0    0    0    0  0.00000000000E+00  0.00000000000E+00  0.99999998245E-14  0.12500000000E+03  0.12500000000E+03 0.  0.
        -11    1    3    3    0    0 -0.34295282658E+02  0.10647778656E+02 -0.99611559775E+01  0.37266153968E+02  0.51100000000E-03 0.  1.
         23    2    1    0    0    0  0.17968044876E+02 -0.14466365381E+02 -0.17913892401E+02  0.95793255831E+02  0.91232198032E+02 0.  0.
         11    1    3    3    0    0  0.52263327534E+02 -0.25114144037E+02 -0.79527364230E+01  0.58527101863E+02  0.51100000000E-03 0. -1.
         22    1    1    0    0    0 -0.17968044876E+02  0.14466365381E+02  0.17913892401E+02  0.29206744169E+02  0.00000000000E+00 0. -1.
</event>
<event>
 5    1  0.8902899E-005  0.9118800E+02  0.7818608E-02  0.1130116E+00
         25   -1    0    0    0    0  0.00000000000E+00  0.00000000000E+00  0.99999998245E-14  0.12500000000E+03  0.12500000000E+03 0.  0.
        -11    1    3    3    0    0  0.10169406916E+02  0.23903938532E+02 -0.43864622225E+02  0.50979605702E+02  0.51100000000E-03 0. -1.
         23    2    1    0    0    0  0.96567606268E+00 -0.15736865787E+02 -0.24050659421E+02  0.96242119452E+02  0.91845140661E+02 0.  0.
         11    1    3    3    0    0 -0.92037308531E+01 -0.39640804319E+02  0.19813962804E+02  0.45262513750E+02  0.51100000000E-03 0.  1.
         22    1    1    0    0    0 -0.96567606268E+00  0.15736865787E+02  0.24050659421E+02  0.28757880548E+02  0.00000000000E+00 0.  1.
</event>
<event>
 5    1  0.8902899E-005  0.9118800E+02  0.7818608E-02  0.1130116E+00
         25   -1    0    0    0    0  0.00000000000E+00  0.00000000000E+00  0.99999998245E-14  0.12500000000E+03  0.12500000000E+03 0.  0.
        -11    1    3    3    0    0  0.13697619884E+02 -0.36243378337E+02  0.46417379094E+02  0.60463049427E+02  0.51100000000E-03 0. -1.
         23    2    1    0    0    0  0.73252597831E+01 -0.76919001138E+01  0.28052714003E+02  0.95003674872E+02  0.90143877873E+02 0.  0.
         11    1    3    3    0    0 -0.63723601006E+01  0.28551478223E+02 -0.18364665091E+02  0.34540625445E+02  0.51100000000E-03 0.  1.
         22    1    1    0    0    0 -0.73252597831E+01  0.76919001138E+01 -0.28052714003E+02  0.29996325128E+02  0.00000000000E+00 0. -1.
</event>
<event>
 5    1  0.8902899E-005  0.9118800E+02  0.7818608E-02  0.1130116E+00
         25   -1    0    0    0    0  0.00000000000E+00  0.00000000000E+00  0.99999998245E-14  0.12500000000E+03  0.12500000000E+03 0.  0.
        -11    1    3    3    0    0  0.15202534393E+02  0.20786948511E+02  0.54836908891E+02  0.60583007992E+02  0.51100000000E-03 0. -1.
         23    2    1    0    0    0  0.77527216083E-01  0.25315194008E+01  0.29908896556E+02  0.94984059332E+02  0.90116673447E+02 0.  0.
         11    1    3    3    0    0 -0.15125007177E+02 -0.18255429110E+02 -0.24928012335E+02  0.34401051340E+02  0.51100000000E-03 0.  1.
         22    1    1    0    0    0 -0.77527216083E-01 -0.25315194008E+01 -0.29908896556E+02  0.30015940668E+02  0.00000000000E+00 0. -1.
</event>
<event>
 5    1  0.8902899E-005  0.9118800E+02  0.7818608E-02  0.1130116E+00
         25   -1    0    0    0    0  0.00000000000E+00  0.00000000000E+00  0.99999998245E-14  0.12500000000E+03  0.12500000000E+03 0.  0.
        -11    1    3    3    0    0  0.72891362119E+01 -0.26803063414E+01 -0.34102441516E+02  0.34975592438E+02  0.51100000000E-03 0.  1.
         23    2    1    0    0    0 -0.11130421644E+02 -0.10796773601E+02  0.23977840933E+02  0.96444904798E+02  0.92120715366E+02 0.  0.
         11    1    3    3    0    0 -0.18419557856E+02 -0.81164672597E+01  0.58080282449E+02  0.61469312360E+02  0.51100000000E-03 0. -1.
         22    1    1    0    0    0  0.11130421644E+02  0.10796773601E+02 -0.23977840933E+02  0.28555095202E+02  0.00000000000E+00 0. -1.
</event>
<event>
 5    1  0.8902899E-005  0.9118800E+02  0.7818608E-02  0.1130116E+00
         25   -1    0    0    0    0  0.00000000000E+00  0.00000000000E+00  0.99999998245E-14  0.12500000000E+03  0.12500000000E+03 0.  0.
        -11    1    3    3    0    0 -0.10912962459E+02  0.32197519372E+02 -0.28624267089E+02  0.44442340960E+02  0.51100000000E-03 0. -1.
         23    2    1    0    0    0 -0.23177288954E+02  0.76157266696E+01  0.15265895446E+02  0.96220952418E+02  0.91816328093E+02 0.  0.
         11    1    3    3    0    0 -0.12264326495E+02 -0.24581792702E+02  0.43890162536E+02  0.51778611458E+02  0.51100000000E-03 0.  1.
         22    1    1    0    0    0  0.23177288954E+02 -0.76157266696E+01 -0.15265895446E+02  0.28779047582E+02  0.00000000000E+00 0.  1.
</event>
<event>
 5    1  0.8902899E-005  0.9118800E+02  0.7818608E-02  0.1130116E+00
         25   -1    0    0    0    0  0.00000000000E+00  0.00000000000E+00  0.99999998245E-14  0.12500000000E+03  0.12500000000E+03 0.  0.
        -11    1    3    3    0    0 -0.37759930071E+02 -0.76205846654E+01 -0.38460861393E+01  0.38712762863E+02  0.51100000000E-03 0.  1.
         23    2    1    0    0    0  0.18827273307E+02 -0.19702039115E+02  0.51377085431E+01  0.97268562703E+02  0.93231650612E+02 0.  0.
         11    1    3    3    0    0  0.56587203378E+02 -0.12081454449E+02  0.89837946824E+01  0.58555799840E+02  0.51100000000E-03 0. -1.
         22    1    1    0    0    0 -0.18827273307E+02  0.19702039115E+02 -0.51377085431E+01  0.27731437297E+02  0.00000000000E+00 0. -1.
</event>
<event>
 5    1  0.8902899E-005  0.9118800E+02  0.7818608E-02  0.1130116E+00
         25   -1    0    0    0    0  0.00000000000E+00  0.00000000000E+00  0.99999998245E-14  0.12500000000E+03  0.12500000000E+03 0.  0.
        -11    1    3    3    0    0 -0.28792260494E+02  0.14951316417E+02 -0.37671583362E+02  0.49716036852E+02  0.51100000000E-03 0.  1.
         23    2    1    0    0    0 -0.27817419692E+02  0.12915829784E+01  0.68720140582E+01  0.96317224643E+02  0.91947300998E+02 0.  0.
         11    1    3    3    0    0  0.97484080164E+00 -0.13659733439E+02  0.44543597420E+02  0.46601187792E+02  0.51100000000E-03 0. -1.
         22    1    1    0    0    0  0.27817419692E+02 -0.12915829784E+01 -0.68720140582E+01  0.28682775357E+02  0.00000000000E+00 0.  1.
</event>
<event>
 5    1  0.8902899E-005  0.9118800E+02  0.7818608E-02  0.1130116E+00
         25   -1    0    0    0    0  0.00000000000E+00  0.00000000000E+00  0.99999998245E-14  0.12500000000E+03  0.12500000000E+03 0.  0.
        -11    1    3    3    0    0  0.98182951363E+01 -0.26063499278E+02  0.30653349126E+02  0.41416575509E+02  0.51100000000E-03 0.  1.
         23    2    1    0    0    0  0.51478983654E+01 -0.17238947986E+02 -0.22891687670E+02  0.95884513577E+02  0.91357147472E+02 0.  0.
         11    1    3    3    0    0 -0.46703967710E+01  0.88245512916E+01 -0.53545036797E+02  0.54467938068E+02  0.51100000000E-03 0. -1.
         22    1    1    0    0    0 -0.51478983654E+01  0.17238947986E+02  0.22891687670E+02  0.29115486423E+02  0.00000000000E+00 0. -1.
</event>
<event>
 5    1  0.8902899E-005  0.9118800E+02  0.7818608E-02  0.1130116E+00
         25   -1    0    0    0    0  0.00000000000E+00  0.00000000000E+00  0.99999998245E-14  0.12500000000E+03  0.12500000000E+03 0.  0.
        -11    1    3    3    0    0 -0.17728525949E+01 -0.60824117606E+01  0.36145014061E+02  0.36696059474E+02  0.51100000000E-03 0. -1.
         23    2    1    0    0    0  0.16891582731E+02  0.19402683609E+02 -0.13811237141E+02  0.95801712897E+02  0.91243784578E+02 0.  0.
         11    1    3    3    0    0  0.18664435326E+02  0.25485095369E+02 -0.49956251203E+02  0.59105653423E+02  0.51100000000E-03 0.  1.
         22    1    1    0    0    0 -0.16891582731E+02 -0.19402683609E+02  0.13811237141E+02  0.29198287103E+02  0.00000000000E+00 0.  1.
</event>
<event>
 5    1  0.8902899E-005  0.9118800E+02  0.7818608E-02  0.1130116E+00
         25   -1    0    0    0    0  0.00000000000E+00  0.00000000000E+00  0.99999998245E-14  0.12500000000E+03  0.12500000000E+03 0.  0.
        -11    1    3    3    0    0  0.26286110079E+02  0.11812851253E+02 -0.50603943463E+02  0.58234544147E+02  0.51100000000E-03 0.  1.
         23    2    1    0    0    0  0.22856984676E+02 -0.63451901212E+01 -0.20057777295E+02  0.93935267325E+02  0.88649968028E+02 0.  0.
         11    1    3    3    0    0 -0.34291254033E+01 -0.18158041375E+02  0.30546166168E+02  0.35700723178E+02  0.51100000000E-03 0. -1.
         22    1    1    0    0    0 -0.22856984676E+02  0.63451901212E+01  0.20057777295E+02  0.31064732675E+02  0.00000000000E+00 0.  1.
</event>
<event>
 5    1  0.8902899E-005  0.9118800E+02  0.7818608E-02  0.1130116E+00
         25   -1    0    0    0    0  0.00000000000E+00  0.00000000000E+00  0.99999998245E-14  0.12500000000E+03  0.12500000000E+03 0.  0.
        -11    1    3    3    0    0 -0.57404358324E+01 -0.30324759127E+02 -0.50116222956E+02  0.58857280121E+02  0.51100000000E-03 0. -1.
         23    2    1    0    0    0 -0.53196272997E+01  0.25566166466E+00 -0.27742695682E+02  0.96750735209E+02  0.92534770775E+02 0.  0.
         11    1    3    3    0    0  0.42080853274E+00  0.30580420791E+02  0.22373527274E+02  0.37893455088E+02  0.51100000000E-03 0.  1.
         22    1    1    0    0    0  0.53196272997E+01 -0.25566166466E+00  0.27742695682E+02  0.28249264791E+02  0.00000000000E+00 0. -1.
</event>
<event>
 5    1  0.8902899E-005  0.9118800E+02  0.7818608E-02  0.1130116E+00
         25   -1    0    0    0    0  0.00000000000E+00  0.00000000000E+00  0.99999998245E-14  0.12500000000E+03  0.12500000000E+03 0.  0.
        -11    1    3    3    0    0 -0.22021333720E+02 -0.49631649808E+02 -0.17022328279E+02  0.56903422232E+02  0.51100000000E-03 0. -1.
         23    2    1    0    0    0  0.43470282047E+01 -0.21349590430E+02 -0.19650303872E+02  0.95659991343E+02  0.91049425236E+02 0.  0.
         11    1    3    3    0    0  0.26368361925E+02  0.28282059378E+02 -0.26279755930E+01  0.38756569111E+02  0.51100000000E-03 0.  1.
         22    1    1    0    0    0 -0.43470282047E+01  0.21349590430E+02  0.19650303872E+02  0.29340008657E+02  0.00000000000E+00 0.  1.
</event>
<event>
 5    1  0.8902899E-005  0.9118800E+02  0.7818608E-02  0.1130116E+00
         25   -1    0    0    0    0  0.00000000000E+00  0.00000000000E+00  0.99999998245E-14  0.12500000000E+03  0.12500000000E+03 0.  0.
        -11    1    3    3    0    0  0.17404115290E+02 -0.16304289406E+02 -0.28045098878E+02  0.36813864962E+02  0.51100000000E-03 0.  1.
         23    2    1    0    0    0 -0.18778498759E+02  0.16589044135E+02  0.92270653406E+01  0.98298555549E+02  0.94602531083E+02 0.  0.
         11    1    3    3    0    0 -0.36182614049E+02  0.32893333541E+02  0.37272164219E+02  0.61484690588E+02  0.51100000000E-03 0. -1.
         22    1    1    0    0    0  0.18778498759E+02 -0.16589044135E+02 -0.92270653406E+01  0.26701444451E+02  0.00000000000E+00 0. -1.
</event>
<event>
 5    1  0.8902899E-005  0.9118800E+02  0.7818608E-02  0.1130116E+00
         25   -1    0    0    0    0  0.00000000000E+00  0.00000000000E+00  0.99999998245E-14  0.12500000000E+03  0.12500000000E+03 0.  0.
        -11    1    3    3    0    0  0.13376622700E+02 -0.98052708506E+00  0.33504444103E+02  0.36089378537E+02  0.51100000000E-03 0.  1.
         23    2    1    0    0    0 -0.24763947221E+02 -0.10214774264E+02 -0.11541576975E+02  0.95831477680E+02  0.91284551925E+02 0.  0.
         11    1    3    3    0    0 -0.38140569921E+02 -0.92342471790E+01 -0.45046021078E+02  0.59742099144E+02  0.51100000000E-03 0. -1.
         22    1    1    0    0    0  0.24763947221E+02  0.10214774264E+02  0.11541576975E+02  0.29168522320E+02  0.00000000000E+00 0. -1.
</event>
<event>
 5    1  0.8902899E-005  0.9118800E+02  0.7818608E-02  0.1130116E+00
         25   -1    0    0    0    0  0.00000000000E+00  0.00000000000E+00  0.99999998245E-14  0.12500000000E+03  0.12500000000E+03 0.  0.
        -11    1    3    3    0    0  0.38455165807E+02  0.34670271938E+00 -0.22361251135E+02  0.44485340648E+02  0.51100000000E-03 0.  1.
         23    2    1    0    0    0  0.47953232253E+01  0.28620607097E+02  0.39436433836E+01  0.95713713131E+02  0.91123148994E+02 0.  0.
         11    1    3    3    0    0 -0.33659842581E+02  0.28273904378E+02  0.26304894518E+02  0.51228372483E+02  0.51100000000E-03 0. -1.
         22    1    1    0    0    0 -0.47953232253E+01 -0.28620607097E+02 -0.39436433836E+01  0.29286286869E+02  0.00000000000E+00 0.  1.
</event>
<event>
 5    1  0.8902899E-005  0.9118800E+02  0.7818608E-02  0.1130116E+00
         25   -1    0    0    0    0  0.00000000000E+00  0.00000000000E+00  0.99999998245E-14  0.12500000000E+03  0.12500000000E+03 0.  0.
        -11    1    3    3    0    0 -0.27877538993E+02 -0.17544910967E+02  0.10317146514E+02  0.34517018898E+02  0.51100000000E-03 0. -1.
         23    2    1    0    0    0  0.10618872102E+02  0.27953889078E+02 -0.51353927325E+00  0.95092741987E+02  0.90267300262E+02 0.  0.
         11    1    3    3    0    0  0.38496411096E+02  0.45498800045E+02 -0.10830685787E+02  0.60575723088E+02  0.51100000000E-03 0.  1.
         22    1    1    0    0    0 -0.10618872102E+02 -0.27953889078E+02  0.51353927325E+00  0.29907258013E+02  0.00000000000E+00 0.  1.
</event>
<event>
 5    1  0.8902899E-005  0.9118800E+02  0.7818608E-02  0.1130116E+00
         25   -1    0    0    0    0  0.00000000000E+00  0.00000000000E+00  0.99999998245E-14  0.12500000000E+03  0.12500000000E+03 0.  0.
        -11    1    3    3    0    0  0.39251938835E+02 -0.69448857263E+01  0.23718472160E+01  0.39932089847E+02  0.51100000000E-03 0.  1.
         23    2    1    0    0    0 -0.10892060222E+02 -0.21163441083E+02 -0.17229160204E+02  0.95616804536E+02  0.90990115584E+02 0.  0.
         11    1    3    3    0    0 -0.50143999057E+02 -0.14218555357E+02 -0.19601007420E+02  0.55684714689E+02  0.51100000000E-03 0. -1.
         22    1    1    0    0    0  0.10892060222E+02  0.21163441083E+02  0.17229160204E+02  0.29383195464E+02  0.00000000000E+00 0. -1.
</event>
<event>
 5    1  0.8902899E-005  0.9118800E+02  0.7818608E-02  0.1130116E+00
         25   -1    0    0    0    0  0.00000000000E+00  0.00000000000E+00  0.99999998245E-14  0.12500000000E+03  0.12500000000E+03 0.  0.
        -11    1    3    3    0    0  0.17174656731E+02  0.44195678389E+02  0.40545647047E+02  0.62387308940E+02  0.51100000000E-03 0. -1.
         23    2    1    0    0    0  0.94981316054E+01  0.19061646514E+02  0.15825499240E+02  0.98466864150E+02  0.94824659438E+02 0.  0.
         11    1    3    3    0    0 -0.76765251260E+01 -0.25134031875E+02 -0.24720147807E+02  0.36079555210E+02  0.51100000000E-03 0.  1.
         22    1    1    0    0    0 -0.94981316054E+01 -0.19061646514E+02 -0.15825499240E+02  0.26533135850E+02  0.00000000000E+00 0. -1.
</event>
<event>
 5    1  0.8902899E-005  0.9118800E+02  0.7818608E-02  0.1130116E+00
         25   -1    0    0    0    0  0.00000000000E+00  0.00000000000E+00  0.99999998245E-14  0.12500000000E+03  0.12500000000E+03 0.  0.
        -11    1    3    3    0    0 -0.17601557264E+02  0.16561398988E+02 -0.33298408491E+02  0.41144607944E+02  0.51100000000E-03 0.  1.
         23    2    1    0    0    0  0.26194008318E+02  0.99846376504E+01  0.67208734727E+00  0.96959479995E+02  0.92816323988E+02 0.  0.
         11    1    3    3    0    0  0.43795565582E+02 -0.65767613378E+01  0.33970495838E+02  0.55814872051E+02  0.51100000000E-03 0. -1.
         22    1    1    0    0    0 -0.26194008318E+02 -0.99846376504E+01 -0.67208734727E+00  0.28040520005E+02  0.00000000000E+00 0. -1.
</event>
<event>
 5    1  0.8902899E-005  0.9118800E+02  0.7818608E-02  0.1130116E+00
         25   -1    0    0    0    0  0.00000000000E+00  0.00000000000E+00  0.99999998245E-14  0.12500000000E+03  0.12500000000E+03 0.  0.
        -11    1    3    3    0    0 -0.36369088283E+02  0.44517711565E+02 -0.21362832821E+02  0.61326241136E+02  0.51100000000E-03 0.  1.
         23    2    1    0    0    0 -0.10183197232E+02  0.22695491437E+02 -0.14848690612E+02  0.96029904206E+02  0.91555863010E+02 0.  0.
         11    1    3    3    0    0  0.26185891051E+02 -0.21822220128E+02  0.65141422086E+01  0.34703663070E+02  0.51100000000E-03 0. -1.
         22    1    1    0    0    0  0.10183197232E+02 -0.22695491437E+02  0.14848690612E+02  0.28970095794E+02  0.00000000000E+00 0.  1.
</event>
<event>
 5    1  0.8902899E-005  0.9118800E+02  0.7818608E-02  0.1130116E+00
         25   -1    0    0    0    0  0.00000000000E+00  0.00000000000E+00  0.99999998245E-14  0.12500000000E+03  0.12500000000E+03 0.  0.
        -11    1    3    3    0    0  0.20349651176E+02  0.32180112496E+02  0.34985391970E+01  0.38234901857E+02  0.51100000000E-03 0. -1.
         23    2    1    0    0    0 -0.17247390392E+02 -0.56335951345E+01  0.23608557231E+02  0.95224610095E+02  0.90449723735E+02 0.  0.
         11    1    3    3    0    0 -0.37597041568E+02 -0.37813707630E+02  0.20110018034E+02  0.56989708238E+02  0.51100000000E-03 0.  1.
         22    1    1    0    0    0  0.17247390392E+02  0.56335951345E+01 -0.23608557231E+02  0.29775389905E+02  0.00000000000E+00 0.  1.
</event>
<event>
 5    1  0.8902899E-005  0.9118800E+02  0.7818608E-02  0.1130116E+00
         25   -1    0    0    0    0  0.00000000000E+00  0.00000000000E+00  0.99999998245E-14  0.12500000000E+03  0.12500000000E+03 0.  0.
        -11    1    3    3    0    0  0.37783850767E+02  0.40410990716E+02  0.11371189953E+02  0.56479832778E+02  0.51100000000E-03 0.  1.
         23    2    1    0    0    0  0.24760833956E+02  0.71032930903E+01  0.18929719343E+02  0.93032986606E+02  0.87368453412E+02 0.  0.
         11    1    3    3    0    0 -0.13023016811E+02 -0.33307697626E+02  0.75585293893E+01  0.36553153828E+02  0.51100000000E-03 0. -1.
         22    1    1    0    0    0 -0.24760833956E+02 -0.71032930903E+01 -0.18929719343E+02  0.31967013394E+02  0.00000000000E+00 0.  1.
</event>
<event>
 5    1  0.8902899E-005  0.9118800E+02  0.7818608E-02  0.1130116E+00
         25   -1    0    0    0    0  0.00000000000E+00  0.00000000000E+00  0.99999998245E-14  0.12500000000E+03  0.12500000000E+03 0.  0.
        -11    1    3    3    0    0  0.24859379568E+02  0.23272078363E+01  0.22888393614E+02  0.33871569366E+02  0.51100000000E-03 0.  1.
         23    2    1    0    0    0 -0.28267517001E+02  0.57803789781E+00 -0.83405928329E+01  0.95522005937E+02  0.90859790249E+02 0.  0.
         11    1    3    3    0    0 -0.53126896569E+02 -0.17491699385E+01 -0.31228986447E+02  0.61650436570E+02  0.51100000000E-03 0. -1.
         22    1    1    0    0    0  0.28267517001E+02 -0.57803789781E+00  0.83405928329E+01  0.29477994063E+02  0.00000000000E+00 0. -1.
</event>
<event>
 5    1  0.8902899E-005  0.9118800E+02  0.7818608E-02  0.1130116E+00
         25   -1    0    0    0    0  0.00000000000E+00  0.00000000000E+00  0.99999998245E-14  0.12500000000E+03  0.12500000000E+03 0.  0.
        -11    1    3    3    0    0 -0.31986404953E+02 -0.47345331307E+02  0.25157246702E+01  0.57193001051E+02  0.51100000000E-03 0.  1.
         23    2    1    0    0    0 -0.21359900396E+02 -0.66807281022E+01  0.10986868469E+02  0.10006831831E+03  0.96912742086E+02 0.  0.
         11    1    3    3    0    0  0.10626504557E+02  0.40664603205E+02  0.84711437988E+01  0.42875317263E+02  0.51100000000E-03 0. -1.
         22    1    1    0    0    0  0.21359900396E+02  0.66807281022E+01 -0.10986868469E+02  0.24931681685E+02  0.00000000000E+00 0.  1.
</event>
<event>
 5    1  0.8902899E-005  0.9118800E+02  0.7818608E-02  0.1130116E+00
         25   -1    0    0    0    0  0.00000000000E+00  0.00000000000E+00  0.99999998245E-14  0.12500000000E+03  0.12500000000E+03 0.  0.
        -11    1    3    3    0    0 -0.54264997860E+02 -0.12192399214E+02  0.12859710176E+02  0.57085170907E+02  0.51100000000E-03 0.  1.
         23    2    1    0    0    0 -0.26712792997E+02  0.10440042429E+02 -0.31047875962E+01  0.96151993108E+02  0.91722397903E+02 0.  0.
         11    1    3    3    0    0  0.27552204863E+02  0.22632441643E+02 -0.15964497772E+02  0.39066822202E+02  0.51100000000E-03 0. -1.
         22    1    1    0    0    0  0.26712792997E+02 -0.10440042429E+02  0.31047875962E+01  0.28848006892E+02  0.00000000000E+00 0.  1.
</event>
<event>
 5    1  0.8902899E-005  0.9118800E+02  0.7818608E-02  0.1130116E+00
         25   -1    0    0    0    0  0.00000000000E+00  0.00000000000E+00  0.99999998245E-14  0.12500000000E+03  0.12500000000E+03 0.  0.
        -11    1    3    3    0    0  0.31304080220E+02  0.17836870561E+02  0.32232128123E+02  0.48342625843E+02  0.51100000000E-03 0.  1.
         23    2    1    0    0    0  0.29016118609E+02  0.25403016459E+01 -0.10695263532E+02  0.93971353017E+02  0.88700835702E+02 0.  0.
         11    1    3    3    0    0 -0.22879616111E+01 -0.15296568915E+02 -0.42927391655E+02  0.45628727174E+02  0.51100000000E-03 0. -1.
         22    1    1    0    0    0 -0.29016118609E+02 -0.25403016459E+01  0.10695263532E+02  0.31028646983E+02  0.00000000000E+00 0. -1.
</event>
<event>
 5    1  0.8902899E-005  0.9118800E+02  0.7818608E-02  0.1130116E+00
         25   -1    0    0    0    0  0.00000000000E+00  0.00000000000E+00  0.99999998245E-14  0.12500000000E+03  0.12500000000E+03 0.  0.
        -11    1    3    3    0    0 -0.26827996830E+02 -0.40913053919E+02  0.34151329300E+02  0.59665171483E+02  0.51100000000E-03 0.  1.
         23    2    1    0    0    0 -0.18107703104E+01 -0.27023651164E+02  0.16610061184E+02  0.93228145413E+02  0.87647226729E+02 0.  0.
         11    1    3    3    0    0  0.25017226520E+02  0.13889402755E+02 -0.17541268116E+02  0.33562973930E+02  0.51100000000E-03 0. -1.
         22    1    1    0    0    0  0.18107703104E+01  0.27023651164E+02 -0.16610061184E+02  0.31771854587E+02  0.00000000000E+00 0.  1.
</event>
<event>
 5    1  0.8902899E-005  0.9118800E+02  0.7818608E-02  0.1130116E+00
         25   -1    0    0    0    0  0.00000000000E+00  0.00000000000E+00  0.99999998245E-14  0.12500000000E+03  0.12500000000E+03 0.  0.
        -11    1    3    3    0    0 -0.37897142167E+02 -0.27771993784E+02 -0.54360954040E+01  0.47297232019E+02  0.51100000000E-03 0. -1.
         23    2    1    0    0    0 -0.16430109194E+02  0.12694187279E+02  0.16870355886E+02  0.98247434020E+02  0.94534959169E+02 0.  0.
         11    1    3    3    0    0  0.21467032973E+02  0.40466181063E+02  0.22306451290E+02  0.50950202001E+02  0.51100000000E-03 0.  1.
         22    1    1    0    0    0  0.16430109194E+02 -0.12694187279E+02 -0.16870355886E+02  0.26752565980E+02  0.00000000000E+00 0.  1.
</event>
<event>
 5    1  0.8902899E-005  0.9118800E+02  0.7818608E-02  0.1130116E+00
         25   -1    0    0    0    0  0.00000000000E+00  0.00000000000E+00  0.99999998245E-14  0.12500000000E+03  0.12500000000E+03 0.  0.
        -11    1    3    3    0    0  0.15739707660E+02  0.41443544088E+02 -0.52030722673E+01  0.44636058351E+02  0.51100000000E-03 0.  1.
         23    2    1    0    0    0 -0.13182125656E+02 -0.88630585249E+01 -0.14606163238E+02  0.10342079131E+03  0.10114444042E+03 0.  0.
         11    1    3    3    0    0 -0.28921833316E+02 -0.50306602613E+02 -0.94030909702E+01  0.58784732958E+02  0.51100000000E-03 0. -1.
         22    1    1    0    0    0  0.13182125656E+02  0.88630585249E+01  0.14606163238E+02  0.21579208692E+02  0.00000000000E+00 0. -1.
</event>
<event>
 5    1  0.8902899E-005  0.9118800E+02  0.7818608E-02  0.1130116E+00
         25   -1    0    0    0    0  0.00000000000E+00  0.00000000000E+00  0.99999998245E-14  0.12500000000E+03  0.12500000000E+03 0.  0.
        -11    1    3    3    0    0  0.13811197604E+02 -0.60335336003E+00  0.43014339113E+02  0.45181263641E+02  0.51100000000E-03 0.  1.
         23    2    1    0    0    0 -0.17943922038E+02 -0.20606954718E+02  0.79516992184E+01  0.96541952961E+02  0.92252307506E+02 0.  0.
         11    1    3    3    0    0 -0.31755119642E+02 -0.20003601358E+02 -0.35062639895E+02  0.51360689320E+02  0.51100000000E-03 0. -1.
         22    1    1    0    0    0  0.17943922038E+02  0.20606954718E+02 -0.79516992184E+01  0.28458047039E+02  0.00000000000E+00 0. -1.
</event>
<event>
 5    1  0.8902899E-005  0.9118800E+02  0.7818608E-02  0.1130116E+00
         25   -1    0    0    0    0  0.00000000000E+00  0.00000000000E+00  0.99999998245E-14  0.12500000000E+03  0.12500000000E+03 0.  0.
        -11    1    3    3    0    0 -0.58742030000E+01  0.51249912387E+02 -0.59656916487E+01  0.51929271684E+02  0.51100000000E-03 0.  1.
         23    2    1    0    0    0  0.12981556430E+02  0.19423586998E+02  0.17564619617E+02  0.95771377017E+02  0.91202216279E+02 0.  0.
         11    1    3    3    0    0  0.18855759430E+02 -0.31826325389E+02  0.23530311266E+02  0.43842105332E+02  0.51100000000E-03 0. -1.
         22    1    1    0    0    0 -0.12981556430E+02 -0.19423586998E+02 -0.17564619617E+02  0.29228622983E+02  0.00000000000E+00 0.  1.
</event>
<event>
 5    1  0.8902899E-005  0.9118800E+02  0.7818608E-02  0.1130116E+00
         25   -1    0    0    0    0  0.00000000000E+00  0.00000000000E+00  0.99999998245E-14  0.12500000000E+03  0.12500000000E+03 0.  0.
        -11    1    3    3    0    0  0.94425819602E+01  0.83168870074E+01 -0.32503034366E+02  0.34853697176E+02  0.51100000000E-03 0. -1.
         23    2    1    0    0    0  0.75425208409E+01  0.77243510795E+01  0.27793633449E+02  0.95183204724E+02  0.90392484096E+02 0.  0.
         11    1    3    3    0    0 -0.19000611194E+01 -0.59253592796E+00  0.60296667815E+02  0.60329507548E+02  0.51100000000E-03 0.  1.
         22    1    1    0    0    0 -0.75425208409E+01 -0.77243510795E+01 -0.27793633449E+02  0.29816795276E+02  0.00000000000E+00 0.  1.
</event>
<event>
 5    1  0.8902899E-005  0.9118800E+02  0.7818608E-02  0.1130116E+00
         25   -1    0    0    0    0  0.00000000000E+00  0.00000000000E+00  0.99999998245E-14  0.12500000000E+03  0.12500000000E+03 0.  0.
        -11    1    3    3    0    0 -0.26418570341E+02  0.56550676229E+01 -0.39338302055E+02  0.47722349664E+02  0.51100000000E-03 0.  1.
         23    2    1    0    0    0  0.95535009225E+01  0.23942749015E+02 -0.19426347159E+02  0.92721406874E+02  0.86921526208E+02 0.  0.
         11    1    3    3    0    0  0.35972071264E+02  0.18287681392E+02  0.19911954895E+02  0.44999057209E+02  0.51100000000E-03 0. -1.
         22    1    1    0    0    0 -0.95535009225E+01 -0.23942749015E+02  0.19426347159E+02  0.32278593126E+02  0.00000000000E+00 0. -1.
</event>
<event>
 5    1  0.8902899E-005  0.9118800E+02  0.7818608E-02  0.1130116E+00
         25   -1    0    0    0    0  0.00000000000E+00  0.00000000000E+00  0.99999998245E-14  0.12500000000E+03  0.12500000000E+03 0.  0.
        -11    1    3    3    0    0 -0.24499980691E+02 -0.22162735690E+02 -0.12618753882E+02  0.35364796860E+02  0.51100000000E-03 0. -1.
         23    2    1    0    0    0  0.85119152597E+01  0.16580366655E+02  0.21427007423E+02  0.96601445337E+02  0.92332883277E+02 0.  0.
         11    1    3    3    0    0  0.33011895951E+02  0.38743102346E+02  0.34045761305E+02  0.61236648477E+02  0.51100000000E-03 0.  1.
         22    1    1    0    0    0 -0.85119152597E+01 -0.16580366655E+02 -0.21427007423E+02  0.28398554663E+02  0.00000000000E+00 0.  1.
</event>
<event>
 5    1  0.8902899E-005  0.9118800E+02  0.7818608E-02  0.1130116E+00
         25   -1    0    0    0    0  0.00000000000E+00  0.00000000000E+00  0.99999998245E-14  0.12500000000E+03  0.12500000000E+03 0.  0.
        -11    1    3    3    0    0 -0.30968452171E+02  0.43322888401E+02  0.30985825649E+02  0.61612004356E+02  0.51100000000E-03 0.  1.
         23    2    1    0    0    0 -0.71004666658E+01  0.22583074560E+02  0.12825422919E+02  0.98075970649E+02  0.94307967120E+02 0.  0.
         11    1    3    3    0    0  0.23867985505E+02 -0.20739813841E+02 -0.18160402730E+02  0.36463966293E+02  0.51100000000E-03 0. -1.
         22    1    1    0    0    0  0.71004666658E+01 -0.22583074560E+02 -0.12825422919E+02  0.26924029351E+02  0.00000000000E+00 0.  1.
</event>
<event>
 5    1  0.8902899E-005  0.9118800E+02  0.7818608E-02  0.1130116E+00
         25   -1    0    0    0    0  0.00000000000E+00  0.00000000000E+00  0.99999998245E-14  0.12500000000E+03  0.12500000000E+03 0.  0.
        -11    1    3    3    0    0  0.39326056077E+02  0.32836776200E+02 -0.32256075785E+01  0.51334170903E+02  0.51100000000E-03 0. -1.
         23    2    1    0    0    0  0.20298187098E+02  0.10166352723E+01  0.21120950624E+02  0.95688833151E+02  0.91089012992E+02 0.  0.
         11    1    3    3    0    0 -0.19027868979E+02 -0.31820140928E+02  0.24346558203E+02  0.44354662248E+02  0.51100000000E-03 0.  1.
         22    1    1    0    0    0 -0.20298187098E+02 -0.10166352723E+01 -0.21120950624E+02  0.29311166849E+02  0.00000000000E+00 0. -1.
</event>
<event>
 5    1  0.8902899E-005  0.9118800E+02  0.7818608E-02  0.1130116E+00
         25   -1    0    0    0    0  0.00000000000E+00  0.00000000000E+00  0.99999998245E-14  0.12500000000E+03  0.12500000000E+03 0.  0.
        -11    1    3    3    0    0 -0.57019505111E+02 -0.11790709877E+02  0.21947317092E+02  0.62224830496E+02  0.51100000000E-03 0.  1.
         23    2    1    0    0    0 -0.26163392692E+02 -0.81781064360E+01  0.69569663382E+01  0.96719195155E+02  0.92492155282E+02 0.  0.
         11    1    3    3    0    0  0.30856112419E+02  0.36126034412E+01 -0.14990350754E+02  0.34494364659E+02  0.51100000000E-03 0. -1.
         22    1    1    0    0    0  0.26163392692E+02  0.81781064360E+01 -0.69569663382E+01  0.28280804845E+02  0.00000000000E+00 0.  1.
</event>
<event>
 5    1  0.8902899E-005  0.9118800E+02  0.7818608E-02  0.1130116E+00
         25   -1    0    0    0    0  0.00000000000E+00  0.00000000000E+00  0.99999998245E-14  0.12500000000E+03  0.12500000000E+03 0.  0.
        -11    1    3    3    0    0 -0.23087456161E+02  0.50891054802E+02  0.18171580992E+02  0.58763393765E+02  0.51100000000E-03 0. -1.
         23    2    1    0    0    0 -0.23256855799E+02  0.20064281583E+02  0.53402201339E+00  0.94279617245E+02  0.89134192717E+02 0.  0.
         11    1    3    3    0    0 -0.16939963806E+00 -0.30826773218E+02 -0.17637558979E+02  0.35516223480E+02  0.51100000000E-03 0.  1.
         22    1    1    0    0    0  0.23256855799E+02 -0.20064281583E+02 -0.53402201339E+00  0.30720382755E+02  0.00000000000E+00 0. -1.
</event>
<event>
 5    1  0.8902899E-005  0.9118800E+02  0.7818608E-02  0.1130116E+00
         25   -1    0    0    0    0  0.00000000000E+00  0.00000000000E+00  0.99999998245E-14  0.12500000000E+03  0.12500000000E+03 0.  0.
        -11    1    3    3    0    0 -0.15223297934E+02 -0.18510182984E+02 -0.97083124473E+01  0.25857822896E+02  0.51100000000E-03 0.  1.
         23    2    1    0    0    0  0.36887330338E+02  0.34665721869E+01  0.11418784806E+02  0.86230412581E+02  0.77023393493E+02 0.  0.
         11    1    3    3    0    0  0.52110628272E+02  0.21976755170E+02  0.21127097253E+02  0.60372589685E+02  0.51100000000E-03 0. -1.
         22    1    1    0    0    0 -0.36887330338E+02 -0.34665721869E+01 -0.11418784806E+02  0.38769587419E+02  0.00000000000E+00 0. -1.
</event>
<event>
 5    1  0.8902899E-005  0.9118800E+02  0.7818608E-02  0.1130116E+00
         25   -1    0    0    0    0  0.00000000000E+00  0.00000000000E+00  0.99999998245E-14  0.12500000000E+03  0.12500000000E+03 0.  0.
        -11    1    3    3    0    0  0.35444176087E+02 -0.27684817470E+02  0.81798905921E+01  0.45712682564E+02  0.51100000000E-03 0.  1.
         23    2    1    0    0    0 -0.29515751559E+01 -0.18143384430E+02 -0.22620908135E+02  0.95852106777E+02  0.91312795896E+02 0.  0.
         11    1    3    3    0    0 -0.38395751243E+02  0.95414330408E+01 -0.30800798727E+02  0.50139424213E+02  0.51100000000E-03 0. -1.
         22    1    1    0    0    0  0.29515751559E+01  0.18143384430E+02  0.22620908135E+02  0.29147893223E+02  0.00000000000E+00 0. -1.
</event>
<event>
 5    1  0.8902899E-005  0.9118800E+02  0.7818608E-02  0.1130116E+00
         25   -1    0    0    0    0  0.00000000000E+00  0.00000000000E+00  0.99999998245E-14  0.12500000000E+03  0.12500000000E+03 0.  0.
        -11    1    3    3    0    0 -0.41845502855E+02  0.27642421764E+02 -0.20120869244E+02  0.54037014810E+02  0.51100000000E-03 0.  1.
         23    2    1    0    0    0 -0.21650113875E+01  0.26631270227E+02 -0.15785008875E+02  0.93966496599E+02  0.88693991621E+02 0.  0.
         11    1    3    3    0    0  0.39680491467E+02 -0.10111515379E+01  0.43358603698E+01  0.39929481789E+02  0.51100000000E-03 0. -1.
         22    1    1    0    0    0  0.21650113875E+01 -0.26631270227E+02  0.15785008875E+02  0.31033503401E+02  0.00000000000E+00 0.  1.
</event>
<event>
 5    1  0.8902899E-005  0.9118800E+02  0.7818608E-02  0.1130116E+00
         25   -1    0    0    0    0  0.00000000000E+00  0.00000000000E+00  0.99999998245E-14  0.12500000000E+03  0.12500000000E+03 0.  0.
        -11    1    3    3    0    0  0.38587201954E+02 -0.14019654540E+02  0.11937732592E+02  0.42755494708E+02  0.51100000000E-03 0. -1.
         23    2    1    0    0    0 -0.10226804171E+02 -0.26187956442E+02 -0.61591658576E+01  0.96219244099E+02  0.91814002335E+02 0.  0.
         11    1    3    3    0    0 -0.48814006125E+02 -0.12168301902E+02 -0.18096898449E+02  0.53463749391E+02  0.51100000000E-03 0.  1.
         22    1    1    0    0    0  0.10226804171E+02  0.26187956442E+02  0.61591658576E+01  0.28780755901E+02  0.00000000000E+00 0.  1.
</event>
<event>
 5    1  0.8902899E-005  0.9118800E+02  0.7818608E-02  0.1130116E+00
         25   -1    0    0    0    0  0.00000000000E+00  0.00000000000E+00  0.99999998245E-14  0.12500000000E+03  0.12500000000E+03 0.  0.
        -11    1    3    3    0    0 -0.12723689482E+02 -0.92458266719E+01  0.29105459432E+02  0.33083309295E+02  0.51100000000E-03 0.  1.
         23    2    1    0    0    0  0.44772058747E+01  0.89086630058E+00 -0.29578839287E+02  0.95070971469E+02  0.90237147935E+02 0.  0.
         11    1    3    3    0    0  0.17200895357E+02  0.10136692972E+02 -0.58684298719E+02  0.61987662175E+02  0.51100000000E-03 0. -1.
         22    1    1    0    0    0 -0.44772058747E+01 -0.89086630058E+00  0.29578839287E+02  0.29929028531E+02  0.00000000000E+00 0. -1.
</event>
<event>
 5    1  0.8902899E-005  0.9118800E+02  0.7818608E-02  0.1130116E+00
         25   -1    0    0    0    0  0.00000000000E+00  0.00000000000E+00  0.99999998245E-14  0.12500000000E+03  0.12500000000E+03 0.  0.
        -11    1    3    3    0    0 -0.38452020535E+02 -0.50973384708E+01 -0.37130566892E+01  0.38965722539E+02  0.51100000000E-03 0.  1.
         23    2    1    0    0    0  0.10691837103E+02  0.16117154760E+02 -0.22163838555E+02  0.95583783423E+02  0.90944740672E+02 0.  0.
         11    1    3    3    0    0  0.49143857638E+02  0.21214493231E+02 -0.18450781866E+02  0.56618060885E+02  0.51100000000E-03 0. -1.
         22    1    1    0    0    0 -0.10691837103E+02 -0.16117154760E+02  0.22163838555E+02  0.29416216577E+02  0.00000000000E+00 0. -1.
</event>
<event>
 5    1  0.8902899E-005  0.9118800E+02  0.7818608E-02  0.1130116E+00
         25   -1    0    0    0    0  0.00000000000E+00  0.00000000000E+00  0.99999998245E-14  0.12500000000E+03  0.12500000000E+03 0.  0.
        -11    1    3    3    0    0  0.29821756020E+01  0.58069765251E+02  0.34683275878E+01  0.58249637803E+02  0.51100000000E-03 0. -1.
         23    2    1    0    0    0 -0.14238024755E+02  0.25722846319E+02 -0.29478707040E+01  0.95452138599E+02  0.90763619638E+02 0.  0.
         11    1    3    3    0    0 -0.17220200357E+02 -0.32346918932E+02 -0.64161982918E+01  0.37202500796E+02  0.51100000000E-03 0.  1.
         22    1    1    0    0    0  0.14238024755E+02 -0.25722846319E+02  0.29478707040E+01  0.29547861401E+02  0.00000000000E+00 0. -1.
</event>
<event>
 5    1  0.8902899E-005  0.9118800E+02  0.7818608E-02  0.1130116E+00
         25   -1    0    0    0    0  0.00000000000E+00  0.00000000000E+00  0.99999998245E-14  0.12500000000E+03  0.12500000000E+03 0.  0.
        -11    1    3    3    0    0  0.39181325802E+02 -0.41478603837E+02  0.23892799114E+02  0.61858845104E+02  0.51100000000E-03 0. -1.
         23    2    1    0    0    0  0.21535960574E+02 -0.13933552029E+02  0.12179214451E+02  0.96605022722E+02  0.92337726203E+02 0.  0.
         11    1    3    3    0    0 -0.17645365228E+02  0.27545051808E+02 -0.11713584663E+02  0.34746177617E+02  0.51100000000E-03 0.  1.
         22    1    1    0    0    0 -0.21535960574E+02  0.13933552029E+02 -0.12179214451E+02  0.28394977278E+02  0.00000000000E+00 0. -1.
</event>
<event>
 5    1  0.8902899E-005  0.9118800E+02  0.7818608E-02  0.1130116E+00
         25   -1    0    0    0    0  0.00000000000E+00  0.00000000000E+00  0.99999998245E-14  0.12500000000E+03  0.12500000000E+03 0.  0.
        -11    1    3    3    0    0  0.23600407816E+02  0.35136300605E+02 -0.89490322854E+01  0.43262270495E+02  0.51100000000E-03 0.  1.
         23    2    1    0    0    0 -0.22505735419E+02  0.60605509409E+01 -0.13677902020E+02  0.97975503554E+02  0.94174709390E+02 0.  0.
         11    1    3    3    0    0 -0.46106143235E+02 -0.29075749664E+02 -0.47288697350E+01  0.54713233059E+02  0.51100000000E-03 0. -1.
         22    1    1    0    0    0  0.22505735419E+02 -0.60605509409E+01  0.13677902020E+02  0.27024496446E+02  0.00000000000E+00 0.  1.
</event>
<event>
 5    1  0.8902899E-005  0.9118800E+02  0.7818608E-02  0.1130116E+00
         25   -1    0    0    0    0  0.00000000000E+00  0.00000000000E+00  0.99999998245E-14  0.12500000000E+03  0.12500000000E+03 0.  0.
        -11    1    3    3    0    0  0.77312712604E+01  0.52613567113E+02  0.20609854850E+02  0.57032675870E+02  0.51100000000E-03 0.  1.
         23    2    1    0    0    0  0.63762716145E+01  0.14468820900E+02  0.24964969681E+02  0.95449139959E+02  0.90759489806E+02 0.  0.
         11    1    3    3    0    0 -0.13549996459E+01 -0.38144746213E+02  0.43551148313E+01  0.38416464089E+02  0.51100000000E-03 0. -1.
         22    1    1    0    0    0 -0.63762716145E+01 -0.14468820900E+02 -0.24964969681E+02  0.29550860041E+02  0.00000000000E+00 0.  1.
</event>
<event>
 5    1  0.8902899E-005  0.9118800E+02  0.7818608E-02  0.1130116E+00
         25   -1    0    0    0    0  0.00000000000E+00  0.00000000000E+00  0.99999998245E-14  0.12500000000E+03  0.12500000000E+03 0.  0.
        -11    1    3    3    0    0 -0.20650769425E+02 -0.51325052134E+02  0.13867075876E+02  0.57035173779E+02  0.51100000000E-03 0.  1.
         23    2    1    0    0    0 -0.24988424011E+02 -0.13522655123E+02  0.74934120243E+01  0.95615739589E+02  0.90988652574E+02 0.  0.
         11    1    3    3    0    0 -0.43376545861E+01  0.37802397011E+02 -0.63736638516E+01  0.38580565810E+02  0.51100000000E-03 0. -1.
         22    1    1    0    0    0  0.24988424011E+02  0.13522655123E+02 -0.74934120243E+01  0.29384260411E+02  0.00000000000E+00 0.  1.
</event>
<event>
 5    1  0.8902899E-005  0.9118800E+02  0.7818608E-02  0.1130116E+00
         25   -1    0    0    0    0  0.00000000000E+00  0.00000000000E+00  0.99999998245E-14  0.12500000000E+03  0.12500000000E+03 0.  0.
        -11    1    3    3    0    0 -0.42602239068E+02 -0.63924925931E+01 -0.25131198810E+02  0.49873759524E+02  0.51100000000E-03 0. -1.
         23    2    1    0    0    0 -0.28905116247E+02 -0.27292699602E+02 -0.96373801525E-01  0.85245673383E+02  0.75408344007E+02 0.  0.
         11    1    3    3    0    0  0.13697122821E+02 -0.20900207009E+02  0.25034825009E+02  0.35371913859E+02  0.51100000000E-03 0.  1.
         22    1    1    0    0    0  0.28905116247E+02  0.27292699602E+02  0.96373801525E-01  0.39754326617E+02  0.00000000000E+00 0. -1.
</event>
<event>
 5    1  0.8902899E-005  0.9118800E+02  0.7818608E-02  0.1130116E+00
         25   -1    0    0    0    0  0.00000000000E+00  0.00000000000E+00  0.99999998245E-14  0.12500000000E+03  0.12500000000E+03 0.  0.
        -11    1    3    3    0    0 -0.10491114919E+02  0.13668001431E+02 -0.55925854952E+02  0.58519902663E+02  0.51100000000E-03 0.  1.
         23    2    1    0    0    0  0.10136756139E+02  0.11018001332E+02 -0.26676131218E+02  0.94409704886E+02  0.89316438697E+02 0.  0.
         11    1    3    3    0    0  0.20627871057E+02 -0.26500000993E+01  0.29249723733E+02  0.35889802223E+02  0.51100000000E-03 0. -1.
         22    1    1    0    0    0 -0.10136756139E+02 -0.11018001332E+02  0.26676131218E+02  0.30590295114E+02  0.00000000000E+00 0.  1.
</event>
<event>
 5    1  0.8902899E-005  0.9118800E+02  0.7818608E-02  0.1130116E+00
         25   -1    0    0    0    0  0.00000000000E+00  0.00000000000E+00  0.99999998245E-14  0.12500000000E+03  0.12500000000E+03 0.  0.
        -11    1    3    3    0    0 -0.23181420289E+02  0.26939408053E+02 -0.26920623357E+01  0.35642069984E+02  0.51100000000E-03 0.  1.
         23    2    1    0    0    0 -0.69963254555E-03 -0.28873283904E+02 -0.27788205915E+00  0.96125378924E+02  0.91686120710E+02 0.  0.
         11    1    3    3    0    0  0.23180720656E+02 -0.55812691957E+02  0.24141802765E+01  0.60483308940E+02  0.51100000000E-03 0. -1.
         22    1    1    0    0    0  0.69963254555E-03  0.28873283904E+02  0.27788205915E+00  0.28874621076E+02  0.00000000000E+00 0. -1.
</event>
<event>
 5    1  0.8902899E-005  0.9118800E+02  0.7818608E-02  0.1130116E+00
         25   -1    0    0    0    0  0.00000000000E+00  0.00000000000E+00  0.99999998245E-14  0.12500000000E+03  0.12500000000E+03 0.  0.
        -11    1    3    3    0    0 -0.23691113101E+02 -0.17270524449E+01  0.20715622441E+02  0.31518067256E+02  0.51100000000E-03 0.  1.
         23    2    1    0    0    0  0.31654494092E+02  0.54238514357E+01 -0.41580952892E+01  0.92616131839E+02  0.86770000345E+02 0.  0.
         11    1    3    3    0    0  0.55345607193E+02  0.71509038806E+01 -0.24873717731E+02  0.61098064584E+02  0.51100000000E-03 0. -1.
         22    1    1    0    0    0 -0.31654494092E+02 -0.54238514357E+01  0.41580952892E+01  0.32383868161E+02  0.00000000000E+00 0. -1.
</event>
<event>
 5    1  0.8902899E-005  0.9118800E+02  0.7818608E-02  0.1130116E+00
         25   -1    0    0    0    0  0.00000000000E+00  0.00000000000E+00  0.99999998245E-14  0.12500000000E+03  0.12500000000E+03 0.  0.
        -11    1    3    3    0    0  0.44517719650E+00  0.13630444175E+02  0.57355089206E+02  0.58954163969E+02  0.51100000000E-03 0. -1.
         23    2    1    0    0    0  0.14732934274E+02  0.32504435690E+01  0.26645319420E+02  0.94379781472E+02  0.89274550506E+02 0.  0.
         11    1    3    3    0    0  0.14287757077E+02 -0.10380000606E+02 -0.30709769787E+02  0.35425617503E+02  0.51100000000E-03 0.  1.
         22    1    1    0    0    0 -0.14732934274E+02 -0.32504435690E+01 -0.26645319420E+02  0.30620218528E+02  0.00000000000E+00 0. -1.
</event>
<event>
 5    1  0.8902899E-005  0.9118800E+02  0.7818608E-02  0.1130116E+00
         25   -1    0    0    0    0  0.00000000000E+00  0.00000000000E+00  0.99999998245E-14  0.12500000000E+03  0.12500000000E+03 0.  0.
        -11    1    3    3    0    0 -0.88063716361E+01  0.18324187225E+02  0.56774488456E+02  0.60304813726E+02  0.51100000000E-03 0.  1.
         23    2    1    0    0    0 -0.15609103048E+02  0.11783111402E+02  0.26181145426E+02  0.92320676444E+02  0.86343321172E+02 0.  0.
         11    1    3    3    0    0 -0.68027314114E+01 -0.65410758230E+01 -0.30593343030E+02  0.32015862718E+02  0.51100000000E-03 0. -1.
         22    1    1    0    0    0  0.15609103048E+02 -0.11783111402E+02 -0.26181145426E+02  0.32679323556E+02  0.00000000000E+00 0.  1.
</event>
<event>
 5    1  0.8902899E-005  0.9118800E+02  0.7818608E-02  0.1130116E+00
         25   -1    0    0    0    0  0.00000000000E+00  0.00000000000E+00  0.99999998245E-14  0.12500000000E+03  0.12500000000E+03 0.  0.
        -11    1    3    3    0    0 -0.24949328490E+01 -0.27847283488E+02 -0.22190861593E+02  0.35694960794E+02  0.51100000000E-03 0.  1.
         23    2    1    0    0    0  0.86827983585E+01  0.43753349129E+01  0.27424877187E+02  0.95902604383E+02  0.91381896981E+02 0.  0.
         11    1    3    3    0    0  0.11177731208E+02  0.32222618401E+02  0.49615738780E+02  0.60207643589E+02  0.51100000000E-03 0. -1.
         22    1    1    0    0    0 -0.86827983585E+01 -0.43753349129E+01 -0.27424877187E+02  0.29097395617E+02  0.00000000000E+00 0. -1.
</event>
<event>
 5    1  0.8902899E-005  0.9118800E+02  0.7818608E-02  0.1130116E+00
         25   -1    0    0    0    0  0.00000000000E+00  0.00000000000E+00  0.99999998245E-14  0.12500000000E+03  0.12500000000E+03 0.  0.
        -11    1    3    3    0    0  0.23814094850E+02 -0.13557278671E+02 -0.25190645920E+02  0.37222030582E+02  0.51100000000E-03 0. -1.
         23    2    1    0    0    0 -0.72657932001E+01 -0.13501483856E+02  0.24656745283E+02  0.95964902185E+02  0.91467073564E+02 0.  0.
         11    1    3    3    0    0 -0.31079888050E+02  0.55794814862E-01  0.49847391203E+02  0.58742871604E+02  0.51100000000E-03 0.  1.
         22    1    1    0    0    0  0.72657932001E+01  0.13501483856E+02 -0.24656745283E+02  0.29035097815E+02  0.00000000000E+00 0.  1.
</event>
<event>
 5    1  0.8902899E-005  0.9118800E+02  0.7818608E-02  0.1130116E+00
         25   -1    0    0    0    0  0.00000000000E+00  0.00000000000E+00  0.99999998245E-14  0.12500000000E+03  0.12500000000E+03 0.  0.
        -11    1    3    3    0    0 -0.15099444905E+02  0.82808800269E+01  0.11208334044E+02  0.20547334688E+02  0.51100000000E-03 0.  1.
         23    2    1    0    0    0  0.39290432728E+02 -0.15362003988E+02 -0.62096794212E+01  0.82358595368E+02  0.70460264277E+02 0.  0.
         11    1    3    3    0    0  0.54389877633E+02 -0.23642884015E+02 -0.17418013465E+02  0.61811260680E+02  0.51100000000E-03 0. -1.
         22    1    1    0    0    0 -0.39290432728E+02  0.15362003988E+02  0.62096794212E+01  0.42641404632E+02  0.00000000000E+00 0. -1.
</event>
<event>
 5    1  0.8902899E-005  0.9118800E+02  0.7818608E-02  0.1130116E+00
         25   -1    0    0    0    0  0.00000000000E+00  0.00000000000E+00  0.99999998245E-14  0.12500000000E+03  0.12500000000E+03 0.  0.
        -11    1    3    3    0    0 -0.11380410921E+02 -0.37507250922E+02  0.12462589464E+01  0.39215568160E+02  0.51100000000E-03 0. -1.
         23    2    1    0    0    0  0.15816188402E+02  0.60963626116E+01 -0.23315989817E+02  0.96173747489E+02  0.91752040154E+02 0.  0.
         11    1    3    3    0    0  0.27196599323E+02  0.43603613534E+02 -0.24562248763E+02  0.56958179329E+02  0.51100000000E-03 0.  1.
         22    1    1    0    0    0 -0.15816188402E+02 -0.60963626116E+01  0.23315989817E+02  0.28826252511E+02  0.00000000000E+00 0.  1.
</event>
<event>
 5    1  0.8902899E-005  0.9118800E+02  0.7818608E-02  0.1130116E+00
         25   -1    0    0    0    0  0.00000000000E+00  0.00000000000E+00  0.99999998245E-14  0.12500000000E+03  0.12500000000E+03 0.  0.
        -11    1    3    3    0    0 -0.11555887102E+02  0.21568085085E+02  0.97959657999E+01  0.26356816332E+02  0.51100000000E-03 0.  1.
         23    2    1    0    0    0 -0.24454122090E+02 -0.35519944122E+01 -0.36700213072E+02  0.80756058143E+02  0.67557490598E+02 0.  0.
         11    1    3    3    0    0 -0.12898234988E+02 -0.25120079497E+02 -0.46496178872E+02  0.54399241811E+02  0.51100000000E-03 0. -1.
         22    1    1    0    0    0  0.24454122090E+02  0.35519944122E+01  0.36700213072E+02  0.44243941857E+02  0.00000000000E+00 0. -1.
</event>
<event>
 5    1  0.8902899E-005  0.9118800E+02  0.7818608E-02  0.1130116E+00
         25   -1    0    0    0    0  0.00000000000E+00  0.00000000000E+00  0.99999998245E-14  0.12500000000E+03  0.12500000000E+03 0.  0.
        -11    1    3    3    0    0 -0.24067372650E+02  0.21977895082E+02 -0.17121336507E+02  0.36815845265E+02  0.51100000000E-03 0.  1.
         23    2    1    0    0    0 -0.40334965118E+01 -0.28515953395E+02  0.55333151554E+01  0.95673454538E+02  0.91067906721E+02 0.  0.
         11    1    3    3    0    0  0.20033876139E+02 -0.50493848477E+02  0.22654651663E+02  0.58857609273E+02  0.51100000000E-03 0. -1.
         22    1    1    0    0    0  0.40334965118E+01  0.28515953395E+02 -0.55333151554E+01  0.29326545462E+02  0.00000000000E+00 0. -1.
</event>
<event>
 5    1  0.8902899E-005  0.9118800E+02  0.7818608E-02  0.1130116E+00
         25   -1    0    0    0    0  0.00000000000E+00  0.00000000000E+00  0.99999998245E-14  0.12500000000E+03  0.12500000000E+03 0.  0.
        -11    1    3    3    0    0  0.27210993353E+02 -0.84032539280E+01  0.24746934385E+02  0.37728816540E+02  0.51100000000E-03 0. -1.
         23    2    1    0    0    0 -0.26677522159E+01  0.20184421735E+02 -0.18446969435E+02  0.97526040256E+02  0.93576225955E+02 0.  0.
         11    1    3    3    0    0 -0.29878745568E+02  0.28587675663E+02 -0.43193903821E+02  0.59797223716E+02  0.51100000000E-03 0.  1.
         22    1    1    0    0    0  0.26677522159E+01 -0.20184421735E+02  0.18446969435E+02  0.27473959744E+02  0.00000000000E+00 0.  1.
</event>
<event>
 5    1  0.8902899E-005  0.9118800E+02  0.7818608E-02  0.1130116E+00
         25   -1    0    0    0    0  0.00000000000E+00  0.00000000000E+00  0.99999998245E-14  0.12500000000E+03  0.12500000000E+03 0.  0.
        -11    1    3    3    0    0  0.20284410426E+02 -0.63882035716E+01  0.25672573284E+02  0.33336878535E+02  0.51100000000E-03 0.  1.
         23    2    1    0    0    0 -0.13643506466E+02  0.81231506060E+01 -0.24613136303E+02  0.95709432864E+02  0.91117277265E+02 0.  0.
         11    1    3    3    0    0 -0.33927916891E+02  0.14511354178E+02 -0.50285709587E+02  0.62372554329E+02  0.51100000000E-03 0. -1.
         22    1    1    0    0    0  0.13643506466E+02 -0.81231506060E+01  0.24613136303E+02  0.29290567136E+02  0.00000000000E+00 0. -1.
</event>
<event>
 5    1  0.8902899E-005  0.9118800E+02  0.7818608E-02  0.1130116E+00
         25   -1    0    0    0    0  0.00000000000E+00  0.00000000000E+00  0.99999998245E-14  0.12500000000E+03  0.12500000000E+03 0.  0.
        -11    1    3    3    0    0  0.22432651635E+02 -0.56198375816E+02 -0.66870442094E+01  0.60878550116E+02  0.51100000000E-03 0.  1.
         23    2    1    0    0    0  0.13532935234E+02 -0.22324005341E+02 -0.11938616894E+02  0.96294040273E+02  0.91915777036E+02 0.  0.
         11    1    3    3    0    0 -0.88997164011E+01  0.33874370475E+02 -0.52515726848E+01  0.35415490157E+02  0.51100000000E-03 0. -1.
         22    1    1    0    0    0 -0.13532935234E+02  0.22324005341E+02  0.11938616894E+02  0.28705959727E+02  0.00000000000E+00 0.  1.
</event>
<event>
 5    1  0.8902899E-005  0.9118800E+02  0.7818608E-02  0.1130116E+00
         25   -1    0    0    0    0  0.00000000000E+00  0.00000000000E+00  0.99999998245E-14  0.12500000000E+03  0.12500000000E+03 0.  0.
        -11    1    3    3    0    0 -0.22908476336E+01  0.35926477996E+02  0.16443631702E+02  0.39577175592E+02  0.51100000000E-03 0. -1.
         23    2    1    0    0    0 -0.28738855250E+02 -0.54181972502E+01 -0.83798713594E+01  0.94577953610E+02  0.89551596315E+02 0.  0.
         11    1    3    3    0    0 -0.26448007617E+02 -0.41344675246E+02 -0.24823503061E+02  0.55000778018E+02  0.51100000000E-03 0.  1.
         22    1    1    0    0    0  0.28738855250E+02  0.54181972502E+01  0.83798713594E+01  0.30422046390E+02  0.00000000000E+00 0.  1.
</event>
<event>
 5    1  0.8902899E-005  0.9118800E+02  0.7818608E-02  0.1130116E+00
         25   -1    0    0    0    0  0.00000000000E+00  0.00000000000E+00  0.99999998245E-14  0.12500000000E+03  0.12500000000E+03 0.  0.
        -11    1    3    3    0    0  0.30648515028E+02 -0.31198144546E+02  0.32187508802E+02  0.54301854661E+02  0.51100000000E-03 0.  1.
         23    2    1    0    0    0  0.18717343740E+01 -0.29767799866E+02  0.34859135922E+01  0.94970399736E+02  0.90097724355E+02 0.  0.
         11    1    3    3    0    0 -0.28776780654E+02  0.14303446799E+01 -0.28701595210E+02  0.40668545075E+02  0.51100000000E-03 0. -1.
         22    1    1    0    0    0 -0.18717343740E+01  0.29767799866E+02 -0.34859135922E+01  0.30029600264E+02  0.00000000000E+00 0.  1.
</event>
<event>
 5    1  0.8902899E-005  0.9118800E+02  0.7818608E-02  0.1130116E+00
         25   -1    0    0    0    0  0.00000000000E+00  0.00000000000E+00  0.99999998245E-14  0.12500000000E+03  0.12500000000E+03 0.  0.
        -11    1    3    3    0    0 -0.27607916178E+00 -0.25547741008E+02  0.16257220075E+02  0.30283006706E+02  0.51100000000E-03 0.  1.
         23    2    1    0    0    0 -0.65623254437E+01  0.23002816313E+02 -0.22066977358E+02  0.92455489507E+02  0.86538271168E+02 0.  0.
         11    1    3    3    0    0 -0.62862462820E+01  0.48550557321E+02 -0.38324197432E+02  0.62172482801E+02  0.51100000000E-03 0. -1.
         22    1    1    0    0    0  0.65623254437E+01 -0.23002816313E+02  0.22066977358E+02  0.32544510493E+02  0.00000000000E+00 0. -1.
</event>
<event>
 5    1  0.8902899E-005  0.9118800E+02  0.7818608E-02  0.1130116E+00
         25   -1    0    0    0    0  0.00000000000E+00  0.00000000000E+00  0.99999998245E-14  0.12500000000E+03  0.12500000000E+03 0.  0.
        -11    1    3    3    0    0 -0.13447147818E+02  0.31417162505E+02  0.26290941562E+02  0.43117020918E+02  0.51100000000E-03 0.  1.
         23    2    1    0    0    0 -0.59127414524E+01  0.18678149825E+02 -0.23119094876E+02  0.94696100247E+02  0.89716358941E+02 0.  0.
         11    1    3    3    0    0  0.75344063656E+01 -0.12739012680E+02 -0.49410036438E+02  0.51579079329E+02  0.51100000000E-03 0. -1.
         22    1    1    0    0    0  0.59127414524E+01 -0.18678149825E+02  0.23119094876E+02  0.30303899753E+02  0.00000000000E+00 0. -1.
</event>
<event>
 5    1  0.8902899E-005  0.9118800E+02  0.7818608E-02  0.1130116E+00
         25   -1    0    0    0    0  0.00000000000E+00  0.00000000000E+00  0.99999998245E-14  0.12500000000E+03  0.12500000000E+03 0.  0.
        -11    1    3    3    0    0  0.18999809964E+02 -0.25972871509E+02  0.18111475372E+02  0.36927068304E+02  0.51100000000E-03 0. -1.
         23    2    1    0    0    0 -0.28531990733E+02  0.52984161363E+01  0.28119838631E+01  0.95844297950E+02  0.91302105603E+02 0.  0.
         11    1    3    3    0    0 -0.47531800698E+02  0.31271287645E+02 -0.15299491509E+02  0.58917229647E+02  0.51100000000E-03 0.  1.
         22    1    1    0    0    0  0.28531990733E+02 -0.52984161363E+01 -0.28119838631E+01  0.29155702050E+02  0.00000000000E+00 0.  1.
</event>
<event>
 5    1  0.8902899E-005  0.9118800E+02  0.7818608E-02  0.1130116E+00
         25   -1    0    0    0    0  0.00000000000E+00  0.00000000000E+00  0.99999998245E-14  0.12500000000E+03  0.12500000000E+03 0.  0.
        -11    1    3    3    0    0 -0.22325556801E+02 -0.41626472805E+02  0.10747741050E+02  0.48442828805E+02  0.51100000000E-03 0. -1.
         23    2    1    0    0    0  0.48632716867E+01 -0.80411555275E+01  0.28373676204E+02  0.95110585569E+02  0.90292006248E+02 0.  0.
         11    1    3    3    0    0  0.27188828488E+02  0.33585317277E+02  0.17625935153E+02  0.46667756765E+02  0.51100000000E-03 0.  1.
         22    1    1    0    0    0 -0.48632716867E+01  0.80411555275E+01 -0.28373676204E+02  0.29889414431E+02  0.00000000000E+00 0. -1.
</event>
<event>
 5    1  0.8902899E-005  0.9118800E+02  0.7818608E-02  0.1130116E+00
         25   -1    0    0    0    0  0.00000000000E+00  0.00000000000E+00  0.99999998245E-14  0.12500000000E+03  0.12500000000E+03 0.  0.
        -11    1    3    3    0    0  0.68855197418E+01  0.40531665703E+02 -0.97390870864E+01  0.42250161235E+02  0.51100000000E-03 0.  1.
         23    2    1    0    0    0 -0.28054144713E+02  0.52159488025E+00 -0.95224414247E+01  0.95369205419E+02  0.90649331795E+02 0.  0.
         11    1    3    3    0    0 -0.34939664455E+02 -0.40010070823E+02  0.21664566171E+00  0.53119044185E+02  0.51100000000E-03 0. -1.
         22    1    1    0    0    0  0.28054144713E+02 -0.52159488025E+00  0.95224414247E+01  0.29630794581E+02  0.00000000000E+00 0. -1.
</event>
<event>
 5    1  0.8902899E-005  0.9118800E+02  0.7818608E-02  0.1130116E+00
         25   -1    0    0    0    0  0.00000000000E+00  0.00000000000E+00  0.99999998245E-14  0.12500000000E+03  0.12500000000E+03 0.  0.
        -11    1    3    3    0    0 -0.12109983532E+02 -0.42388982677E+02 -0.49180817444E+01  0.44358371046E+02  0.51100000000E-03 0. -1.
         23    2    1    0    0    0 -0.26836434111E+02  0.64014538891E+01  0.66528522843E+01  0.96619844060E+02  0.92357788058E+02 0.  0.
         11    1    3    3    0    0 -0.14726450578E+02  0.48790436566E+02  0.11570934029E+02  0.52261473014E+02  0.51100000000E-03 0.  1.
         22    1    1    0    0    0  0.26836434111E+02 -0.64014538891E+01 -0.66528522843E+01  0.28380155940E+02  0.00000000000E+00 0.  1.
</event>
<event>
 5    1  0.8902899E-005  0.9118800E+02  0.7818608E-02  0.1130116E+00
         25   -1    0    0    0    0  0.00000000000E+00  0.00000000000E+00  0.99999998245E-14  0.12500000000E+03  0.12500000000E+03 0.  0.
        -11    1    3    3    0    0  0.38845098074E+02  0.21050471198E+02 -0.30469905252E+02  0.53670095103E+02  0.51100000000E-03 0.  1.
         23    2    1    0    0    0  0.86345948173E-01  0.21902744986E+02 -0.23163612504E+02  0.93120686366E+02  0.87493837448E+02 0.  0.
         11    1    3    3    0    0 -0.38758752126E+02  0.85227378781E+00  0.73062927483E+01  0.39450591262E+02  0.51100000000E-03 0. -1.
         22    1    1    0    0    0 -0.86345948173E-01 -0.21902744986E+02  0.23163612504E+02  0.31879313634E+02  0.00000000000E+00 0.  1.
</event>
<event>
 5    1  0.8902899E-005  0.9118800E+02  0.7818608E-02  0.1130116E+00
         25   -1    0    0    0    0  0.00000000000E+00  0.00000000000E+00  0.99999998245E-14  0.12500000000E+03  0.12500000000E+03 0.  0.
        -11    1    3    3    0    0 -0.24714436449E+02 -0.48578818637E+01 -0.33158529692E+02  0.41640010528E+02  0.51100000000E-03 0. -1.
         23    2    1    0    0    0 -0.14205784334E+02  0.20511374239E+02  0.14132429666E+02  0.96325161727E+02  0.91958090627E+02 0.  0.
         11    1    3    3    0    0  0.10508652115E+02  0.25369256103E+02  0.47290959358E+02  0.54685151199E+02  0.51100000000E-03 0.  1.
         22    1    1    0    0    0  0.14205784334E+02 -0.20511374239E+02 -0.14132429666E+02  0.28674838273E+02  0.00000000000E+00 0.  1.
</event>
<event>
 5    1  0.8902899E-005  0.9118800E+02  0.7818608E-02  0.1130116E+00
         25   -1    0    0    0    0  0.00000000000E+00  0.00000000000E+00  0.99999998245E-14  0.12500000000E+03  0.12500000000E+03 0.  0.
        -11    1    3    3    0    0  0.14896445752E+02  0.22901384079E+00  0.39530242688E+02  0.42244486393E+02  0.51100000000E-03 0. -1.
         23    2    1    0    0    0 -0.16972639905E+02  0.11622332012E+02 -0.99159240886E+01  0.10216418039E+03  0.99579340716E+02 0.  0.
         11    1    3    3    0    0 -0.31869085656E+02  0.11393318171E+02 -0.49446166777E+02  0.59919693997E+02  0.51100000000E-03 0.  1.
         22    1    1    0    0    0  0.16972639905E+02 -0.11622332012E+02  0.99159240886E+01  0.22835819610E+02  0.00000000000E+00 0.  1.
</event>
<event>
 5    1  0.8902899E-005  0.9118800E+02  0.7818608E-02  0.1130116E+00
         25   -1    0    0    0    0  0.00000000000E+00  0.00000000000E+00  0.99999998245E-14  0.12500000000E+03  0.12500000000E+03 0.  0.
        -11    1    3    3    0    0  0.34227883199E+02  0.20747775823E+02  0.88495780538E+00  0.40035001442E+02  0.51100000000E-03 0.  1.
         23    2    1    0    0    0 -0.23127609883E+02  0.10028291420E+02 -0.68082635829E+01  0.98888595964E+02  0.95378975624E+02 0.  0.
         11    1    3    3    0    0 -0.57355493082E+02 -0.10719484403E+02 -0.76932213883E+01  0.58853594522E+02  0.51100000000E-03 0. -1.
         22    1    1    0    0    0  0.23127609883E+02 -0.10028291420E+02  0.68082635829E+01  0.26111404036E+02  0.00000000000E+00 0. -1.
</event>
<event>
 5    1  0.8902899E-005  0.9118800E+02  0.7818608E-02  0.1130116E+00
         25   -1    0    0    0    0  0.00000000000E+00  0.00000000000E+00  0.99999998245E-14  0.12500000000E+03  0.12500000000E+03 0.  0.
        -11    1    3    3    0    0  0.28667745764E+02 -0.22493785373E+02 -0.40912799882E+02  0.54787473222E+02  0.51100000000E-03 0.  1.
         23    2    1    0    0    0 -0.65561396976E+01 -0.20600497364E+02 -0.18185148505E+02  0.96749989636E+02  0.92533763617E+02 0.  0.
         11    1    3    3    0    0 -0.35223885462E+02  0.18932880085E+01  0.22727651376E+02  0.41962516415E+02  0.51100000000E-03 0. -1.
         22    1    1    0    0    0  0.65561396976E+01  0.20600497364E+02  0.18185148505E+02  0.28250010364E+02  0.00000000000E+00 0.  1.
</event>
<event>
 5    1  0.8902899E-005  0.9118800E+02  0.7818608E-02  0.1130116E+00
         25   -1    0    0    0    0  0.00000000000E+00  0.00000000000E+00  0.99999998245E-14  0.12500000000E+03  0.12500000000E+03 0.  0.
        -11    1    3    3    0    0 -0.13059350301E+02 -0.24529056577E+02 -0.28203092848E+02  0.39593379412E+02  0.51100000000E-03 0. -1.
         23    2    1    0    0    0 -0.12997061828E+02  0.26434440243E+02 -0.74858363442E+01  0.94606892345E+02  0.89591981150E+02 0.  0.
         11    1    3    3    0    0  0.62288473550E-01  0.50963496820E+02  0.20717256503E+02  0.55013512933E+02  0.51100000000E-03 0.  1.
         22    1    1    0    0    0  0.12997061828E+02 -0.26434440243E+02  0.74858363442E+01  0.30393107655E+02  0.00000000000E+00 0. -1.
</event>
<event>
 5    1  0.8902899E-005  0.9118800E+02  0.7818608E-02  0.1130116E+00
         25   -1    0    0    0    0  0.00000000000E+00  0.00000000000E+00  0.99999998245E-14  0.12500000000E+03  0.12500000000E+03 0.  0.
        -11    1    3    3    0    0  0.34379508147E+02  0.12659716693E+02  0.10804943718E+02  0.38196411038E+02  0.51100000000E-03 0. -1.
         23    2    1    0    0    0 -0.46522900859E+01 -0.24541449046E+02 -0.12654265024E+02  0.96998983096E+02  0.92869509389E+02 0.  0.
         11    1    3    3    0    0 -0.39031798233E+02 -0.37201165739E+02 -0.23459208742E+02  0.58802572059E+02  0.51100000000E-03 0.  1.
         22    1    1    0    0    0  0.46522900859E+01  0.24541449046E+02  0.12654265024E+02  0.28001016904E+02  0.00000000000E+00 0. -1.
</event>
<event>
 5    1  0.8902899E-005  0.9118800E+02  0.7818608E-02  0.1130116E+00
         25   -1    0    0    0    0  0.00000000000E+00  0.00000000000E+00  0.99999998245E-14  0.12500000000E+03  0.12500000000E+03 0.  0.
        -11    1    3    3    0    0  0.31013125824E+02 -0.13313926926E+02 -0.11723417773E+02  0.35728324172E+02  0.51100000000E-03 0. -1.
         23    2    1    0    0    0 -0.20909174360E+02 -0.17798279778E+02 -0.23153514623E+02  0.89082628508E+02  0.81520899940E+02 0.  0.
         11    1    3    3    0    0 -0.51922300184E+02 -0.44843528523E+01 -0.11430096850E+02  0.53354304336E+02  0.51100000000E-03 0.  1.
         22    1    1    0    0    0  0.20909174360E+02  0.17798279778E+02  0.23153514623E+02  0.35917371492E+02  0.00000000000E+00 0.  1.
</event>
<event>
 5    1  0.8902899E-005  0.9118800E+02  0.7818608E-02  0.1130116E+00
         25   -1    0    0    0    0  0.00000000000E+00  0.00000000000E+00  0.99999998245E-14  0.12500000000E+03  0.12500000000E+03 0.  0.
        -11    1    3    3    0    0  0.35904641096E+02  0.41652173521E+01 -0.20056138312E+02  0.41336920206E+02  0.51100000000E-03 0. -1.
         23    2    1    0    0    0 -0.17665665202E+02  0.12638141889E+02 -0.19852427433E+02  0.95573528373E+02  0.90930644412E+02 0.  0.
         11    1    3    3    0    0 -0.53570306298E+02  0.84729245371E+01  0.20371087935E+00  0.54236608167E+02  0.51100000000E-03 0.  1.
         22    1    1    0    0    0  0.17665665202E+02 -0.12638141889E+02  0.19852427433E+02  0.29426471627E+02  0.00000000000E+00 0. -1.
</event>
<event>
 5    1  0.8902899E-005  0.9118800E+02  0.7818608E-02  0.1130116E+00
         25   -1    0    0    0    0  0.00000000000E+00  0.00000000000E+00  0.99999998245E-14  0.12500000000E+03  0.12500000000E+03 0.  0.
        -11    1    3    3    0    0 -0.53788496515E+01  0.13984886772E+02  0.52193852751E+02  0.54302001315E+02  0.51100000000E-03 0.  1.
         23    2    1    0    0    0  0.80457690106E+01 -0.11107185836E+02  0.34653863523E+02  0.87730787059E+02  0.79421009593E+02 0.  0.
         11    1    3    3    0    0  0.13424618662E+02 -0.25092072607E+02 -0.17539989227E+02  0.33428785744E+02  0.51100000000E-03 0. -1.
         22    1    1    0    0    0 -0.80457690106E+01  0.11107185836E+02 -0.34653863523E+02  0.37269212941E+02  0.00000000000E+00 0.  1.
</event>
<event>
 5    1  0.8902899E-005  0.9118800E+02  0.7818608E-02  0.1130116E+00
         25   -1    0    0    0    0  0.00000000000E+00  0.00000000000E+00  0.99999998245E-14  0.12500000000E+03  0.12500000000E+03 0.  0.
        -11    1    3    3    0    0 -0.45453630859E+01  0.61683558457E+02 -0.29142613578E+01  0.61919420451E+02  0.51100000000E-03 0.  1.
         23    2    1    0    0    0 -0.15180306724E+01  0.33397775948E+02  0.43668173822E+01  0.91283758373E+02  0.84828884192E+02 0.  0.
         11    1    3    3    0    0  0.30273324135E+01 -0.28285782509E+02  0.72810787400E+01  0.29364337922E+02  0.51100000000E-03 0. -1.
         22    1    1    0    0    0  0.15180306724E+01 -0.33397775948E+02 -0.43668173822E+01  0.33716241627E+02  0.00000000000E+00 0.  1.
</event>
<event>
 5    1  0.8902899E-005  0.9118800E+02  0.7818608E-02  0.1130116E+00
         25   -1    0    0    0    0  0.00000000000E+00  0.00000000000E+00  0.99999998245E-14  0.12500000000E+03  0.12500000000E+03 0.  0.
        -11    1    3    3    0    0  0.38432472924E+02 -0.24284738528E+02  0.58570333235E+01  0.45837848336E+02  0.51100000000E-03 0. -1.
         23    2    1    0    0    0  0.13976784770E+02  0.19382486000E+02  0.15099237747E+02  0.96733089016E+02  0.92510930457E+02 0.  0.
         11    1    3    3    0    0 -0.24455688153E+02  0.43667224528E+02  0.92422044234E+01  0.50895240680E+02  0.51100000000E-03 0.  1.
         22    1    1    0    0    0 -0.13976784770E+02 -0.19382486000E+02 -0.15099237747E+02  0.28266910984E+02  0.00000000000E+00 0. -1.
</event>
<event>
 5    1  0.8902899E-005  0.9118800E+02  0.7818608E-02  0.1130116E+00
         25   -1    0    0    0    0  0.00000000000E+00  0.00000000000E+00  0.99999998245E-14  0.12500000000E+03  0.12500000000E+03 0.  0.
        -11    1    3    3    0    0 -0.40942738297E+02 -0.25468658709E+02  0.36482785621E+02  0.60464485796E+02  0.51100000000E-03 0.  1.
         23    2    1    0    0    0 -0.19513968014E+02 -0.14652911245E+01  0.21402178623E+02  0.96000081456E+02  0.91515137349E+02 0.  0.
         11    1    3    3    0    0  0.21428770283E+02  0.24003367584E+02 -0.15080606998E+02  0.35535595660E+02  0.51100000000E-03 0. -1.
         22    1    1    0    0    0  0.19513968014E+02  0.14652911245E+01 -0.21402178623E+02  0.28999918544E+02  0.00000000000E+00 0.  1.
</event>
<event>
 5    1  0.8902899E-005  0.9118800E+02  0.7818608E-02  0.1130116E+00
         25   -1    0    0    0    0  0.00000000000E+00  0.00000000000E+00  0.99999998245E-14  0.12500000000E+03  0.12500000000E+03 0.  0.
        -11    1    3    3    0    0 -0.52560494859E+01  0.33918819156E+02 -0.19183444703E+02  0.39320693026E+02  0.51100000000E-03 0. -1.
         23    2    1    0    0    0 -0.13733990227E+02 -0.19262629830E+02 -0.21231309850E+02  0.93212582466E+02  0.87625028482E+02 0.  0.
         11    1    3    3    0    0 -0.84779407408E+01 -0.53181448986E+02 -0.20478651475E+01  0.53891889440E+02  0.51100000000E-03 0.  1.
         22    1    1    0    0    0  0.13733990227E+02  0.19262629830E+02  0.21231309850E+02  0.31787417534E+02  0.00000000000E+00 0.  1.
</event>
<event>
 5    1  0.8902899E-005  0.9118800E+02  0.7818608E-02  0.1130116E+00
         25   -1    0    0    0    0  0.00000000000E+00  0.00000000000E+00  0.99999998245E-14  0.12500000000E+03  0.12500000000E+03 0.  0.
        -11    1    3    3    0    0  0.29927614685E+02  0.42355653383E+02 -0.28370313448E+02  0.59114619001E+02  0.51100000000E-03 0.  1.
         23    2    1    0    0    0  0.84946622861E+01  0.26988857525E+02 -0.16498872037E+01  0.96657808030E+02  0.92409155431E+02 0.  0.
         11    1    3    3    0    0 -0.21432952399E+02 -0.15366795858E+02  0.26720426245E+02  0.37543189029E+02  0.51100000000E-03 0. -1.
         22    1    1    0    0    0 -0.84946622861E+01 -0.26988857525E+02  0.16498872037E+01  0.28342191970E+02  0.00000000000E+00 0.  1.
</event>
<event>
 5    1  0.8902899E-005  0.9118800E+02  0.7818608E-02  0.1130116E+00
         25   -1    0    0    0    0  0.00000000000E+00  0.00000000000E+00  0.99999998245E-14  0.12500000000E+03  0.12500000000E+03 0.  0.
        -11    1    3    3    0    0  0.54043280263E+02 -0.15308926889E+02  0.15114539030E+02  0.58167763189E+02  0.51100000000E-03 0.  1.
         23    2    1    0    0    0  0.24210385439E+02  0.79185266593E+01  0.13867700145E+02  0.95997259873E+02  0.91511283284E+02 0.  0.
         11    1    3    3    0    0 -0.29832894824E+02  0.23227453548E+02 -0.12468388853E+01  0.37829496684E+02  0.51100000000E-03 0. -1.
         22    1    1    0    0    0 -0.24210385439E+02 -0.79185266593E+01 -0.13867700145E+02  0.29002740127E+02  0.00000000000E+00 0.  1.
</event>
<event>
 5    1  0.8902899E-005  0.9118800E+02  0.7818608E-02  0.1130116E+00
         25   -1    0    0    0    0  0.00000000000E+00  0.00000000000E+00  0.99999998245E-14  0.12500000000E+03  0.12500000000E+03 0.  0.
        -11    1    3    3    0    0  0.11333576327E+02  0.16318743675E+00  0.31961936425E+02  0.33912268617E+02  0.51100000000E-03 0. -1.
         23    2    1    0    0    0 -0.23492690581E+01 -0.14145925601E+02 -0.26079887891E+02  0.95237828900E+02  0.90467990057E+02 0.  0.
         11    1    3    3    0    0 -0.13682845385E+02 -0.14309113038E+02 -0.58041824316E+02  0.61325560282E+02  0.51100000000E-03 0.  1.
         22    1    1    0    0    0  0.23492690581E+01  0.14145925601E+02  0.26079887891E+02  0.29762171100E+02  0.00000000000E+00 0.  1.
</event>
<event>
 5    1  0.8902899E-005  0.9118800E+02  0.7818608E-02  0.1130116E+00
         25   -1    0    0    0    0  0.00000000000E+00  0.00000000000E+00  0.99999998245E-14  0.12500000000E+03  0.12500000000E+03 0.  0.
        -11    1    3    3    0    0 -0.84033371064E+01 -0.45452240555E+02  0.28669593459E+01  0.46311356082E+02  0.51100000000E-03 0.  1.
         23    2    1    0    0    0 -0.25819813829E+02 -0.16177986013E+01  0.15107447978E+02  0.95041444580E+02  0.90196236867E+02 0.  0.
         11    1    3    3    0    0 -0.17416476722E+02  0.43834441954E+02  0.12240488632E+02  0.48730088498E+02  0.51100000000E-03 0. -1.
         22    1    1    0    0    0  0.25819813829E+02  0.16177986013E+01 -0.15107447978E+02  0.29958555420E+02  0.00000000000E+00 0. -1.
</event>
<event>
 5    1  0.8902899E-005  0.9118800E+02  0.7818608E-02  0.1130116E+00
         25   -1    0    0    0    0  0.00000000000E+00  0.00000000000E+00  0.99999998245E-14  0.12500000000E+03  0.12500000000E+03 0.  0.
        -11    1    3    3    0    0 -0.29078326458E+01 -0.49845430334E+01 -0.54237427436E+02  0.54543557778E+02  0.51100000000E-03 0.  1.
         23    2    1    0    0    0  0.20298532404E+02  0.18018852185E+01 -0.20093100462E+02  0.96381651091E+02  0.92034845427E+02 0.  0.
         11    1    3    3    0    0  0.23206365050E+02  0.67864282519E+01  0.34144326974E+02  0.41838093313E+02  0.51100000000E-03 0. -1.
         22    1    1    0    0    0 -0.20298532404E+02 -0.18018852185E+01  0.20093100462E+02  0.28618348909E+02  0.00000000000E+00 0.  1.
</event>
<event>
 5    1  0.8902899E-005  0.9118800E+02  0.7818608E-02  0.1130116E+00
         25   -1    0    0    0    0  0.00000000000E+00  0.00000000000E+00  0.99999998245E-14  0.12500000000E+03  0.12500000000E+03 0.  0.
        -11    1    3    3    0    0  0.18002971080E+02 -0.38868425765E+01 -0.34252898665E+02  0.38890559010E+02  0.51100000000E-03 0. -1.
         23    2    1    0    0    0  0.44579966516E+01 -0.20312918596E+02  0.19366753669E+02  0.96582407848E+02  0.92307106779E+02 0.  0.
         11    1    3    3    0    0 -0.13544974429E+02 -0.16426076020E+02  0.53619652334E+02  0.57691848838E+02  0.51100000000E-03 0.  1.
         22    1    1    0    0    0 -0.44579966516E+01  0.20312918596E+02 -0.19366753669E+02  0.28417592152E+02  0.00000000000E+00 0.  1.
</event>
<event>
 5    1  0.8902899E-005  0.9118800E+02  0.7818608E-02  0.1130116E+00
         25   -1    0    0    0    0  0.00000000000E+00  0.00000000000E+00  0.99999998245E-14  0.12500000000E+03  0.12500000000E+03 0.  0.
        -11    1    3    3    0    0  0.15239161475E+02 -0.31894217124E+02 -0.41713160632E+01  0.35593159544E+02  0.51100000000E-03 0.  1.
         23    2    1    0    0    0  0.82157187708E+01  0.25605108919E+02  0.11729050303E+02  0.95662476950E+02  0.91052837614E+02 0.  0.
         11    1    3    3    0    0 -0.70234427043E+01  0.57499326043E+02  0.15900366366E+02  0.60069317406E+02  0.51100000000E-03 0. -1.
         22    1    1    0    0    0 -0.82157187708E+01 -0.25605108919E+02 -0.11729050303E+02  0.29337523050E+02  0.00000000000E+00 0. -1.
</event>
<event>
 5    1  0.8902899E-005  0.9118800E+02  0.7818608E-02  0.1130116E+00
         25   -1    0    0    0    0  0.00000000000E+00  0.00000000000E+00  0.99999998245E-14  0.12500000000E+03  0.12500000000E+03 0.  0.
        -11    1    3    3    0    0 -0.59934659932E+01  0.61895456392E+02  0.31755786367E+01  0.62265989565E+02  0.51100000000E-03 0.  1.
         23    2    1    0    0    0 -0.14597873760E+01  0.28274966156E+02 -0.21483154313E+01  0.96605987436E+02  0.92339032153E+02 0.  0.
         11    1    3    3    0    0  0.45336786172E+01 -0.33620490236E+02 -0.53238940680E+01  0.34339997871E+02  0.51100000000E-03 0. -1.
         22    1    1    0    0    0  0.14597873760E+01 -0.28274966156E+02  0.21483154313E+01  0.28394012564E+02  0.00000000000E+00 0.  1.
</event>
<event>
 5    1  0.8902899E-005  0.9118800E+02  0.7818608E-02  0.1130116E+00
         25   -1    0    0    0    0  0.00000000000E+00  0.00000000000E+00  0.99999998245E-14  0.12500000000E+03  0.12500000000E+03 0.  0.
        -11    1    3    3    0    0  0.52819208621E+02  0.66906610121E+01  0.17794040280E+02  0.56136099026E+02  0.51100000000E-03 0. -1.
         23    2    1    0    0    0  0.24252715131E+02  0.96783913382E+01 -0.10870858510E+02  0.96715003715E+02  0.92486490520E+02 0.  0.
         11    1    3    3    0    0 -0.28566493490E+02  0.29877303261E+01 -0.28664898790E+02  0.40578904688E+02  0.51100000000E-03 0.  1.
         22    1    1    0    0    0 -0.24252715131E+02 -0.96783913382E+01  0.10870858510E+02  0.28284996285E+02  0.00000000000E+00 0. -1.
</event>
<event>
 5    1  0.8902899E-005  0.9118800E+02  0.7818608E-02  0.1130116E+00
         25   -1    0    0    0    0  0.00000000000E+00  0.00000000000E+00  0.99999998245E-14  0.12500000000E+03  0.12500000000E+03 0.  0.
        -11    1    3    3    0    0  0.98465565326E+01 -0.22043483102E+02  0.30406823574E+02  0.38825825722E+02  0.51100000000E-03 0. -1.
         23    2    1    0    0    0  0.17819452537E+02  0.13420449196E+02 -0.15834579426E+02  0.97643551931E+02  0.93733067713E+02 0.  0.
         11    1    3    3    0    0  0.79728960045E+01  0.35463932298E+02 -0.46241403000E+02  0.58817726209E+02  0.51100000000E-03 0.  1.
         22    1    1    0    0    0 -0.17819452537E+02 -0.13420449196E+02  0.15834579426E+02  0.27356448069E+02  0.00000000000E+00 0.  1.
</event>
<event>
 5    1  0.8902899E-005  0.9118800E+02  0.7818608E-02  0.1130116E+00
         25   -1    0    0    0    0  0.00000000000E+00  0.00000000000E+00  0.99999998245E-14  0.12500000000E+03  0.12500000000E+03 0.  0.
        -11    1    3    3    0    0 -0.37948780771E+02 -0.31788248704E+02 -0.18208622786E+02  0.52746153051E+02  0.51100000000E-03 0.  1.
         23    2    1    0    0    0  0.28178016203E+01 -0.28365888591E+02 -0.11771933580E+02  0.94159408862E+02  0.88965455180E+02 0.  0.
         11    1    3    3    0    0  0.40766582391E+02  0.34223601123E+01  0.64366892063E+01  0.41413255810E+02  0.51100000000E-03 0. -1.
         22    1    1    0    0    0 -0.28178016203E+01  0.28365888591E+02  0.11771933580E+02  0.30840591138E+02  0.00000000000E+00 0.  1.
</event>
<event>
 5    1  0.8902899E-005  0.9118800E+02  0.7818608E-02  0.1130116E+00
         25   -1    0    0    0    0  0.00000000000E+00  0.00000000000E+00  0.99999998245E-14  0.12500000000E+03  0.12500000000E+03 0.  0.
        -11    1    3    3    0    0 -0.14515155030E+02  0.13629468788E+02  0.36510764948E+02  0.41587114619E+02  0.51100000000E-03 0. -1.
         23    2    1    0    0    0  0.22260917154E+02  0.16488292203E+02 -0.47074094352E+01  0.96900677661E+02  0.92737098376E+02 0.  0.
         11    1    3    3    0    0  0.36776072184E+02  0.28588234158E+01 -0.41218174383E+02  0.55313563042E+02  0.51100000000E-03 0.  1.
         22    1    1    0    0    0 -0.22260917154E+02 -0.16488292203E+02  0.47074094352E+01  0.28099322339E+02  0.00000000000E+00 0. -1.
</event>
<event>
 5    1  0.8902899E-005  0.9118800E+02  0.7818608E-02  0.1130116E+00
         25   -1    0    0    0    0  0.00000000000E+00  0.00000000000E+00  0.99999998245E-14  0.12500000000E+03  0.12500000000E+03 0.  0.
        -11    1    3    3    0    0 -0.33427642999E+01 -0.11571487257E+02  0.54181904514E+02  0.55504523848E+02  0.51100000000E-03 0.  1.
         23    2    1    0    0    0  0.12494120242E+02 -0.18538631577E+02  0.15744589147E+02  0.97656335492E+02  0.93750113989E+02 0.  0.
         11    1    3    3    0    0  0.15836884541E+02 -0.69671443199E+01 -0.38437315367E+02  0.42151811644E+02  0.51100000000E-03 0. -1.
         22    1    1    0    0    0 -0.12494120242E+02  0.18538631577E+02 -0.15744589147E+02  0.27343664508E+02  0.00000000000E+00 0.  1.
</event>
<event>
 5    1  0.8902899E-005  0.9118800E+02  0.7818608E-02  0.1130116E+00
         25   -1    0    0    0    0  0.00000000000E+00  0.00000000000E+00  0.99999998245E-14  0.12500000000E+03  0.12500000000E+03 0.  0.
        -11    1    3    3    0    0 -0.45698632075E+02 -0.41007515759E+02 -0.11258692589E+02  0.62423869484E+02  0.51100000000E-03 0.  1.
         23    2    1    0    0    0 -0.22708403247E+02 -0.19783035537E+02 -0.33513609077E+01  0.94697001913E+02  0.89717615206E+02 0.  0.
         11    1    3    3    0    0  0.22990228828E+02  0.21224480221E+02  0.79073316814E+01  0.32273132430E+02  0.51100000000E-03 0. -1.
         22    1    1    0    0    0  0.22708403247E+02  0.19783035537E+02  0.33513609077E+01  0.30302998087E+02  0.00000000000E+00 0.  1.
</event>
<event>
 5    1  0.8902899E-005  0.9118800E+02  0.7818608E-02  0.1130116E+00
         25   -1    0    0    0    0  0.00000000000E+00  0.00000000000E+00  0.99999998245E-14  0.12500000000E+03  0.12500000000E+03 0.  0.
        -11    1    3    3    0    0 -0.64167011529E+00 -0.33777851479E+02  0.23887708686E+02  0.41376051257E+02  0.51100000000E-03 0.  1.
         23    2    1    0    0    0  0.10273991452E+01  0.21066852829E+02  0.19254182938E+02  0.96441439151E+02  0.92116012657E+02 0.  0.
         11    1    3    3    0    0  0.16690692604E+01  0.54844704308E+02 -0.46335257485E+01  0.55065387895E+02  0.51100000000E-03 0. -1.
         22    1    1    0    0    0 -0.10273991452E+01 -0.21066852829E+02 -0.19254182938E+02  0.28558560849E+02  0.00000000000E+00 0. -1.
</event>
<event>
 5    1  0.8902899E-005  0.9118800E+02  0.7818608E-02  0.1130116E+00
         25   -1    0    0    0    0  0.00000000000E+00  0.00000000000E+00  0.99999998245E-14  0.12500000000E+03  0.12500000000E+03 0.  0.
        -11    1    3    3    0    0 -0.83506479405E+01  0.41004991569E+02 -0.10374033115E+02  0.43113376322E+02  0.51100000000E-03 0. -1.
         23    2    1    0    0    0  0.22595370477E+02  0.54632016624E+01 -0.23409392485E+02  0.92009137691E+02  0.85891119580E+02 0.  0.
         11    1    3    3    0    0  0.30946018417E+02 -0.35541789906E+02 -0.13035359370E+02  0.48895761368E+02  0.51100000000E-03 0.  1.
         22    1    1    0    0    0 -0.22595370477E+02 -0.54632016624E+01  0.23409392485E+02  0.32990862309E+02  0.00000000000E+00 0.  1.
</event>
<event>
 5    1  0.8902899E-005  0.9118800E+02  0.7818608E-02  0.1130116E+00
         25   -1    0    0    0    0  0.00000000000E+00  0.00000000000E+00  0.99999998245E-14  0.12500000000E+03  0.12500000000E+03 0.  0.
        -11    1    3    3    0    0 -0.14648700919E+02  0.23314747986E+02 -0.21319960768E+02  0.34823880308E+02  0.51100000000E-03 0.  1.
         23    2    1    0    0    0 -0.13247129657E+01 -0.30174543495E+02  0.21151098856E+01  0.94722423654E+02  0.89753027322E+02 0.  0.
         11    1    3    3    0    0  0.13323987954E+02 -0.53489291481E+02  0.23435070653E+02  0.59898543346E+02  0.51100000000E-03 0. -1.
         22    1    1    0    0    0  0.13247129657E+01  0.30174543495E+02 -0.21151098856E+01  0.30277576346E+02  0.00000000000E+00 0. -1.
</event>
<event>
 5    1  0.8902899E-005  0.9118800E+02  0.7818608E-02  0.1130116E+00
         25   -1    0    0    0    0  0.00000000000E+00  0.00000000000E+00  0.99999998245E-14  0.12500000000E+03  0.12500000000E+03 0.  0.
        -11    1    3    3    0    0 -0.36248710549E+01  0.38623731630E+02 -0.16535914086E+02  0.42170710097E+02  0.51100000000E-03 0. -1.
         23    2    1    0    0    0 -0.80238567132E+01 -0.13134501734E+02 -0.25821805672E+02  0.94939010985E+02  0.90054165625E+02 0.  0.
         11    1    3    3    0    0 -0.43989856583E+01 -0.51758233364E+02 -0.92858915867E+01  0.52768300888E+02  0.51100000000E-03 0.  1.
         22    1    1    0    0    0  0.80238567132E+01  0.13134501734E+02  0.25821805672E+02  0.30060989015E+02  0.00000000000E+00 0.  1.
</event>
<event>
 5    1  0.8902899E-005  0.9118800E+02  0.7818608E-02  0.1130116E+00
         25   -1    0    0    0    0  0.00000000000E+00  0.00000000000E+00  0.99999998245E-14  0.12500000000E+03  0.12500000000E+03 0.  0.
        -11    1    3    3    0    0  0.18301710279E+00 -0.35765454276E+02 -0.20483949371E+01  0.35824532613E+02  0.51100000000E-03 0. -1.
         23    2    1    0    0    0 -0.16459731375E+02  0.13176611414E+02  0.23449728412E+02  0.93465326895E+02  0.87984838033E+02 0.  0.
         11    1    3    3    0    0 -0.16642748477E+02  0.48942065690E+02  0.25498123349E+02  0.57640794282E+02  0.51100000000E-03 0.  1.
         22    1    1    0    0    0  0.16459731375E+02 -0.13176611414E+02 -0.23449728412E+02  0.31534673105E+02  0.00000000000E+00 0.  1.
</event>
<event>
 5    1  0.8902899E-005  0.9118800E+02  0.7818608E-02  0.1130116E+00
         25   -1    0    0    0    0  0.00000000000E+00  0.00000000000E+00  0.99999998245E-14  0.12500000000E+03  0.12500000000E+03 0.  0.
        -11    1    3    3    0    0  0.30237611220E+02 -0.19185353321E+02  0.36699654263E+01  0.35998049404E+02  0.51100000000E-03 0.  1.
         23    2    1    0    0    0 -0.11286283636E+02  0.23706166254E+02  0.11739094526E+02  0.96239456593E+02  0.91841516474E+02 0.  0.
         11    1    3    3    0    0 -0.41523894856E+02  0.42891519575E+02  0.80691290998E+01  0.60241407190E+02  0.51100000000E-03 0. -1.
         22    1    1    0    0    0  0.11286283636E+02 -0.23706166254E+02 -0.11739094526E+02  0.28760543407E+02  0.00000000000E+00 0. -1.
</event>
<event>
 5    1  0.8902899E-005  0.9118800E+02  0.7818608E-02  0.1130116E+00
         25   -1    0    0    0    0  0.00000000000E+00  0.00000000000E+00  0.99999998245E-14  0.12500000000E+03  0.12500000000E+03 0.  0.
        -11    1    3    3    0    0 -0.37903027290E+02  0.50143049030E+01 -0.23687278412E+02  0.44976325886E+02  0.51100000000E-03 0.  1.
         23    2    1    0    0    0 -0.18956497961E+01 -0.27698659935E+02 -0.76109423062E+01  0.96212230146E+02  0.91804452706E+02 0.  0.
         11    1    3    3    0    0  0.36007377494E+02 -0.32712964838E+02  0.16076336106E+02  0.51235904260E+02  0.51100000000E-03 0. -1.
         22    1    1    0    0    0  0.18956497961E+01  0.27698659935E+02  0.76109423062E+01  0.28787769854E+02  0.00000000000E+00 0. -1.
</event>
<event>
 5    1  0.8902899E-005  0.9118800E+02  0.7818608E-02  0.1130116E+00
         25   -1    0    0    0    0  0.00000000000E+00  0.00000000000E+00  0.99999998245E-14  0.12500000000E+03  0.12500000000E+03 0.  0.
        -11    1    3    3    0    0  0.20306524815E+02 -0.33341853430E+02  0.30205457540E+02  0.49359941306E+02  0.51100000000E-03 0.  1.
         23    2    1    0    0    0 -0.14601971035E+02 -0.17468978825E+02 -0.53027865108E+01  0.10162261084E+03  0.98897182514E+02 0.  0.
         11    1    3    3    0    0 -0.34908495850E+02  0.15872874605E+02 -0.35508244051E+02  0.52262669531E+02  0.51100000000E-03 0. -1.
         22    1    1    0    0    0  0.14601971035E+02  0.17468978825E+02  0.53027865108E+01  0.23377389163E+02  0.00000000000E+00 0.  1.
</event>
<event>
 5    1  0.8902899E-005  0.9118800E+02  0.7818608E-02  0.1130116E+00
         25   -1    0    0    0    0  0.00000000000E+00  0.00000000000E+00  0.99999998245E-14  0.12500000000E+03  0.12500000000E+03 0.  0.
        -11    1    3    3    0    0  0.30036065049E+02  0.15694038130E+02 -0.34031801329E+02  0.48027404035E+02  0.51100000000E-03 0. -1.
         23    2    1    0    0    0 -0.44842338130E+01  0.29251541450E+02 -0.53138855214E+01  0.94933433694E+02  0.90046423713E+02 0.  0.
         11    1    3    3    0    0 -0.34520298862E+02  0.13557503320E+02  0.28717915807E+02  0.46906029659E+02  0.51100000000E-03 0.  1.
         22    1    1    0    0    0  0.44842338130E+01 -0.29251541450E+02  0.53138855214E+01  0.30066566306E+02  0.00000000000E+00 0.  1.
</event>
<event>
 5    1  0.8902899E-005  0.9118800E+02  0.7818608E-02  0.1130116E+00
         25   -1    0    0    0    0  0.00000000000E+00  0.00000000000E+00  0.99999998245E-14  0.12500000000E+03  0.12500000000E+03 0.  0.
        -11    1    3    3    0    0  0.33688414630E+02 -0.10258463026E+00 -0.19490675021E+02  0.38920511519E+02  0.51100000000E-03 0.  1.
         23    2    1    0    0    0 -0.11558421737E+02  0.26652448859E+02  0.23751543363E+01  0.95852247062E+02  0.91312987934E+02 0.  0.
         11    1    3    3    0    0 -0.45246836367E+02  0.26755033489E+02  0.21865829358E+02  0.56931735543E+02  0.51100000000E-03 0. -1.
         22    1    1    0    0    0  0.11558421737E+02 -0.26652448859E+02 -0.23751543363E+01  0.29147752938E+02  0.00000000000E+00 0. -1.
</event>
<event>
 5    1  0.8902899E-005  0.9118800E+02  0.7818608E-02  0.1130116E+00
         25   -1    0    0    0    0  0.00000000000E+00  0.00000000000E+00  0.99999998245E-14  0.12500000000E+03  0.12500000000E+03 0.  0.
        -11    1    3    3    0    0 -0.21411291184E+01 -0.55426020769E+02  0.86093237808E+01  0.56131530073E+02  0.51100000000E-03 0.  1.
         23    2    1    0    0    0 -0.19808962437E+02 -0.22121013626E+02  0.94392313397E+01  0.93841801642E+02  0.88518079568E+02 0.  0.
         11    1    3    3    0    0 -0.17667833318E+02  0.33305007143E+02  0.82990755884E+00  0.37710271569E+02  0.51100000000E-03 0. -1.
         22    1    1    0    0    0  0.19808962437E+02  0.22121013626E+02 -0.94392313397E+01  0.31158198358E+02  0.00000000000E+00 0.  1.
</event>
<event>
 5    1  0.8902899E-005  0.9118800E+02  0.7818608E-02  0.1130116E+00
         25   -1    0    0    0    0  0.00000000000E+00  0.00000000000E+00  0.99999998245E-14  0.12500000000E+03  0.12500000000E+03 0.  0.
        -11    1    3    3    0    0 -0.29687325623E+02  0.50218979380E+02  0.17619397107E+02  0.60940350732E+02  0.51100000000E-03 0.  1.
         23    2    1    0    0    0 -0.59982091367E+01  0.25350844232E+02  0.13862406054E+02  0.95490508006E+02  0.90816446757E+02 0.  0.
         11    1    3    3    0    0  0.23689116486E+02 -0.24868135149E+02 -0.37569910527E+01  0.34550157275E+02  0.51100000000E-03 0. -1.
         22    1    1    0    0    0  0.59982091367E+01 -0.25350844232E+02 -0.13862406054E+02  0.29509491994E+02  0.00000000000E+00 0.  1.
</event>
<event>
 5    1  0.8902899E-005  0.9118800E+02  0.7818608E-02  0.1130116E+00
         25   -1    0    0    0    0  0.00000000000E+00  0.00000000000E+00  0.99999998245E-14  0.12500000000E+03  0.12500000000E+03 0.  0.
        -11    1    3    3    0    0  0.27685789518E+02  0.37081617442E+02 -0.30788505943E+02  0.55583103474E+02  0.51100000000E-03 0. -1.
         23    2    1    0    0    0  0.25310463497E+02  0.16304427078E+02  0.23852349949E+01  0.94798290599E+02  0.89858625906E+02 0.  0.
         11    1    3    3    0    0 -0.23753260211E+01 -0.20777190364E+02  0.33173740938E+02  0.39215187125E+02  0.51100000000E-03 0.  1.
         22    1    1    0    0    0 -0.25310463497E+02 -0.16304427078E+02 -0.23852349949E+01  0.30201709401E+02  0.00000000000E+00 0. -1.
</event>
<event>
 5    1  0.8902899E-005  0.9118800E+02  0.7818608E-02  0.1130116E+00
         25   -1    0    0    0    0  0.00000000000E+00  0.00000000000E+00  0.99999998245E-14  0.12500000000E+03  0.12500000000E+03 0.  0.
        -11    1    3    3    0    0 -0.21767296492E+02  0.28939320191E+02  0.18400205291E+02  0.40618554931E+02  0.51100000000E-03 0. -1.
         23    2    1    0    0    0 -0.21459803326E+02 -0.21997658054E+02  0.12212457281E+02  0.91930917287E+02  0.85777207472E+02 0.  0.
         11    1    3    3    0    0  0.30749316572E+00 -0.50936978245E+02 -0.61877480102E+01  0.51312362355E+02  0.51100000000E-03 0.  1.
         22    1    1    0    0    0  0.21459803326E+02  0.21997658054E+02 -0.12212457281E+02  0.33069082713E+02  0.00000000000E+00 0.  1.
</event>
<event>
 5    1  0.8902899E-005  0.9118800E+02  0.7818608E-02  0.1130116E+00
         25   -1    0    0    0    0  0.00000000000E+00  0.00000000000E+00  0.99999998245E-14  0.12500000000E+03  0.12500000000E+03 0.  0.
        -11    1    3    3    0    0 -0.13885163760E+01  0.26941253650E+02  0.29378121363E+02  0.39885249667E+02  0.51100000000E-03 0.  1.
         23    2    1    0    0    0  0.30275926050E+02 -0.55953380895E+01 -0.44978672704E+00  0.94208088487E+02  0.89033825716E+02 0.  0.
         11    1    3    3    0    0  0.31664442426E+02 -0.32536591739E+02 -0.29827908090E+02  0.54322838820E+02  0.51100000000E-03 0. -1.
         22    1    1    0    0    0 -0.30275926050E+02  0.55953380895E+01  0.44978672704E+00  0.30791911513E+02  0.00000000000E+00 0. -1.
</event>
<event>
 5    1  0.8902899E-005  0.9118800E+02  0.7818608E-02  0.1130116E+00
         25   -1    0    0    0    0  0.00000000000E+00  0.00000000000E+00  0.99999998245E-14  0.12500000000E+03  0.12500000000E+03 0.  0.
        -11    1    3    3    0    0 -0.18555597373E+02 -0.19926633682E+02  0.46567634112E+02  0.53943725036E+02  0.51100000000E-03 0. -1.
         23    2    1    0    0    0 -0.29335844404E+02 -0.24485970033E+01  0.14102056829E+02  0.92358685673E+02  0.86398329951E+02 0.  0.
         11    1    3    3    0    0 -0.10780247031E+02  0.17478036678E+02 -0.32465577283E+02  0.38414960637E+02  0.51100000000E-03 0.  1.
         22    1    1    0    0    0  0.29335844404E+02  0.24485970033E+01 -0.14102056829E+02  0.32641314327E+02  0.00000000000E+00 0. -1.
</event>
<event>
 5    1  0.8902899E-005  0.9118800E+02  0.7818608E-02  0.1130116E+00
         25   -1    0    0    0    0  0.00000000000E+00  0.00000000000E+00  0.99999998245E-14  0.12500000000E+03  0.12500000000E+03 0.  0.
        -11    1    3    3    0    0  0.44553121280E+02  0.18136478242E+02  0.64944163735E+01  0.48539570487E+02  0.51100000000E-03 0. -1.
         23    2    1    0    0    0  0.12350347238E+02  0.79071149676E+01 -0.25828433597E+02  0.95298795881E+02  0.90552189207E+02 0.  0.
         11    1    3    3    0    0 -0.32202774041E+02 -0.10229363274E+02 -0.32322849971E+02  0.46759225394E+02  0.51100000000E-03 0.  1.
         22    1    1    0    0    0 -0.12350347238E+02 -0.79071149676E+01  0.25828433597E+02  0.29701204119E+02  0.00000000000E+00 0.  1.
</event>
<event>
 5    1  0.8902899E-005  0.9118800E+02  0.7818608E-02  0.1130116E+00
         25   -1    0    0    0    0  0.00000000000E+00  0.00000000000E+00  0.99999998245E-14  0.12500000000E+03  0.12500000000E+03 0.  0.
        -11    1    3    3    0    0 -0.73569938676E+01 -0.60425958966E+02  0.16955504488E+01  0.60895786121E+02  0.51100000000E-03 0. -1.
         23    2    1    0    0    0  0.24355385935E+01 -0.27875433315E+02  0.88893459185E+01  0.95640297998E+02  0.91022384607E+02 0.  0.
         11    1    3    3    0    0  0.97925324611E+01  0.32550525650E+02  0.71937954696E+01  0.34744511878E+02  0.51100000000E-03 0.  1.
         22    1    1    0    0    0 -0.24355385935E+01  0.27875433315E+02 -0.88893459185E+01  0.29359702002E+02  0.00000000000E+00 0. -1.
</event>
<event>
 5    1  0.8902899E-005  0.9118800E+02  0.7818608E-02  0.1130116E+00
         25   -1    0    0    0    0  0.00000000000E+00  0.00000000000E+00  0.99999998245E-14  0.12500000000E+03  0.12500000000E+03 0.  0.
        -11    1    3    3    0    0  0.18823644193E+02 -0.33352008025E+02  0.21504760362E+02  0.43921984683E+02  0.51100000000E-03 0.  1.
         23    2    1    0    0    0 -0.25849087880E+02 -0.12406205868E+02  0.10435699526E+02  0.94487820253E+02  0.89425695767E+02 0.  0.
         11    1    3    3    0    0 -0.44672732073E+02  0.20945802157E+02 -0.11069060836E+02  0.50565835570E+02  0.51100000000E-03 0. -1.
         22    1    1    0    0    0  0.25849087880E+02  0.12406205868E+02 -0.10435699526E+02  0.30512179747E+02  0.00000000000E+00 0. -1.
</event>
<event>
 5    1  0.8902899E-005  0.9118800E+02  0.7818608E-02  0.1130116E+00
         25   -1    0    0    0    0  0.00000000000E+00  0.00000000000E+00  0.99999998245E-14  0.12500000000E+03  0.12500000000E+03 0.  0.
        -11    1    3    3    0    0  0.22128337961E+02  0.25502884155E+02 -0.18140175153E+02  0.38329184650E+02  0.51100000000E-03 0.  1.
         23    2    1    0    0    0 -0.28961906286E+02  0.37264321283E+01 -0.69710497387E+01  0.94978776731E+02  0.90109345701E+02 0.  0.
         11    1    3    3    0    0 -0.51090244247E+02 -0.21776452027E+02  0.11169125414E+02  0.56649592080E+02  0.51100000000E-03 0. -1.
         22    1    1    0    0    0  0.28961906286E+02 -0.37264321283E+01  0.69710497387E+01  0.30021223269E+02  0.00000000000E+00 0. -1.
</event>
<event>
 4    1  0.8902899E-005  0.9118800E+02  0.7818608E-02  0.1130116E+00
         25   -1    0    0    0    0  0.00000000000E+00  0.00000000000E+00  0.99999998245E-14  0.12500000000E+03  0.12500000000E+03 0.  0.
        -11    1    1    0    0    0  0.27115919100E+02  0.13803263144E+02  0.58936310296E+01  0.30992547960E+02  0.51100000000E-03 0.  1.
         11    1    1    0    0    0  0.10444204995E+02  0.29278632687E+02  0.13163718876E+02  0.33758010085E+02  0.51100000000E-03 0. -1.
         22    1    1    0    0    0 -0.37560124095E+02 -0.43081895831E+02 -0.19057349906E+02  0.60249441955E+02  0.00000000000E+00 0.  1.
</event>
<event>
 5    1  0.8902899E-005  0.9118800E+02  0.7818608E-02  0.1130116E+00
         25   -1    0    0    0    0  0.00000000000E+00  0.00000000000E+00  0.99999998245E-14  0.12500000000E+03  0.12500000000E+03 0.  0.
        -11    1    3    3    0    0 -0.28078511439E+02  0.26345994248E+02 -0.15835754906E+02  0.41632743739E+02  0.51100000000E-03 0.  1.
         23    2    1    0    0    0 -0.23556739629E+01 -0.21882092932E+02 -0.18343586946E+02  0.96349304146E+02  0.91990901922E+02 0.  0.
         11    1    3    3    0    0  0.25722837476E+02 -0.48228087180E+02 -0.25078320402E+01  0.54716560406E+02  0.51100000000E-03 0. -1.
         22    1    1    0    0    0  0.23556739629E+01  0.21882092932E+02  0.18343586946E+02  0.28650695854E+02  0.00000000000E+00 0.  1.
</event>
<event>
 5    1  0.8902899E-005  0.9118800E+02  0.7818608E-02  0.1130116E+00
         25   -1    0    0    0    0  0.00000000000E+00  0.00000000000E+00  0.99999998245E-14  0.12500000000E+03  0.12500000000E+03 0.  0.
        -11    1    3    3    0    0 -0.48571687080E+01  0.46379529205E+02  0.67801364126E+01  0.47123487426E+02  0.51100000000E-03 0. -1.
         23    2    1    0    0    0 -0.47598424234E+01  0.15497901081E+02 -0.27384154123E+02  0.93176534839E+02  0.87573590253E+02 0.  0.
         11    1    3    3    0    0  0.97326284591E-01 -0.30881628124E+02 -0.34164290536E+02  0.46053047413E+02  0.51100000000E-03 0.  1.
         22    1    1    0    0    0  0.47598424234E+01 -0.15497901081E+02  0.27384154123E+02  0.31823465161E+02  0.00000000000E+00 0. -1.
</event>
<event>
 5    1  0.8902899E-005  0.9118800E+02  0.7818608E-02  0.1130116E+00
         25   -1    0    0    0    0  0.00000000000E+00  0.00000000000E+00  0.99999998245E-14  0.12500000000E+03  0.12500000000E+03 0.  0.
        -11    1    3    3    0    0  0.10513275586E+02  0.24638397752E+02  0.19686122722E+02  0.33243390853E+02  0.51100000000E-03 0. -1.
         23    2    1    0    0    0  0.96588431117E+00 -0.24209732335E+02 -0.17278796231E+02  0.95240953117E+02  0.90472306697E+02 0.  0.
         11    1    3    3    0    0 -0.95473912751E+01 -0.48848130087E+02 -0.36964918952E+02  0.61997562263E+02  0.51100000000E-03 0.  1.
         22    1    1    0    0    0 -0.96588431117E+00  0.24209732335E+02  0.17278796231E+02  0.29759046883E+02  0.00000000000E+00 0.  1.
</event>
<event>
 5    1  0.8902899E-005  0.9118800E+02  0.7818608E-02  0.1130116E+00
         25   -1    0    0    0    0  0.00000000000E+00  0.00000000000E+00  0.99999998245E-14  0.12500000000E+03  0.12500000000E+03 0.  0.
        -11    1    3    3    0    0  0.12381278195E+02 -0.54349053939E+02  0.27469693964E+02  0.62142576391E+02  0.51100000000E-03 0.  1.
         23    2    1    0    0    0  0.54389370819E+01 -0.30419297874E+02  0.10201447582E+02  0.92457946400E+02  0.86541819949E+02 0.  0.
         11    1    3    3    0    0 -0.69423411127E+01  0.23929756064E+02 -0.17268246382E+02  0.30315370009E+02  0.51100000000E-03 0. -1.
         22    1    1    0    0    0 -0.54389370819E+01  0.30419297874E+02 -0.10201447582E+02  0.32542053600E+02  0.00000000000E+00 0.  1.
</event>
<event>
 5    1  0.8902899E-005  0.9118800E+02  0.7818608E-02  0.1130116E+00
         25   -1    0    0    0    0  0.00000000000E+00  0.00000000000E+00  0.99999998245E-14  0.12500000000E+03  0.12500000000E+03 0.  0.
        -11    1    3    3    0    0  0.62376597623E+01 -0.41266105164E+02  0.38154997000E+02  0.56547357418E+02  0.51100000000E-03 0.  1.
         23    2    1    0    0    0  0.14777433734E+01 -0.25837509949E+02 -0.12069140676E+01  0.99092138502E+02  0.95645358619E+02 0.  0.
         11    1    3    3    0    0 -0.47599163889E+01  0.15428595214E+02 -0.39361911067E+02  0.42544781083E+02  0.51100000000E-03 0. -1.
         22    1    1    0    0    0 -0.14777433734E+01  0.25837509949E+02  0.12069140676E+01  0.25907861498E+02  0.00000000000E+00 0.  1.
</event>
<event>
 5    1  0.8902899E-005  0.9118800E+02  0.7818608E-02  0.1130116E+00
         25   -1    0    0    0    0  0.00000000000E+00  0.00000000000E+00  0.99999998245E-14  0.12500000000E+03  0.12500000000E+03 0.  0.
        -11    1    3    3    0    0  0.36710183055E+02  0.66128755887E+01 -0.19830982309E+02  0.42244946716E+02  0.51100000000E-03 0. -1.
         23    2    1    0    0    0 -0.86524906403E+01 -0.21786771978E+02 -0.17375665366E+02  0.95820507640E+02  0.91269528923E+02 0.  0.
         11    1    3    3    0    0 -0.45362673695E+02 -0.28399647567E+02  0.24553169430E+01  0.53575560923E+02  0.51100000000E-03 0.  1.
         22    1    1    0    0    0  0.86524906403E+01  0.21786771978E+02  0.17375665366E+02  0.29179492360E+02  0.00000000000E+00 0.  1.
</event>
<event>
 5    1  0.8902899E-005  0.9118800E+02  0.7818608E-02  0.1130116E+00
         25   -1    0    0    0    0  0.00000000000E+00  0.00000000000E+00  0.99999998245E-14  0.12500000000E+03  0.12500000000E+03 0.  0.
        -11    1    3    3    0    0  0.18046175639E+02  0.49933632323E+01 -0.53695804893E+02  0.56866840909E+02  0.51100000000E-03 0.  1.
         23    2    1    0    0    0  0.10530914450E+02 -0.16256395674E+02 -0.23530465465E+02  0.94522904265E+02  0.89474723057E+02 0.  0.
         11    1    3    3    0    0 -0.75152611894E+01 -0.21249758907E+02  0.30165339429E+02  0.37656063355E+02  0.51100000000E-03 0. -1.
         22    1    1    0    0    0 -0.10530914450E+02  0.16256395674E+02  0.23530465465E+02  0.30477095735E+02  0.00000000000E+00 0.  1.
</event>
<event>
 5    1  0.8902899E-005  0.9118800E+02  0.7818608E-02  0.1130116E+00
         25   -1    0    0    0    0  0.00000000000E+00  0.00000000000E+00  0.99999998245E-14  0.12500000000E+03  0.12500000000E+03 0.  0.
        -11    1    3    3    0    0 -0.63220834045E+01  0.27962482973E+02  0.40502939000E+02  0.49622144860E+02  0.51100000000E-03 0.  1.
         23    2    1    0    0    0 -0.19092670974E+02 -0.10515230761E+02  0.21454603943E+02  0.94415687138E+02  0.89324810576E+02 0.  0.
         11    1    3    3    0    0 -0.12770587570E+02 -0.38477713734E+02 -0.19048335057E+02  0.44793542278E+02  0.51100000000E-03 0. -1.
         22    1    1    0    0    0  0.19092670974E+02  0.10515230761E+02 -0.21454603943E+02  0.30584312862E+02  0.00000000000E+00 0. -1.
</event>
<event>
 5    1  0.8902899E-005  0.9118800E+02  0.7818608E-02  0.1130116E+00
         25   -1    0    0    0    0  0.00000000000E+00  0.00000000000E+00  0.99999998245E-14  0.12500000000E+03  0.12500000000E+03 0.  0.
        -11    1    3    3    0    0 -0.23786179461E+02 -0.47176208442E+02 -0.13186315226E+02  0.54454163163E+02  0.51100000000E-03 0. -1.
         23    2    1    0    0    0  0.11043989638E+01 -0.24451645130E+02  0.13138315340E+02  0.97220187607E+02  0.93166769300E+02 0.  0.
         11    1    3    3    0    0  0.24890578425E+02  0.22724563312E+02  0.26324630566E+02  0.42766024444E+02  0.51100000000E-03 0.  1.
         22    1    1    0    0    0 -0.11043989638E+01  0.24451645130E+02 -0.13138315340E+02  0.27779812393E+02  0.00000000000E+00 0. -1.
</event>
<event>
 5    1  0.8902899E-005  0.9118800E+02  0.7818608E-02  0.1130116E+00
         25   -1    0    0    0    0  0.00000000000E+00  0.00000000000E+00  0.99999998245E-14  0.12500000000E+03  0.12500000000E+03 0.  0.
        -11    1    3    3    0    0  0.65682437995E+01 -0.78579938923E+01  0.37987330421E+02  0.39343705563E+02  0.51100000000E-03 0. -1.
         23    2    1    0    0    0  0.24999934538E+02  0.97726878551E+00 -0.14786882882E+02  0.95937933891E+02  0.91430210941E+02 0.  0.
         11    1    3    3    0    0  0.18431690738E+02  0.88352626778E+01 -0.52774213303E+02  0.56594228328E+02  0.51100000000E-03 0.  1.
         22    1    1    0    0    0 -0.24999934538E+02 -0.97726878551E+00  0.14786882882E+02  0.29062066109E+02  0.00000000000E+00 0.  1.
</event>
<event>
 5    1  0.8902899E-005  0.9118800E+02  0.7818608E-02  0.1130116E+00
         25   -1    0    0    0    0  0.00000000000E+00  0.00000000000E+00  0.99999998245E-14  0.12500000000E+03  0.12500000000E+03 0.  0.
        -11    1    3    3    0    0  0.56420753945E+02 -0.56324076506E+00 -0.25581939438E+02  0.61952032586E+02  0.51100000000E-03 0.  1.
         23    2    1    0    0    0  0.23073553903E+02 -0.27894891340E+01 -0.16214240548E+02  0.96661479646E+02  0.92414121818E+02 0.  0.
         11    1    3    3    0    0 -0.33347200042E+02 -0.22262483689E+01  0.93676988905E+01  0.34709447060E+02  0.51100000000E-03 0. -1.
         22    1    1    0    0    0 -0.23073553903E+02  0.27894891340E+01  0.16214240548E+02  0.28338520354E+02  0.00000000000E+00 0.  1.
</event>
<event>
 5    1  0.8902899E-005  0.9118800E+02  0.7818608E-02  0.1130116E+00
         25   -1    0    0    0    0  0.00000000000E+00  0.00000000000E+00  0.99999998245E-14  0.12500000000E+03  0.12500000000E+03 0.  0.
        -11    1    3    3    0    0 -0.33731242647E+02  0.52114661852E+02  0.10065610764E+00  0.62078537696E+02  0.51100000000E-03 0. -1.
         23    2    1    0    0    0 -0.16191640713E+02  0.24505032905E+02 -0.50699428585E+01  0.95194460460E+02  0.90408047845E+02 0.  0.
         11    1    3    3    0    0  0.17539601934E+02 -0.27609628947E+02 -0.51705989661E+01  0.33115922765E+02  0.51100000000E-03 0.  1.
         22    1    1    0    0    0  0.16191640713E+02 -0.24505032905E+02  0.50699428585E+01  0.29805539540E+02  0.00000000000E+00 0. -1.
</event>
<event>
 5    1  0.8902899E-005  0.9118800E+02  0.7818608E-02  0.1130116E+00
         25   -1    0    0    0    0  0.00000000000E+00  0.00000000000E+00  0.99999998245E-14  0.12500000000E+03  0.12500000000E+03 0.  0.
        -11    1    3    3    0    0 -0.29775319065E+02 -0.18539557578E+02 -0.38119166901E+02  0.51801116842E+02  0.51100000000E-03 0.  1.
         23    2    1    0    0    0 -0.63205477737E+01  0.15512459436E+02 -0.24474056411E+02  0.95342536198E+02  0.90612549073E+02 0.  0.
         11    1    3    3    0    0  0.23454771291E+02  0.34052017014E+02  0.13645110490E+02  0.43541419356E+02  0.51100000000E-03 0. -1.
         22    1    1    0    0    0  0.63205477737E+01 -0.15512459436E+02  0.24474056411E+02  0.29657463802E+02  0.00000000000E+00 0.  1.
</event>
<event>
 5    1  0.8902899E-005  0.9118800E+02  0.7818608E-02  0.1130116E+00
         25   -1    0    0    0    0  0.00000000000E+00  0.00000000000E+00  0.99999998245E-14  0.12500000000E+03  0.12500000000E+03 0.  0.
        -11    1    3    3    0    0  0.18396081073E+02  0.55488236104E+02 -0.10869104993E+01  0.58468294993E+02  0.51100000000E-03 0. -1.
         23    2    1    0    0    0  0.17083107368E+02  0.22499444838E+02 -0.13436631870E+02  0.93717406575E+02  0.88342241560E+02 0.  0.
         11    1    3    3    0    0 -0.13129737051E+01 -0.32988791266E+02 -0.12349721370E+02  0.35249111582E+02  0.51100000000E-03 0.  1.
         22    1    1    0    0    0 -0.17083107368E+02 -0.22499444838E+02  0.13436631870E+02  0.31282593425E+02  0.00000000000E+00 0. -1.
</event>
<event>
 5    1  0.8902899E-005  0.9118800E+02  0.7818608E-02  0.1130116E+00
         25   -1    0    0    0    0  0.00000000000E+00  0.00000000000E+00  0.99999998245E-14  0.12500000000E+03  0.12500000000E+03 0.  0.
        -11    1    3    3    0    0  0.52667442965E+01 -0.81697205169E+00  0.60422959532E+02  0.60657564060E+02  0.51100000000E-03 0.  1.
         23    2    1    0    0    0  0.77894499985E+01 -0.97421100112E+01  0.28745084995E+02  0.93665288415E+02  0.88268466078E+02 0.  0.
         11    1    3    3    0    0  0.25227057019E+01 -0.89251379595E+01 -0.31677874537E+02  0.33007724355E+02  0.51100000000E-03 0. -1.
         22    1    1    0    0    0 -0.77894499985E+01  0.97421100112E+01 -0.28745084995E+02  0.31334711585E+02  0.00000000000E+00 0.  1.
</event>
<event>
 5    1  0.8902899E-005  0.9118800E+02  0.7818608E-02  0.1130116E+00
         25   -1    0    0    0    0  0.00000000000E+00  0.00000000000E+00  0.99999998245E-14  0.12500000000E+03  0.12500000000E+03 0.  0.
        -11    1    3    3    0    0  0.49412666338E+02  0.16314554118E+02 -0.37202763339E+01  0.52169116601E+02  0.51100000000E-03 0.  1.
         23    2    1    0    0    0  0.82755993751E+01  0.28602793984E+02 -0.24939353271E+01  0.95119821250E+02  0.90304791193E+02 0.  0.
         11    1    3    3    0    0 -0.41137066963E+02  0.12288239866E+02  0.12263410068E+01  0.42950704649E+02  0.51100000000E-03 0. -1.
         22    1    1    0    0    0 -0.82755993751E+01 -0.28602793984E+02  0.24939353271E+01  0.29880178750E+02  0.00000000000E+00 0.  1.
</event>
<event>
 5    1  0.8902899E-005  0.9118800E+02  0.7818608E-02  0.1130116E+00
         25   -1    0    0    0    0  0.00000000000E+00  0.00000000000E+00  0.99999998245E-14  0.12500000000E+03  0.12500000000E+03 0.  0.
        -11    1    3    3    0    0 -0.14802962429E+02 -0.38990136867E+02  0.16793659884E+02  0.44959820753E+02  0.51100000000E-03 0. -1.
         23    2    1    0    0    0  0.23950385864E+02 -0.15969198673E+02 -0.61890116164E+01  0.95556152525E+02  0.90906755147E+02 0.  0.
         11    1    3    3    0    0  0.38753348294E+02  0.23020938194E+02 -0.22982671500E+02  0.50596331773E+02  0.51100000000E-03 0.  1.
         22    1    1    0    0    0 -0.23950385864E+02  0.15969198673E+02  0.61890116164E+01  0.29443847475E+02  0.00000000000E+00 0.  1.
</event>
<event>
 5    1  0.8902899E-005  0.9118800E+02  0.7818608E-02  0.1130116E+00
         25   -1    0    0    0    0  0.00000000000E+00  0.00000000000E+00  0.99999998245E-14  0.12500000000E+03  0.12500000000E+03 0.  0.
        -11    1    3    3    0    0 -0.14801230811E+02 -0.24201848874E+01  0.43466560257E+02  0.45981252585E+02  0.51100000000E-03 0.  1.
         23    2    1    0    0    0 -0.29612114994E+02  0.20302271196E+02  0.12893518283E+02  0.86851574294E+02  0.78024954812E+02 0.  0.
         11    1    3    3    0    0 -0.14810884184E+02  0.22722456084E+02 -0.30573041974E+02  0.40870321709E+02  0.51100000000E-03 0. -1.
         22    1    1    0    0    0  0.29612114994E+02 -0.20302271196E+02 -0.12893518283E+02  0.38148425706E+02  0.00000000000E+00 0. -1.
</event>
<event>
 5    1  0.8902899E-005  0.9118800E+02  0.7818608E-02  0.1130116E+00
         25   -1    0    0    0    0  0.00000000000E+00  0.00000000000E+00  0.99999998245E-14  0.12500000000E+03  0.12500000000E+03 0.  0.
        -11    1    3    3    0    0  0.44323581448E+02 -0.15694910467E+02  0.43424709245E+01  0.47220410216E+02  0.51100000000E-03 0.  1.
         23    2    1    0    0    0  0.43137093309E+01 -0.15606693923E+02  0.27233963635E+02  0.93316159345E+02  0.87772659958E+02 0.  0.
         11    1    3    3    0    0 -0.40009872117E+02  0.88216543855E-01  0.22891492711E+02  0.46095749129E+02  0.51100000000E-03 0. -1.
         22    1    1    0    0    0 -0.43137093309E+01  0.15606693923E+02 -0.27233963635E+02  0.31683840655E+02  0.00000000000E+00 0. -1.
</event>
<event>
 5    1  0.8902899E-005  0.9118800E+02  0.7818608E-02  0.1130116E+00
         25   -1    0    0    0    0  0.00000000000E+00  0.00000000000E+00  0.99999998245E-14  0.12500000000E+03  0.12500000000E+03 0.  0.
        -11    1    3    3    0    0 -0.30964101506E+02 -0.95322394243E+01  0.24653203691E+02  0.40711418828E+02  0.51100000000E-03 0. -1.
         23    2    1    0    0    0  0.24441291147E+02 -0.54339251768E+01  0.71166218602E+01  0.98970198571E+02  0.95485860957E+02 0.  0.
         11    1    3    3    0    0  0.55405392652E+02  0.40983142475E+01 -0.17536581831E+02  0.58258779743E+02  0.51100000000E-03 0.  1.
         22    1    1    0    0    0 -0.24441291147E+02  0.54339251768E+01 -0.71166218602E+01  0.26029801429E+02  0.00000000000E+00 0.  1.
</event>
<event>
 5    1  0.8902899E-005  0.9118800E+02  0.7818608E-02  0.1130116E+00
         25   -1    0    0    0    0  0.00000000000E+00  0.00000000000E+00  0.99999998245E-14  0.12500000000E+03  0.12500000000E+03 0.  0.
        -11    1    3    3    0    0  0.29755129716E+02 -0.51205161132E+02  0.12899092182E+02  0.60611243597E+02  0.51100000000E-03 0. -1.
         23    2    1    0    0    0  0.38309770867E+01 -0.23612698214E+02  0.11399399828E+02  0.98501278921E+02  0.94870014917E+02 0.  0.
         11    1    3    3    0    0 -0.25924152629E+02  0.27592462918E+02 -0.14996923539E+01  0.37890035324E+02  0.51100000000E-03 0.  1.
         22    1    1    0    0    0 -0.38309770867E+01  0.23612698214E+02 -0.11399399828E+02  0.26498721079E+02  0.00000000000E+00 0. -1.
</event>
<event>
 5    1  0.8902899E-005  0.9118800E+02  0.7818608E-02  0.1130116E+00
         25   -1    0    0    0    0  0.00000000000E+00  0.00000000000E+00  0.99999998245E-14  0.12500000000E+03  0.12500000000E+03 0.  0.
        -11    1    3    3    0    0  0.24723613900E+02 -0.54418759076E+00  0.28118767407E+02  0.37446205484E+02  0.51100000000E-03 0.  1.
         23    2    1    0    0    0 -0.28516596117E+02 -0.36452263033E+01  0.40093119736E+01  0.95973141551E+02  0.91478332887E+02 0.  0.
         11    1    3    3    0    0 -0.53240210018E+02 -0.31010387126E+01 -0.24109455433E+02  0.58526936067E+02  0.51100000000E-03 0. -1.
         22    1    1    0    0    0  0.28516596117E+02  0.36452263033E+01 -0.40093119736E+01  0.29026858449E+02  0.00000000000E+00 0. -1.
</event>
<event>
 5    1  0.8902899E-005  0.9118800E+02  0.7818608E-02  0.1130116E+00
         25   -1    0    0    0    0  0.00000000000E+00  0.00000000000E+00  0.99999998245E-14  0.12500000000E+03  0.12500000000E+03 0.  0.
        -11    1    3    3    0    0 -0.28831419980E+02  0.16194569558E+02 -0.44705920168E+01  0.33369163227E+02  0.51100000000E-03 0.  1.
         23    2    1    0    0    0  0.21076391482E+02 -0.20143199021E+02 -0.64697888755E+01  0.95136629246E+02  0.90328053846E+02 0.  0.
         11    1    3    3    0    0  0.49907811462E+02 -0.36337768578E+02 -0.19991968587E+01  0.61767466020E+02  0.51100000000E-03 0. -1.
         22    1    1    0    0    0 -0.21076391482E+02  0.20143199021E+02  0.64697888755E+01  0.29863370754E+02  0.00000000000E+00 0. -1.
</event>
<event>
 5    1  0.8902899E-005  0.9118800E+02  0.7818608E-02  0.1130116E+00
         25   -1    0    0    0    0  0.00000000000E+00  0.00000000000E+00  0.99999998245E-14  0.12500000000E+03  0.12500000000E+03 0.  0.
        -11    1    3    3    0    0  0.26759636734E+02  0.14686522094E+02 -0.96934132943E+01  0.32027087768E+02  0.51100000000E-03 0. -1.
         23    2    1    0    0    0 -0.79937531721E+01 -0.30554992991E+02  0.91674628928E+01  0.92113071558E+02  0.86042244795E+02 0.  0.
         11    1    3    3    0    0 -0.34753389906E+02 -0.45241515085E+02  0.18860876187E+02  0.60085983790E+02  0.51100000000E-03 0.  1.
         22    1    1    0    0    0  0.79937531721E+01  0.30554992991E+02 -0.91674628928E+01  0.32886928442E+02  0.00000000000E+00 0.  1.
</event>
<event>
 5    1  0.8902899E-005  0.9118800E+02  0.7818608E-02  0.1130116E+00
         25   -1    0    0    0    0  0.00000000000E+00  0.00000000000E+00  0.99999998245E-14  0.12500000000E+03  0.12500000000E+03 0.  0.
        -11    1    3    3    0    0  0.96539572818E+01  0.29979119536E+01 -0.36603789976E+02  0.37973988574E+02  0.51100000000E-03 0.  1.
         23    2    1    0    0    0  0.17075234688E+02  0.10591982013E+01  0.22029930328E+02  0.97107288214E+02  0.93015171094E+02 0.  0.
         11    1    3    3    0    0  0.74212774066E+01 -0.19387137524E+01  0.58633720305E+02  0.59133299641E+02  0.51100000000E-03 0. -1.
         22    1    1    0    0    0 -0.17075234688E+02 -0.10591982013E+01 -0.22029930328E+02  0.27892711786E+02  0.00000000000E+00 0. -1.
</event>
<event>
 5    1  0.8902899E-005  0.9118800E+02  0.7818608E-02  0.1130116E+00
         25   -1    0    0    0    0  0.00000000000E+00  0.00000000000E+00  0.99999998245E-14  0.12500000000E+03  0.12500000000E+03 0.  0.
        -11    1    3    3    0    0  0.18314343785E+02  0.43673633100E+02 -0.31405974580E+02  0.56825493012E+02  0.51100000000E-03 0. -1.
         23    2    1    0    0    0  0.19290486057E+01  0.29557730941E+02  0.50536832114E+00  0.95375076640E+02  0.90657427495E+02 0.  0.
         11    1    3    3    0    0 -0.16385295179E+02 -0.14115902159E+02  0.31911342902E+02  0.38549583628E+02  0.51100000000E-03 0.  1.
         22    1    1    0    0    0 -0.19290486057E+01 -0.29557730941E+02 -0.50536832114E+00  0.29624923360E+02  0.00000000000E+00 0. -1.
</event>
<event>
 5    1  0.8902899E-005  0.9118800E+02  0.7818608E-02  0.1130116E+00
         25   -1    0    0    0    0  0.00000000000E+00  0.00000000000E+00  0.99999998245E-14  0.12500000000E+03  0.12500000000E+03 0.  0.
        -11    1    3    3    0    0 -0.83212727564E+01  0.99042435608E+00 -0.60412358738E+02  0.60990799382E+02  0.51100000000E-03 0. -1.
         23    2    1    0    0    0 -0.11159081621E+02 -0.53376233617E+01 -0.24639463121E+02  0.97429753924E+02  0.93447517255E+02 0.  0.
         11    1    3    3    0    0 -0.28378088646E+01 -0.63280477178E+01  0.35772895617E+02  0.36438954542E+02  0.51100000000E-03 0.  1.
         22    1    1    0    0    0  0.11159081621E+02  0.53376233617E+01  0.24639463121E+02  0.27570246076E+02  0.00000000000E+00 0. -1.
</event>
<event>
 5    1  0.8902899E-005  0.9118800E+02  0.7818608E-02  0.1130116E+00
         25   -1    0    0    0    0  0.00000000000E+00  0.00000000000E+00  0.99999998245E-14  0.12500000000E+03  0.12500000000E+03 0.  0.
        -11    1    3    3    0    0  0.18844847534E+02 -0.18323853254E+02  0.25298572635E+02  0.36481634480E+02  0.51100000000E-03 0.  1.
         23    2    1    0    0    0 -0.54810285827E+01  0.28465423361E+02 -0.21491458048E+01  0.95932134080E+02  0.91422281311E+02 0.  0.
         11    1    3    3    0    0 -0.24325876117E+02  0.46789276615E+02 -0.27447718440E+02  0.59450499601E+02  0.51100000000E-03 0. -1.
         22    1    1    0    0    0  0.54810285827E+01 -0.28465423361E+02  0.21491458048E+01  0.29067865920E+02  0.00000000000E+00 0. -1.
</event>
<event>
 5    1  0.8902899E-005  0.9118800E+02  0.7818608E-02  0.1130116E+00
         25   -1    0    0    0    0  0.00000000000E+00  0.00000000000E+00  0.99999998245E-14  0.12500000000E+03  0.12500000000E+03 0.  0.
        -11    1    3    3    0    0 -0.10003004057E+02  0.51272933289E+02  0.26286728572E+02  0.58480474327E+02  0.51100000000E-03 0.  1.
         23    2    1    0    0    0  0.96723553057E+00  0.30426812776E+02 -0.10161068277E+01  0.94540864205E+02  0.89499810343E+02 0.  0.
         11    1    3    3    0    0  0.10970239588E+02 -0.20846120513E+02 -0.27302835399E+02  0.36060389878E+02  0.51100000000E-03 0. -1.
         22    1    1    0    0    0 -0.96723553057E+00 -0.30426812776E+02  0.10161068277E+01  0.30459135795E+02  0.00000000000E+00 0.  1.
</event>
<event>
 5    1  0.8902899E-005  0.9118800E+02  0.7818608E-02  0.1130116E+00
         25   -1    0    0    0    0  0.00000000000E+00  0.00000000000E+00  0.99999998245E-14  0.12500000000E+03  0.12500000000E+03 0.  0.
        -11    1    3    3    0    0 -0.94219065895E+01  0.49543262809E+01  0.47616108076E+02  0.48791509725E+02  0.51100000000E-03 0. -1.
         23    2    1    0    0    0  0.66638148931E-01  0.28248555225E+02  0.81362044245E+01  0.95603008056E+02  0.90971160342E+02 0.  0.
         11    1    3    3    0    0  0.94885447384E+01  0.23294228944E+02 -0.39479903652E+02  0.46811498331E+02  0.51100000000E-03 0.  1.
         22    1    1    0    0    0 -0.66638148931E-01 -0.28248555225E+02 -0.81362044245E+01  0.29396991944E+02  0.00000000000E+00 0. -1.
</event>
<event>
 5    1  0.8902899E-005  0.9118800E+02  0.7818608E-02  0.1130116E+00
         25   -1    0    0    0    0  0.00000000000E+00  0.00000000000E+00  0.99999998245E-14  0.12500000000E+03  0.12500000000E+03 0.  0.
        -11    1    3    3    0    0  0.27289508393E+01 -0.62878615179E+01  0.53536573792E+02  0.53973596404E+02  0.51100000000E-03 0.  1.
         23    2    1    0    0    0 -0.17623316403E+02  0.10210280170E+02  0.21029157836E+02  0.95724471286E+02  0.91137905514E+02 0.  0.
         11    1    3    3    0    0 -0.20352267243E+02  0.16498141688E+02 -0.32507415956E+02  0.41750874882E+02  0.51100000000E-03 0. -1.
         22    1    1    0    0    0  0.17623316403E+02 -0.10210280170E+02 -0.21029157836E+02  0.29275528714E+02  0.00000000000E+00 0. -1.
</event>
<event>
 5    1  0.8902899E-005  0.9118800E+02  0.7818608E-02  0.1130116E+00
         25   -1    0    0    0    0  0.00000000000E+00  0.00000000000E+00  0.99999998245E-14  0.12500000000E+03  0.12500000000E+03 0.  0.
        -11    1    3    3    0    0 -0.49142400095E+02 -0.24150273541E+02 -0.13031227731E+02  0.56285203168E+02  0.51100000000E-03 0. -1.
         23    2    1    0    0    0 -0.21173518956E+02  0.13869017406E+01  0.10959668805E+02  0.10111787820E+03  0.98257160297E+02 0.  0.
         11    1    3    3    0    0  0.27968881138E+02  0.25537175281E+02  0.23990896537E+02  0.44832675031E+02  0.51100000000E-03 0.  1.
         22    1    1    0    0    0  0.21173518956E+02 -0.13869017406E+01 -0.10959668805E+02  0.23882121802E+02  0.00000000000E+00 0. -1.
</event>
<event>
 5    1  0.8902899E-005  0.9118800E+02  0.7818608E-02  0.1130116E+00
         25   -1    0    0    0    0  0.00000000000E+00  0.00000000000E+00  0.99999998245E-14  0.12500000000E+03  0.12500000000E+03 0.  0.
        -11    1    3    3    0    0  0.49228080993E+02 -0.32752830180E+02  0.13715326567E+02  0.60698122098E+02  0.51100000000E-03 0.  1.
         23    2    1    0    0    0  0.25641033027E+02 -0.12775842620E+02 -0.35991399031E+01  0.96127200735E+02  0.91688604438E+02 0.  0.
         11    1    3    3    0    0 -0.23587047967E+02  0.19976987559E+02 -0.17314466470E+02  0.35429078638E+02  0.51100000000E-03 0. -1.
         22    1    1    0    0    0 -0.25641033027E+02  0.12775842620E+02  0.35991399031E+01  0.28872799265E+02  0.00000000000E+00 0.  1.
</event>
<event>
 5    1  0.8902899E-005  0.9118800E+02  0.7818608E-02  0.1130116E+00
         25   -1    0    0    0    0  0.00000000000E+00  0.00000000000E+00  0.99999998245E-14  0.12500000000E+03  0.12500000000E+03 0.  0.
        -11    1    3    3    0    0 -0.35891698969E+02  0.37771603292E+02 -0.20179443990E+01  0.52143841151E+02  0.51100000000E-03 0. -1.
         23    2    1    0    0    0 -0.94503760744E+01  0.92729175338E+01 -0.24571784831E+02  0.97088188569E+02  0.92989500173E+02 0.  0.
         11    1    3    3    0    0  0.26441322895E+02 -0.28498685758E+02 -0.22553840432E+02  0.44944347418E+02  0.51100000000E-03 0.  1.
         22    1    1    0    0    0  0.94503760744E+01 -0.92729175338E+01  0.24571784831E+02  0.27911811431E+02  0.00000000000E+00 0.  1.
</event>
<event>
 5    1  0.8902899E-005  0.9118800E+02  0.7818608E-02  0.1130116E+00
         25   -1    0    0    0    0  0.00000000000E+00  0.00000000000E+00  0.99999998245E-14  0.12500000000E+03  0.12500000000E+03 0.  0.
        -11    1    3    3    0    0  0.21869177914E+02 -0.55252598970E+02  0.48187741247E+00  0.59425102790E+02  0.51100000000E-03 0.  1.
         23    2    1    0    0    0  0.90762087212E+01 -0.25586063615E+02  0.14009456920E+02  0.94450219326E+02  0.89373121415E+02 0.  0.
         11    1    3    3    0    0 -0.12792969193E+02  0.29666535354E+02  0.13527579507E+02  0.35025116535E+02  0.51100000000E-03 0. -1.
         22    1    1    0    0    0 -0.90762087212E+01  0.25586063615E+02 -0.14009456920E+02  0.30549780674E+02  0.00000000000E+00 0.  1.
</event>
<event>
 5    1  0.8902899E-005  0.9118800E+02  0.7818608E-02  0.1130116E+00
         25   -1    0    0    0    0  0.00000000000E+00  0.00000000000E+00  0.99999998245E-14  0.12500000000E+03  0.12500000000E+03 0.  0.
        -11    1    3    3    0    0 -0.18829084606E+02 -0.30314858473E+02 -0.34885311063E+01  0.35856588249E+02  0.51100000000E-03 0.  1.
         23    2    1    0    0    0  0.21063223554E+02  0.15258390468E+02 -0.10749643397E+02  0.96856924488E+02  0.92678104868E+02 0.  0.
         11    1    3    3    0    0  0.39892308159E+02  0.45573248941E+02 -0.72611122902E+01  0.61000336239E+02  0.51100000000E-03 0. -1.
         22    1    1    0    0    0 -0.21063223554E+02 -0.15258390468E+02  0.10749643397E+02  0.28143075512E+02  0.00000000000E+00 0. -1.
</event>
<event>
 5    1  0.8902899E-005  0.9118800E+02  0.7818608E-02  0.1130116E+00
         25   -1    0    0    0    0  0.00000000000E+00  0.00000000000E+00  0.99999998245E-14  0.12500000000E+03  0.12500000000E+03 0.  0.
        -11    1    3    3    0    0  0.24195420772E+02  0.30760591556E+02 -0.23108036368E+02  0.45449023359E+02  0.51100000000E-03 0. -1.
         23    2    1    0    0    0 -0.56194878602E+01  0.76111807468E+01 -0.37859769377E+02  0.85976022070E+02  0.76609434912E+02 0.  0.
         11    1    3    3    0    0 -0.29814908632E+02 -0.23149410809E+02 -0.14751733009E+02  0.40526998712E+02  0.51100000000E-03 0.  1.
         22    1    1    0    0    0  0.56194878602E+01 -0.76111807468E+01  0.37859769377E+02  0.39023977930E+02  0.00000000000E+00 0.  1.
</event>
<event>
 5    1  0.8902899E-005  0.9118800E+02  0.7818608E-02  0.1130116E+00
         25   -1    0    0    0    0  0.00000000000E+00  0.00000000000E+00  0.99999998245E-14  0.12500000000E+03  0.12500000000E+03 0.  0.
        -11    1    3    3    0    0  0.45834851142E+02  0.41033064268E+02 -0.74040084461E+01  0.61962611983E+02  0.51100000000E-03 0.  1.
         23    2    1    0    0    0  0.23202214870E+02  0.15240029803E+02 -0.73739759717E+01  0.96277590545E+02  0.91893403660E+02 0.  0.
         11    1    3    3    0    0 -0.22632636272E+02 -0.25793034465E+02  0.30032474371E-01  0.34314978562E+02  0.51100000000E-03 0. -1.
         22    1    1    0    0    0 -0.23202214870E+02 -0.15240029803E+02  0.73739759717E+01  0.28722409455E+02  0.00000000000E+00 0.  1.
</event>
<event>
 5    1  0.8902899E-005  0.9118800E+02  0.7818608E-02  0.1130116E+00
         25   -1    0    0    0    0  0.00000000000E+00  0.00000000000E+00  0.99999998245E-14  0.12500000000E+03  0.12500000000E+03 0.  0.
        -11    1    3    3    0    0 -0.16708824295E+01  0.17450495252E+02 -0.37968793570E+02  0.41820340961E+02  0.51100000000E-03 0. -1.
         23    2    1    0    0    0 -0.28809067563E+02  0.70319052639E+01  0.62069697818E+01  0.94702532459E+02  0.89725320366E+02 0.  0.
         11    1    3    3    0    0 -0.27138185134E+02 -0.10418589988E+02  0.44175763352E+02  0.52882191499E+02  0.51100000000E-03 0.  1.
         22    1    1    0    0    0  0.28809067563E+02 -0.70319052639E+01 -0.62069697818E+01  0.30297467541E+02  0.00000000000E+00 0. -1.
</event>
<event>
 5    1  0.8902899E-005  0.9118800E+02  0.7818608E-02  0.1130116E+00
         25   -1    0    0    0    0  0.00000000000E+00  0.00000000000E+00  0.99999998245E-14  0.12500000000E+03  0.12500000000E+03 0.  0.
        -11    1    3    3    0    0 -0.54048287162E+01 -0.18012420422E+02  0.56635757359E+02  0.59676364457E+02  0.51100000000E-03 0. -1.
         23    2    1    0    0    0 -0.15314180185E+02 -0.16523569205E+02  0.38908464128E+02  0.80039783866E+02  0.66218924535E+02 0.  0.
         11    1    3    3    0    0 -0.99093514685E+01  0.14888512166E+01 -0.17727293231E+02  0.20363419409E+02  0.51100000000E-03 0.  1.
         22    1    1    0    0    0  0.15314180185E+02  0.16523569205E+02 -0.38908464128E+02  0.44960216134E+02  0.00000000000E+00 0. -1.
</event>
<event>
 5    1  0.8902899E-005  0.9118800E+02  0.7818608E-02  0.1130116E+00
         25   -1    0    0    0    0  0.00000000000E+00  0.00000000000E+00  0.99999998245E-14  0.12500000000E+03  0.12500000000E+03 0.  0.
        -11    1    3    3    0    0 -0.16736784339E+02 -0.34735648860E+02  0.22941855177E+02  0.44866624243E+02  0.51100000000E-03 0. -1.
         23    2    1    0    0    0 -0.21589811388E+02 -0.61165947447E+01 -0.18811300098E+02  0.95718645892E+02  0.91129915357E+02 0.  0.
         11    1    3    3    0    0 -0.48530270482E+01  0.28619054115E+02 -0.41753155276E+02  0.50852021648E+02  0.51100000000E-03 0.  1.
         22    1    1    0    0    0  0.21589811388E+02  0.61165947447E+01  0.18811300098E+02  0.29281354108E+02  0.00000000000E+00 0.  1.
</event>
<event>
 5    1  0.8902899E-005  0.9118800E+02  0.7818608E-02  0.1130116E+00
         25   -1    0    0    0    0  0.00000000000E+00  0.00000000000E+00  0.99999998245E-14  0.12500000000E+03  0.12500000000E+03 0.  0.
        -11    1    3    3    0    0 -0.38822949060E+02 -0.25132162102E+01 -0.29091223398E+02  0.48578152584E+02  0.51100000000E-03 0.  1.
         23    2    1    0    0    0 -0.28884543604E+02 -0.27550533677E+02 -0.49005050354E+01  0.84783539256E+02  0.74638360205E+02 0.  0.
         11    1    3    3    0    0  0.99384054555E+01 -0.25037317467E+02  0.24190718362E+02  0.36205386672E+02  0.51100000000E-03 0. -1.
         22    1    1    0    0    0  0.28884543604E+02  0.27550533677E+02  0.49005050354E+01  0.40216460744E+02  0.00000000000E+00 0. -1.
</event>
<event>
 5    1  0.8902899E-005  0.9118800E+02  0.7818608E-02  0.1130116E+00
         25   -1    0    0    0    0  0.00000000000E+00  0.00000000000E+00  0.99999998245E-14  0.12500000000E+03  0.12500000000E+03 0.  0.
        -11    1    3    3    0    0 -0.49423800887E+02 -0.29523935152E+02  0.21564071986E+02  0.61476695112E+02  0.51100000000E-03 0.  1.
         23    2    1    0    0    0 -0.27188010191E+02 -0.10887292404E+02  0.38726182389E+01  0.95458195619E+02  0.90771961006E+02 0.  0.
         11    1    3    3    0    0  0.22235790696E+02  0.18636642748E+02 -0.17691453747E+02  0.33981500508E+02  0.51100000000E-03 0. -1.
         22    1    1    0    0    0  0.27188010191E+02  0.10887292404E+02 -0.38726182389E+01  0.29541804381E+02  0.00000000000E+00 0.  1.
</event>
<event>
 5    1  0.8902899E-005  0.9118800E+02  0.7818608E-02  0.1130116E+00
         25   -1    0    0    0    0  0.00000000000E+00  0.00000000000E+00  0.99999998245E-14  0.12500000000E+03  0.12500000000E+03 0.  0.
        -11    1    3    3    0    0 -0.39840550194E+02 -0.17205484741E+02  0.15142513125E+01  0.43423393490E+02  0.51100000000E-03 0. -1.
         23    2    1    0    0    0  0.38979515206E+01 -0.59700922150E+01  0.28223838045E+02  0.95889502562E+02  0.91363973428E+02 0.  0.
         11    1    3    3    0    0  0.43738501715E+02  0.11235392526E+02  0.26709586732E+02  0.52466109072E+02  0.51100000000E-03 0.  1.
         22    1    1    0    0    0 -0.38979515206E+01  0.59700922150E+01 -0.28223838045E+02  0.29110497438E+02  0.00000000000E+00 0.  1.
</event>
<event>
 5    1  0.8902899E-005  0.9118800E+02  0.7818608E-02  0.1130116E+00
         25   -1    0    0    0    0  0.00000000000E+00  0.00000000000E+00  0.99999998245E-14  0.12500000000E+03  0.12500000000E+03 0.  0.
        -11    1    3    3    0    0 -0.24937736535E+02 -0.75438171263E+01 -0.16933126732E+02  0.31072989259E+02  0.51100000000E-03 0. -1.
         23    2    1    0    0    0  0.25575341176E+02 -0.56489546029E+01  0.18612716112E+02  0.92868365036E+02  0.87132607324E+02 0.  0.
         11    1    3    3    0    0  0.50513077710E+02  0.18948625234E+01  0.35545842844E+02  0.61795375778E+02  0.51100000000E-03 0.  1.
         22    1    1    0    0    0 -0.25575341176E+02  0.56489546029E+01 -0.18612716112E+02  0.32131634964E+02  0.00000000000E+00 0.  1.
</event>
<event>
 5    1  0.8902899E-005  0.9118800E+02  0.7818608E-02  0.1130116E+00
         25   -1    0    0    0    0  0.00000000000E+00  0.00000000000E+00  0.99999998245E-14  0.12500000000E+03  0.12500000000E+03 0.  0.
        -11    1    3    3    0    0 -0.46876763132E+02 -0.32507018523E+02  0.81475054966E+00  0.57050863216E+02  0.51100000000E-03 0.  1.
         23    2    1    0    0    0 -0.13219454350E+01 -0.20637447563E+02 -0.20822587049E+01  0.10421568902E+03  0.10212209484E+03 0.  0.
         11    1    3    3    0    0  0.45554817697E+02  0.11869570960E+02 -0.28970092546E+01  0.47164825803E+02  0.51100000000E-03 0. -1.
         22    1    1    0    0    0  0.13219454350E+01  0.20637447563E+02  0.20822587049E+01  0.20784310981E+02  0.00000000000E+00 0.  1.
</event>
<event>
 5    1  0.8902899E-005  0.9118800E+02  0.7818608E-02  0.1130116E+00
         25   -1    0    0    0    0  0.00000000000E+00  0.00000000000E+00  0.99999998245E-14  0.12500000000E+03  0.12500000000E+03 0.  0.
        -11    1    3    3    0    0 -0.29926128249E+02 -0.77879614193E+01 -0.18218155335E+02  0.35890481734E+02  0.51100000000E-03 0.  1.
         23    2    1    0    0    0  0.15389349921E+02 -0.18339381799E+02  0.18159538315E+02  0.94951142325E+02  0.90071002999E+02 0.  0.
         11    1    3    3    0    0  0.45315478170E+02 -0.10551420380E+02  0.36377693650E+02  0.59060660590E+02  0.51100000000E-03 0. -1.
         22    1    1    0    0    0 -0.15389349921E+02  0.18339381799E+02 -0.18159538315E+02  0.30048857675E+02  0.00000000000E+00 0. -1.
</event>
<event>
 5    1  0.8902899E-005  0.9118800E+02  0.7818608E-02  0.1130116E+00
         25   -1    0    0    0    0  0.00000000000E+00  0.00000000000E+00  0.99999998245E-14  0.12500000000E+03  0.12500000000E+03 0.  0.
        -11    1    3    3    0    0  0.20932216407E+02  0.15693169617E+02 -0.28970179320E+02  0.39034658273E+02  0.51100000000E-03 0.  1.
         23    2    1    0    0    0 -0.10622450621E+02  0.20893954018E+02  0.17712468044E+02  0.95621005874E+02  0.90995887096E+02 0.  0.
         11    1    3    3    0    0 -0.31554667028E+02  0.52007844006E+01  0.46682647364E+02  0.56586347601E+02  0.51100000000E-03 0. -1.
         22    1    1    0    0    0  0.10622450621E+02 -0.20893954018E+02 -0.17712468044E+02  0.29378994126E+02  0.00000000000E+00 0. -1.
</event>
<event>
 5    1  0.8902899E-005  0.9118800E+02  0.7818608E-02  0.1130116E+00
         25   -1    0    0    0    0  0.00000000000E+00  0.00000000000E+00  0.99999998245E-14  0.12500000000E+03  0.12500000000E+03 0.  0.
        -11    1    3    3    0    0 -0.21426163230E+02 -0.47186478930E+02 -0.11502544241E+02  0.53084393082E+02  0.51100000000E-03 0.  1.
         23    2    1    0    0    0 -0.41365355281E+00 -0.11487429331E+02 -0.25677859073E+02  0.96866664107E+02  0.92691240291E+02 0.  0.
         11    1    3    3    0    0  0.21012509677E+02  0.35699049600E+02 -0.14175314832E+02  0.43782271025E+02  0.51100000000E-03 0. -1.
         22    1    1    0    0    0  0.41365355281E+00  0.11487429331E+02  0.25677859073E+02  0.28133335893E+02  0.00000000000E+00 0.  1.
</event>
<event>
 5    1  0.8902899E-005  0.9118800E+02  0.7818608E-02  0.1130116E+00
         25   -1    0    0    0    0  0.00000000000E+00  0.00000000000E+00  0.99999998245E-14  0.12500000000E+03  0.12500000000E+03 0.  0.
        -11    1    3    3    0    0  0.33955278316E+02 -0.50096200024E+01  0.44202861014E+02  0.55963828855E+02  0.51100000000E-03 0.  1.
         23    2    1    0    0    0  0.28635535601E+02 -0.50595531634E+00  0.48218322873E+01  0.95956929285E+02  0.91456177054E+02 0.  0.
         11    1    3    3    0    0 -0.53197427145E+01  0.45036646860E+01 -0.39381028727E+02  0.39993100430E+02  0.51100000000E-03 0. -1.
         22    1    1    0    0    0 -0.28635535601E+02  0.50595531634E+00 -0.48218322873E+01  0.29043070715E+02  0.00000000000E+00 0.  1.
</event>
<event>
 5    1  0.8902899E-005  0.9118800E+02  0.7818608E-02  0.1130116E+00
         25   -1    0    0    0    0  0.00000000000E+00  0.00000000000E+00  0.99999998245E-14  0.12500000000E+03  0.12500000000E+03 0.  0.
        -11    1    3    3    0    0 -0.64037382857E+00 -0.29661752394E+02 -0.48044332080E+02  0.56466693537E+02  0.51100000000E-03 0.  1.
         23    2    1    0    0    0 -0.15888299156E+01  0.49505254747E+01 -0.28095468458E+02  0.96427505694E+02  0.92097103231E+02 0.  0.
         11    1    3    3    0    0 -0.94845608707E+00  0.34612277869E+02  0.19948863622E+02  0.39960812157E+02  0.51100000000E-03 0. -1.
         22    1    1    0    0    0  0.15888299156E+01 -0.49505254747E+01  0.28095468458E+02  0.28572494306E+02  0.00000000000E+00 0. -1.
</event>
<event>
 5    1  0.8902899E-005  0.9118800E+02  0.7818608E-02  0.1130116E+00
         25   -1    0    0    0    0  0.00000000000E+00  0.00000000000E+00  0.99999998245E-14  0.12500000000E+03  0.12500000000E+03 0.  0.
        -11    1    3    3    0    0  0.88715778966E+01 -0.38808606527E+02  0.19191608617E+02  0.44194238046E+02  0.51100000000E-03 0. -1.
         23    2    1    0    0    0  0.21622253129E+02 -0.69476701662E+01 -0.18891755720E+02  0.95458666494E+02  0.90772609434E+02 0.  0.
         11    1    3    3    0    0  0.12750675233E+02  0.31860936360E+02 -0.38083364337E+02  0.51264428448E+02  0.51100000000E-03 0.  1.
         22    1    1    0    0    0 -0.21622253129E+02  0.69476701662E+01  0.18891755720E+02  0.29541333506E+02  0.00000000000E+00 0.  1.
</event>
<event>
 5    1  0.8902899E-005  0.9118800E+02  0.7818608E-02  0.1130116E+00
         25   -1    0    0    0    0  0.00000000000E+00  0.00000000000E+00  0.99999998245E-14  0.12500000000E+03  0.12500000000E+03 0.  0.
        -11    1    3    3    0    0 -0.72958281862E+01 -0.27236336113E+02  0.24599373368E+02  0.37418929490E+02  0.51100000000E-03 0.  1.
         23    2    1    0    0    0  0.19123674459E+02 -0.58657841360E+01 -0.22112148584E+02  0.95182732128E+02  0.90391830560E+02 0.  0.
         11    1    3    3    0    0  0.26419502645E+02  0.21370551977E+02 -0.46711521953E+02  0.57763802638E+02  0.51100000000E-03 0. -1.
         22    1    1    0    0    0 -0.19123674459E+02  0.58657841360E+01  0.22112148584E+02  0.29817267872E+02  0.00000000000E+00 0. -1.
</event>
<event>
 5    1  0.8902899E-005  0.9118800E+02  0.7818608E-02  0.1130116E+00
         25   -1    0    0    0    0  0.00000000000E+00  0.00000000000E+00  0.99999998245E-14  0.12500000000E+03  0.12500000000E+03 0.  0.
        -11    1    3    3    0    0 -0.22884716621E+02  0.17997773688E+02  0.50944831229E+02  0.58677133040E+02  0.51100000000E-03 0.  1.
         23    2    1    0    0    0 -0.86594009677E+01  0.23501066410E+02  0.20869683730E+02  0.92398941022E+02  0.86456551258E+02 0.  0.
         11    1    3    3    0    0  0.14225315653E+02  0.55032927220E+01 -0.30075147499E+02  0.33721807982E+02  0.51100000000E-03 0. -1.
         22    1    1    0    0    0  0.86594009677E+01 -0.23501066410E+02 -0.20869683730E+02  0.32601058978E+02  0.00000000000E+00 0.  1.
</event>
<event>
 5    1  0.8902899E-005  0.9118800E+02  0.7818608E-02  0.1130116E+00
         25   -1    0    0    0    0  0.00000000000E+00  0.00000000000E+00  0.99999998245E-14  0.12500000000E+03  0.12500000000E+03 0.  0.
        -11    1    3    3    0    0  0.34119809089E+02 -0.14496466446E+02  0.17078165076E+02  0.40816328035E+02  0.51100000000E-03 0.  1.
         23    2    1    0    0    0 -0.52844219597E+01  0.23520182979E+02  0.16881438048E+02  0.95570302866E+02  0.90926210284E+02 0.  0.
         11    1    3    3    0    0 -0.39404231048E+02  0.38016649425E+02 -0.19672702708E+00  0.54753974831E+02  0.51100000000E-03 0. -1.
         22    1    1    0    0    0  0.52844219597E+01 -0.23520182979E+02 -0.16881438048E+02  0.29429697134E+02  0.00000000000E+00 0. -1.
</event>
<event>
 5    1  0.8902899E-005  0.9118800E+02  0.7818608E-02  0.1130116E+00
         25   -1    0    0    0    0  0.00000000000E+00  0.00000000000E+00  0.99999998245E-14  0.12500000000E+03  0.12500000000E+03 0.  0.
        -11    1    3    3    0    0 -0.24464488191E+02 -0.32336241196E+02 -0.30393982564E+02  0.50674824652E+02  0.51100000000E-03 0. -1.
         23    2    1    0    0    0 -0.11370984413E+02  0.10066496907E+02 -0.25497561309E+02  0.95322411163E+02  0.90584782335E+02 0.  0.
         11    1    3    3    0    0  0.13093503778E+02  0.42402738104E+02  0.48964212550E+01  0.44647586511E+02  0.51100000000E-03 0.  1.
         22    1    1    0    0    0  0.11370984413E+02 -0.10066496907E+02  0.25497561309E+02  0.29677588837E+02  0.00000000000E+00 0. -1.
</event>
<event>
 5    1  0.8902899E-005  0.9118800E+02  0.7818608E-02  0.1130116E+00
         25   -1    0    0    0    0  0.00000000000E+00  0.00000000000E+00  0.99999998245E-14  0.12500000000E+03  0.12500000000E+03 0.  0.
        -11    1    3    3    0    0 -0.17130040043E+02  0.53092423368E+02 -0.78197451675E+01  0.56332868786E+02  0.51100000000E-03 0.  1.
         23    2    1    0    0    0  0.63238026197E+01  0.22422641246E+02 -0.17170454618E+02  0.96058855728E+02  0.91595381608E+02 0.  0.
         11    1    3    3    0    0  0.23453842662E+02 -0.30669782122E+02 -0.93507094501E+01  0.39725986942E+02  0.51100000000E-03 0. -1.
         22    1    1    0    0    0 -0.63238026197E+01 -0.22422641246E+02  0.17170454618E+02  0.28941144272E+02  0.00000000000E+00 0.  1.
</event>
<event>
 5    1  0.8902899E-005  0.9118800E+02  0.7818608E-02  0.1130116E+00
         25   -1    0    0    0    0  0.00000000000E+00  0.00000000000E+00  0.99999998245E-14  0.12500000000E+03  0.12500000000E+03 0.  0.
        -11    1    3    3    0    0 -0.34891818864E+02  0.24982063194E+02 -0.42737555571E+02  0.60564355536E+02  0.51100000000E-03 0.  1.
         23    2    1    0    0    0 -0.15208819067E+02  0.20961364361E+02 -0.14197291532E+02  0.95466120131E+02  0.90782873014E+02 0.  0.
         11    1    3    3    0    0  0.19682999797E+02 -0.40206988335E+01  0.28540264040E+02  0.34901764595E+02  0.51100000000E-03 0. -1.
         22    1    1    0    0    0  0.15208819067E+02 -0.20961364361E+02  0.14197291532E+02  0.29533879869E+02  0.00000000000E+00 0.  1.
</event>
<event>
 5    1  0.8902899E-005  0.9118800E+02  0.7818608E-02  0.1130116E+00
         25   -1    0    0    0    0  0.00000000000E+00  0.00000000000E+00  0.99999998245E-14  0.12500000000E+03  0.12500000000E+03 0.  0.
        -11    1    3    3    0    0  0.18364398274E+02  0.38766892303E+02 -0.36334584798E+02  0.56216768989E+02  0.51100000000E-03 0.  1.
         23    2    1    0    0    0 -0.63249222492E+01  0.29221390932E+02 -0.10212987111E+02  0.93405705655E+02  0.87900093366E+02 0.  0.
         11    1    3    3    0    0 -0.24689320523E+02 -0.95455013716E+01  0.26121597688E+02  0.37188936666E+02  0.51100000000E-03 0. -1.
         22    1    1    0    0    0  0.63249222492E+01 -0.29221390932E+02  0.10212987111E+02  0.31594294345E+02  0.00000000000E+00 0.  1.
</event>
<event>
 5    1  0.8902899E-005  0.9118800E+02  0.7818608E-02  0.1130116E+00
         25   -1    0    0    0    0  0.00000000000E+00  0.00000000000E+00  0.99999998245E-14  0.12500000000E+03  0.12500000000E+03 0.  0.
        -11    1    3    3    0    0 -0.32847453017E+02  0.24126579471E+01 -0.43512658705E+01  0.33222125203E+02  0.51100000000E-03 0. -1.
         23    2    1    0    0    0  0.26727909527E+02 -0.13250361163E+02 -0.45534413768E+01  0.94822408198E+02  0.89892169010E+02 0.  0.
         11    1    3    3    0    0  0.59575362543E+02 -0.15663019110E+02 -0.20217550625E+00  0.61600282995E+02  0.51100000000E-03 0.  1.
         22    1    1    0    0    0 -0.26727909527E+02  0.13250361163E+02  0.45534413768E+01  0.30177591802E+02  0.00000000000E+00 0.  1.
</event>
<event>
 5    1  0.8902899E-005  0.9118800E+02  0.7818608E-02  0.1130116E+00
         25   -1    0    0    0    0  0.00000000000E+00  0.00000000000E+00  0.99999998245E-14  0.12500000000E+03  0.12500000000E+03 0.  0.
        -11    1    3    3    0    0 -0.43922882309E+01  0.17484115580E+02 -0.55718219967E+02  0.58561988782E+02  0.51100000000E-03 0. -1.
         23    2    1    0    0    0 -0.22394716510E+01  0.22513328723E+02 -0.19677556409E+02  0.95015480166E+02  0.90160246459E+02 0.  0.
         11    1    3    3    0    0  0.21528165799E+01  0.50292131426E+01  0.36040663559E+02  0.36453491384E+02  0.51100000000E-03 0.  1.
         22    1    1    0    0    0  0.22394716510E+01 -0.22513328723E+02  0.19677556409E+02  0.29984519834E+02  0.00000000000E+00 0. -1.
</event>
<event>
 5    1  0.8902899E-005  0.9118800E+02  0.7818608E-02  0.1130116E+00
         25   -1    0    0    0    0  0.00000000000E+00  0.00000000000E+00  0.99999998245E-14  0.12500000000E+03  0.12500000000E+03 0.  0.
        -11    1    3    3    0    0  0.23756062211E+01 -0.33637849125E+02  0.43902371236E+02  0.55358527790E+02  0.51100000000E-03 0.  1.
         23    2    1    0    0    0  0.19307623852E+02 -0.47997970934E+01  0.22021505760E+02  0.95322245589E+02  0.90584553856E+02 0.  0.
         11    1    3    3    0    0  0.16932017631E+02  0.28838052032E+02 -0.21880865476E+02  0.39963717799E+02  0.51100000000E-03 0. -1.
         22    1    1    0    0    0 -0.19307623852E+02  0.47997970934E+01 -0.22021505760E+02  0.29677754411E+02  0.00000000000E+00 0.  1.
</event>
<event>
 5    1  0.8902899E-005  0.9118800E+02  0.7818608E-02  0.1130116E+00
         25   -1    0    0    0    0  0.00000000000E+00  0.00000000000E+00  0.99999998245E-14  0.12500000000E+03  0.12500000000E+03 0.  0.
        -11    1    3    3    0    0 -0.27701466518E+01 -0.38520696051E+02  0.43184081146E+02  0.57934295555E+02  0.51100000000E-03 0.  1.
         23    2    1    0    0    0 -0.10468158731E+02 -0.51213766450E+01  0.26492565058E+02  0.96057525170E+02  0.91593565781E+02 0.  0.
         11    1    3    3    0    0 -0.76980120789E+01  0.33399319406E+02 -0.16691516089E+02  0.38123229616E+02  0.51100000000E-03 0. -1.
         22    1    1    0    0    0  0.10468158731E+02  0.51213766450E+01 -0.26492565058E+02  0.28942474830E+02  0.00000000000E+00 0.  1.
</event>
<event>
 5    1  0.8902899E-005  0.9118800E+02  0.7818608E-02  0.1130116E+00
         25   -1    0    0    0    0  0.00000000000E+00  0.00000000000E+00  0.99999998245E-14  0.12500000000E+03  0.12500000000E+03 0.  0.
        -11    1    3    3    0    0  0.33404444190E+02 -0.25168851591E+02  0.14303386073E+02  0.44203108889E+02  0.51100000000E-03 0. -1.
         23    2    1    0    0    0  0.21723078433E+02  0.19215065479E+02 -0.75437145964E+01  0.95033043066E+02  0.90184592733E+02 0.  0.
         11    1    3    3    0    0 -0.11681365756E+02  0.44383917071E+02 -0.21847100670E+02  0.50829934176E+02  0.51100000000E-03 0.  1.
         22    1    1    0    0    0 -0.21723078433E+02 -0.19215065479E+02  0.75437145964E+01  0.29966956934E+02  0.00000000000E+00 0.  1.
</event>
<event>
 5    1  0.8902899E-005  0.9118800E+02  0.7818608E-02  0.1130116E+00
         25   -1    0    0    0    0  0.00000000000E+00  0.00000000000E+00  0.99999998245E-14  0.12500000000E+03  0.12500000000E+03 0.  0.
        -11    1    3    3    0    0 -0.23662350222E+02  0.35397979810E+02 -0.26761313825E+02  0.50290075667E+02  0.51100000000E-03 0. -1.
         23    2    1    0    0    0  0.74955806678E+01  0.31407936012E+01 -0.28691607956E+02  0.95179592875E+02  0.90387489283E+02 0.  0.
         11    1    3    3    0    0  0.31157930890E+02 -0.32257186209E+02 -0.19302941312E+01  0.44889517208E+02  0.51100000000E-03 0.  1.
         22    1    1    0    0    0 -0.74955806678E+01 -0.31407936012E+01  0.28691607956E+02  0.29820407125E+02  0.00000000000E+00 0. -1.
</event>
<event>
 5    1  0.8902899E-005  0.9118800E+02  0.7818608E-02  0.1130116E+00
         25   -1    0    0    0    0  0.00000000000E+00  0.00000000000E+00  0.99999998245E-14  0.12500000000E+03  0.12500000000E+03 0.  0.
        -11    1    3    3    0    0  0.10939821132E+02  0.43247090051E+02 -0.41139703654E+02  0.60683323090E+02  0.51100000000E-03 0. -1.
         23    2    1    0    0    0  0.21546108489E+01  0.23206165466E+02 -0.80714355153E+01  0.10033592623E+03  0.97257295654E+02 0.  0.
         11    1    3    3    0    0 -0.87852102829E+01 -0.20040924585E+02  0.33068268139E+02  0.39652603141E+02  0.51100000000E-03 0.  1.
         22    1    1    0    0    0 -0.21546108489E+01 -0.23206165466E+02  0.80714355153E+01  0.24664073768E+02  0.00000000000E+00 0. -1.
</event>
<event>
 5    1  0.8902899E-005  0.9118800E+02  0.7818608E-02  0.1130116E+00
         25   -1    0    0    0    0  0.00000000000E+00  0.00000000000E+00  0.99999998245E-14  0.12500000000E+03  0.12500000000E+03 0.  0.
        -11    1    3    3    0    0  0.35351460296E+02  0.87673869615E+01  0.36239512665E+02  0.51379909475E+02  0.51100000000E-03 0. -1.
         23    2    1    0    0    0  0.19479165305E+02  0.28440310485E+02  0.73744614013E+01  0.89748449361E+02  0.82535521688E+02 0.  0.
         11    1    3    3    0    0 -0.15872294990E+02  0.19672923524E+02 -0.28865051264E+02  0.38368539886E+02  0.51100000000E-03 0.  1.
         22    1    1    0    0    0 -0.19479165305E+02 -0.28440310485E+02 -0.73744614013E+01  0.35251550639E+02  0.00000000000E+00 0. -1.
</event>
<event>
 5    1  0.8902899E-005  0.9118800E+02  0.7818608E-02  0.1130116E+00
         25   -1    0    0    0    0  0.00000000000E+00  0.00000000000E+00  0.99999998245E-14  0.12500000000E+03  0.12500000000E+03 0.  0.
        -11    1    3    3    0    0  0.39110402350E+00 -0.39079835485E+02 -0.19887052619E+02  0.43850671215E+02  0.51100000000E-03 0. -1.
         23    2    1    0    0    0 -0.95279830619E+01  0.13501441695E+02 -0.22099945818E+02  0.97405091154E+02  0.93414521293E+02 0.  0.
         11    1    3    3    0    0 -0.99190870854E+01  0.52581277179E+02 -0.22128931996E+01  0.53554419939E+02  0.51100000000E-03 0.  1.
         22    1    1    0    0    0  0.95279830619E+01 -0.13501441695E+02  0.22099945818E+02  0.27594908846E+02  0.00000000000E+00 0. -1.
</event>
<event>
 5    1  0.8902899E-005  0.9118800E+02  0.7818608E-02  0.1130116E+00
         25   -1    0    0    0    0  0.00000000000E+00  0.00000000000E+00  0.99999998245E-14  0.12500000000E+03  0.12500000000E+03 0.  0.
        -11    1    3    3    0    0  0.31005721578E+02 -0.98560171698E+01  0.40042766073E+02  0.51593787999E+02  0.51100000000E-03 0.  1.
         23    2    1    0    0    0 -0.87434765052E+01 -0.16435024183E+02  0.23179407135E+02  0.95270497541E+02  0.90513117200E+02 0.  0.
         11    1    3    3    0    0 -0.39749198083E+02 -0.65790070136E+01 -0.16863358938E+02  0.43676709543E+02  0.51100000000E-03 0. -1.
         22    1    1    0    0    0  0.87434765052E+01  0.16435024183E+02 -0.23179407135E+02  0.29729502459E+02  0.00000000000E+00 0.  1.
</event>
<event>
 5    1  0.8902899E-005  0.9118800E+02  0.7818608E-02  0.1130116E+00
         25   -1    0    0    0    0  0.00000000000E+00  0.00000000000E+00  0.99999998245E-14  0.12500000000E+03  0.12500000000E+03 0.  0.
        -11    1    3    3    0    0  0.14897457602E+02  0.13016065279E+02 -0.25488535032E+02  0.32264804613E+02  0.51100000000E-03 0. -1.
         23    2    1    0    0    0 -0.10725169611E+02 -0.24665217171E+02  0.15842918033E+02  0.93784615122E+02  0.88437287275E+02 0.  0.
         11    1    3    3    0    0 -0.25622627213E+02 -0.37681282450E+02  0.41331453065E+02  0.61519810509E+02  0.51100000000E-03 0.  1.
         22    1    1    0    0    0  0.10725169611E+02  0.24665217171E+02 -0.15842918033E+02  0.31215384878E+02  0.00000000000E+00 0.  1.
</event>
<event>
 5    1  0.8902899E-005  0.9118800E+02  0.7818608E-02  0.1130116E+00
         25   -1    0    0    0    0  0.00000000000E+00  0.00000000000E+00  0.99999998245E-14  0.12500000000E+03  0.12500000000E+03 0.  0.
        -11    1    3    3    0    0 -0.13827156489E+02 -0.29506609646E+02 -0.16167216142E+02  0.36375941877E+02  0.51100000000E-03 0.  1.
         23    2    1    0    0    0  0.36816075710E+01  0.29031577827E+01  0.29546116617E+02  0.95084192028E+02  0.90255459708E+02 0.  0.
         11    1    3    3    0    0  0.17508764060E+02  0.32409767429E+02  0.45713332759E+02  0.58708250152E+02  0.51100000000E-03 0. -1.
         22    1    1    0    0    0 -0.36816075710E+01 -0.29031577827E+01 -0.29546116617E+02  0.29915807972E+02  0.00000000000E+00 0. -1.
</event>
<event>
 5    1  0.8902899E-005  0.9118800E+02  0.7818608E-02  0.1130116E+00
         25   -1    0    0    0    0  0.00000000000E+00  0.00000000000E+00  0.99999998245E-14  0.12500000000E+03  0.12500000000E+03 0.  0.
        -11    1    3    3    0    0  0.36352320410E+02  0.35856173651E+02 -0.26660746717E+02  0.57601664940E+02  0.51100000000E-03 0.  1.
         23    2    1    0    0    0  0.29850557468E+02  0.10855810474E+02 -0.22268027679E+01  0.93158783742E+02  0.87548249186E+02 0.  0.
         11    1    3    3    0    0 -0.65017629413E+01 -0.25000363177E+02  0.24433943949E+02  0.35557118802E+02  0.51100000000E-03 0. -1.
         22    1    1    0    0    0 -0.29850557468E+02 -0.10855810474E+02  0.22268027679E+01  0.31841216258E+02  0.00000000000E+00 0.  1.
</event>
<event>
 5    1  0.8902899E-005  0.9118800E+02  0.7818608E-02  0.1130116E+00
         25   -1    0    0    0    0  0.00000000000E+00  0.00000000000E+00  0.99999998245E-14  0.12500000000E+03  0.12500000000E+03 0.  0.
        -11    1    3    3    0    0 -0.99117541621E+00 -0.12476508229E+02 -0.52681595590E+02  0.54147910398E+02  0.51100000000E-03 0.  1.
         23    2    1    0    0    0  0.21969168527E+02 -0.39554333133E+01 -0.19700759479E+02  0.95227365879E+02  0.90453532102E+02 0.  0.
         11    1    3    3    0    0  0.22960343943E+02  0.85210749161E+01  0.32980836111E+02  0.41079455481E+02  0.51100000000E-03 0. -1.
         22    1    1    0    0    0 -0.21969168527E+02  0.39554333133E+01  0.19700759479E+02  0.29772634121E+02  0.00000000000E+00 0. -1.
</event>
<event>
 5    1  0.8902899E-005  0.9118800E+02  0.7818608E-02  0.1130116E+00
         25   -1    0    0    0    0  0.00000000000E+00  0.00000000000E+00  0.99999998245E-14  0.12500000000E+03  0.12500000000E+03 0.  0.
        -11    1    3    3    0    0 -0.44987915439E+02 -0.42344954936E+01  0.14667867032E+02  0.47507786847E+02  0.51100000000E-03 0.  1.
         23    2    1    0    0    0 -0.14251081878E+02 -0.31635651097E+02  0.96221093033E+01  0.88993157005E+02  0.81383593256E+02 0.  0.
         11    1    3    3    0    0  0.30736833561E+02 -0.27401155604E+02 -0.50457577286E+01  0.41485370157E+02  0.51100000000E-03 0. -1.
         22    1    1    0    0    0  0.14251081878E+02  0.31635651097E+02 -0.96221093033E+01  0.36006842995E+02  0.00000000000E+00 0.  1.
</event>
<event>
 5    1  0.8902899E-005  0.9118800E+02  0.7818608E-02  0.1130116E+00
         25   -1    0    0    0    0  0.00000000000E+00  0.00000000000E+00  0.99999998245E-14  0.12500000000E+03  0.12500000000E+03 0.  0.
        -11    1    3    3    0    0  0.56838772477E+02 -0.52177625017E+01  0.11871994070E+02  0.58299359736E+02  0.51100000000E-03 0.  1.
         23    2    1    0    0    0  0.26586550617E+02  0.11814883775E+02 -0.23383998623E+01  0.95812600900E+02  0.91258699448E+02 0.  0.
         11    1    3    3    0    0 -0.30252221860E+02  0.17032646277E+02 -0.14210393932E+02  0.37513241164E+02  0.51100000000E-03 0. -1.
         22    1    1    0    0    0 -0.26586550617E+02 -0.11814883775E+02  0.23383998623E+01  0.29187399100E+02  0.00000000000E+00 0.  1.
</event>
<event>
 5    1  0.8902899E-005  0.9118800E+02  0.7818608E-02  0.1130116E+00
         25   -1    0    0    0    0  0.00000000000E+00  0.00000000000E+00  0.99999998245E-14  0.12500000000E+03  0.12500000000E+03 0.  0.
        -11    1    3    3    0    0 -0.17687657499E+02  0.28470149601E+02  0.61876346533E+01  0.34083565966E+02  0.51100000000E-03 0. -1.
         23    2    1    0    0    0  0.13359885652E+02 -0.21663735959E+02 -0.13419573181E+02  0.96226940644E+02  0.91824480183E+02 0.  0.
         11    1    3    3    0    0  0.31047543150E+02 -0.50133885560E+02 -0.19607207835E+02  0.62143374678E+02  0.51100000000E-03 0.  1.
         22    1    1    0    0    0 -0.13359885652E+02  0.21663735959E+02  0.13419573181E+02  0.28773059356E+02  0.00000000000E+00 0.  1.
</event>
<event>
 5    1  0.8902899E-005  0.9118800E+02  0.7818608E-02  0.1130116E+00
         25   -1    0    0    0    0  0.00000000000E+00  0.00000000000E+00  0.99999998245E-14  0.12500000000E+03  0.12500000000E+03 0.  0.
        -11    1    3    3    0    0  0.70344344858E+01  0.27828785063E+02  0.29282931419E+02  0.41005056022E+02  0.51100000000E-03 0.  1.
         23    2    1    0    0    0 -0.20551528860E+01  0.16208645876E+02 -0.23817715164E+02  0.96117004827E+02  0.91674703200E+02 0.  0.
         11    1    3    3    0    0 -0.90895873718E+01 -0.11620139187E+02 -0.53100646583E+02  0.55111948805E+02  0.51100000000E-03 0. -1.
         22    1    1    0    0    0  0.20551528860E+01 -0.16208645876E+02  0.23817715164E+02  0.28882995173E+02  0.00000000000E+00 0. -1.
</event>
<event>
 5    1  0.8902899E-005  0.9118800E+02  0.7818608E-02  0.1130116E+00
         25   -1    0    0    0    0  0.00000000000E+00  0.00000000000E+00  0.99999998245E-14  0.12500000000E+03  0.12500000000E+03 0.  0.
        -11    1    3    3    0    0 -0.35538686688E+02 -0.94302374141E+01 -0.42114961242E+02  0.55907044188E+02  0.51100000000E-03 0.  1.
         23    2    1    0    0    0 -0.25193222993E+02 -0.14057605487E+02 -0.37542167854E+01  0.95906892561E+02  0.91387762530E+02 0.  0.
         11    1    3    3    0    0  0.10345463695E+02 -0.46273680729E+01  0.38360744456E+02  0.39999848373E+02  0.51100000000E-03 0. -1.
         22    1    1    0    0    0  0.25193222993E+02  0.14057605487E+02  0.37542167854E+01  0.29093107439E+02  0.00000000000E+00 0.  1.
</event>
<event>
 5    1  0.8902899E-005  0.9118800E+02  0.7818608E-02  0.1130116E+00
         25   -1    0    0    0    0  0.00000000000E+00  0.00000000000E+00  0.99999998245E-14  0.12500000000E+03  0.12500000000E+03 0.  0.
        -11    1    3    3    0    0 -0.33484190574E+02  0.44011844573E+02  0.88764272975E+01  0.56009146065E+02  0.51100000000E-03 0. -1.
         23    2    1    0    0    0 -0.24498471956E+02  0.45896223147E+01  0.13411718676E+02  0.96696043404E+02  0.92460861184E+02 0.  0.
         11    1    3    3    0    0  0.89857186176E+01 -0.39422222259E+02  0.45352913783E+01  0.40686897338E+02  0.51100000000E-03 0.  1.
         22    1    1    0    0    0  0.24498471956E+02 -0.45896223147E+01 -0.13411718676E+02  0.28303956596E+02  0.00000000000E+00 0. -1.
</event>
<event>
 5    1  0.8902899E-005  0.9118800E+02  0.7818608E-02  0.1130116E+00
         25   -1    0    0    0    0  0.00000000000E+00  0.00000000000E+00  0.99999998245E-14  0.12500000000E+03  0.12500000000E+03 0.  0.
        -11    1    3    3    0    0 -0.35053694504E+02  0.16612118350E+01  0.97547094589E+01  0.36423556663E+02  0.51100000000E-03 0. -1.
         23    2    1    0    0    0  0.23820071336E+02 -0.43217002338E+01  0.16079533073E+02  0.95937579674E+02  0.91429726668E+02 0.  0.
         11    1    3    3    0    0  0.58873765839E+02 -0.59829120688E+01  0.63248236142E+01  0.59514023011E+02  0.51100000000E-03 0.  1.
         22    1    1    0    0    0 -0.23820071336E+02  0.43217002338E+01 -0.16079533073E+02  0.29062420326E+02  0.00000000000E+00 0.  1.
</event>
<event>
 5    1  0.8902899E-005  0.9118800E+02  0.7818608E-02  0.1130116E+00
         25   -1    0    0    0    0  0.00000000000E+00  0.00000000000E+00  0.99999998245E-14  0.12500000000E+03  0.12500000000E+03 0.  0.
        -11    1    3    3    0    0 -0.20822582001E+02  0.21990850756E+02  0.46052124458E+02  0.55117833824E+02  0.51100000000E-03 0.  1.
         23    2    1    0    0    0 -0.10698417872E+02  0.26398523110E+02  0.70450130369E+01  0.95657703293E+02  0.91046283962E+02 0.  0.
         11    1    3    3    0    0  0.10124164129E+02  0.44076723543E+01 -0.39007111421E+02  0.40539869469E+02  0.51100000000E-03 0. -1.
         22    1    1    0    0    0  0.10698417872E+02 -0.26398523110E+02 -0.70450130369E+01  0.29342296707E+02  0.00000000000E+00 0.  1.
</event>
<event>
 5    1  0.8902899E-005  0.9118800E+02  0.7818608E-02  0.1130116E+00
         25   -1    0    0    0    0  0.00000000000E+00  0.00000000000E+00  0.99999998245E-14  0.12500000000E+03  0.12500000000E+03 0.  0.
        -11    1    3    3    0    0  0.20644908744E+02  0.31051544329E+02  0.86660881098E+01  0.38282002895E+02  0.51100000000E-03 0.  1.
         23    2    1    0    0    0 -0.68233894149E+00  0.36884613120E+02 -0.26329251347E+02  0.79677050538E+02  0.65530623639E+02 0.  0.
         11    1    3    3    0    0 -0.21327247686E+02  0.58330687910E+01 -0.34995339457E+02  0.41395047643E+02  0.51100000000E-03 0. -1.
         22    1    1    0    0    0  0.68233894149E+00 -0.36884613120E+02  0.26329251347E+02  0.45322949462E+02  0.00000000000E+00 0. -1.
</event>
<event>
 5    1  0.8902899E-005  0.9118800E+02  0.7818608E-02  0.1130116E+00
         25   -1    0    0    0    0  0.00000000000E+00  0.00000000000E+00  0.99999998245E-14  0.12500000000E+03  0.12500000000E+03 0.  0.
        -11    1    3    3    0    0 -0.35184988783E+02 -0.66296927214E+01 -0.13238250611E+02  0.38173125897E+02  0.51100000000E-03 0.  1.
         23    2    1    0    0    0  0.22098761236E+01 -0.32489156647E+00  0.29560168248E+02  0.95355562851E+02  0.90630517558E+02 0.  0.
         11    1    3    3    0    0  0.37394864907E+02  0.63048011550E+01  0.42798418859E+02  0.57182436955E+02  0.51100000000E-03 0. -1.
         22    1    1    0    0    0 -0.22098761236E+01  0.32489156647E+00 -0.29560168248E+02  0.29644437149E+02  0.00000000000E+00 0. -1.
</event>
<event>
 5    1  0.8902899E-005  0.9118800E+02  0.7818608E-02  0.1130116E+00
         25   -1    0    0    0    0  0.00000000000E+00  0.00000000000E+00  0.99999998245E-14  0.12500000000E+03  0.12500000000E+03 0.  0.
        -11    1    3    3    0    0 -0.91966064760E+01 -0.15783519771E+02  0.31459822159E+02  0.36378805335E+02  0.51100000000E-03 0.  1.
         23    2    1    0    0    0  0.32558836014E+02  0.57575614167E+01  0.19146633626E+01  0.91880621204E+02  0.85703881482E+02 0.  0.
         11    1    3    3    0    0  0.41755442490E+02  0.21541081188E+02 -0.29545158796E+02  0.55501815870E+02  0.51100000000E-03 0. -1.
         22    1    1    0    0    0 -0.32558836014E+02 -0.57575614167E+01 -0.19146633626E+01  0.33119378796E+02  0.00000000000E+00 0.  1.
</event>
<event>
 5    1  0.8902899E-005  0.9118800E+02  0.7818608E-02  0.1130116E+00
         25   -1    0    0    0    0  0.00000000000E+00  0.00000000000E+00  0.99999998245E-14  0.12500000000E+03  0.12500000000E+03 0.  0.
        -11    1    3    3    0    0  0.15827779654E+02 -0.50784240244E+02  0.64567556736E+01  0.53584021499E+02  0.51100000000E-03 0.  1.
         23    2    1    0    0    0  0.23438263673E+01 -0.15226317873E+02  0.24799221572E+02  0.95805211619E+02  0.91248577550E+02 0.  0.
         11    1    3    3    0    0 -0.13483953287E+02  0.35557922372E+02  0.18342465899E+02  0.42221190120E+02  0.51100000000E-03 0. -1.
         22    1    1    0    0    0 -0.23438263673E+01  0.15226317873E+02 -0.24799221572E+02  0.29194788381E+02  0.00000000000E+00 0.  1.
</event>
<event>
 5    1  0.8902899E-005  0.9118800E+02  0.7818608E-02  0.1130116E+00
         25   -1    0    0    0    0  0.00000000000E+00  0.00000000000E+00  0.99999998245E-14  0.12500000000E+03  0.12500000000E+03 0.  0.
        -11    1    3    3    0    0  0.17384459818E+02 -0.36090953119E+02  0.17193406534E+02  0.43593457866E+02  0.51100000000E-03 0.  1.
         23    2    1    0    0    0  0.24087332363E+02  0.36074701276E+01 -0.16072332639E+02  0.95818956538E+02  0.91267404556E+02 0.  0.
         11    1    3    3    0    0  0.67028725454E+01  0.39698423247E+02 -0.33265739172E+02  0.52225498672E+02  0.51100000000E-03 0. -1.
         22    1    1    0    0    0 -0.24087332363E+02 -0.36074701276E+01  0.16072332639E+02  0.29181043462E+02  0.00000000000E+00 0.  1.
</event>
<event>
 5    1  0.8902899E-005  0.9118800E+02  0.7818608E-02  0.1130116E+00
         25   -1    0    0    0    0  0.00000000000E+00  0.00000000000E+00  0.99999998245E-14  0.12500000000E+03  0.12500000000E+03 0.  0.
        -11    1    3    3    0    0 -0.75263428949E+01 -0.84192730052E+00  0.33534874106E+02  0.34379390055E+02  0.51100000000E-03 0.  1.
         23    2    1    0    0    0  0.50900705042E+01  0.18353774356E+01 -0.27607504852E+02  0.96867247696E+02  0.92692027295E+02 0.  0.
         11    1    3    3    0    0  0.12616413399E+02  0.26773047361E+01 -0.61142378958E+02  0.62487857641E+02  0.51100000000E-03 0. -1.
         22    1    1    0    0    0 -0.50900705042E+01 -0.18353774356E+01  0.27607504852E+02  0.28132752304E+02  0.00000000000E+00 0. -1.
</event>
<event>
 5    1  0.8902899E-005  0.9118800E+02  0.7818608E-02  0.1130116E+00
         25   -1    0    0    0    0  0.00000000000E+00  0.00000000000E+00  0.99999998245E-14  0.12500000000E+03  0.12500000000E+03 0.  0.
        -11    1    3    3    0    0 -0.18450467963E+02 -0.12722643927E+02  0.29877271934E+02  0.37348852928E+02  0.51100000000E-03 0.  1.
         23    2    1    0    0    0  0.21943643531E+02 -0.21949379147E+02 -0.74099006962E+01  0.93090669629E+02  0.87450942861E+02 0.  0.
         11    1    3    3    0    0  0.40394111494E+02 -0.92267352203E+01 -0.37287172630E+02  0.55741816702E+02  0.51100000000E-03 0. -1.
         22    1    1    0    0    0 -0.21943643531E+02  0.21949379147E+02  0.74099006962E+01  0.31909330371E+02  0.00000000000E+00 0.  1.
</event>
<event>
 5    1  0.8902899E-005  0.9118800E+02  0.7818608E-02  0.1130116E+00
         25   -1    0    0    0    0  0.00000000000E+00  0.00000000000E+00  0.99999998245E-14  0.12500000000E+03  0.12500000000E+03 0.  0.
        -11    1    3    3    0    0  0.31984226714E+02 -0.10920268189E+02  0.42453122860E+02  0.54263345424E+02  0.51100000000E-03 0.  1.
         23    2    1    0    0    0  0.32363273071E+02 -0.24295289834E+01  0.56220931862E+01  0.92062301435E+02  0.85968455603E+02 0.  0.
         11    1    3    3    0    0  0.37904635706E+00  0.84907392056E+01 -0.36831029674E+02  0.37798956011E+02  0.51100000000E-03 0. -1.
         22    1    1    0    0    0 -0.32363273071E+02  0.24295289834E+01 -0.56220931862E+01  0.32937698565E+02  0.00000000000E+00 0.  1.
</event>
<event>
 5    1  0.8902899E-005  0.9118800E+02  0.7818608E-02  0.1130116E+00
         25   -1    0    0    0    0  0.00000000000E+00  0.00000000000E+00  0.99999998245E-14  0.12500000000E+03  0.12500000000E+03 0.  0.
        -11    1    3    3    0    0  0.55092734208E+02 -0.17131370099E+02  0.12702166382E+02  0.59076545557E+02  0.51100000000E-03 0. -1.
         23    2    1    0    0    0  0.18407028434E+02 -0.19977339788E+02  0.10291248138E+02  0.95951375436E+02  0.91448585878E+02 0.  0.
         11    1    3    3    0    0 -0.36685705774E+02 -0.28459696894E+01 -0.24109182436E+01  0.36874829879E+02  0.51100000000E-03 0.  1.
         22    1    1    0    0    0 -0.18407028434E+02  0.19977339788E+02 -0.10291248138E+02  0.29048624564E+02  0.00000000000E+00 0. -1.
</event>
<event>
 5    1  0.8902899E-005  0.9118800E+02  0.7818608E-02  0.1130116E+00
         25   -1    0    0    0    0  0.00000000000E+00  0.00000000000E+00  0.99999998245E-14  0.12500000000E+03  0.12500000000E+03 0.  0.
        -11    1    3    3    0    0 -0.24594911726E+02 -0.23922785222E+02 -0.17198496373E+02  0.38379651032E+02  0.51100000000E-03 0. -1.
         23    2    1    0    0    0  0.26759127119E+02 -0.17953962009E+02 -0.28867713997E+00  0.92774560197E+02  0.86997931293E+02 0.  0.
         11    1    3    3    0    0  0.51354038845E+02  0.59688232135E+01  0.16909819233E+02  0.54394909165E+02  0.51100000000E-03 0.  1.
         22    1    1    0    0    0 -0.26759127119E+02  0.17953962009E+02  0.28867713997E+00  0.32225439803E+02  0.00000000000E+00 0.  1.
</event>
<event>
 5    1  0.8902899E-005  0.9118800E+02  0.7818608E-02  0.1130116E+00
         25   -1    0    0    0    0  0.00000000000E+00  0.00000000000E+00  0.99999998245E-14  0.12500000000E+03  0.12500000000E+03 0.  0.
        -11    1    3    3    0    0 -0.56796077723E+01  0.34543081845E+02  0.35490374448E+02  0.49850267066E+02  0.51100000000E-03 0.  1.
         23    2    1    0    0    0  0.17186053479E+02 -0.37897758616E+01  0.22691588903E+02  0.96283610217E+02  0.91901591685E+02 0.  0.
         11    1    3    3    0    0  0.22865661251E+02 -0.38332857707E+02 -0.12798785546E+02  0.46433343151E+02  0.51100000000E-03 0. -1.
         22    1    1    0    0    0 -0.17186053479E+02  0.37897758616E+01 -0.22691588903E+02  0.28716389783E+02  0.00000000000E+00 0. -1.
</event>
<event>
 5    1  0.8902899E-005  0.9118800E+02  0.7818608E-02  0.1130116E+00
         25   -1    0    0    0    0  0.00000000000E+00  0.00000000000E+00  0.99999998245E-14  0.12500000000E+03  0.12500000000E+03 0.  0.
        -11    1    3    3    0    0  0.23606690896E+02  0.35215505568E+02 -0.22966225052E+02  0.48216752077E+02  0.51100000000E-03 0.  1.
         23    2    1    0    0    0 -0.17709892396E+02  0.97886455874E+01 -0.19570627586E+02  0.96849203648E+02  0.92667690767E+02 0.  0.
         11    1    3    3    0    0 -0.41316583292E+02 -0.25426859981E+02  0.33955974659E+01  0.48632451571E+02  0.51100000000E-03 0. -1.
         22    1    1    0    0    0  0.17709892396E+02 -0.97886455874E+01  0.19570627586E+02  0.28150796352E+02  0.00000000000E+00 0. -1.
</event>
<event>
 5    1  0.8902899E-005  0.9118800E+02  0.7818608E-02  0.1130116E+00
         25   -1    0    0    0    0  0.00000000000E+00  0.00000000000E+00  0.99999998245E-14  0.12500000000E+03  0.12500000000E+03 0.  0.
        -11    1    3    3    0    0 -0.19993277582E+02  0.37157757791E+02  0.27256232551E+02  0.50232781385E+02  0.51100000000E-03 0.  1.
         23    2    1    0    0    0 -0.11609963540E+02 -0.52529156998E+01  0.28815911148E+02  0.93492205535E+02  0.88023016216E+02 0.  0.
         11    1    3    3    0    0  0.83833140420E+01 -0.42410673491E+02  0.15596785971E+01  0.43259424151E+02  0.51100000000E-03 0. -1.
         22    1    1    0    0    0  0.11609963540E+02  0.52529156998E+01 -0.28815911148E+02  0.31507794465E+02  0.00000000000E+00 0.  1.
</event>
<event>
 5    1  0.8902899E-005  0.9118800E+02  0.7818608E-02  0.1130116E+00
         25   -1    0    0    0    0  0.00000000000E+00  0.00000000000E+00  0.99999998245E-14  0.12500000000E+03  0.12500000000E+03 0.  0.
        -11    1    3    3    0    0  0.20475157669E+01  0.99715404348E-01 -0.36882548725E+02  0.36939472989E+02  0.51100000000E-03 0. -1.
         23    2    1    0    0    0  0.16015569256E+02  0.11517470934E+02  0.20176252393E+02  0.96782421154E+02  0.92577563634E+02 0.  0.
         11    1    3    3    0    0  0.13968053489E+02  0.11417755530E+02  0.57058801119E+02  0.59842948164E+02  0.51100000000E-03 0.  1.
         22    1    1    0    0    0 -0.16015569256E+02 -0.11517470934E+02 -0.20176252393E+02  0.28217578846E+02  0.00000000000E+00 0.  1.
</event>
<event>
 5    1  0.8902899E-005  0.9118800E+02  0.7818608E-02  0.1130116E+00
         25   -1    0    0    0    0  0.00000000000E+00  0.00000000000E+00  0.99999998245E-14  0.12500000000E+03  0.12500000000E+03 0.  0.
        -11    1    3    3    0    0 -0.12385269350E+02  0.36646134648E+01 -0.60198667973E+02  0.61568692651E+02  0.51100000000E-03 0. -1.
         23    2    1    0    0    0 -0.10666630647E+02  0.72157243482E+01 -0.26089758590E+02  0.95904997155E+02  0.91385169961E+02 0.  0.
         11    1    3    3    0    0  0.17186387027E+01  0.35511108834E+01  0.34108909383E+02  0.34336304505E+02  0.51100000000E-03 0.  1.
         22    1    1    0    0    0  0.10666630647E+02 -0.72157243482E+01  0.26089758590E+02  0.29095002845E+02  0.00000000000E+00 0. -1.
</event>
<event>
 5    1  0.8902899E-005  0.9118800E+02  0.7818608E-02  0.1130116E+00
         25   -1    0    0    0    0  0.00000000000E+00  0.00000000000E+00  0.99999998245E-14  0.12500000000E+03  0.12500000000E+03 0.  0.
        -11    1    3    3    0    0 -0.27713239045E+02 -0.25023683090E+02 -0.31247609688E+02  0.48689027976E+02  0.51100000000E-03 0. -1.
         23    2    1    0    0    0  0.14634897205E+02 -0.90067216135E+01 -0.25388660764E+02  0.94342450427E+02  0.89222265197E+02 0.  0.
         11    1    3    3    0    0  0.42348136250E+02  0.16016961477E+02  0.58589489244E+01  0.45653422452E+02  0.51100000000E-03 0.  1.
         22    1    1    0    0    0 -0.14634897205E+02  0.90067216135E+01  0.25388660764E+02  0.30657549573E+02  0.00000000000E+00 0. -1.
</event>
<event>
 5    1  0.8902899E-005  0.9118800E+02  0.7818608E-02  0.1130116E+00
         25   -1    0    0    0    0  0.00000000000E+00  0.00000000000E+00  0.99999998245E-14  0.12500000000E+03  0.12500000000E+03 0.  0.
        -11    1    3    3    0    0  0.54123958251E+02 -0.96044477485E+01  0.26073740361E+02  0.60839857084E+02  0.51100000000E-03 0.  1.
         23    2    1    0    0    0  0.19611152144E+02 -0.64302402521E+01  0.20439252892E+02  0.95953342070E+02  0.91451274007E+02 0.  0.
         11    1    3    3    0    0 -0.34512806107E+02  0.31742074964E+01 -0.56344874684E+01  0.35113484986E+02  0.51100000000E-03 0. -1.
         22    1    1    0    0    0 -0.19611152144E+02  0.64302402521E+01 -0.20439252892E+02  0.29046657930E+02  0.00000000000E+00 0.  1.
</event>
<event>
 5    1  0.8902899E-005  0.9118800E+02  0.7818608E-02  0.1130116E+00
         25   -1    0    0    0    0  0.00000000000E+00  0.00000000000E+00  0.99999998245E-14  0.12500000000E+03  0.12500000000E+03 0.  0.
        -11    1    3    3    0    0 -0.49397895387E+02  0.35253996517E+00 -0.13030227867E+02  0.51088777550E+02  0.51100000000E-03 0. -1.
         23    2    1    0    0    0 -0.13360184812E+02  0.24820073215E+02 -0.11147484309E+02  0.94688335924E+02  0.89705540415E+02 0.  0.
         11    1    3    3    0    0  0.36037710575E+02  0.24467533250E+02  0.18827435582E+01  0.43599558374E+02  0.51100000000E-03 0.  1.
         22    1    1    0    0    0  0.13360184812E+02 -0.24820073215E+02  0.11147484309E+02  0.30311664076E+02  0.00000000000E+00 0. -1.
</event>
<event>
 5    1  0.8902899E-005  0.9118800E+02  0.7818608E-02  0.1130116E+00
         25   -1    0    0    0    0  0.00000000000E+00  0.00000000000E+00  0.99999998245E-14  0.12500000000E+03  0.12500000000E+03 0.  0.
        -11    1    3    3    0    0  0.51591760705E+02 -0.14880447806E+01 -0.61643081234E+01  0.51980022554E+02  0.51100000000E-03 0.  1.
         23    2    1    0    0    0  0.24341748083E+02  0.24564939274E+02 -0.71178086936E+01  0.89692491707E+02  0.82450730299E+02 0.  0.
         11    1    3    3    0    0 -0.27250012622E+02  0.26052984054E+02 -0.95350057023E+00  0.37712469153E+02  0.51100000000E-03 0. -1.
         22    1    1    0    0    0 -0.24341748083E+02 -0.24564939274E+02  0.71178086936E+01  0.35307508293E+02  0.00000000000E+00 0.  1.
</event>
<event>
 5    1  0.8902899E-005  0.9118800E+02  0.7818608E-02  0.1130116E+00
         25   -1    0    0    0    0  0.00000000000E+00  0.00000000000E+00  0.99999998245E-14  0.12500000000E+03  0.12500000000E+03 0.  0.
        -11    1    3    3    0    0  0.28271021571E+02  0.43702970492E+02 -0.24062701205E+02  0.57342949698E+02  0.51100000000E-03 0.  1.
         23    2    1    0    0    0  0.14038289160E+02  0.86285048056E+01 -0.24826308627E+02  0.95202848160E+02  0.90419644105E+02 0.  0.
         11    1    3    3    0    0 -0.14232732411E+02 -0.35074465686E+02 -0.76360742167E+00  0.37859898463E+02  0.51100000000E-03 0. -1.
         22    1    1    0    0    0 -0.14038289160E+02 -0.86285048056E+01  0.24826308627E+02  0.29797151840E+02  0.00000000000E+00 0.  1.
</event>
<event>
 5    1  0.8902899E-005  0.9118800E+02  0.7818608E-02  0.1130116E+00
         25   -1    0    0    0    0  0.00000000000E+00  0.00000000000E+00  0.99999998245E-14  0.12500000000E+03  0.12500000000E+03 0.  0.
        -11    1    3    3    0    0 -0.18258450362E+02  0.18079919387E+02  0.46280151949E+02  0.52934931372E+02  0.51100000000E-03 0. -1.
         23    2    1    0    0    0 -0.27299991683E+02  0.91109401118E+01  0.54458751762E+01  0.95709108377E+02  0.91116832113E+02 0.  0.
         11    1    3    3    0    0 -0.90415413214E+01 -0.89689792754E+01 -0.40834276773E+02  0.42774177006E+02  0.51100000000E-03 0.  1.
         22    1    1    0    0    0  0.27299991683E+02 -0.91109401118E+01 -0.54458751762E+01  0.29290891623E+02  0.00000000000E+00 0.  1.
</event>
<event>
 5    1  0.8902899E-005  0.9118800E+02  0.7818608E-02  0.1130116E+00
         25   -1    0    0    0    0  0.00000000000E+00  0.00000000000E+00  0.99999998245E-14  0.12500000000E+03  0.12500000000E+03 0.  0.
        -11    1    3    3    0    0 -0.78702859672E+01  0.11146058973E+01 -0.32440470864E+02  0.33400118228E+02  0.51100000000E-03 0. -1.
         23    2    1    0    0    0  0.38356515936E+00  0.12443508153E+02  0.27423388587E+02  0.94883056945E+02  0.89976464903E+02 0.  0.
         11    1    3    3    0    0  0.82538511266E+01  0.11328902255E+02  0.59863859451E+02  0.61482938717E+02  0.51100000000E-03 0.  1.
         22    1    1    0    0    0 -0.38356515936E+00 -0.12443508153E+02 -0.27423388587E+02  0.30116943055E+02  0.00000000000E+00 0.  1.
</event>
<event>
 4    1  0.8902899E-005  0.9118800E+02  0.7818608E-02  0.1130116E+00
         25   -1    0    0    0    0  0.00000000000E+00  0.00000000000E+00  0.99999998245E-14  0.12500000000E+03  0.12500000000E+03 0.  0.
        -11    1    1    0    0    0 -0.42499741361E+02  0.19494587587E+02  0.38723259583E+02  0.60710442215E+02  0.51100000000E-03 0.  1.
         11    1    1    0    0    0  0.70326478951E+00 -0.14377778425E+01 -0.10716061403E+02  0.10834932337E+02  0.51100000000E-03 0. -1.
         22    1    1    0    0    0  0.41796476571E+02 -0.18056809744E+02 -0.28007198180E+02  0.53454625448E+02  0.00000000000E+00 0.  1.
</event>
<event>
 5    1  0.8902899E-005  0.9118800E+02  0.7818608E-02  0.1130116E+00
         25   -1    0    0    0    0  0.00000000000E+00  0.00000000000E+00  0.99999998245E-14  0.12500000000E+03  0.12500000000E+03 0.  0.
        -11    1    3    3    0    0  0.47636219481E+02  0.38837240200E+02  0.19198456687E+01  0.61491677814E+02  0.51100000000E-03 0. -1.
         23    2    1    0    0    0  0.15808109940E+02  0.11346430393E+02  0.79527538099E+01  0.10397896017E+03  0.10183192054E+03 0.  0.
         11    1    3    3    0    0 -0.31828109541E+02 -0.27490809806E+02  0.60329081412E+01  0.42487282352E+02  0.51100000000E-03 0.  1.
         22    1    1    0    0    0 -0.15808109940E+02 -0.11346430393E+02 -0.79527538099E+01  0.21021039834E+02  0.00000000000E+00 0. -1.
</event>
<event>
 5    1  0.8902899E-005  0.9118800E+02  0.7818608E-02  0.1130116E+00
         25   -1    0    0    0    0  0.00000000000E+00  0.00000000000E+00  0.99999998245E-14  0.12500000000E+03  0.12500000000E+03 0.  0.
        -11    1    3    3    0    0  0.11935445843E+02  0.24061746100E+02 -0.23525101587E+02  0.35705082240E+02  0.51100000000E-03 0.  1.
         23    2    1    0    0    0 -0.14504173080E+02 -0.23554842807E+01  0.24421766836E+02  0.96498385339E+02  0.92193255364E+02 0.  0.
         11    1    3    3    0    0 -0.26439618923E+02 -0.26417230381E+02  0.47946868423E+02  0.60793303098E+02  0.51100000000E-03 0. -1.
         22    1    1    0    0    0  0.14504173080E+02  0.23554842807E+01 -0.24421766836E+02  0.28501614661E+02  0.00000000000E+00 0. -1.
</event>
<event>
 5    1  0.8902899E-005  0.9118800E+02  0.7818608E-02  0.1130116E+00
         25   -1    0    0    0    0  0.00000000000E+00  0.00000000000E+00  0.99999998245E-14  0.12500000000E+03  0.12500000000E+03 0.  0.
        -11    1    3    3    0    0 -0.10766182548E+02  0.39113279240E+02 -0.35955191285E+02  0.54208256568E+02  0.51100000000E-03 0. -1.
         23    2    1    0    0    0 -0.77487405516E+01 -0.39007775452E+01 -0.24769507013E+02  0.98755238175E+02  0.95204041635E+02 0.  0.
         11    1    3    3    0    0  0.30174419963E+01 -0.43014056786E+02  0.11185684272E+02  0.44546981606E+02  0.51100000000E-03 0.  1.
         22    1    1    0    0    0  0.77487405516E+01  0.39007775452E+01  0.24769507013E+02  0.26244761825E+02  0.00000000000E+00 0. -1.
</event>
<event>
 5    1  0.8902899E-005  0.9118800E+02  0.7818608E-02  0.1130116E+00
         25   -1    0    0    0    0  0.00000000000E+00  0.00000000000E+00  0.99999998245E-14  0.12500000000E+03  0.12500000000E+03 0.  0.
        -11    1    3    3    0    0 -0.31288438313E+02 -0.40777374478E+02 -0.33538777240E+02  0.61372715602E+02  0.51100000000E-03 0.  1.
         23    2    1    0    0    0 -0.20847067943E+02 -0.13489118683E+02 -0.16312694842E+02  0.95290395868E+02  0.90540592924E+02 0.  0.
         11    1    3    3    0    0  0.10441370370E+02  0.27288255795E+02  0.17226082399E+02  0.33917680266E+02  0.51100000000E-03 0. -1.
         22    1    1    0    0    0  0.20847067943E+02  0.13489118683E+02  0.16312694842E+02  0.29709604132E+02  0.00000000000E+00 0.  1.
</event>
<event>
 5    1  0.8902899E-005  0.9118800E+02  0.7818608E-02  0.1130116E+00
         25   -1    0    0    0    0  0.00000000000E+00  0.00000000000E+00  0.99999998245E-14  0.12500000000E+03  0.12500000000E+03 0.  0.
        -11    1    3    3    0    0 -0.18654525837E+02  0.56232553872E+02  0.89339173178E+01  0.59915827025E+02  0.51100000000E-03 0.  1.
         23    2    1    0    0    0 -0.10634522783E+02  0.21380204586E+02  0.15847031843E+02  0.96341063502E+02  0.91979703607E+02 0.  0.
         11    1    3    3    0    0  0.80200030534E+01 -0.34852349286E+02  0.69131145249E+01  0.36425236477E+02  0.51100000000E-03 0. -1.
         22    1    1    0    0    0  0.10634522783E+02 -0.21380204586E+02 -0.15847031843E+02  0.28658936498E+02  0.00000000000E+00 0.  1.
</event>
<event>
 5    1  0.8902899E-005  0.9118800E+02  0.7818608E-02  0.1130116E+00
         25   -1    0    0    0    0  0.00000000000E+00  0.00000000000E+00  0.99999998245E-14  0.12500000000E+03  0.12500000000E+03 0.  0.
        -11    1    3    3    0    0 -0.34003415371E+02 -0.49555712471E+01  0.14617960678E+02  0.37342666186E+02  0.51100000000E-03 0. -1.
         23    2    1    0    0    0  0.22223185811E+01  0.21855672854E+01 -0.29762825113E+02  0.95074406222E+02  0.90241905762E+02 0.  0.
         11    1    3    3    0    0  0.36225733952E+02  0.71411385325E+01 -0.44380785791E+02  0.57731740036E+02  0.51100000000E-03 0.  1.
         22    1    1    0    0    0 -0.22223185811E+01 -0.21855672854E+01  0.29762825113E+02  0.29925593778E+02  0.00000000000E+00 0.  1.
</event>
<event>
 5    1  0.8902899E-005  0.9118800E+02  0.7818608E-02  0.1130116E+00
         25   -1    0    0    0    0  0.00000000000E+00  0.00000000000E+00  0.99999998245E-14  0.12500000000E+03  0.12500000000E+03 0.  0.
        -11    1    3    3    0    0 -0.38042118433E+02  0.64344464893E+01  0.63104454558E+01  0.39095096861E+02  0.51100000000E-03 0. -1.
         23    2    1    0    0    0  0.73392105767E+01  0.25297338378E+02  0.21996216984E+02  0.90683052255E+02  0.83939043739E+02 0.  0.
         11    1    3    3    0    0  0.45381329009E+02  0.18862891889E+02  0.15685771528E+02  0.51587955394E+02  0.51100000000E-03 0.  1.
         22    1    1    0    0    0 -0.73392105767E+01 -0.25297338378E+02 -0.21996216984E+02  0.34316947745E+02  0.00000000000E+00 0.  1.
</event>
<event>
 5    1  0.8902899E-005  0.9118800E+02  0.7818608E-02  0.1130116E+00
         25   -1    0    0    0    0  0.00000000000E+00  0.00000000000E+00  0.99999998245E-14  0.12500000000E+03  0.12500000000E+03 0.  0.
        -11    1    3    3    0    0  0.25285837969E+02 -0.18958922449E+02 -0.53020707846E+02  0.61725276856E+02  0.51100000000E-03 0.  1.
         23    2    1    0    0    0  0.15407552354E+02 -0.13676827012E+02 -0.21296393153E+02  0.95369194611E+02  0.90649316891E+02 0.  0.
         11    1    3    3    0    0 -0.98782856152E+01  0.52820954371E+01  0.31724314693E+02  0.33643917755E+02  0.51100000000E-03 0. -1.
         22    1    1    0    0    0 -0.15407552354E+02  0.13676827012E+02  0.21296393153E+02  0.29630805389E+02  0.00000000000E+00 0.  1.
</event>
<event>
 5    1  0.8902899E-005  0.9118800E+02  0.7818608E-02  0.1130116E+00
         25   -1    0    0    0    0  0.00000000000E+00  0.00000000000E+00  0.99999998245E-14  0.12500000000E+03  0.12500000000E+03 0.  0.
        -11    1    3    3    0    0  0.79486987155E+01  0.45754616893E+02 -0.35499349829E+02  0.58454004284E+02  0.51100000000E-03 0. -1.
         23    2    1    0    0    0 -0.26565067575E+01  0.11239283143E+02 -0.27122802870E+02  0.95520770884E+02  0.90858091115E+02 0.  0.
         11    1    3    3    0    0 -0.10605205473E+02 -0.34515333750E+02  0.83765469585E+01  0.37066766600E+02  0.51100000000E-03 0.  1.
         22    1    1    0    0    0  0.26565067575E+01 -0.11239283143E+02  0.27122802870E+02  0.29479229116E+02  0.00000000000E+00 0. -1.
</event>
<event>
 5    1  0.8902899E-005  0.9118800E+02  0.7818608E-02  0.1130116E+00
         25   -1    0    0    0    0  0.00000000000E+00  0.00000000000E+00  0.99999998245E-14  0.12500000000E+03  0.12500000000E+03 0.  0.
        -11    1    3    3    0    0 -0.10217484164E+02  0.32344366459E+02  0.71191007853E+01  0.34658860635E+02  0.51100000000E-03 0.  1.
         23    2    1    0    0    0 -0.12996773669E+01 -0.26367449960E+02 -0.10479150221E+02  0.96596757790E+02  0.92326537071E+02 0.  0.
         11    1    3    3    0    0  0.89178067972E+01 -0.58711816419E+02 -0.17598251007E+02  0.61937897155E+02  0.51100000000E-03 0. -1.
         22    1    1    0    0    0  0.12996773669E+01  0.26367449960E+02  0.10479150221E+02  0.28403242210E+02  0.00000000000E+00 0. -1.
</event>
<event>
 5    1  0.8902899E-005  0.9118800E+02  0.7818608E-02  0.1130116E+00
         25   -1    0    0    0    0  0.00000000000E+00  0.00000000000E+00  0.99999998245E-14  0.12500000000E+03  0.12500000000E+03 0.  0.
        -11    1    3    3    0    0 -0.19149819216E+02 -0.32243690163E+02  0.12411107750E+02  0.39501983839E+02  0.51100000000E-03 0.  1.
         23    2    1    0    0    0 -0.27911169793E+01  0.31831360857E+01 -0.28586804008E+02  0.96101417808E+02  0.91653447573E+02 0.  0.
         11    1    3    3    0    0  0.16358702236E+02  0.35426826249E+02 -0.40997911757E+02  0.56599433970E+02  0.51100000000E-03 0. -1.
         22    1    1    0    0    0  0.27911169793E+01 -0.31831360857E+01  0.28586804008E+02  0.28898582192E+02  0.00000000000E+00 0. -1.
</event>
<event>
 5    1  0.8902899E-005  0.9118800E+02  0.7818608E-02  0.1130116E+00
         25   -1    0    0    0    0  0.00000000000E+00  0.00000000000E+00  0.99999998245E-14  0.12500000000E+03  0.12500000000E+03 0.  0.
        -11    1    3    3    0    0  0.41319954376E+02 -0.41094177200E+02 -0.15453836803E+02  0.60290058066E+02  0.51100000000E-03 0.  1.
         23    2    1    0    0    0  0.23108560585E+02 -0.19724653584E+02  0.38676727688E+01  0.94372782955E+02  0.89264750818E+02 0.  0.
         11    1    3    3    0    0 -0.18211393791E+02  0.21369523617E+02  0.19321509572E+02  0.34082724889E+02  0.51100000000E-03 0. -1.
         22    1    1    0    0    0 -0.23108560585E+02  0.19724653584E+02 -0.38676727688E+01  0.30627217045E+02  0.00000000000E+00 0.  1.
</event>
<event>
 5    1  0.8902899E-005  0.9118800E+02  0.7818608E-02  0.1130116E+00
         25   -1    0    0    0    0  0.00000000000E+00  0.00000000000E+00  0.99999998245E-14  0.12500000000E+03  0.12500000000E+03 0.  0.
        -11    1    3    3    0    0  0.19809865118E+02  0.78769084592E+01  0.33653419540E+02  0.39837533682E+02  0.51100000000E-03 0. -1.
         23    2    1    0    0    0 -0.13273800594E+02 -0.26711711227E+02  0.81158075830E+01  0.94087613622E+02  0.88864522760E+02 0.  0.
         11    1    3    3    0    0 -0.33083665712E+02 -0.34588619686E+02 -0.25537611957E+02  0.54250079940E+02  0.51100000000E-03 0.  1.
         22    1    1    0    0    0  0.13273800594E+02  0.26711711227E+02 -0.81158075830E+01  0.30912386378E+02  0.00000000000E+00 0.  1.
</event>
<event>
 5    1  0.8902899E-005  0.9118800E+02  0.7818608E-02  0.1130116E+00
         25   -1    0    0    0    0  0.00000000000E+00  0.00000000000E+00  0.99999998245E-14  0.12500000000E+03  0.12500000000E+03 0.  0.
        -11    1    3    3    0    0  0.25488421693E+02 -0.22995171688E+02 -0.12984777323E+02  0.36702070837E+02  0.51100000000E-03 0. -1.
         23    2    1    0    0    0 -0.26833678819E+02 -0.16148955644E+02  0.66116231610E+01  0.92991428520E+02  0.87308975082E+02 0.  0.
         11    1    3    3    0    0 -0.52322100512E+02  0.68462160436E+01  0.19596400484E+02  0.56289357683E+02  0.51100000000E-03 0.  1.
         22    1    1    0    0    0  0.26833678819E+02  0.16148955644E+02 -0.66116231610E+01  0.32008571480E+02  0.00000000000E+00 0.  1.
</event>
<event>
 5    1  0.8902899E-005  0.9118800E+02  0.7818608E-02  0.1130116E+00
         25   -1    0    0    0    0  0.00000000000E+00  0.00000000000E+00  0.99999998245E-14  0.12500000000E+03  0.12500000000E+03 0.  0.
        -11    1    3    3    0    0  0.21050904021E+02 -0.28936825323E+02  0.18215574084E+02  0.40153300728E+02  0.51100000000E-03 0. -1.
         23    2    1    0    0    0  0.34372110325E+01  0.23953379629E+02  0.16090935539E+02  0.95939769068E+02  0.91432719892E+02 0.  0.
         11    1    3    3    0    0 -0.17613692988E+02  0.52890204952E+02 -0.21246385454E+01  0.55786468340E+02  0.51100000000E-03 0.  1.
         22    1    1    0    0    0 -0.34372110325E+01 -0.23953379629E+02 -0.16090935539E+02  0.29060230932E+02  0.00000000000E+00 0.  1.
</event>
<event>
 5    1  0.8902899E-005  0.9118800E+02  0.7818608E-02  0.1130116E+00
         25   -1    0    0    0    0  0.00000000000E+00  0.00000000000E+00  0.99999998245E-14  0.12500000000E+03  0.12500000000E+03 0.  0.
        -11    1    3    3    0    0  0.14618458567E+02 -0.10196232886E+02 -0.35674635550E+02  0.39879093744E+02  0.51100000000E-03 0. -1.
         23    2    1    0    0    0  0.18854083046E+02 -0.14308517462E+02  0.18862266886E+02  0.94734586876E+02  0.89769965573E+02 0.  0.
         11    1    3    3    0    0  0.42356244787E+01 -0.41122845760E+01  0.54536902436E+02  0.54855493132E+02  0.51100000000E-03 0.  1.
         22    1    1    0    0    0 -0.18854083046E+02  0.14308517462E+02 -0.18862266886E+02  0.30265413124E+02  0.00000000000E+00 0.  1.
</event>
<event>
 5    1  0.8902899E-005  0.9118800E+02  0.7818608E-02  0.1130116E+00
         25   -1    0    0    0    0  0.00000000000E+00  0.00000000000E+00  0.99999998245E-14  0.12500000000E+03  0.12500000000E+03 0.  0.
        -11    1    3    3    0    0  0.44224137341E+02  0.38764942789E+02 -0.12493893091E+02  0.60121481002E+02  0.51100000000E-03 0.  1.
         23    2    1    0    0    0  0.15246366061E+02  0.20072111043E+02 -0.16554973044E+02  0.94843600144E+02  0.89921632748E+02 0.  0.
         11    1    3    3    0    0 -0.28977771281E+02 -0.18692831746E+02 -0.40610799528E+01  0.34722119142E+02  0.51100000000E-03 0. -1.
         22    1    1    0    0    0 -0.15246366061E+02 -0.20072111043E+02  0.16554973044E+02  0.30156399856E+02  0.00000000000E+00 0.  1.
</event>
<event>
 5    1  0.8902899E-005  0.9118800E+02  0.7818608E-02  0.1130116E+00
         25   -1    0    0    0    0  0.00000000000E+00  0.00000000000E+00  0.99999998245E-14  0.12500000000E+03  0.12500000000E+03 0.  0.
        -11    1    3    3    0    0  0.33519768898E+02 -0.48210673733E+01  0.66202579988E+01  0.34505730160E+02  0.51100000000E-03 0. -1.
         23    2    1    0    0    0 -0.27410656591E+02 -0.60728932319E+01 -0.48212031282E+01  0.96513720381E+02  0.92214045000E+02 0.  0.
         11    1    3    3    0    0 -0.60930425489E+02 -0.12518258586E+01 -0.11441461127E+02  0.62007990221E+02  0.51100000000E-03 0.  1.
         22    1    1    0    0    0  0.27410656591E+02  0.60728932319E+01  0.48212031282E+01  0.28486279619E+02  0.00000000000E+00 0.  1.
</event>
<event>
 5    1  0.8902899E-005  0.9118800E+02  0.7818608E-02  0.1130116E+00
         25   -1    0    0    0    0  0.00000000000E+00  0.00000000000E+00  0.99999998245E-14  0.12500000000E+03  0.12500000000E+03 0.  0.
        -11    1    3    3    0    0  0.12051288454E+02  0.31099023327E+02 -0.27807650003E+02  0.43424050989E+02  0.51100000000E-03 0.  1.
         23    2    1    0    0    0  0.21907117578E+02  0.93948248150E+01  0.18045520666E+02  0.95103087952E+02  0.90281625971E+02 0.  0.
         11    1    3    3    0    0  0.98558291235E+01 -0.21704198512E+02  0.45853170669E+02  0.51679036963E+02  0.51100000000E-03 0. -1.
         22    1    1    0    0    0 -0.21907117578E+02 -0.93948248150E+01 -0.18045520666E+02  0.29896912048E+02  0.00000000000E+00 0. -1.
</event>
<event>
 5    1  0.8902899E-005  0.9118800E+02  0.7818608E-02  0.1130116E+00
         25   -1    0    0    0    0  0.00000000000E+00  0.00000000000E+00  0.99999998245E-14  0.12500000000E+03  0.12500000000E+03 0.  0.
        -11    1    3    3    0    0  0.11498460544E+02  0.14068499567E+02  0.46810810050E+02  0.50213436576E+02  0.51100000000E-03 0.  1.
         23    2    1    0    0    0  0.52834226466E+01 -0.21509197958E+02  0.19448189112E+02  0.95524718638E+02  0.90863522161E+02 0.  0.
         11    1    3    3    0    0 -0.62150378969E+01 -0.35577697525E+02 -0.27362620939E+02  0.45311282062E+02  0.51100000000E-03 0. -1.
         22    1    1    0    0    0 -0.52834226466E+01  0.21509197958E+02 -0.19448189112E+02  0.29475281362E+02  0.00000000000E+00 0. -1.
</event>
<event>
 5    1  0.8902899E-005  0.9118800E+02  0.7818608E-02  0.1130116E+00
         25   -1    0    0    0    0  0.00000000000E+00  0.00000000000E+00  0.99999998245E-14  0.12500000000E+03  0.12500000000E+03 0.  0.
        -11    1    3    3    0    0 -0.47174011809E+02 -0.11135624680E+02 -0.98661438717E+01  0.49464434923E+02  0.51100000000E-03 0.  1.
         23    2    1    0    0    0 -0.36585842731E+02 -0.12543420893E+02  0.20196248935E+02  0.81368018988E+02  0.68680453893E+02 0.  0.
         11    1    3    3    0    0  0.10588169078E+02 -0.14077962128E+01  0.30062392807E+02  0.31903584064E+02  0.51100000000E-03 0. -1.
         22    1    1    0    0    0  0.36585842731E+02  0.12543420893E+02 -0.20196248935E+02  0.43631981012E+02  0.00000000000E+00 0.  1.
</event>
<event>
 4    1  0.8902899E-005  0.9118800E+02  0.7818608E-02  0.1130116E+00
         25   -1    0    0    0    0  0.00000000000E+00  0.00000000000E+00  0.99999998245E-14  0.12500000000E+03  0.12500000000E+03 0.  0.
        -11    1    1    0    0    0  0.19605894834E+02 -0.67749478831E+01 -0.23163448665E+01  0.20872385701E+02  0.51100000000E-03 0.  1.
         11    1    1    0    0    0  0.10849165091E+02 -0.33889018725E+02 -0.27722093680E+02  0.45107476671E+02  0.51100000000E-03 0. -1.
         22    1    1    0    0    0 -0.30455059924E+02  0.40663966608E+02  0.30038438547E+02  0.59020137628E+02  0.00000000000E+00 0. -1.
</event>
<event>
 5    1  0.8902899E-005  0.9118800E+02  0.7818608E-02  0.1130116E+00
         25   -1    0    0    0    0  0.00000000000E+00  0.00000000000E+00  0.99999998245E-14  0.12500000000E+03  0.12500000000E+03 0.  0.
        -11    1    3    3    0    0  0.32581099386E+02 -0.35221082416E+02  0.17623318516E+02  0.51113931951E+02  0.51100000000E-03 0. -1.
         23    2    1    0    0    0 -0.60808016145E+01 -0.12219693359E+02  0.24821845103E+02  0.96672962590E+02  0.92429652426E+02 0.  0.
         11    1    3    3    0    0 -0.38661901000E+02  0.23001389057E+02  0.71985265874E+01  0.45559030639E+02  0.51100000000E-03 0.  1.
         22    1    1    0    0    0  0.60808016145E+01  0.12219693359E+02 -0.24821845103E+02  0.28327037410E+02  0.00000000000E+00 0. -1.
</event>
<event>
 5    1  0.8902899E-005  0.9118800E+02  0.7818608E-02  0.1130116E+00
         25   -1    0    0    0    0  0.00000000000E+00  0.00000000000E+00  0.99999998245E-14  0.12500000000E+03  0.12500000000E+03 0.  0.
        -11    1    3    3    0    0 -0.53825963231E+02 -0.26438476825E+02  0.43263102920E+01  0.60124407154E+02  0.51100000000E-03 0. -1.
         23    2    1    0    0    0 -0.27229085698E+02 -0.29396210830E+01  0.95456219120E+01  0.95996838487E+02  0.91510707689E+02 0.  0.
         11    1    3    3    0    0  0.26596877533E+02  0.23498855742E+02  0.52193116200E+01  0.35872431333E+02  0.51100000000E-03 0.  1.
         22    1    1    0    0    0  0.27229085698E+02  0.29396210830E+01 -0.95456219120E+01  0.29003161513E+02  0.00000000000E+00 0. -1.
</event>
<event>
 5    1  0.8902899E-005  0.9118800E+02  0.7818608E-02  0.1130116E+00
         25   -1    0    0    0    0  0.00000000000E+00  0.00000000000E+00  0.99999998245E-14  0.12500000000E+03  0.12500000000E+03 0.  0.
        -11    1    3    3    0    0  0.22127315976E+02 -0.30322304689E+02 -0.46054658084E+02  0.59414575698E+02  0.51100000000E-03 0.  1.
         23    2    1    0    0    0  0.13638225263E+02 -0.23440539055E+02 -0.11701845742E+02  0.95463696012E+02  0.90779535156E+02 0.  0.
         11    1    3    3    0    0 -0.84890907129E+01  0.68817656345E+01  0.34352812342E+02  0.36049120314E+02  0.51100000000E-03 0. -1.
         22    1    1    0    0    0 -0.13638225263E+02  0.23440539055E+02  0.11701845742E+02  0.29536303988E+02  0.00000000000E+00 0.  1.
</event>
<event>
 5    1  0.8902899E-005  0.9118800E+02  0.7818608E-02  0.1130116E+00
         25   -1    0    0    0    0  0.00000000000E+00  0.00000000000E+00  0.99999998245E-14  0.12500000000E+03  0.12500000000E+03 0.  0.
        -11    1    3    3    0    0 -0.31194289924E+02  0.19733586273E+02  0.29070726306E+02  0.46985160202E+02  0.51100000000E-03 0. -1.
         23    2    1    0    0    0 -0.20515838752E+02  0.13750822443E+02 -0.17236125114E+02  0.94882417651E+02  0.89975576758E+02 0.  0.
         11    1    3    3    0    0  0.10678451172E+02 -0.59827638294E+01 -0.46306851420E+02  0.47897257449E+02  0.51100000000E-03 0.  1.
         22    1    1    0    0    0  0.20515838752E+02 -0.13750822443E+02  0.17236125114E+02  0.30117582349E+02  0.00000000000E+00 0. -1.
</event>
<event>
 5    1  0.8902899E-005  0.9118800E+02  0.7818608E-02  0.1130116E+00
         25   -1    0    0    0    0  0.00000000000E+00  0.00000000000E+00  0.99999998245E-14  0.12500000000E+03  0.12500000000E+03 0.  0.
        -11    1    3    3    0    0 -0.11659817191E+02 -0.12481734698E+02 -0.33602826678E+02  0.37694760896E+02  0.51100000000E-03 0. -1.
         23    2    1    0    0    0 -0.13907453676E+02  0.20274565196E+02  0.14889358798E+02  0.96256857043E+02  0.91865196133E+02 0.  0.
         11    1    3    3    0    0 -0.22476364854E+01  0.32756299894E+02  0.48492185476E+02  0.58562096146E+02  0.51100000000E-03 0.  1.
         22    1    1    0    0    0  0.13907453676E+02 -0.20274565196E+02 -0.14889358798E+02  0.28743142957E+02  0.00000000000E+00 0.  1.
</event>
<event>
 5    1  0.8902899E-005  0.9118800E+02  0.7818608E-02  0.1130116E+00
         25   -1    0    0    0    0  0.00000000000E+00  0.00000000000E+00  0.99999998245E-14  0.12500000000E+03  0.12500000000E+03 0.  0.
        -11    1    3    3    0    0 -0.21357035578E+02  0.14008035861E+02  0.50947151469E+02  0.56990878923E+02  0.51100000000E-03 0. -1.
         23    2    1    0    0    0 -0.13893375103E+01 -0.94913566482E+01  0.27923221557E+02  0.95475054414E+02  0.90795173900E+02 0.  0.
         11    1    3    3    0    0  0.19967698067E+02 -0.23499392509E+02 -0.23023929912E+02  0.38484175492E+02  0.51100000000E-03 0.  1.
         22    1    1    0    0    0  0.13893375103E+01  0.94913566482E+01 -0.27923221557E+02  0.29524945586E+02  0.00000000000E+00 0. -1.
</event>
<event>
 5    1  0.8902899E-005  0.9118800E+02  0.7818608E-02  0.1130116E+00
         25   -1    0    0    0    0  0.00000000000E+00  0.00000000000E+00  0.99999998245E-14  0.12500000000E+03  0.12500000000E+03 0.  0.
        -11    1    3    3    0    0 -0.68834848361E+01 -0.53445899715E+02  0.25263254032E+02  0.59515364104E+02  0.51100000000E-03 0. -1.
         23    2    1    0    0    0  0.81844122348E+01 -0.20795122925E+02  0.18237327059E+02  0.96155211227E+02  0.91726783475E+02 0.  0.
         11    1    3    3    0    0  0.15067897071E+02  0.32650776790E+02 -0.70259269725E+01  0.36639847123E+02  0.51100000000E-03 0.  1.
         22    1    1    0    0    0 -0.81844122348E+01  0.20795122925E+02 -0.18237327059E+02  0.28844788773E+02  0.00000000000E+00 0. -1.
</event>
<event>
 5    1  0.8902899E-005  0.9118800E+02  0.7818608E-02  0.1130116E+00
         25   -1    0    0    0    0  0.00000000000E+00  0.00000000000E+00  0.99999998245E-14  0.12500000000E+03  0.12500000000E+03 0.  0.
        -11    1    3    3    0    0  0.41886800473E+02 -0.40311345942E+02 -0.15562214877E+01  0.58154367773E+02  0.51100000000E-03 0.  1.
         23    2    1    0    0    0  0.22131820369E+02 -0.11926758959E+02 -0.15525514432E+02  0.95451621864E+02  0.90762907985E+02 0.  0.
         11    1    3    3    0    0 -0.19754980104E+02  0.28384586983E+02 -0.13969292944E+02  0.37297254091E+02  0.51100000000E-03 0. -1.
         22    1    1    0    0    0 -0.22131820369E+02  0.11926758959E+02  0.15525514432E+02  0.29548378136E+02  0.00000000000E+00 0.  1.
</event>
<event>
 5    1  0.8902899E-005  0.9118800E+02  0.7818608E-02  0.1130116E+00
         25   -1    0    0    0    0  0.00000000000E+00  0.00000000000E+00  0.99999998245E-14  0.12500000000E+03  0.12500000000E+03 0.  0.
        -11    1    3    3    0    0 -0.16267103884E+02 -0.49123353913E+02  0.23699517163E+02  0.56915636538E+02  0.51100000000E-03 0. -1.
         23    2    1    0    0    0 -0.21736919059E+02 -0.10971726010E+02  0.14915761119E+02  0.96445624650E+02  0.92121692139E+02 0.  0.
         11    1    3    3    0    0 -0.54698151751E+01  0.38151627903E+02 -0.87837560432E+01  0.39529988113E+02  0.51100000000E-03 0.  1.
         22    1    1    0    0    0  0.21736919059E+02  0.10971726010E+02 -0.14915761119E+02  0.28554375350E+02  0.00000000000E+00 0. -1.
</event>
<event>
 5    1  0.8902899E-005  0.9118800E+02  0.7818608E-02  0.1130116E+00
         25   -1    0    0    0    0  0.00000000000E+00  0.00000000000E+00  0.99999998245E-14  0.12500000000E+03  0.12500000000E+03 0.  0.
        -11    1    3    3    0    0 -0.22899198650E+02 -0.38623728557E+02  0.69262901203E+01  0.45432798742E+02  0.51100000000E-03 0. -1.
         23    2    1    0    0    0 -0.18889807480E+02  0.41662760871E+01 -0.20813822006E+02  0.96585252604E+02  0.92310958997E+02 0.  0.
         11    1    3    3    0    0  0.40093911698E+01  0.42790004644E+02 -0.27740112127E+02  0.51152453862E+02  0.51100000000E-03 0.  1.
         22    1    1    0    0    0  0.18889807480E+02 -0.41662760871E+01  0.20813822006E+02  0.28414747396E+02  0.00000000000E+00 0.  1.
</event>
<event>
 5    1  0.8902899E-005  0.9118800E+02  0.7818608E-02  0.1130116E+00
         25   -1    0    0    0    0  0.00000000000E+00  0.00000000000E+00  0.99999998245E-14  0.12500000000E+03  0.12500000000E+03 0.  0.
        -11    1    3    3    0    0 -0.23204025431E+01 -0.40367790216E+02  0.40018661018E+02  0.56889682587E+02  0.51100000000E-03 0.  1.
         23    2    1    0    0    0  0.62460788778E+01 -0.38153006084E+01  0.27619584409E+02  0.96427085150E+02  0.92096532440E+02 0.  0.
         11    1    3    3    0    0  0.85664814209E+01  0.36552489608E+02 -0.12399076608E+02  0.39537402563E+02  0.51100000000E-03 0. -1.
         22    1    1    0    0    0 -0.62460788778E+01  0.38153006084E+01 -0.27619584409E+02  0.28572914850E+02  0.00000000000E+00 0.  1.
</event>
<event>
 5    1  0.8902899E-005  0.9118800E+02  0.7818608E-02  0.1130116E+00
         25   -1    0    0    0    0  0.00000000000E+00  0.00000000000E+00  0.99999998245E-14  0.12500000000E+03  0.12500000000E+03 0.  0.
        -11    1    3    3    0    0 -0.40100003334E+02  0.61366806372E+01 -0.10495004744E+02  0.41902437178E+02  0.51100000000E-03 0. -1.
         23    2    1    0    0    0 -0.43683219853E+01  0.11206010077E+01  0.29146774770E+02  0.95506399625E+02  0.90838317391E+02 0.  0.
         11    1    3    3    0    0  0.35731681348E+02 -0.50160796295E+01  0.39641779514E+02  0.53603962448E+02  0.51100000000E-03 0.  1.
         22    1    1    0    0    0  0.43683219853E+01 -0.11206010077E+01 -0.29146774770E+02  0.29493600375E+02  0.00000000000E+00 0.  1.
</event>
<event>
 5    1  0.8902899E-005  0.9118800E+02  0.7818608E-02  0.1130116E+00
         25   -1    0    0    0    0  0.00000000000E+00  0.00000000000E+00  0.99999998245E-14  0.12500000000E+03  0.12500000000E+03 0.  0.
        -11    1    3    3    0    0  0.20187780316E+02 -0.23321862638E+02 -0.25155877623E+02  0.39802938713E+02  0.51100000000E-03 0. -1.
         23    2    1    0    0    0  0.10724555930E+02  0.27242830676E+02 -0.39015123629E+01  0.95463417228E+02  0.90779151280E+02 0.  0.
         11    1    3    3    0    0 -0.94632243856E+01  0.50564693313E+02  0.21254365261E+02  0.55660478515E+02  0.51100000000E-03 0.  1.
         22    1    1    0    0    0 -0.10724555930E+02 -0.27242830676E+02  0.39015123629E+01  0.29536582772E+02  0.00000000000E+00 0.  1.
</event>
<event>
 5    1  0.8902899E-005  0.9118800E+02  0.7818608E-02  0.1130116E+00
         25   -1    0    0    0    0  0.00000000000E+00  0.00000000000E+00  0.99999998245E-14  0.12500000000E+03  0.12500000000E+03 0.  0.
        -11    1    3    3    0    0  0.50952404204E+02 -0.94219122607E+01  0.54599030868E+00  0.51819089441E+02  0.51100000000E-03 0.  1.
         23    2    1    0    0    0  0.10673294710E+02 -0.25403039313E+02 -0.86544216249E+01  0.96118645462E+02  0.91676940205E+02 0.  0.
         11    1    3    3    0    0 -0.40279109495E+02 -0.15981127053E+02 -0.92004119336E+01  0.44299556020E+02  0.51100000000E-03 0. -1.
         22    1    1    0    0    0 -0.10673294710E+02  0.25403039313E+02  0.86544216249E+01  0.28881354538E+02  0.00000000000E+00 0.  1.
</event>
<event>
 5    1  0.8902899E-005  0.9118800E+02  0.7818608E-02  0.1130116E+00
         25   -1    0    0    0    0  0.00000000000E+00  0.00000000000E+00  0.99999998245E-14  0.12500000000E+03  0.12500000000E+03 0.  0.
        -11    1    3    3    0    0  0.79677387639E+01  0.31646028065E+02  0.13327021927E+02  0.35250042085E+02  0.51100000000E-03 0.  1.
         23    2    1    0    0    0  0.38713358331E-01 -0.85447798507E+01 -0.29364765677E+02  0.94417256097E+02  0.89327006130E+02 0.  0.
         11    1    3    3    0    0 -0.79290254055E+01 -0.40190807916E+02 -0.42691787604E+02  0.59167214011E+02  0.51100000000E-03 0. -1.
         22    1    1    0    0    0 -0.38713358331E-01  0.85447798507E+01  0.29364765677E+02  0.30582743903E+02  0.00000000000E+00 0. -1.
</event>
<event>
 5    1  0.8902899E-005  0.9118800E+02  0.7818608E-02  0.1130116E+00
         25   -1    0    0    0    0  0.00000000000E+00  0.00000000000E+00  0.99999998245E-14  0.12500000000E+03  0.12500000000E+03 0.  0.
        -11    1    3    3    0    0  0.18040223796E+02  0.40598835153E+02 -0.11156290781E+02  0.45805872055E+02  0.51100000000E-03 0.  1.
         23    2    1    0    0    0  0.18289964310E+02  0.57553794454E+01  0.23310368182E+02  0.94816884657E+02  0.89884487896E+02 0.  0.
         11    1    3    3    0    0  0.24974051393E+00 -0.34843455708E+02  0.34466658963E+02  0.49011012603E+02  0.51100000000E-03 0. -1.
         22    1    1    0    0    0 -0.18289964310E+02 -0.57553794454E+01 -0.23310368182E+02  0.30183115343E+02  0.00000000000E+00 0. -1.
</event>
<event>
 5    1  0.8902899E-005  0.9118800E+02  0.7818608E-02  0.1130116E+00
         25   -1    0    0    0    0  0.00000000000E+00  0.00000000000E+00  0.99999998245E-14  0.12500000000E+03  0.12500000000E+03 0.  0.
        -11    1    3    3    0    0 -0.36654281709E+02 -0.43124023903E+02  0.24443629789E+02  0.61649889236E+02  0.51100000000E-03 0. -1.
         23    2    1    0    0    0 -0.16063867920E+02 -0.17224548727E+02  0.17995436021E+02  0.95359341287E+02  0.90635728726E+02 0.  0.
         11    1    3    3    0    0  0.20590413789E+02  0.25899475176E+02 -0.64481937685E+01  0.33709452051E+02  0.51100000000E-03 0.  1.
         22    1    1    0    0    0  0.16063867920E+02  0.17224548727E+02 -0.17995436021E+02  0.29640658713E+02  0.00000000000E+00 0. -1.
</event>
<event>
 5    1  0.8902899E-005  0.9118800E+02  0.7818608E-02  0.1130116E+00
         25   -1    0    0    0    0  0.00000000000E+00  0.00000000000E+00  0.99999998245E-14  0.12500000000E+03  0.12500000000E+03 0.  0.
        -11    1    3    3    0    0 -0.30662620762E+02 -0.58355445988E+01 -0.22498578398E+02  0.38476433344E+02  0.51100000000E-03 0.  1.
         23    2    1    0    0    0 -0.13248230923E+02  0.15750256464E+02  0.24471962317E+02  0.93024022441E+02  0.87355627238E+02 0.  0.
         11    1    3    3    0    0  0.17414389839E+02  0.21585801062E+02  0.46970540714E+02  0.54547589096E+02  0.51100000000E-03 0. -1.
         22    1    1    0    0    0  0.13248230923E+02 -0.15750256464E+02 -0.24471962317E+02  0.31975977559E+02  0.00000000000E+00 0. -1.
</event>
<event>
 5    1  0.8902899E-005  0.9118800E+02  0.7818608E-02  0.1130116E+00
         25   -1    0    0    0    0  0.00000000000E+00  0.00000000000E+00  0.99999998245E-14  0.12500000000E+03  0.12500000000E+03 0.  0.
        -11    1    3    3    0    0 -0.35418329425E+02 -0.42256360743E+02  0.24039701661E+02  0.60149524842E+02  0.51100000000E-03 0.  1.
         23    2    1    0    0    0 -0.19810994858E+02 -0.10849265584E+02  0.18805080869E+02  0.95609301685E+02  0.90979807766E+02 0.  0.
         11    1    3    3    0    0  0.15607334567E+02  0.31407095159E+02 -0.52346207915E+01  0.35459776842E+02  0.51100000000E-03 0. -1.
         22    1    1    0    0    0  0.19810994858E+02  0.10849265584E+02 -0.18805080869E+02  0.29390698315E+02  0.00000000000E+00 0.  1.
</event>
<event>
 5    1  0.8902899E-005  0.9118800E+02  0.7818608E-02  0.1130116E+00
         25   -1    0    0    0    0  0.00000000000E+00  0.00000000000E+00  0.99999998245E-14  0.12500000000E+03  0.12500000000E+03 0.  0.
        -11    1    3    3    0    0  0.93964398906E+01  0.26667968837E+02  0.93908632875E+01  0.29793656339E+02  0.51100000000E-03 0. -1.
         23    2    1    0    0    0 -0.13288975461E+02 -0.27551880699E+02 -0.11717179499E+02  0.92243393120E+02  0.86231364827E+02 0.  0.
         11    1    3    3    0    0 -0.22685415352E+02 -0.54219849537E+02 -0.21108042786E+02  0.62449736781E+02  0.51100000000E-03 0.  1.
         22    1    1    0    0    0  0.13288975461E+02  0.27551880699E+02  0.11717179499E+02  0.32756606880E+02  0.00000000000E+00 0.  1.
</event>
<event>
 5    1  0.8902899E-005  0.9118800E+02  0.7818608E-02  0.1130116E+00
         25   -1    0    0    0    0  0.00000000000E+00  0.00000000000E+00  0.99999998245E-14  0.12500000000E+03  0.12500000000E+03 0.  0.
        -11    1    3    3    0    0  0.20664051430E+02 -0.38958835970E+02 -0.11956134348E+02  0.45691827174E+02  0.51100000000E-03 0. -1.
         23    2    1    0    0    0  0.12942918460E+02  0.53773953965E+01 -0.28177251528E+02  0.93529489626E+02  0.88075946811E+02 0.  0.
         11    1    3    3    0    0 -0.77211329704E+01  0.44336231366E+02 -0.16221117180E+02  0.47837662453E+02  0.51100000000E-03 0.  1.
         22    1    1    0    0    0 -0.12942918460E+02 -0.53773953965E+01  0.28177251528E+02  0.31470510374E+02  0.00000000000E+00 0.  1.
</event>
<event>
 5    1  0.8902899E-005  0.9118800E+02  0.7818608E-02  0.1130116E+00
         25   -1    0    0    0    0  0.00000000000E+00  0.00000000000E+00  0.99999998245E-14  0.12500000000E+03  0.12500000000E+03 0.  0.
        -11    1    3    3    0    0  0.25509127788E+01  0.19833511497E+02 -0.45260534899E+02  0.49481222236E+02  0.51100000000E-03 0. -1.
         23    2    1    0    0    0 -0.20617778528E+02 -0.96313847749E+01 -0.20213344430E+02  0.94562594441E+02  0.89530154753E+02 0.  0.
         11    1    3    3    0    0 -0.23168691307E+02 -0.29464896272E+02  0.25047190469E+02  0.45081372205E+02  0.51100000000E-03 0.  1.
         22    1    1    0    0    0  0.20617778528E+02  0.96313847749E+01  0.20213344430E+02  0.30437405559E+02  0.00000000000E+00 0. -1.
</event>
<event>
 5    1  0.8902899E-005  0.9118800E+02  0.7818608E-02  0.1130116E+00
         25   -1    0    0    0    0  0.00000000000E+00  0.00000000000E+00  0.99999998245E-14  0.12500000000E+03  0.12500000000E+03 0.  0.
        -11    1    3    3    0    0 -0.24785032695E+02  0.51552996637E+02  0.16037150983E+02  0.59407066246E+02  0.51100000000E-03 0. -1.
         23    2    1    0    0    0 -0.22608767449E+02  0.16202814975E+02  0.10572278414E+02  0.95243309164E+02  0.90475561843E+02 0.  0.
         11    1    3    3    0    0  0.21762652463E+01 -0.35350181663E+02 -0.54648725686E+01  0.35836242918E+02  0.51100000000E-03 0.  1.
         22    1    1    0    0    0  0.22608767449E+02 -0.16202814975E+02 -0.10572278414E+02  0.29756690836E+02  0.00000000000E+00 0. -1.
</event>
<event>
 5    1  0.8902899E-005  0.9118800E+02  0.7818608E-02  0.1130116E+00
         25   -1    0    0    0    0  0.00000000000E+00  0.00000000000E+00  0.99999998245E-14  0.12500000000E+03  0.12500000000E+03 0.  0.
        -11    1    3    3    0    0 -0.27154177306E+02  0.24828179197E+02 -0.34652635321E+02  0.50542981337E+02  0.51100000000E-03 0. -1.
         23    2    1    0    0    0 -0.16578520826E+02 -0.15830681648E+02 -0.18463467479E+02  0.95566049100E+02  0.90920362269E+02 0.  0.
         11    1    3    3    0    0  0.10575656480E+02 -0.40658860845E+02  0.16189167842E+02  0.45023067764E+02  0.51100000000E-03 0.  1.
         22    1    1    0    0    0  0.16578520826E+02  0.15830681648E+02  0.18463467479E+02  0.29433950900E+02  0.00000000000E+00 0.  1.
</event>
<event>
 5    1  0.8902899E-005  0.9118800E+02  0.7818608E-02  0.1130116E+00
         25   -1    0    0    0    0  0.00000000000E+00  0.00000000000E+00  0.99999998245E-14  0.12500000000E+03  0.12500000000E+03 0.  0.
        -11    1    3    3    0    0  0.23347369913E+02 -0.29086088903E+02 -0.18184985928E+02  0.41494505214E+02  0.51100000000E-03 0. -1.
         23    2    1    0    0    0 -0.13352801291E+01  0.21877860447E+02 -0.15443336912E+02  0.98187308867E+02  0.94455424497E+02 0.  0.
         11    1    3    3    0    0 -0.24682650042E+02  0.50963949350E+02  0.27416490154E+01  0.56692803653E+02  0.51100000000E-03 0.  1.
         22    1    1    0    0    0  0.13352801291E+01 -0.21877860447E+02  0.15443336912E+02  0.26812691133E+02  0.00000000000E+00 0.  1.
</event>
<event>
 5    1  0.8902899E-005  0.9118800E+02  0.7818608E-02  0.1130116E+00
         25   -1    0    0    0    0  0.00000000000E+00  0.00000000000E+00  0.99999998245E-14  0.12500000000E+03  0.12500000000E+03 0.  0.
        -11    1    3    3    0    0 -0.11788287625E+02  0.12050291596E+02  0.30674716139E+02  0.35001592294E+02  0.51100000000E-03 0. -1.
         23    2    1    0    0    0  0.22762385220E+02 -0.11476796604E+02 -0.13779869651E+02  0.96021941943E+02  0.91544991592E+02 0.  0.
         11    1    3    3    0    0  0.34550672844E+02 -0.23527088201E+02 -0.44454585789E+02  0.61020349648E+02  0.51100000000E-03 0.  1.
         22    1    1    0    0    0 -0.22762385220E+02  0.11476796604E+02  0.13779869651E+02  0.28978058057E+02  0.00000000000E+00 0.  1.
</event>
<event>
 5    1  0.8902899E-005  0.9118800E+02  0.7818608E-02  0.1130116E+00
         25   -1    0    0    0    0  0.00000000000E+00  0.00000000000E+00  0.99999998245E-14  0.12500000000E+03  0.12500000000E+03 0.  0.
        -11    1    3    3    0    0 -0.22897332592E+02 -0.46014578530E+02  0.30023342978E+02  0.59523360128E+02  0.51100000000E-03 0.  1.
         23    2    1    0    0    0 -0.46933897631E+01 -0.14500129602E+02  0.24229157237E+02  0.96375993879E+02  0.92027161588E+02 0.  0.
         11    1    3    3    0    0  0.18203942829E+02  0.31514448928E+02 -0.57941857403E+01  0.36852633751E+02  0.51100000000E-03 0. -1.
         22    1    1    0    0    0  0.46933897631E+01  0.14500129602E+02 -0.24229157237E+02  0.28624006121E+02  0.00000000000E+00 0.  1.
</event>
<event>
 5    1  0.8902899E-005  0.9118800E+02  0.7818608E-02  0.1130116E+00
         25   -1    0    0    0    0  0.00000000000E+00  0.00000000000E+00  0.99999998245E-14  0.12500000000E+03  0.12500000000E+03 0.  0.
        -11    1    3    3    0    0 -0.27715433067E+02 -0.86983555901E+01 -0.18975883235E+02  0.34697129058E+02  0.51100000000E-03 0. -1.
         23    2    1    0    0    0  0.21645003648E+02  0.18643494877E+02  0.49853362326E+01  0.96001040338E+02  0.91516447071E+02 0.  0.
         11    1    3    3    0    0  0.49360436714E+02  0.27341850467E+02  0.23961219468E+02  0.61303911280E+02  0.51100000000E-03 0.  1.
         22    1    1    0    0    0 -0.21645003648E+02 -0.18643494877E+02 -0.49853362326E+01  0.28998959662E+02  0.00000000000E+00 0.  1.
</event>
<event>
 5    1  0.8902899E-005  0.9118800E+02  0.7818608E-02  0.1130116E+00
         25   -1    0    0    0    0  0.00000000000E+00  0.00000000000E+00  0.99999998245E-14  0.12500000000E+03  0.12500000000E+03 0.  0.
        -11    1    3    3    0    0 -0.12387659019E+01  0.32777544890E+02 -0.23219443854E+02  0.40187617037E+02  0.51100000000E-03 0.  1.
         23    2    1    0    0    0  0.63070080256E+01  0.12814105102E+02  0.26834467037E+02  0.94601508903E+02  0.89584469780E+02 0.  0.
         11    1    3    3    0    0  0.75457739275E+01 -0.19963439788E+02  0.50053910891E+02  0.54413891866E+02  0.51100000000E-03 0. -1.
         22    1    1    0    0    0 -0.63070080256E+01 -0.12814105102E+02 -0.26834467037E+02  0.30398491097E+02  0.00000000000E+00 0. -1.
</event>
<event>
 5    1  0.8902899E-005  0.9118800E+02  0.7818608E-02  0.1130116E+00
         25   -1    0    0    0    0  0.00000000000E+00  0.00000000000E+00  0.99999998245E-14  0.12500000000E+03  0.12500000000E+03 0.  0.
        -11    1    3    3    0    0 -0.23347786626E+01  0.20093392121E+02  0.53397830917E+02  0.57100997761E+02  0.51100000000E-03 0.  1.
         23    2    1    0    0    0  0.15114807357E+02  0.62595738344E+00  0.25624929683E+02  0.95242879082E+02  0.90474967645E+02 0.  0.
         11    1    3    3    0    0  0.17449586019E+02 -0.19467434737E+02 -0.27772901234E+02  0.38141881321E+02  0.51100000000E-03 0. -1.
         22    1    1    0    0    0 -0.15114807357E+02 -0.62595738344E+00 -0.25624929683E+02  0.29757120918E+02  0.00000000000E+00 0.  1.
</event>
<event>
 5    1  0.8902899E-005  0.9118800E+02  0.7818608E-02  0.1130116E+00
         25   -1    0    0    0    0  0.00000000000E+00  0.00000000000E+00  0.99999998245E-14  0.12500000000E+03  0.12500000000E+03 0.  0.
        -11    1    3    3    0    0  0.51729008675E+02 -0.32576293258E+02 -0.54494669350E+01  0.61374277275E+02  0.51100000000E-03 0. -1.
         23    2    1    0    0    0  0.19775239619E+02 -0.16550726442E+02  0.52403524220E+01  0.98685594416E+02  0.95112557551E+02 0.  0.
         11    1    3    3    0    0 -0.31953769055E+02  0.16025566816E+02  0.10689819357E+02  0.37311317141E+02  0.51100000000E-03 0.  1.
         22    1    1    0    0    0 -0.19775239619E+02  0.16550726442E+02 -0.52403524220E+01  0.26314405584E+02  0.00000000000E+00 0. -1.
</event>
<event>
 5    1  0.8902899E-005  0.9118800E+02  0.7818608E-02  0.1130116E+00
         25   -1    0    0    0    0  0.00000000000E+00  0.00000000000E+00  0.99999998245E-14  0.12500000000E+03  0.12500000000E+03 0.  0.
        -11    1    3    3    0    0 -0.35326342661E+02  0.79770487245E+01 -0.43488659658E+02  0.56593703813E+02  0.51100000000E-03 0. -1.
         23    2    1    0    0    0 -0.20568951808E+02  0.18843630918E+02 -0.89319046389E+01  0.95709333822E+02  0.91117141393E+02 0.  0.
         11    1    3    3    0    0  0.14757390853E+02  0.10866582194E+02  0.34556755019E+02  0.39115630010E+02  0.51100000000E-03 0.  1.
         22    1    1    0    0    0  0.20568951808E+02 -0.18843630918E+02  0.89319046389E+01  0.29290666178E+02  0.00000000000E+00 0. -1.
</event>
<event>
 5    1  0.8902899E-005  0.9118800E+02  0.7818608E-02  0.1130116E+00
         25   -1    0    0    0    0  0.00000000000E+00  0.00000000000E+00  0.99999998245E-14  0.12500000000E+03  0.12500000000E+03 0.  0.
        -11    1    3    3    0    0 -0.15291109823E+02  0.31510382549E+02  0.15208446258E+02  0.38184016104E+02  0.51100000000E-03 0.  1.
         23    2    1    0    0    0  0.62771480813E+01 -0.55776892892E+01 -0.26003252767E+02  0.97674510795E+02  0.93774344565E+02 0.  0.
         11    1    3    3    0    0  0.21568257905E+02 -0.37088071838E+02 -0.41211699025E+02  0.59490494690E+02  0.51100000000E-03 0. -1.
         22    1    1    0    0    0 -0.62771480813E+01  0.55776892892E+01  0.26003252767E+02  0.27325489205E+02  0.00000000000E+00 0. -1.
</event>
<event>
 5    1  0.8902899E-005  0.9118800E+02  0.7818608E-02  0.1130116E+00
         25   -1    0    0    0    0  0.00000000000E+00  0.00000000000E+00  0.99999998245E-14  0.12500000000E+03  0.12500000000E+03 0.  0.
        -11    1    3    3    0    0 -0.13532961434E+02 -0.14336904142E+02 -0.28648630909E+02  0.34776887709E+02  0.51100000000E-03 0. -1.
         23    2    1    0    0    0  0.55928803618E+01  0.23458303142E+02  0.15794016375E+02  0.96172526120E+02  0.91750376185E+02 0.  0.
         11    1    3    3    0    0  0.19125841795E+02  0.37795207284E+02  0.44442647284E+02  0.61395638411E+02  0.51100000000E-03 0.  1.
         22    1    1    0    0    0 -0.55928803618E+01 -0.23458303142E+02 -0.15794016375E+02  0.28827473880E+02  0.00000000000E+00 0.  1.
</event>
<event>
 5    1  0.8902899E-005  0.9118800E+02  0.7818608E-02  0.1130116E+00
         25   -1    0    0    0    0  0.00000000000E+00  0.00000000000E+00  0.99999998245E-14  0.12500000000E+03  0.12500000000E+03 0.  0.
        -11    1    3    3    0    0  0.24859284551E+02  0.13358183963E+02 -0.22802009834E+02  0.36281631164E+02  0.51100000000E-03 0. -1.
         23    2    1    0    0    0  0.50624996965E+01 -0.22926314055E+02  0.18796745707E+02  0.94924055651E+02  0.90033404427E+02 0.  0.
         11    1    3    3    0    0 -0.19796784854E+02 -0.36284498017E+02  0.41598755541E+02  0.58642424487E+02  0.51100000000E-03 0.  1.
         22    1    1    0    0    0 -0.50624996965E+01  0.22926314055E+02 -0.18796745707E+02  0.30075944349E+02  0.00000000000E+00 0.  1.
</event>
<event>
 5    1  0.8902899E-005  0.9118800E+02  0.7818608E-02  0.1130116E+00
         25   -1    0    0    0    0  0.00000000000E+00  0.00000000000E+00  0.99999998245E-14  0.12500000000E+03  0.12500000000E+03 0.  0.
        -11    1    3    3    0    0  0.18483091302E+02 -0.26291116532E+02 -0.31327116827E+02  0.44880237539E+02  0.51100000000E-03 0.  1.
         23    2    1    0    0    0  0.12410320114E+02 -0.15267763238E+02  0.19533562307E+02  0.97274908547E+02  0.93240158391E+02 0.  0.
         11    1    3    3    0    0 -0.60727711881E+01  0.11023353294E+02  0.50860679135E+02  0.52394671008E+02  0.51100000000E-03 0. -1.
         22    1    1    0    0    0 -0.12410320114E+02  0.15267763238E+02 -0.19533562307E+02  0.27725091453E+02  0.00000000000E+00 0.  1.
</event>
<event>
 5    1  0.8902899E-005  0.9118800E+02  0.7818608E-02  0.1130116E+00
         25   -1    0    0    0    0  0.00000000000E+00  0.00000000000E+00  0.99999998245E-14  0.12500000000E+03  0.12500000000E+03 0.  0.
        -11    1    3    3    0    0 -0.20107343842E+01  0.29961207396E+02 -0.32014209893E+02  0.43893355268E+02  0.51100000000E-03 0.  1.
         23    2    1    0    0    0  0.11177604387E+02 -0.18624174196E+02 -0.19596082128E+02  0.95745852617E+02  0.91167226317E+02 0.  0.
         11    1    3    3    0    0  0.13188338772E+02 -0.48585381591E+02  0.12418127765E+02  0.51852497349E+02  0.51100000000E-03 0. -1.
         22    1    1    0    0    0 -0.11177604387E+02  0.18624174196E+02  0.19596082128E+02  0.29254147383E+02  0.00000000000E+00 0. -1.
</event>
<event>
 5    1  0.8902899E-005  0.9118800E+02  0.7818608E-02  0.1130116E+00
         25   -1    0    0    0    0  0.00000000000E+00  0.00000000000E+00  0.99999998245E-14  0.12500000000E+03  0.12500000000E+03 0.  0.
        -11    1    3    3    0    0 -0.16645307594E+02  0.22249519791E+02  0.17142040577E+02  0.32648996175E+02  0.51100000000E-03 0.  1.
         23    2    1    0    0    0 -0.56037120235E+01 -0.84428348949E+01 -0.31889642499E+02  0.91539092238E+02  0.85204301884E+02 0.  0.
         11    1    3    3    0    0  0.11041595570E+02 -0.30692354686E+02 -0.49031683076E+02  0.58890096064E+02  0.51100000000E-03 0. -1.
         22    1    1    0    0    0  0.56037120235E+01  0.84428348949E+01  0.31889642499E+02  0.33460907762E+02  0.00000000000E+00 0. -1.
</event>
<event>
 5    1  0.8902899E-005  0.9118800E+02  0.7818608E-02  0.1130116E+00
         25   -1    0    0    0    0  0.00000000000E+00  0.00000000000E+00  0.99999998245E-14  0.12500000000E+03  0.12500000000E+03 0.  0.
        -11    1    3    3    0    0  0.11077553304E+02  0.13135585933E+01  0.50367243326E+02  0.51587758469E+02  0.51100000000E-03 0.  1.
         23    2    1    0    0    0 -0.54680632941E+01 -0.22900533541E+02  0.17321027390E+02  0.95770697194E+02  0.91201284522E+02 0.  0.
         11    1    3    3    0    0 -0.16545616598E+02 -0.24214092134E+02 -0.33046215935E+02  0.44182938725E+02  0.51100000000E-03 0. -1.
         22    1    1    0    0    0  0.54680632941E+01  0.22900533541E+02 -0.17321027390E+02  0.29229302806E+02  0.00000000000E+00 0.  1.
</event>
<event>
 5    1  0.8902899E-005  0.9118800E+02  0.7818608E-02  0.1130116E+00
         25   -1    0    0    0    0  0.00000000000E+00  0.00000000000E+00  0.99999998245E-14  0.12500000000E+03  0.12500000000E+03 0.  0.
        -11    1    3    3    0    0  0.29957883581E+02  0.12267117169E+02 -0.42334560264E+02  0.53293263601E+02  0.51100000000E-03 0.  1.
         23    2    1    0    0    0  0.21039201868E+02 -0.16270829537E+02 -0.12217716667E+02  0.95731236623E+02  0.91147184026E+02 0.  0.
         11    1    3    3    0    0 -0.89186817130E+01 -0.28537946706E+02  0.30116843597E+02  0.42437973022E+02  0.51100000000E-03 0. -1.
         22    1    1    0    0    0 -0.21039201868E+02  0.16270829537E+02  0.12217716667E+02  0.29268763377E+02  0.00000000000E+00 0.  1.
</event>
<event>
 5    1  0.8902899E-005  0.9118800E+02  0.7818608E-02  0.1130116E+00
         25   -1    0    0    0    0  0.00000000000E+00  0.00000000000E+00  0.99999998245E-14  0.12500000000E+03  0.12500000000E+03 0.  0.
        -11    1    3    3    0    0 -0.79939232193E+00  0.21073411987E+02  0.52338205468E+02  0.56427081022E+02  0.51100000000E-03 0.  1.
         23    2    1    0    0    0  0.16598109599E+02  0.90304288421E+00  0.27607950395E+02  0.92774053098E+02  0.86997202682E+02 0.  0.
         11    1    3    3    0    0  0.17397501921E+02 -0.20170369102E+02 -0.24730255073E+02  0.36346972076E+02  0.51100000000E-03 0. -1.
         22    1    1    0    0    0 -0.16598109599E+02 -0.90304288421E+00 -0.27607950395E+02  0.32225946902E+02  0.00000000000E+00 0.  1.
</event>
<event>
 5    1  0.8902899E-005  0.9118800E+02  0.7818608E-02  0.1130116E+00
         25   -1    0    0    0    0  0.00000000000E+00  0.00000000000E+00  0.99999998245E-14  0.12500000000E+03  0.12500000000E+03 0.  0.
        -11    1    3    3    0    0  0.70727354995E+01 -0.19891894074E+02 -0.42796323912E+02  0.47720397923E+02  0.51100000000E-03 0. -1.
         23    2    1    0    0    0  0.27628355909E+02 -0.99724381257E+01 -0.68523570902E+00  0.95618966656E+02  0.90993085803E+02 0.  0.
         11    1    3    3    0    0  0.20555620410E+02  0.99194559482E+01  0.42111088203E+02  0.47898568733E+02  0.51100000000E-03 0.  1.
         22    1    1    0    0    0 -0.27628355909E+02  0.99724381257E+01  0.68523570902E+00  0.29381033344E+02  0.00000000000E+00 0. -1.
</event>
<event>
 5    1  0.8902899E-005  0.9118800E+02  0.7818608E-02  0.1130116E+00
         25   -1    0    0    0    0  0.00000000000E+00  0.00000000000E+00  0.99999998245E-14  0.12500000000E+03  0.12500000000E+03 0.  0.
        -11    1    3    3    0    0  0.17939897724E+02 -0.33066849651E+02 -0.79584632751E+01  0.38452485149E+02  0.51100000000E-03 0. -1.
         23    2    1    0    0    0 -0.26877868645E+02 -0.63081094739E+01  0.12726319508E+02  0.94599814536E+02  0.89582105545E+02 0.  0.
         11    1    3    3    0    0 -0.44817766369E+02  0.26758740177E+02  0.20684782783E+02  0.56147329386E+02  0.51100000000E-03 0.  1.
         22    1    1    0    0    0  0.26877868645E+02  0.63081094739E+01 -0.12726319508E+02  0.30400185464E+02  0.00000000000E+00 0.  1.
</event>
<event>
 5    1  0.8902899E-005  0.9118800E+02  0.7818608E-02  0.1130116E+00
         25   -1    0    0    0    0  0.00000000000E+00  0.00000000000E+00  0.99999998245E-14  0.12500000000E+03  0.12500000000E+03 0.  0.
        -11    1    3    3    0    0  0.24791509923E+02 -0.22574835471E+02 -0.21504341037E+02  0.39833137518E+02  0.51100000000E-03 0.  1.
         23    2    1    0    0    0 -0.26553813716E+02 -0.87182955542E+01 -0.40284910886E+00  0.97048685404E+02  0.92936383354E+02 0.  0.
         11    1    3    3    0    0 -0.51345323639E+02  0.13856539917E+02  0.21101491929E+02  0.57215547886E+02  0.51100000000E-03 0. -1.
         22    1    1    0    0    0  0.26553813716E+02  0.87182955542E+01  0.40284910886E+00  0.27951314596E+02  0.00000000000E+00 0. -1.
</event>
<event>
 5    1  0.8902899E-005  0.9118800E+02  0.7818608E-02  0.1130116E+00
         25   -1    0    0    0    0  0.00000000000E+00  0.00000000000E+00  0.99999998245E-14  0.12500000000E+03  0.12500000000E+03 0.  0.
        -11    1    3    3    0    0 -0.29027691122E+02 -0.28698056975E+02  0.17876934679E+02  0.44561980654E+02  0.51100000000E-03 0.  1.
         23    2    1    0    0    0  0.17595076133E+02 -0.13496616773E+02  0.21986869984E+02  0.93772322851E+02  0.88419911291E+02 0.  0.
         11    1    3    3    0    0  0.46622767255E+02  0.15201440202E+02  0.41099353052E+01  0.49210342197E+02  0.51100000000E-03 0. -1.
         22    1    1    0    0    0 -0.17595076133E+02  0.13496616773E+02 -0.21986869984E+02  0.31227677149E+02  0.00000000000E+00 0.  1.
</event>
<event>
 5    1  0.8902899E-005  0.9118800E+02  0.7818608E-02  0.1130116E+00
         25   -1    0    0    0    0  0.00000000000E+00  0.00000000000E+00  0.99999998245E-14  0.12500000000E+03  0.12500000000E+03 0.  0.
        -11    1    3    3    0    0  0.29835993850E+02  0.23175368456E+01 -0.56346656613E+00  0.29931171058E+02  0.51100000000E-03 0. -1.
         23    2    1    0    0    0 -0.31252478282E+02 -0.83352951810E+01 -0.57107852293E+01  0.92154793159E+02  0.86102835549E+02 0.  0.
         11    1    3    3    0    0 -0.61088472132E+02 -0.10652832027E+02 -0.51473186632E+01  0.62223622101E+02  0.51100000000E-03 0.  1.
         22    1    1    0    0    0  0.31252478282E+02  0.83352951810E+01  0.57107852293E+01  0.32845206841E+02  0.00000000000E+00 0.  1.
</event>
<event>
 5    1  0.8902899E-005  0.9118800E+02  0.7818608E-02  0.1130116E+00
         25   -1    0    0    0    0  0.00000000000E+00  0.00000000000E+00  0.99999998245E-14  0.12500000000E+03  0.12500000000E+03 0.  0.
        -11    1    3    3    0    0 -0.23035030943E+02  0.18136021340E+02 -0.13673717857E+02  0.32349628759E+02  0.51100000000E-03 0. -1.
         23    2    1    0    0    0 -0.11748156954E+02  0.75782946621E+01  0.37062941460E+02  0.85387989555E+02  0.75643885336E+02 0.  0.
         11    1    3    3    0    0  0.11286873989E+02 -0.10557726678E+02  0.50736659317E+02  0.53038360796E+02  0.51100000000E-03 0.  1.
         22    1    1    0    0    0  0.11748156954E+02 -0.75782946621E+01 -0.37062941460E+02  0.39612010445E+02  0.00000000000E+00 0.  1.
</event>
<event>
 5    1  0.8902899E-005  0.9118800E+02  0.7818608E-02  0.1130116E+00
         25   -1    0    0    0    0  0.00000000000E+00  0.00000000000E+00  0.99999998245E-14  0.12500000000E+03  0.12500000000E+03 0.  0.
        -11    1    3    3    0    0 -0.35871133449E+02  0.37495842083E+01 -0.13360659264E+02  0.38461731797E+02  0.51100000000E-03 0. -1.
         23    2    1    0    0    0  0.16456731938E+02  0.20612602168E+02  0.79905230770E+01  0.97440031690E+02  0.93461264289E+02 0.  0.
         11    1    3    3    0    0  0.52327865387E+02  0.16863017959E+02  0.21351182341E+02  0.58978299893E+02  0.51100000000E-03 0.  1.
         22    1    1    0    0    0 -0.16456731938E+02 -0.20612602168E+02 -0.79905230770E+01  0.27559968310E+02  0.00000000000E+00 0.  1.
</event>
<event>
 5    1  0.8902899E-005  0.9118800E+02  0.7818608E-02  0.1130116E+00
         25   -1    0    0    0    0  0.00000000000E+00  0.00000000000E+00  0.99999998245E-14  0.12500000000E+03  0.12500000000E+03 0.  0.
        -11    1    3    3    0    0  0.43624838608E+02  0.30711418701E+02  0.14294864862E+02  0.55232788667E+02  0.51100000000E-03 0.  1.
         23    2    1    0    0    0  0.56976656232E+01  0.17289163601E+02  0.22258478593E+02  0.96245549199E+02  0.91849808382E+02 0.  0.
         11    1    3    3    0    0 -0.37927172985E+02 -0.13422255100E+02  0.79636137308E+01  0.41012760533E+02  0.51100000000E-03 0. -1.
         22    1    1    0    0    0 -0.56976656232E+01 -0.17289163601E+02 -0.22258478593E+02  0.28754450801E+02  0.00000000000E+00 0.  1.
</event>
<event>
 5    1  0.8902899E-005  0.9118800E+02  0.7818608E-02  0.1130116E+00
         25   -1    0    0    0    0  0.00000000000E+00  0.00000000000E+00  0.99999998245E-14  0.12500000000E+03  0.12500000000E+03 0.  0.
        -11    1    3    3    0    0 -0.32753643666E+02 -0.29639484177E+01  0.25778913360E+02  0.41786822539E+02  0.51100000000E-03 0.  1.
         23    2    1    0    0    0  0.21688513566E+02 -0.58186718900E+01  0.16608996759E+02  0.97069598345E+02  0.92964507132E+02 0.  0.
         11    1    3    3    0    0  0.54442157232E+02 -0.28547234722E+01 -0.91699166006E+01  0.55282775806E+02  0.51100000000E-03 0. -1.
         22    1    1    0    0    0 -0.21688513566E+02  0.58186718900E+01 -0.16608996759E+02  0.27930401655E+02  0.00000000000E+00 0. -1.
</event>
<event>
 5    1  0.8902899E-005  0.9118800E+02  0.7818608E-02  0.1130116E+00
         25   -1    0    0    0    0  0.00000000000E+00  0.00000000000E+00  0.99999998245E-14  0.12500000000E+03  0.12500000000E+03 0.  0.
        -11    1    3    3    0    0 -0.58392935160E+01 -0.25193923677E+02  0.50131727682E+02  0.56409407545E+02  0.51100000000E-03 0.  1.
         23    2    1    0    0    0 -0.21406772138E+02 -0.64223355636E+01  0.22012809177E+02  0.93630268485E+02  0.88218859215E+02 0.  0.
         11    1    3    3    0    0 -0.15567478622E+02  0.18771588114E+02 -0.28118918505E+02  0.37220860940E+02  0.51100000000E-03 0. -1.
         22    1    1    0    0    0  0.21406772138E+02  0.64223355636E+01 -0.22012809177E+02  0.31369731515E+02  0.00000000000E+00 0.  1.
</event>
<event>
 5    1  0.8902899E-005  0.9118800E+02  0.7818608E-02  0.1130116E+00
         25   -1    0    0    0    0  0.00000000000E+00  0.00000000000E+00  0.99999998245E-14  0.12500000000E+03  0.12500000000E+03 0.  0.
        -11    1    3    3    0    0 -0.14322884815E+02 -0.32792152942E+02 -0.21509965181E+02  0.41751035034E+02  0.51100000000E-03 0.  1.
         23    2    1    0    0    0 -0.12524886978E+02 -0.39915258029E+02  0.16176686092E+02  0.80147064864E+02  0.66421127784E+02 0.  0.
         11    1    3    3    0    0  0.17979978370E+01 -0.71231050871E+01  0.37686651274E+02  0.38396029831E+02  0.51100000000E-03 0. -1.
         22    1    1    0    0    0  0.12524886978E+02  0.39915258029E+02 -0.16176686092E+02  0.44852935136E+02  0.00000000000E+00 0. -1.
</event>
<event>
 5    1  0.8902899E-005  0.9118800E+02  0.7818608E-02  0.1130116E+00
         25   -1    0    0    0    0  0.00000000000E+00  0.00000000000E+00  0.99999998245E-14  0.12500000000E+03  0.12500000000E+03 0.  0.
        -11    1    3    3    0    0 -0.10673541721E+02 -0.28231032705E+02  0.17093588928E+02  0.34685825393E+02  0.51100000000E-03 0.  1.
         23    2    1    0    0    0  0.17100115452E+02  0.96109038735E+01 -0.21820410761E+02  0.95658668273E+02  0.91047608800E+02 0.  0.
         11    1    3    3    0    0  0.27773657173E+02  0.37841936579E+02 -0.38913999689E+02  0.60972842880E+02  0.51100000000E-03 0. -1.
         22    1    1    0    0    0 -0.17100115452E+02 -0.96109038735E+01  0.21820410761E+02  0.29341331727E+02  0.00000000000E+00 0. -1.
</event>
<event>
 5    1  0.8902899E-005  0.9118800E+02  0.7818608E-02  0.1130116E+00
         25   -1    0    0    0    0  0.00000000000E+00  0.00000000000E+00  0.99999998245E-14  0.12500000000E+03  0.12500000000E+03 0.  0.
        -11    1    3    3    0    0 -0.24722404205E+02  0.49965464819E+01 -0.25731912009E+02  0.36031847612E+02  0.51100000000E-03 0.  1.
         23    2    1    0    0    0  0.31493918712E+01 -0.27214213808E+02  0.13958616415E+02  0.94253047719E+02  0.89096924356E+02 0.  0.
         11    1    3    3    0    0  0.27871796076E+02 -0.32210760290E+02  0.39690528424E+02  0.58221200107E+02  0.51100000000E-03 0. -1.
         22    1    1    0    0    0 -0.31493918712E+01  0.27214213808E+02 -0.13958616415E+02  0.30746952281E+02  0.00000000000E+00 0. -1.
</event>
<event>
 5    1  0.8902899E-005  0.9118800E+02  0.7818608E-02  0.1130116E+00
         25   -1    0    0    0    0  0.00000000000E+00  0.00000000000E+00  0.99999998245E-14  0.12500000000E+03  0.12500000000E+03 0.  0.
        -11    1    3    3    0    0  0.49654497530E+02 -0.19872627661E+02 -0.15478325308E+02  0.55678263350E+02  0.51100000000E-03 0.  1.
         23    2    1    0    0    0  0.20639741874E+02  0.38025189353E+01 -0.22988760328E+02  0.93872179706E+02  0.88560967285E+02 0.  0.
         11    1    3    3    0    0 -0.29014755656E+02  0.23675146597E+02 -0.75104350191E+01  0.38193916356E+02  0.51100000000E-03 0. -1.
         22    1    1    0    0    0 -0.20639741874E+02 -0.38025189353E+01  0.22988760328E+02  0.31127820294E+02  0.00000000000E+00 0.  1.
</event>
<event>
 5    1  0.8902899E-005  0.9118800E+02  0.7818608E-02  0.1130116E+00
         25   -1    0    0    0    0  0.00000000000E+00  0.00000000000E+00  0.99999998245E-14  0.12500000000E+03  0.12500000000E+03 0.  0.
        -11    1    3    3    0    0 -0.11519506610E+02 -0.10836140078E+02  0.44923402255E+02  0.47625970171E+02  0.51100000000E-03 0. -1.
         23    2    1    0    0    0 -0.21514659662E+02 -0.27519075162E+02  0.82944952792E+01  0.89097650075E+02  0.81543929994E+02 0.  0.
         11    1    3    3    0    0 -0.99951530527E+01 -0.16682935084E+02 -0.36628906976E+02  0.41471679904E+02  0.51100000000E-03 0.  1.
         22    1    1    0    0    0  0.21514659662E+02  0.27519075162E+02 -0.82944952792E+01  0.35902349925E+02  0.00000000000E+00 0.  1.
</event>
<event>
 5    1  0.8902899E-005  0.9118800E+02  0.7818608E-02  0.1130116E+00
         25   -1    0    0    0    0  0.00000000000E+00  0.00000000000E+00  0.99999998245E-14  0.12500000000E+03  0.12500000000E+03 0.  0.
        -11    1    3    3    0    0 -0.34835603519E+02 -0.30315042200E+02  0.31559423056E+02  0.55933158681E+02  0.51100000000E-03 0.  1.
         23    2    1    0    0    0 -0.16199546227E+02 -0.24354930345E+02 -0.29477437138E+01  0.95601409505E+02  0.90968963808E+02 0.  0.
         11    1    3    3    0    0  0.18636057292E+02  0.59601118549E+01 -0.34507166770E+02  0.39668250824E+02  0.51100000000E-03 0. -1.
         22    1    1    0    0    0  0.16199546227E+02  0.24354930345E+02  0.29477437138E+01  0.29398590495E+02  0.00000000000E+00 0.  1.
</event>
<event>
 5    1  0.8902899E-005  0.9118800E+02  0.7818608E-02  0.1130116E+00
         25   -1    0    0    0    0  0.00000000000E+00  0.00000000000E+00  0.99999998245E-14  0.12500000000E+03  0.12500000000E+03 0.  0.
        -11    1    3    3    0    0  0.91591298733E+01 -0.35711475387E+02  0.12093137531E+02  0.38800040077E+02  0.51100000000E-03 0.  1.
         23    2    1    0    0    0 -0.20050949972E+02 -0.23119951110E+01 -0.22287179318E+02  0.94931673174E+02  0.90043979774E+02 0.  0.
         11    1    3    3    0    0 -0.29210079845E+02  0.33399480276E+02 -0.34380316849E+02  0.56131633097E+02  0.51100000000E-03 0. -1.
         22    1    1    0    0    0  0.20050949972E+02  0.23119951110E+01  0.22287179318E+02  0.30068326826E+02  0.00000000000E+00 0. -1.
</event>
<event>
 5    1  0.8902899E-005  0.9118800E+02  0.7818608E-02  0.1130116E+00
         25   -1    0    0    0    0  0.00000000000E+00  0.00000000000E+00  0.99999998245E-14  0.12500000000E+03  0.12500000000E+03 0.  0.
        -11    1    3    3    0    0 -0.29885619220E+02 -0.39775359177E+02 -0.36846300734E+02  0.61910252074E+02  0.51100000000E-03 0.  1.
         23    2    1    0    0    0 -0.85111087100E+01 -0.21060256997E+02 -0.18204338697E+02  0.95890356518E+02  0.91365141763E+02 0.  0.
         11    1    3    3    0    0  0.21374510510E+02  0.18715102180E+02  0.18641962037E+02  0.33980104443E+02  0.51100000000E-03 0. -1.
         22    1    1    0    0    0  0.85111087100E+01  0.21060256997E+02  0.18204338697E+02  0.29109643482E+02  0.00000000000E+00 0.  1.
</event>
<event>
 5    1  0.8902899E-005  0.9118800E+02  0.7818608E-02  0.1130116E+00
         25   -1    0    0    0    0  0.00000000000E+00  0.00000000000E+00  0.99999998245E-14  0.12500000000E+03  0.12500000000E+03 0.  0.
        -11    1    3    3    0    0  0.39742537718E+02 -0.18357113909E+02 -0.36099846577E+01  0.43925902664E+02  0.51100000000E-03 0.  1.
         23    2    1    0    0    0  0.75841610399E+01  0.46723723048E+01  0.28668781640E+02  0.94979180519E+02  0.90109905835E+02 0.  0.
         11    1    3    3    0    0 -0.32158376678E+02  0.23029486214E+02  0.32278766297E+02  0.51053277855E+02  0.51100000000E-03 0. -1.
         22    1    1    0    0    0 -0.75841610399E+01 -0.46723723048E+01 -0.28668781640E+02  0.30020819481E+02  0.00000000000E+00 0. -1.
</event>
<event>
 5    1  0.8902899E-005  0.9118800E+02  0.7818608E-02  0.1130116E+00
         25   -1    0    0    0    0  0.00000000000E+00  0.00000000000E+00  0.99999998245E-14  0.12500000000E+03  0.12500000000E+03 0.  0.
        -11    1    3    3    0    0  0.18905887741E+02  0.29142665170E+02 -0.20716396067E+02  0.40446218497E+02  0.51100000000E-03 0. -1.
         23    2    1    0    0    0 -0.27145408763E+02  0.99048900723E-01 -0.10789522164E+02  0.95788755314E+02  0.91226031529E+02 0.  0.
         11    1    3    3    0    0 -0.46051296503E+02 -0.29043616269E+02  0.99268739030E+01  0.55342536817E+02  0.51100000000E-03 0.  1.
         22    1    1    0    0    0  0.27145408763E+02 -0.99048900723E-01  0.10789522164E+02  0.29211244686E+02  0.00000000000E+00 0.  1.
</event>
<event>
 5    1  0.8902899E-005  0.9118800E+02  0.7818608E-02  0.1130116E+00
         25   -1    0    0    0    0  0.00000000000E+00  0.00000000000E+00  0.99999998245E-14  0.12500000000E+03  0.12500000000E+03 0.  0.
        -11    1    3    3    0    0  0.17180976950E+02  0.23211775475E+02  0.52548829653E+02  0.59961254055E+02  0.51100000000E-03 0.  1.
         23    2    1    0    0    0  0.19180371318E+02  0.12871398477E+02  0.19105655772E+02  0.95023582183E+02  0.90171478560E+02 0.  0.
         11    1    3    3    0    0  0.19993943681E+01 -0.10340376998E+02 -0.33443173881E+02  0.35062328128E+02  0.51100000000E-03 0. -1.
         22    1    1    0    0    0 -0.19180371318E+02 -0.12871398477E+02 -0.19105655772E+02  0.29976417817E+02  0.00000000000E+00 0.  1.
</event>
<event>
 5    1  0.8902899E-005  0.9118800E+02  0.7818608E-02  0.1130116E+00
         25   -1    0    0    0    0  0.00000000000E+00  0.00000000000E+00  0.99999998245E-14  0.12500000000E+03  0.12500000000E+03 0.  0.
        -11    1    3    3    0    0  0.54382438073E+02  0.24492373061E+02  0.45253322617E+01  0.59814751870E+02  0.51100000000E-03 0.  1.
         23    2    1    0    0    0  0.29389398705E+02 -0.65164711361E-02  0.66165657996E+01  0.94874998063E+02  0.89965268386E+02 0.  0.
         11    1    3    3    0    0 -0.24993039368E+02 -0.24498889532E+02  0.20912335378E+01  0.35060246193E+02  0.51100000000E-03 0. -1.
         22    1    1    0    0    0 -0.29389398705E+02  0.65164711361E-02 -0.66165657996E+01  0.30125001937E+02  0.00000000000E+00 0.  1.
</event>
<event>
 5    1  0.8902899E-005  0.9118800E+02  0.7818608E-02  0.1130116E+00
         25   -1    0    0    0    0  0.00000000000E+00  0.00000000000E+00  0.99999998245E-14  0.12500000000E+03  0.12500000000E+03 0.  0.
        -11    1    3    3    0    0  0.15218425444E+01  0.73523847671E+01 -0.36326281193E+02  0.37094100233E+02  0.51100000000E-03 0.  1.
         23    2    1    0    0    0 -0.83359559120E+01  0.19124874870E+02  0.20375554835E+02  0.95838171618E+02  0.91293717771E+02 0.  0.
         11    1    3    3    0    0 -0.98577984564E+01  0.11772490103E+02  0.56701836028E+02  0.58744071385E+02  0.51100000000E-03 0. -1.
         22    1    1    0    0    0  0.83359559120E+01 -0.19124874870E+02 -0.20375554835E+02  0.29161828382E+02  0.00000000000E+00 0. -1.
</event>
<event>
 5    1  0.8902899E-005  0.9118800E+02  0.7818608E-02  0.1130116E+00
         25   -1    0    0    0    0  0.00000000000E+00  0.00000000000E+00  0.99999998245E-14  0.12500000000E+03  0.12500000000E+03 0.  0.
        -11    1    3    3    0    0  0.19371409110E+02  0.41917994594E+00  0.30646985606E+02  0.36258308423E+02  0.51100000000E-03 0. -1.
         23    2    1    0    0    0  0.16842520332E+02  0.71851333870E+01 -0.25908880539E+02  0.93273564277E+02  0.87711977912E+02 0.  0.
         11    1    3    3    0    0 -0.25288887787E+01  0.67659534411E+01 -0.56555866145E+02  0.57015255854E+02  0.51100000000E-03 0.  1.
         22    1    1    0    0    0 -0.16842520332E+02 -0.71851333870E+01  0.25908880539E+02  0.31726435723E+02  0.00000000000E+00 0.  1.
</event>
<event>
 5    1  0.8902899E-005  0.9118800E+02  0.7818608E-02  0.1130116E+00
         25   -1    0    0    0    0  0.00000000000E+00  0.00000000000E+00  0.99999998245E-14  0.12500000000E+03  0.12500000000E+03 0.  0.
        -11    1    3    3    0    0 -0.79060184245E+01 -0.72657621784E+01 -0.36095807720E+02  0.37659046226E+02  0.51100000000E-03 0. -1.
         23    2    1    0    0    0 -0.17084753000E+02 -0.22045264839E+02  0.16181454391E+02  0.92755280229E+02  0.86970225119E+02 0.  0.
         11    1    3    3    0    0 -0.91787345758E+01 -0.14779502661E+02  0.52277262111E+02  0.55096234004E+02  0.51100000000E-03 0.  1.
         22    1    1    0    0    0  0.17084753000E+02  0.22045264839E+02 -0.16181454391E+02  0.32244719771E+02  0.00000000000E+00 0.  1.
</event>
<event>
 5    1  0.8902899E-005  0.9118800E+02  0.7818608E-02  0.1130116E+00
         25   -1    0    0    0    0  0.00000000000E+00  0.00000000000E+00  0.99999998245E-14  0.12500000000E+03  0.12500000000E+03 0.  0.
        -11    1    3    3    0    0  0.20402912111E+02  0.26076099353E+02  0.32188827122E+02  0.46177509372E+02  0.51100000000E-03 0. -1.
         23    2    1    0    0    0 -0.19666038519E+02  0.51750855789E+00  0.23261216360E+02  0.94535183035E+02  0.89491875379E+02 0.  0.
         11    1    3    3    0    0 -0.40068950630E+02 -0.25558590795E+02 -0.89276107618E+01  0.48357673664E+02  0.51100000000E-03 0.  1.
         22    1    1    0    0    0  0.19666038519E+02 -0.51750855789E+00 -0.23261216360E+02  0.30464816965E+02  0.00000000000E+00 0. -1.
</event>
<event>
 5    1  0.8902899E-005  0.9118800E+02  0.7818608E-02  0.1130116E+00
         25   -1    0    0    0    0  0.00000000000E+00  0.00000000000E+00  0.99999998245E-14  0.12500000000E+03  0.12500000000E+03 0.  0.
        -11    1    3    3    0    0  0.17261396219E+02  0.33745940982E+02 -0.58952303509E+01  0.38360110445E+02  0.51100000000E-03 0. -1.
         23    2    1    0    0    0  0.18005774431E+02 -0.23128944830E+02 -0.51179525242E+01  0.95245177872E+02  0.90478143593E+02 0.  0.
         11    1    3    3    0    0  0.74437821147E+00 -0.56874885812E+02  0.77727782665E+00  0.56885067427E+02  0.51100000000E-03 0.  1.
         22    1    1    0    0    0 -0.18005774431E+02  0.23128944830E+02  0.51179525242E+01  0.29754822128E+02  0.00000000000E+00 0.  1.
</event>
<event>
 5    1  0.8902899E-005  0.9118800E+02  0.7818608E-02  0.1130116E+00
         25   -1    0    0    0    0  0.00000000000E+00  0.00000000000E+00  0.99999998245E-14  0.12500000000E+03  0.12500000000E+03 0.  0.
        -11    1    3    3    0    0 -0.58279849106E+01  0.36504506097E+02  0.45696166669E+02  0.58776560141E+02  0.51100000000E-03 0.  1.
         23    2    1    0    0    0 -0.17367494220E+02  0.14466392217E+02  0.17245486715E+02  0.96569151063E+02  0.92289153023E+02 0.  0.
         11    1    3    3    0    0 -0.11539509310E+02 -0.22038113881E+02 -0.28450679954E+02  0.37792590922E+02  0.51100000000E-03 0. -1.
         22    1    1    0    0    0  0.17367494220E+02 -0.14466392217E+02 -0.17245486715E+02  0.28430848937E+02  0.00000000000E+00 0.  1.
</event>
<event>
 5    1  0.8902899E-005  0.9118800E+02  0.7818608E-02  0.1130116E+00
         25   -1    0    0    0    0  0.00000000000E+00  0.00000000000E+00  0.99999998245E-14  0.12500000000E+03  0.12500000000E+03 0.  0.
        -11    1    3    3    0    0 -0.42484992727E+01 -0.32876941527E+02  0.10184179125E+02  0.34679396404E+02  0.51100000000E-03 0.  1.
         23    2    1    0    0    0  0.23658145439E+01  0.17677760929E+02 -0.23285317702E+02  0.95669020978E+02  0.91061821004E+02 0.  0.
         11    1    3    3    0    0  0.66143138166E+01  0.50554702456E+02 -0.33469496826E+02  0.60989624574E+02  0.51100000000E-03 0. -1.
         22    1    1    0    0    0 -0.23658145439E+01 -0.17677760929E+02  0.23285317702E+02  0.29330979022E+02  0.00000000000E+00 0. -1.
</event>
<event>
 5    1  0.8902899E-005  0.9118800E+02  0.7818608E-02  0.1130116E+00
         25   -1    0    0    0    0  0.00000000000E+00  0.00000000000E+00  0.99999998245E-14  0.12500000000E+03  0.12500000000E+03 0.  0.
        -11    1    3    3    0    0 -0.12917987200E+02  0.45623498408E+02 -0.33388589588E+01  0.47534471488E+02  0.51100000000E-03 0.  1.
         23    2    1    0    0    0 -0.21378413438E+02  0.11872256242E+01 -0.19961985723E+02  0.95726685535E+02  0.91140942411E+02 0.  0.
         11    1    3    3    0    0 -0.84604262378E+01 -0.44436272783E+02 -0.16623126764E+02  0.48192214046E+02  0.51100000000E-03 0. -1.
         22    1    1    0    0    0  0.21378413438E+02 -0.11872256242E+01  0.19961985723E+02  0.29273314465E+02  0.00000000000E+00 0.  1.
</event>
<event>
 5    1  0.8902899E-005  0.9118800E+02  0.7818608E-02  0.1130116E+00
         25   -1    0    0    0    0  0.00000000000E+00  0.00000000000E+00  0.99999998245E-14  0.12500000000E+03  0.12500000000E+03 0.  0.
        -11    1    3    3    0    0 -0.84040577606E+01  0.47138636800E+02 -0.33770276276E+02  0.58592754042E+02  0.51100000000E-03 0.  1.
         23    2    1    0    0    0 -0.32202309859E+01  0.28381295550E+02 -0.13506501522E+01  0.96404684290E+02  0.92066123371E+02 0.  0.
         11    1    3    3    0    0  0.51838267747E+01 -0.18757341250E+02  0.32419626124E+02  0.37811930248E+02  0.51100000000E-03 0. -1.
         22    1    1    0    0    0  0.32202309859E+01 -0.28381295550E+02  0.13506501522E+01  0.28595315710E+02  0.00000000000E+00 0.  1.
</event>
<event>
 5    1  0.8902899E-005  0.9118800E+02  0.7818608E-02  0.1130116E+00
         25   -1    0    0    0    0  0.00000000000E+00  0.00000000000E+00  0.99999998245E-14  0.12500000000E+03  0.12500000000E+03 0.  0.
        -11    1    3    3    0    0  0.35910100382E+01 -0.13840228778E+01  0.45793498536E+02  0.45954927710E+02  0.51100000000E-03 0. -1.
         23    2    1    0    0    0  0.27677253983E+02  0.58824267617E+01  0.17835248987E+01  0.96648381110E+02  0.92396402947E+02 0.  0.
         11    1    3    3    0    0  0.24086243944E+02  0.72664496396E+01 -0.44009973638E+02  0.50693453399E+02  0.51100000000E-03 0.  1.
         22    1    1    0    0    0 -0.27677253983E+02 -0.58824267617E+01 -0.17835248987E+01  0.28351618890E+02  0.00000000000E+00 0.  1.
</event>
<event>
 5    1  0.8902899E-005  0.9118800E+02  0.7818608E-02  0.1130116E+00
         25   -1    0    0    0    0  0.00000000000E+00  0.00000000000E+00  0.99999998245E-14  0.12500000000E+03  0.12500000000E+03 0.  0.
        -11    1    3    3    0    0 -0.24965533628E+02  0.28505743795E+02 -0.53320232912E+01  0.38265987133E+02  0.51100000000E-03 0.  1.
         23    2    1    0    0    0 -0.11541838513E+01 -0.23450538593E+02  0.12841720989E+02  0.98238652899E+02  0.94523347512E+02 0.  0.
         11    1    3    3    0    0  0.23811349776E+02 -0.51956282388E+02  0.18173744280E+02  0.59972665767E+02  0.51100000000E-03 0. -1.
         22    1    1    0    0    0  0.11541838513E+01  0.23450538593E+02 -0.12841720989E+02  0.26761347101E+02  0.00000000000E+00 0. -1.
</event>
<event>
 5    1  0.8902899E-005  0.9118800E+02  0.7818608E-02  0.1130116E+00
         25   -1    0    0    0    0  0.00000000000E+00  0.00000000000E+00  0.99999998245E-14  0.12500000000E+03  0.12500000000E+03 0.  0.
        -11    1    3    3    0    0 -0.12391846071E+02 -0.38738449988E+02 -0.27011486201E+02  0.48824642790E+02  0.51100000000E-03 0.  1.
         23    2    1    0    0    0 -0.29257862643E+02 -0.12266134833E+01 -0.56274730762E+01  0.95180617707E+02  0.90388906547E+02 0.  0.
         11    1    3    3    0    0 -0.16866016572E+02  0.37511836504E+02  0.21384013125E+02  0.46355974917E+02  0.51100000000E-03 0. -1.
         22    1    1    0    0    0  0.29257862643E+02  0.12266134833E+01  0.56274730762E+01  0.29819382293E+02  0.00000000000E+00 0. -1.
</event>
<event>
 5    1  0.8902899E-005  0.9118800E+02  0.7818608E-02  0.1130116E+00
         25   -1    0    0    0    0  0.00000000000E+00  0.00000000000E+00  0.99999998245E-14  0.12500000000E+03  0.12500000000E+03 0.  0.
        -11    1    3    3    0    0  0.12010986386E+02  0.13595716881E+02  0.57401978742E+02  0.60200452450E+02  0.51100000000E-03 0.  1.
         23    2    1    0    0    0  0.75104318623E+01 -0.52794716432E+01  0.28869683239E+02  0.94705808843E+02  0.89729884713E+02 0.  0.
         11    1    3    3    0    0 -0.45005545235E+01 -0.18875188524E+02 -0.28532295503E+02  0.34505356392E+02  0.51100000000E-03 0. -1.
         22    1    1    0    0    0 -0.75104318623E+01  0.52794716432E+01 -0.28869683239E+02  0.30294191157E+02  0.00000000000E+00 0.  1.
</event>
<event>
 5    1  0.8902899E-005  0.9118800E+02  0.7818608E-02  0.1130116E+00
         25   -1    0    0    0    0  0.00000000000E+00  0.00000000000E+00  0.99999998245E-14  0.12500000000E+03  0.12500000000E+03 0.  0.
        -11    1    3    3    0    0 -0.27338000945E+02  0.53648273881E+02  0.15632935206E+02  0.62208458022E+02  0.51100000000E-03 0.  1.
         23    2    1    0    0    0 -0.15173974793E+02  0.22902206838E+02  0.10079471286E+02  0.95736433395E+02  0.91154310643E+02 0.  0.
         11    1    3    3    0    0  0.12164026152E+02 -0.30746067043E+02 -0.55534639203E+01  0.33527975373E+02  0.51100000000E-03 0. -1.
         22    1    1    0    0    0  0.15173974793E+02 -0.22902206838E+02 -0.10079471286E+02  0.29263566605E+02  0.00000000000E+00 0.  1.
</event>
<event>
 5    1  0.8902899E-005  0.9118800E+02  0.7818608E-02  0.1130116E+00
         25   -1    0    0    0    0  0.00000000000E+00  0.00000000000E+00  0.99999998245E-14  0.12500000000E+03  0.12500000000E+03 0.  0.
        -11    1    3    3    0    0  0.70513983181E+01 -0.33454454729E+02 -0.14592873866E+02  0.37173575661E+02  0.51100000000E-03 0.  1.
         23    2    1    0    0    0  0.15560393958E+02  0.22257809873E+02  0.60200104056E+01  0.97183161830E+02  0.93117079301E+02 0.  0.
         11    1    3    3    0    0  0.85089956401E+01  0.55712264602E+02  0.20612884272E+02  0.60009586169E+02  0.51100000000E-03 0. -1.
         22    1    1    0    0    0 -0.15560393958E+02 -0.22257809873E+02 -0.60200104056E+01  0.27816838170E+02  0.00000000000E+00 0. -1.
</event>
<event>
 5    1  0.8902899E-005  0.9118800E+02  0.7818608E-02  0.1130116E+00
         25   -1    0    0    0    0  0.00000000000E+00  0.00000000000E+00  0.99999998245E-14  0.12500000000E+03  0.12500000000E+03 0.  0.
        -11    1    3    3    0    0  0.33887625800E+02  0.39679971299E+02  0.23759404110E+02  0.57335683380E+02  0.51100000000E-03 0.  1.
         23    2    1    0    0    0  0.18816026828E+02  0.14026896843E+01  0.18087585906E+02  0.98862456736E+02  0.95344712408E+02 0.  0.
         11    1    3    3    0    0 -0.15071598972E+02 -0.38277281615E+02 -0.56718182045E+01  0.41526773357E+02  0.51100000000E-03 0. -1.
         22    1    1    0    0    0 -0.18816026828E+02 -0.14026896843E+01 -0.18087585906E+02  0.26137543264E+02  0.00000000000E+00 0.  1.
</event>
<event>
 5    1  0.8902899E-005  0.9118800E+02  0.7818608E-02  0.1130116E+00
         25   -1    0    0    0    0  0.00000000000E+00  0.00000000000E+00  0.99999998245E-14  0.12500000000E+03  0.12500000000E+03 0.  0.
        -11    1    3    3    0    0 -0.30182525976E+02  0.57329035197E+01  0.43831861931E+02  0.53526471747E+02  0.51100000000E-03 0.  1.
         23    2    1    0    0    0 -0.79513207971E+01  0.25024379405E+02  0.14849644133E+02  0.94834539654E+02  0.89909036885E+02 0.  0.
         11    1    3    3    0    0  0.22231205179E+02  0.19291475885E+02 -0.28982217798E+02  0.41308067908E+02  0.51100000000E-03 0. -1.
         22    1    1    0    0    0  0.79513207971E+01 -0.25024379405E+02 -0.14849644133E+02  0.30165460346E+02  0.00000000000E+00 0.  1.
</event>
<event>
 5    1  0.8902899E-005  0.9118800E+02  0.7818608E-02  0.1130116E+00
         25   -1    0    0    0    0  0.00000000000E+00  0.00000000000E+00  0.99999998245E-14  0.12500000000E+03  0.12500000000E+03 0.  0.
        -11    1    3    3    0    0  0.36161208546E+02  0.32038835009E+02 -0.45051792494E+01  0.48522330865E+02  0.51100000000E-03 0.  1.
         23    2    1    0    0    0 -0.97138171404E+01  0.28498956084E+02  0.10813810240E+01  0.94871639171E+02  0.89960601336E+02 0.  0.
         11    1    3    3    0    0 -0.45875025686E+02 -0.35398789253E+01  0.55865602735E+01  0.46349308306E+02  0.51100000000E-03 0. -1.
         22    1    1    0    0    0  0.97138171404E+01 -0.28498956084E+02 -0.10813810240E+01  0.30128360829E+02  0.00000000000E+00 0. -1.
</event>
<event>
 5    1  0.8902899E-005  0.9118800E+02  0.7818608E-02  0.1130116E+00
         25   -1    0    0    0    0  0.00000000000E+00  0.00000000000E+00  0.99999998245E-14  0.12500000000E+03  0.12500000000E+03 0.  0.
        -11    1    3    3    0    0  0.57592513872E+02  0.11971536705E+02  0.14678549636E+02  0.60627346675E+02  0.51100000000E-03 0. -1.
         23    2    1    0    0    0  0.27741496804E+02 -0.50982448508E+01  0.82719811435E+01  0.95605979902E+02  0.90975243751E+02 0.  0.
         11    1    3    3    0    0 -0.29851017068E+02 -0.17069781556E+02 -0.64065684927E+01  0.34978633228E+02  0.51100000000E-03 0.  1.
         22    1    1    0    0    0 -0.27741496804E+02  0.50982448508E+01 -0.82719811435E+01  0.29394020098E+02  0.00000000000E+00 0. -1.
</event>
<event>
 5    1  0.8902899E-005  0.9118800E+02  0.7818608E-02  0.1130116E+00
         25   -1    0    0    0    0  0.00000000000E+00  0.00000000000E+00  0.99999998245E-14  0.12500000000E+03  0.12500000000E+03 0.  0.
        -11    1    3    3    0    0  0.42214951139E+01 -0.25376610543E+02 -0.41102628148E+02  0.48489374347E+02  0.51100000000E-03 0.  1.
         23    2    1    0    0    0  0.14090034366E+02  0.16016107948E+02 -0.18967629940E+02  0.96455022022E+02  0.92134442558E+02 0.  0.
         11    1    3    3    0    0  0.98685392520E+01  0.41392718490E+02  0.22134998207E+02  0.47965647675E+02  0.51100000000E-03 0. -1.
         22    1    1    0    0    0 -0.14090034366E+02 -0.16016107948E+02  0.18967629940E+02  0.28544977978E+02  0.00000000000E+00 0. -1.
</event>
<event>
 5    1  0.8902899E-005  0.9118800E+02  0.7818608E-02  0.1130116E+00
         25   -1    0    0    0    0  0.00000000000E+00  0.00000000000E+00  0.99999998245E-14  0.12500000000E+03  0.12500000000E+03 0.  0.
        -11    1    3    3    0    0  0.53352288073E+01  0.48769447663E+02  0.32303044737E+02  0.58740194001E+02  0.51100000000E-03 0. -1.
         23    2    1    0    0    0  0.16792201036E+02  0.20398401286E+02  0.94116530938E+01  0.96952682756E+02  0.92807169384E+02 0.  0.
         11    1    3    3    0    0  0.11456972228E+02 -0.28371046377E+02 -0.22891391643E+02  0.38212488755E+02  0.51100000000E-03 0.  1.
         22    1    1    0    0    0 -0.16792201036E+02 -0.20398401286E+02 -0.94116530938E+01  0.28047317244E+02  0.00000000000E+00 0. -1.
</event>
<event>
 5    1  0.8902899E-005  0.9118800E+02  0.7818608E-02  0.1130116E+00
         25   -1    0    0    0    0  0.00000000000E+00  0.00000000000E+00  0.99999998245E-14  0.12500000000E+03  0.12500000000E+03 0.  0.
        -11    1    3    3    0    0  0.82041592363E+01 -0.47563222349E+02 -0.20200485960E+02  0.52322346873E+02  0.51100000000E-03 0.  1.
         23    2    1    0    0    0  0.19464671830E+01 -0.22927257114E+02  0.16300383974E+02  0.96801589212E+02  0.92603441097E+02 0.  0.
         11    1    3    3    0    0 -0.62576920533E+01  0.24635965235E+02  0.36500869934E+02  0.44479242340E+02  0.51100000000E-03 0. -1.
         22    1    1    0    0    0 -0.19464671830E+01  0.22927257114E+02 -0.16300383974E+02  0.28198410788E+02  0.00000000000E+00 0.  1.
</event>
<event>
 5    1  0.8902899E-005  0.9118800E+02  0.7818608E-02  0.1130116E+00
         25   -1    0    0    0    0  0.00000000000E+00  0.00000000000E+00  0.99999998245E-14  0.12500000000E+03  0.12500000000E+03 0.  0.
        -11    1    3    3    0    0 -0.30147416254E+02 -0.53986377337E+01 -0.36045354413E+02  0.47299889759E+02  0.51100000000E-03 0.  1.
         23    2    1    0    0    0 -0.21559896146E+01  0.25960728090E+02 -0.83255338038E+01  0.97651833566E+02  0.93744111236E+02 0.  0.
         11    1    3    3    0    0  0.27991426640E+02  0.31359365824E+02  0.27719820609E+02  0.50351943806E+02  0.51100000000E-03 0. -1.
         22    1    1    0    0    0  0.21559896146E+01 -0.25960728090E+02  0.83255338038E+01  0.27348166434E+02  0.00000000000E+00 0. -1.
</event>
<event>
 5    1  0.8902899E-005  0.9118800E+02  0.7818608E-02  0.1130116E+00
         25   -1    0    0    0    0  0.00000000000E+00  0.00000000000E+00  0.99999998245E-14  0.12500000000E+03  0.12500000000E+03 0.  0.
        -11    1    3    3    0    0 -0.31423875969E+02  0.65581695822E+01  0.87559000766E+01  0.33273643557E+02  0.51100000000E-03 0. -1.
         23    2    1    0    0    0  0.28500168255E+02 -0.46815306510E+01 -0.47743375325E+01  0.95725939491E+02  0.91139919206E+02 0.  0.
         11    1    3    3    0    0  0.59924044223E+02 -0.11239700233E+02 -0.13530237609E+02  0.62452295934E+02  0.51100000000E-03 0.  1.
         22    1    1    0    0    0 -0.28500168255E+02  0.46815306510E+01  0.47743375325E+01  0.29274060509E+02  0.00000000000E+00 0.  1.
</event>
<event>
 5    1  0.8902899E-005  0.9118800E+02  0.7818608E-02  0.1130116E+00
         25   -1    0    0    0    0  0.00000000000E+00  0.00000000000E+00  0.99999998245E-14  0.12500000000E+03  0.12500000000E+03 0.  0.
        -11    1    3    3    0    0  0.89113820248E+01  0.25004797237E+02 -0.33848614207E+02  0.43016058611E+02  0.51100000000E-03 0.  1.
         23    2    1    0    0    0 -0.30042326085E+02  0.71964810841E+01 -0.78299472832E+01  0.93130911983E+02  0.87508445282E+02 0.  0.
         11    1    3    3    0    0 -0.38953708110E+02 -0.17808316152E+02  0.26018666924E+02  0.50114853372E+02  0.51100000000E-03 0. -1.
         22    1    1    0    0    0  0.30042326085E+02 -0.71964810841E+01  0.78299472832E+01  0.31869088017E+02  0.00000000000E+00 0. -1.
</event>
<event>
 5    1  0.8902899E-005  0.9118800E+02  0.7818608E-02  0.1130116E+00
         25   -1    0    0    0    0  0.00000000000E+00  0.00000000000E+00  0.99999998245E-14  0.12500000000E+03  0.12500000000E+03 0.  0.
        -11    1    3    3    0    0 -0.80432404931E+01  0.46535442001E+02  0.31716606834E+02  0.56887469879E+02  0.51100000000E-03 0.  1.
         23    2    1    0    0    0 -0.17328528114E+02  0.23274239764E+02  0.17668939498E+01  0.95929567643E+02  0.91418772201E+02 0.  0.
         11    1    3    3    0    0 -0.92852876204E+01 -0.23261202237E+02 -0.29949712884E+02  0.39042097764E+02  0.51100000000E-03 0. -1.
         22    1    1    0    0    0  0.17328528114E+02 -0.23274239764E+02 -0.17668939498E+01  0.29070432357E+02  0.00000000000E+00 0. -1.
</event>
<event>
 5    1  0.8902899E-005  0.9118800E+02  0.7818608E-02  0.1130116E+00
         25   -1    0    0    0    0  0.00000000000E+00  0.00000000000E+00  0.99999998245E-14  0.12500000000E+03  0.12500000000E+03 0.  0.
        -11    1    3    3    0    0  0.21842452373E+02 -0.35811167890E+02 -0.46724264937E+01  0.42206208559E+02  0.51100000000E-03 0.  1.
         23    2    1    0    0    0  0.23830412857E+02  0.13699042922E+02  0.12709472980E+02  0.94716620775E+02  0.89744945226E+02 0.  0.
         11    1    3    3    0    0  0.19879604830E+01  0.49510210812E+02  0.17381899473E+02  0.52510412216E+02  0.51100000000E-03 0. -1.
         22    1    1    0    0    0 -0.23830412857E+02 -0.13699042922E+02 -0.12709472980E+02  0.30283379225E+02  0.00000000000E+00 0.  1.
</event>
<event>
 5    1  0.8902899E-005  0.9118800E+02  0.7818608E-02  0.1130116E+00
         25   -1    0    0    0    0  0.00000000000E+00  0.00000000000E+00  0.99999998245E-14  0.12500000000E+03  0.12500000000E+03 0.  0.
        -11    1    3    3    0    0  0.10266258331E+02 -0.44165298027E+01  0.47949007440E+02  0.49234227021E+02  0.51100000000E-03 0. -1.
         23    2    1    0    0    0  0.28652048240E+02  0.80006624592E+01  0.92410200396E+01  0.93849608036E+02  0.88529102610E+02 0.  0.
         11    1    3    3    0    0  0.18385789909E+02  0.12417192262E+02 -0.38707987400E+02  0.44615381015E+02  0.51100000000E-03 0.  1.
         22    1    1    0    0    0 -0.28652048240E+02 -0.80006624592E+01 -0.92410200396E+01  0.31150391964E+02  0.00000000000E+00 0.  1.
</event>
<event>
 5    1  0.8902899E-005  0.9118800E+02  0.7818608E-02  0.1130116E+00
         25   -1    0    0    0    0  0.00000000000E+00  0.00000000000E+00  0.99999998245E-14  0.12500000000E+03  0.12500000000E+03 0.  0.
        -11    1    3    3    0    0  0.31626684439E+02 -0.20441452405E+02  0.92127449111E+01  0.38768219124E+02  0.51100000000E-03 0. -1.
         23    2    1    0    0    0 -0.25072997046E+02 -0.87646611217E+01  0.98787542750E+01  0.96661611700E+02  0.92414300435E+02 0.  0.
         11    1    3    3    0    0 -0.56699681485E+02  0.11676791283E+02  0.66600936391E+00  0.57893392575E+02  0.51100000000E-03 0.  1.
         22    1    1    0    0    0  0.25072997046E+02  0.87646611217E+01 -0.98787542750E+01  0.28338388300E+02  0.00000000000E+00 0.  1.
</event>
<event>
 5    1  0.8902899E-005  0.9118800E+02  0.7818608E-02  0.1130116E+00
         25   -1    0    0    0    0  0.00000000000E+00  0.00000000000E+00  0.99999998245E-14  0.12500000000E+03  0.12500000000E+03 0.  0.
        -11    1    3    3    0    0 -0.26151403767E+02 -0.76119595813E+01  0.32622341535E+02  0.42497705999E+02  0.51100000000E-03 0.  1.
         23    2    1    0    0    0 -0.16211279497E+02 -0.15051688024E+02 -0.19151912704E+02  0.95739879434E+02  0.91159036077E+02 0.  0.
         11    1    3    3    0    0  0.99401242701E+01 -0.74397284423E+01 -0.51774254240E+02  0.53242173435E+02  0.51100000000E-03 0. -1.
         22    1    1    0    0    0  0.16211279497E+02  0.15051688024E+02  0.19151912704E+02  0.29260120566E+02  0.00000000000E+00 0. -1.
</event>
<event>
 5    1  0.8902899E-005  0.9118800E+02  0.7818608E-02  0.1130116E+00
         25   -1    0    0    0    0  0.00000000000E+00  0.00000000000E+00  0.99999998245E-14  0.12500000000E+03  0.12500000000E+03 0.  0.
        -11    1    3    3    0    0 -0.24364766809E+02 -0.29908135148E+02 -0.39273264050E+02  0.55050228692E+02  0.51100000000E-03 0.  1.
         23    2    1    0    0    0 -0.12974172718E+02 -0.25714614617E+02  0.43185802075E-01  0.96197701001E+02  0.91784667838E+02 0.  0.
         11    1    3    3    0    0  0.11390594091E+02  0.41935205303E+01  0.39316449852E+02  0.41147472309E+02  0.51100000000E-03 0. -1.
         22    1    1    0    0    0  0.12974172718E+02  0.25714614617E+02 -0.43185802075E-01  0.28802298999E+02  0.00000000000E+00 0.  1.
</event>
<event>
 4    1  0.8902899E-005  0.9118800E+02  0.7818608E-02  0.1130116E+00
         25   -1    0    0    0    0  0.00000000000E+00  0.00000000000E+00  0.99999998245E-14  0.12500000000E+03  0.12500000000E+03 0.  0.
        -11    1    1    0    0    0 -0.44523637390E+01  0.34483384695E+01  0.39803316953E+01  0.68962034287E+01  0.51100000000E-03 0.  1.
         11    1    1    0    0    0  0.66889950059E+01 -0.11309313217E+02 -0.60035203865E+02  0.61456235835E+02  0.51100000000E-03 0. -1.
         22    1    1    0    0    0 -0.22366312669E+01  0.78609747480E+01  0.56054872170E+02  0.56647560736E+02  0.00000000000E+00 0. -1.
</event>
<event>
 5    1  0.8902899E-005  0.9118800E+02  0.7818608E-02  0.1130116E+00
         25   -1    0    0    0    0  0.00000000000E+00  0.00000000000E+00  0.99999998245E-14  0.12500000000E+03  0.12500000000E+03 0.  0.
        -11    1    3    3    0    0  0.17172525942E+02 -0.92327747393E+00  0.27386241426E+02  0.32338124686E+02  0.51100000000E-03 0. -1.
         23    2    1    0    0    0 -0.21352149399E+02  0.10074568386E+02 -0.19763279465E+02  0.94210416903E+02  0.89037094661E+02 0.  0.
         11    1    3    3    0    0 -0.38524675340E+02  0.10997845860E+02 -0.47149520891E+02  0.61872292217E+02  0.51100000000E-03 0.  1.
         22    1    1    0    0    0  0.21352149399E+02 -0.10074568386E+02  0.19763279465E+02  0.30789583097E+02  0.00000000000E+00 0.  1.
</event>
<event>
 5    1  0.8902899E-005  0.9118800E+02  0.7818608E-02  0.1130116E+00
         25   -1    0    0    0    0  0.00000000000E+00  0.00000000000E+00  0.99999998245E-14  0.12500000000E+03  0.12500000000E+03 0.  0.
        -11    1    3    3    0    0 -0.41978147221E+02 -0.29129435418E+02  0.11034219868E+02  0.52272773604E+02  0.51100000000E-03 0.  1.
         23    2    1    0    0    0 -0.17722395706E+02  0.39455288850E+01  0.23649471658E+02  0.95184768701E+02  0.90394646828E+02 0.  0.
         11    1    3    3    0    0  0.24255751515E+02  0.33074964303E+02  0.12615251790E+02  0.42911995097E+02  0.51100000000E-03 0. -1.
         22    1    1    0    0    0  0.17722395706E+02 -0.39455288850E+01 -0.23649471658E+02  0.29815231299E+02  0.00000000000E+00 0.  1.
</event>
<event>
 5    1  0.8902899E-005  0.9118800E+02  0.7818608E-02  0.1130116E+00
         25   -1    0    0    0    0  0.00000000000E+00  0.00000000000E+00  0.99999998245E-14  0.12500000000E+03  0.12500000000E+03 0.  0.
        -11    1    3    3    0    0  0.19413876579E+02  0.27146830428E+02 -0.24457253102E+01  0.33463869751E+02  0.51100000000E-03 0. -1.
         23    2    1    0    0    0 -0.10521562343E+02 -0.17276351526E+02  0.24336804937E+02  0.93354215593E+02  0.87826840421E+02 0.  0.
         11    1    3    3    0    0 -0.29935438922E+02 -0.44423181954E+02  0.26782530247E+02  0.59890345842E+02  0.51100000000E-03 0.  1.
         22    1    1    0    0    0  0.10521562343E+02  0.17276351526E+02 -0.24336804937E+02  0.31645784407E+02  0.00000000000E+00 0.  1.
</event>
<event>
 5    1  0.8902899E-005  0.9118800E+02  0.7818608E-02  0.1130116E+00
         25   -1    0    0    0    0  0.00000000000E+00  0.00000000000E+00  0.99999998245E-14  0.12500000000E+03  0.12500000000E+03 0.  0.
        -11    1    3    3    0    0  0.12602973139E+02 -0.24135388284E+02  0.29350476198E+02  0.40035014086E+02  0.51100000000E-03 0.  1.
         23    2    1    0    0    0  0.21659565896E+02  0.42688732428E+00 -0.19754120064E+02  0.95682014273E+02  0.91079655073E+02 0.  0.
         11    1    3    3    0    0  0.90565927568E+01  0.24562275608E+02 -0.49104596263E+02  0.55647000187E+02  0.51100000000E-03 0. -1.
         22    1    1    0    0    0 -0.21659565896E+02 -0.42688732428E+00  0.19754120064E+02  0.29317985727E+02  0.00000000000E+00 0. -1.
</event>
<event>
 5    1  0.8902899E-005  0.9118800E+02  0.7818608E-02  0.1130116E+00
         25   -1    0    0    0    0  0.00000000000E+00  0.00000000000E+00  0.99999998245E-14  0.12500000000E+03  0.12500000000E+03 0.  0.
        -11    1    3    3    0    0  0.57359493832E+01 -0.42837988294E+01  0.39596476912E+02  0.40238452155E+02  0.51100000000E-03 0. -1.
         23    2    1    0    0    0 -0.28866141409E+02  0.25334456089E+01 -0.33725800132E+01  0.95827294221E+02  0.91278823148E+02 0.  0.
         11    1    3    3    0    0 -0.34602090792E+02  0.68172444383E+01 -0.42969056925E+02  0.55588842066E+02  0.51100000000E-03 0.  1.
         22    1    1    0    0    0  0.28866141409E+02 -0.25334456089E+01  0.33725800132E+01  0.29172705779E+02  0.00000000000E+00 0.  1.
</event>
<event>
 5    1  0.8902899E-005  0.9118800E+02  0.7818608E-02  0.1130116E+00
         25   -1    0    0    0    0  0.00000000000E+00  0.00000000000E+00  0.99999998245E-14  0.12500000000E+03  0.12500000000E+03 0.  0.
        -11    1    3    3    0    0 -0.39783232380E+02 -0.22921978148E+02  0.10104032841E+01  0.45925413182E+02  0.51100000000E-03 0.  1.
         23    2    1    0    0    0  0.37521320911E+01 -0.10526655896E+02  0.25332825514E+02  0.97311716773E+02  0.93289491333E+02 0.  0.
         11    1    3    3    0    0  0.43535364471E+02  0.12395322252E+02  0.24322422229E+02  0.51386303591E+02  0.51100000000E-03 0. -1.
         22    1    1    0    0    0 -0.37521320911E+01  0.10526655896E+02 -0.25332825514E+02  0.27688283227E+02  0.00000000000E+00 0. -1.
</event>
<event>
 5    1  0.8902899E-005  0.9118800E+02  0.7818608E-02  0.1130116E+00
         25   -1    0    0    0    0  0.00000000000E+00  0.00000000000E+00  0.99999998245E-14  0.12500000000E+03  0.12500000000E+03 0.  0.
        -11    1    3    3    0    0 -0.19566206456E+02 -0.54152522675E+02 -0.13490538245E+02  0.59138200595E+02  0.51100000000E-03 0.  1.
         23    2    1    0    0    0  0.52680064133E+01 -0.20724764206E+02 -0.11239855653E+02  0.10084214211E+03  0.97905748179E+02 0.  0.
         11    1    3    3    0    0  0.24834212870E+02  0.33427758470E+02  0.22506825921E+01  0.41703941511E+02  0.51100000000E-03 0. -1.
         22    1    1    0    0    0 -0.52680064133E+01  0.20724764206E+02  0.11239855653E+02  0.24157857894E+02  0.00000000000E+00 0.  1.
</event>
<event>
 5    1  0.8902899E-005  0.9118800E+02  0.7818608E-02  0.1130116E+00
         25   -1    0    0    0    0  0.00000000000E+00  0.00000000000E+00  0.99999998245E-14  0.12500000000E+03  0.12500000000E+03 0.  0.
        -11    1    3    3    0    0 -0.12559464564E+02 -0.21640664810E+02  0.27210658141E+02  0.36965909164E+02  0.51100000000E-03 0. -1.
         23    2    1    0    0    0  0.18483696079E+02 -0.10358957466E+02 -0.20844202512E+02  0.95277352088E+02  0.90522582940E+02 0.  0.
         11    1    3    3    0    0  0.31043160643E+02  0.11281707344E+02 -0.48054860653E+02  0.58311442925E+02  0.51100000000E-03 0.  1.
         22    1    1    0    0    0 -0.18483696079E+02  0.10358957466E+02  0.20844202512E+02  0.29722647912E+02  0.00000000000E+00 0.  1.
</event>
<event>
 5    1  0.8902899E-005  0.9118800E+02  0.7818608E-02  0.1130116E+00
         25   -1    0    0    0    0  0.00000000000E+00  0.00000000000E+00  0.99999998245E-14  0.12500000000E+03  0.12500000000E+03 0.  0.
        -11    1    3    3    0    0 -0.27868163457E+02  0.29829937744E+02 -0.21678941070E+02  0.46221598917E+02  0.51100000000E-03 0.  1.
         23    2    1    0    0    0 -0.14828775051E+02  0.12531550282E+02  0.22412927243E+02  0.95347485274E+02  0.90619376065E+02 0.  0.
         11    1    3    3    0    0  0.13039388406E+02 -0.17298387462E+02  0.44091868313E+02  0.49125886357E+02  0.51100000000E-03 0. -1.
         22    1    1    0    0    0  0.14828775051E+02 -0.12531550282E+02 -0.22412927243E+02  0.29652514726E+02  0.00000000000E+00 0. -1.
</event>
<event>
 5    1  0.8902899E-005  0.9118800E+02  0.7818608E-02  0.1130116E+00
         25   -1    0    0    0    0  0.00000000000E+00  0.00000000000E+00  0.99999998245E-14  0.12500000000E+03  0.12500000000E+03 0.  0.
        -11    1    3    3    0    0 -0.40562307135E+02  0.76251796611E+00 -0.33192728109E+02  0.52417930075E+02  0.51100000000E-03 0.  1.
         23    2    1    0    0    0 -0.17560257930E+02  0.22940912206E+02 -0.37499279785E+01  0.95867371020E+02  0.91333689048E+02 0.  0.
         11    1    3    3    0    0  0.23002049205E+02  0.22178394240E+02  0.29442800130E+02  0.43449440945E+02  0.51100000000E-03 0. -1.
         22    1    1    0    0    0  0.17560257930E+02 -0.22940912206E+02  0.37499279785E+01  0.29132628980E+02  0.00000000000E+00 0.  1.
</event>
<event>
 5    1  0.8902899E-005  0.9118800E+02  0.7818608E-02  0.1130116E+00
         25   -1    0    0    0    0  0.00000000000E+00  0.00000000000E+00  0.99999998245E-14  0.12500000000E+03  0.12500000000E+03 0.  0.
        -11    1    3    3    0    0 -0.13250807956E+02  0.32619659785E+02  0.18954108885E+02  0.39986052066E+02  0.51100000000E-03 0. -1.
         23    2    1    0    0    0 -0.20803338449E+02 -0.15795015264E+02 -0.10149064572E+02  0.96977421434E+02  0.92840483403E+02 0.  0.
         11    1    3    3    0    0 -0.75525304931E+01 -0.48414675049E+02 -0.29103173456E+02  0.56991369368E+02  0.51100000000E-03 0.  1.
         22    1    1    0    0    0  0.20803338449E+02  0.15795015264E+02  0.10149064572E+02  0.28022578566E+02  0.00000000000E+00 0.  1.
</event>
<event>
 5    1  0.8902899E-005  0.9118800E+02  0.7818608E-02  0.1130116E+00
         25   -1    0    0    0    0  0.00000000000E+00  0.00000000000E+00  0.99999998245E-14  0.12500000000E+03  0.12500000000E+03 0.  0.
        -11    1    3    3    0    0  0.14309330407E+02  0.24004789918E+02  0.41534096262E+02  0.50060643506E+02  0.51100000000E-03 0.  1.
         23    2    1    0    0    0  0.69894003028E+01  0.26831942376E+02 -0.46316207886E+01  0.96888494181E+02  0.92720674853E+02 0.  0.
         11    1    3    3    0    0 -0.73199301043E+01  0.28271524588E+01 -0.46165717051E+02  0.46827850675E+02  0.51100000000E-03 0. -1.
         22    1    1    0    0    0 -0.69894003028E+01 -0.26831942376E+02  0.46316207886E+01  0.28111505819E+02  0.00000000000E+00 0. -1.
</event>
<event>
 5    1  0.8902899E-005  0.9118800E+02  0.7818608E-02  0.1130116E+00
         25   -1    0    0    0    0  0.00000000000E+00  0.00000000000E+00  0.99999998245E-14  0.12500000000E+03  0.12500000000E+03 0.  0.
        -11    1    3    3    0    0  0.38339235501E+02 -0.31011515058E+02 -0.89703043147E+01  0.50120628536E+02  0.51100000000E-03 0.  1.
         23    2    1    0    0    0 -0.37454630295E+01 -0.24492689319E+02 -0.18885019810E+02  0.93846119077E+02  0.88524176185E+02 0.  0.
         11    1    3    3    0    0 -0.42084698531E+02  0.65188257396E+01 -0.99147154949E+01  0.43725490541E+02  0.51100000000E-03 0. -1.
         22    1    1    0    0    0  0.37454630295E+01  0.24492689319E+02  0.18885019810E+02  0.31153880923E+02  0.00000000000E+00 0.  1.
</event>
<event>
 5    1  0.8902899E-005  0.9118800E+02  0.7818608E-02  0.1130116E+00
         25   -1    0    0    0    0  0.00000000000E+00  0.00000000000E+00  0.99999998245E-14  0.12500000000E+03  0.12500000000E+03 0.  0.
        -11    1    3    3    0    0  0.54155634316E+02  0.11557231507E+02  0.24255647092E+01  0.55428203044E+02  0.51100000000E-03 0.  1.
         23    2    1    0    0    0  0.24319674761E+02 -0.12899077190E+02 -0.96125695772E+01  0.95841223162E+02  0.91297895871E+02 0.  0.
         11    1    3    3    0    0 -0.29835959555E+02 -0.24456308697E+02 -0.12038134286E+02  0.40413020117E+02  0.51100000000E-03 0. -1.
         22    1    1    0    0    0 -0.24319674761E+02  0.12899077190E+02  0.96125695772E+01  0.29158776838E+02  0.00000000000E+00 0.  1.
</event>
<event>
 5    1  0.8902899E-005  0.9118800E+02  0.7818608E-02  0.1130116E+00
         25   -1    0    0    0    0  0.00000000000E+00  0.00000000000E+00  0.99999998245E-14  0.12500000000E+03  0.12500000000E+03 0.  0.
        -11    1    3    3    0    0 -0.14710923980E+01 -0.37246743226E+02  0.97660751903E+01  0.38533884033E+02  0.51100000000E-03 0. -1.
         23    2    1    0    0    0 -0.14088408978E+02  0.20216669860E+02  0.12378586851E+02  0.97424169638E+02  0.93440047139E+02 0.  0.
         11    1    3    3    0    0 -0.12617316580E+02  0.57463413086E+02  0.26125116603E+01  0.58890285605E+02  0.51100000000E-03 0.  1.
         22    1    1    0    0    0  0.14088408978E+02 -0.20216669860E+02 -0.12378586851E+02  0.27575830362E+02  0.00000000000E+00 0.  1.
</event>
<event>
 5    1  0.8902899E-005  0.9118800E+02  0.7818608E-02  0.1130116E+00
         25   -1    0    0    0    0  0.00000000000E+00  0.00000000000E+00  0.99999998245E-14  0.12500000000E+03  0.12500000000E+03 0.  0.
        -11    1    3    3    0    0 -0.32030655833E+02  0.27757605237E+02 -0.21314700586E+01  0.42438081088E+02  0.51100000000E-03 0. -1.
         23    2    1    0    0    0  0.88632171752E+01  0.14530636174E+01 -0.26638333512E+02  0.96888279582E+02  0.92720385544E+02 0.  0.
         11    1    3    3    0    0  0.40893873008E+02 -0.26304541619E+02 -0.24506863453E+02  0.54450198494E+02  0.51100000000E-03 0.  1.
         22    1    1    0    0    0 -0.88632171752E+01 -0.14530636174E+01  0.26638333512E+02  0.28111720418E+02  0.00000000000E+00 0.  1.
</event>
<event>
 5    1  0.8902899E-005  0.9118800E+02  0.7818608E-02  0.1130116E+00
         25   -1    0    0    0    0  0.00000000000E+00  0.00000000000E+00  0.99999998245E-14  0.12500000000E+03  0.12500000000E+03 0.  0.
        -11    1    3    3    0    0  0.50250655206E+02 -0.17874694860E+02 -0.16809747189E+02  0.55921379326E+02  0.51100000000E-03 0.  1.
         23    2    1    0    0    0  0.24543939942E+02  0.11481087589E+02 -0.12435324512E+02  0.95186284099E+02  0.90396742335E+02 0.  0.
         11    1    3    3    0    0 -0.25706715263E+02  0.29355782449E+02  0.43744226769E+01  0.39264904773E+02  0.51100000000E-03 0. -1.
         22    1    1    0    0    0 -0.24543939942E+02 -0.11481087589E+02  0.12435324512E+02  0.29813715901E+02  0.00000000000E+00 0.  1.
</event>
<event>
 5    1  0.8902899E-005  0.9118800E+02  0.7818608E-02  0.1130116E+00
         25   -1    0    0    0    0  0.00000000000E+00  0.00000000000E+00  0.99999998245E-14  0.12500000000E+03  0.12500000000E+03 0.  0.
        -11    1    3    3    0    0 -0.23449808671E+02  0.27072973821E+02 -0.21308349216E+00  0.35817381856E+02  0.51100000000E-03 0. -1.
         23    2    1    0    0    0 -0.40918088166E+01 -0.28216296579E+02  0.89653095194E+01  0.95112225462E+02  0.90294276483E+02 0.  0.
         11    1    3    3    0    0  0.19357999854E+02 -0.55289270400E+02  0.91783930116E+01  0.59294843606E+02  0.51100000000E-03 0.  1.
         22    1    1    0    0    0  0.40918088166E+01  0.28216296579E+02 -0.89653095194E+01  0.29887774538E+02  0.00000000000E+00 0.  1.
</event>
<event>
 5    1  0.8902899E-005  0.9118800E+02  0.7818608E-02  0.1130116E+00
         25   -1    0    0    0    0  0.00000000000E+00  0.00000000000E+00  0.99999998245E-14  0.12500000000E+03  0.12500000000E+03 0.  0.
        -11    1    3    3    0    0 -0.38451872263E+02  0.43680819036E+02  0.22260217997E+02  0.62306321812E+02  0.51100000000E-03 0.  1.
         23    2    1    0    0    0 -0.19815136207E+02  0.20879307037E+02  0.74663232228E+01  0.95262295521E+02  0.90501789375E+02 0.  0.
         11    1    3    3    0    0  0.18636736056E+02 -0.22801511999E+02 -0.14793894774E+02  0.32955973709E+02  0.51100000000E-03 0. -1.
         22    1    1    0    0    0  0.19815136207E+02 -0.20879307037E+02 -0.74663232228E+01  0.29737704479E+02  0.00000000000E+00 0.  1.
</event>
<event>
 5    1  0.8902899E-005  0.9118800E+02  0.7818608E-02  0.1130116E+00
         25   -1    0    0    0    0  0.00000000000E+00  0.00000000000E+00  0.99999998245E-14  0.12500000000E+03  0.12500000000E+03 0.  0.
        -11    1    3    3    0    0  0.44404650720E+02  0.28517794780E+02  0.10923668376E+02  0.53892153007E+02  0.51100000000E-03 0. -1.
         23    2    1    0    0    0  0.49000040956E+01  0.29205303374E+02 -0.16089921547E+01  0.95342814681E+02  0.90612933239E+02 0.  0.
         11    1    3    3    0    0 -0.39504646624E+02  0.68750859447E+00 -0.12532660531E+02  0.41450661674E+02  0.51100000000E-03 0.  1.
         22    1    1    0    0    0 -0.49000040956E+01 -0.29205303374E+02  0.16089921547E+01  0.29657185319E+02  0.00000000000E+00 0. -1.
</event>
<event>
 5    1  0.8902899E-005  0.9118800E+02  0.7818608E-02  0.1130116E+00
         25   -1    0    0    0    0  0.00000000000E+00  0.00000000000E+00  0.99999998245E-14  0.12500000000E+03  0.12500000000E+03 0.  0.
        -11    1    3    3    0    0  0.19434717776E+02  0.27531979728E+02 -0.18492258705E+02  0.38440626882E+02  0.51100000000E-03 0. -1.
         23    2    1    0    0    0  0.52246203987E+01 -0.34070653969E+00  0.29120565250E+02  0.95412501631E+02  0.90709015031E+02 0.  0.
         11    1    3    3    0    0 -0.14210097378E+02 -0.27872686268E+02  0.47612823955E+02  0.56971874750E+02  0.51100000000E-03 0.  1.
         22    1    1    0    0    0 -0.52246203987E+01  0.34070653969E+00 -0.29120565250E+02  0.29587498369E+02  0.00000000000E+00 0.  1.
</event>
<event>
 5    1  0.8902899E-005  0.9118800E+02  0.7818608E-02  0.1130116E+00
         25   -1    0    0    0    0  0.00000000000E+00  0.00000000000E+00  0.99999998245E-14  0.12500000000E+03  0.12500000000E+03 0.  0.
        -11    1    3    3    0    0 -0.42834815530E+02  0.54045763765E+01 -0.34431522790E+02  0.55222827066E+02  0.51100000000E-03 0.  1.
         23    2    1    0    0    0 -0.28000849322E+02 -0.11464556304E+02 -0.19963994928E+01  0.94677249054E+02  0.89690090107E+02 0.  0.
         11    1    3    3    0    0  0.14833966208E+02 -0.16869132680E+02  0.32435123297E+02  0.39454421988E+02  0.51100000000E-03 0. -1.
         22    1    1    0    0    0  0.28000849322E+02  0.11464556304E+02  0.19963994928E+01  0.30322750946E+02  0.00000000000E+00 0.  1.
</event>
<event>
 5    1  0.8902899E-005  0.9118800E+02  0.7818608E-02  0.1130116E+00
         25   -1    0    0    0    0  0.00000000000E+00  0.00000000000E+00  0.99999998245E-14  0.12500000000E+03  0.12500000000E+03 0.  0.
        -11    1    3    3    0    0  0.35131254575E+02 -0.66884795863E+01  0.29891507329E+02  0.46609473478E+02  0.51100000000E-03 0.  1.
         23    2    1    0    0    0 -0.10616081710E+02  0.12730904162E+02  0.22799659731E+02  0.96811321501E+02  0.92616577217E+02 0.  0.
         11    1    3    3    0    0 -0.45747336285E+02  0.19419383748E+02 -0.70918475983E+01  0.50201848023E+02  0.51100000000E-03 0. -1.
         22    1    1    0    0    0  0.10616081710E+02 -0.12730904162E+02 -0.22799659731E+02  0.28188678499E+02  0.00000000000E+00 0. -1.
</event>
<event>
 5    1  0.8902899E-005  0.9118800E+02  0.7818608E-02  0.1130116E+00
         25   -1    0    0    0    0  0.00000000000E+00  0.00000000000E+00  0.99999998245E-14  0.12500000000E+03  0.12500000000E+03 0.  0.
        -11    1    3    3    0    0  0.13579659857E+01  0.26551271146E+02  0.51433240147E+02  0.57898119687E+02  0.51100000000E-03 0.  1.
         23    2    1    0    0    0  0.19055910004E+01 -0.44630890465E+01  0.27494702429E+02  0.97080309770E+02  0.92978908589E+02 0.  0.
         11    1    3    3    0    0  0.54762501470E+00 -0.31014360193E+02 -0.23938537718E+02  0.39182190082E+02  0.51100000000E-03 0. -1.
         22    1    1    0    0    0 -0.19055910004E+01  0.44630890465E+01 -0.27494702429E+02  0.27919690230E+02  0.00000000000E+00 0.  1.
</event>
<event>
 5    1  0.8902899E-005  0.9118800E+02  0.7818608E-02  0.1130116E+00
         25   -1    0    0    0    0  0.00000000000E+00  0.00000000000E+00  0.99999998245E-14  0.12500000000E+03  0.12500000000E+03 0.  0.
        -11    1    3    3    0    0  0.11799600126E+02  0.41740383466E+02 -0.94272602888E+01  0.44388775742E+02  0.51100000000E-03 0.  1.
         23    2    1    0    0    0 -0.19511939932E+02 -0.59821768476E+00 -0.18826106675E+02  0.97879971297E+02  0.94047822007E+02 0.  0.
         11    1    3    3    0    0 -0.31311540058E+02 -0.42338601151E+02 -0.93988463861E+01  0.53491195555E+02  0.51100000000E-03 0. -1.
         22    1    1    0    0    0  0.19511939932E+02  0.59821768476E+00  0.18826106675E+02  0.27120028703E+02  0.00000000000E+00 0. -1.
</event>
<event>
 5    1  0.8902899E-005  0.9118800E+02  0.7818608E-02  0.1130116E+00
         25   -1    0    0    0    0  0.00000000000E+00  0.00000000000E+00  0.99999998245E-14  0.12500000000E+03  0.12500000000E+03 0.  0.
        -11    1    3    3    0    0  0.31642831971E+01 -0.77319512410E+01 -0.33897153564E+02  0.34911499225E+02  0.51100000000E-03 0. -1.
         23    2    1    0    0    0  0.75352042125E+01 -0.45482815465E+01  0.27284177154E+02  0.96331332600E+02  0.91966478404E+02 0.  0.
         11    1    3    3    0    0  0.43709210154E+01  0.31836696944E+01  0.61181330717E+02  0.61419833375E+02  0.51100000000E-03 0.  1.
         22    1    1    0    0    0 -0.75352042125E+01  0.45482815465E+01 -0.27284177154E+02  0.28668667400E+02  0.00000000000E+00 0.  1.
</event>
<event>
 5    1  0.8902899E-005  0.9118800E+02  0.7818608E-02  0.1130116E+00
         25   -1    0    0    0    0  0.00000000000E+00  0.00000000000E+00  0.99999998245E-14  0.12500000000E+03  0.12500000000E+03 0.  0.
        -11    1    3    3    0    0  0.34399976835E+02 -0.13169884068E+02 -0.39001020472E+02  0.53645911780E+02  0.51100000000E-03 0.  1.
         23    2    1    0    0    0 -0.29142933283E+01 -0.21352445468E+02 -0.13878880453E+02  0.99367143044E+02  0.96004092419E+02 0.  0.
         11    1    3    3    0    0 -0.37314270163E+02 -0.81825614005E+01  0.25122140019E+02  0.45721231264E+02  0.51100000000E-03 0. -1.
         22    1    1    0    0    0  0.29142933283E+01  0.21352445468E+02  0.13878880453E+02  0.25632856956E+02  0.00000000000E+00 0. -1.
</event>
<event>
 5    1  0.8902899E-005  0.9118800E+02  0.7818608E-02  0.1130116E+00
         25   -1    0    0    0    0  0.00000000000E+00  0.00000000000E+00  0.99999998245E-14  0.12500000000E+03  0.12500000000E+03 0.  0.
        -11    1    3    3    0    0 -0.22752991378E+02  0.65669658183E+01 -0.27609283569E+02  0.36374389289E+02  0.51100000000E-03 0. -1.
         23    2    1    0    0    0  0.15626497951E+02 -0.28237769808E+02 -0.82000736997E+01  0.91701347015E+02  0.85442008132E+02 0.  0.
         11    1    3    3    0    0  0.38379489328E+02 -0.34804735626E+02  0.19409209870E+02  0.55326957726E+02  0.51100000000E-03 0.  1.
         22    1    1    0    0    0 -0.15626497951E+02  0.28237769808E+02  0.82000736997E+01  0.33298652985E+02  0.00000000000E+00 0.  1.
</event>
<event>
 5    1  0.8902899E-005  0.9118800E+02  0.7818608E-02  0.1130116E+00
         25   -1    0    0    0    0  0.00000000000E+00  0.00000000000E+00  0.99999998245E-14  0.12500000000E+03  0.12500000000E+03 0.  0.
        -11    1    3    3    0    0 -0.28540131563E+02  0.21476148361E+02  0.23230583452E+02  0.42607793487E+02  0.51100000000E-03 0. -1.
         23    2    1    0    0    0  0.20087348220E+02  0.64979565384E+01  0.23391281812E+02  0.93490048199E+02  0.88019952566E+02 0.  0.
         11    1    3    3    0    0  0.48627479783E+02 -0.14978191823E+02  0.16069836045E+00  0.50882254712E+02  0.51100000000E-03 0.  1.
         22    1    1    0    0    0 -0.20087348220E+02 -0.64979565384E+01 -0.23391281812E+02  0.31509951801E+02  0.00000000000E+00 0.  1.
</event>
<event>
 4    1  0.8902899E-005  0.9118800E+02  0.7818608E-02  0.1130116E+00
         25   -1    0    0    0    0  0.00000000000E+00  0.00000000000E+00  0.99999998245E-14  0.12500000000E+03  0.12500000000E+03 0.  0.
        -11    1    1    0    0    0 -0.12461361917E+02  0.34401073183E+02 -0.14798158869E+02  0.39467770182E+02  0.51100000000E-03 0.  1.
         11    1    1    0    0    0 -0.60375344883E+01  0.60492788926E+01 -0.24643864994E+02  0.26083820271E+02  0.51100000000E-03 0. -1.
         22    1    1    0    0    0  0.18498896405E+02 -0.40450352076E+02  0.39442023863E+02  0.59448409547E+02  0.00000000000E+00 0. -1.
</event>
<event>
 5    1  0.8902899E-005  0.9118800E+02  0.7818608E-02  0.1130116E+00
         25   -1    0    0    0    0  0.00000000000E+00  0.00000000000E+00  0.99999998245E-14  0.12500000000E+03  0.12500000000E+03 0.  0.
        -11    1    3    3    0    0 -0.15029472631E+02 -0.26292154424E+02 -0.26979509216E+02  0.40559294244E+02  0.51100000000E-03 0. -1.
         23    2    1    0    0    0 -0.19836894557E+02  0.36308559312E+01  0.20085203857E+02  0.96537728228E+02  0.92246582901E+02 0.  0.
         11    1    3    3    0    0 -0.48074219259E+01  0.29923010355E+02  0.47064713073E+02  0.55978433983E+02  0.51100000000E-03 0.  1.
         22    1    1    0    0    0  0.19836894557E+02 -0.36308559312E+01 -0.20085203857E+02  0.28462271772E+02  0.00000000000E+00 0.  1.
</event>
<event>
 5    1  0.8902899E-005  0.9118800E+02  0.7818608E-02  0.1130116E+00
         25   -1    0    0    0    0  0.00000000000E+00  0.00000000000E+00  0.99999998245E-14  0.12500000000E+03  0.12500000000E+03 0.  0.
        -11    1    3    3    0    0 -0.37469868910E+02  0.41362540140E+02 -0.10666937359E+02  0.56821073167E+02  0.51100000000E-03 0. -1.
         23    2    1    0    0    0 -0.46866424338E+01  0.31262747871E+02  0.18418627262E+01  0.93334301207E+02  0.87798492594E+02 0.  0.
         11    1    3    3    0    0  0.32783226477E+02 -0.10099792269E+02  0.12508800085E+02  0.36513228040E+02  0.51100000000E-03 0.  1.
         22    1    1    0    0    0  0.46866424338E+01 -0.31262747871E+02 -0.18418627262E+01  0.31665698793E+02  0.00000000000E+00 0. -1.
</event>
<event>
 5    1  0.8902899E-005  0.9118800E+02  0.7818608E-02  0.1130116E+00
         25   -1    0    0    0    0  0.00000000000E+00  0.00000000000E+00  0.99999998245E-14  0.12500000000E+03  0.12500000000E+03 0.  0.
        -11    1    3    3    0    0 -0.32206679137E+02  0.11886434458E+02 -0.47296947386E+02  0.58442781739E+02  0.51100000000E-03 0.  1.
         23    2    1    0    0    0 -0.60172142235E-01  0.36420128222E+01 -0.27860448083E+02  0.96902447696E+02  0.92739484170E+02 0.  0.
         11    1    3    3    0    0  0.32146506995E+02 -0.82444216354E+01  0.19436499303E+02  0.38459665957E+02  0.51100000000E-03 0. -1.
         22    1    1    0    0    0  0.60172142235E-01 -0.36420128222E+01  0.27860448083E+02  0.28097552304E+02  0.00000000000E+00 0.  1.
</event>
<event>
 5    1  0.8902899E-005  0.9118800E+02  0.7818608E-02  0.1130116E+00
         25   -1    0    0    0    0  0.00000000000E+00  0.00000000000E+00  0.99999998245E-14  0.12500000000E+03  0.12500000000E+03 0.  0.
        -11    1    3    3    0    0 -0.28512523455E+02  0.21678290605E+02  0.10083231605E+02  0.37209996468E+02  0.51100000000E-03 0. -1.
         23    2    1    0    0    0  0.22888104722E+02  0.11283076110E+02 -0.15062199463E+02  0.95368209691E+02  0.90647958734E+02 0.  0.
         11    1    3    3    0    0  0.51400628177E+02 -0.10395214495E+02 -0.25145431068E+02  0.58158213222E+02  0.51100000000E-03 0.  1.
         22    1    1    0    0    0 -0.22888104722E+02 -0.11283076110E+02  0.15062199463E+02  0.29631790309E+02  0.00000000000E+00 0.  1.
</event>
<event>
 5    1  0.8902899E-005  0.9118800E+02  0.7818608E-02  0.1130116E+00
         25   -1    0    0    0    0  0.00000000000E+00  0.00000000000E+00  0.99999998245E-14  0.12500000000E+03  0.12500000000E+03 0.  0.
        -11    1    3    3    0    0  0.76560666164E+01 -0.48141282072E+02  0.63214474795E+01  0.49154441244E+02  0.51100000000E-03 0. -1.
         23    2    1    0    0    0 -0.23695907162E+02 -0.13465195662E+02  0.98131599293E+01  0.96032680168E+02  0.91559652915E+02 0.  0.
         11    1    3    3    0    0 -0.31351973779E+02  0.34676086410E+02  0.34917124498E+01  0.46878238924E+02  0.51100000000E-03 0.  1.
         22    1    1    0    0    0  0.23695907162E+02  0.13465195662E+02 -0.98131599293E+01  0.28967319832E+02  0.00000000000E+00 0. -1.
</event>
<event>
 5    1  0.8902899E-005  0.9118800E+02  0.7818608E-02  0.1130116E+00
         25   -1    0    0    0    0  0.00000000000E+00  0.00000000000E+00  0.99999998245E-14  0.12500000000E+03  0.12500000000E+03 0.  0.
        -11    1    3    3    0    0 -0.17104095312E+02  0.53040617366E+02  0.12785989549E+02  0.57178131274E+02  0.51100000000E-03 0.  1.
         23    2    1    0    0    0  0.22760042361E+01  0.38890329423E+02  0.18542744550E+02  0.81855228667E+02  0.69561535110E+02 0.  0.
         11    1    3    3    0    0  0.19380099548E+02 -0.14150287943E+02  0.57567550011E+01  0.24677097393E+02  0.51100000000E-03 0. -1.
         22    1    1    0    0    0 -0.22760042361E+01 -0.38890329423E+02 -0.18542744550E+02  0.43144771333E+02  0.00000000000E+00 0.  1.
</event>
<event>
 5    1  0.8902899E-005  0.9118800E+02  0.7818608E-02  0.1130116E+00
         25   -1    0    0    0    0  0.00000000000E+00  0.00000000000E+00  0.99999998245E-14  0.12500000000E+03  0.12500000000E+03 0.  0.
        -11    1    3    3    0    0 -0.47421768425E+02  0.20610147631E+02 -0.59208721478E+01  0.52044779115E+02  0.51100000000E-03 0. -1.
         23    2    1    0    0    0 -0.87607499087E+01  0.21905879377E+02 -0.20855899871E+02  0.93510527955E+02  0.88049031731E+02 0.  0.
         11    1    3    3    0    0  0.38661018516E+02  0.12957317462E+01 -0.14935027723E+02  0.41465748840E+02  0.51100000000E-03 0.  1.
         22    1    1    0    0    0  0.87607499087E+01 -0.21905879377E+02  0.20855899871E+02  0.31489472045E+02  0.00000000000E+00 0. -1.
</event>
<event>
 5    1  0.8902899E-005  0.9118800E+02  0.7818608E-02  0.1130116E+00
         25   -1    0    0    0    0  0.00000000000E+00  0.00000000000E+00  0.99999998245E-14  0.12500000000E+03  0.12500000000E+03 0.  0.
        -11    1    3    3    0    0 -0.23050657761E+02  0.32357878262E+02  0.22141404792E+02  0.45481940539E+02  0.51100000000E-03 0. -1.
         23    2    1    0    0    0  0.14021350366E+02 -0.59238348939E+00  0.26232684704E+02  0.95249320494E+02  0.90483866648E+02 0.  0.
         11    1    3    3    0    0  0.37072008127E+02 -0.32950261751E+02  0.40912799124E+01  0.49767379955E+02  0.51100000000E-03 0.  1.
         22    1    1    0    0    0 -0.14021350366E+02  0.59238348939E+00 -0.26232684704E+02  0.29750679506E+02  0.00000000000E+00 0.  1.
</event>
<event>
 5    1  0.8902899E-005  0.9118800E+02  0.7818608E-02  0.1130116E+00
         25   -1    0    0    0    0  0.00000000000E+00  0.00000000000E+00  0.99999998245E-14  0.12500000000E+03  0.12500000000E+03 0.  0.
        -11    1    3    3    0    0 -0.34583221558E+02 -0.55128994944E+01  0.34290540837E+02  0.49012574563E+02  0.51100000000E-03 0. -1.
         23    2    1    0    0    0  0.11205005524E+02  0.16588988383E+01  0.26726508087E+02  0.95972248990E+02  0.91477113245E+02 0.  0.
         11    1    3    3    0    0  0.45788227082E+02  0.71717983327E+01 -0.75640327499E+01  0.46959674427E+02  0.51100000000E-03 0.  1.
         22    1    1    0    0    0 -0.11205005524E+02 -0.16588988383E+01 -0.26726508087E+02  0.29027751010E+02  0.00000000000E+00 0. -1.
</event>
<event>
 5    1  0.8902899E-005  0.9118800E+02  0.7818608E-02  0.1130116E+00
         25   -1    0    0    0    0  0.00000000000E+00  0.00000000000E+00  0.99999998245E-14  0.12500000000E+03  0.12500000000E+03 0.  0.
        -11    1    3    3    0    0  0.77218883252E+01  0.53110162594E+02  0.11731765451E+02  0.54935883091E+02  0.51100000000E-03 0.  1.
         23    2    1    0    0    0 -0.62874708114E+00  0.13296843238E+02  0.24111831264E+02  0.97457636814E+02  0.93484807340E+02 0.  0.
         11    1    3    3    0    0 -0.83506354063E+01 -0.39813319356E+02  0.12380065813E+02  0.42521753723E+02  0.51100000000E-03 0. -1.
         22    1    1    0    0    0  0.62874708114E+00 -0.13296843238E+02 -0.24111831264E+02  0.27542363186E+02  0.00000000000E+00 0.  1.
</event>
<event>
 5    1  0.8902899E-005  0.9118800E+02  0.7818608E-02  0.1130116E+00
         25   -1    0    0    0    0  0.00000000000E+00  0.00000000000E+00  0.99999998245E-14  0.12500000000E+03  0.12500000000E+03 0.  0.
        -11    1    3    3    0    0 -0.21038709230E+02 -0.39385729181E+02 -0.32786051556E+02  0.55396643636E+02  0.51100000000E-03 0.  1.
         23    2    1    0    0    0 -0.19941119177E+02 -0.82707795332E+01  0.34136286762E+01  0.10314349321E+03  0.10080115725E+03 0.  0.
         11    1    3    3    0    0  0.10975900531E+01  0.31114949648E+02  0.36199680232E+02  0.47746849579E+02  0.51100000000E-03 0. -1.
         22    1    1    0    0    0  0.19941119177E+02  0.82707795332E+01 -0.34136286762E+01  0.21856506785E+02  0.00000000000E+00 0.  1.
</event>
<event>
 5    1  0.8902899E-005  0.9118800E+02  0.7818608E-02  0.1130116E+00
         25   -1    0    0    0    0  0.00000000000E+00  0.00000000000E+00  0.99999998245E-14  0.12500000000E+03  0.12500000000E+03 0.  0.
        -11    1    3    3    0    0  0.37557624653E+02  0.35303032168E+02  0.27442219786E+02  0.58394817209E+02  0.51100000000E-03 0. -1.
         23    2    1    0    0    0  0.20959509993E+02  0.18094169650E+02 -0.30502538266E+01  0.97143150163E+02  0.93063352297E+02 0.  0.
         11    1    3    3    0    0 -0.16598114660E+02 -0.17208862518E+02 -0.30492473612E+02  0.38748332954E+02  0.51100000000E-03 0.  1.
         22    1    1    0    0    0 -0.20959509993E+02 -0.18094169650E+02  0.30502538266E+01  0.27856849837E+02  0.00000000000E+00 0. -1.
</event>
<event>
 5    1  0.8902899E-005  0.9118800E+02  0.7818608E-02  0.1130116E+00
         25   -1    0    0    0    0  0.00000000000E+00  0.00000000000E+00  0.99999998245E-14  0.12500000000E+03  0.12500000000E+03 0.  0.
        -11    1    3    3    0    0 -0.15202336552E+01 -0.80164589373E+01 -0.38126598732E+02  0.38989899402E+02  0.51100000000E-03 0. -1.
         23    2    1    0    0    0 -0.21940993974E+02  0.12940287673E+02  0.11852723257E+02  0.96904710177E+02  0.92742533631E+02 0.  0.
         11    1    3    3    0    0 -0.20420760318E+02  0.20956746610E+02  0.49979321989E+02  0.57914810776E+02  0.51100000000E-03 0.  1.
         22    1    1    0    0    0  0.21940993974E+02 -0.12940287673E+02 -0.11852723257E+02  0.28095289823E+02  0.00000000000E+00 0.  1.
</event>
<event>
 5    1  0.8902899E-005  0.9118800E+02  0.7818608E-02  0.1130116E+00
         25   -1    0    0    0    0  0.00000000000E+00  0.00000000000E+00  0.99999998245E-14  0.12500000000E+03  0.12500000000E+03 0.  0.
        -11    1    3    3    0    0 -0.33530623607E+02 -0.23153837344E+02 -0.51244423381E+01  0.41069000630E+02  0.51100000000E-03 0. -1.
         23    2    1    0    0    0  0.93529232126E+00  0.87964846302E+01  0.26065646680E+02  0.97474178479E+02  0.93506922844E+02 0.  0.
         11    1    3    3    0    0  0.34465915928E+02  0.31950321974E+02  0.31190089018E+02  0.56405177849E+02  0.51100000000E-03 0.  1.
         22    1    1    0    0    0 -0.93529232126E+00 -0.87964846302E+01 -0.26065646680E+02  0.27525821521E+02  0.00000000000E+00 0.  1.
</event>
<event>
 5    1  0.8902899E-005  0.9118800E+02  0.7818608E-02  0.1130116E+00
         25   -1    0    0    0    0  0.00000000000E+00  0.00000000000E+00  0.99999998245E-14  0.12500000000E+03  0.12500000000E+03 0.  0.
        -11    1    3    3    0    0  0.35387152554E+02  0.18123631454E+02 -0.11726155527E+02  0.41451408983E+02  0.51100000000E-03 0.  1.
         23    2    1    0    0    0  0.22970418750E+01  0.26765248244E+00  0.28437411879E+02  0.96468711323E+02  0.92153013140E+02 0.  0.
         11    1    3    3    0    0 -0.33090110679E+02 -0.17855978971E+02  0.40163567406E+02  0.55017302340E+02  0.51100000000E-03 0. -1.
         22    1    1    0    0    0 -0.22970418750E+01 -0.26765248244E+00 -0.28437411879E+02  0.28531288677E+02  0.00000000000E+00 0. -1.
</event>
<event>
 5    1  0.8902899E-005  0.9118800E+02  0.7818608E-02  0.1130116E+00
         25   -1    0    0    0    0  0.00000000000E+00  0.00000000000E+00  0.99999998245E-14  0.12500000000E+03  0.12500000000E+03 0.  0.
        -11    1    3    3    0    0  0.12695969642E+02  0.22809395966E+01  0.23586643035E+02  0.26883453285E+02  0.51100000000E-03 0. -1.
         23    2    1    0    0    0  0.12811486343E+02 -0.73665884521E+01 -0.35392209452E+02  0.86646260970E+02  0.77695336040E+02 0.  0.
         11    1    3    3    0    0  0.11551670121E+00 -0.96475280487E+01 -0.58978852486E+02  0.59762807685E+02  0.51100000000E-03 0.  1.
         22    1    1    0    0    0 -0.12811486343E+02  0.73665884521E+01  0.35392209452E+02  0.38353739030E+02  0.00000000000E+00 0. -1.
</event>
<event>
 5    1  0.8902899E-005  0.9118800E+02  0.7818608E-02  0.1130116E+00
         25   -1    0    0    0    0  0.00000000000E+00  0.00000000000E+00  0.99999998245E-14  0.12500000000E+03  0.12500000000E+03 0.  0.
        -11    1    3    3    0    0 -0.20704476971E+02 -0.37871086870E+02  0.10802237463E+02  0.44492504109E+02  0.51100000000E-03 0.  1.
         23    2    1    0    0    0 -0.26090710715E+02  0.10690648159E+02 -0.60230232881E+01  0.96167865961E+02  0.91744027001E+02 0.  0.
         11    1    3    3    0    0 -0.53862337437E+01  0.48561735030E+02 -0.16825260751E+02  0.51675361853E+02  0.51100000000E-03 0. -1.
         22    1    1    0    0    0  0.26090710715E+02 -0.10690648159E+02  0.60230232881E+01  0.28832134039E+02  0.00000000000E+00 0. -1.
</event>
<event>
 5    1  0.8902899E-005  0.9118800E+02  0.7818608E-02  0.1130116E+00
         25   -1    0    0    0    0  0.00000000000E+00  0.00000000000E+00  0.99999998245E-14  0.12500000000E+03  0.12500000000E+03 0.  0.
        -11    1    3    3    0    0  0.46827594380E+02  0.57605675628E+01 -0.39935067216E+01  0.47349295985E+02  0.51100000000E-03 0. -1.
         23    2    1    0    0    0  0.10585385798E+02 -0.22998420373E+02  0.12877427763E+02  0.96595671493E+02  0.92325066332E+02 0.  0.
         11    1    3    3    0    0 -0.36242208582E+02 -0.28758987936E+02  0.16870934485E+02  0.49246375508E+02  0.51100000000E-03 0.  1.
         22    1    1    0    0    0 -0.10585385798E+02  0.22998420373E+02 -0.12877427763E+02  0.28404328507E+02  0.00000000000E+00 0.  1.
</event>
<event>
 5    1  0.8902899E-005  0.9118800E+02  0.7818608E-02  0.1130116E+00
         25   -1    0    0    0    0  0.00000000000E+00  0.00000000000E+00  0.99999998245E-14  0.12500000000E+03  0.12500000000E+03 0.  0.
        -11    1    3    3    0    0  0.68336101166E+01  0.57976763630E+02 -0.52345765216E+01  0.58612320717E+02  0.51100000000E-03 0. -1.
         23    2    1    0    0    0  0.14086299805E+02  0.46663477117E+02 -0.13541188818E+02  0.74410794299E+02  0.54568292761E+02 0.  0.
         11    1    3    3    0    0  0.72526896883E+01 -0.11313286513E+02 -0.83066122963E+01  0.15798473582E+02  0.51100000000E-03 0.  1.
         22    1    1    0    0    0 -0.14086299805E+02 -0.46663477117E+02  0.13541188818E+02  0.50589205701E+02  0.00000000000E+00 0. -1.
</event>
<event>
 5    1  0.8902899E-005  0.9118800E+02  0.7818608E-02  0.1130116E+00
         25   -1    0    0    0    0  0.00000000000E+00  0.00000000000E+00  0.99999998245E-14  0.12500000000E+03  0.12500000000E+03 0.  0.
        -11    1    3    3    0    0  0.26438252884E+02  0.19566234468E+02  0.16773997566E+02  0.36921345335E+02  0.51100000000E-03 0.  1.
         23    2    1    0    0    0 -0.26071782520E+02 -0.27095254125E+01 -0.56072275026E+01  0.98194769690E+02  0.94465297451E+02 0.  0.
         11    1    3    3    0    0 -0.52510035403E+02 -0.22275759880E+02 -0.22381225068E+02  0.61273424354E+02  0.51100000000E-03 0. -1.
         22    1    1    0    0    0  0.26071782520E+02  0.27095254125E+01  0.56072275026E+01  0.26805230310E+02  0.00000000000E+00 0. -1.
</event>
<event>
 5    1  0.8902899E-005  0.9118800E+02  0.7818608E-02  0.1130116E+00
         25   -1    0    0    0    0  0.00000000000E+00  0.00000000000E+00  0.99999998245E-14  0.12500000000E+03  0.12500000000E+03 0.  0.
        -11    1    3    3    0    0  0.53917316162E+01 -0.24752308193E+02 -0.10438043754E+02  0.27398910350E+02  0.51100000000E-03 0.  1.
         23    2    1    0    0    0  0.34797885810E+02  0.46336907976E+01  0.24899716682E+02  0.81960949847E+02  0.69751254194E+02 0.  0.
         11    1    3    3    0    0  0.29406154194E+02  0.29385998990E+02  0.35337760436E+02  0.54562039497E+02  0.51100000000E-03 0. -1.
         22    1    1    0    0    0 -0.34797885810E+02 -0.46336907976E+01 -0.24899716682E+02  0.43039050153E+02  0.00000000000E+00 0.  1.
</event>
<event>
 5    1  0.8902899E-005  0.9118800E+02  0.7818608E-02  0.1130116E+00
         25   -1    0    0    0    0  0.00000000000E+00  0.00000000000E+00  0.99999998245E-14  0.12500000000E+03  0.12500000000E+03 0.  0.
        -11    1    3    3    0    0  0.38456333601E+02 -0.39152932323E+02 -0.15439015708E+02  0.57010568404E+02  0.51100000000E-03 0. -1.
         23    2    1    0    0    0  0.20347017162E+02 -0.18964729231E+02 -0.26763401601E+02  0.86400236692E+02  0.77298506926E+02 0.  0.
         11    1    3    3    0    0 -0.18109316438E+02  0.20188203092E+02 -0.11324385892E+02  0.29389668287E+02  0.51100000000E-03 0.  1.
         22    1    1    0    0    0 -0.20347017162E+02  0.18964729231E+02  0.26763401601E+02  0.38599763308E+02  0.00000000000E+00 0. -1.
</event>
<event>
 5    1  0.8902899E-005  0.9118800E+02  0.7818608E-02  0.1130116E+00
         25   -1    0    0    0    0  0.00000000000E+00  0.00000000000E+00  0.99999998245E-14  0.12500000000E+03  0.12500000000E+03 0.  0.
        -11    1    3    3    0    0  0.10387573232E+01  0.35795990127E+02  0.43477081765E+02  0.56326623944E+02  0.51100000000E-03 0.  1.
         23    2    1    0    0    0  0.94372044936E+01  0.26909276686E+02  0.58507530174E+01  0.95889841785E+02  0.91364437536E+02 0.  0.
         11    1    3    3    0    0  0.83984471704E+01 -0.88867134407E+01 -0.37626328747E+02  0.39563217841E+02  0.51100000000E-03 0. -1.
         22    1    1    0    0    0 -0.94372044936E+01 -0.26909276686E+02 -0.58507530174E+01  0.29110158215E+02  0.00000000000E+00 0.  1.
</event>
<event>
 5    1  0.8902899E-005  0.9118800E+02  0.7818608E-02  0.1130116E+00
         25   -1    0    0    0    0  0.00000000000E+00  0.00000000000E+00  0.99999998245E-14  0.12500000000E+03  0.12500000000E+03 0.  0.
        -11    1    3    3    0    0 -0.30507179721E+02 -0.16219234767E+02  0.62753769166E+01  0.35115978509E+02  0.51100000000E-03 0. -1.
         23    2    1    0    0    0  0.15077834395E+02  0.23214218729E+02  0.10154997570E+02  0.95515003529E+02  0.90850156204E+02 0.  0.
         11    1    3    3    0    0  0.45585014116E+02  0.39433453496E+02  0.38796206536E+01  0.60399025019E+02  0.51100000000E-03 0.  1.
         22    1    1    0    0    0 -0.15077834395E+02 -0.23214218729E+02 -0.10154997570E+02  0.29484996471E+02  0.00000000000E+00 0.  1.
</event>
<event>
 5    1  0.8902899E-005  0.9118800E+02  0.7818608E-02  0.1130116E+00
         25   -1    0    0    0    0  0.00000000000E+00  0.00000000000E+00  0.99999998245E-14  0.12500000000E+03  0.12500000000E+03 0.  0.
        -11    1    3    3    0    0 -0.25256433896E+02 -0.22309797012E+02  0.16265654978E+02  0.37419059689E+02  0.51100000000E-03 0.  1.
         23    2    1    0    0    0  0.24117769396E+02  0.28558239932E+01  0.20802852412E+02  0.93022176438E+02  0.87352985692E+02 0.  0.
         11    1    3    3    0    0  0.49374203292E+02  0.25165621006E+02  0.45371974338E+01  0.55603116749E+02  0.51100000000E-03 0. -1.
         22    1    1    0    0    0 -0.24117769396E+02 -0.28558239932E+01 -0.20802852412E+02  0.31977823562E+02  0.00000000000E+00 0. -1.
</event>
<event>
 5    1  0.8902899E-005  0.9118800E+02  0.7818608E-02  0.1130116E+00
         25   -1    0    0    0    0  0.00000000000E+00  0.00000000000E+00  0.99999998245E-14  0.12500000000E+03  0.12500000000E+03 0.  0.
        -11    1    3    3    0    0 -0.20346281507E+02  0.25380626597E+02 -0.58630328712E+01  0.33053328612E+02  0.51100000000E-03 0. -1.
         23    2    1    0    0    0  0.28511688630E+02 -0.11258282010E+02 -0.31728394061E+01  0.94182274382E+02  0.88997576347E+02 0.  0.
         11    1    3    3    0    0  0.48857970137E+02 -0.36638908607E+02  0.26901934651E+01  0.61128945770E+02  0.51100000000E-03 0.  1.
         22    1    1    0    0    0 -0.28511688630E+02  0.11258282010E+02  0.31728394061E+01  0.30817725618E+02  0.00000000000E+00 0.  1.
</event>
<event>
 5    1  0.8902899E-005  0.9118800E+02  0.7818608E-02  0.1130116E+00
         25   -1    0    0    0    0  0.00000000000E+00  0.00000000000E+00  0.99999998245E-14  0.12500000000E+03  0.12500000000E+03 0.  0.
        -11    1    3    3    0    0  0.22600975789E+02  0.35532102477E+02 -0.16817020390E+01  0.42144543361E+02  0.51100000000E-03 0. -1.
         23    2    1    0    0    0 -0.91693155989E+01  0.19930496557E+02  0.28758919742E+02  0.88828512523E+02  0.81130315732E+02 0.  0.
         11    1    3    3    0    0 -0.31770291388E+02 -0.15601605920E+02  0.30440621781E+02  0.46683969163E+02  0.51100000000E-03 0.  1.
         22    1    1    0    0    0  0.91693155989E+01 -0.19930496557E+02 -0.28758919742E+02  0.36171487477E+02  0.00000000000E+00 0. -1.
</event>
<event>
 5    1  0.8902899E-005  0.9118800E+02  0.7818608E-02  0.1130116E+00
         25   -1    0    0    0    0  0.00000000000E+00  0.00000000000E+00  0.99999998245E-14  0.12500000000E+03  0.12500000000E+03 0.  0.
        -11    1    3    3    0    0 -0.36431469986E+01  0.58098210713E+01 -0.35304735266E+02  0.35964578037E+02  0.51100000000E-03 0. -1.
         23    2    1    0    0    0 -0.26825308345E+01 -0.25392283113E+02  0.15160674229E+02  0.95304713229E+02  0.90560357261E+02 0.  0.
         11    1    3    3    0    0  0.96061616408E+00 -0.31202104184E+02  0.50465409494E+02  0.59340135192E+02  0.51100000000E-03 0.  1.
         22    1    1    0    0    0  0.26825308345E+01  0.25392283113E+02 -0.15160674229E+02  0.29695286771E+02  0.00000000000E+00 0.  1.
</event>
<event>
 5    1  0.8902899E-005  0.9118800E+02  0.7818608E-02  0.1130116E+00
         25   -1    0    0    0    0  0.00000000000E+00  0.00000000000E+00  0.99999998245E-14  0.12500000000E+03  0.12500000000E+03 0.  0.
        -11    1    3    3    0    0 -0.63959629856E+01  0.48210713491E+02 -0.11149226204E+02  0.49894754064E+02  0.51100000000E-03 0.  1.
         23    2    1    0    0    0 -0.21858703571E+02  0.85305774611E+01 -0.20893312317E+02  0.93581785964E+02  0.88150136080E+02 0.  0.
         11    1    3    3    0    0 -0.15462740586E+02 -0.39680136030E+02 -0.97440861132E+01  0.43687031900E+02  0.51100000000E-03 0. -1.
         22    1    1    0    0    0  0.21858703571E+02 -0.85305774611E+01  0.20893312317E+02  0.31418214036E+02  0.00000000000E+00 0.  1.
</event>
<event>
 5    1  0.8902899E-005  0.9118800E+02  0.7818608E-02  0.1130116E+00
         25   -1    0    0    0    0  0.00000000000E+00  0.00000000000E+00  0.99999998245E-14  0.12500000000E+03  0.12500000000E+03 0.  0.
        -11    1    3    3    0    0  0.22701913634E+02 -0.48647334100E+02  0.13718364769E+02  0.55408785673E+02  0.51100000000E-03 0. -1.
         23    2    1    0    0    0 -0.45085434704E+01 -0.19271036577E+02  0.21039457571E+02  0.96114734035E+02  0.91671606885E+02 0.  0.
         11    1    3    3    0    0 -0.27210457104E+02  0.29376297523E+02  0.73210928022E+01  0.40705948362E+02  0.51100000000E-03 0.  1.
         22    1    1    0    0    0  0.45085434704E+01  0.19271036577E+02 -0.21039457571E+02  0.28885265965E+02  0.00000000000E+00 0. -1.
</event>
<event>
 5    1  0.8902899E-005  0.9118800E+02  0.7818608E-02  0.1130116E+00
         25   -1    0    0    0    0  0.00000000000E+00  0.00000000000E+00  0.99999998245E-14  0.12500000000E+03  0.12500000000E+03 0.  0.
        -11    1    3    3    0    0  0.41583875944E+02 -0.92834856784E-01 -0.13149281404E+02  0.43613426356E+02  0.51100000000E-03 0.  1.
         23    2    1    0    0    0  0.93322487602E+01 -0.44359911873E+01  0.27464077606E+02  0.95656441192E+02  0.91044551172E+02 0.  0.
         11    1    3    3    0    0 -0.32251627184E+02 -0.43431563305E+01  0.40613359010E+02  0.52043014836E+02  0.51100000000E-03 0. -1.
         22    1    1    0    0    0 -0.93322487602E+01  0.44359911873E+01 -0.27464077606E+02  0.29343558808E+02  0.00000000000E+00 0.  1.
</event>
<event>
 5    1  0.8902899E-005  0.9118800E+02  0.7818608E-02  0.1130116E+00
         25   -1    0    0    0    0  0.00000000000E+00  0.00000000000E+00  0.99999998245E-14  0.12500000000E+03  0.12500000000E+03 0.  0.
        -11    1    3    3    0    0 -0.69359223453E+01 -0.13004118150E+02  0.35708057071E+02  0.38630032975E+02  0.51100000000E-03 0. -1.
         23    2    1    0    0    0  0.18925538551E+02 -0.13475767730E+02 -0.16234796152E+02  0.96656730402E+02  0.92407697735E+02 0.  0.
         11    1    3    3    0    0  0.25861460897E+02 -0.47164958012E+00 -0.51942853223E+02  0.58026697427E+02  0.51100000000E-03 0.  1.
         22    1    1    0    0    0 -0.18925538551E+02  0.13475767730E+02  0.16234796152E+02  0.28343269598E+02  0.00000000000E+00 0.  1.
</event>
<event>
 5    1  0.8902899E-005  0.9118800E+02  0.7818608E-02  0.1130116E+00
         25   -1    0    0    0    0  0.00000000000E+00  0.00000000000E+00  0.99999998245E-14  0.12500000000E+03  0.12500000000E+03 0.  0.
        -11    1    3    3    0    0 -0.30487790985E+02 -0.39487995099E+01  0.28784644355E+02  0.42114773745E+02  0.51100000000E-03 0. -1.
         23    2    1    0    0    0  0.10691830199E+02 -0.27760950360E+02  0.69768266894E+01  0.94444121539E+02  0.89364592456E+02 0.  0.
         11    1    3    3    0    0  0.41179621184E+02 -0.23812150850E+02 -0.21807817665E+02  0.52329347794E+02  0.51100000000E-03 0.  1.
         22    1    1    0    0    0 -0.10691830199E+02  0.27760950360E+02 -0.69768266894E+01  0.30555878461E+02  0.00000000000E+00 0.  1.
</event>
<event>
 5    1  0.8902899E-005  0.9118800E+02  0.7818608E-02  0.1130116E+00
         25   -1    0    0    0    0  0.00000000000E+00  0.00000000000E+00  0.99999998245E-14  0.12500000000E+03  0.12500000000E+03 0.  0.
        -11    1    3    3    0    0  0.37470050464E+02 -0.82051385083E+01  0.17676459473E+02  0.42234893150E+02  0.51100000000E-03 0.  1.
         23    2    1    0    0    0 -0.90009051649E+00  0.28039424468E+02  0.70039490140E+01  0.96085042119E+02  0.91631111146E+02 0.  0.
         11    1    3    3    0    0 -0.38370140980E+02  0.36244562977E+02 -0.10672510458E+02  0.53850148969E+02  0.51100000000E-03 0. -1.
         22    1    1    0    0    0  0.90009051649E+00 -0.28039424468E+02 -0.70039490140E+01  0.28914957881E+02  0.00000000000E+00 0. -1.
</event>
<event>
 5    1  0.8902899E-005  0.9118800E+02  0.7818608E-02  0.1130116E+00
         25   -1    0    0    0    0  0.00000000000E+00  0.00000000000E+00  0.99999998245E-14  0.12500000000E+03  0.12500000000E+03 0.  0.
        -11    1    3    3    0    0  0.41219179331E+01 -0.40253794433E+01 -0.33481026171E+02  0.33973121741E+02  0.51100000000E-03 0.  1.
         23    2    1    0    0    0 -0.15574972597E+01  0.14773441747E+01  0.28481238041E+02  0.96437975144E+02  0.92111311933E+02 0.  0.
         11    1    3    3    0    0 -0.56794151928E+01  0.55027236180E+01  0.61962264212E+02  0.62464853403E+02  0.51100000000E-03 0. -1.
         22    1    1    0    0    0  0.15574972597E+01 -0.14773441747E+01 -0.28481238041E+02  0.28562024856E+02  0.00000000000E+00 0. -1.
</event>
<event>
 5    1  0.8902899E-005  0.9118800E+02  0.7818608E-02  0.1130116E+00
         25   -1    0    0    0    0  0.00000000000E+00  0.00000000000E+00  0.99999998245E-14  0.12500000000E+03  0.12500000000E+03 0.  0.
        -11    1    3    3    0    0 -0.34986822369E+02 -0.38786163985E+02 -0.29236100720E+02  0.59859784846E+02  0.51100000000E-03 0. -1.
         23    2    1    0    0    0 -0.24351967040E+02 -0.15778370241E+02 -0.38577441711E+01  0.95727872365E+02  0.91142570137E+02 0.  0.
         11    1    3    3    0    0  0.10634855329E+02  0.23007793745E+02  0.25378356549E+02  0.35868087519E+02  0.51100000000E-03 0.  1.
         22    1    1    0    0    0  0.24351967040E+02  0.15778370241E+02  0.38577441711E+01  0.29272127635E+02  0.00000000000E+00 0. -1.
</event>
<event>
 5    1  0.8902899E-005  0.9118800E+02  0.7818608E-02  0.1130116E+00
         25   -1    0    0    0    0  0.00000000000E+00  0.00000000000E+00  0.99999998245E-14  0.12500000000E+03  0.12500000000E+03 0.  0.
        -11    1    3    3    0    0 -0.23626299961E+02  0.11688107132E+02 -0.31187091793E+02  0.40834404526E+02  0.51100000000E-03 0. -1.
         23    2    1    0    0    0 -0.24784336337E+02 -0.19763698829E+02  0.91584016536E+01  0.92003887503E+02  0.85883478479E+02 0.  0.
         11    1    3    3    0    0 -0.11580363760E+01 -0.31451805961E+02  0.40345493447E+02  0.51169482977E+02  0.51100000000E-03 0.  1.
         22    1    1    0    0    0  0.24784336337E+02  0.19763698829E+02 -0.91584016536E+01  0.32996112497E+02  0.00000000000E+00 0.  1.
</event>
<event>
 5    1  0.8902899E-005  0.9118800E+02  0.7818608E-02  0.1130116E+00
         25   -1    0    0    0    0  0.00000000000E+00  0.00000000000E+00  0.99999998245E-14  0.12500000000E+03  0.12500000000E+03 0.  0.
        -11    1    3    3    0    0 -0.23113418587E+02 -0.24902906858E+02  0.42530713842E+02  0.54435709868E+02  0.51100000000E-03 0.  1.
         23    2    1    0    0    0 -0.10322989241E+02 -0.27624107909E+01  0.43680830914E+02  0.80031010579E+02  0.66202361323E+02 0.  0.
         11    1    3    3    0    0  0.12790429346E+02  0.22140496067E+02  0.11501170723E+01  0.25595300711E+02  0.51100000000E-03 0. -1.
         22    1    1    0    0    0  0.10322989241E+02  0.27624107909E+01 -0.43680830914E+02  0.44968989421E+02  0.00000000000E+00 0.  1.
</event>
<event>
 5    1  0.8902899E-005  0.9118800E+02  0.7818608E-02  0.1130116E+00
         25   -1    0    0    0    0  0.00000000000E+00  0.00000000000E+00  0.99999998245E-14  0.12500000000E+03  0.12500000000E+03 0.  0.
        -11    1    3    3    0    0  0.20515934515E+02  0.87629956574E+01 -0.12507693927E+02  0.25576083937E+02  0.51100000000E-03 0. -1.
         23    2    1    0    0    0 -0.37817911847E+02 -0.58645445728E+01 -0.81372255485E+01  0.85874537969E+02  0.76443668752E+02 0.  0.
         11    1    3    3    0    0 -0.58333846362E+02 -0.14627540230E+02  0.43704683786E+01  0.60298454032E+02  0.51100000000E-03 0.  1.
         22    1    1    0    0    0  0.37817911847E+02  0.58645445728E+01  0.81372255485E+01  0.39125462031E+02  0.00000000000E+00 0.  1.
</event>
<event>
 5    1  0.8902899E-005  0.9118800E+02  0.7818608E-02  0.1130116E+00
         25   -1    0    0    0    0  0.00000000000E+00  0.00000000000E+00  0.99999998245E-14  0.12500000000E+03  0.12500000000E+03 0.  0.
        -11    1    3    3    0    0 -0.41918863275E+02 -0.24173765811E+02 -0.30410386209E+02  0.57152022199E+02  0.51100000000E-03 0.  1.
         23    2    1    0    0    0 -0.18442796685E+02 -0.10204584708E+02 -0.34295934056E+02  0.84744796717E+02  0.74573448219E+02 0.  0.
         11    1    3    3    0    0  0.23476066591E+02  0.13969181103E+02 -0.38855478462E+01  0.27592774518E+02  0.51100000000E-03 0. -1.
         22    1    1    0    0    0  0.18442796685E+02  0.10204584708E+02  0.34295934056E+02  0.40255203283E+02  0.00000000000E+00 0.  1.
</event>
<event>
 5    1  0.8902899E-005  0.9118800E+02  0.7818608E-02  0.1130116E+00
         25   -1    0    0    0    0  0.00000000000E+00  0.00000000000E+00  0.99999998245E-14  0.12500000000E+03  0.12500000000E+03 0.  0.
        -11    1    3    3    0    0 -0.24286598396E+02  0.23888602664E+02 -0.16169727123E+02  0.37708941571E+02  0.51100000000E-03 0. -1.
         23    2    1    0    0    0  0.28252713624E+02  0.46915572382E+00 -0.55381539703E+01  0.96205780378E+02  0.91795670348E+02 0.  0.
         11    1    3    3    0    0  0.52539312020E+02 -0.23419446940E+02  0.10631573153E+02  0.58496838808E+02  0.51100000000E-03 0.  1.
         22    1    1    0    0    0 -0.28252713624E+02 -0.46915572382E+00  0.55381539703E+01  0.28794219622E+02  0.00000000000E+00 0.  1.
</event>
<event>
 5    1  0.8902899E-005  0.9118800E+02  0.7818608E-02  0.1130116E+00
         25   -1    0    0    0    0  0.00000000000E+00  0.00000000000E+00  0.99999998245E-14  0.12500000000E+03  0.12500000000E+03 0.  0.
        -11    1    3    3    0    0 -0.43001398248E+02  0.26239808374E+02 -0.13776319311E+02  0.52224848193E+02  0.51100000000E-03 0.  1.
         23    2    1    0    0    0 -0.13302785855E+02  0.19224677576E+02  0.17405113508E+02  0.95853982852E+02  0.91315364057E+02 0.  0.
         11    1    3    3    0    0  0.29698612393E+02 -0.70151307977E+01  0.31181432819E+02  0.43629134659E+02  0.51100000000E-03 0. -1.
         22    1    1    0    0    0  0.13302785855E+02 -0.19224677576E+02 -0.17405113508E+02  0.29146017148E+02  0.00000000000E+00 0.  1.
</event>
<event>
 5    1  0.8902899E-005  0.9118800E+02  0.7818608E-02  0.1130116E+00
         25   -1    0    0    0    0  0.00000000000E+00  0.00000000000E+00  0.99999998245E-14  0.12500000000E+03  0.12500000000E+03 0.  0.
        -11    1    3    3    0    0  0.56941127736E+01 -0.27041863343E+00  0.49055556636E+02  0.49385662734E+02  0.51100000000E-03 0. -1.
         23    2    1    0    0    0 -0.40925100301E+01  0.23595504701E+02  0.48509063879E+01  0.10056584822E+03  0.97552355455E+02 0.  0.
         11    1    3    3    0    0 -0.97866228037E+01  0.23865923335E+02 -0.44204650248E+02  0.51180185486E+02  0.51100000000E-03 0.  1.
         22    1    1    0    0    0  0.40925100301E+01 -0.23595504701E+02 -0.48509063879E+01  0.24434151781E+02  0.00000000000E+00 0.  1.
</event>
<event>
 5    1  0.8902899E-005  0.9118800E+02  0.7818608E-02  0.1130116E+00
         25   -1    0    0    0    0  0.00000000000E+00  0.00000000000E+00  0.99999998245E-14  0.12500000000E+03  0.12500000000E+03 0.  0.
        -11    1    3    3    0    0 -0.27124500817E+02  0.35890537527E+02  0.25233315231E+02  0.51580901760E+02  0.51100000000E-03 0. -1.
         23    2    1    0    0    0  0.71548710667E+01  0.28656350332E+02 -0.11547984935E+01  0.95441377673E+02  0.90748798440E+02 0.  0.
         11    1    3    3    0    0  0.34279371883E+02 -0.72341871954E+01 -0.26388113725E+02  0.43860475913E+02  0.51100000000E-03 0.  1.
         22    1    1    0    0    0 -0.71548710667E+01 -0.28656350332E+02  0.11547984935E+01  0.29558622327E+02  0.00000000000E+00 0. -1.
</event>
<event>
 5    1  0.8902899E-005  0.9118800E+02  0.7818608E-02  0.1130116E+00
         25   -1    0    0    0    0  0.00000000000E+00  0.00000000000E+00  0.99999998245E-14  0.12500000000E+03  0.12500000000E+03 0.  0.
        -11    1    3    3    0    0 -0.20059362739E+01  0.51879306016E+02 -0.24203695786E+02  0.57282676814E+02  0.51100000000E-03 0. -1.
         23    2    1    0    0    0 -0.17379817912E+02  0.16809027470E+02 -0.14580458806E+02  0.96765424492E+02  0.92554611570E+02 0.  0.
         11    1    3    3    0    0 -0.15373881638E+02 -0.35070278546E+02  0.96232369799E+01  0.39482747677E+02  0.51100000000E-03 0.  1.
         22    1    1    0    0    0  0.17379817912E+02 -0.16809027470E+02  0.14580458806E+02  0.28234575508E+02  0.00000000000E+00 0. -1.
</event>
<event>
 5    1  0.8902899E-005  0.9118800E+02  0.7818608E-02  0.1130116E+00
         25   -1    0    0    0    0  0.00000000000E+00  0.00000000000E+00  0.99999998245E-14  0.12500000000E+03  0.12500000000E+03 0.  0.
        -11    1    3    3    0    0  0.28040402351E+02 -0.50737676020E+02  0.23319878665E+02  0.62485139619E+02  0.51100000000E-03 0.  1.
         23    2    1    0    0    0  0.12339221348E+02 -0.24313311347E+02  0.11016081890E+02  0.95593409712E+02  0.90957970668E+02 0.  0.
         11    1    3    3    0    0 -0.15701181003E+02  0.26424364673E+02 -0.12303796775E+02  0.33108270094E+02  0.51100000000E-03 0. -1.
         22    1    1    0    0    0 -0.12339221348E+02  0.24313311347E+02 -0.11016081890E+02  0.29406590288E+02  0.00000000000E+00 0.  1.
</event>
<event>
 5    1  0.8902899E-005  0.9118800E+02  0.7818608E-02  0.1130116E+00
         25   -1    0    0    0    0  0.00000000000E+00  0.00000000000E+00  0.99999998245E-14  0.12500000000E+03  0.12500000000E+03 0.  0.
        -11    1    3    3    0    0  0.17184498874E+02 -0.28240356671E+02  0.64573727719E+00  0.33064206075E+02  0.51100000000E-03 0.  1.
         23    2    1    0    0    0 -0.17057330465E+02  0.23946701232E+02 -0.19382414878E+01  0.95535550191E+02  0.90878421793E+02 0.  0.
         11    1    3    3    0    0 -0.34241829340E+02  0.52187057903E+02 -0.25839787650E+01  0.62471344116E+02  0.51100000000E-03 0. -1.
         22    1    1    0    0    0  0.17057330465E+02 -0.23946701232E+02  0.19382414878E+01  0.29464449809E+02  0.00000000000E+00 0. -1.
</event>
<event>
 5    1  0.8902899E-005  0.9118800E+02  0.7818608E-02  0.1130116E+00
         25   -1    0    0    0    0  0.00000000000E+00  0.00000000000E+00  0.99999998245E-14  0.12500000000E+03  0.12500000000E+03 0.  0.
        -11    1    3    3    0    0 -0.17526928591E+01  0.87235938417E+01  0.30493842077E+02  0.31765506870E+02  0.51100000000E-03 0.  1.
         23    2    1    0    0    0  0.96774916156E+01 -0.91729556010E+00 -0.29679587412E+02  0.93769034853E+02  0.88415262897E+02 0.  0.
         11    1    3    3    0    0  0.11430184475E+02 -0.96408894018E+01 -0.60173429489E+02  0.62003527983E+02  0.51100000000E-03 0. -1.
         22    1    1    0    0    0 -0.96774916156E+01  0.91729556010E+00  0.29679587412E+02  0.31230965147E+02  0.00000000000E+00 0. -1.
</event>
<event>
 5    1  0.8902899E-005  0.9118800E+02  0.7818608E-02  0.1130116E+00
         25   -1    0    0    0    0  0.00000000000E+00  0.00000000000E+00  0.99999998245E-14  0.12500000000E+03  0.12500000000E+03 0.  0.
        -11    1    3    3    0    0 -0.38611177058E+02  0.30411841762E+02  0.21413399238E+02  0.53611908942E+02  0.51100000000E-03 0.  1.
         23    2    1    0    0    0 -0.12258143651E+02 -0.50434181319E+01  0.23697426632E+02  0.97847354066E+02  0.94004460088E+02 0.  0.
         11    1    3    3    0    0  0.26353033407E+02 -0.35455259894E+02  0.22840273945E+01  0.44235445124E+02  0.51100000000E-03 0. -1.
         22    1    1    0    0    0  0.12258143651E+02  0.50434181319E+01 -0.23697426632E+02  0.27152645934E+02  0.00000000000E+00 0.  1.
</event>
<event>
 5    1  0.8902899E-005  0.9118800E+02  0.7818608E-02  0.1130116E+00
         25   -1    0    0    0    0  0.00000000000E+00  0.00000000000E+00  0.99999998245E-14  0.12500000000E+03  0.12500000000E+03 0.  0.
        -11    1    3    3    0    0 -0.67803898221E+01 -0.28611975845E+01 -0.58026803466E+02  0.58491623832E+02  0.51100000000E-03 0.  1.
         23    2    1    0    0    0  0.80787307133E+01  0.79121378345E+01 -0.36541083346E+02  0.86749266842E+02  0.77860880488E+02 0.  0.
         11    1    3    3    0    0  0.14859120535E+02  0.10773335419E+02  0.21485720120E+02  0.28257643010E+02  0.51100000000E-03 0. -1.
         22    1    1    0    0    0 -0.80787307133E+01 -0.79121378345E+01  0.36541083346E+02  0.38250733158E+02  0.00000000000E+00 0.  1.
</event>
<event>
 5    1  0.8902899E-005  0.9118800E+02  0.7818608E-02  0.1130116E+00
         25   -1    0    0    0    0  0.00000000000E+00  0.00000000000E+00  0.99999998245E-14  0.12500000000E+03  0.12500000000E+03 0.  0.
        -11    1    3    3    0    0  0.35684076623E+02  0.21546691309E+01  0.35929782805E+02  0.50684763156E+02  0.51100000000E-03 0.  1.
         23    2    1    0    0    0  0.15874243942E+02 -0.24654819985E+02  0.69278257542E+01  0.94869508154E+02  0.89957640245E+02 0.  0.
         11    1    3    3    0    0 -0.19809832681E+02 -0.26809489115E+02 -0.29001957051E+02  0.44184744998E+02  0.51100000000E-03 0. -1.
         22    1    1    0    0    0 -0.15874243942E+02  0.24654819985E+02 -0.69278257542E+01  0.30130491846E+02  0.00000000000E+00 0.  1.
</event>
<event>
 5    1  0.8902899E-005  0.9118800E+02  0.7818608E-02  0.1130116E+00
         25   -1    0    0    0    0  0.00000000000E+00  0.00000000000E+00  0.99999998245E-14  0.12500000000E+03  0.12500000000E+03 0.  0.
        -11    1    3    3    0    0 -0.87842208148E+00 -0.37790889968E+02  0.17760089267E+02  0.41765341624E+02  0.51100000000E-03 0.  1.
         23    2    1    0    0    0  0.50919047549E+01  0.15843520830E+02  0.23682613586E+02  0.96055037872E+02  0.91590171241E+02 0.  0.
         11    1    3    3    0    0  0.59703268364E+01  0.53634410798E+02  0.59225243190E+01  0.54289696248E+02  0.51100000000E-03 0. -1.
         22    1    1    0    0    0 -0.50919047549E+01 -0.15843520830E+02 -0.23682613586E+02  0.28944962128E+02  0.00000000000E+00 0. -1.
</event>
<event>
 5    1  0.8902899E-005  0.9118800E+02  0.7818608E-02  0.1130116E+00
         25   -1    0    0    0    0  0.00000000000E+00  0.00000000000E+00  0.99999998245E-14  0.12500000000E+03  0.12500000000E+03 0.  0.
        -11    1    3    3    0    0 -0.61360530501E+01  0.28322256113E+02 -0.52756065871E+02  0.60191393279E+02  0.51100000000E-03 0.  1.
         23    2    1    0    0    0 -0.14507214970E+02  0.12170022074E+02 -0.21556563419E+02  0.96307594212E+02  0.91934207741E+02 0.  0.
         11    1    3    3    0    0 -0.83711619198E+01 -0.16152234039E+02  0.31199502452E+02  0.36116200934E+02  0.51100000000E-03 0. -1.
         22    1    1    0    0    0  0.14507214970E+02 -0.12170022074E+02  0.21556563419E+02  0.28692405788E+02  0.00000000000E+00 0.  1.
</event>
<event>
 5    1  0.8902899E-005  0.9118800E+02  0.7818608E-02  0.1130116E+00
         25   -1    0    0    0    0  0.00000000000E+00  0.00000000000E+00  0.99999998245E-14  0.12500000000E+03  0.12500000000E+03 0.  0.
        -11    1    3    3    0    0  0.10838927524E+02  0.46077642513E+02 -0.19144072892E+02  0.51060033456E+02  0.51100000000E-03 0. -1.
         23    2    1    0    0    0 -0.20273044422E+02  0.95988843591E+01 -0.12084216583E+02  0.99521318686E+02  0.96204623961E+02 0.  0.
         11    1    3    3    0    0 -0.31111971946E+02 -0.36478758154E+02  0.70598563085E+01  0.48461285230E+02  0.51100000000E-03 0.  1.
         22    1    1    0    0    0  0.20273044422E+02 -0.95988843591E+01  0.12084216583E+02  0.25478681314E+02  0.00000000000E+00 0.  1.
</event>
<event>
 5    1  0.8902899E-005  0.9118800E+02  0.7818608E-02  0.1130116E+00
         25   -1    0    0    0    0  0.00000000000E+00  0.00000000000E+00  0.99999998245E-14  0.12500000000E+03  0.12500000000E+03 0.  0.
        -11    1    3    3    0    0  0.42882437306E+01  0.21466235687E+02  0.27275277275E+02  0.34973262066E+02  0.51100000000E-03 0.  1.
         23    2    1    0    0    0  0.25063284587E+02 -0.17965417471E+02 -0.94747114160E+01  0.92740201247E+02  0.86948549797E+02 0.  0.
         11    1    3    3    0    0  0.20775040856E+02 -0.39431653158E+02 -0.36749988691E+02  0.57766939181E+02  0.51100000000E-03 0. -1.
         22    1    1    0    0    0 -0.25063284587E+02  0.17965417471E+02  0.94747114160E+01  0.32259798753E+02  0.00000000000E+00 0. -1.
</event>
<event>
 5    1  0.8902899E-005  0.9118800E+02  0.7818608E-02  0.1130116E+00
         25   -1    0    0    0    0  0.00000000000E+00  0.00000000000E+00  0.99999998245E-14  0.12500000000E+03  0.12500000000E+03 0.  0.
        -11    1    3    3    0    0  0.11332535371E+01 -0.43984533284E+02  0.37794397002E+02  0.58002929898E+02  0.51100000000E-03 0.  1.
         23    2    1    0    0    0  0.12222570704E+01 -0.18681641113E+02  0.37247840906E+02  0.83311880839E+02  0.72131617268E+02 0.  0.
         11    1    3    3    0    0  0.89003533228E-01  0.25302892172E+02 -0.54655609531E+00  0.25308950940E+02  0.51100000000E-03 0. -1.
         22    1    1    0    0    0 -0.12222570704E+01  0.18681641113E+02 -0.37247840906E+02  0.41688119161E+02  0.00000000000E+00 0.  1.
</event>
<event>
 5    1  0.8902899E-005  0.9118800E+02  0.7818608E-02  0.1130116E+00
         25   -1    0    0    0    0  0.00000000000E+00  0.00000000000E+00  0.99999998245E-14  0.12500000000E+03  0.12500000000E+03 0.  0.
        -11    1    3    3    0    0  0.97113401639E+00 -0.11509326704E+02  0.31850550238E+02  0.33880160171E+02  0.51100000000E-03 0.  1.
         23    2    1    0    0    0 -0.40287384997E+01  0.95629164418E+01 -0.26724943727E+02  0.96331154157E+02  0.91966235866E+02 0.  0.
         11    1    3    3    0    0 -0.49998725160E+01  0.21072243145E+02 -0.58575493965E+02  0.62450993986E+02  0.51100000000E-03 0. -1.
         22    1    1    0    0    0  0.40287384997E+01 -0.95629164418E+01  0.26724943727E+02  0.28668845843E+02  0.00000000000E+00 0. -1.
</event>
<event>
 5    1  0.8902899E-005  0.9118800E+02  0.7818608E-02  0.1130116E+00
         25   -1    0    0    0    0  0.00000000000E+00  0.00000000000E+00  0.99999998245E-14  0.12500000000E+03  0.12500000000E+03 0.  0.
        -11    1    3    3    0    0  0.19491494812E+02  0.54156913843E+02 -0.19661135026E+02  0.60823103486E+02  0.51100000000E-03 0.  1.
         23    2    1    0    0    0  0.10604285648E+02  0.25799396729E+02  0.11166574106E+01  0.97083935280E+02  0.92983782564E+02 0.  0.
         11    1    3    3    0    0 -0.88872091635E+01 -0.28357517114E+02  0.20777792436E+02  0.36260831794E+02  0.51100000000E-03 0. -1.
         22    1    1    0    0    0 -0.10604285648E+02 -0.25799396729E+02 -0.11166574106E+01  0.27916064720E+02  0.00000000000E+00 0.  1.
</event>
<event>
 5    1  0.8902899E-005  0.9118800E+02  0.7818608E-02  0.1130116E+00
         25   -1    0    0    0    0  0.00000000000E+00  0.00000000000E+00  0.99999998245E-14  0.12500000000E+03  0.12500000000E+03 0.  0.
        -11    1    3    3    0    0 -0.15461144255E+02  0.54051396020E+02 -0.26256861759E+02  0.62048555044E+02  0.51100000000E-03 0.  1.
         23    2    1    0    0    0 -0.32905673591E+01  0.30739331732E+02 -0.14407400238E+02  0.90892705612E+02  0.84250675979E+02 0.  0.
         11    1    3    3    0    0  0.12170576896E+02 -0.23312064288E+02  0.11849461521E+02  0.28844150567E+02  0.51100000000E-03 0. -1.
         22    1    1    0    0    0  0.32905673591E+01 -0.30739331732E+02  0.14407400238E+02  0.34107294388E+02  0.00000000000E+00 0.  1.
</event>
<event>
 5    1  0.8902899E-005  0.9118800E+02  0.7818608E-02  0.1130116E+00
         25   -1    0    0    0    0  0.00000000000E+00  0.00000000000E+00  0.99999998245E-14  0.12500000000E+03  0.12500000000E+03 0.  0.
        -11    1    3    3    0    0  0.23433695548E+02 -0.24572800125E+02 -0.23570245757E+02  0.41334211960E+02  0.51100000000E-03 0. -1.
         23    2    1    0    0    0  0.13916562523E+02  0.40033153052E+01  0.23606565770E+02  0.97305827447E+02  0.93281599803E+02 0.  0.
         11    1    3    3    0    0 -0.95171330246E+01  0.28576115430E+02  0.47176811528E+02  0.55971615487E+02  0.51100000000E-03 0.  1.
         22    1    1    0    0    0 -0.13916562523E+02 -0.40033153052E+01 -0.23606565770E+02  0.27694172553E+02  0.00000000000E+00 0.  1.
</event>
<event>
 5    1  0.8902899E-005  0.9118800E+02  0.7818608E-02  0.1130116E+00
         25   -1    0    0    0    0  0.00000000000E+00  0.00000000000E+00  0.99999998245E-14  0.12500000000E+03  0.12500000000E+03 0.  0.
        -11    1    3    3    0    0  0.21458664770E+02 -0.36486134627E+02 -0.86708410708E+00  0.42337502865E+02  0.51100000000E-03 0. -1.
         23    2    1    0    0    0  0.65519862737E+01  0.10469072328E+02  0.24361896070E+02  0.97686414010E+02  0.93790210057E+02 0.  0.
         11    1    3    3    0    0 -0.14906678496E+02  0.46955206955E+02  0.25228980177E+02  0.55348911145E+02  0.51100000000E-03 0.  1.
         22    1    1    0    0    0 -0.65519862737E+01 -0.10469072328E+02 -0.24361896070E+02  0.27313585990E+02  0.00000000000E+00 0.  1.
</event>
<event>
 5    1  0.8902899E-005  0.9118800E+02  0.7818608E-02  0.1130116E+00
         25   -1    0    0    0    0  0.00000000000E+00  0.00000000000E+00  0.99999998245E-14  0.12500000000E+03  0.12500000000E+03 0.  0.
        -11    1    3    3    0    0  0.28193535125E+02 -0.43133496809E+01 -0.22888189621E+02  0.36569791258E+02  0.51100000000E-03 0.  1.
         23    2    1    0    0    0 -0.10476391972E+02  0.25302148699E+02  0.10552310488E+02  0.95652005619E+02  0.91038461129E+02 0.  0.
         11    1    3    3    0    0 -0.38669927097E+02  0.29615498380E+02  0.33440500109E+02  0.59082214361E+02  0.51100000000E-03 0. -1.
         22    1    1    0    0    0  0.10476391972E+02 -0.25302148699E+02 -0.10552310488E+02  0.29347994381E+02  0.00000000000E+00 0. -1.
</event>
<event>
 5    1  0.8902899E-005  0.9118800E+02  0.7818608E-02  0.1130116E+00
         25   -1    0    0    0    0  0.00000000000E+00  0.00000000000E+00  0.99999998245E-14  0.12500000000E+03  0.12500000000E+03 0.  0.
        -11    1    3    3    0    0 -0.41104192433E+02 -0.17917089709E+01 -0.17284488867E+02  0.44626431767E+02  0.51100000000E-03 0.  1.
         23    2    1    0    0    0 -0.25314231478E+01  0.27987008890E+02  0.15168104192E+01  0.96857834419E+02  0.92679332133E+02 0.  0.
         11    1    3    3    0    0  0.38572769285E+02  0.29778717861E+02  0.18801299286E+02  0.52231402651E+02  0.51100000000E-03 0. -1.
         22    1    1    0    0    0  0.25314231478E+01 -0.27987008890E+02 -0.15168104192E+01  0.28142165581E+02  0.00000000000E+00 0. -1.
</event>
<event>
 5    1  0.8902899E-005  0.9118800E+02  0.7818608E-02  0.1130116E+00
         25   -1    0    0    0    0  0.00000000000E+00  0.00000000000E+00  0.99999998245E-14  0.12500000000E+03  0.12500000000E+03 0.  0.
        -11    1    3    3    0    0  0.25881491286E+02  0.15507733815E+02  0.23891676375E+02  0.38485758399E+02  0.51100000000E-03 0.  1.
         23    2    1    0    0    0 -0.25452306741E+02  0.34033851251E+01  0.21876758119E+02  0.91265811192E+02  0.84802433916E+02 0.  0.
         11    1    3    3    0    0 -0.51333798026E+02 -0.12104348690E+02 -0.20149182562E+01  0.52780052793E+02  0.51100000000E-03 0. -1.
         22    1    1    0    0    0  0.25452306741E+02 -0.34033851251E+01 -0.21876758119E+02  0.33734188808E+02  0.00000000000E+00 0.  1.
</event>
<event>
 5    1  0.8902899E-005  0.9118800E+02  0.7818608E-02  0.1130116E+00
         25   -1    0    0    0    0  0.00000000000E+00  0.00000000000E+00  0.99999998245E-14  0.12500000000E+03  0.12500000000E+03 0.  0.
        -11    1    3    3    0    0  0.51800435389E+02 -0.28676137816E+02  0.21380194217E+01  0.59246747707E+02  0.51100000000E-03 0.  1.
         23    2    1    0    0    0  0.15863396937E+02 -0.24534134713E+02 -0.23037670379E+01  0.95693371551E+02  0.91095240752E+02 0.  0.
         11    1    3    3    0    0 -0.35937038452E+02  0.41420031031E+01 -0.44417864596E+01  0.36446623844E+02  0.51100000000E-03 0. -1.
         22    1    1    0    0    0 -0.15863396937E+02  0.24534134713E+02  0.23037670379E+01  0.29306628449E+02  0.00000000000E+00 0.  1.
</event>
<event>
 5    1  0.8902899E-005  0.9118800E+02  0.7818608E-02  0.1130116E+00
         25   -1    0    0    0    0  0.00000000000E+00  0.00000000000E+00  0.99999998245E-14  0.12500000000E+03  0.12500000000E+03 0.  0.
        -11    1    3    3    0    0 -0.21740344192E+02  0.17102856541E+02 -0.25739384756E+02  0.37784470293E+02  0.51100000000E-03 0. -1.
         23    2    1    0    0    0 -0.12942219246E+02 -0.17580799841E+01  0.27286643186E+02  0.94748507796E+02  0.89789347637E+02 0.  0.
         11    1    3    3    0    0  0.87981249462E+01 -0.18860936525E+02  0.53026027941E+02  0.56964037503E+02  0.51100000000E-03 0.  1.
         22    1    1    0    0    0  0.12942219246E+02  0.17580799841E+01 -0.27286643186E+02  0.30251492204E+02  0.00000000000E+00 0.  1.
</event>
<event>
 5    1  0.8902899E-005  0.9118800E+02  0.7818608E-02  0.1130116E+00
         25   -1    0    0    0    0  0.00000000000E+00  0.00000000000E+00  0.99999998245E-14  0.12500000000E+03  0.12500000000E+03 0.  0.
        -11    1    3    3    0    0  0.83760717289E+01  0.20785648964E+02 -0.25204092721E+02  0.33726074047E+02  0.51100000000E-03 0.  1.
         23    2    1    0    0    0 -0.26585047870E+02 -0.13459096602E+02  0.95042004969E+01  0.93723141483E+02  0.88350355804E+02 0.  0.
         11    1    3    3    0    0 -0.34961119599E+02 -0.34244745566E+02  0.34708293218E+02  0.59997067436E+02  0.51100000000E-03 0. -1.
         22    1    1    0    0    0  0.26585047870E+02  0.13459096602E+02 -0.95042004969E+01  0.31276858517E+02  0.00000000000E+00 0. -1.
</event>
<event>
 5    1  0.8902899E-005  0.9118800E+02  0.7818608E-02  0.1130116E+00
         25   -1    0    0    0    0  0.00000000000E+00  0.00000000000E+00  0.99999998245E-14  0.12500000000E+03  0.12500000000E+03 0.  0.
        -11    1    3    3    0    0 -0.26122411844E+02 -0.10338898350E+02 -0.30060507036E+02  0.41144954772E+02  0.51100000000E-03 0. -1.
         23    2    1    0    0    0 -0.55607119312E+01 -0.17748831927E+02  0.21156335224E+02  0.96830280938E+02  0.92642162294E+02 0.  0.
         11    1    3    3    0    0  0.20561699912E+02 -0.74099335761E+01  0.51216842260E+02  0.55685326166E+02  0.51100000000E-03 0.  1.
         22    1    1    0    0    0  0.55607119312E+01  0.17748831927E+02 -0.21156335224E+02  0.28169719062E+02  0.00000000000E+00 0.  1.
</event>
<event>
 5    1  0.8902899E-005  0.9118800E+02  0.7818608E-02  0.1130116E+00
         25   -1    0    0    0    0  0.00000000000E+00  0.00000000000E+00  0.99999998245E-14  0.12500000000E+03  0.12500000000E+03 0.  0.
        -11    1    3    3    0    0  0.43481211864E+02 -0.69942824413E-01  0.23855551961E+02  0.49595443710E+02  0.51100000000E-03 0.  1.
         23    2    1    0    0    0  0.24151949253E+02  0.54284379146E+01 -0.16893503404E+02  0.95030431298E+02  0.90180972631E+02 0.  0.
         11    1    3    3    0    0 -0.19329262611E+02  0.54983807391E+01 -0.40749055365E+02  0.45434987589E+02  0.51100000000E-03 0. -1.
         22    1    1    0    0    0 -0.24151949253E+02 -0.54284379146E+01  0.16893503404E+02  0.29969568702E+02  0.00000000000E+00 0. -1.
</event>
<event>
 5    1  0.8902899E-005  0.9118800E+02  0.7818608E-02  0.1130116E+00
         25   -1    0    0    0    0  0.00000000000E+00  0.00000000000E+00  0.99999998245E-14  0.12500000000E+03  0.12500000000E+03 0.  0.
        -11    1    3    3    0    0 -0.17985833601E+02 -0.58901472817E+02 -0.36275394089E+01  0.61693052711E+02  0.51100000000E-03 0.  1.
         23    2    1    0    0    0 -0.19500539208E+01 -0.30066098270E+02 -0.14772426869E+00  0.94870366781E+02  0.89958833337E+02 0.  0.
         11    1    3    3    0    0  0.16035779680E+02  0.28835374548E+02  0.34798151402E+01  0.33177314070E+02  0.51100000000E-03 0. -1.
         22    1    1    0    0    0  0.19500539208E+01  0.30066098270E+02  0.14772426869E+00  0.30129633219E+02  0.00000000000E+00 0.  1.
</event>
<event>
 5    1  0.8902899E-005  0.9118800E+02  0.7818608E-02  0.1130116E+00
         25   -1    0    0    0    0  0.00000000000E+00  0.00000000000E+00  0.99999998245E-14  0.12500000000E+03  0.12500000000E+03 0.  0.
        -11    1    3    3    0    0  0.32523650556E+02 -0.14583688301E+02  0.90798122600E+01  0.36781990170E+02  0.51100000000E-03 0.  1.
         23    2    1    0    0    0 -0.25219392186E+02 -0.16322086458E+01  0.13903184127E+02  0.96155929965E+02  0.91727762926E+02 0.  0.
         11    1    3    3    0    0 -0.57743042742E+02  0.12951479655E+02  0.48233718674E+01  0.59373939795E+02  0.51100000000E-03 0. -1.
         22    1    1    0    0    0  0.25219392186E+02  0.16322086458E+01 -0.13903184127E+02  0.28844070035E+02  0.00000000000E+00 0. -1.
</event>
<event>
 5    1  0.8902899E-005  0.9118800E+02  0.7818608E-02  0.1130116E+00
         25   -1    0    0    0    0  0.00000000000E+00  0.00000000000E+00  0.99999998245E-14  0.12500000000E+03  0.12500000000E+03 0.  0.
        -11    1    3    3    0    0  0.31386184391E+02 -0.12638654611E+02  0.11775394219E+02  0.35825801739E+02  0.51100000000E-03 0.  1.
         23    2    1    0    0    0 -0.48140318560E+01  0.26631220883E+02 -0.13319405366E+02  0.94837052735E+02  0.89912530738E+02 0.  0.
         11    1    3    3    0    0 -0.36200216247E+02  0.39269875494E+02 -0.25094799585E+02  0.59011250996E+02  0.51100000000E-03 0. -1.
         22    1    1    0    0    0  0.48140318560E+01 -0.26631220883E+02  0.13319405366E+02  0.30162947265E+02  0.00000000000E+00 0. -1.
</event>
<event>
 5    1  0.8902899E-005  0.9118800E+02  0.7818608E-02  0.1130116E+00
         25   -1    0    0    0    0  0.00000000000E+00  0.00000000000E+00  0.99999998245E-14  0.12500000000E+03  0.12500000000E+03 0.  0.
        -11    1    3    3    0    0 -0.23066839807E+02  0.35371956417E+02  0.12831962036E+02  0.44135174741E+02  0.51100000000E-03 0. -1.
         23    2    1    0    0    0  0.50404670037E+01 -0.38713385412E+01  0.29208377535E+02  0.95108146797E+02  0.90288629955E+02 0.  0.
         11    1    3    3    0    0  0.28107306811E+02 -0.39243294958E+02  0.16376415498E+02  0.50972972056E+02  0.51100000000E-03 0.  1.
         22    1    1    0    0    0 -0.50404670037E+01  0.38713385412E+01 -0.29208377535E+02  0.29891853203E+02  0.00000000000E+00 0.  1.
</event>
<event>
 5    1  0.8902899E-005  0.9118800E+02  0.7818608E-02  0.1130116E+00
         25   -1    0    0    0    0  0.00000000000E+00  0.00000000000E+00  0.99999998245E-14  0.12500000000E+03  0.12500000000E+03 0.  0.
        -11    1    3    3    0    0  0.24178109068E+02  0.17119351439E+02 -0.22674284269E+02  0.37306518454E+02  0.51100000000E-03 0.  1.
         23    2    1    0    0    0  0.56003555135E+01 -0.25129295208E+02  0.13484151367E+02  0.95936830909E+02  0.91428702972E+02 0.  0.
         11    1    3    3    0    0 -0.18577753555E+02 -0.42248646647E+02  0.36158435635E+02  0.58630312455E+02  0.51100000000E-03 0. -1.
         22    1    1    0    0    0 -0.56003555135E+01  0.25129295208E+02 -0.13484151367E+02  0.29063169091E+02  0.00000000000E+00 0. -1.
</event>
<event>
 5    1  0.8902899E-005  0.9118800E+02  0.7818608E-02  0.1130116E+00
         25   -1    0    0    0    0  0.00000000000E+00  0.00000000000E+00  0.99999998245E-14  0.12500000000E+03  0.12500000000E+03 0.  0.
        -11    1    3    3    0    0 -0.32678866043E+01  0.34821753863E+02  0.49353405758E+02  0.60489604769E+02  0.51100000000E-03 0. -1.
         23    2    1    0    0    0 -0.94958510414E+01  0.22362753230E+02  0.18108997720E+02  0.94698189535E+02  0.89719269858E+02 0.  0.
         11    1    3    3    0    0 -0.62279644371E+01 -0.12459000633E+02 -0.31244408038E+02  0.34208584766E+02  0.51100000000E-03 0.  1.
         22    1    1    0    0    0  0.94958510414E+01 -0.22362753230E+02 -0.18108997720E+02  0.30301810465E+02  0.00000000000E+00 0. -1.
</event>
<event>
 5    1  0.8902899E-005  0.9118800E+02  0.7818608E-02  0.1130116E+00
         25   -1    0    0    0    0  0.00000000000E+00  0.00000000000E+00  0.99999998245E-14  0.12500000000E+03  0.12500000000E+03 0.  0.
        -11    1    3    3    0    0 -0.52118299546E+01  0.51959272490E+02  0.26046194056E+02  0.58355234506E+02  0.51100000000E-03 0.  1.
         23    2    1    0    0    0 -0.20776221631E+01  0.15086665618E+02  0.25421351436E+02  0.95366081897E+02  0.90645024542E+02 0.  0.
         11    1    3    3    0    0  0.31342077915E+01 -0.36872606872E+02 -0.62484262049E+00  0.37010847391E+02  0.51100000000E-03 0. -1.
         22    1    1    0    0    0  0.20776221631E+01 -0.15086665618E+02 -0.25421351436E+02  0.29633918103E+02  0.00000000000E+00 0.  1.
</event>
<event>
 5    1  0.8902899E-005  0.9118800E+02  0.7818608E-02  0.1130116E+00
         25   -1    0    0    0    0  0.00000000000E+00  0.00000000000E+00  0.99999998245E-14  0.12500000000E+03  0.12500000000E+03 0.  0.
        -11    1    3    3    0    0 -0.48305065893E+02  0.13548875580E+02  0.10779089042E+02  0.51314132374E+02  0.51100000000E-03 0.  1.
         23    2    1    0    0    0 -0.19798244458E+02  0.37953179536E+01 -0.21539628826E+02  0.95498635083E+02  0.90827632199E+02 0.  0.
         11    1    3    3    0    0  0.28506821436E+02 -0.97535576263E+01 -0.32318717869E+02  0.44184502709E+02  0.51100000000E-03 0. -1.
         22    1    1    0    0    0  0.19798244458E+02 -0.37953179536E+01  0.21539628826E+02  0.29501364917E+02  0.00000000000E+00 0. -1.
</event>
<event>
 5    1  0.8902899E-005  0.9118800E+02  0.7818608E-02  0.1130116E+00
         25   -1    0    0    0    0  0.00000000000E+00  0.00000000000E+00  0.99999998245E-14  0.12500000000E+03  0.12500000000E+03 0.  0.
        -11    1    3    3    0    0 -0.10162863318E+00  0.48523473044E+02  0.28082425361E+02  0.56063895504E+02  0.51100000000E-03 0. -1.
         23    2    1    0    0    0  0.68173698056E+01  0.28752578061E+02 -0.48116367006E+01  0.95061076774E+02  0.90223440377E+02 0.  0.
         11    1    3    3    0    0  0.69189984388E+01 -0.19770894983E+02 -0.32894062062E+02  0.38997181270E+02  0.51100000000E-03 0.  1.
         22    1    1    0    0    0 -0.68173698056E+01 -0.28752578061E+02  0.48116367006E+01  0.29938923226E+02  0.00000000000E+00 0. -1.
</event>
<event>
 5    1  0.8902899E-005  0.9118800E+02  0.7818608E-02  0.1130116E+00
         25   -1    0    0    0    0  0.00000000000E+00  0.00000000000E+00  0.99999998245E-14  0.12500000000E+03  0.12500000000E+03 0.  0.
        -11    1    3    3    0    0  0.14051716322E+01  0.29617855607E+02 -0.28477397249E+02  0.41111482975E+02  0.51100000000E-03 0.  1.
         23    2    1    0    0    0 -0.28577260978E+02 -0.76132486109E+01 -0.30149068790E+01  0.95272721906E+02  0.90516189030E+02 0.  0.
         11    1    3    3    0    0 -0.29982432610E+02 -0.37231104217E+02  0.25462490370E+02  0.54161238931E+02  0.51100000000E-03 0. -1.
         22    1    1    0    0    0  0.28577260978E+02  0.76132486109E+01  0.30149068790E+01  0.29727278094E+02  0.00000000000E+00 0. -1.
</event>
<event>
 5    1  0.8902899E-005  0.9118800E+02  0.7818608E-02  0.1130116E+00
         25   -1    0    0    0    0  0.00000000000E+00  0.00000000000E+00  0.99999998245E-14  0.12500000000E+03  0.12500000000E+03 0.  0.
        -11    1    3    3    0    0  0.38103003268E+02 -0.31789465777E+02 -0.29283725161E+02  0.57618968682E+02  0.51100000000E-03 0. -1.
         23    2    1    0    0    0  0.74928420883E+01 -0.27870512781E+02 -0.81865246960E+01  0.95001210827E+02  0.90140460987E+02 0.  0.
         11    1    3    3    0    0 -0.30610161180E+02  0.39189529962E+01  0.21097200465E+02  0.37382242145E+02  0.51100000000E-03 0.  1.
         22    1    1    0    0    0 -0.74928420883E+01  0.27870512781E+02  0.81865246960E+01  0.29998789173E+02  0.00000000000E+00 0. -1.
</event>
<event>
 5    1  0.8902899E-005  0.9118800E+02  0.7818608E-02  0.1130116E+00
         25   -1    0    0    0    0  0.00000000000E+00  0.00000000000E+00  0.99999998245E-14  0.12500000000E+03  0.12500000000E+03 0.  0.
        -11    1    3    3    0    0 -0.29580797191E+02 -0.41854898409E+01  0.18794133977E+02  0.35295344733E+02  0.51100000000E-03 0. -1.
         23    2    1    0    0    0  0.28507149255E+02 -0.17582625683E+00 -0.41411431262E-01  0.96492278442E+02  0.92184974972E+02 0.  0.
         11    1    3    3    0    0  0.58087946446E+02  0.40096635841E+01 -0.18835545408E+02  0.61196933709E+02  0.51100000000E-03 0.  1.
         22    1    1    0    0    0 -0.28507149255E+02  0.17582625683E+00  0.41411431262E-01  0.28507721558E+02  0.00000000000E+00 0.  1.
</event>
<event>
 5    1  0.8902899E-005  0.9118800E+02  0.7818608E-02  0.1130116E+00
         25   -1    0    0    0    0  0.00000000000E+00  0.00000000000E+00  0.99999998245E-14  0.12500000000E+03  0.12500000000E+03 0.  0.
        -11    1    3    3    0    0  0.47831648610E+02 -0.12880870009E+02 -0.26172706408E+02  0.56024940713E+02  0.51100000000E-03 0.  1.
         23    2    1    0    0    0  0.62487499859E+01 -0.15881083436E+02 -0.20852600444E+02  0.98054005256E+02  0.94278848709E+02 0.  0.
         11    1    3    3    0    0 -0.41582898624E+02 -0.30002134274E+01  0.53201059639E+01  0.42029064542E+02  0.51100000000E-03 0. -1.
         22    1    1    0    0    0 -0.62487499859E+01  0.15881083436E+02  0.20852600444E+02  0.26945994744E+02  0.00000000000E+00 0. -1.
</event>
<event>
 5    1  0.8902899E-005  0.9118800E+02  0.7818608E-02  0.1130116E+00
         25   -1    0    0    0    0  0.00000000000E+00  0.00000000000E+00  0.99999998245E-14  0.12500000000E+03  0.12500000000E+03 0.  0.
        -11    1    3    3    0    0 -0.67507645334E+01  0.39632298680E+01 -0.60144019236E+02  0.60651323670E+02  0.51100000000E-03 0.  1.
         23    2    1    0    0    0  0.76296972695E+00  0.11833177533E+02 -0.27791991762E+02  0.94784093271E+02  0.89838874201E+02 0.  0.
         11    1    3    3    0    0  0.75137342603E+01  0.78699476647E+01  0.32352027473E+02  0.34132769602E+02  0.51100000000E-03 0. -1.
         22    1    1    0    0    0 -0.76296972695E+00 -0.11833177533E+02  0.27791991762E+02  0.30215906729E+02  0.00000000000E+00 0.  1.
</event>
<event>
 5    1  0.8902899E-005  0.9118800E+02  0.7818608E-02  0.1130116E+00
         25   -1    0    0    0    0  0.00000000000E+00  0.00000000000E+00  0.99999998245E-14  0.12500000000E+03  0.12500000000E+03 0.  0.
        -11    1    3    3    0    0  0.27389741074E+02 -0.28651629925E+02  0.34661712893E+02  0.52654991733E+02  0.51100000000E-03 0.  1.
         23    2    1    0    0    0  0.18406588077E+02 -0.24127258771E+02 -0.55885299750E+01  0.94142930020E+02  0.88942298739E+02 0.  0.
         11    1    3    3    0    0 -0.89831529969E+01  0.45243711537E+01 -0.40250242868E+02  0.41487938287E+02  0.51100000000E-03 0. -1.
         22    1    1    0    0    0 -0.18406588077E+02  0.24127258771E+02  0.55885299750E+01  0.30857069980E+02  0.00000000000E+00 0.  1.
</event>
<event>
 5    1  0.8902899E-005  0.9118800E+02  0.7818608E-02  0.1130116E+00
         25   -1    0    0    0    0  0.00000000000E+00  0.00000000000E+00  0.99999998245E-14  0.12500000000E+03  0.12500000000E+03 0.  0.
        -11    1    3    3    0    0  0.11034008683E+02 -0.31269408274E+02  0.40505681236E+02  0.52347258324E+02  0.51100000000E-03 0.  1.
         23    2    1    0    0    0  0.15504542140E+02 -0.22545694066E+02 -0.34847582984E+01  0.97416622971E+02  0.93429950994E+02 0.  0.
         11    1    3    3    0    0  0.44705334575E+01  0.87237142079E+01 -0.43990439534E+02  0.45069364647E+02  0.51100000000E-03 0. -1.
         22    1    1    0    0    0 -0.15504542140E+02  0.22545694066E+02  0.34847582984E+01  0.27583377029E+02  0.00000000000E+00 0.  1.
</event>
<event>
 5    1  0.8902899E-005  0.9118800E+02  0.7818608E-02  0.1130116E+00
         25   -1    0    0    0    0  0.00000000000E+00  0.00000000000E+00  0.99999998245E-14  0.12500000000E+03  0.12500000000E+03 0.  0.
        -11    1    3    3    0    0 -0.45474842312E+02  0.19718710588E+02  0.76647399484E+01  0.50155130040E+02  0.51100000000E-03 0.  1.
         23    2    1    0    0    0 -0.23505582908E+02 -0.82720654438E+01 -0.18197879894E+02  0.94143844582E+02  0.88943584060E+02 0.  0.
         11    1    3    3    0    0  0.21969259404E+02 -0.27990776032E+02 -0.25862619842E+02  0.43988714542E+02  0.51100000000E-03 0. -1.
         22    1    1    0    0    0  0.23505582908E+02  0.82720654438E+01  0.18197879894E+02  0.30856155418E+02  0.00000000000E+00 0. -1.
</event>
<event>
 5    1  0.8902899E-005  0.9118800E+02  0.7818608E-02  0.1130116E+00
         25   -1    0    0    0    0  0.00000000000E+00  0.00000000000E+00  0.99999998245E-14  0.12500000000E+03  0.12500000000E+03 0.  0.
        -11    1    3    3    0    0 -0.43621018801E+01 -0.49355773604E+01  0.35363008278E+02  0.35971241450E+02  0.51100000000E-03 0. -1.
         23    2    1    0    0    0  0.49099747851E+01 -0.13131099693E+02 -0.24322739243E+02  0.96926359769E+02  0.92771708739E+02 0.  0.
         11    1    3    3    0    0  0.92720766652E+01 -0.81955223322E+01 -0.59685747521E+02  0.60955118320E+02  0.51100000000E-03 0.  1.
         22    1    1    0    0    0 -0.49099747851E+01  0.13131099693E+02  0.24322739243E+02  0.28073640231E+02  0.00000000000E+00 0.  1.
</event>
<event>
 5    1  0.8902899E-005  0.9118800E+02  0.7818608E-02  0.1130116E+00
         25   -1    0    0    0    0  0.00000000000E+00  0.00000000000E+00  0.99999998245E-14  0.12500000000E+03  0.12500000000E+03 0.  0.
        -11    1    3    3    0    0  0.35044334195E+02  0.29615881251E+02 -0.39580453733E+02  0.60595528708E+02  0.51100000000E-03 0.  1.
         23    2    1    0    0    0  0.24022955683E+02  0.93852128620E+01 -0.11937159797E+02  0.96580281419E+02  0.92304227177E+02 0.  0.
         11    1    3    3    0    0 -0.11021378512E+02 -0.20230668389E+02  0.27643293935E+02  0.35984752711E+02  0.51100000000E-03 0. -1.
         22    1    1    0    0    0 -0.24022955683E+02 -0.93852128620E+01  0.11937159797E+02  0.28419718581E+02  0.00000000000E+00 0.  1.
</event>
<event>
 5    1  0.8902899E-005  0.9118800E+02  0.7818608E-02  0.1130116E+00
         25   -1    0    0    0    0  0.00000000000E+00  0.00000000000E+00  0.99999998245E-14  0.12500000000E+03  0.12500000000E+03 0.  0.
        -11    1    3    3    0    0  0.46225396519E+02 -0.11620779529E+02 -0.19549515427E+02  0.51517117096E+02  0.51100000000E-03 0. -1.
         23    2    1    0    0    0  0.17890484664E+02 -0.14337916543E+02  0.15987856694E+02  0.97049027674E+02  0.92936843708E+02 0.  0.
         11    1    3    3    0    0 -0.28334911855E+02 -0.27171370136E+01  0.35537372121E+02  0.45531910578E+02  0.51100000000E-03 0.  1.
         22    1    1    0    0    0 -0.17890484664E+02  0.14337916543E+02 -0.15987856694E+02  0.27950972326E+02  0.00000000000E+00 0. -1.
</event>
<event>
 5    1  0.8902899E-005  0.9118800E+02  0.7818608E-02  0.1130116E+00
         25   -1    0    0    0    0  0.00000000000E+00  0.00000000000E+00  0.99999998245E-14  0.12500000000E+03  0.12500000000E+03 0.  0.
        -11    1    3    3    0    0 -0.27781343411E+02 -0.27346815178E+02 -0.18899629580E+02  0.43322596190E+02  0.51100000000E-03 0. -1.
         23    2    1    0    0    0 -0.18258045958E+02  0.22320260303E+02 -0.82907755152E+01  0.94995213368E+02  0.90132143778E+02 0.  0.
         11    1    3    3    0    0  0.95232974525E+01  0.49667075481E+02  0.10608854065E+02  0.51672617178E+02  0.51100000000E-03 0.  1.
         22    1    1    0    0    0  0.18258045958E+02 -0.22320260303E+02  0.82907755152E+01  0.30004786632E+02  0.00000000000E+00 0.  1.
</event>
<event>
 5    1  0.8902899E-005  0.9118800E+02  0.7818608E-02  0.1130116E+00
         25   -1    0    0    0    0  0.00000000000E+00  0.00000000000E+00  0.99999998245E-14  0.12500000000E+03  0.12500000000E+03 0.  0.
        -11    1    3    3    0    0  0.39482835187E+02  0.11420968748E+02 -0.29763536650E+02  0.50746437468E+02  0.51100000000E-03 0.  1.
         23    2    1    0    0    0  0.18619704219E+02  0.22351081132E+02  0.76173137434E+01  0.94928623549E+02  0.90039746153E+02 0.  0.
         11    1    3    3    0    0 -0.20863130968E+02  0.10930112384E+02  0.37380850393E+02  0.44182186081E+02  0.51100000000E-03 0. -1.
         22    1    1    0    0    0 -0.18619704219E+02 -0.22351081132E+02 -0.76173137434E+01  0.30071376451E+02  0.00000000000E+00 0.  1.
</event>
<event>
 5    1  0.8902899E-005  0.9118800E+02  0.7818608E-02  0.1130116E+00
         25   -1    0    0    0    0  0.00000000000E+00  0.00000000000E+00  0.99999998245E-14  0.12500000000E+03  0.12500000000E+03 0.  0.
        -11    1    3    3    0    0  0.36890771046E+01 -0.93959780954E+01  0.60682081888E+02  0.61515922790E+02  0.51100000000E-03 0.  1.
         23    2    1    0    0    0  0.63501972299E+01 -0.10173654743E+02  0.25353656162E+02  0.96952965639E+02  0.92807550391E+02 0.  0.
         11    1    3    3    0    0  0.26611201253E+01 -0.77767664773E+00 -0.35328425726E+02  0.35437042848E+02  0.51100000000E-03 0. -1.
         22    1    1    0    0    0 -0.63501972299E+01  0.10173654743E+02 -0.25353656162E+02  0.28047034361E+02  0.00000000000E+00 0.  1.
</event>
<event>
 5    1  0.8902899E-005  0.9118800E+02  0.7818608E-02  0.1130116E+00
         25   -1    0    0    0    0  0.00000000000E+00  0.00000000000E+00  0.99999998245E-14  0.12500000000E+03  0.12500000000E+03 0.  0.
        -11    1    3    3    0    0 -0.29942265449E+02  0.33092128242E+02 -0.32840321727E+02  0.55408617951E+02  0.51100000000E-03 0.  1.
         23    2    1    0    0    0 -0.26214658465E+02  0.88534593477E+01  0.11318762870E+01  0.97307524401E+02  0.93283873741E+02 0.  0.
         11    1    3    3    0    0  0.37276069839E+01 -0.24238668894E+02  0.33972198014E+02  0.41898906450E+02  0.51100000000E-03 0. -1.
         22    1    1    0    0    0  0.26214658465E+02 -0.88534593477E+01 -0.11318762870E+01  0.27692475599E+02  0.00000000000E+00 0.  1.
</event>
<event>
 5    1  0.8902899E-005  0.9118800E+02  0.7818608E-02  0.1130116E+00
         25   -1    0    0    0    0  0.00000000000E+00  0.00000000000E+00  0.99999998245E-14  0.12500000000E+03  0.12500000000E+03 0.  0.
        -11    1    3    3    0    0 -0.73354467674E+01  0.24197641324E+02  0.14875742336E+02  0.29336365406E+02  0.51100000000E-03 0.  1.
         23    2    1    0    0    0  0.53490047994E+01 -0.29855670688E+02 -0.13628862749E+02  0.91747649340E+02  0.85509720705E+02 0.  0.
         11    1    3    3    0    0  0.12684451567E+02 -0.54053312012E+02 -0.28504605084E+02  0.62411283934E+02  0.51100000000E-03 0. -1.
         22    1    1    0    0    0 -0.53490047994E+01  0.29855670688E+02  0.13628862749E+02  0.33252350660E+02  0.00000000000E+00 0. -1.
</event>
<event>
 5    1  0.8902899E-005  0.9118800E+02  0.7818608E-02  0.1130116E+00
         25   -1    0    0    0    0  0.00000000000E+00  0.00000000000E+00  0.99999998245E-14  0.12500000000E+03  0.12500000000E+03 0.  0.
        -11    1    3    3    0    0  0.25812474379E+02 -0.55425292992E+02  0.72469927657E+00  0.61145499639E+02  0.51100000000E-03 0.  1.
         23    2    1    0    0    0  0.19966788740E+02 -0.21202089366E+02 -0.16094623202E+00  0.95875660527E+02  0.91345033426E+02 0.  0.
         11    1    3    3    0    0 -0.58456856391E+01  0.34223203626E+02 -0.88564550859E+00  0.34730160887E+02  0.51100000000E-03 0. -1.
         22    1    1    0    0    0 -0.19966788740E+02  0.21202089366E+02  0.16094623202E+00  0.29124339473E+02  0.00000000000E+00 0.  1.
</event>
<event>
 5    1  0.8902899E-005  0.9118800E+02  0.7818608E-02  0.1130116E+00
         25   -1    0    0    0    0  0.00000000000E+00  0.00000000000E+00  0.99999998245E-14  0.12500000000E+03  0.12500000000E+03 0.  0.
        -11    1    3    3    0    0 -0.24524734754E+02  0.21434497361E+02 -0.77071849369E+01  0.33470897684E+02  0.51100000000E-03 0. -1.
         23    2    1    0    0    0  0.63150251066E+01 -0.21733022730E+02  0.21287879629E+02  0.93929473159E+02  0.88641797645E+02 0.  0.
         11    1    3    3    0    0  0.30839759860E+02 -0.43167520091E+02  0.28995064566E+02  0.60458575475E+02  0.51100000000E-03 0.  1.
         22    1    1    0    0    0 -0.63150251066E+01  0.21733022730E+02 -0.21287879629E+02  0.31070526841E+02  0.00000000000E+00 0.  1.
</event>
<event>
 5    1  0.8902899E-005  0.9118800E+02  0.7818608E-02  0.1130116E+00
         25   -1    0    0    0    0  0.00000000000E+00  0.00000000000E+00  0.99999998245E-14  0.12500000000E+03  0.12500000000E+03 0.  0.
        -11    1    3    3    0    0  0.48261961229E+01 -0.17032053994E+02  0.33689039462E+01  0.18020337021E+02  0.51100000000E-03 0. -1.
         23    2    1    0    0    0 -0.42069529245E+01  0.39743496490E+02  0.23144931452E+02  0.78816325200E+02  0.63867685882E+02 0.  0.
         11    1    3    3    0    0 -0.90331490474E+01  0.56775550484E+02  0.19776027506E+02  0.60795988179E+02  0.51100000000E-03 0.  1.
         22    1    1    0    0    0  0.42069529245E+01 -0.39743496490E+02 -0.23144931452E+02  0.46183674800E+02  0.00000000000E+00 0.  1.
</event>
<event>
 5    1  0.8902899E-005  0.9118800E+02  0.7818608E-02  0.1130116E+00
         25   -1    0    0    0    0  0.00000000000E+00  0.00000000000E+00  0.99999998245E-14  0.12500000000E+03  0.12500000000E+03 0.  0.
        -11    1    3    3    0    0  0.37543321057E+02  0.13359605270E+02  0.26994457395E+02  0.48131909782E+02  0.51100000000E-03 0. -1.
         23    2    1    0    0    0 -0.46070467518E+01  0.27157827935E+02  0.86428580675E+01  0.96130093635E+02  0.91692548273E+02 0.  0.
         11    1    3    3    0    0 -0.42150367809E+02  0.13798222665E+02 -0.18351599327E+02  0.47998183854E+02  0.51100000000E-03 0.  1.
         22    1    1    0    0    0  0.46070467518E+01 -0.27157827935E+02 -0.86428580675E+01  0.28869906365E+02  0.00000000000E+00 0. -1.
</event>
<event>
 5    1  0.8902899E-005  0.9118800E+02  0.7818608E-02  0.1130116E+00
         25   -1    0    0    0    0  0.00000000000E+00  0.00000000000E+00  0.99999998245E-14  0.12500000000E+03  0.12500000000E+03 0.  0.
        -11    1    3    3    0    0 -0.27494837071E+02  0.31743741031E+01  0.32654556640E+02  0.42806106879E+02  0.51100000000E-03 0. -1.
         23    2    1    0    0    0  0.68097979646E+01 -0.27634630212E+02  0.65379870448E+01  0.95797407481E+02  0.91237886156E+02 0.  0.
         11    1    3    3    0    0  0.34304635036E+02 -0.30809004315E+02 -0.26116569595E+02  0.52991300602E+02  0.51100000000E-03 0.  1.
         22    1    1    0    0    0 -0.68097979646E+01  0.27634630212E+02 -0.65379870448E+01  0.29202592519E+02  0.00000000000E+00 0.  1.
</event>
<event>
 5    1  0.8902899E-005  0.9118800E+02  0.7818608E-02  0.1130116E+00
         25   -1    0    0    0    0  0.00000000000E+00  0.00000000000E+00  0.99999998245E-14  0.12500000000E+03  0.12500000000E+03 0.  0.
        -11    1    3    3    0    0 -0.32237643390E+02  0.56760240557E-01 -0.15010120532E+02  0.35560829458E+02  0.51100000000E-03 0. -1.
         23    2    1    0    0    0  0.13613174147E+02 -0.18143667392E+02  0.18943342748E+02  0.95447311269E+02  0.90756971177E+02 0.  0.
         11    1    3    3    0    0  0.45850817537E+02 -0.18200427632E+02  0.33953463280E+02  0.59886481811E+02  0.51100000000E-03 0.  1.
         22    1    1    0    0    0 -0.13613174147E+02  0.18143667392E+02 -0.18943342748E+02  0.29552688731E+02  0.00000000000E+00 0.  1.
</event>
<event>
 5    1  0.8902899E-005  0.9118800E+02  0.7818608E-02  0.1130116E+00
         25   -1    0    0    0    0  0.00000000000E+00  0.00000000000E+00  0.99999998245E-14  0.12500000000E+03  0.12500000000E+03 0.  0.
        -11    1    3    3    0    0 -0.29201991130E+02  0.38901674934E+01  0.19249175618E+02  0.35191198492E+02  0.51100000000E-03 0. -1.
         23    2    1    0    0    0  0.24265701031E+02 -0.13622534220E+02 -0.54613278868E+01  0.96641160331E+02  0.92386633680E+02 0.  0.
         11    1    3    3    0    0  0.53467692161E+02 -0.17512701713E+02 -0.24710503504E+02  0.61449961839E+02  0.51100000000E-03 0.  1.
         22    1    1    0    0    0 -0.24265701031E+02  0.13622534220E+02  0.54613278868E+01  0.28358839669E+02  0.00000000000E+00 0.  1.
</event>
<event>
 5    1  0.8902899E-005  0.9118800E+02  0.7818608E-02  0.1130116E+00
         25   -1    0    0    0    0  0.00000000000E+00  0.00000000000E+00  0.99999998245E-14  0.12500000000E+03  0.12500000000E+03 0.  0.
        -11    1    3    3    0    0 -0.16882511243E+02  0.31227142212E+02 -0.15984362802E+02  0.38931394157E+02  0.51100000000E-03 0.  1.
         23    2    1    0    0    0 -0.17170351648E+02 -0.22971503663E+02  0.25381914918E+01  0.96208449637E+02  0.91799305059E+02 0.  0.
         11    1    3    3    0    0 -0.28784040505E+00 -0.54198645874E+02  0.18522554293E+02  0.57277055480E+02  0.51100000000E-03 0. -1.
         22    1    1    0    0    0  0.17170351648E+02  0.22971503663E+02 -0.25381914918E+01  0.28791550363E+02  0.00000000000E+00 0. -1.
</event>
<event>
 5    1  0.8902899E-005  0.9118800E+02  0.7818608E-02  0.1130116E+00
         25   -1    0    0    0    0  0.00000000000E+00  0.00000000000E+00  0.99999998245E-14  0.12500000000E+03  0.12500000000E+03 0.  0.
        -11    1    3    3    0    0  0.27441554086E+02 -0.74753679067E+01 -0.41688324700E+02  0.50466190986E+02  0.51100000000E-03 0.  1.
         23    2    1    0    0    0 -0.20755588079E+01  0.19999885292E+02 -0.21499181550E+02  0.95563319424E+02  0.90916609351E+02 0.  0.
         11    1    3    3    0    0 -0.29517112894E+02  0.27475253198E+02  0.20189143151E+02  0.45097128438E+02  0.51100000000E-03 0. -1.
         22    1    1    0    0    0  0.20755588079E+01 -0.19999885292E+02  0.21499181550E+02  0.29436680576E+02  0.00000000000E+00 0. -1.
</event>
<event>
 5    1  0.8902899E-005  0.9118800E+02  0.7818608E-02  0.1130116E+00
         25   -1    0    0    0    0  0.00000000000E+00  0.00000000000E+00  0.99999998245E-14  0.12500000000E+03  0.12500000000E+03 0.  0.
        -11    1    3    3    0    0 -0.42339090036E+02 -0.86035260644E+01 -0.21500117864E+02  0.48258411436E+02  0.51100000000E-03 0. -1.
         23    2    1    0    0    0  0.67777619703E+01 -0.10421607715E+01 -0.25956180469E+02  0.98153259770E+02  0.94410354001E+02 0.  0.
         11    1    3    3    0    0  0.49116852007E+02  0.75613652929E+01 -0.44560626050E+01  0.49894848335E+02  0.51100000000E-03 0.  1.
         22    1    1    0    0    0 -0.67777619703E+01  0.10421607715E+01  0.25956180469E+02  0.26846740230E+02  0.00000000000E+00 0.  1.
</event>
<event>
 5    1  0.8902899E-005  0.9118800E+02  0.7818608E-02  0.1130116E+00
         25   -1    0    0    0    0  0.00000000000E+00  0.00000000000E+00  0.99999998245E-14  0.12500000000E+03  0.12500000000E+03 0.  0.
        -11    1    3    3    0    0 -0.18530257428E+02 -0.24129952540E+02 -0.19692277222E+01  0.30487750130E+02  0.51100000000E-03 0.  1.
         23    2    1    0    0    0  0.21597847796E+02  0.23691402328E+02 -0.16110476011E+00  0.92941061645E+02  0.87236835175E+02 0.  0.
         11    1    3    3    0    0  0.40128105224E+02  0.47821354868E+02  0.18081229621E+01  0.62453311515E+02  0.51100000000E-03 0. -1.
         22    1    1    0    0    0 -0.21597847796E+02 -0.23691402328E+02  0.16110476011E+00  0.32058938355E+02  0.00000000000E+00 0. -1.
</event>
<event>
 5    1  0.8902899E-005  0.9118800E+02  0.7818608E-02  0.1130116E+00
         25   -1    0    0    0    0  0.00000000000E+00  0.00000000000E+00  0.99999998245E-14  0.12500000000E+03  0.12500000000E+03 0.  0.
        -11    1    3    3    0    0 -0.38953164213E+02  0.50699141908E+01  0.14547586912E+01  0.39308642246E+02  0.51100000000E-03 0. -1.
         23    2    1    0    0    0  0.92682572805E+01 -0.15150591567E+02 -0.22090991010E+02  0.96654755220E+02  0.92405025864E+02 0.  0.
         11    1    3    3    0    0  0.48221421493E+02 -0.20220505757E+02 -0.23545749702E+02  0.57346112974E+02  0.51100000000E-03 0.  1.
         22    1    1    0    0    0 -0.92682572805E+01  0.15150591567E+02  0.22090991010E+02  0.28345244780E+02  0.00000000000E+00 0.  1.
</event>
<event>
 5    1  0.8902899E-005  0.9118800E+02  0.7818608E-02  0.1130116E+00
         25   -1    0    0    0    0  0.00000000000E+00  0.00000000000E+00  0.99999998245E-14  0.12500000000E+03  0.12500000000E+03 0.  0.
        -11    1    3    3    0    0  0.15089160721E+02  0.36194638434E+02  0.14876108815E+02  0.41940830182E+02  0.51100000000E-03 0. -1.
         23    2    1    0    0    0 -0.14702077596E+02 -0.81243608151E+01  0.23582100569E+02  0.96047076287E+02  0.91579304823E+02 0.  0.
         11    1    3    3    0    0 -0.29791238317E+02 -0.44318999249E+02  0.87059917532E+01  0.54106246105E+02  0.51100000000E-03 0.  1.
         22    1    1    0    0    0  0.14702077596E+02  0.81243608151E+01 -0.23582100569E+02  0.28952923713E+02  0.00000000000E+00 0. -1.
</event>
<event>
 5    1  0.8902899E-005  0.9118800E+02  0.7818608E-02  0.1130116E+00
         25   -1    0    0    0    0  0.00000000000E+00  0.00000000000E+00  0.99999998245E-14  0.12500000000E+03  0.12500000000E+03 0.  0.
        -11    1    3    3    0    0  0.29535430316E+02  0.16634634987E+02 -0.10941406537E+02  0.35619757191E+02  0.51100000000E-03 0.  1.
         23    2    1    0    0    0 -0.71742593405E+01 -0.22154883120E+02  0.17258896148E+02  0.96014170024E+02  0.91534378821E+02 0.  0.
         11    1    3    3    0    0 -0.36709689656E+02 -0.38789518107E+02  0.28200302686E+02  0.60394412833E+02  0.51100000000E-03 0. -1.
         22    1    1    0    0    0  0.71742593405E+01  0.22154883120E+02 -0.17258896148E+02  0.28985829976E+02  0.00000000000E+00 0. -1.
</event>
<event>
 5    1  0.8902899E-005  0.9118800E+02  0.7818608E-02  0.1130116E+00
         25   -1    0    0    0    0  0.00000000000E+00  0.00000000000E+00  0.99999998245E-14  0.12500000000E+03  0.12500000000E+03 0.  0.
        -11    1    3    3    0    0 -0.43772768948E+02  0.18518026809E+02 -0.29741673922E+02  0.56067279105E+02  0.51100000000E-03 0.  1.
         23    2    1    0    0    0 -0.27015752039E+02 -0.55836430860E+01 -0.63500356781E+00  0.97405957928E+02  0.93415681135E+02 0.  0.
         11    1    3    3    0    0  0.16757016909E+02 -0.24101669895E+02  0.29106670355E+02  0.41338678823E+02  0.51100000000E-03 0. -1.
         22    1    1    0    0    0  0.27015752039E+02  0.55836430860E+01  0.63500356781E+00  0.27594042072E+02  0.00000000000E+00 0.  1.
</event>
<event>
 5    1  0.8902899E-005  0.9118800E+02  0.7818608E-02  0.1130116E+00
         25   -1    0    0    0    0  0.00000000000E+00  0.00000000000E+00  0.99999998245E-14  0.12500000000E+03  0.12500000000E+03 0.  0.
        -11    1    3    3    0    0  0.73702422035E+01 -0.50735768490E+02  0.18026292314E+02  0.54345063154E+02  0.51100000000E-03 0.  1.
         23    2    1    0    0    0  0.20737318206E+02 -0.14955334258E+02  0.19921117749E+02  0.92587821401E+02  0.86729207020E+02 0.  0.
         11    1    3    3    0    0  0.13367076002E+02  0.35780434231E+02  0.18948254358E+01  0.38242758247E+02  0.51100000000E-03 0. -1.
         22    1    1    0    0    0 -0.20737318206E+02  0.14955334258E+02 -0.19921117749E+02  0.32412178599E+02  0.00000000000E+00 0.  1.
</event>
<event>
 5    1  0.8902899E-005  0.9118800E+02  0.7818608E-02  0.1130116E+00
         25   -1    0    0    0    0  0.00000000000E+00  0.00000000000E+00  0.99999998245E-14  0.12500000000E+03  0.12500000000E+03 0.  0.
        -11    1    3    3    0    0 -0.36223992328E+02 -0.91437483684E+01 -0.41272226275E+02  0.55670301026E+02  0.51100000000E-03 0. -1.
         23    2    1    0    0    0 -0.19838252281E+02  0.12314378156E+02 -0.46123792484E+01  0.10119928141E+03  0.98360664665E+02 0.  0.
         11    1    3    3    0    0  0.16385740048E+02  0.21458126524E+02  0.36659847026E+02  0.45528980387E+02  0.51100000000E-03 0.  1.
         22    1    1    0    0    0  0.19838252281E+02 -0.12314378156E+02  0.46123792484E+01  0.23800718587E+02  0.00000000000E+00 0. -1.
</event>
<event>
 5    1  0.8902899E-005  0.9118800E+02  0.7818608E-02  0.1130116E+00
         25   -1    0    0    0    0  0.00000000000E+00  0.00000000000E+00  0.99999998245E-14  0.12500000000E+03  0.12500000000E+03 0.  0.
        -11    1    3    3    0    0 -0.16647850256E+02  0.30917894102E+02  0.27473849546E+02  0.44585642341E+02  0.51100000000E-03 0. -1.
         23    2    1    0    0    0 -0.22797053026E+02 -0.15378291147E+02  0.29291667301E+01  0.97345389480E+02  0.93334598998E+02 0.  0.
         11    1    3    3    0    0 -0.61492027701E+01 -0.46296185250E+02 -0.24544682816E+02  0.52759747139E+02  0.51100000000E-03 0.  1.
         22    1    1    0    0    0  0.22797053026E+02  0.15378291147E+02 -0.29291667301E+01  0.27654610520E+02  0.00000000000E+00 0.  1.
</event>
<event>
 5    1  0.8902899E-005  0.9118800E+02  0.7818608E-02  0.1130116E+00
         25   -1    0    0    0    0  0.00000000000E+00  0.00000000000E+00  0.99999998245E-14  0.12500000000E+03  0.12500000000E+03 0.  0.
        -11    1    3    3    0    0 -0.26009293998E+02 -0.19955313057E+02 -0.24824211992E+02  0.41121033484E+02  0.51100000000E-03 0.  1.
         23    2    1    0    0    0 -0.16540284219E+02  0.23958825064E+02  0.55670156638E+01  0.95358846785E+02  0.90635046733E+02 0.  0.
         11    1    3    3    0    0  0.94690097794E+01  0.43914138121E+02  0.30391227656E+02  0.54237813302E+02  0.51100000000E-03 0. -1.
         22    1    1    0    0    0  0.16540284219E+02 -0.23958825064E+02 -0.55670156638E+01  0.29641153215E+02  0.00000000000E+00 0. -1.
</event>
<event>
 5    1  0.8902899E-005  0.9118800E+02  0.7818608E-02  0.1130116E+00
         25   -1    0    0    0    0  0.00000000000E+00  0.00000000000E+00  0.99999998245E-14  0.12500000000E+03  0.12500000000E+03 0.  0.
        -11    1    3    3    0    0  0.20953767118E+02  0.37053019645E+02 -0.33530541231E+01  0.42699292658E+02  0.51100000000E-03 0.  1.
         23    2    1    0    0    0 -0.25843492738E+02  0.14449587743E+02 -0.62066221212E+01  0.94747746183E+02  0.89788287353E+02 0.  0.
         11    1    3    3    0    0 -0.46797259856E+02 -0.22603431902E+02 -0.28535679981E+01  0.52048453525E+02  0.51100000000E-03 0. -1.
         22    1    1    0    0    0  0.25843492738E+02 -0.14449587743E+02  0.62066221212E+01  0.30252253817E+02  0.00000000000E+00 0. -1.
</event>
<event>
 5    1  0.8902899E-005  0.9118800E+02  0.7818608E-02  0.1130116E+00
         25   -1    0    0    0    0  0.00000000000E+00  0.00000000000E+00  0.99999998245E-14  0.12500000000E+03  0.12500000000E+03 0.  0.
        -11    1    3    3    0    0  0.35087930943E+01  0.20809504946E+02  0.25869220445E+02  0.33385081875E+02  0.51100000000E-03 0. -1.
         23    2    1    0    0    0 -0.35762096701E+00 -0.17493679104E+02 -0.23318253728E+02  0.95846995725E+02  0.91305799001E+02 0.  0.
         11    1    3    3    0    0 -0.38664140613E+01 -0.38303184050E+02 -0.49187474173E+02  0.62461913850E+02  0.51100000000E-03 0.  1.
         22    1    1    0    0    0  0.35762096701E+00  0.17493679104E+02  0.23318253728E+02  0.29153004275E+02  0.00000000000E+00 0.  1.
</event>
<event>
 5    1  0.8902899E-005  0.9118800E+02  0.7818608E-02  0.1130116E+00
         25   -1    0    0    0    0  0.00000000000E+00  0.00000000000E+00  0.99999998245E-14  0.12500000000E+03  0.12500000000E+03 0.  0.
        -11    1    3    3    0    0  0.18768704030E+01  0.14953372796E+02 -0.32115905953E+02  0.35476152778E+02  0.51100000000E-03 0.  1.
         23    2    1    0    0    0 -0.25169298401E+01  0.72774094168E+01  0.27857294711E+02  0.96098019233E+02  0.91648812367E+02 0.  0.
         11    1    3    3    0    0 -0.43938002431E+01 -0.76759633790E+01  0.59973200664E+02  0.60621866455E+02  0.51100000000E-03 0. -1.
         22    1    1    0    0    0  0.25169298401E+01 -0.72774094168E+01 -0.27857294711E+02  0.28901980767E+02  0.00000000000E+00 0. -1.
</event>
<event>
 5    1  0.8902899E-005  0.9118800E+02  0.7818608E-02  0.1130116E+00
         25   -1    0    0    0    0  0.00000000000E+00  0.00000000000E+00  0.99999998245E-14  0.12500000000E+03  0.12500000000E+03 0.  0.
        -11    1    3    3    0    0 -0.21964351095E+02 -0.24628043147E+02  0.15542220031E+01  0.33036174636E+02  0.51100000000E-03 0.  1.
         23    2    1    0    0    0  0.28379323339E+02  0.10680225135E+02  0.28752838587E+01  0.94541496107E+02  0.89500692885E+02 0.  0.
         11    1    3    3    0    0  0.50343674434E+02  0.35308268283E+02  0.13210618556E+01  0.61505321471E+02  0.51100000000E-03 0. -1.
         22    1    1    0    0    0 -0.28379323339E+02 -0.10680225135E+02 -0.28752838587E+01  0.30458503893E+02  0.00000000000E+00 0. -1.
</event>
<event>
 5    1  0.8902899E-005  0.9118800E+02  0.7818608E-02  0.1130116E+00
         25   -1    0    0    0    0  0.00000000000E+00  0.00000000000E+00  0.99999998245E-14  0.12500000000E+03  0.12500000000E+03 0.  0.
        -11    1    3    3    0    0 -0.30451475474E+02  0.13246741342E+02  0.31848070894E+01  0.33360328404E+02  0.51100000000E-03 0.  1.
         23    2    1    0    0    0  0.23647384065E+02 -0.15688043223E+02  0.95920256458E+01  0.95044692802E+02  0.90200738360E+02 0.  0.
         11    1    3    3    0    0  0.54098859540E+02 -0.28934784566E+02  0.64072185564E+01  0.61684364399E+02  0.51100000000E-03 0. -1.
         22    1    1    0    0    0 -0.23647384065E+02  0.15688043223E+02 -0.95920256458E+01  0.29955307198E+02  0.00000000000E+00 0. -1.
</event>
<event>
 5    1  0.8902899E-005  0.9118800E+02  0.7818608E-02  0.1130116E+00
         25   -1    0    0    0    0  0.00000000000E+00  0.00000000000E+00  0.99999998245E-14  0.12500000000E+03  0.12500000000E+03 0.  0.
        -11    1    3    3    0    0 -0.94574466386E+01  0.26104777026E+02 -0.19374351828E+02  0.33856582661E+02  0.51100000000E-03 0.  1.
         23    2    1    0    0    0  0.11512272252E+02 -0.21976085646E+02  0.14467655722E+02  0.96280776215E+02  0.91897736935E+02 0.  0.
         11    1    3    3    0    0  0.20969718891E+02 -0.48080862672E+02  0.33842007550E+02  0.62424193554E+02  0.51100000000E-03 0. -1.
         22    1    1    0    0    0 -0.11512272252E+02  0.21976085646E+02 -0.14467655722E+02  0.28719223785E+02  0.00000000000E+00 0. -1.
</event>
<event>
 5    1  0.8902899E-005  0.9118800E+02  0.7818608E-02  0.1130116E+00
         25   -1    0    0    0    0  0.00000000000E+00  0.00000000000E+00  0.99999998245E-14  0.12500000000E+03  0.12500000000E+03 0.  0.
        -11    1    3    3    0    0 -0.23857716837E+02  0.18966467888E+02 -0.16254060957E+02  0.34541454148E+02  0.51100000000E-03 0. -1.
         23    2    1    0    0    0  0.31503914337E+02  0.73884062510E+01 -0.76221830863E+01  0.91755709656E+02  0.85521502641E+02 0.  0.
         11    1    3    3    0    0  0.55361631174E+02 -0.11578061637E+02  0.86318778704E+01  0.57214255508E+02  0.51100000000E-03 0.  1.
         22    1    1    0    0    0 -0.31503914337E+02 -0.73884062510E+01  0.76221830863E+01  0.33244290344E+02  0.00000000000E+00 0.  1.
</event>
<event>
 5    1  0.8902899E-005  0.9118800E+02  0.7818608E-02  0.1130116E+00
         25   -1    0    0    0    0  0.00000000000E+00  0.00000000000E+00  0.99999998245E-14  0.12500000000E+03  0.12500000000E+03 0.  0.
        -11    1    3    3    0    0 -0.14796769579E+02  0.27518246523E+02  0.21414944793E+02  0.37878729420E+02  0.51100000000E-03 0. -1.
         23    2    1    0    0    0 -0.13731719114E+02 -0.26555816675E+02  0.32709420768E+01  0.94925582779E+02  0.90035524626E+02 0.  0.
         11    1    3    3    0    0  0.10650504644E+01 -0.54074063199E+02 -0.18144002716E+02  0.57046853359E+02  0.51100000000E-03 0.  1.
         22    1    1    0    0    0  0.13731719114E+02  0.26555816675E+02 -0.32709420768E+01  0.30074417221E+02  0.00000000000E+00 0.  1.
</event>
<event>
 5    1  0.8902899E-005  0.9118800E+02  0.7818608E-02  0.1130116E+00
         25   -1    0    0    0    0  0.00000000000E+00  0.00000000000E+00  0.99999998245E-14  0.12500000000E+03  0.12500000000E+03 0.  0.
        -11    1    3    3    0    0 -0.29717556197E+02 -0.20619906318E+02  0.48028884008E+02  0.60125596730E+02  0.51100000000E-03 0.  1.
         23    2    1    0    0    0 -0.14923348697E+02 -0.18819818754E+02  0.14185269940E+02  0.97105308793E+02  0.93012510977E+02 0.  0.
         11    1    3    3    0    0  0.14794207499E+02  0.18000875648E+01 -0.33843614069E+02  0.36979712063E+02  0.51100000000E-03 0. -1.
         22    1    1    0    0    0  0.14923348697E+02  0.18819818754E+02 -0.14185269940E+02  0.27894691207E+02  0.00000000000E+00 0.  1.
</event>
<event>
 5    1  0.8902899E-005  0.9118800E+02  0.7818608E-02  0.1130116E+00
         25   -1    0    0    0    0  0.00000000000E+00  0.00000000000E+00  0.99999998245E-14  0.12500000000E+03  0.12500000000E+03 0.  0.
        -11    1    3    3    0    0  0.34054898672E+02 -0.19559093872E+02  0.43649192968E+02  0.58715809827E+02  0.51100000000E-03 0. -1.
         23    2    1    0    0    0  0.22717725374E+02 -0.13071221778E+02  0.66404301183E+01  0.97962115521E+02  0.94156937505E+02 0.  0.
         11    1    3    3    0    0 -0.11337173298E+02  0.64878720944E+01 -0.37008762850E+02  0.39246305694E+02  0.51100000000E-03 0.  1.
         22    1    1    0    0    0 -0.22717725374E+02  0.13071221778E+02 -0.66404301183E+01  0.27037884479E+02  0.00000000000E+00 0. -1.
</event>
<event>
 5    1  0.8902899E-005  0.9118800E+02  0.7818608E-02  0.1130116E+00
         25   -1    0    0    0    0  0.00000000000E+00  0.00000000000E+00  0.99999998245E-14  0.12500000000E+03  0.12500000000E+03 0.  0.
        -11    1    3    3    0    0 -0.40805700050E+02 -0.28833859085E+01  0.40344457511E+01  0.41105909839E+02  0.51100000000E-03 0.  1.
         23    2    1    0    0    0  0.66615451587E+01  0.20923440476E+02 -0.15966553099E+02  0.97850462930E+02  0.94008593929E+02 0.  0.
         11    1    3    3    0    0  0.47467245209E+02  0.23806826385E+02 -0.20000998850E+02  0.56744553091E+02  0.51100000000E-03 0. -1.
         22    1    1    0    0    0 -0.66615451587E+01 -0.20923440476E+02  0.15966553099E+02  0.27149537070E+02  0.00000000000E+00 0. -1.
</event>
<event>
 5    1  0.8902899E-005  0.9118800E+02  0.7818608E-02  0.1130116E+00
         25   -1    0    0    0    0  0.00000000000E+00  0.00000000000E+00  0.99999998245E-14  0.12500000000E+03  0.12500000000E+03 0.  0.
        -11    1    3    3    0    0  0.27564280715E+02 -0.27831113635E+01  0.19921803517E+02  0.34123504155E+02  0.51100000000E-03 0. -1.
         23    2    1    0    0    0 -0.23295783127E+02 -0.16263198933E+02 -0.10273855212E+02  0.94788458299E+02  0.89844947408E+02 0.  0.
         11    1    3    3    0    0 -0.50860063842E+02 -0.13480087569E+02 -0.30195658729E+02  0.60664954144E+02  0.51100000000E-03 0.  1.
         22    1    1    0    0    0  0.23295783127E+02  0.16263198933E+02  0.10273855212E+02  0.30211541701E+02  0.00000000000E+00 0.  1.
</event>
<event>
 5    1  0.8902899E-005  0.9118800E+02  0.7818608E-02  0.1130116E+00
         25   -1    0    0    0    0  0.00000000000E+00  0.00000000000E+00  0.99999998245E-14  0.12500000000E+03  0.12500000000E+03 0.  0.
        -11    1    3    3    0    0  0.26015679687E+01  0.32527841312E+01  0.40898727105E+02  0.41110274137E+02  0.51100000000E-03 0. -1.
         23    2    1    0    0    0 -0.10484488000E+00 -0.26463109808E+02 -0.70755647746E+01  0.97607103293E+02  0.93684448139E+02 0.  0.
         11    1    3    3    0    0 -0.27064128487E+01 -0.29715893939E+02 -0.47974291880E+02  0.56496829156E+02  0.51100000000E-03 0.  1.
         22    1    1    0    0    0  0.10484488000E+00  0.26463109808E+02  0.70755647746E+01  0.27392896707E+02  0.00000000000E+00 0.  1.
</event>
<event>
 5    1  0.8902899E-005  0.9118800E+02  0.7818608E-02  0.1130116E+00
         25   -1    0    0    0    0  0.00000000000E+00  0.00000000000E+00  0.99999998245E-14  0.12500000000E+03  0.12500000000E+03 0.  0.
        -11    1    3    3    0    0 -0.33921096835E+02  0.19571659405E+02  0.19712434137E+02  0.43843707898E+02  0.51100000000E-03 0.  1.
         23    2    1    0    0    0  0.10523279946E+02 -0.62838952044E+01  0.26591380025E+02  0.95719831773E+02  0.91131541978E+02 0.  0.
         11    1    3    3    0    0  0.44444376780E+02 -0.25855554609E+02  0.68789458877E+01  0.51876123875E+02  0.51100000000E-03 0. -1.
         22    1    1    0    0    0 -0.10523279946E+02  0.62838952044E+01 -0.26591380025E+02  0.29280168227E+02  0.00000000000E+00 0. -1.
</event>
<event>
 5    1  0.8902899E-005  0.9118800E+02  0.7818608E-02  0.1130116E+00
         25   -1    0    0    0    0  0.00000000000E+00  0.00000000000E+00  0.99999998245E-14  0.12500000000E+03  0.12500000000E+03 0.  0.
        -11    1    3    3    0    0  0.38658660870E+02  0.23714461244E+02  0.28726093601E+02  0.53684785425E+02  0.51100000000E-03 0.  1.
         23    2    1    0    0    0 -0.51938051858E-01  0.26281773769E+02  0.89053114143E+01  0.97250425203E+02  0.93207329652E+02 0.  0.
         11    1    3    3    0    0 -0.38710598922E+02  0.25673125254E+01 -0.19820782186E+02  0.43565639778E+02  0.51100000000E-03 0. -1.
         22    1    1    0    0    0  0.51938051858E-01 -0.26281773769E+02 -0.89053114143E+01  0.27749574797E+02  0.00000000000E+00 0.  1.
</event>
<event>
 5    1  0.8902899E-005  0.9118800E+02  0.7818608E-02  0.1130116E+00
         25   -1    0    0    0    0  0.00000000000E+00  0.00000000000E+00  0.99999998245E-14  0.12500000000E+03  0.12500000000E+03 0.  0.
        -11    1    3    3    0    0  0.47479394978E+01  0.41447574575E+02 -0.38148933822E+02  0.56531279126E+02  0.51100000000E-03 0. -1.
         23    2    1    0    0    0  0.51463067630E+01  0.33986122127E+01 -0.28573312540E+02  0.95768694388E+02  0.91198539446E+02 0.  0.
         11    1    3    3    0    0  0.39836726519E+00 -0.38048962362E+02  0.95756212821E+01  0.39237415263E+02  0.51100000000E-03 0.  1.
         22    1    1    0    0    0 -0.51463067630E+01 -0.33986122127E+01  0.28573312540E+02  0.29231305612E+02  0.00000000000E+00 0. -1.
</event>
<event>
 5    1  0.8902899E-005  0.9118800E+02  0.7818608E-02  0.1130116E+00
         25   -1    0    0    0    0  0.00000000000E+00  0.00000000000E+00  0.99999998245E-14  0.12500000000E+03  0.12500000000E+03 0.  0.
        -11    1    3    3    0    0  0.35522884646E+02 -0.22242712813E+02  0.28657093253E+02  0.50772459077E+02  0.51100000000E-03 0.  1.
         23    2    1    0    0    0  0.47270547633E+01  0.11255221246E+02  0.25910231505E+02  0.96357982811E+02  0.92002693997E+02 0.  0.
         11    1    3    3    0    0 -0.30795829882E+02  0.33497934058E+02 -0.27468617478E+01  0.45585523733E+02  0.51100000000E-03 0. -1.
         22    1    1    0    0    0 -0.47270547633E+01 -0.11255221246E+02 -0.25910231505E+02  0.28642017189E+02  0.00000000000E+00 0. -1.
</event>
<event>
 5    1  0.8902899E-005  0.9118800E+02  0.7818608E-02  0.1130116E+00
         25   -1    0    0    0    0  0.00000000000E+00  0.00000000000E+00  0.99999998245E-14  0.12500000000E+03  0.12500000000E+03 0.  0.
        -11    1    3    3    0    0  0.13829688272E+02 -0.53254964873E+02  0.10142001954E+02  0.55948295463E+02  0.51100000000E-03 0.  1.
         23    2    1    0    0    0  0.24474120919E+02 -0.15280502075E+02  0.36440022091E+01  0.95918131241E+02  0.91403133481E+02 0.  0.
         11    1    3    3    0    0  0.10644432648E+02  0.37974462798E+02 -0.64979997448E+01  0.39969835778E+02  0.51100000000E-03 0. -1.
         22    1    1    0    0    0 -0.24474120919E+02  0.15280502075E+02 -0.36440022091E+01  0.29081868759E+02  0.00000000000E+00 0.  1.
</event>
<event>
 5    1  0.8902899E-005  0.9118800E+02  0.7818608E-02  0.1130116E+00
         25   -1    0    0    0    0  0.00000000000E+00  0.00000000000E+00  0.99999998245E-14  0.12500000000E+03  0.12500000000E+03 0.  0.
        -11    1    3    3    0    0  0.40997284523E+02  0.15484350037E+02  0.11032071787E+02  0.45191249623E+02  0.51100000000E-03 0.  1.
         23    2    1    0    0    0  0.82154467342E+01 -0.21361956278E+02  0.19130942690E+02  0.95170154053E+02  0.90374435064E+02 0.  0.
         11    1    3    3    0    0 -0.32781837789E+02 -0.36846306314E+02  0.80988709025E+01  0.49978904429E+02  0.51100000000E-03 0. -1.
         22    1    1    0    0    0 -0.82154467342E+01  0.21361956278E+02 -0.19130942690E+02  0.29829845947E+02  0.00000000000E+00 0. -1.
</event>
<event>
 5    1  0.8902899E-005  0.9118800E+02  0.7818608E-02  0.1130116E+00
         25   -1    0    0    0    0  0.00000000000E+00  0.00000000000E+00  0.99999998245E-14  0.12500000000E+03  0.12500000000E+03 0.  0.
        -11    1    3    3    0    0 -0.32223460157E+02  0.17747630104E+02 -0.26218841117E+02  0.45174742817E+02  0.51100000000E-03 0. -1.
         23    2    1    0    0    0  0.20375122911E+01 -0.20315358899E+02 -0.19395778948E+02  0.96838652295E+02  0.92653456891E+02 0.  0.
         11    1    3    3    0    0  0.34260972448E+02 -0.38062989003E+02  0.68230621690E+01  0.51663909478E+02  0.51100000000E-03 0.  1.
         22    1    1    0    0    0 -0.20375122911E+01  0.20315358899E+02  0.19395778948E+02  0.28161347705E+02  0.00000000000E+00 0. -1.
</event>
<event>
 5    1  0.8902899E-005  0.9118800E+02  0.7818608E-02  0.1130116E+00
         25   -1    0    0    0    0  0.00000000000E+00  0.00000000000E+00  0.99999998245E-14  0.12500000000E+03  0.12500000000E+03 0.  0.
        -11    1    3    3    0    0 -0.52650527891E+01  0.28227324588E+02 -0.17449772079E+02  0.33600553271E+02  0.51100000000E-03 0. -1.
         23    2    1    0    0    0  0.15224712814E+02 -0.25769213812E+02  0.31186737043E+01  0.94907303437E+02  0.90010143091E+02 0.  0.
         11    1    3    3    0    0  0.20489765604E+02 -0.53996538400E+02  0.20568445784E+02  0.61306750166E+02  0.51100000000E-03 0.  1.
         22    1    1    0    0    0 -0.15224712814E+02  0.25769213812E+02 -0.31186737043E+01  0.30092696563E+02  0.00000000000E+00 0.  1.
</event>
<event>
 5    1  0.8902899E-005  0.9118800E+02  0.7818608E-02  0.1130116E+00
         25   -1    0    0    0    0  0.00000000000E+00  0.00000000000E+00  0.99999998245E-14  0.12500000000E+03  0.12500000000E+03 0.  0.
        -11    1    3    3    0    0 -0.70394032521E+01 -0.35251362675E+02 -0.23345919905E+02  0.42863081376E+02  0.51100000000E-03 0.  1.
         23    2    1    0    0    0  0.10310883291E+02 -0.15024708224E+02  0.22594440907E+02  0.95973030964E+02  0.91478181776E+02 0.  0.
         11    1    3    3    0    0  0.17350286543E+02  0.20226654451E+02  0.45940360813E+02  0.53109949588E+02  0.51100000000E-03 0. -1.
         22    1    1    0    0    0 -0.10310883291E+02  0.15024708224E+02 -0.22594440907E+02  0.29026969036E+02  0.00000000000E+00 0. -1.
</event>
<event>
 5    1  0.8902899E-005  0.9118800E+02  0.7818608E-02  0.1130116E+00
         25   -1    0    0    0    0  0.00000000000E+00  0.00000000000E+00  0.99999998245E-14  0.12500000000E+03  0.12500000000E+03 0.  0.
        -11    1    3    3    0    0 -0.14282630534E+02  0.59465125288E+01 -0.30010451432E+02  0.33763615648E+02  0.51100000000E-03 0. -1.
         23    2    1    0    0    0  0.28022504691E+01 -0.16323266785E+01  0.29080104115E+02  0.95739624859E+02  0.91158686995E+02 0.  0.
         11    1    3    3    0    0  0.17084881004E+02 -0.75788392073E+01  0.59090555546E+02  0.61976009211E+02  0.51100000000E-03 0.  1.
         22    1    1    0    0    0 -0.28022504691E+01  0.16323266785E+01 -0.29080104115E+02  0.29260375141E+02  0.00000000000E+00 0.  1.
</event>
<event>
 5    1  0.8902899E-005  0.9118800E+02  0.7818608E-02  0.1130116E+00
         25   -1    0    0    0    0  0.00000000000E+00  0.00000000000E+00  0.99999998245E-14  0.12500000000E+03  0.12500000000E+03 0.  0.
        -11    1    3    3    0    0 -0.31323433471E+02 -0.29721147071E+02 -0.81552293988E+00  0.43187604072E+02  0.51100000000E-03 0.  1.
         23    2    1    0    0    0  0.15291211218E+02 -0.18902891479E+02  0.18146748006E+02  0.94661164986E+02  0.89667671134E+02 0.  0.
         11    1    3    3    0    0  0.46614644688E+02  0.10818255591E+02  0.18962270946E+02  0.51473560914E+02  0.51100000000E-03 0. -1.
         22    1    1    0    0    0 -0.15291211218E+02  0.18902891479E+02 -0.18146748006E+02  0.30338835014E+02  0.00000000000E+00 0. -1.
</event>
<event>
 5    1  0.8902899E-005  0.9118800E+02  0.7818608E-02  0.1130116E+00
         25   -1    0    0    0    0  0.00000000000E+00  0.00000000000E+00  0.99999998245E-14  0.12500000000E+03  0.12500000000E+03 0.  0.
        -11    1    3    3    0    0 -0.12941513629E+01  0.22596587347E+02 -0.32550616174E+02  0.39646225559E+02  0.51100000000E-03 0.  1.
         23    2    1    0    0    0  0.21420822492E+02 -0.18745584409E+02 -0.76982537509E+00  0.96524726478E+02  0.92228963019E+02 0.  0.
         11    1    3    3    0    0  0.22714973855E+02 -0.41342171756E+02  0.31780790799E+02  0.56878500919E+02  0.51100000000E-03 0. -1.
         22    1    1    0    0    0 -0.21420822492E+02  0.18745584409E+02  0.76982537509E+00  0.28475273522E+02  0.00000000000E+00 0. -1.
</event>
<event>
 4    1  0.8902899E-005  0.9118800E+02  0.7818608E-02  0.1130116E+00
         25   -1    0    0    0    0  0.00000000000E+00  0.00000000000E+00  0.99999998245E-14  0.12500000000E+03  0.12500000000E+03 0.  0.
        -11    1    1    0    0    0 -0.55303700471E+01 -0.13484988329E+02  0.40533262555E+01  0.15128098264E+02  0.51100000000E-03 0. -1.
         11    1    1    0    0    0 -0.25982311875E+02  0.43844201095E+02  0.25580384617E+02  0.57024122768E+02  0.51100000000E-03 0.  1.
         22    1    1    0    0    0  0.31512681922E+02 -0.30359212766E+02 -0.29633710873E+02  0.52847778967E+02  0.00000000000E+00 0.  1.
</event>
<event>
 5    1  0.8902899E-005  0.9118800E+02  0.7818608E-02  0.1130116E+00
         25   -1    0    0    0    0  0.00000000000E+00  0.00000000000E+00  0.99999998245E-14  0.12500000000E+03  0.12500000000E+03 0.  0.
        -11    1    3    3    0    0 -0.22192474359E+02 -0.43679909483E+02 -0.11240960474E+01  0.49007183176E+02  0.51100000000E-03 0.  1.
         23    2    1    0    0    0 -0.29035745779E+02  0.10239126026E+01 -0.82683408971E+01  0.94792577217E+02  0.89850677818E+02 0.  0.
         11    1    3    3    0    0 -0.68432714202E+01  0.44703822086E+02 -0.71442448497E+01  0.45785394042E+02  0.51100000000E-03 0. -1.
         22    1    1    0    0    0  0.29035745779E+02 -0.10239126026E+01  0.82683408971E+01  0.30207422783E+02  0.00000000000E+00 0. -1.
</event>
<event>
 5    1  0.8902899E-005  0.9118800E+02  0.7818608E-02  0.1130116E+00
         25   -1    0    0    0    0  0.00000000000E+00  0.00000000000E+00  0.99999998245E-14  0.12500000000E+03  0.12500000000E+03 0.  0.
        -11    1    3    3    0    0  0.41473560450E+02 -0.19270077069E+01  0.42471846833E+02  0.59393832582E+02  0.51100000000E-03 0. -1.
         23    2    1    0    0    0  0.25690726098E+02  0.66111124319E+01  0.97043738392E+01  0.96752963224E+02  0.92537780425E+02 0.  0.
         11    1    3    3    0    0 -0.15782834352E+02  0.85381201388E+01 -0.32767472994E+02  0.37359130642E+02  0.51100000000E-03 0.  1.
         22    1    1    0    0    0 -0.25690726098E+02 -0.66111124319E+01 -0.97043738392E+01  0.28247036776E+02  0.00000000000E+00 0. -1.
</event>
<event>
 5    1  0.8902899E-005  0.9118800E+02  0.7818608E-02  0.1130116E+00
         25   -1    0    0    0    0  0.00000000000E+00  0.00000000000E+00  0.99999998245E-14  0.12500000000E+03  0.12500000000E+03 0.  0.
        -11    1    3    3    0    0 -0.27597150327E+02  0.17352721983E+02  0.43965472048E+02  0.54732827435E+02  0.51100000000E-03 0.  1.
         23    2    1    0    0    0 -0.26623605179E+01  0.26881304339E+02  0.15082423085E+02  0.94061800753E+02  0.88828206040E+02 0.  0.
         11    1    3    3    0    0  0.24934789809E+02  0.95285823566E+01 -0.28883048963E+02  0.39328973318E+02  0.51100000000E-03 0. -1.
         22    1    1    0    0    0  0.26623605179E+01 -0.26881304339E+02 -0.15082423085E+02  0.30938199247E+02  0.00000000000E+00 0.  1.
</event>
<event>
 5    1  0.8902899E-005  0.9118800E+02  0.7818608E-02  0.1130116E+00
         25   -1    0    0    0    0  0.00000000000E+00  0.00000000000E+00  0.99999998245E-14  0.12500000000E+03  0.12500000000E+03 0.  0.
        -11    1    3    3    0    0 -0.32665829035E+01 -0.39196903332E+02 -0.46480501867E+02  0.60889283530E+02  0.51100000000E-03 0.  1.
         23    2    1    0    0    0 -0.87466634419E+01 -0.16093375676E+02 -0.30200899065E+02  0.89678686797E+02  0.82429798613E+02 0.  0.
         11    1    3    3    0    0 -0.54800805384E+01  0.23103527655E+02  0.16279602802E+02  0.28789403267E+02  0.51100000000E-03 0. -1.
         22    1    1    0    0    0  0.87466634419E+01  0.16093375676E+02  0.30200899065E+02  0.35321313203E+02  0.00000000000E+00 0.  1.
</event>
<event>
 5    1  0.8902899E-005  0.9118800E+02  0.7818608E-02  0.1130116E+00
         25   -1    0    0    0    0  0.00000000000E+00  0.00000000000E+00  0.99999998245E-14  0.12500000000E+03  0.12500000000E+03 0.  0.
        -11    1    3    3    0    0  0.22198378143E+01 -0.53710982073E+02  0.29919939625E+02  0.61522354170E+02  0.51100000000E-03 0.  1.
         23    2    1    0    0    0  0.55710844999E+01 -0.33040813474E+02  0.11029075062E+02  0.89724330846E+02  0.82498986125E+02 0.  0.
         11    1    3    3    0    0  0.33512466856E+01  0.20670168599E+02 -0.18890864563E+02  0.28201976677E+02  0.51100000000E-03 0. -1.
         22    1    1    0    0    0 -0.55710844999E+01  0.33040813474E+02 -0.11029075062E+02  0.35275669154E+02  0.00000000000E+00 0.  1.
</event>
<event>
 5    1  0.8902899E-005  0.9118800E+02  0.7818608E-02  0.1130116E+00
         25   -1    0    0    0    0  0.00000000000E+00  0.00000000000E+00  0.99999998245E-14  0.12500000000E+03  0.12500000000E+03 0.  0.
        -11    1    3    3    0    0 -0.26746157121E+02 -0.15859418928E+02  0.42227548147E+02  0.52440861093E+02  0.51100000000E-03 0. -1.
         23    2    1    0    0    0  0.18998160277E+01 -0.26543412170E+02  0.10816908486E+02  0.96274270422E+02  0.91888887280E+02 0.  0.
         11    1    3    3    0    0  0.28645973149E+02 -0.10683993243E+02 -0.31410639661E+02  0.43833409329E+02  0.51100000000E-03 0.  1.
         22    1    1    0    0    0 -0.18998160277E+01  0.26543412170E+02 -0.10816908486E+02  0.28725729578E+02  0.00000000000E+00 0.  1.
</event>
<event>
 5    1  0.8902899E-005  0.9118800E+02  0.7818608E-02  0.1130116E+00
         25   -1    0    0    0    0  0.00000000000E+00  0.00000000000E+00  0.99999998245E-14  0.12500000000E+03  0.12500000000E+03 0.  0.
        -11    1    3    3    0    0  0.19389846496E+02  0.18262458703E+02 -0.25165210164E+02  0.36643844611E+02  0.51100000000E-03 0. -1.
         23    2    1    0    0    0  0.64681072160E+01 -0.37036570788E+01  0.28226527324E+02  0.95805988088E+02  0.91249641216E+02 0.  0.
         11    1    3    3    0    0 -0.12921739280E+02 -0.21966115782E+02  0.53391737488E+02  0.59162143477E+02  0.51100000000E-03 0.  1.
         22    1    1    0    0    0 -0.64681072160E+01  0.37036570788E+01 -0.28226527324E+02  0.29194011912E+02  0.00000000000E+00 0.  1.
</event>
<event>
 5    1  0.8902899E-005  0.9118800E+02  0.7818608E-02  0.1130116E+00
         25   -1    0    0    0    0  0.00000000000E+00  0.00000000000E+00  0.99999998245E-14  0.12500000000E+03  0.12500000000E+03 0.  0.
        -11    1    3    3    0    0 -0.53364949805E+01  0.45288906327E+02  0.31116679700E+02  0.55206982989E+02  0.51100000000E-03 0. -1.
         23    2    1    0    0    0  0.78418817589E+01  0.29300980431E+02 -0.23594234714E+01  0.94576169819E+02  0.89549106388E+02 0.  0.
         11    1    3    3    0    0  0.13178376739E+02 -0.15987925895E+02 -0.33476103171E+02  0.39369186830E+02  0.51100000000E-03 0.  1.
         22    1    1    0    0    0 -0.78418817589E+01 -0.29300980431E+02  0.23594234714E+01  0.30423830181E+02  0.00000000000E+00 0. -1.
</event>
<event>
 5    1  0.8902899E-005  0.9118800E+02  0.7818608E-02  0.1130116E+00
         25   -1    0    0    0    0  0.00000000000E+00  0.00000000000E+00  0.99999998245E-14  0.12500000000E+03  0.12500000000E+03 0.  0.
        -11    1    3    3    0    0 -0.36274150014E+02 -0.23487379889E+02  0.35464927873E+02  0.55903775209E+02  0.51100000000E-03 0. -1.
         23    2    1    0    0    0 -0.41834688184E+01  0.17268922137E+00  0.28274828862E+02  0.96416837472E+02  0.92082622508E+02 0.  0.
         11    1    3    3    0    0  0.32090681195E+02  0.23660069110E+02 -0.71900990111E+01  0.40513062263E+02  0.51100000000E-03 0.  1.
         22    1    1    0    0    0  0.41834688184E+01 -0.17268922137E+00 -0.28274828862E+02  0.28583162528E+02  0.00000000000E+00 0. -1.
</event>
<event>
 5    1  0.8902899E-005  0.9118800E+02  0.7818608E-02  0.1130116E+00
         25   -1    0    0    0    0  0.00000000000E+00  0.00000000000E+00  0.99999998245E-14  0.12500000000E+03  0.12500000000E+03 0.  0.
        -11    1    3    3    0    0 -0.23932106799E+02 -0.37597046403E+02 -0.11130316156E+02  0.45936560299E+02  0.51100000000E-03 0. -1.
         23    2    1    0    0    0 -0.11432611489E+02  0.25496377313E+01  0.22403838833E+02  0.99718836014E+02  0.96460919566E+02 0.  0.
         11    1    3    3    0    0  0.12499495310E+02  0.40146684135E+02  0.33534154989E+02  0.53782275715E+02  0.51100000000E-03 0.  1.
         22    1    1    0    0    0  0.11432611489E+02 -0.25496377313E+01 -0.22403838833E+02  0.25281163986E+02  0.00000000000E+00 0. -1.
</event>
<event>
 5    1  0.8902899E-005  0.9118800E+02  0.7818608E-02  0.1130116E+00
         25   -1    0    0    0    0  0.00000000000E+00  0.00000000000E+00  0.99999998245E-14  0.12500000000E+03  0.12500000000E+03 0.  0.
        -11    1    3    3    0    0 -0.47260793228E+02 -0.12063881790E+02  0.33872756025E+02  0.59384201783E+02  0.51100000000E-03 0. -1.
         23    2    1    0    0    0 -0.28475300235E+02  0.16574958435E+01  0.57132199823E+01  0.95909951900E+02  0.91391946991E+02 0.  0.
         11    1    3    3    0    0  0.18785492993E+02  0.13721377634E+02 -0.28159536043E+02  0.36525750117E+02  0.51100000000E-03 0.  1.
         22    1    1    0    0    0  0.28475300235E+02 -0.16574958435E+01 -0.57132199823E+01  0.29090048100E+02  0.00000000000E+00 0. -1.
</event>
<event>
 5    1  0.8902899E-005  0.9118800E+02  0.7818608E-02  0.1130116E+00
         25   -1    0    0    0    0  0.00000000000E+00  0.00000000000E+00  0.99999998245E-14  0.12500000000E+03  0.12500000000E+03 0.  0.
        -11    1    3    3    0    0 -0.58990491192E+02  0.13663274342E+02 -0.34559181300E+01  0.60650692388E+02  0.51100000000E-03 0.  1.
         23    2    1    0    0    0 -0.28544102335E+02  0.40839509128E+01 -0.12117020560E+02  0.93722745958E+02  0.88349796206E+02 0.  0.
         11    1    3    3    0    0  0.30446388857E+02 -0.95793234291E+01 -0.86611024300E+01  0.33072053570E+02  0.51100000000E-03 0. -1.
         22    1    1    0    0    0  0.28544102335E+02 -0.40839509128E+01  0.12117020560E+02  0.31277254042E+02  0.00000000000E+00 0.  1.
</event>
<event>
 5    1  0.8902899E-005  0.9118800E+02  0.7818608E-02  0.1130116E+00
         25   -1    0    0    0    0  0.00000000000E+00  0.00000000000E+00  0.99999998245E-14  0.12500000000E+03  0.12500000000E+03 0.  0.
        -11    1    3    3    0    0  0.18499695402E+01 -0.29330249537E+02 -0.33628621026E+02  0.44660609910E+02  0.51100000000E-03 0.  1.
         23    2    1    0    0    0 -0.28052508659E+02 -0.13402818388E+02  0.20251367545E+01  0.93844262780E+02  0.88521554974E+02 0.  0.
         11    1    3    3    0    0 -0.29902478200E+02  0.15927431149E+02  0.35653757781E+02  0.49183652870E+02  0.51100000000E-03 0. -1.
         22    1    1    0    0    0  0.28052508659E+02  0.13402818388E+02 -0.20251367545E+01  0.31155737220E+02  0.00000000000E+00 0. -1.
</event>
<event>
 5    1  0.8902899E-005  0.9118800E+02  0.7818608E-02  0.1130116E+00
         25   -1    0    0    0    0  0.00000000000E+00  0.00000000000E+00  0.99999998245E-14  0.12500000000E+03  0.12500000000E+03 0.  0.
        -11    1    3    3    0    0 -0.32315572177E+02  0.28580378781E+02 -0.89382809694E+01  0.44057089365E+02  0.51100000000E-03 0.  1.
         23    2    1    0    0    0  0.39993562068E+01  0.10390552852E+02  0.25415256526E+02  0.97253041556E+02  0.93210838367E+02 0.  0.
         11    1    3    3    0    0  0.36314928383E+02 -0.18189825929E+02  0.34353537495E+02  0.53195952191E+02  0.51100000000E-03 0. -1.
         22    1    1    0    0    0 -0.39993562068E+01 -0.10390552852E+02 -0.25415256526E+02  0.27746958444E+02  0.00000000000E+00 0. -1.
</event>
<event>
 5    1  0.8902899E-005  0.9118800E+02  0.7818608E-02  0.1130116E+00
         25   -1    0    0    0    0  0.00000000000E+00  0.00000000000E+00  0.99999998245E-14  0.12500000000E+03  0.12500000000E+03 0.  0.
        -11    1    3    3    0    0  0.13867710619E+02  0.48985073487E+02  0.40346801762E+01  0.51069848901E+02  0.51100000000E-03 0.  1.
         23    2    1    0    0    0  0.28903901384E+02  0.93312567929E+01  0.77883563808E+01  0.93644516210E+02  0.88239044944E+02 0.  0.
         11    1    3    3    0    0  0.15036190766E+02 -0.39653816695E+02  0.37536762046E+01  0.42574667309E+02  0.51100000000E-03 0. -1.
         22    1    1    0    0    0 -0.28903901384E+02 -0.93312567929E+01 -0.77883563808E+01  0.31355483790E+02  0.00000000000E+00 0.  1.
</event>
<event>
 5    1  0.8902899E-005  0.9118800E+02  0.7818608E-02  0.1130116E+00
         25   -1    0    0    0    0  0.00000000000E+00  0.00000000000E+00  0.99999998245E-14  0.12500000000E+03  0.12500000000E+03 0.  0.
        -11    1    3    3    0    0  0.37963744096E+02 -0.32259838260E+02 -0.46725563557E+01  0.50037743889E+02  0.51100000000E-03 0.  1.
         23    2    1    0    0    0  0.27211359257E+02  0.11654218673E+02 -0.21889302230E+01  0.95317171614E+02  0.90577551874E+02 0.  0.
         11    1    3    3    0    0 -0.10752384839E+02  0.43914056933E+02  0.24836261327E+01  0.45279427725E+02  0.51100000000E-03 0. -1.
         22    1    1    0    0    0 -0.27211359257E+02 -0.11654218673E+02  0.21889302230E+01  0.29682828386E+02  0.00000000000E+00 0. -1.
</event>
<event>
 5    1  0.8902899E-005  0.9118800E+02  0.7818608E-02  0.1130116E+00
         25   -1    0    0    0    0  0.00000000000E+00  0.00000000000E+00  0.99999998245E-14  0.12500000000E+03  0.12500000000E+03 0.  0.
        -11    1    3    3    0    0  0.19195352850E+02  0.31091381462E+02  0.19374010195E+02  0.41358044484E+02  0.51100000000E-03 0.  1.
         23    2    1    0    0    0  0.10044292540E+02 -0.21936130823E+02  0.17487526003E+02  0.95202429398E+02  0.90419065188E+02 0.  0.
         11    1    3    3    0    0 -0.91510603106E+01 -0.53027512285E+02 -0.18864841917E+01  0.53844384914E+02  0.51100000000E-03 0. -1.
         22    1    1    0    0    0 -0.10044292540E+02  0.21936130823E+02 -0.17487526003E+02  0.29797570602E+02  0.00000000000E+00 0. -1.
</event>
<event>
 5    1  0.8902899E-005  0.9118800E+02  0.7818608E-02  0.1130116E+00
         25   -1    0    0    0    0  0.00000000000E+00  0.00000000000E+00  0.99999998245E-14  0.12500000000E+03  0.12500000000E+03 0.  0.
        -11    1    3    3    0    0  0.65818874616E+01 -0.85501040635E+01  0.29573436371E+02  0.31480369456E+02  0.51100000000E-03 0.  1.
         23    2    1    0    0    0  0.13012345656E+01  0.33315343660E+02 -0.10872770785E+02  0.89931175111E+02  0.82811797334E+02 0.  0.
         11    1    3    3    0    0 -0.52806528960E+01  0.41865447724E+02 -0.40446207156E+02  0.58450805654E+02  0.51100000000E-03 0. -1.
         22    1    1    0    0    0 -0.13012345656E+01 -0.33315343660E+02  0.10872770785E+02  0.35068824889E+02  0.00000000000E+00 0. -1.
</event>
<event>
 5    1  0.8902899E-005  0.9118800E+02  0.7818608E-02  0.1130116E+00
         25   -1    0    0    0    0  0.00000000000E+00  0.00000000000E+00  0.99999998245E-14  0.12500000000E+03  0.12500000000E+03 0.  0.
        -11    1    3    3    0    0  0.28436260596E+02 -0.29728126706E+02  0.28267090542E+02  0.49914034520E+02  0.51100000000E-03 0.  1.
         23    2    1    0    0    0 -0.59446122419E+01  0.11690724144E+01  0.28218646023E+02  0.96138310369E+02  0.91703749063E+02 0.  0.
         11    1    3    3    0    0 -0.34380872838E+02  0.30897199120E+02 -0.48444518886E-01  0.46224275848E+02  0.51100000000E-03 0. -1.
         22    1    1    0    0    0  0.59446122419E+01 -0.11690724144E+01 -0.28218646023E+02  0.28861689631E+02  0.00000000000E+00 0.  1.
</event>
<event>
 5    1  0.8902899E-005  0.9118800E+02  0.7818608E-02  0.1130116E+00
         25   -1    0    0    0    0  0.00000000000E+00  0.00000000000E+00  0.99999998245E-14  0.12500000000E+03  0.12500000000E+03 0.  0.
        -11    1    3    3    0    0 -0.13444915213E+02  0.71151291791E+01 -0.31955611116E+02  0.35391409839E+02  0.51100000000E-03 0.  1.
         23    2    1    0    0    0  0.65823137311E+01 -0.26501046711E+02  0.12801679458E+02  0.94841828176E+02  0.89919169503E+02 0.  0.
         11    1    3    3    0    0  0.20027228944E+02 -0.33616175890E+02  0.44757290574E+02  0.59450418337E+02  0.51100000000E-03 0. -1.
         22    1    1    0    0    0 -0.65823137311E+01  0.26501046711E+02 -0.12801679458E+02  0.30158171824E+02  0.00000000000E+00 0. -1.
</event>
<event>
 5    1  0.8902899E-005  0.9118800E+02  0.7818608E-02  0.1130116E+00
         25   -1    0    0    0    0  0.00000000000E+00  0.00000000000E+00  0.99999998245E-14  0.12500000000E+03  0.12500000000E+03 0.  0.
        -11    1    3    3    0    0 -0.52564117021E+02  0.25217704557E+02  0.72510819886E+01  0.58749444352E+02  0.51100000000E-03 0. -1.
         23    2    1    0    0    0 -0.16131675163E+02  0.22625039805E+02 -0.39051115595E+01  0.96939827762E+02  0.92789853651E+02 0.  0.
         11    1    3    3    0    0  0.36432441859E+02 -0.25926647522E+01 -0.11156193548E+02  0.38190383411E+02  0.51100000000E-03 0.  1.
         22    1    1    0    0    0  0.16131675163E+02 -0.22625039805E+02  0.39051115595E+01  0.28060172238E+02  0.00000000000E+00 0. -1.
</event>
<event>
 5    1  0.8902899E-005  0.9118800E+02  0.7818608E-02  0.1130116E+00
         25   -1    0    0    0    0  0.00000000000E+00  0.00000000000E+00  0.99999998245E-14  0.12500000000E+03  0.12500000000E+03 0.  0.
        -11    1    3    3    0    0 -0.42169160589E+02 -0.15313758676E+02  0.20151325795E+02  0.49181553870E+02  0.51100000000E-03 0. -1.
         23    2    1    0    0    0 -0.76302950482E+01  0.10986318761E+02  0.28616641924E+02  0.93411508465E+02  0.87908344975E+02 0.  0.
         11    1    3    3    0    0  0.34538865540E+02  0.26300077438E+02  0.84653161294E+01  0.44229954595E+02  0.51100000000E-03 0.  1.
         22    1    1    0    0    0  0.76302950482E+01 -0.10986318761E+02 -0.28616641924E+02  0.31588491535E+02  0.00000000000E+00 0.  1.
</event>
<event>
 5    1  0.8902899E-005  0.9118800E+02  0.7818608E-02  0.1130116E+00
         25   -1    0    0    0    0  0.00000000000E+00  0.00000000000E+00  0.99999998245E-14  0.12500000000E+03  0.12500000000E+03 0.  0.
        -11    1    3    3    0    0 -0.18962521016E+02 -0.43442282042E+02  0.15200293404E+02  0.49778087470E+02  0.51100000000E-03 0. -1.
         23    2    1    0    0    0 -0.30904010854E+02 -0.50487800239E+01 -0.22421009657E+01  0.93606129844E+02  0.88184649804E+02 0.  0.
         11    1    3    3    0    0 -0.11941489839E+02  0.38393502018E+02 -0.17442394370E+02  0.43828042375E+02  0.51100000000E-03 0.  1.
         22    1    1    0    0    0  0.30904010854E+02  0.50487800239E+01  0.22421009657E+01  0.31393870156E+02  0.00000000000E+00 0.  1.
</event>
<event>
 5    1  0.8902899E-005  0.9118800E+02  0.7818608E-02  0.1130116E+00
         25   -1    0    0    0    0  0.00000000000E+00  0.00000000000E+00  0.99999998245E-14  0.12500000000E+03  0.12500000000E+03 0.  0.
        -11    1    3    3    0    0  0.10809960980E+02  0.28339195762E+00  0.32120316197E+02  0.33891743540E+02  0.51100000000E-03 0.  1.
         23    2    1    0    0    0 -0.20810234917E+02 -0.94676169680E+01 -0.19327855697E+02  0.95062270390E+02  0.90225094057E+02 0.  0.
         11    1    3    3    0    0 -0.31620195896E+02 -0.97510089256E+01 -0.51448171894E+02  0.61170526850E+02  0.51100000000E-03 0. -1.
         22    1    1    0    0    0  0.20810234917E+02  0.94676169680E+01  0.19327855697E+02  0.29937729610E+02  0.00000000000E+00 0. -1.
</event>
<event>
 5    1  0.8902899E-005  0.9118800E+02  0.7818608E-02  0.1130116E+00
         25   -1    0    0    0    0  0.00000000000E+00  0.00000000000E+00  0.99999998245E-14  0.12500000000E+03  0.12500000000E+03 0.  0.
        -11    1    3    3    0    0 -0.21373956369E+02  0.19291709228E+00  0.39570297462E+02  0.44974344568E+02  0.51100000000E-03 0.  1.
         23    2    1    0    0    0 -0.24442426644E+02  0.78403652475E+01 -0.11619764693E+02  0.96823369986E+02  0.92632837031E+02 0.  0.
         11    1    3    3    0    0 -0.30684702751E+01  0.76474481552E+01 -0.51190062154E+02  0.51849025418E+02  0.51100000000E-03 0. -1.
         22    1    1    0    0    0  0.24442426644E+02 -0.78403652475E+01  0.11619764693E+02  0.28176630014E+02  0.00000000000E+00 0.  1.
</event>
<event>
 5    1  0.8902899E-005  0.9118800E+02  0.7818608E-02  0.1130116E+00
         25   -1    0    0    0    0  0.00000000000E+00  0.00000000000E+00  0.99999998245E-14  0.12500000000E+03  0.12500000000E+03 0.  0.
        -11    1    3    3    0    0  0.11583704080E+02 -0.11644985886E+02  0.59331984453E+02  0.61563562891E+02  0.51100000000E-03 0. -1.
         23    2    1    0    0    0  0.11612170000E+02 -0.10583790151E+01  0.26845053661E+02  0.95731936103E+02  0.91148143293E+02 0.  0.
         11    1    3    3    0    0  0.28465919694E-01  0.10586606871E+02 -0.32486930792E+02  0.34168373211E+02  0.51100000000E-03 0.  1.
         22    1    1    0    0    0 -0.11612170000E+02  0.10583790151E+01 -0.26845053661E+02  0.29268063897E+02  0.00000000000E+00 0. -1.
</event>
<event>
 5    1  0.8902899E-005  0.9118800E+02  0.7818608E-02  0.1130116E+00
         25   -1    0    0    0    0  0.00000000000E+00  0.00000000000E+00  0.99999998245E-14  0.12500000000E+03  0.12500000000E+03 0.  0.
        -11    1    3    3    0    0  0.69554021279E+01 -0.13636672436E+02  0.27800805098E+02  0.31736748703E+02  0.51100000000E-03 0.  1.
         23    2    1    0    0    0  0.67376300439E+01  0.15772926468E+02 -0.26466842677E+02  0.93461537303E+02  0.87979453998E+02 0.  0.
         11    1    3    3    0    0 -0.21777208390E+00  0.29409598904E+02 -0.54267647776E+02  0.61724788600E+02  0.51100000000E-03 0. -1.
         22    1    1    0    0    0 -0.67376300439E+01 -0.15772926468E+02  0.26466842677E+02  0.31538462697E+02  0.00000000000E+00 0. -1.
</event>
<event>
 5    1  0.8902899E-005  0.9118800E+02  0.7818608E-02  0.1130116E+00
         25   -1    0    0    0    0  0.00000000000E+00  0.00000000000E+00  0.99999998245E-14  0.12500000000E+03  0.12500000000E+03 0.  0.
        -11    1    3    3    0    0 -0.31416813030E+02 -0.40948059429E+02 -0.12011566894E-02  0.51611623823E+02  0.51100000000E-03 0.  1.
         23    2    1    0    0    0 -0.26176215584E+02 -0.26894277247E+00  0.14450864284E+02  0.95098594163E+02  0.90275403852E+02 0.  0.
         11    1    3    3    0    0  0.52405974465E+01  0.40679116656E+02  0.14452065440E+02  0.43486970339E+02  0.51100000000E-03 0. -1.
         22    1    1    0    0    0  0.26176215584E+02  0.26894277247E+00 -0.14450864284E+02  0.29901405837E+02  0.00000000000E+00 0.  1.
</event>
<event>
 5    1  0.8902899E-005  0.9118800E+02  0.7818608E-02  0.1130116E+00
         25   -1    0    0    0    0  0.00000000000E+00  0.00000000000E+00  0.99999998245E-14  0.12500000000E+03  0.12500000000E+03 0.  0.
        -11    1    3    3    0    0  0.12111635858E+02  0.31246401408E+02 -0.16920627428E+02  0.37541136862E+02  0.51100000000E-03 0. -1.
         23    2    1    0    0    0 -0.20218682715E+02  0.16797091632E+01  0.21229600017E+02  0.95634842577E+02  0.91014892431E+02 0.  0.
         11    1    3    3    0    0 -0.32330318573E+02 -0.29566692245E+02  0.38150227444E+02  0.58093705715E+02  0.51100000000E-03 0.  1.
         22    1    1    0    0    0  0.20218682715E+02 -0.16797091632E+01 -0.21229600017E+02  0.29365157423E+02  0.00000000000E+00 0.  1.
</event>
<event>
 5    1  0.8902899E-005  0.9118800E+02  0.7818608E-02  0.1130116E+00
         25   -1    0    0    0    0  0.00000000000E+00  0.00000000000E+00  0.99999998245E-14  0.12500000000E+03  0.12500000000E+03 0.  0.
        -11    1    3    3    0    0  0.31718095157E+02  0.74333579242E+01 -0.75907867540E+01  0.33450148194E+02  0.51100000000E-03 0. -1.
         23    2    1    0    0    0 -0.28469644271E+02 -0.63055093721E+01  0.12381372654E+01  0.95814163071E+02  0.91260839180E+02 0.  0.
         11    1    3    3    0    0 -0.60187739428E+02 -0.13738867296E+02  0.88289240194E+01  0.62364014877E+02  0.51100000000E-03 0.  1.
         22    1    1    0    0    0  0.28469644271E+02  0.63055093721E+01 -0.12381372654E+01  0.29185836929E+02  0.00000000000E+00 0.  1.
</event>
<event>
 5    1  0.8902899E-005  0.9118800E+02  0.7818608E-02  0.1130116E+00
         25   -1    0    0    0    0  0.00000000000E+00  0.00000000000E+00  0.99999998245E-14  0.12500000000E+03  0.12500000000E+03 0.  0.
        -11    1    3    3    0    0 -0.17037541280E+02 -0.50161083346E+02 -0.10795936759E+02  0.54064446229E+02  0.51100000000E-03 0.  1.
         23    2    1    0    0    0  0.12034360265E+02 -0.26847196868E+02  0.60544249110E+01  0.94962459027E+02  0.90086706882E+02 0.  0.
         11    1    3    3    0    0  0.29071901545E+02  0.23313886478E+02  0.16850361671E+02  0.40898012798E+02  0.51100000000E-03 0. -1.
         22    1    1    0    0    0 -0.12034360265E+02  0.26847196868E+02 -0.60544249110E+01  0.30037540973E+02  0.00000000000E+00 0.  1.
</event>
<event>
 5    1  0.8902899E-005  0.9118800E+02  0.7818608E-02  0.1130116E+00
         25   -1    0    0    0    0  0.00000000000E+00  0.00000000000E+00  0.99999998245E-14  0.12500000000E+03  0.12500000000E+03 0.  0.
        -11    1    3    3    0    0  0.59055230852E+02 -0.16153606230E+02  0.17895238706E+01  0.61250809637E+02  0.51100000000E-03 0.  1.
         23    2    1    0    0    0  0.27747046469E+02 -0.22788329120E+01  0.79528652885E+01  0.96045902993E+02  0.91577703335E+02 0.  0.
         11    1    3    3    0    0 -0.31308184383E+02  0.13874773318E+02  0.61633414179E+01  0.34795093356E+02  0.51100000000E-03 0. -1.
         22    1    1    0    0    0 -0.27747046469E+02  0.22788329120E+01 -0.79528652885E+01  0.28954097007E+02  0.00000000000E+00 0.  1.
</event>
<event>
 5    1  0.8902899E-005  0.9118800E+02  0.7818608E-02  0.1130116E+00
         25   -1    0    0    0    0  0.00000000000E+00  0.00000000000E+00  0.99999998245E-14  0.12500000000E+03  0.12500000000E+03 0.  0.
        -11    1    3    3    0    0 -0.79892472878E+01 -0.25963555106E+02  0.18993083453E+02  0.33146213739E+02  0.51100000000E-03 0.  1.
         23    2    1    0    0    0  0.10394932127E+02  0.27656610412E+02 -0.55877401216E+01  0.94930654263E+02  0.90042565299E+02 0.  0.
         11    1    3    3    0    0  0.18384179415E+02  0.53620165518E+02 -0.24580823575E+02  0.61784440523E+02  0.51100000000E-03 0. -1.
         22    1    1    0    0    0 -0.10394932127E+02 -0.27656610412E+02  0.55877401216E+01  0.30069345737E+02  0.00000000000E+00 0. -1.
</event>
<event>
 5    1  0.8902899E-005  0.9118800E+02  0.7818608E-02  0.1130116E+00
         25   -1    0    0    0    0  0.00000000000E+00  0.00000000000E+00  0.99999998245E-14  0.12500000000E+03  0.12500000000E+03 0.  0.
        -11    1    3    3    0    0 -0.20504848743E+02  0.12578488664E+02 -0.29122846697E+02  0.37773104175E+02  0.51100000000E-03 0. -1.
         23    2    1    0    0    0 -0.82715126097E+01 -0.54527444149E+01  0.26069810093E+02  0.97111196856E+02  0.93020423639E+02 0.  0.
         11    1    3    3    0    0  0.12233336134E+02 -0.18031233079E+02  0.55192656790E+02  0.59338092681E+02  0.51100000000E-03 0.  1.
         22    1    1    0    0    0  0.82715126097E+01  0.54527444149E+01 -0.26069810093E+02  0.27888803144E+02  0.00000000000E+00 0.  1.
</event>
<event>
 5    1  0.8902899E-005  0.9118800E+02  0.7818608E-02  0.1130116E+00
         25   -1    0    0    0    0  0.00000000000E+00  0.00000000000E+00  0.99999998245E-14  0.12500000000E+03  0.12500000000E+03 0.  0.
        -11    1    3    3    0    0  0.13810602717E+02 -0.10420889152E+01  0.31889608911E+02  0.34767310127E+02  0.51100000000E-03 0.  1.
         23    2    1    0    0    0 -0.99999318182E+01  0.98106831838E+01 -0.24412768233E+02  0.96853394633E+02  0.92673343839E+02 0.  0.
         11    1    3    3    0    0 -0.23810534535E+02  0.10852772099E+02 -0.56302377143E+02  0.62086084506E+02  0.51100000000E-03 0. -1.
         22    1    1    0    0    0  0.99999318182E+01 -0.98106831838E+01  0.24412768233E+02  0.28146605367E+02  0.00000000000E+00 0. -1.
</event>
<event>
 5    1  0.8902899E-005  0.9118800E+02  0.7818608E-02  0.1130116E+00
         25   -1    0    0    0    0  0.00000000000E+00  0.00000000000E+00  0.99999998245E-14  0.12500000000E+03  0.12500000000E+03 0.  0.
        -11    1    3    3    0    0  0.13876910897E+02  0.31500751572E+02  0.20473039653E+02  0.40050110594E+02  0.51100000000E-03 0. -1.
         23    2    1    0    0    0  0.18019001135E+02 -0.14612128587E+01 -0.23618930421E+02  0.95256539893E+02  0.90493839421E+02 0.  0.
         11    1    3    3    0    0  0.41420902387E+01 -0.32961964431E+02 -0.44091970074E+02  0.55206429299E+02  0.51100000000E-03 0.  1.
         22    1    1    0    0    0 -0.18019001135E+02  0.14612128587E+01  0.23618930421E+02  0.29743460107E+02  0.00000000000E+00 0.  1.
</event>
<event>
 5    1  0.8902899E-005  0.9118800E+02  0.7818608E-02  0.1130116E+00
         25   -1    0    0    0    0  0.00000000000E+00  0.00000000000E+00  0.99999998245E-14  0.12500000000E+03  0.12500000000E+03 0.  0.
        -11    1    3    3    0    0 -0.15363930713E+02 -0.50781287259E+02  0.26363977719E+02  0.59243977112E+02  0.51100000000E-03 0. -1.
         23    2    1    0    0    0  0.58537448007E+01 -0.22864505265E+02  0.18066568437E+02  0.95277065685E+02  0.90522187454E+02 0.  0.
         11    1    3    3    0    0  0.21217675514E+02  0.27916781994E+02 -0.82974092825E+01  0.36033088574E+02  0.51100000000E-03 0.  1.
         22    1    1    0    0    0 -0.58537448007E+01  0.22864505265E+02 -0.18066568437E+02  0.29722934315E+02  0.00000000000E+00 0. -1.
</event>
<event>
 5    1  0.8902899E-005  0.9118800E+02  0.7818608E-02  0.1130116E+00
         25   -1    0    0    0    0  0.00000000000E+00  0.00000000000E+00  0.99999998245E-14  0.12500000000E+03  0.12500000000E+03 0.  0.
        -11    1    3    3    0    0 -0.11664643419E+02 -0.59606354351E+01 -0.50156904138E+02  0.51839252636E+02  0.51100000000E-03 0. -1.
         23    2    1    0    0    0  0.12084070975E+02  0.16322483700E+02 -0.23630907671E+02  0.93841244524E+02  0.88517292836E+02 0.  0.
         11    1    3    3    0    0  0.23748714394E+02  0.22283119135E+02  0.26525996467E+02  0.42001991888E+02  0.51100000000E-03 0.  1.
         22    1    1    0    0    0 -0.12084070975E+02 -0.16322483700E+02  0.23630907671E+02  0.31158755476E+02  0.00000000000E+00 0. -1.
</event>
<event>
 5    1  0.8902899E-005  0.9118800E+02  0.7818608E-02  0.1130116E+00
         25   -1    0    0    0    0  0.00000000000E+00  0.00000000000E+00  0.99999998245E-14  0.12500000000E+03  0.12500000000E+03 0.  0.
        -11    1    3    3    0    0  0.11984273273E+02  0.33451729339E+02  0.51248244921E+02  0.62362036604E+02  0.51100000000E-03 0. -1.
         23    2    1    0    0    0  0.79890547157E+01  0.15113537928E+02  0.21565411466E+02  0.97480715932E+02  0.93515661699E+02 0.  0.
         11    1    3    3    0    0 -0.39952185568E+01 -0.18338191410E+02 -0.29682833456E+02  0.35118679328E+02  0.51100000000E-03 0.  1.
         22    1    1    0    0    0 -0.79890547157E+01 -0.15113537928E+02 -0.21565411466E+02  0.27519284068E+02  0.00000000000E+00 0. -1.
</event>
<event>
 5    1  0.8902899E-005  0.9118800E+02  0.7818608E-02  0.1130116E+00
         25   -1    0    0    0    0  0.00000000000E+00  0.00000000000E+00  0.99999998245E-14  0.12500000000E+03  0.12500000000E+03 0.  0.
        -11    1    3    3    0    0  0.11010779538E+02 -0.27455125629E+02 -0.32232276585E+02  0.43748609617E+02  0.51100000000E-03 0. -1.
         23    2    1    0    0    0 -0.24973721605E+02  0.56514654663E+01 -0.12901415375E+02  0.96328195882E+02  0.91962214906E+02 0.  0.
         11    1    3    3    0    0 -0.35984501143E+02  0.33106591095E+02  0.19330861210E+02  0.52579586265E+02  0.51100000000E-03 0.  1.
         22    1    1    0    0    0  0.24973721605E+02 -0.56514654663E+01  0.12901415375E+02  0.28671804118E+02  0.00000000000E+00 0.  1.
</event>
<event>
 5    1  0.8902899E-005  0.9118800E+02  0.7818608E-02  0.1130116E+00
         25   -1    0    0    0    0  0.00000000000E+00  0.00000000000E+00  0.99999998245E-14  0.12500000000E+03  0.12500000000E+03 0.  0.
        -11    1    3    3    0    0 -0.49474731257E+02  0.18467905026E+02  0.20549885010E+02  0.56666659714E+02  0.51100000000E-03 0. -1.
         23    2    1    0    0    0 -0.31732795146E+02 -0.15434361489E+01 -0.40111694696E+01  0.92977477247E+02  0.87288998802E+02 0.  0.
         11    1    3    3    0    0  0.17741936110E+02 -0.20011341175E+02 -0.24561054479E+02  0.36310817533E+02  0.51100000000E-03 0.  1.
         22    1    1    0    0    0  0.31732795146E+02  0.15434361489E+01  0.40111694696E+01  0.32022522753E+02  0.00000000000E+00 0. -1.
</event>
<event>
 5    1  0.8902899E-005  0.9118800E+02  0.7818608E-02  0.1130116E+00
         25   -1    0    0    0    0  0.00000000000E+00  0.00000000000E+00  0.99999998245E-14  0.12500000000E+03  0.12500000000E+03 0.  0.
        -11    1    3    3    0    0 -0.38173636907E+02 -0.16357730363E+02 -0.26596524744E+02  0.49317106830E+02  0.51100000000E-03 0. -1.
         23    2    1    0    0    0 -0.57538789463E+01  0.18088410574E+02 -0.20582839549E+02  0.97000874944E+02  0.92872055732E+02 0.  0.
         11    1    3    3    0    0  0.32419757961E+02  0.34446140937E+02  0.60136851954E+01  0.47683768114E+02  0.51100000000E-03 0.  1.
         22    1    1    0    0    0  0.57538789463E+01 -0.18088410574E+02  0.20582839549E+02  0.27999125056E+02  0.00000000000E+00 0. -1.
</event>
<event>
 5    1  0.8902899E-005  0.9118800E+02  0.7818608E-02  0.1130116E+00
         25   -1    0    0    0    0  0.00000000000E+00  0.00000000000E+00  0.99999998245E-14  0.12500000000E+03  0.12500000000E+03 0.  0.
        -11    1    3    3    0    0 -0.80322372280E+01 -0.22005826037E+01 -0.25292756659E+02  0.26628611274E+02  0.51100000000E-03 0.  1.
         23    2    1    0    0    0  0.48547923830E+01  0.17327627341E+02  0.31873502525E+02  0.88397597871E+02  0.80463653085E+02 0.  0.
         11    1    3    3    0    0  0.12887029611E+02  0.19528209945E+02  0.57166259185E+02  0.61768986597E+02  0.51100000000E-03 0. -1.
         22    1    1    0    0    0 -0.48547923830E+01 -0.17327627341E+02 -0.31873502525E+02  0.36602402129E+02  0.00000000000E+00 0. -1.
</event>
<event>
 5    1  0.8902899E-005  0.9118800E+02  0.7818608E-02  0.1130116E+00
         25   -1    0    0    0    0  0.00000000000E+00  0.00000000000E+00  0.99999998245E-14  0.12500000000E+03  0.12500000000E+03 0.  0.
        -11    1    3    3    0    0  0.21911072989E+02 -0.25038627039E+01 -0.36421352900E+02  0.42577921453E+02  0.51100000000E-03 0. -1.
         23    2    1    0    0    0  0.20816975917E+02  0.15283032618E+02  0.13695241958E+02  0.95768557603E+02  0.91198351963E+02 0.  0.
         11    1    3    3    0    0 -0.10940970720E+01  0.17786895322E+02  0.50116594858E+02  0.53190636150E+02  0.51100000000E-03 0.  1.
         22    1    1    0    0    0 -0.20816975917E+02 -0.15283032618E+02 -0.13695241958E+02  0.29231442397E+02  0.00000000000E+00 0.  1.
</event>
<event>
 5    1  0.8902899E-005  0.9118800E+02  0.7818608E-02  0.1130116E+00
         25   -1    0    0    0    0  0.00000000000E+00  0.00000000000E+00  0.99999998245E-14  0.12500000000E+03  0.12500000000E+03 0.  0.
        -11    1    3    3    0    0  0.35538432887E+02  0.33237383111E+02  0.22887670150E+02  0.53773127985E+02  0.51100000000E-03 0. -1.
         23    2    1    0    0    0  0.31808157168E+01  0.26597109519E+02 -0.58795842987E+01  0.97575679864E+02  0.93642511532E+02 0.  0.
         11    1    3    3    0    0 -0.32357617171E+02 -0.66402735923E+01 -0.28767254448E+02  0.43802551879E+02  0.51100000000E-03 0.  1.
         22    1    1    0    0    0 -0.31808157168E+01 -0.26597109519E+02  0.58795842987E+01  0.27424320136E+02  0.00000000000E+00 0.  1.
</event>
<event>
 5    1  0.8902899E-005  0.9118800E+02  0.7818608E-02  0.1130116E+00
         25   -1    0    0    0    0  0.00000000000E+00  0.00000000000E+00  0.99999998245E-14  0.12500000000E+03  0.12500000000E+03 0.  0.
        -11    1    3    3    0    0  0.45873196928E+02  0.24435243911E+02 -0.15644247089E+02  0.54278668080E+02  0.51100000000E-03 0.  1.
         23    2    1    0    0    0  0.63768938673E+01  0.28188811658E+02 -0.28796417222E+01  0.95955788623E+02  0.91454618012E+02 0.  0.
         11    1    3    3    0    0 -0.39496303060E+02  0.37535677472E+01  0.12764605366E+02  0.41677120542E+02  0.51100000000E-03 0. -1.
         22    1    1    0    0    0 -0.63768938673E+01 -0.28188811658E+02  0.28796417222E+01  0.29044211377E+02  0.00000000000E+00 0.  1.
</event>
<event>
 5    1  0.8902899E-005  0.9118800E+02  0.7818608E-02  0.1130116E+00
         25   -1    0    0    0    0  0.00000000000E+00  0.00000000000E+00  0.99999998245E-14  0.12500000000E+03  0.12500000000E+03 0.  0.
        -11    1    3    3    0    0  0.44049570281E+01 -0.34540065141E+01 -0.33462948222E+02  0.33927904612E+02  0.51100000000E-03 0. -1.
         23    2    1    0    0    0 -0.14451667237E+02  0.66318152978E+01  0.24546511109E+02  0.95753412717E+02  0.91177591432E+02 0.  0.
         11    1    3    3    0    0 -0.18856624265E+02  0.10085821812E+02  0.58009459331E+02  0.61825508105E+02  0.51100000000E-03 0.  1.
         22    1    1    0    0    0  0.14451667237E+02 -0.66318152978E+01 -0.24546511109E+02  0.29246587283E+02  0.00000000000E+00 0.  1.
</event>
<event>
 5    1  0.8902899E-005  0.9118800E+02  0.7818608E-02  0.1130116E+00
         25   -1    0    0    0    0  0.00000000000E+00  0.00000000000E+00  0.99999998245E-14  0.12500000000E+03  0.12500000000E+03 0.  0.
        -11    1    3    3    0    0 -0.14667007152E+02  0.39539183994E+02 -0.25759872219E+02  0.49416992894E+02  0.51100000000E-03 0.  1.
         23    2    1    0    0    0  0.92629303170E+00 -0.27527389315E+01 -0.30154693370E+02  0.94705757599E+02  0.89729813328E+02 0.  0.
         11    1    3    3    0    0  0.15593300183E+02 -0.42291922925E+02 -0.43948211503E+01  0.45288764705E+02  0.51100000000E-03 0. -1.
         22    1    1    0    0    0 -0.92629303170E+00  0.27527389315E+01  0.30154693370E+02  0.30294242401E+02  0.00000000000E+00 0.  1.
</event>
<event>
 5    1  0.8902899E-005  0.9118800E+02  0.7818608E-02  0.1130116E+00
         25   -1    0    0    0    0  0.00000000000E+00  0.00000000000E+00  0.99999998245E-14  0.12500000000E+03  0.12500000000E+03 0.  0.
        -11    1    3    3    0    0 -0.28071617086E+02  0.18407569180E+02 -0.17052355504E+02  0.37651522114E+02  0.51100000000E-03 0. -1.
         23    2    1    0    0    0  0.12934690161E+02 -0.23550925567E+02 -0.31344803682E+01  0.97948617932E+02  0.94139016794E+02 0.  0.
         11    1    3    3    0    0  0.41006307247E+02 -0.41958494748E+02  0.13917875136E+02  0.60297095818E+02  0.51100000000E-03 0.  1.
         22    1    1    0    0    0 -0.12934690161E+02  0.23550925567E+02  0.31344803682E+01  0.27051382068E+02  0.00000000000E+00 0.  1.
</event>
<event>
 5    1  0.8902899E-005  0.9118800E+02  0.7818608E-02  0.1130116E+00
         25   -1    0    0    0    0  0.00000000000E+00  0.00000000000E+00  0.99999998245E-14  0.12500000000E+03  0.12500000000E+03 0.  0.
        -11    1    3    3    0    0 -0.20430279706E+02 -0.37265288185E+01  0.50377975527E+02  0.54490584181E+02  0.51100000000E-03 0.  1.
         23    2    1    0    0    0  0.93267241591E+01  0.10894944259E+02  0.24745964350E+02  0.96398420576E+02  0.92057618609E+02 0.  0.
         11    1    3    3    0    0  0.29757003866E+02  0.14621473078E+02 -0.25632011177E+02  0.41907836394E+02  0.51100000000E-03 0. -1.
         22    1    1    0    0    0 -0.93267241591E+01 -0.10894944259E+02 -0.24745964350E+02  0.28601579424E+02  0.00000000000E+00 0.  1.
</event>
<event>
 5    1  0.8902899E-005  0.9118800E+02  0.7818608E-02  0.1130116E+00
         25   -1    0    0    0    0  0.00000000000E+00  0.00000000000E+00  0.99999998245E-14  0.12500000000E+03  0.12500000000E+03 0.  0.
        -11    1    3    3    0    0  0.62138079859E+01 -0.36926343127E+02 -0.30366395141E+02  0.48210830531E+02  0.51100000000E-03 0. -1.
         23    2    1    0    0    0 -0.46849582852E+01 -0.29155084773E+02  0.12362645045E+02  0.92987458790E+02  0.87303291447E+02 0.  0.
         11    1    3    3    0    0 -0.10898766271E+02  0.77712583541E+01  0.42729040187E+02  0.44776628258E+02  0.51100000000E-03 0.  1.
         22    1    1    0    0    0  0.46849582852E+01  0.29155084773E+02 -0.12362645045E+02  0.32012541210E+02  0.00000000000E+00 0. -1.
</event>
<event>
 5    1  0.8902899E-005  0.9118800E+02  0.7818608E-02  0.1130116E+00
         25   -1    0    0    0    0  0.00000000000E+00  0.00000000000E+00  0.99999998245E-14  0.12500000000E+03  0.12500000000E+03 0.  0.
        -11    1    3    3    0    0 -0.42681377903E+02 -0.22842149012E+02 -0.12553630810E+01  0.48425610249E+02  0.51100000000E-03 0.  1.
         23    2    1    0    0    0  0.34624393963E+01 -0.29070177054E+02  0.46377564407E+01  0.95359276910E+02  0.90635639940E+02 0.  0.
         11    1    3    3    0    0  0.46143817300E+02 -0.62280280416E+01  0.58931195216E+01  0.46933666661E+02  0.51100000000E-03 0. -1.
         22    1    1    0    0    0 -0.34624393963E+01  0.29070177054E+02 -0.46377564407E+01  0.29640723090E+02  0.00000000000E+00 0.  1.
</event>
<event>
 5    1  0.8902899E-005  0.9118800E+02  0.7818608E-02  0.1130116E+00
         25   -1    0    0    0    0  0.00000000000E+00  0.00000000000E+00  0.99999998245E-14  0.12500000000E+03  0.12500000000E+03 0.  0.
        -11    1    3    3    0    0  0.14014353435E+02  0.26988677695E+02 -0.65328929712E+01  0.31104172015E+02  0.51100000000E-03 0. -1.
         23    2    1    0    0    0  0.46347938591E+01  0.43945266637E+01  0.40436282128E+02  0.84062412247E+02  0.73420726377E+02 0.  0.
         11    1    3    3    0    0 -0.93795595755E+01 -0.22594151032E+02  0.46969175099E+02  0.52958240232E+02  0.51100000000E-03 0.  1.
         22    1    1    0    0    0 -0.46347938591E+01 -0.43945266637E+01 -0.40436282128E+02  0.40937587753E+02  0.00000000000E+00 0.  1.
</event>
<event>
 5    1  0.8902899E-005  0.9118800E+02  0.7818608E-02  0.1130116E+00
         25   -1    0    0    0    0  0.00000000000E+00  0.00000000000E+00  0.99999998245E-14  0.12500000000E+03  0.12500000000E+03 0.  0.
        -11    1    3    3    0    0  0.46974803967E+02  0.26037294857E+01  0.44949120678E+01  0.47261145243E+02  0.51100000000E-03 0.  1.
         23    2    1    0    0    0  0.27063851123E+01  0.22003928495E+02  0.16856486120E+02  0.97149712499E+02  0.93072166219E+02 0.  0.
         11    1    3    3    0    0 -0.44268418854E+02  0.19400199010E+02  0.12361574052E+02  0.49888567255E+02  0.51100000000E-03 0. -1.
         22    1    1    0    0    0 -0.27063851123E+01 -0.22003928495E+02 -0.16856486120E+02  0.27850287501E+02  0.00000000000E+00 0.  1.
</event>
<event>
 5    1  0.8902899E-005  0.9118800E+02  0.7818608E-02  0.1130116E+00
         25   -1    0    0    0    0  0.00000000000E+00  0.00000000000E+00  0.99999998245E-14  0.12500000000E+03  0.12500000000E+03 0.  0.
        -11    1    3    3    0    0 -0.21257705357E+02 -0.37008677370E+02  0.17922658210E+02  0.46289889990E+02  0.51100000000E-03 0.  1.
         23    2    1    0    0    0  0.22703797725E+02 -0.16774648234E+02  0.74569412538E+01  0.95803129836E+02  0.91245725702E+02 0.  0.
         11    1    3    3    0    0  0.43961503082E+02  0.20234029136E+02 -0.10465716956E+02  0.49513239846E+02  0.51100000000E-03 0. -1.
         22    1    1    0    0    0 -0.22703797725E+02  0.16774648234E+02 -0.74569412538E+01  0.29196870164E+02  0.00000000000E+00 0.  1.
</event>
<event>
 5    1  0.8902899E-005  0.9118800E+02  0.7818608E-02  0.1130116E+00
         25   -1    0    0    0    0  0.00000000000E+00  0.00000000000E+00  0.99999998245E-14  0.12500000000E+03  0.12500000000E+03 0.  0.
        -11    1    3    3    0    0 -0.10352302559E+02 -0.37290233451E+02  0.32519657506E+02  0.50549577680E+02  0.51100000000E-03 0.  1.
         23    2    1    0    0    0 -0.25007554737E+02  0.15561300701E+01  0.16213938980E+02  0.95155550734E+02  0.90354234453E+02 0.  0.
         11    1    3    3    0    0 -0.14655252178E+02  0.38846363521E+02 -0.16305718525E+02  0.44605973054E+02  0.51100000000E-03 0. -1.
         22    1    1    0    0    0  0.25007554737E+02 -0.15561300701E+01 -0.16213938980E+02  0.29844449266E+02  0.00000000000E+00 0. -1.
</event>
<event>
 5    1  0.8902899E-005  0.9118800E+02  0.7818608E-02  0.1130116E+00
         25   -1    0    0    0    0  0.00000000000E+00  0.00000000000E+00  0.99999998245E-14  0.12500000000E+03  0.12500000000E+03 0.  0.
        -11    1    3    3    0    0 -0.39684140268E+02  0.22546442746E+02 -0.21246147160E+02  0.50344531368E+02  0.51100000000E-03 0.  1.
         23    2    1    0    0    0 -0.91153466442E+01 -0.69333182004E+01 -0.29275021452E+02  0.93564553022E+02  0.88125695773E+02 0.  0.
         11    1    3    3    0    0  0.30568793624E+02 -0.29479760946E+02 -0.80288742920E+01  0.43220021653E+02  0.51100000000E-03 0. -1.
         22    1    1    0    0    0  0.91153466442E+01  0.69333182004E+01  0.29275021452E+02  0.31435446978E+02  0.00000000000E+00 0. -1.
</event>
<event>
 5    1  0.8902899E-005  0.9118800E+02  0.7818608E-02  0.1130116E+00
         25   -1    0    0    0    0  0.00000000000E+00  0.00000000000E+00  0.99999998245E-14  0.12500000000E+03  0.12500000000E+03 0.  0.
        -11    1    3    3    0    0  0.10336223746E+01 -0.33018801839E+02 -0.10794847677E+01  0.33052608637E+02  0.51100000000E-03 0.  1.
         23    2    1    0    0    0  0.45705773916E+01  0.28197192100E+02 -0.93893562050E+01  0.94931215023E+02  0.90043343762E+02 0.  0.
         11    1    3    3    0    0  0.35369550170E+01  0.61215993939E+02 -0.83098714374E+01  0.61878606386E+02  0.51100000000E-03 0. -1.
         22    1    1    0    0    0 -0.45705773916E+01 -0.28197192100E+02  0.93893562050E+01  0.30068784977E+02  0.00000000000E+00 0. -1.
</event>
<event>
 5    1  0.8902899E-005  0.9118800E+02  0.7818608E-02  0.1130116E+00
         25   -1    0    0    0    0  0.00000000000E+00  0.00000000000E+00  0.99999998245E-14  0.12500000000E+03  0.12500000000E+03 0.  0.
        -11    1    3    3    0    0  0.27963332046E+02  0.38275581878E+02 -0.16265923386E+02  0.50115350653E+02  0.51100000000E-03 0. -1.
         23    2    1    0    0    0  0.15574461370E+02  0.15954458472E+02  0.20390977815E+02  0.94785755539E+02  0.89841187018E+02 0.  0.
         11    1    3    3    0    0 -0.12388870677E+02 -0.22321123406E+02  0.36656901201E+02  0.44670404886E+02  0.51100000000E-03 0.  1.
         22    1    1    0    0    0 -0.15574461370E+02 -0.15954458472E+02 -0.20390977815E+02  0.30214244461E+02  0.00000000000E+00 0. -1.
</event>
<event>
 5    1  0.8902899E-005  0.9118800E+02  0.7818608E-02  0.1130116E+00
         25   -1    0    0    0    0  0.00000000000E+00  0.00000000000E+00  0.99999998245E-14  0.12500000000E+03  0.12500000000E+03 0.  0.
        -11    1    3    3    0    0 -0.69036833349E+01 -0.14118017784E+02  0.26242954240E+02  0.30588754752E+02  0.51100000000E-03 0. -1.
         23    2    1    0    0    0  0.49080528614E+01  0.36231163603E+02  0.21650699867E+02  0.82508365486E+02  0.70725464802E+02 0.  0.
         11    1    3    3    0    0  0.11811736196E+02  0.50349181387E+02 -0.45922543731E+01  0.51919610735E+02  0.51100000000E-03 0.  1.
         22    1    1    0    0    0 -0.49080528614E+01 -0.36231163603E+02 -0.21650699867E+02  0.42491634514E+02  0.00000000000E+00 0.  1.
</event>
<event>
 5    1  0.8902899E-005  0.9118800E+02  0.7818608E-02  0.1130116E+00
         25   -1    0    0    0    0  0.00000000000E+00  0.00000000000E+00  0.99999998245E-14  0.12500000000E+03  0.12500000000E+03 0.  0.
        -11    1    3    3    0    0  0.88539789051E+01 -0.39142241624E+02  0.26351349229E+02  0.48009391042E+02  0.51100000000E-03 0.  1.
         23    2    1    0    0    0 -0.25891136816E+02 -0.15871761154E+02  0.13572656888E+02  0.91736194103E+02  0.85492973546E+02 0.  0.
         11    1    3    3    0    0 -0.34745115721E+02  0.23270480469E+02 -0.12778692341E+02  0.43726803061E+02  0.51100000000E-03 0. -1.
         22    1    1    0    0    0  0.25891136816E+02  0.15871761154E+02 -0.13572656888E+02  0.33263805897E+02  0.00000000000E+00 0. -1.
</event>
<event>
 5    1  0.8902899E-005  0.9118800E+02  0.7818608E-02  0.1130116E+00
         25   -1    0    0    0    0  0.00000000000E+00  0.00000000000E+00  0.99999998245E-14  0.12500000000E+03  0.12500000000E+03 0.  0.
        -11    1    3    3    0    0  0.11153859080E+02 -0.25308649784E+00 -0.48122424982E+02  0.49398789576E+02  0.51100000000E-03 0.  1.
         23    2    1    0    0    0 -0.12683235545E+02 -0.22418046153E+02 -0.21420765047E+02  0.91499515938E+02  0.85146221199E+02 0.  0.
         11    1    3    3    0    0 -0.23837094624E+02 -0.22164959655E+02  0.26701659935E+02  0.42100726362E+02  0.51100000000E-03 0. -1.
         22    1    1    0    0    0  0.12683235545E+02  0.22418046153E+02  0.21420765047E+02  0.33500484062E+02  0.00000000000E+00 0.  1.
</event>
<event>
 5    1  0.8902899E-005  0.9118800E+02  0.7818608E-02  0.1130116E+00
         25   -1    0    0    0    0  0.00000000000E+00  0.00000000000E+00  0.99999998245E-14  0.12500000000E+03  0.12500000000E+03 0.  0.
        -11    1    3    3    0    0  0.31198604824E+02 -0.45588775900E+01 -0.31416674209E+02  0.44510040738E+02  0.51100000000E-03 0. -1.
         23    2    1    0    0    0 -0.17505711805E+02 -0.12104951160E+02 -0.21429710666E+02  0.94797147691E+02  0.89857036022E+02 0.  0.
         11    1    3    3    0    0 -0.48704316629E+02 -0.75460735705E+01  0.99869635429E+01  0.50287106953E+02  0.51100000000E-03 0.  1.
         22    1    1    0    0    0  0.17505711805E+02  0.12104951160E+02  0.21429710666E+02  0.30202852309E+02  0.00000000000E+00 0.  1.
</event>
<event>
 5    1  0.8902899E-005  0.9118800E+02  0.7818608E-02  0.1130116E+00
         25   -1    0    0    0    0  0.00000000000E+00  0.00000000000E+00  0.99999998245E-14  0.12500000000E+03  0.12500000000E+03 0.  0.
        -11    1    3    3    0    0  0.28118020627E+02  0.36646025497E+02  0.43244309316E+01  0.46392402091E+02  0.51100000000E-03 0.  1.
         23    2    1    0    0    0  0.17751721887E+02 -0.21358625396E+01 -0.23672163170E+02  0.95334247896E+02  0.90601114640E+02 0.  0.
         11    1    3    3    0    0 -0.10366298739E+02 -0.38781888036E+02 -0.27996594102E+02  0.48941845805E+02  0.51100000000E-03 0. -1.
         22    1    1    0    0    0 -0.17751721887E+02  0.21358625396E+01  0.23672163170E+02  0.29665752104E+02  0.00000000000E+00 0.  1.
</event>
<event>
 5    1  0.8902899E-005  0.9118800E+02  0.7818608E-02  0.1130116E+00
         25   -1    0    0    0    0  0.00000000000E+00  0.00000000000E+00  0.99999998245E-14  0.12500000000E+03  0.12500000000E+03 0.  0.
        -11    1    3    3    0    0 -0.16357344442E+02 -0.38303547358E+02 -0.31645584025E+01  0.41770071673E+02  0.51100000000E-03 0.  1.
         23    2    1    0    0    0 -0.25583793426E+02  0.10198574977E+02  0.14081420698E+02  0.94067366319E+02  0.88836037618E+02 0.  0.
         11    1    3    3    0    0 -0.92264489835E+01  0.48502122335E+02  0.17245979100E+02  0.52297294645E+02  0.51100000000E-03 0. -1.
         22    1    1    0    0    0  0.25583793426E+02 -0.10198574977E+02 -0.14081420698E+02  0.30932633681E+02  0.00000000000E+00 0. -1.
</event>
<event>
 5    1  0.8902899E-005  0.9118800E+02  0.7818608E-02  0.1130116E+00
         25   -1    0    0    0    0  0.00000000000E+00  0.00000000000E+00  0.99999998245E-14  0.12500000000E+03  0.12500000000E+03 0.  0.
        -11    1    3    3    0    0  0.25000976565E+02  0.42008107719E+02  0.34160152993E+02  0.59637622321E+02  0.51100000000E-03 0.  1.
         23    2    1    0    0    0 -0.56281688563E+00  0.21605635154E+02  0.20912153152E+02  0.94926117931E+02  0.90036267597E+02 0.  0.
         11    1    3    3    0    0 -0.25563793451E+02 -0.20402472565E+02 -0.13247999841E+02  0.35288495610E+02  0.51100000000E-03 0. -1.
         22    1    1    0    0    0  0.56281688563E+00 -0.21605635154E+02 -0.20912153152E+02  0.30073882069E+02  0.00000000000E+00 0.  1.
</event>
<event>
 5    1  0.8902899E-005  0.9118800E+02  0.7818608E-02  0.1130116E+00
         25   -1    0    0    0    0  0.00000000000E+00  0.00000000000E+00  0.99999998245E-14  0.12500000000E+03  0.12500000000E+03 0.  0.
        -11    1    3    3    0    0  0.47865805591E+02 -0.28913923967E+02 -0.16994915960E+01  0.55946748038E+02  0.51100000000E-03 0.  1.
         23    2    1    0    0    0  0.80634576519E+01 -0.27040020656E+02 -0.63914756244E+01  0.96068476932E+02  0.91608510702E+02 0.  0.
         11    1    3    3    0    0 -0.39802347939E+02  0.18739033117E+01 -0.46919840284E+01  0.40121728894E+02  0.51100000000E-03 0. -1.
         22    1    1    0    0    0 -0.80634576519E+01  0.27040020656E+02  0.63914756244E+01  0.28931523068E+02  0.00000000000E+00 0. -1.
</event>
<event>
 5    1  0.8902899E-005  0.9118800E+02  0.7818608E-02  0.1130116E+00
         25   -1    0    0    0    0  0.00000000000E+00  0.00000000000E+00  0.99999998245E-14  0.12500000000E+03  0.12500000000E+03 0.  0.
        -11    1    3    3    0    0 -0.39925297733E+02 -0.34074620864E+02  0.95893809309E+01  0.53357899256E+02  0.51100000000E-03 0. -1.
         23    2    1    0    0    0 -0.25460227080E+02  0.60503962702E+01  0.12274556628E+02  0.96095066193E+02  0.91644784621E+02 0.  0.
         11    1    3    3    0    0  0.14465070653E+02  0.40125017134E+02  0.26851756966E+01  0.42737166937E+02  0.51100000000E-03 0.  1.
         22    1    1    0    0    0  0.25460227080E+02 -0.60503962702E+01 -0.12274556628E+02  0.28904933807E+02  0.00000000000E+00 0. -1.
</event>
<event>
 5    1  0.8902899E-005  0.9118800E+02  0.7818608E-02  0.1130116E+00
         25   -1    0    0    0    0  0.00000000000E+00  0.00000000000E+00  0.99999998245E-14  0.12500000000E+03  0.12500000000E+03 0.  0.
        -11    1    3    3    0    0 -0.51033601132E+01 -0.53826087991E+02 -0.13007404350E+02  0.55610112400E+02  0.51100000000E-03 0.  1.
         23    2    1    0    0    0 -0.44234113025E+01 -0.15157745311E+02 -0.24408040840E+02  0.95929804471E+02  0.91419096023E+02 0.  0.
         11    1    3    3    0    0  0.67994881073E+00  0.38668342681E+02 -0.11400636490E+02  0.40319692071E+02  0.51100000000E-03 0. -1.
         22    1    1    0    0    0  0.44234113025E+01  0.15157745311E+02  0.24408040840E+02  0.29070195529E+02  0.00000000000E+00 0. -1.
</event>
<event>
 5    1  0.8902899E-005  0.9118800E+02  0.7818608E-02  0.1130116E+00
         25   -1    0    0    0    0  0.00000000000E+00  0.00000000000E+00  0.99999998245E-14  0.12500000000E+03  0.12500000000E+03 0.  0.
        -11    1    3    3    0    0  0.60110516425E+01  0.37848610183E+02  0.40514636549E+02  0.55768143322E+02  0.51100000000E-03 0. -1.
         23    2    1    0    0    0 -0.16699304977E+02  0.10419035279E+02  0.20334553248E+02  0.96699520522E+02  0.92465561863E+02 0.  0.
         11    1    3    3    0    0 -0.22710356620E+02 -0.27429574903E+02 -0.20180083302E+02  0.40931377200E+02  0.51100000000E-03 0.  1.
         22    1    1    0    0    0  0.16699304977E+02 -0.10419035279E+02 -0.20334553248E+02  0.28300479478E+02  0.00000000000E+00 0. -1.
</event>
<event>
 5    1  0.8902899E-005  0.9118800E+02  0.7818608E-02  0.1130116E+00
         25   -1    0    0    0    0  0.00000000000E+00  0.00000000000E+00  0.99999998245E-14  0.12500000000E+03  0.12500000000E+03 0.  0.
        -11    1    3    3    0    0  0.57672373041E+02 -0.10542531133E+01 -0.24066856222E+01  0.57732193772E+02  0.51100000000E-03 0.  1.
         23    2    1    0    0    0  0.23343264495E+02  0.15634192472E+02 -0.66226357584E+01  0.96134877864E+02  0.91699070148E+02 0.  0.
         11    1    3    3    0    0 -0.34329108547E+02  0.16688445585E+02 -0.42159501362E+01  0.38402684092E+02  0.51100000000E-03 0. -1.
         22    1    1    0    0    0 -0.23343264495E+02 -0.15634192472E+02  0.66226357584E+01  0.28865122136E+02  0.00000000000E+00 0.  1.
</event>
<event>
 5    1  0.8902899E-005  0.9118800E+02  0.7818608E-02  0.1130116E+00
         25   -1    0    0    0    0  0.00000000000E+00  0.00000000000E+00  0.99999998245E-14  0.12500000000E+03  0.12500000000E+03 0.  0.
        -11    1    3    3    0    0 -0.20041784895E+01 -0.39426402701E+02 -0.89286873638E+01  0.40474429207E+02  0.51100000000E-03 0.  1.
         23    2    1    0    0    0  0.90591428744E+01  0.29567032509E+01  0.26517020820E+02  0.96822658804E+02  0.92631877347E+02 0.  0.
         11    1    3    3    0    0  0.11063321364E+02  0.42383105952E+02  0.35445708184E+02  0.56348229596E+02  0.51100000000E-03 0. -1.
         22    1    1    0    0    0 -0.90591428744E+01 -0.29567032509E+01 -0.26517020820E+02  0.28177341196E+02  0.00000000000E+00 0. -1.
</event>
<event>
 5    1  0.8902899E-005  0.9118800E+02  0.7818608E-02  0.1130116E+00
         25   -1    0    0    0    0  0.00000000000E+00  0.00000000000E+00  0.99999998245E-14  0.12500000000E+03  0.12500000000E+03 0.  0.
        -11    1    3    3    0    0 -0.31862716921E+02 -0.86438298692E+01  0.20461194993E+02  0.38840816485E+02  0.51100000000E-03 0.  1.
         23    2    1    0    0    0  0.25469641399E+02 -0.63605905800E+01  0.80008108853E+01  0.97556007573E+02  0.93616248019E+02 0.  0.
         11    1    3    3    0    0  0.57332358320E+02  0.22832392892E+01 -0.12460384107E+02  0.58715191088E+02  0.51100000000E-03 0. -1.
         22    1    1    0    0    0 -0.25469641399E+02  0.63605905800E+01 -0.80008108853E+01  0.27443992427E+02  0.00000000000E+00 0. -1.
</event>
<event>
 5    1  0.8902899E-005  0.9118800E+02  0.7818608E-02  0.1130116E+00
         25   -1    0    0    0    0  0.00000000000E+00  0.00000000000E+00  0.99999998245E-14  0.12500000000E+03  0.12500000000E+03 0.  0.
        -11    1    3    3    0    0  0.20557032469E+02 -0.42436410793E+02  0.20423189452E+02  0.51386255094E+02  0.51100000000E-03 0. -1.
         23    2    1    0    0    0  0.20906485197E+02  0.10412663323E+01  0.21653720731E+02  0.94882746135E+02  0.89976033108E+02 0.  0.
         11    1    3    3    0    0  0.34945272804E+00  0.43477677125E+02  0.12305312785E+01  0.43496491041E+02  0.51100000000E-03 0.  1.
         22    1    1    0    0    0 -0.20906485197E+02 -0.10412663323E+01 -0.21653720731E+02  0.30117253865E+02  0.00000000000E+00 0. -1.
</event>
<event>
 5    1  0.8902899E-005  0.9118800E+02  0.7818608E-02  0.1130116E+00
         25   -1    0    0    0    0  0.00000000000E+00  0.00000000000E+00  0.99999998245E-14  0.12500000000E+03  0.12500000000E+03 0.  0.
        -11    1    3    3    0    0 -0.32881581330E+01  0.52676290121E+02  0.26777716278E+02  0.59183186922E+02  0.51100000000E-03 0. -1.
         23    2    1    0    0    0  0.10643017416E+02  0.25024746105E+02  0.42454603486E+01  0.97476634092E+02  0.93510205449E+02 0.  0.
         11    1    3    3    0    0  0.13931175548E+02 -0.27651544017E+02 -0.22532255930E+02  0.38293447171E+02  0.51100000000E-03 0.  1.
         22    1    1    0    0    0 -0.10643017416E+02 -0.25024746105E+02 -0.42454603486E+01  0.27523365908E+02  0.00000000000E+00 0. -1.
</event>
<event>
 5    1  0.8902899E-005  0.9118800E+02  0.7818608E-02  0.1130116E+00
         25   -1    0    0    0    0  0.00000000000E+00  0.00000000000E+00  0.99999998245E-14  0.12500000000E+03  0.12500000000E+03 0.  0.
        -11    1    3    3    0    0  0.42469575190E+01  0.60082792292E+02 -0.16593022657E+02  0.62476451395E+02  0.51100000000E-03 0. -1.
         23    2    1    0    0    0  0.21171713341E+01  0.30366586659E+02 -0.96434606132E+01  0.93068693538E+02  0.87419525191E+02 0.  0.
         11    1    3    3    0    0 -0.21297861849E+01 -0.29716205634E+02  0.69495620433E+01  0.30592242143E+02  0.51100000000E-03 0.  1.
         22    1    1    0    0    0 -0.21171713341E+01 -0.30366586659E+02  0.96434606132E+01  0.31931306462E+02  0.00000000000E+00 0. -1.
</event>
<event>
 5    1  0.8902899E-005  0.9118800E+02  0.7818608E-02  0.1130116E+00
         25   -1    0    0    0    0  0.00000000000E+00  0.00000000000E+00  0.99999998245E-14  0.12500000000E+03  0.12500000000E+03 0.  0.
        -11    1    3    3    0    0  0.35952141074E+02  0.77628726274E+01  0.15464110802E+02  0.39899340376E+02  0.51100000000E-03 0.  1.
         23    2    1    0    0    0 -0.54126320021E+01  0.17010540791E+02 -0.22138746970E+02  0.96560956405E+02  0.92278053194E+02 0.  0.
         11    1    3    3    0    0 -0.41364773077E+02  0.92476681634E+01 -0.37602857772E+02  0.56661616029E+02  0.51100000000E-03 0. -1.
         22    1    1    0    0    0  0.54126320021E+01 -0.17010540791E+02  0.22138746970E+02  0.28439043595E+02  0.00000000000E+00 0. -1.
</event>
<event>
 5    1  0.8902899E-005  0.9118800E+02  0.7818608E-02  0.1130116E+00
         25   -1    0    0    0    0  0.00000000000E+00  0.00000000000E+00  0.99999998245E-14  0.12500000000E+03  0.12500000000E+03 0.  0.
        -11    1    3    3    0    0 -0.32737419373E+02 -0.15745332084E+02 -0.19978966711E+02  0.41458572343E+02  0.51100000000E-03 0.  1.
         23    2    1    0    0    0  0.17836421729E+02  0.10614914413E+02 -0.16300291438E+02  0.98608451181E+02  0.95011119324E+02 0.  0.
         11    1    3    3    0    0  0.50573841102E+02  0.26360246496E+02  0.36786752730E+01  0.57149878838E+02  0.51100000000E-03 0. -1.
         22    1    1    0    0    0 -0.17836421729E+02 -0.10614914413E+02  0.16300291438E+02  0.26391548819E+02  0.00000000000E+00 0. -1.
</event>
<event>
 5    1  0.8902899E-005  0.9118800E+02  0.7818608E-02  0.1130116E+00
         25   -1    0    0    0    0  0.00000000000E+00  0.00000000000E+00  0.99999998245E-14  0.12500000000E+03  0.12500000000E+03 0.  0.
        -11    1    3    3    0    0 -0.15480711536E+02 -0.31697724654E+02  0.24760670978E+02  0.43098596329E+02  0.51100000000E-03 0.  1.
         23    2    1    0    0    0 -0.27267352766E+02 -0.17928351374E+00 -0.13933831886E+02  0.94378237470E+02  0.89272388606E+02 0.  0.
         11    1    3    3    0    0 -0.11786641230E+02  0.31518441141E+02 -0.38694502864E+02  0.51279641141E+02  0.51100000000E-03 0. -1.
         22    1    1    0    0    0  0.27267352766E+02  0.17928351374E+00  0.13933831886E+02  0.30621762530E+02  0.00000000000E+00 0.  1.
</event>
<event>
 5    1  0.8902899E-005  0.9118800E+02  0.7818608E-02  0.1130116E+00
         25   -1    0    0    0    0  0.00000000000E+00  0.00000000000E+00  0.99999998245E-14  0.12500000000E+03  0.12500000000E+03 0.  0.
        -11    1    3    3    0    0  0.36513508400E+02  0.17032840861E+02  0.55608031192E+01  0.40672797975E+02  0.51100000000E-03 0. -1.
         23    2    1    0    0    0 -0.17387602108E+02  0.23696755115E+02 -0.21545456177E+01  0.95529557573E+02  0.90870178789E+02 0.  0.
         11    1    3    3    0    0 -0.53901110508E+02  0.66639142536E+01 -0.77153487369E+01  0.54856759598E+02  0.51100000000E-03 0.  1.
         22    1    1    0    0    0  0.17387602108E+02 -0.23696755115E+02  0.21545456177E+01  0.29470442427E+02  0.00000000000E+00 0.  1.
</event>
<event>
 5    1  0.8902899E-005  0.9118800E+02  0.7818608E-02  0.1130116E+00
         25   -1    0    0    0    0  0.00000000000E+00  0.00000000000E+00  0.99999998245E-14  0.12500000000E+03  0.12500000000E+03 0.  0.
        -11    1    3    3    0    0  0.42517827388E+02  0.25953850314E+02 -0.13911653455E+02  0.51719455662E+02  0.51100000000E-03 0.  1.
         23    2    1    0    0    0  0.16889599344E+02 -0.26019905637E+01 -0.27667451467E+02  0.92480516738E+02  0.86574414145E+02 0.  0.
         11    1    3    3    0    0 -0.25628228043E+02 -0.28555840877E+02 -0.13755798012E+02  0.40761061076E+02  0.51100000000E-03 0. -1.
         22    1    1    0    0    0 -0.16889599344E+02  0.26019905637E+01  0.27667451467E+02  0.32519483262E+02  0.00000000000E+00 0.  1.
</event>
<event>
 5    1  0.8902899E-005  0.9118800E+02  0.7818608E-02  0.1130116E+00
         25   -1    0    0    0    0  0.00000000000E+00  0.00000000000E+00  0.99999998245E-14  0.12500000000E+03  0.12500000000E+03 0.  0.
        -11    1    3    3    0    0  0.55290833006E+01  0.36197356461E+02 -0.69660818169E+01  0.37273927524E+02  0.51100000000E-03 0. -1.
         23    2    1    0    0    0 -0.10803948731E+02 -0.73594672973E+01  0.27086430973E+02  0.94924065935E+02  0.90033418705E+02 0.  0.
         11    1    3    3    0    0 -0.16333032031E+02 -0.43556823758E+02  0.34052512790E+02  0.57650138411E+02  0.51100000000E-03 0.  1.
         22    1    1    0    0    0  0.10803948731E+02  0.73594672973E+01 -0.27086430973E+02  0.30075934065E+02  0.00000000000E+00 0.  1.
</event>
<event>
 5    1  0.8902899E-005  0.9118800E+02  0.7818608E-02  0.1130116E+00
         25   -1    0    0    0    0  0.00000000000E+00  0.00000000000E+00  0.99999998245E-14  0.12500000000E+03  0.12500000000E+03 0.  0.
        -11    1    3    3    0    0  0.13048820769E+02 -0.31947259065E+02  0.37369008759E+01  0.34711143940E+02  0.51100000000E-03 0.  1.
         23    2    1    0    0    0 -0.33093954525E+01  0.25818224206E+02  0.13725568534E+02  0.95573412855E+02  0.90930485612E+02 0.  0.
         11    1    3    3    0    0 -0.16358216221E+02  0.57765483272E+02  0.99886676580E+01  0.60862268914E+02  0.51100000000E-03 0. -1.
         22    1    1    0    0    0  0.33093954525E+01 -0.25818224206E+02 -0.13725568534E+02  0.29426587145E+02  0.00000000000E+00 0. -1.
</event>
<event>
 5    1  0.8902899E-005  0.9118800E+02  0.7818608E-02  0.1130116E+00
         25   -1    0    0    0    0  0.00000000000E+00  0.00000000000E+00  0.99999998245E-14  0.12500000000E+03  0.12500000000E+03 0.  0.
        -11    1    3    3    0    0  0.41795102542E+02  0.19034874724E+02  0.24002864634E+02  0.51819827895E+02  0.51100000000E-03 0. -1.
         23    2    1    0    0    0  0.14346115618E+02  0.33920592085E+02  0.19370603321E+02  0.83387046804E+02  0.72261758219E+02 0.  0.
         11    1    3    3    0    0 -0.27448986923E+02  0.14885717361E+02 -0.46322613131E+01  0.31567218908E+02  0.51100000000E-03 0.  1.
         22    1    1    0    0    0 -0.14346115618E+02 -0.33920592085E+02 -0.19370603321E+02  0.41612953196E+02  0.00000000000E+00 0. -1.
</event>
<event>
 5    1  0.8902899E-005  0.9118800E+02  0.7818608E-02  0.1130116E+00
         25   -1    0    0    0    0  0.00000000000E+00  0.00000000000E+00  0.99999998245E-14  0.12500000000E+03  0.12500000000E+03 0.  0.
        -11    1    3    3    0    0  0.48529655178E+02  0.26644928445E+02  0.11705267473E+01  0.55375534099E+02  0.51100000000E-03 0.  1.
         23    2    1    0    0    0  0.18599031314E+02  0.10591734024E+02  0.21256804800E+02  0.94834447697E+02  0.89908909037E+02 0.  0.
         11    1    3    3    0    0 -0.29930623865E+02 -0.16053194422E+02  0.20086278053E+02  0.39458913598E+02  0.51100000000E-03 0. -1.
         22    1    1    0    0    0 -0.18599031314E+02 -0.10591734024E+02 -0.21256804800E+02  0.30165552303E+02  0.00000000000E+00 0.  1.
</event>
<event>
 5    1  0.8902899E-005  0.9118800E+02  0.7818608E-02  0.1130116E+00
         25   -1    0    0    0    0  0.00000000000E+00  0.00000000000E+00  0.99999998245E-14  0.12500000000E+03  0.12500000000E+03 0.  0.
        -11    1    3    3    0    0  0.71032685938E+01 -0.38530184531E+02 -0.29541323053E+02  0.49068536892E+02  0.51100000000E-03 0.  1.
         23    2    1    0    0    0 -0.22599330128E+02 -0.29608597857E+01 -0.15302642557E+02  0.97546998668E+02  0.93604218211E+02 0.  0.
         11    1    3    3    0    0 -0.29702598722E+02  0.35569324745E+02  0.14238680496E+02  0.48478461776E+02  0.51100000000E-03 0. -1.
         22    1    1    0    0    0  0.22599330128E+02  0.29608597857E+01  0.15302642557E+02  0.27453001332E+02  0.00000000000E+00 0. -1.
</event>
<event>
 5    1  0.8902899E-005  0.9118800E+02  0.7818608E-02  0.1130116E+00
         25   -1    0    0    0    0  0.00000000000E+00  0.00000000000E+00  0.99999998245E-14  0.12500000000E+03  0.12500000000E+03 0.  0.
        -11    1    3    3    0    0  0.22484401124E+02 -0.26931005989E+01  0.52706937129E+02  0.57365689280E+02  0.51100000000E-03 0.  1.
         23    2    1    0    0    0  0.17613513116E+02  0.13927269493E+02  0.17752561822E+02  0.96375567585E+02  0.92026582553E+02 0.  0.
         11    1    3    3    0    0 -0.48708880079E+01  0.16620370092E+02 -0.34954375308E+02  0.39009878305E+02  0.51100000000E-03 0. -1.
         22    1    1    0    0    0 -0.17613513116E+02 -0.13927269493E+02 -0.17752561822E+02  0.28624432415E+02  0.00000000000E+00 0.  1.
</event>
<event>
 5    1  0.8902899E-005  0.9118800E+02  0.7818608E-02  0.1130116E+00
         25   -1    0    0    0    0  0.00000000000E+00  0.00000000000E+00  0.99999998245E-14  0.12500000000E+03  0.12500000000E+03 0.  0.
        -11    1    3    3    0    0  0.41594176442E+02  0.24283016366E+02  0.23742325568E+02  0.53697657504E+02  0.51100000000E-03 0.  1.
         23    2    1    0    0    0  0.49950434911E+01  0.28736146519E+02  0.38814705295E+01  0.95575819642E+02  0.90933794106E+02 0.  0.
         11    1    3    3    0    0 -0.36599132951E+02  0.44531301530E+01 -0.19860855039E+02  0.41878162138E+02  0.51100000000E-03 0. -1.
         22    1    1    0    0    0 -0.49950434911E+01 -0.28736146519E+02 -0.38814705295E+01  0.29424180358E+02  0.00000000000E+00 0.  1.
</event>
<event>
 5    1  0.8902899E-005  0.9118800E+02  0.7818608E-02  0.1130116E+00
         25   -1    0    0    0    0  0.00000000000E+00  0.00000000000E+00  0.99999998245E-14  0.12500000000E+03  0.12500000000E+03 0.  0.
        -11    1    3    3    0    0 -0.44289647846E+02  0.18914736853E+02  0.27768718000E+01  0.48239519005E+02  0.51100000000E-03 0.  1.
         23    2    1    0    0    0 -0.98625789386E+01  0.10094140913E+02 -0.26954188119E+02  0.94574839339E+02  0.89547249174E+02 0.  0.
         11    1    3    3    0    0  0.34427068907E+02 -0.88205959398E+01 -0.29731059919E+02  0.46335320334E+02  0.51100000000E-03 0. -1.
         22    1    1    0    0    0  0.98625789386E+01 -0.10094140913E+02  0.26954188119E+02  0.30425160661E+02  0.00000000000E+00 0.  1.
</event>
<event>
 5    1  0.8902899E-005  0.9118800E+02  0.7818608E-02  0.1130116E+00
         25   -1    0    0    0    0  0.00000000000E+00  0.00000000000E+00  0.99999998245E-14  0.12500000000E+03  0.12500000000E+03 0.  0.
        -11    1    3    3    0    0  0.51184326798E+02  0.30381192174E+02 -0.19220166912E+01  0.59552886547E+02  0.51100000000E-03 0. -1.
         23    2    1    0    0    0  0.35541720293E+02  0.84260887029E+01 -0.89111005836E+01  0.87401854223E+02  0.78901606801E+02 0.  0.
         11    1    3    3    0    0 -0.15642606505E+02 -0.21955103471E+02 -0.69890838924E+01  0.27848967676E+02  0.51100000000E-03 0.  1.
         22    1    1    0    0    0 -0.35541720293E+02 -0.84260887029E+01  0.89111005836E+01  0.37598145777E+02  0.00000000000E+00 0. -1.
</event>
<event>
 5    1  0.8902899E-005  0.9118800E+02  0.7818608E-02  0.1130116E+00
         25   -1    0    0    0    0  0.00000000000E+00  0.00000000000E+00  0.99999998245E-14  0.12500000000E+03  0.12500000000E+03 0.  0.
        -11    1    3    3    0    0  0.22955011165E+02 -0.23477736124E+01 -0.30272144651E+02  0.38063727098E+02  0.51100000000E-03 0.  1.
         23    2    1    0    0    0 -0.24789489097E+02 -0.85453901883E+01  0.57042044923E+01  0.98165685922E+02  0.94426804883E+02 0.  0.
         11    1    3    3    0    0 -0.47744500262E+02 -0.61976165759E+01  0.35976349144E+02  0.60101958824E+02  0.51100000000E-03 0. -1.
         22    1    1    0    0    0  0.24789489097E+02  0.85453901883E+01 -0.57042044923E+01  0.26834314078E+02  0.00000000000E+00 0. -1.
</event>
<event>
 5    1  0.8902899E-005  0.9118800E+02  0.7818608E-02  0.1130116E+00
         25   -1    0    0    0    0  0.00000000000E+00  0.00000000000E+00  0.99999998245E-14  0.12500000000E+03  0.12500000000E+03 0.  0.
        -11    1    3    3    0    0  0.13479716637E+02  0.42515054492E+01  0.32224079551E+02  0.35187630814E+02  0.51100000000E-03 0.  1.
         23    2    1    0    0    0 -0.95026461253E+00 -0.22375226827E+02 -0.19617678669E+02  0.95227410345E+02  0.90453593551E+02 0.  0.
         11    1    3    3    0    0 -0.14429981249E+02 -0.26626732277E+02 -0.51841758219E+02  0.60039779531E+02  0.51100000000E-03 0. -1.
         22    1    1    0    0    0  0.95026461253E+00  0.22375226827E+02  0.19617678669E+02  0.29772589655E+02  0.00000000000E+00 0. -1.
</event>
<event>
 5    1  0.8902899E-005  0.9118800E+02  0.7818608E-02  0.1130116E+00
         25   -1    0    0    0    0  0.00000000000E+00  0.00000000000E+00  0.99999998245E-14  0.12500000000E+03  0.12500000000E+03 0.  0.
        -11    1    3    3    0    0  0.25630683923E+02  0.50551319455E+02 -0.72234652158E+01  0.57136208371E+02  0.51100000000E-03 0. -1.
         23    2    1    0    0    0  0.49313913176E+00  0.23337514528E+02 -0.17778882673E+02  0.95657685169E+02  0.91046259078E+02 0.  0.
         11    1    3    3    0    0 -0.25137544791E+02 -0.27213804927E+02 -0.10555417457E+02  0.38521476798E+02  0.51100000000E-03 0.  1.
         22    1    1    0    0    0 -0.49313913176E+00 -0.23337514528E+02  0.17778882673E+02  0.29342314831E+02  0.00000000000E+00 0.  1.
</event>
<event>
 5    1  0.8902899E-005  0.9118800E+02  0.7818608E-02  0.1130116E+00
         25   -1    0    0    0    0  0.00000000000E+00  0.00000000000E+00  0.99999998245E-14  0.12500000000E+03  0.12500000000E+03 0.  0.
        -11    1    3    3    0    0 -0.29014453423E+02 -0.59726480695E+01 -0.49240181996E+02  0.57463958754E+02  0.51100000000E-03 0. -1.
         23    2    1    0    0    0 -0.27104969548E+02 -0.28788569003E+01 -0.11438968799E+02  0.95439600842E+02  0.90746350948E+02 0.  0.
         11    1    3    3    0    0  0.19094838756E+01  0.30937911692E+01  0.37801213198E+02  0.37975642087E+02  0.51100000000E-03 0.  1.
         22    1    1    0    0    0  0.27104969548E+02  0.28788569003E+01  0.11438968799E+02  0.29560399158E+02  0.00000000000E+00 0. -1.
</event>
<event>
 5    1  0.8902899E-005  0.9118800E+02  0.7818608E-02  0.1130116E+00
         25   -1    0    0    0    0  0.00000000000E+00  0.00000000000E+00  0.99999998245E-14  0.12500000000E+03  0.12500000000E+03 0.  0.
        -11    1    3    3    0    0 -0.22987414024E+02  0.48280117158E+02 -0.28415666397E+02  0.60554446685E+02  0.51100000000E-03 0.  1.
         23    2    1    0    0    0 -0.27272897558E+01  0.20736337294E+02 -0.20630814952E+02  0.95622043649E+02  0.90997312665E+02 0.  0.
         11    1    3    3    0    0  0.20260124269E+02 -0.27543779864E+02  0.77848514449E+01  0.35067596964E+02  0.51100000000E-03 0. -1.
         22    1    1    0    0    0  0.27272897558E+01 -0.20736337294E+02  0.20630814952E+02  0.29377956351E+02  0.00000000000E+00 0.  1.
</event>
<event>
 5    1  0.8902899E-005  0.9118800E+02  0.7818608E-02  0.1130116E+00
         25   -1    0    0    0    0  0.00000000000E+00  0.00000000000E+00  0.99999998245E-14  0.12500000000E+03  0.12500000000E+03 0.  0.
        -11    1    3    3    0    0  0.89402671185E+01  0.24534020647E+02  0.21023989769E+02  0.33523942062E+02  0.51100000000E-03 0. -1.
         23    2    1    0    0    0 -0.14529778383E+02 -0.74659846880E+01 -0.25526380361E+02  0.94694035545E+02  0.89713482188E+02 0.  0.
         11    1    3    3    0    0 -0.23470045501E+02 -0.32000005335E+02 -0.46550370130E+02  0.61170093484E+02  0.51100000000E-03 0.  1.
         22    1    1    0    0    0  0.14529778383E+02  0.74659846880E+01  0.25526380361E+02  0.30305964455E+02  0.00000000000E+00 0.  1.
</event>
<event>
 5    1  0.8902899E-005  0.9118800E+02  0.7818608E-02  0.1130116E+00
         25   -1    0    0    0    0  0.00000000000E+00  0.00000000000E+00  0.99999998245E-14  0.12500000000E+03  0.12500000000E+03 0.  0.
        -11    1    3    3    0    0 -0.19282978464E+02 -0.44667643172E+02 -0.27347150620E+02  0.55811273523E+02  0.51100000000E-03 0. -1.
         23    2    1    0    0    0 -0.15490501702E+02 -0.54594960015E+01 -0.24760579293E+02  0.95287241352E+02  0.90536237706E+02 0.  0.
         11    1    3    3    0    0  0.37924767626E+01  0.39208147170E+02  0.25865713263E+01  0.39475967829E+02  0.51100000000E-03 0.  1.
         22    1    1    0    0    0  0.15490501702E+02  0.54594960015E+01  0.24760579293E+02  0.29712758648E+02  0.00000000000E+00 0. -1.
</event>
<event>
 5    1  0.8902899E-005  0.9118800E+02  0.7818608E-02  0.1130116E+00
         25   -1    0    0    0    0  0.00000000000E+00  0.00000000000E+00  0.99999998245E-14  0.12500000000E+03  0.12500000000E+03 0.  0.
        -11    1    3    3    0    0  0.39609041818E+02  0.14028406493E+02  0.24260246132E+02  0.48520427916E+02  0.51100000000E-03 0.  1.
         23    2    1    0    0    0  0.58193760537E+01 -0.19757122016E+02  0.19664265085E+02  0.96523828745E+02  0.92227746292E+02 0.  0.
         11    1    3    3    0    0 -0.33789665765E+02 -0.33785528509E+02 -0.45959810464E+01  0.48003400829E+02  0.51100000000E-03 0. -1.
         22    1    1    0    0    0 -0.58193760537E+01  0.19757122016E+02 -0.19664265085E+02  0.28476171255E+02  0.00000000000E+00 0.  1.
</event>
<event>
 5    1  0.8902899E-005  0.9118800E+02  0.7818608E-02  0.1130116E+00
         25   -1    0    0    0    0  0.00000000000E+00  0.00000000000E+00  0.99999998245E-14  0.12500000000E+03  0.12500000000E+03 0.  0.
        -11    1    3    3    0    0  0.24785211383E+02  0.19651791630E+02  0.14893630999E+02  0.34961691352E+02  0.51100000000E-03 0. -1.
         23    2    1    0    0    0 -0.21207656389E+02  0.61248728735E+01 -0.20752391039E+02  0.94702467245E+02  0.89725229513E+02 0.  0.
         11    1    3    3    0    0 -0.45992867772E+02 -0.13526918756E+02 -0.35646022038E+02  0.59740775893E+02  0.51100000000E-03 0.  1.
         22    1    1    0    0    0  0.21207656389E+02 -0.61248728735E+01  0.20752391039E+02  0.30297532755E+02  0.00000000000E+00 0.  1.
</event>
<event>
 5    1  0.8902899E-005  0.9118800E+02  0.7818608E-02  0.1130116E+00
         25   -1    0    0    0    0  0.00000000000E+00  0.00000000000E+00  0.99999998245E-14  0.12500000000E+03  0.12500000000E+03 0.  0.
        -11    1    3    3    0    0 -0.78800523686E+01 -0.16533874752E+02  0.27559196036E+02  0.33090384193E+02  0.51100000000E-03 0.  1.
         23    2    1    0    0    0  0.36958758504E+01 -0.39542511983E+01 -0.30710568529E+02  0.93816116017E+02  0.88481800413E+02 0.  0.
         11    1    3    3    0    0  0.11575928219E+02  0.12579623554E+02 -0.58269764565E+02  0.60725731824E+02  0.51100000000E-03 0. -1.
         22    1    1    0    0    0 -0.36958758504E+01  0.39542511983E+01  0.30710568529E+02  0.31183883983E+02  0.00000000000E+00 0. -1.
</event>
<event>
 5    1  0.8902899E-005  0.9118800E+02  0.7818608E-02  0.1130116E+00
         25   -1    0    0    0    0  0.00000000000E+00  0.00000000000E+00  0.99999998245E-14  0.12500000000E+03  0.12500000000E+03 0.  0.
        -11    1    3    3    0    0 -0.23719560858E+02  0.23652506386E+02  0.58145987719E+01  0.33998061486E+02  0.51100000000E-03 0. -1.
         23    2    1    0    0    0  0.13907723213E+02 -0.13222191560E+02 -0.23794196748E+02  0.94431798981E+02  0.89347354439E+02 0.  0.
         11    1    3    3    0    0  0.37627284071E+02 -0.36874697947E+02 -0.29608795520E+02  0.60433737495E+02  0.51100000000E-03 0.  1.
         22    1    1    0    0    0 -0.13907723213E+02  0.13222191560E+02  0.23794196748E+02  0.30568201019E+02  0.00000000000E+00 0.  1.
</event>
<event>
 5    1  0.8902899E-005  0.9118800E+02  0.7818608E-02  0.1130116E+00
         25   -1    0    0    0    0  0.00000000000E+00  0.00000000000E+00  0.99999998245E-14  0.12500000000E+03  0.12500000000E+03 0.  0.
        -11    1    3    3    0    0 -0.29266079204E+02  0.41255876484E+02 -0.24790989048E+02  0.56330665491E+02  0.51100000000E-03 0.  1.
         23    2    1    0    0    0  0.32958114161E+01  0.19325783482E+02 -0.21767961521E+02  0.95705078445E+02  0.91111303423E+02 0.  0.
         11    1    3    3    0    0  0.32561890620E+02 -0.21930093002E+02  0.30230275266E+01  0.39374412954E+02  0.51100000000E-03 0. -1.
         22    1    1    0    0    0 -0.32958114161E+01 -0.19325783482E+02  0.21767961521E+02  0.29294921555E+02  0.00000000000E+00 0.  1.
</event>
<event>
 5    1  0.8902899E-005  0.9118800E+02  0.7818608E-02  0.1130116E+00
         25   -1    0    0    0    0  0.00000000000E+00  0.00000000000E+00  0.99999998245E-14  0.12500000000E+03  0.12500000000E+03 0.  0.
        -11    1    3    3    0    0  0.34413517976E+02 -0.41094639725E+02  0.44309147366E+01  0.53783758137E+02  0.51100000000E-03 0.  1.
         23    2    1    0    0    0  0.35865982499E+01 -0.14565921907E+02  0.22233009548E+02  0.98179551056E+02  0.94445157440E+02 0.  0.
         11    1    3    3    0    0 -0.30826919727E+02  0.26528717819E+02  0.17802094812E+02  0.44395792919E+02  0.51100000000E-03 0. -1.
         22    1    1    0    0    0 -0.35865982499E+01  0.14565921907E+02 -0.22233009548E+02  0.26820448944E+02  0.00000000000E+00 0. -1.
</event>
<event>
 5    1  0.8902899E-005  0.9118800E+02  0.7818608E-02  0.1130116E+00
         25   -1    0    0    0    0  0.00000000000E+00  0.00000000000E+00  0.99999998245E-14  0.12500000000E+03  0.12500000000E+03 0.  0.
        -11    1    3    3    0    0 -0.58867541554E+02 -0.60512471413E+00  0.11339186465E+02  0.59952737840E+02  0.51100000000E-03 0.  1.
         23    2    1    0    0    0 -0.23997381738E+02  0.53368324458E+01 -0.65031951344E+01  0.99570732260E+02  0.96268806293E+02 0.  0.
         11    1    3    3    0    0  0.34870159816E+02  0.59419571599E+01 -0.17842381600E+02  0.39617994420E+02  0.51100000000E-03 0. -1.
         22    1    1    0    0    0  0.23997381738E+02 -0.53368324458E+01  0.65031951344E+01  0.25429267740E+02  0.00000000000E+00 0.  1.
</event>
<event>
 5    1  0.8902899E-005  0.9118800E+02  0.7818608E-02  0.1130116E+00
         25   -1    0    0    0    0  0.00000000000E+00  0.00000000000E+00  0.99999998245E-14  0.12500000000E+03  0.12500000000E+03 0.  0.
        -11    1    3    3    0    0  0.26651185386E+02  0.47516316569E+02  0.25855392438E+02  0.60304123749E+02  0.51100000000E-03 0.  1.
         23    2    1    0    0    0  0.99207905866E+01  0.16782267638E+02  0.22150179355E+02  0.95492424051E+02  0.90819083967E+02 0.  0.
         11    1    3    3    0    0 -0.16730394799E+02 -0.30734048932E+02 -0.37052130829E+01  0.35188300302E+02  0.51100000000E-03 0. -1.
         22    1    1    0    0    0 -0.99207905866E+01 -0.16782267638E+02 -0.22150179355E+02  0.29507575949E+02  0.00000000000E+00 0.  1.
</event>
<event>
 5    1  0.8902899E-005  0.9118800E+02  0.7818608E-02  0.1130116E+00
         25   -1    0    0    0    0  0.00000000000E+00  0.00000000000E+00  0.99999998245E-14  0.12500000000E+03  0.12500000000E+03 0.  0.
        -11    1    3    3    0    0 -0.18491956160E+02  0.50958615508E+02  0.30427480940E+02  0.62165621799E+02  0.51100000000E-03 0. -1.
         23    2    1    0    0    0 -0.89795834627E+01  0.21333213324E+02  0.18032697630E+02  0.95658611251E+02  0.91047530515E+02 0.  0.
         11    1    3    3    0    0  0.95123726971E+01 -0.29625402183E+02 -0.12394783310E+02  0.33492989452E+02  0.51100000000E-03 0.  1.
         22    1    1    0    0    0  0.89795834627E+01 -0.21333213324E+02 -0.18032697630E+02  0.29341388749E+02  0.00000000000E+00 0. -1.
</event>
<event>
 5    1  0.8902899E-005  0.9118800E+02  0.7818608E-02  0.1130116E+00
         25   -1    0    0    0    0  0.00000000000E+00  0.00000000000E+00  0.99999998245E-14  0.12500000000E+03  0.12500000000E+03 0.  0.
        -11    1    3    3    0    0 -0.16964484775E+02 -0.39636234291E+02  0.79946095645E+01  0.43849043260E+02  0.51100000000E-03 0.  1.
         23    2    1    0    0    0  0.12892067835E+02 -0.40305132786E+01  0.27591689164E+02  0.94279457016E+02  0.89133968014E+02 0.  0.
         11    1    3    3    0    0  0.29856552610E+02  0.35605721012E+02  0.19597079599E+02  0.50430413756E+02  0.51100000000E-03 0. -1.
         22    1    1    0    0    0 -0.12892067835E+02  0.40305132786E+01 -0.27591689164E+02  0.30720542984E+02  0.00000000000E+00 0.  1.
</event>
<event>
 5    1  0.8902899E-005  0.9118800E+02  0.7818608E-02  0.1130116E+00
         25   -1    0    0    0    0  0.00000000000E+00  0.00000000000E+00  0.99999998245E-14  0.12500000000E+03  0.12500000000E+03 0.  0.
        -11    1    3    3    0    0  0.33553113691E+02 -0.46486325159E+02  0.20101565111E+02  0.60752471434E+02  0.51100000000E-03 0.  1.
         23    2    1    0    0    0  0.16584953060E+02 -0.25681253806E+02 -0.22773414695E+00  0.94428128486E+02  0.89342219143E+02 0.  0.
         11    1    3    3    0    0 -0.16968160631E+02  0.20805071354E+02 -0.20329299258E+02  0.33675657051E+02  0.51100000000E-03 0. -1.
         22    1    1    0    0    0 -0.16584953060E+02  0.25681253806E+02  0.22773414695E+00  0.30571871514E+02  0.00000000000E+00 0.  1.
</event>
<event>
 5    1  0.8902899E-005  0.9118800E+02  0.7818608E-02  0.1130116E+00
         25   -1    0    0    0    0  0.00000000000E+00  0.00000000000E+00  0.99999998245E-14  0.12500000000E+03  0.12500000000E+03 0.  0.
        -11    1    3    3    0    0 -0.10621442716E+02 -0.36424207795E+02  0.21659589304E+02  0.43688393973E+02  0.51100000000E-03 0.  1.
         23    2    1    0    0    0  0.23073089550E+02  0.22084032374E+01  0.19016926309E+02  0.95018539187E+02  0.90164487448E+02 0.  0.
         11    1    3    3    0    0  0.33694532266E+02  0.38632611032E+02 -0.26426629945E+01  0.51330145214E+02  0.51100000000E-03 0. -1.
         22    1    1    0    0    0 -0.23073089550E+02 -0.22084032374E+01 -0.19016926309E+02  0.29981460813E+02  0.00000000000E+00 0. -1.
</event>
<event>
 5    1  0.8902899E-005  0.9118800E+02  0.7818608E-02  0.1130116E+00
         25   -1    0    0    0    0  0.00000000000E+00  0.00000000000E+00  0.99999998245E-14  0.12500000000E+03  0.12500000000E+03 0.  0.
        -11    1    3    3    0    0  0.16965196764E+02 -0.86871034355E+01 -0.45069029032E+02  0.48933639201E+02  0.51100000000E-03 0. -1.
         23    2    1    0    0    0  0.24710885313E+02 -0.15647950813E+02  0.57003973726E+00  0.95745749661E+02  0.91167085153E+02 0.  0.
         11    1    3    3    0    0  0.77456885493E+01 -0.69608473779E+01  0.45639068769E+02  0.46812110460E+02  0.51100000000E-03 0.  1.
         22    1    1    0    0    0 -0.24710885313E+02  0.15647950813E+02 -0.57003973726E+00  0.29254250339E+02  0.00000000000E+00 0. -1.
</event>
<event>
 5    1  0.8902899E-005  0.9118800E+02  0.7818608E-02  0.1130116E+00
         25   -1    0    0    0    0  0.00000000000E+00  0.00000000000E+00  0.99999998245E-14  0.12500000000E+03  0.12500000000E+03 0.  0.
        -11    1    3    3    0    0  0.93583231927E+01 -0.51917423644E+02  0.51920346095E+01  0.53009002202E+02  0.51100000000E-03 0.  1.
         23    2    1    0    0    0 -0.79982094700E+01 -0.15882764243E+02  0.22271576974E+02  0.96499882533E+02  0.92195285309E+02 0.  0.
         11    1    3    3    0    0 -0.17356532663E+02  0.36034659402E+02  0.17079542365E+02  0.43490880331E+02  0.51100000000E-03 0. -1.
         22    1    1    0    0    0  0.79982094700E+01  0.15882764243E+02 -0.22271576974E+02  0.28500117467E+02  0.00000000000E+00 0.  1.
</event>
<event>
 5    1  0.8902899E-005  0.9118800E+02  0.7818608E-02  0.1130116E+00
         25   -1    0    0    0    0  0.00000000000E+00  0.00000000000E+00  0.99999998245E-14  0.12500000000E+03  0.12500000000E+03 0.  0.
        -11    1    3    3    0    0  0.46330856403E+02  0.24871241927E+02 -0.31448936297E+02  0.61271221014E+02  0.51100000000E-03 0.  1.
         23    2    1    0    0    0  0.20311235220E+02  0.18824058647E+02 -0.99056428857E+01  0.95588892896E+02  0.90951763171E+02 0.  0.
         11    1    3    3    0    0 -0.26019621183E+02 -0.60471832809E+01  0.21543293411E+02  0.34317671882E+02  0.51100000000E-03 0. -1.
         22    1    1    0    0    0 -0.20311235220E+02 -0.18824058647E+02  0.99056428857E+01  0.29411107104E+02  0.00000000000E+00 0.  1.
</event>
<event>
 5    1  0.8902899E-005  0.9118800E+02  0.7818608E-02  0.1130116E+00
         25   -1    0    0    0    0  0.00000000000E+00  0.00000000000E+00  0.99999998245E-14  0.12500000000E+03  0.12500000000E+03 0.  0.
        -11    1    3    3    0    0  0.30758775578E+02 -0.39687268817E+01  0.53227941476E+02  0.61604113679E+02  0.51100000000E-03 0. -1.
         23    2    1    0    0    0  0.18824983600E+02  0.33328492905E+01  0.21803966956E+02  0.96001709241E+02  0.91517360704E+02 0.  0.
         11    1    3    3    0    0 -0.11933791978E+02  0.73015761721E+01 -0.31423974520E+02  0.34397595562E+02  0.51100000000E-03 0.  1.
         22    1    1    0    0    0 -0.18824983600E+02 -0.33328492905E+01 -0.21803966956E+02  0.28998290759E+02  0.00000000000E+00 0. -1.
</event>
<event>
 5    1  0.8902899E-005  0.9118800E+02  0.7818608E-02  0.1130116E+00
         25   -1    0    0    0    0  0.00000000000E+00  0.00000000000E+00  0.99999998245E-14  0.12500000000E+03  0.12500000000E+03 0.  0.
        -11    1    3    3    0    0  0.96801242117E+01 -0.45292170508E+02 -0.27754468500E+02  0.53994407452E+02  0.51100000000E-03 0. -1.
         23    2    1    0    0    0  0.25553982356E+02 -0.11837352576E+02 -0.14491493952E+02  0.93327735679E+02  0.87789144658E+02 0.  0.
         11    1    3    3    0    0  0.15873858144E+02  0.33454817932E+02  0.13262974548E+02  0.39333328227E+02  0.51100000000E-03 0.  1.
         22    1    1    0    0    0 -0.25553982356E+02  0.11837352576E+02  0.14491493952E+02  0.31672264321E+02  0.00000000000E+00 0. -1.
</event>
<event>
 5    1  0.8902899E-005  0.9118800E+02  0.7818608E-02  0.1130116E+00
         25   -1    0    0    0    0  0.00000000000E+00  0.00000000000E+00  0.99999998245E-14  0.12500000000E+03  0.12500000000E+03 0.  0.
        -11    1    3    3    0    0  0.26030649707E+02  0.37233847930E+02  0.13603452942E+02  0.47423708080E+02  0.51100000000E-03 0. -1.
         23    2    1    0    0    0  0.18636862220E+02  0.21801973777E+01 -0.20726220447E+02  0.97041779241E+02  0.92927094058E+02 0.  0.
         11    1    3    3    0    0 -0.73937874869E+01 -0.35053650552E+02 -0.34329673389E+02  0.49618071161E+02  0.51100000000E-03 0.  1.
         22    1    1    0    0    0 -0.18636862220E+02 -0.21801973777E+01  0.20726220447E+02  0.27958220759E+02  0.00000000000E+00 0. -1.
</event>
<event>
 5    1  0.8902899E-005  0.9118800E+02  0.7818608E-02  0.1130116E+00
         25   -1    0    0    0    0  0.00000000000E+00  0.00000000000E+00  0.99999998245E-14  0.12500000000E+03  0.12500000000E+03 0.  0.
        -11    1    3    3    0    0  0.31509559995E+02  0.16577293609E+02  0.71592488869E+01  0.36316853930E+02  0.51100000000E-03 0. -1.
         23    2    1    0    0    0 -0.26310499214E+02  0.46795326917E+01  0.12319882386E+02  0.95573483096E+02  0.90930582171E+02 0.  0.
         11    1    3    3    0    0 -0.57820059209E+02 -0.11897760918E+02  0.51606334995E+01  0.59256629166E+02  0.51100000000E-03 0.  1.
         22    1    1    0    0    0  0.26310499214E+02 -0.46795326917E+01 -0.12319882386E+02  0.29426516904E+02  0.00000000000E+00 0.  1.
</event>
<event>
 5    1  0.8902899E-005  0.9118800E+02  0.7818608E-02  0.1130116E+00
         25   -1    0    0    0    0  0.00000000000E+00  0.00000000000E+00  0.99999998245E-14  0.12500000000E+03  0.12500000000E+03 0.  0.
        -11    1    3    3    0    0  0.24615749543E+02 -0.57020217940E+02 -0.29562136743E+01  0.62177002011E+02  0.51100000000E-03 0. -1.
         23    2    1    0    0    0  0.15408488040E+02 -0.25484186771E+02 -0.33491997436E+01  0.95031976742E+02  0.90183114747E+02 0.  0.
         11    1    3    3    0    0 -0.92072615028E+01  0.31536031169E+02 -0.39298606932E+00  0.32854974731E+02  0.51100000000E-03 0.  1.
         22    1    1    0    0    0 -0.15408488040E+02  0.25484186771E+02  0.33491997436E+01  0.29968023258E+02  0.00000000000E+00 0. -1.
</event>
<event>
 5    1  0.8902899E-005  0.9118800E+02  0.7818608E-02  0.1130116E+00
         25   -1    0    0    0    0  0.00000000000E+00  0.00000000000E+00  0.99999998245E-14  0.12500000000E+03  0.12500000000E+03 0.  0.
        -11    1    3    3    0    0 -0.34821131746E+02 -0.18817912488E+02  0.24391852268E+02  0.46492875840E+02  0.51100000000E-03 0.  1.
         23    2    1    0    0    0  0.59317085134E+01 -0.17764373785E+02 -0.13312357538E+02  0.10202224978E+03  0.99401018332E+02 0.  0.
         11    1    3    3    0    0  0.40752840259E+02  0.10535387032E+01 -0.37704209806E+02  0.55529373942E+02  0.51100000000E-03 0. -1.
         22    1    1    0    0    0 -0.59317085134E+01  0.17764373785E+02  0.13312357538E+02  0.22977750218E+02  0.00000000000E+00 0. -1.
</event>
<event>
 5    1  0.8902899E-005  0.9118800E+02  0.7818608E-02  0.1130116E+00
         25   -1    0    0    0    0  0.00000000000E+00  0.00000000000E+00  0.99999998245E-14  0.12500000000E+03  0.12500000000E+03 0.  0.
        -11    1    3    3    0    0  0.29047192295E+02  0.51957199547E+02  0.13916787372E+02  0.61130736426E+02  0.51100000000E-03 0. -1.
         23    2    1    0    0    0  0.13100348191E+02  0.26678942132E+02 -0.23979632424E+01  0.95181628084E+02  0.90390303800E+02 0.  0.
         11    1    3    3    0    0 -0.15946844104E+02 -0.25278257415E+02 -0.16314750615E+02  0.34050891658E+02  0.51100000000E-03 0.  1.
         22    1    1    0    0    0 -0.13100348191E+02 -0.26678942132E+02  0.23979632424E+01  0.29818371916E+02  0.00000000000E+00 0. -1.
</event>
<event>
 5    1  0.8902899E-005  0.9118800E+02  0.7818608E-02  0.1130116E+00
         25   -1    0    0    0    0  0.00000000000E+00  0.00000000000E+00  0.99999998245E-14  0.12500000000E+03  0.12500000000E+03 0.  0.
        -11    1    3    3    0    0  0.20944002536E+01  0.11645739007E+02 -0.22368806670E+02  0.25305597435E+02  0.51100000000E-03 0.  1.
         23    2    1    0    0    0 -0.35476493535E+02 -0.21377362379E+02  0.65216191277E+01  0.83070240498E+02  0.71711645669E+02 0.  0.
         11    1    3    3    0    0 -0.37570893789E+02 -0.33023101386E+02  0.28890425798E+02  0.57764643063E+02  0.51100000000E-03 0. -1.
         22    1    1    0    0    0  0.35476493535E+02  0.21377362379E+02 -0.65216191277E+01  0.41929759502E+02  0.00000000000E+00 0. -1.
</event>
<event>
 5    1  0.8902899E-005  0.9118800E+02  0.7818608E-02  0.1130116E+00
         25   -1    0    0    0    0  0.00000000000E+00  0.00000000000E+00  0.99999998245E-14  0.12500000000E+03  0.12500000000E+03 0.  0.
        -11    1    3    3    0    0  0.12331593722E+01  0.46369361311E+02  0.36236402034E+02  0.58861831292E+02  0.51100000000E-03 0. -1.
         23    2    1    0    0    0 -0.53614555520E+01  0.29643004739E+02  0.56359371475E+01  0.94353357066E+02  0.89237544041E+02 0.  0.
         11    1    3    3    0    0 -0.65946149242E+01 -0.16726356572E+02 -0.30600464887E+02  0.35491525773E+02  0.51100000000E-03 0.  1.
         22    1    1    0    0    0  0.53614555520E+01 -0.29643004739E+02 -0.56359371475E+01  0.30646642934E+02  0.00000000000E+00 0. -1.
</event>
<event>
 5    1  0.8902899E-005  0.9118800E+02  0.7818608E-02  0.1130116E+00
         25   -1    0    0    0    0  0.00000000000E+00  0.00000000000E+00  0.99999998245E-14  0.12500000000E+03  0.12500000000E+03 0.  0.
        -11    1    3    3    0    0 -0.45784336856E+02  0.19026539128E+02 -0.37264461001E+02  0.62023017876E+02  0.51100000000E-03 0.  1.
         23    2    1    0    0    0 -0.24223346648E+02  0.43222075614E+01 -0.16493368320E+02  0.95377657088E+02  0.90660985391E+02 0.  0.
         11    1    3    3    0    0  0.21560990208E+02 -0.14704331567E+02  0.20771092681E+02  0.33354639212E+02  0.51100000000E-03 0. -1.
         22    1    1    0    0    0  0.24223346648E+02 -0.43222075614E+01  0.16493368320E+02  0.29622342912E+02  0.00000000000E+00 0.  1.
</event>
<event>
 5    1  0.8902899E-005  0.9118800E+02  0.7818608E-02  0.1130116E+00
         25   -1    0    0    0    0  0.00000000000E+00  0.00000000000E+00  0.99999998245E-14  0.12500000000E+03  0.12500000000E+03 0.  0.
        -11    1    3    3    0    0  0.49525643038E+02 -0.61270758763E+01  0.36549321853E+02  0.61856150101E+02  0.51100000000E-03 0. -1.
         23    2    1    0    0    0  0.21993588759E+02 -0.90461931810E+01  0.17830280639E+02  0.95276768930E+02  0.90521777670E+02 0.  0.
         11    1    3    3    0    0 -0.27532054280E+02 -0.29191173047E+01 -0.18719041214E+02  0.33420618829E+02  0.51100000000E-03 0.  1.
         22    1    1    0    0    0 -0.21993588759E+02  0.90461931810E+01 -0.17830280639E+02  0.29723231070E+02  0.00000000000E+00 0. -1.
</event>
<event>
 5    1  0.8902899E-005  0.9118800E+02  0.7818608E-02  0.1130116E+00
         25   -1    0    0    0    0  0.00000000000E+00  0.00000000000E+00  0.99999998245E-14  0.12500000000E+03  0.12500000000E+03 0.  0.
        -11    1    3    3    0    0  0.57586485649E+01 -0.24322656362E+02  0.23106510609E+02  0.34039160956E+02  0.51100000000E-03 0.  1.
         23    2    1    0    0    0  0.61587517688E+01  0.26502070337E+02 -0.11429355612E+02  0.95488644131E+02  0.90813881278E+02 0.  0.
         11    1    3    3    0    0  0.40010320393E+00  0.50824726699E+02 -0.34535866221E+02  0.61449483175E+02  0.51100000000E-03 0. -1.
         22    1    1    0    0    0 -0.61587517688E+01 -0.26502070337E+02  0.11429355612E+02  0.29511355869E+02  0.00000000000E+00 0. -1.
</event>
<event>
 5    1  0.8902899E-005  0.9118800E+02  0.7818608E-02  0.1130116E+00
         25   -1    0    0    0    0  0.00000000000E+00  0.00000000000E+00  0.99999998245E-14  0.12500000000E+03  0.12500000000E+03 0.  0.
        -11    1    3    3    0    0  0.28005435365E+02  0.24095904277E+01 -0.15047364638E+02  0.31883125926E+02  0.51100000000E-03 0.  1.
         23    2    1    0    0    0 -0.26325820490E+02  0.96268972250E+01  0.13730025080E+02  0.93787189115E+02  0.88440925361E+02 0.  0.
         11    1    3    3    0    0 -0.54331255854E+02  0.72173067973E+01  0.28777389718E+02  0.61904063189E+02  0.51100000000E-03 0. -1.
         22    1    1    0    0    0  0.26325820490E+02 -0.96268972250E+01 -0.13730025080E+02  0.31212810885E+02  0.00000000000E+00 0. -1.
</event>
<event>
 5    1  0.8902899E-005  0.9118800E+02  0.7818608E-02  0.1130116E+00
         25   -1    0    0    0    0  0.00000000000E+00  0.00000000000E+00  0.99999998245E-14  0.12500000000E+03  0.12500000000E+03 0.  0.
        -11    1    3    3    0    0  0.39294464595E+02 -0.90059001811E+01  0.46516136644E+02  0.61554140026E+02  0.51100000000E-03 0. -1.
         23    2    1    0    0    0  0.29155000938E+02  0.61644351054E+00  0.30923514044E+02  0.82495202587E+02  0.70702196901E+02 0.  0.
         11    1    3    3    0    0 -0.10139463656E+02  0.96223436916E+01 -0.15592622600E+02  0.20941062560E+02  0.51100000000E-03 0.  1.
         22    1    1    0    0    0 -0.29155000938E+02 -0.61644351054E+00 -0.30923514044E+02  0.42504797413E+02  0.00000000000E+00 0. -1.
</event>
<event>
 5    1  0.8902899E-005  0.9118800E+02  0.7818608E-02  0.1130116E+00
         25   -1    0    0    0    0  0.00000000000E+00  0.00000000000E+00  0.99999998245E-14  0.12500000000E+03  0.12500000000E+03 0.  0.
        -11    1    3    3    0    0 -0.25152991833E+02  0.25698403944E+01 -0.22993678451E+02  0.34175814939E+02  0.51100000000E-03 0. -1.
         23    2    1    0    0    0  0.29846326118E+02  0.75103216935E+01  0.57973692229E+00  0.94217793946E+02  0.89047450758E+02 0.  0.
         11    1    3    3    0    0  0.54999317950E+02  0.49404812991E+01  0.23573415373E+02  0.60041979007E+02  0.51100000000E-03 0.  1.
         22    1    1    0    0    0 -0.29846326118E+02 -0.75103216935E+01 -0.57973692229E+00  0.30782206054E+02  0.00000000000E+00 0.  1.
</event>
<event>
 5    1  0.8902899E-005  0.9118800E+02  0.7818608E-02  0.1130116E+00
         25   -1    0    0    0    0  0.00000000000E+00  0.00000000000E+00  0.99999998245E-14  0.12500000000E+03  0.12500000000E+03 0.  0.
        -11    1    3    3    0    0  0.28335482552E+02 -0.17105908833E+02  0.28646063591E+02  0.43773378302E+02  0.51100000000E-03 0.  1.
         23    2    1    0    0    0  0.17910085546E+02  0.22098332032E+02 -0.45528604738E+01  0.96193126144E+02  0.91778437206E+02 0.  0.
         11    1    3    3    0    0 -0.10425397006E+02  0.39204240864E+02 -0.33198924065E+02  0.52419747842E+02  0.51100000000E-03 0. -1.
         22    1    1    0    0    0 -0.17910085546E+02 -0.22098332032E+02  0.45528604738E+01  0.28806873856E+02  0.00000000000E+00 0.  1.
</event>
<event>
 5    1  0.8902899E-005  0.9118800E+02  0.7818608E-02  0.1130116E+00
         25   -1    0    0    0    0  0.00000000000E+00  0.00000000000E+00  0.99999998245E-14  0.12500000000E+03  0.12500000000E+03 0.  0.
        -11    1    3    3    0    0  0.17635130528E+02 -0.46004859099E+02 -0.29148796008E+02  0.57245936086E+02  0.51100000000E-03 0. -1.
         23    2    1    0    0    0 -0.96212000711E+01 -0.19020405147E+02 -0.17759542718E+02  0.97255727432E+02  0.93214440180E+02 0.  0.
         11    1    3    3    0    0 -0.27256330599E+02  0.26984453951E+02  0.11389253291E+02  0.40009791346E+02  0.51100000000E-03 0.  1.
         22    1    1    0    0    0  0.96212000711E+01  0.19020405147E+02  0.17759542718E+02  0.27744272568E+02  0.00000000000E+00 0. -1.
</event>
<event>
 5    1  0.8902899E-005  0.9118800E+02  0.7818608E-02  0.1130116E+00
         25   -1    0    0    0    0  0.00000000000E+00  0.00000000000E+00  0.99999998245E-14  0.12500000000E+03  0.12500000000E+03 0.  0.
        -11    1    3    3    0    0 -0.29266014113E+02 -0.52956010653E+02  0.52435712732E+01  0.60731653084E+02  0.51100000000E-03 0. -1.
         23    2    1    0    0    0 -0.40952977315E+01 -0.28439300003E+02 -0.61791979822E-01  0.96267282300E+02  0.91879380576E+02 0.  0.
         11    1    3    3    0    0  0.25170716382E+02  0.24516710650E+02 -0.53053632531E+01  0.35535629216E+02  0.51100000000E-03 0.  1.
         22    1    1    0    0    0  0.40952977315E+01  0.28439300003E+02  0.61791979822E-01  0.28732717700E+02  0.00000000000E+00 0. -1.
</event>
<event>
 5    1  0.8902899E-005  0.9118800E+02  0.7818608E-02  0.1130116E+00
         25   -1    0    0    0    0  0.00000000000E+00  0.00000000000E+00  0.99999998245E-14  0.12500000000E+03  0.12500000000E+03 0.  0.
        -11    1    3    3    0    0  0.19594243944E+02  0.34718344209E+02 -0.28398677113E+02  0.48946733112E+02  0.51100000000E-03 0.  1.
         23    2    1    0    0    0 -0.17637318918E+02  0.23828553907E+02 -0.32508890920E+01  0.95176464331E+02  0.90383162607E+02 0.  0.
         11    1    3    3    0    0 -0.37231562862E+02 -0.10889790302E+02  0.25147788021E+02  0.46229731219E+02  0.51100000000E-03 0. -1.
         22    1    1    0    0    0  0.17637318918E+02 -0.23828553907E+02  0.32508890920E+01  0.29823535669E+02  0.00000000000E+00 0. -1.
</event>
<event>
 5    1  0.8902899E-005  0.9118800E+02  0.7818608E-02  0.1130116E+00
         25   -1    0    0    0    0  0.00000000000E+00  0.00000000000E+00  0.99999998245E-14  0.12500000000E+03  0.12500000000E+03 0.  0.
        -11    1    3    3    0    0  0.24953887362E+02 -0.55514101197E+02  0.76433818162E+01  0.61342751911E+02  0.51100000000E-03 0.  1.
         23    2    1    0    0    0  0.48480237731E+01 -0.27218988600E+02 -0.17343429896E+01  0.97298292101E+02  0.93271501677E+02 0.  0.
         11    1    3    3    0    0 -0.20105863589E+02  0.28295112597E+02 -0.93777248058E+01  0.35955540189E+02  0.51100000000E-03 0. -1.
         22    1    1    0    0    0 -0.48480237731E+01  0.27218988600E+02  0.17343429896E+01  0.27701707899E+02  0.00000000000E+00 0.  1.
</event>
<event>
 5    1  0.8902899E-005  0.9118800E+02  0.7818608E-02  0.1130116E+00
         25   -1    0    0    0    0  0.00000000000E+00  0.00000000000E+00  0.99999998245E-14  0.12500000000E+03  0.12500000000E+03 0.  0.
        -11    1    3    3    0    0 -0.26627876815E+02 -0.12979881466E+02  0.12013713615E+02  0.31966395819E+02  0.51100000000E-03 0.  1.
         23    2    1    0    0    0  0.99199218834E+01  0.12579658762E+02 -0.28556188448E+02  0.92256931063E+02  0.86250987043E+02 0.  0.
         11    1    3    3    0    0  0.36547798699E+02  0.25559540228E+02 -0.40569902063E+02  0.60290535244E+02  0.51100000000E-03 0. -1.
         22    1    1    0    0    0 -0.99199218834E+01 -0.12579658762E+02  0.28556188448E+02  0.32743068937E+02  0.00000000000E+00 0. -1.
</event>
<event>
 5    1  0.8902899E-005  0.9118800E+02  0.7818608E-02  0.1130116E+00
         25   -1    0    0    0    0  0.00000000000E+00  0.00000000000E+00  0.99999998245E-14  0.12500000000E+03  0.12500000000E+03 0.  0.
        -11    1    3    3    0    0 -0.23485070129E+02  0.48732558039E+01 -0.48126317973E+02  0.53772108226E+02  0.51100000000E-03 0.  1.
         23    2    1    0    0    0 -0.21834619626E+02 -0.16547552627E+02 -0.13658424803E+02  0.94387507775E+02  0.89285368027E+02 0.  0.
         11    1    3    3    0    0  0.16504505034E+01 -0.21420808431E+02  0.34467893170E+02  0.40615399549E+02  0.51100000000E-03 0. -1.
         22    1    1    0    0    0  0.21834619626E+02  0.16547552627E+02  0.13658424803E+02  0.30612492225E+02  0.00000000000E+00 0.  1.
</event>
<event>
 5    1  0.8902899E-005  0.9118800E+02  0.7818608E-02  0.1130116E+00
         25   -1    0    0    0    0  0.00000000000E+00  0.00000000000E+00  0.99999998245E-14  0.12500000000E+03  0.12500000000E+03 0.  0.
        -11    1    3    3    0    0  0.11974445430E+01 -0.10035801478E+02  0.36691215591E+02  0.38057804542E+02  0.51100000000E-03 0.  1.
         23    2    1    0    0    0 -0.19642988123E+01 -0.11257178768E+02 -0.23776266568E+02  0.98620208576E+02  0.95026586512E+02 0.  0.
         11    1    3    3    0    0 -0.31617433554E+01 -0.12213772904E+01 -0.60467482159E+02  0.60562404035E+02  0.51100000000E-03 0. -1.
         22    1    1    0    0    0  0.19642988123E+01  0.11257178768E+02  0.23776266568E+02  0.26379791424E+02  0.00000000000E+00 0. -1.
</event>
<event>
 5    1  0.8902899E-005  0.9118800E+02  0.7818608E-02  0.1130116E+00
         25   -1    0    0    0    0  0.00000000000E+00  0.00000000000E+00  0.99999998245E-14  0.12500000000E+03  0.12500000000E+03 0.  0.
        -11    1    3    3    0    0 -0.20433058982E+02  0.23723334852E+02  0.15923150347E+02  0.35126247069E+02  0.51100000000E-03 0.  1.
         23    2    1    0    0    0 -0.16925144230E+02 -0.27761515185E+02  0.19893368319E+02  0.86882965283E+02  0.78075228598E+02 0.  0.
         11    1    3    3    0    0  0.35079147525E+01 -0.51484850037E+02  0.39702179720E+01  0.51756718214E+02  0.51100000000E-03 0. -1.
         22    1    1    0    0    0  0.16925144230E+02  0.27761515185E+02 -0.19893368319E+02  0.38117034717E+02  0.00000000000E+00 0. -1.
</event>
<event>
 5    1  0.8902899E-005  0.9118800E+02  0.7818608E-02  0.1130116E+00
         25   -1    0    0    0    0  0.00000000000E+00  0.00000000000E+00  0.99999998245E-14  0.12500000000E+03  0.12500000000E+03 0.  0.
        -11    1    3    3    0    0 -0.40810208977E+02  0.19293215230E+02 -0.14421972553E+02  0.47388760305E+02  0.51100000000E-03 0. -1.
         23    2    1    0    0    0  0.69648821570E+01  0.26563292818E+02 -0.10987312451E+01  0.97516817521E+02  0.93563905328E+02 0.  0.
         11    1    3    3    0    0  0.47775091134E+02  0.72700775888E+01  0.13323241308E+02  0.50128057216E+02  0.51100000000E-03 0.  1.
         22    1    1    0    0    0 -0.69648821570E+01 -0.26563292818E+02  0.10987312451E+01  0.27483182479E+02  0.00000000000E+00 0.  1.
</event>
<event>
 5    1  0.8902899E-005  0.9118800E+02  0.7818608E-02  0.1130116E+00
         25   -1    0    0    0    0  0.00000000000E+00  0.00000000000E+00  0.99999998245E-14  0.12500000000E+03  0.12500000000E+03 0.  0.
        -11    1    3    3    0    0  0.12923138452E+02 -0.26537908414E+02 -0.20989916931E+02  0.36219396785E+02  0.51100000000E-03 0.  1.
         23    2    1    0    0    0  0.24425534929E+01  0.29312672693E+02 -0.81529811325E+01  0.94476731018E+02  0.89410193796E+02 0.  0.
         11    1    3    3    0    0 -0.10480584959E+02  0.55850581107E+02  0.12836935798E+02  0.58257334234E+02  0.51100000000E-03 0. -1.
         22    1    1    0    0    0 -0.24425534929E+01 -0.29312672693E+02  0.81529811325E+01  0.30523268982E+02  0.00000000000E+00 0. -1.
</event>
<event>
 5    1  0.8902899E-005  0.9118800E+02  0.7818608E-02  0.1130116E+00
         25   -1    0    0    0    0  0.00000000000E+00  0.00000000000E+00  0.99999998245E-14  0.12500000000E+03  0.12500000000E+03 0.  0.
        -11    1    3    3    0    0  0.10517547346E+02  0.26816581458E+02 -0.30013795361E+02  0.41600189369E+02  0.51100000000E-03 0.  1.
         23    2    1    0    0    0 -0.25492547803E+02  0.11933312000E+02  0.76908550274E+01  0.95820843401E+02  0.91269988771E+02 0.  0.
         11    1    3    3    0    0 -0.36010095149E+02 -0.14883269459E+02  0.37704650389E+02  0.54220654032E+02  0.51100000000E-03 0. -1.
         22    1    1    0    0    0  0.25492547803E+02 -0.11933312000E+02 -0.76908550274E+01  0.29179156599E+02  0.00000000000E+00 0. -1.
</event>
<event>
 5    1  0.8902899E-005  0.9118800E+02  0.7818608E-02  0.1130116E+00
         25   -1    0    0    0    0  0.00000000000E+00  0.00000000000E+00  0.99999998245E-14  0.12500000000E+03  0.12500000000E+03 0.  0.
        -11    1    3    3    0    0 -0.45174063349E+02 -0.28042216169E+02 -0.14000714669E+02  0.54982559950E+02  0.51100000000E-03 0.  1.
         23    2    1    0    0    0 -0.14237971040E+02 -0.21858825315E+01 -0.24440058662E+02  0.96630749583E+02  0.92372546765E+02 0.  0.
         11    1    3    3    0    0  0.30936092309E+02  0.25856333637E+02 -0.10439343993E+02  0.41648189634E+02  0.51100000000E-03 0. -1.
         22    1    1    0    0    0  0.14237971040E+02  0.21858825315E+01  0.24440058662E+02  0.28369250417E+02  0.00000000000E+00 0.  1.
</event>
<event>
 5    1  0.8902899E-005  0.9118800E+02  0.7818608E-02  0.1130116E+00
         25   -1    0    0    0    0  0.00000000000E+00  0.00000000000E+00  0.99999998245E-14  0.12500000000E+03  0.12500000000E+03 0.  0.
        -11    1    3    3    0    0  0.18030654444E+02 -0.21649102099E+02  0.53760996124E+02  0.60696234034E+02  0.51100000000E-03 0. -1.
         23    2    1    0    0    0  0.24544134911E+01 -0.17978805547E+02  0.20395284020E+02  0.97701113489E+02  0.93809798914E+02 0.  0.
         11    1    3    3    0    0 -0.15576240953E+02  0.36702965522E+01 -0.33365712104E+02  0.37004879455E+02  0.51100000000E-03 0.  1.
         22    1    1    0    0    0 -0.24544134911E+01  0.17978805547E+02 -0.20395284020E+02  0.27298886511E+02  0.00000000000E+00 0. -1.
</event>
<event>
 5    1  0.8902899E-005  0.9118800E+02  0.7818608E-02  0.1130116E+00
         25   -1    0    0    0    0  0.00000000000E+00  0.00000000000E+00  0.99999998245E-14  0.12500000000E+03  0.12500000000E+03 0.  0.
        -11    1    3    3    0    0  0.35642038933E+02  0.36210008264E+02  0.16334818536E+02  0.53369897270E+02  0.51100000000E-03 0.  1.
         23    2    1    0    0    0  0.56308234599E+00  0.13744713657E+02  0.25503557710E+02  0.96023014803E+02  0.91546456517E+02 0.  0.
         11    1    3    3    0    0 -0.35078956587E+02 -0.22465294607E+02  0.91687391736E+01  0.42653117533E+02  0.51100000000E-03 0. -1.
         22    1    1    0    0    0 -0.56308234599E+00 -0.13744713657E+02 -0.25503557710E+02  0.28976985197E+02  0.00000000000E+00 0.  1.
</event>
<event>
 5    1  0.8902899E-005  0.9118800E+02  0.7818608E-02  0.1130116E+00
         25   -1    0    0    0    0  0.00000000000E+00  0.00000000000E+00  0.99999998245E-14  0.12500000000E+03  0.12500000000E+03 0.  0.
        -11    1    3    3    0    0 -0.80183610106E+01  0.25844866525E+02  0.48706656694E+02  0.55718844618E+02  0.51100000000E-03 0. -1.
         23    2    1    0    0    0  0.13803607062E+02  0.17773445623E+01  0.26489907161E+02  0.95076535913E+02  0.90244855688E+02 0.  0.
         11    1    3    3    0    0  0.21821968072E+02 -0.24067521963E+02 -0.22216749533E+02  0.39357691295E+02  0.51100000000E-03 0.  1.
         22    1    1    0    0    0 -0.13803607062E+02 -0.17773445623E+01 -0.26489907161E+02  0.29923464087E+02  0.00000000000E+00 0. -1.
</event>
<event>
 5    1  0.8902899E-005  0.9118800E+02  0.7818608E-02  0.1130116E+00
         25   -1    0    0    0    0  0.00000000000E+00  0.00000000000E+00  0.99999998245E-14  0.12500000000E+03  0.12500000000E+03 0.  0.
        -11    1    3    3    0    0  0.36529254423E+02 -0.38095740759E+02  0.70510553642E+00  0.52784174396E+02  0.51100000000E-03 0.  1.
         23    2    1    0    0    0  0.45056772752E+02 -0.15921871103E+02 -0.41521786046E+01  0.77032726391E+02  0.60275879072E+02 0.  0.
         11    1    3    3    0    0  0.85275183297E+01  0.22173869656E+02 -0.48572841410E+01  0.24248551995E+02  0.51100000000E-03 0. -1.
         22    1    1    0    0    0 -0.45056772752E+02  0.15921871103E+02  0.41521786046E+01  0.47967273609E+02  0.00000000000E+00 0.  1.
</event>
<event>
 5    1  0.8902899E-005  0.9118800E+02  0.7818608E-02  0.1130116E+00
         25   -1    0    0    0    0  0.00000000000E+00  0.00000000000E+00  0.99999998245E-14  0.12500000000E+03  0.12500000000E+03 0.  0.
        -11    1    3    3    0    0 -0.40767828625E+02  0.10311898412E+02  0.45516294919E+02  0.61968412946E+02  0.51100000000E-03 0.  1.
         23    2    1    0    0    0 -0.19739366878E+02 -0.52005477194E+00  0.23751346069E+02  0.94112470125E+02  0.88899479927E+02 0.  0.
         11    1    3    3    0    0  0.21028461747E+02 -0.10831953184E+02 -0.21764948850E+02  0.32144057179E+02  0.51100000000E-03 0. -1.
         22    1    1    0    0    0  0.19739366878E+02  0.52005477194E+00 -0.23751346069E+02  0.30887529875E+02  0.00000000000E+00 0.  1.
</event>
<event>
 5    1  0.8902899E-005  0.9118800E+02  0.7818608E-02  0.1130116E+00
         25   -1    0    0    0    0  0.00000000000E+00  0.00000000000E+00  0.99999998245E-14  0.12500000000E+03  0.12500000000E+03 0.  0.
        -11    1    3    3    0    0  0.34583001320E+01  0.53081900942E+02  0.16215190358E+02  0.55610974151E+02  0.51100000000E-03 0. -1.
         23    2    1    0    0    0 -0.55163769915E+01  0.26275679344E+02 -0.12036483445E+02  0.95576902375E+02  0.90935282447E+02 0.  0.
         11    1    3    3    0    0 -0.89746771235E+01 -0.26806221598E+02 -0.28251673803E+02  0.39965928224E+02  0.51100000000E-03 0.  1.
         22    1    1    0    0    0  0.55163769915E+01 -0.26275679344E+02  0.12036483445E+02  0.29423097625E+02  0.00000000000E+00 0.  1.
</event>
<event>
 5    1  0.8902899E-005  0.9118800E+02  0.7818608E-02  0.1130116E+00
         25   -1    0    0    0    0  0.00000000000E+00  0.00000000000E+00  0.99999998245E-14  0.12500000000E+03  0.12500000000E+03 0.  0.
        -11    1    3    3    0    0  0.25312449583E+02 -0.14915210164E+02  0.50660233184E+02  0.58563152448E+02  0.51100000000E-03 0. -1.
         23    2    1    0    0    0  0.22464765216E+02 -0.20276927722E+02  0.22713009200E+02  0.87162184776E+02  0.78520992059E+02 0.  0.
         11    1    3    3    0    0 -0.28476843667E+01 -0.53617175580E+01 -0.27947223984E+02  0.28599032328E+02  0.51100000000E-03 0.  1.
         22    1    1    0    0    0 -0.22464765216E+02  0.20276927722E+02 -0.22713009200E+02  0.37837815224E+02  0.00000000000E+00 0. -1.
</event>
<event>
 5    1  0.8902899E-005  0.9118800E+02  0.7818608E-02  0.1130116E+00
         25   -1    0    0    0    0  0.00000000000E+00  0.00000000000E+00  0.99999998245E-14  0.12500000000E+03  0.12500000000E+03 0.  0.
        -11    1    3    3    0    0  0.44943150733E+02  0.11877902162E+02  0.34001993325E+02  0.57594330519E+02  0.51100000000E-03 0.  1.
         23    2    1    0    0    0  0.15350033296E+02  0.21925127309E+02  0.13019644737E+02  0.95236836882E+02  0.90466619371E+02 0.  0.
         11    1    3    3    0    0 -0.29593117436E+02  0.10047225148E+02 -0.20982348588E+02  0.37642506363E+02  0.51100000000E-03 0. -1.
         22    1    1    0    0    0 -0.15350033296E+02 -0.21925127309E+02 -0.13019644737E+02  0.29763163118E+02  0.00000000000E+00 0.  1.
</event>
<event>
 5    1  0.8902899E-005  0.9118800E+02  0.7818608E-02  0.1130116E+00
         25   -1    0    0    0    0  0.00000000000E+00  0.00000000000E+00  0.99999998245E-14  0.12500000000E+03  0.12500000000E+03 0.  0.
        -11    1    3    3    0    0 -0.51189294382E+02  0.54486911447E+01 -0.66513602735E+01  0.51906383887E+02  0.51100000000E-03 0.  1.
         23    2    1    0    0    0 -0.17868295273E+02 -0.22673400158E+02  0.69850147435E+00  0.96123591723E+02  0.91683684103E+02 0.  0.
         11    1    3    3    0    0  0.33320999108E+02 -0.28122091302E+02  0.73498617479E+01  0.44217207836E+02  0.51100000000E-03 0. -1.
         22    1    1    0    0    0  0.17868295273E+02  0.22673400158E+02 -0.69850147435E+00  0.28876408277E+02  0.00000000000E+00 0.  1.
</event>
<event>
 5    1  0.8902899E-005  0.9118800E+02  0.7818608E-02  0.1130116E+00
         25   -1    0    0    0    0  0.00000000000E+00  0.00000000000E+00  0.99999998245E-14  0.12500000000E+03  0.12500000000E+03 0.  0.
        -11    1    3    3    0    0 -0.42968547273E+02 -0.91684397780E+01 -0.18732130484E+02  0.47762423048E+02  0.51100000000E-03 0.  1.
         23    2    1    0    0    0  0.50540111433E+01 -0.92031306018E+01 -0.26579421244E+02  0.96421926671E+02  0.92089530717E+02 0.  0.
         11    1    3    3    0    0  0.48022558416E+02 -0.34690823786E-01 -0.78472907602E+01  0.48659503623E+02  0.51100000000E-03 0. -1.
         22    1    1    0    0    0 -0.50540111433E+01  0.92031306018E+01  0.26579421244E+02  0.28578073329E+02  0.00000000000E+00 0. -1.
</event>
<event>
 5    1  0.8902899E-005  0.9118800E+02  0.7818608E-02  0.1130116E+00
         25   -1    0    0    0    0  0.00000000000E+00  0.00000000000E+00  0.99999998245E-14  0.12500000000E+03  0.12500000000E+03 0.  0.
        -11    1    3    3    0    0 -0.15349291066E+02  0.49971470536E+02 -0.15227181654E+02  0.54448284317E+02  0.51100000000E-03 0.  1.
         23    2    1    0    0    0  0.15141546995E+02  0.20349047891E+02 -0.11585729243E+02  0.97114890756E+02  0.93025387336E+02 0.  0.
         11    1    3    3    0    0  0.30490838062E+02 -0.29622422645E+02  0.36414524113E+01  0.42666606438E+02  0.51100000000E-03 0. -1.
         22    1    1    0    0    0 -0.15141546995E+02 -0.20349047891E+02  0.11585729243E+02  0.27885109244E+02  0.00000000000E+00 0.  1.
</event>
<event>
 5    1  0.8902899E-005  0.9118800E+02  0.7818608E-02  0.1130116E+00
         25   -1    0    0    0    0  0.00000000000E+00  0.00000000000E+00  0.99999998245E-14  0.12500000000E+03  0.12500000000E+03 0.  0.
        -11    1    3    3    0    0  0.14626316129E+02  0.37453448108E+02  0.77095401761E+01  0.40940528925E+02  0.51100000000E-03 0.  1.
         23    2    1    0    0    0 -0.29627708061E+01 -0.77204720517E+01  0.29698385890E+02  0.94171801480E+02  0.88982865598E+02 0.  0.
         11    1    3    3    0    0 -0.17589086935E+02 -0.45173920159E+02  0.21988845714E+02  0.53231272555E+02  0.51100000000E-03 0. -1.
         22    1    1    0    0    0  0.29627708061E+01  0.77204720517E+01 -0.29698385890E+02  0.30828198520E+02  0.00000000000E+00 0.  1.
</event>
<event>
 5    1  0.8902899E-005  0.9118800E+02  0.7818608E-02  0.1130116E+00
         25   -1    0    0    0    0  0.00000000000E+00  0.00000000000E+00  0.99999998245E-14  0.12500000000E+03  0.12500000000E+03 0.  0.
        -11    1    3    3    0    0  0.67923820549E+01 -0.36653305566E+02  0.23360981634E+01  0.37350483501E+02  0.51100000000E-03 0.  1.
         23    2    1    0    0    0 -0.15005266358E+02  0.95561497707E+01 -0.24232782714E+02  0.94938300531E+02  0.90053179470E+02 0.  0.
         11    1    3    3    0    0 -0.21797648413E+02  0.46209455337E+02 -0.26568880877E+02  0.57587817029E+02  0.51100000000E-03 0. -1.
         22    1    1    0    0    0  0.15005266358E+02 -0.95561497707E+01  0.24232782714E+02  0.30061699469E+02  0.00000000000E+00 0. -1.
</event>
<event>
 5    1  0.8902899E-005  0.9118800E+02  0.7818608E-02  0.1130116E+00
         25   -1    0    0    0    0  0.00000000000E+00  0.00000000000E+00  0.99999998245E-14  0.12500000000E+03  0.12500000000E+03 0.  0.
        -11    1    3    3    0    0 -0.24722984056E+02  0.27816059063E+02 -0.95596526172E+01  0.38423248703E+02  0.51100000000E-03 0. -1.
         23    2    1    0    0    0  0.27850281183E+02  0.16012311793E+02 -0.22944518926E+01  0.92792907607E+02  0.87024289148E+02 0.  0.
         11    1    3    3    0    0  0.52573265239E+02 -0.11803747270E+02  0.72652007247E+01  0.54369658904E+02  0.51100000000E-03 0.  1.
         22    1    1    0    0    0 -0.27850281183E+02 -0.16012311793E+02  0.22944518926E+01  0.32207092393E+02  0.00000000000E+00 0. -1.
</event>
<event>
 5    1  0.8902899E-005  0.9118800E+02  0.7818608E-02  0.1130116E+00
         25   -1    0    0    0    0  0.00000000000E+00  0.00000000000E+00  0.99999998245E-14  0.12500000000E+03  0.12500000000E+03 0.  0.
        -11    1    3    3    0    0  0.25810887407E+02 -0.19867063052E+02 -0.14635011473E+02  0.35708341660E+02  0.51100000000E-03 0.  1.
         23    2    1    0    0    0 -0.10893510476E+02  0.23770614548E+02 -0.18667534038E+02  0.92872324803E+02  0.87138287801E+02 0.  0.
         11    1    3    3    0    0 -0.36704397883E+02  0.43637677600E+02 -0.40325225649E+01  0.57163983143E+02  0.51100000000E-03 0. -1.
         22    1    1    0    0    0  0.10893510476E+02 -0.23770614548E+02  0.18667534038E+02  0.32127675197E+02  0.00000000000E+00 0. -1.
</event>
<event>
 5    1  0.8902899E-005  0.9118800E+02  0.7818608E-02  0.1130116E+00
         25   -1    0    0    0    0  0.00000000000E+00  0.00000000000E+00  0.99999998245E-14  0.12500000000E+03  0.12500000000E+03 0.  0.
        -11    1    3    3    0    0 -0.38916194480E+02 -0.40297382442E+02 -0.26308494028E+02  0.61890920843E+02  0.51100000000E-03 0. -1.
         23    2    1    0    0    0 -0.16175689840E+02 -0.23340682190E+02 -0.86113719252E+01  0.95325160265E+02  0.90588575804E+02 0.  0.
         11    1    3    3    0    0  0.22740504641E+02  0.16956700252E+02  0.17697122103E+02  0.33434239422E+02  0.51100000000E-03 0.  1.
         22    1    1    0    0    0  0.16175689840E+02  0.23340682190E+02  0.86113719252E+01  0.29674839735E+02  0.00000000000E+00 0. -1.
</event>
<event>
 5    1  0.8902899E-005  0.9118800E+02  0.7818608E-02  0.1130116E+00
         25   -1    0    0    0    0  0.00000000000E+00  0.00000000000E+00  0.99999998245E-14  0.12500000000E+03  0.12500000000E+03 0.  0.
        -11    1    3    3    0    0  0.13110073438E+02  0.85241033857E+01 -0.51067772139E+02  0.53408348744E+02  0.51100000000E-03 0. -1.
         23    2    1    0    0    0 -0.12548236607E+02  0.18385003055E+02 -0.18259955582E+02  0.96209505785E+02  0.91800743169E+02 0.  0.
         11    1    3    3    0    0 -0.25658310045E+02  0.98608996693E+01  0.32807816556E+02  0.42801157041E+02  0.51100000000E-03 0.  1.
         22    1    1    0    0    0  0.12548236607E+02 -0.18385003055E+02  0.18259955582E+02  0.28790494215E+02  0.00000000000E+00 0. -1.
</event>
<event>
 5    1  0.8902899E-005  0.9118800E+02  0.7818608E-02  0.1130116E+00
         25   -1    0    0    0    0  0.00000000000E+00  0.00000000000E+00  0.99999998245E-14  0.12500000000E+03  0.12500000000E+03 0.  0.
        -11    1    3    3    0    0  0.25371019419E+02  0.15328498792E+02 -0.12254902492E+02  0.32075444454E+02  0.51100000000E-03 0. -1.
         23    2    1    0    0    0 -0.25965133219E+02 -0.13630712554E+02  0.83412219040E+01  0.94511306183E+02  0.89458518576E+02 0.  0.
         11    1    3    3    0    0 -0.51336152638E+02 -0.28959211346E+02  0.20596124396E+02  0.62435861729E+02  0.51100000000E-03 0.  1.
         22    1    1    0    0    0  0.25965133219E+02  0.13630712554E+02 -0.83412219040E+01  0.30488693817E+02  0.00000000000E+00 0.  1.
</event>
<event>
 5    1  0.8902899E-005  0.9118800E+02  0.7818608E-02  0.1130116E+00
         25   -1    0    0    0    0  0.00000000000E+00  0.00000000000E+00  0.99999998245E-14  0.12500000000E+03  0.12500000000E+03 0.  0.
        -11    1    3    3    0    0  0.35156138070E+01  0.46093799878E+02 -0.11657059431E+00  0.46227821889E+02  0.51100000000E-03 0. -1.
         23    2    1    0    0    0  0.19386858649E+02  0.70576255936E+01 -0.22936792531E+02  0.94149443783E+02  0.88951452747E+02 0.  0.
         11    1    3    3    0    0  0.15871244842E+02 -0.39036174284E+02 -0.22820221936E+02  0.47921621895E+02  0.51100000000E-03 0.  1.
         22    1    1    0    0    0 -0.19386858649E+02 -0.70576255936E+01  0.22936792531E+02  0.30850556217E+02  0.00000000000E+00 0. -1.
</event>
<event>
 5    1  0.8902899E-005  0.9118800E+02  0.7818608E-02  0.1130116E+00
         25   -1    0    0    0    0  0.00000000000E+00  0.00000000000E+00  0.99999998245E-14  0.12500000000E+03  0.12500000000E+03 0.  0.
        -11    1    3    3    0    0  0.30311325198E+02 -0.14241667535E+02 -0.45557080677E+00  0.33493418375E+02  0.51100000000E-03 0.  1.
         23    2    1    0    0    0 -0.24086735739E+02  0.70124906725E+01  0.17289360858E+02  0.94532511379E+02  0.89488143599E+02 0.  0.
         11    1    3    3    0    0 -0.54398060937E+02  0.21254158207E+02  0.17744931664E+02  0.61039093004E+02  0.51100000000E-03 0. -1.
         22    1    1    0    0    0  0.24086735739E+02 -0.70124906725E+01 -0.17289360858E+02  0.30467488621E+02  0.00000000000E+00 0. -1.
</event>
<event>
 4    1  0.8902899E-005  0.9118800E+02  0.7818608E-02  0.1130116E+00
         25   -1    0    0    0    0  0.00000000000E+00  0.00000000000E+00  0.99999998245E-14  0.12500000000E+03  0.12500000000E+03 0.  0.
        -11    1    1    0    0    0 -0.10526857049E+02  0.39898251408E+00  0.15890655710E+02  0.19065330984E+02  0.51100000000E-03 0.  1.
         11    1    1    0    0    0 -0.18539356116E+02  0.38204809845E+02 -0.33928581579E+02  0.54354980165E+02  0.51100000000E-03 0. -1.
         22    1    1    0    0    0  0.29066213165E+02 -0.38603792359E+02  0.18037925869E+02  0.51579688851E+02  0.00000000000E+00 0. -1.
</event>
<event>
 5    1  0.8902899E-005  0.9118800E+02  0.7818608E-02  0.1130116E+00
         25   -1    0    0    0    0  0.00000000000E+00  0.00000000000E+00  0.99999998245E-14  0.12500000000E+03  0.12500000000E+03 0.  0.
        -11    1    3    3    0    0 -0.12633191364E+02 -0.58587737057E+02  0.10236360269E+02  0.60802167143E+02  0.51100000000E-03 0.  1.
         23    2    1    0    0    0  0.13858929281E+01 -0.30106693950E+02 -0.19337235830E+01  0.94799453536E+02  0.89860243623E+02 0.  0.
         11    1    3    3    0    0  0.14019084292E+02  0.28481043107E+02 -0.12170083852E+02  0.33997286393E+02  0.51100000000E-03 0. -1.
         22    1    1    0    0    0 -0.13858929281E+01  0.30106693950E+02  0.19337235830E+01  0.30200546464E+02  0.00000000000E+00 0.  1.
</event>
<event>
 5    1  0.8902899E-005  0.9118800E+02  0.7818608E-02  0.1130116E+00
         25   -1    0    0    0    0  0.00000000000E+00  0.00000000000E+00  0.99999998245E-14  0.12500000000E+03  0.12500000000E+03 0.  0.
        -11    1    3    3    0    0  0.23824640077E+02  0.25658894615E+02  0.11556413976E+02  0.36871981936E+02  0.51100000000E-03 0. -1.
         23    2    1    0    0    0 -0.17648331213E+02 -0.18626507973E+02 -0.27044830142E+01  0.99198360086E+02  0.95784080209E+02 0.  0.
         11    1    3    3    0    0 -0.41472971290E+02 -0.44285402588E+02 -0.14260896991E+02  0.62326378150E+02  0.51100000000E-03 0.  1.
         22    1    1    0    0    0  0.17648331213E+02  0.18626507973E+02  0.27044830142E+01  0.25801639914E+02  0.00000000000E+00 0.  1.
</event>
<event>
 5    1  0.8902899E-005  0.9118800E+02  0.7818608E-02  0.1130116E+00
         25   -1    0    0    0    0  0.00000000000E+00  0.00000000000E+00  0.99999998245E-14  0.12500000000E+03  0.12500000000E+03 0.  0.
        -11    1    3    3    0    0  0.24133013333E+02  0.44461540941E+02 -0.29121661371E+02  0.58372100499E+02  0.51100000000E-03 0.  1.
         23    2    1    0    0    0  0.59465533276E+01  0.96143854491E+01 -0.24585001930E+02  0.97940431934E+02  0.94128146606E+02 0.  0.
         11    1    3    3    0    0 -0.18186460006E+02 -0.34847155492E+02  0.45366594417E+01  0.39568331435E+02  0.51100000000E-03 0. -1.
         22    1    1    0    0    0 -0.59465533276E+01 -0.96143854491E+01  0.24585001930E+02  0.27059568066E+02  0.00000000000E+00 0.  1.
</event>
<event>
 5    1  0.8902899E-005  0.9118800E+02  0.7818608E-02  0.1130116E+00
         25   -1    0    0    0    0  0.00000000000E+00  0.00000000000E+00  0.99999998245E-14  0.12500000000E+03  0.12500000000E+03 0.  0.
        -11    1    3    3    0    0 -0.55811845044E+01 -0.31393721926E+02 -0.15726308870E+02  0.35553230342E+02  0.51100000000E-03 0.  1.
         23    2    1    0    0    0  0.41119085898E+01  0.96126487534E+01  0.27294405009E+02  0.95771668657E+02  0.91202615994E+02 0.  0.
         11    1    3    3    0    0  0.96930930942E+01  0.41006370680E+02  0.43020713879E+02  0.60218438314E+02  0.51100000000E-03 0. -1.
         22    1    1    0    0    0 -0.41119085898E+01 -0.96126487534E+01 -0.27294405009E+02  0.29228331343E+02  0.00000000000E+00 0. -1.
</event>
<event>
 5    1  0.8902899E-005  0.9118800E+02  0.7818608E-02  0.1130116E+00
         25   -1    0    0    0    0  0.00000000000E+00  0.00000000000E+00  0.99999998245E-14  0.12500000000E+03  0.12500000000E+03 0.  0.
        -11    1    3    3    0    0 -0.47793992874E+02  0.38190933556E+02  0.65771913043E+01  0.61531070253E+02  0.51100000000E-03 0.  1.
         23    2    1    0    0    0 -0.21541509826E+02  0.14963783331E+02  0.10385144973E+02  0.96790024934E+02  0.92587829834E+02 0.  0.
         11    1    3    3    0    0  0.26252483049E+02 -0.23227150225E+02  0.38079536684E+01  0.35258954681E+02  0.51100000000E-03 0. -1.
         22    1    1    0    0    0  0.21541509826E+02 -0.14963783331E+02 -0.10385144973E+02  0.28209975066E+02  0.00000000000E+00 0.  1.
</event>
<event>
 5    1  0.8902899E-005  0.9118800E+02  0.7818608E-02  0.1130116E+00
         25   -1    0    0    0    0  0.00000000000E+00  0.00000000000E+00  0.99999998245E-14  0.12500000000E+03  0.12500000000E+03 0.  0.
        -11    1    3    3    0    0 -0.31632003198E+02 -0.36562927663E+02  0.24996795134E+02  0.54426749608E+02  0.51100000000E-03 0.  1.
         23    2    1    0    0    0 -0.19749397634E+02  0.31708103157E+01  0.20851291539E+02  0.96105898459E+02  0.91659558230E+02 0.  0.
         11    1    3    3    0    0  0.11882605564E+02  0.39733737978E+02 -0.41455035952E+01  0.41679148852E+02  0.51100000000E-03 0. -1.
         22    1    1    0    0    0  0.19749397634E+02 -0.31708103157E+01 -0.20851291539E+02  0.28894101541E+02  0.00000000000E+00 0.  1.
</event>
<event>
 5    1  0.8902899E-005  0.9118800E+02  0.7818608E-02  0.1130116E+00
         25   -1    0    0    0    0  0.00000000000E+00  0.00000000000E+00  0.99999998245E-14  0.12500000000E+03  0.12500000000E+03 0.  0.
        -11    1    3    3    0    0  0.20330271393E+02 -0.31798753422E+02 -0.64960526839E+01  0.38297249964E+02  0.51100000000E-03 0. -1.
         23    2    1    0    0    0  0.93595077856E+01  0.11905425394E+02  0.26726808406E+02  0.94280920792E+02  0.89136020766E+02 0.  0.
         11    1    3    3    0    0 -0.10970763608E+02  0.43704178816E+02  0.33222861090E+02  0.55983670828E+02  0.51100000000E-03 0.  1.
         22    1    1    0    0    0 -0.93595077856E+01 -0.11905425394E+02 -0.26726808406E+02  0.30719079208E+02  0.00000000000E+00 0.  1.
</event>
<event>
 5    1  0.8902899E-005  0.9118800E+02  0.7818608E-02  0.1130116E+00
         25   -1    0    0    0    0  0.00000000000E+00  0.00000000000E+00  0.99999998245E-14  0.12500000000E+03  0.12500000000E+03 0.  0.
        -11    1    3    3    0    0 -0.44850531000E+02 -0.32647861929E+02 -0.32758292887E+01  0.55571432205E+02  0.51100000000E-03 0.  1.
         23    2    1    0    0    0 -0.21897194798E+02  0.13881197775E+01 -0.15185362775E+02  0.98316498372E+02  0.94626236282E+02 0.  0.
         11    1    3    3    0    0  0.22953336202E+02  0.34035981706E+02 -0.11909533486E+02  0.42745066167E+02  0.51100000000E-03 0. -1.
         22    1    1    0    0    0  0.21897194798E+02 -0.13881197775E+01  0.15185362775E+02  0.26683501628E+02  0.00000000000E+00 0.  1.
</event>
<event>
 5    1  0.8902899E-005  0.9118800E+02  0.7818608E-02  0.1130116E+00
         25   -1    0    0    0    0  0.00000000000E+00  0.00000000000E+00  0.99999998245E-14  0.12500000000E+03  0.12500000000E+03 0.  0.
        -11    1    3    3    0    0 -0.45543695822E+02  0.16929766392E+02  0.29730917048E+02  0.56962905895E+02  0.51100000000E-03 0. -1.
         23    2    1    0    0    0 -0.25829028204E+02 -0.92133215499E+01  0.74005154552E+01  0.96595922459E+02  0.92325406118E+02 0.  0.
         11    1    3    3    0    0  0.19714667619E+02 -0.26143087942E+02 -0.22330401593E+02  0.39633016564E+02  0.51100000000E-03 0.  1.
         22    1    1    0    0    0  0.25829028204E+02  0.92133215499E+01 -0.74005154552E+01  0.28404077541E+02  0.00000000000E+00 0. -1.
</event>
<event>
 5    1  0.8902899E-005  0.9118800E+02  0.7818608E-02  0.1130116E+00
         25   -1    0    0    0    0  0.00000000000E+00  0.00000000000E+00  0.99999998245E-14  0.12500000000E+03  0.12500000000E+03 0.  0.
        -11    1    3    3    0    0  0.78669247893E+00 -0.45447633107E+02  0.31033775327E+02  0.55038181760E+02  0.51100000000E-03 0.  1.
         23    2    1    0    0    0 -0.17506208134E+02 -0.25689607920E+02  0.32261898295E+01  0.93745695031E+02  0.88382259293E+02 0.  0.
         11    1    3    3    0    0 -0.18292900613E+02  0.19758025187E+02 -0.27807585498E+02  0.38707513271E+02  0.51100000000E-03 0. -1.
         22    1    1    0    0    0  0.17506208134E+02  0.25689607920E+02 -0.32261898295E+01  0.31254304969E+02  0.00000000000E+00 0.  1.
</event>
<event>
 5    1  0.8902899E-005  0.9118800E+02  0.7818608E-02  0.1130116E+00
         25   -1    0    0    0    0  0.00000000000E+00  0.00000000000E+00  0.99999998245E-14  0.12500000000E+03  0.12500000000E+03 0.  0.
        -11    1    3    3    0    0 -0.33679445690E+02  0.11595844412E+02 -0.42855655612E+02  0.55725899614E+02  0.51100000000E-03 0.  1.
         23    2    1    0    0    0 -0.25858916529E+02 -0.88531767300E+01 -0.86622590824E+01  0.96327765439E+02  0.91961629824E+02 0.  0.
         11    1    3    3    0    0  0.78205291609E+01 -0.20449021142E+02  0.34193396529E+02  0.40601865825E+02  0.51100000000E-03 0. -1.
         22    1    1    0    0    0  0.25858916529E+02  0.88531767300E+01  0.86622590824E+01  0.28672234561E+02  0.00000000000E+00 0.  1.
</event>
<event>
 5    1  0.8902899E-005  0.9118800E+02  0.7818608E-02  0.1130116E+00
         25   -1    0    0    0    0  0.00000000000E+00  0.00000000000E+00  0.99999998245E-14  0.12500000000E+03  0.12500000000E+03 0.  0.
        -11    1    3    3    0    0 -0.47386053728E+02  0.23722976893E+02  0.10936223937E+02  0.54109321885E+02  0.51100000000E-03 0. -1.
         23    2    1    0    0    0 -0.35547083089E+02  0.16442032177E+02 -0.14615345781E+02  0.83196365343E+02  0.71931156919E+02 0.  0.
         11    1    3    3    0    0  0.11838970639E+02 -0.72809447162E+01 -0.25551569719E+02  0.29087043458E+02  0.51100000000E-03 0.  1.
         22    1    1    0    0    0  0.35547083089E+02 -0.16442032177E+02  0.14615345781E+02  0.41803634657E+02  0.00000000000E+00 0.  1.
</event>
<event>
 5    1  0.8902899E-005  0.9118800E+02  0.7818608E-02  0.1130116E+00
         25   -1    0    0    0    0  0.00000000000E+00  0.00000000000E+00  0.99999998245E-14  0.12500000000E+03  0.12500000000E+03 0.  0.
        -11    1    3    3    0    0 -0.45168527429E+02  0.20937892869E+00  0.33245935692E+02  0.56085042123E+02  0.51100000000E-03 0. -1.
         23    2    1    0    0    0 -0.39471277016E+02 -0.12013121257E+02  0.10666860726E+02  0.82384525001E+02  0.70506249725E+02 0.  0.
         11    1    3    3    0    0  0.56972504127E+01 -0.12222500185E+02 -0.22579074966E+02  0.26299482878E+02  0.51100000000E-03 0.  1.
         22    1    1    0    0    0  0.39471277016E+02  0.12013121257E+02 -0.10666860726E+02  0.42615474999E+02  0.00000000000E+00 0. -1.
</event>
<event>
 5    1  0.8902899E-005  0.9118800E+02  0.7818608E-02  0.1130116E+00
         25   -1    0    0    0    0  0.00000000000E+00  0.00000000000E+00  0.99999998245E-14  0.12500000000E+03  0.12500000000E+03 0.  0.
        -11    1    3    3    0    0  0.59330698870E+02  0.70199364870E+01 -0.16099372333E+02  0.61875690917E+02  0.51100000000E-03 0.  1.
         23    2    1    0    0    0  0.31750294086E+02 -0.13725932697E+01 -0.47102112720E+01  0.92872888753E+02  0.87139096784E+02 0.  0.
         11    1    3    3    0    0 -0.27580404784E+02 -0.83925297567E+01  0.11389161061E+02  0.30997197836E+02  0.51100000000E-03 0. -1.
         22    1    1    0    0    0 -0.31750294086E+02  0.13725932697E+01  0.47102112720E+01  0.32127111247E+02  0.00000000000E+00 0.  1.
</event>
<event>
 5    1  0.8902899E-005  0.9118800E+02  0.7818608E-02  0.1130116E+00
         25   -1    0    0    0    0  0.00000000000E+00  0.00000000000E+00  0.99999998245E-14  0.12500000000E+03  0.12500000000E+03 0.  0.
        -11    1    3    3    0    0  0.56028743744E+02 -0.22916402214E+02 -0.55231475140E+01  0.60785580319E+02  0.51100000000E-03 0.  1.
         23    2    1    0    0    0  0.19765580784E+02 -0.19098946762E+02 -0.33061231116E+01  0.97316459743E+02  0.93295846294E+02 0.  0.
         11    1    3    3    0    0 -0.36263162961E+02  0.38174554514E+01  0.22170244024E+01  0.36530879424E+02  0.51100000000E-03 0. -1.
         22    1    1    0    0    0 -0.19765580784E+02  0.19098946762E+02  0.33061231116E+01  0.27683540257E+02  0.00000000000E+00 0.  1.
</event>
<event>
 5    1  0.8902899E-005  0.9118800E+02  0.7818608E-02  0.1130116E+00
         25   -1    0    0    0    0  0.00000000000E+00  0.00000000000E+00  0.99999998245E-14  0.12500000000E+03  0.12500000000E+03 0.  0.
        -11    1    3    3    0    0  0.53155634044E+02  0.21794596463E+02  0.28162424439E+01  0.57519188863E+02  0.51100000000E-03 0.  1.
         23    2    1    0    0    0  0.59309179063E+01  0.17001044097E+02  0.80545091670E+01  0.10527472673E+03  0.10341025908E+03 0.  0.
         11    1    3    3    0    0 -0.47224716138E+02 -0.47935523663E+01  0.52382667231E+01  0.47755537869E+02  0.51100000000E-03 0. -1.
         22    1    1    0    0    0 -0.59309179063E+01 -0.17001044097E+02 -0.80545091670E+01  0.19725273268E+02  0.00000000000E+00 0.  1.
</event>
<event>
 5    1  0.8902899E-005  0.9118800E+02  0.7818608E-02  0.1130116E+00
         25   -1    0    0    0    0  0.00000000000E+00  0.00000000000E+00  0.99999998245E-14  0.12500000000E+03  0.12500000000E+03 0.  0.
        -11    1    3    3    0    0 -0.26274579284E+02 -0.35925192024E+02  0.15884627609E+02  0.47257743630E+02  0.51100000000E-03 0. -1.
         23    2    1    0    0    0 -0.41019882507E+01 -0.25602201486E+02 -0.21081518117E+02  0.91582498078E+02  0.85267957168E+02 0.  0.
         11    1    3    3    0    0  0.22172591033E+02  0.10322990538E+02 -0.36966145726E+02  0.44324754448E+02  0.51100000000E-03 0.  1.
         22    1    1    0    0    0  0.41019882507E+01  0.25602201486E+02  0.21081518117E+02  0.33417501922E+02  0.00000000000E+00 0. -1.
</event>
<event>
 5    1  0.8902899E-005  0.9118800E+02  0.7818608E-02  0.1130116E+00
         25   -1    0    0    0    0  0.00000000000E+00  0.00000000000E+00  0.99999998245E-14  0.12500000000E+03  0.12500000000E+03 0.  0.
        -11    1    3    3    0    0 -0.21210963857E+02 -0.45914379592E+02 -0.22808870734E+02  0.55482247841E+02  0.51100000000E-03 0. -1.
         23    2    1    0    0    0 -0.23880383085E+02 -0.17777415089E+02  0.46267361812E+01  0.94871676595E+02  0.89960653336E+02 0.  0.
         11    1    3    3    0    0 -0.26694192283E+01  0.28136964503E+02  0.27435606915E+02  0.39389428754E+02  0.51100000000E-03 0.  1.
         22    1    1    0    0    0  0.23880383085E+02  0.17777415089E+02 -0.46267361812E+01  0.30128323405E+02  0.00000000000E+00 0. -1.
</event>
<event>
 5    1  0.8902899E-005  0.9118800E+02  0.7818608E-02  0.1130116E+00
         25   -1    0    0    0    0  0.00000000000E+00  0.00000000000E+00  0.99999998245E-14  0.12500000000E+03  0.12500000000E+03 0.  0.
        -11    1    3    3    0    0 -0.32564101016E+02 -0.25662657524E+02  0.26463561012E+01  0.41545106415E+02  0.51100000000E-03 0. -1.
         23    2    1    0    0    0 -0.49797954900E+01  0.24950097764E+02  0.42309260243E+01  0.99208402985E+02  0.95797185482E+02 0.  0.
         11    1    3    3    0    0  0.27584305526E+02  0.50612755288E+02  0.15845699231E+01  0.57663296570E+02  0.51100000000E-03 0.  1.
         22    1    1    0    0    0  0.49797954900E+01 -0.24950097764E+02 -0.42309260243E+01  0.25791597015E+02  0.00000000000E+00 0.  1.
</event>
<event>
 5    1  0.8902899E-005  0.9118800E+02  0.7818608E-02  0.1130116E+00
         25   -1    0    0    0    0  0.00000000000E+00  0.00000000000E+00  0.99999998245E-14  0.12500000000E+03  0.12500000000E+03 0.  0.
        -11    1    3    3    0    0  0.43645372795E+02 -0.30508535683E+02  0.26408399536E+02  0.59439825725E+02  0.51100000000E-03 0. -1.
         23    2    1    0    0    0  0.18691830888E+02 -0.22525344719E+02  0.13428968493E+01  0.95698480097E+02  0.91102250380E+02 0.  0.
         11    1    3    3    0    0 -0.24953541907E+02  0.79831909636E+01 -0.25065502687E+02  0.36258654372E+02  0.51100000000E-03 0.  1.
         22    1    1    0    0    0 -0.18691830888E+02  0.22525344719E+02 -0.13428968493E+01  0.29301519903E+02  0.00000000000E+00 0. -1.
</event>
<event>
 5    1  0.8902899E-005  0.9118800E+02  0.7818608E-02  0.1130116E+00
         25   -1    0    0    0    0  0.00000000000E+00  0.00000000000E+00  0.99999998245E-14  0.12500000000E+03  0.12500000000E+03 0.  0.
        -11    1    3    3    0    0 -0.31490167726E+02 -0.12927056517E+02  0.23037606266E+02  0.41103172096E+02  0.51100000000E-03 0.  1.
         23    2    1    0    0    0  0.28578375050E+01  0.27478860319E+02  0.85923183935E+01  0.96067614426E+02  0.91607333803E+02 0.  0.
         11    1    3    3    0    0  0.34348005231E+02  0.40405916836E+02 -0.14445287873E+02  0.54964442330E+02  0.51100000000E-03 0. -1.
         22    1    1    0    0    0 -0.28578375050E+01 -0.27478860319E+02 -0.85923183935E+01  0.28932385574E+02  0.00000000000E+00 0. -1.
</event>
<event>
 5    1  0.8902899E-005  0.9118800E+02  0.7818608E-02  0.1130116E+00
         25   -1    0    0    0    0  0.00000000000E+00  0.00000000000E+00  0.99999998245E-14  0.12500000000E+03  0.12500000000E+03 0.  0.
        -11    1    3    3    0    0  0.31065562825E+01  0.35711428355E+02  0.99361739609E+01  0.37197908010E+02  0.51100000000E-03 0.  1.
         23    2    1    0    0    0 -0.24205776695E+02 -0.15784231164E+02  0.46981596480E+01  0.95723144244E+02  0.91136085395E+02 0.  0.
         11    1    3    3    0    0 -0.27312332978E+02 -0.51495659519E+02 -0.52380143129E+01  0.58525236234E+02  0.51100000000E-03 0. -1.
         22    1    1    0    0    0  0.24205776695E+02  0.15784231164E+02 -0.46981596480E+01  0.29276855756E+02  0.00000000000E+00 0. -1.
</event>
<event>
 5    1  0.8902899E-005  0.9118800E+02  0.7818608E-02  0.1130116E+00
         25   -1    0    0    0    0  0.00000000000E+00  0.00000000000E+00  0.99999998245E-14  0.12500000000E+03  0.12500000000E+03 0.  0.
        -11    1    3    3    0    0 -0.43202913413E+02  0.10497428567E+02 -0.17653852980E+02  0.47836662292E+02  0.51100000000E-03 0.  1.
         23    2    1    0    0    0  0.30583404006E+01  0.20927667493E+02 -0.20764077621E+02  0.95361045360E+02  0.90638078863E+02 0.  0.
         11    1    3    3    0    0  0.46261253814E+02  0.10430238926E+02 -0.31102246402E+01  0.47524383068E+02  0.51100000000E-03 0. -1.
         22    1    1    0    0    0 -0.30583404006E+01 -0.20927667493E+02  0.20764077621E+02  0.29638954640E+02  0.00000000000E+00 0. -1.
</event>
<event>
 5    1  0.8902899E-005  0.9118800E+02  0.7818608E-02  0.1130116E+00
         25   -1    0    0    0    0  0.00000000000E+00  0.00000000000E+00  0.99999998245E-14  0.12500000000E+03  0.12500000000E+03 0.  0.
        -11    1    3    3    0    0 -0.18593376157E+02 -0.21154671300E+02  0.16702074192E+02  0.32744358862E+02  0.51100000000E-03 0.  1.
         23    2    1    0    0    0  0.11633468909E+02  0.56608614824E+01 -0.28697201982E+02  0.93521239650E+02  0.88064237421E+02 0.  0.
         11    1    3    3    0    0  0.30226845065E+02  0.26815532782E+02 -0.45399276174E+02  0.60776880788E+02  0.51100000000E-03 0. -1.
         22    1    1    0    0    0 -0.11633468909E+02 -0.56608614824E+01  0.28697201982E+02  0.31478760350E+02  0.00000000000E+00 0. -1.
</event>
<event>
 5    1  0.8902899E-005  0.9118800E+02  0.7818608E-02  0.1130116E+00
         25   -1    0    0    0    0  0.00000000000E+00  0.00000000000E+00  0.99999998245E-14  0.12500000000E+03  0.12500000000E+03 0.  0.
        -11    1    3    3    0    0  0.30231604037E+02 -0.11330315291E+02  0.21890879879E+02  0.39006878232E+02  0.51100000000E-03 0.  1.
         23    2    1    0    0    0 -0.24072230892E+02 -0.15517155424E+02  0.60618708243E+01  0.95725425871E+02  0.91139214763E+02 0.  0.
         11    1    3    3    0    0 -0.54303834929E+02 -0.41868401325E+01 -0.15829009055E+02  0.56718547639E+02  0.51100000000E-03 0. -1.
         22    1    1    0    0    0  0.24072230892E+02  0.15517155424E+02 -0.60618708243E+01  0.29274574129E+02  0.00000000000E+00 0. -1.
</event>
<event>
 5    1  0.8902899E-005  0.9118800E+02  0.7818608E-02  0.1130116E+00
         25   -1    0    0    0    0  0.00000000000E+00  0.00000000000E+00  0.99999998245E-14  0.12500000000E+03  0.12500000000E+03 0.  0.
        -11    1    3    3    0    0 -0.46548174843E+02 -0.13833349552E+02  0.22019776676E+02  0.53319458982E+02  0.51100000000E-03 0.  1.
         23    2    1    0    0    0 -0.41636106912E+00  0.43780704360E+01  0.21640369542E+02  0.10291728162E+03  0.10052024873E+03 0.  0.
         11    1    3    3    0    0  0.46131813774E+02  0.18211419988E+02 -0.37940713327E+00  0.49597822634E+02  0.51100000000E-03 0. -1.
         22    1    1    0    0    0  0.41636106912E+00 -0.43780704360E+01 -0.21640369542E+02  0.22082718384E+02  0.00000000000E+00 0.  1.
</event>
<event>
 5    1  0.8902899E-005  0.9118800E+02  0.7818608E-02  0.1130116E+00
         25   -1    0    0    0    0  0.00000000000E+00  0.00000000000E+00  0.99999998245E-14  0.12500000000E+03  0.12500000000E+03 0.  0.
        -11    1    3    3    0    0  0.16306454339E+01  0.42570297015E+02  0.15203330644E+02  0.45233068163E+02  0.51100000000E-03 0.  1.
         23    2    1    0    0    0  0.27623034973E+02  0.10462319098E+02 -0.10225249042E+02  0.93742234564E+02  0.88377364982E+02 0.  0.
         11    1    3    3    0    0  0.25992389540E+02 -0.32107977917E+02 -0.25428579686E+02  0.48509166402E+02  0.51100000000E-03 0. -1.
         22    1    1    0    0    0 -0.27623034973E+02 -0.10462319098E+02  0.10225249042E+02  0.31257765436E+02  0.00000000000E+00 0. -1.
</event>
<event>
 4    1  0.8902899E-005  0.9118800E+02  0.7818608E-02  0.1130116E+00
         25   -1    0    0    0    0  0.00000000000E+00  0.00000000000E+00  0.99999998245E-14  0.12500000000E+03  0.12500000000E+03 0.  0.
        -11    1    1    0    0    0  0.23391353310E+02 -0.24165454023E+02 -0.11836646545E+02  0.35654323434E+02  0.51100000000E-03 0. -1.
         11    1    1    0    0    0  0.29900215771E+02  0.47554721097E+00  0.76993968497E+01  0.30879277200E+02  0.51100000000E-03 0.  1.
         22    1    1    0    0    0 -0.53291569081E+02  0.23689906812E+02  0.41372496955E+01  0.58466399366E+02  0.00000000000E+00 0. -1.
</event>
<event>
 5    1  0.8902899E-005  0.9118800E+02  0.7818608E-02  0.1130116E+00
         25   -1    0    0    0    0  0.00000000000E+00  0.00000000000E+00  0.99999998245E-14  0.12500000000E+03  0.12500000000E+03 0.  0.
        -11    1    3    3    0    0 -0.44423897495E+02 -0.21369720871E+02 -0.17916762769E+02  0.52451482602E+02  0.51100000000E-03 0. -1.
         23    2    1    0    0    0 -0.20395667436E+02  0.15459978913E+02 -0.11685563198E+02  0.96865562288E+02  0.92689754407E+02 0.  0.
         11    1    3    3    0    0  0.24028230060E+02  0.36829699784E+02  0.62311995711E+01  0.44414079686E+02  0.51100000000E-03 0.  1.
         22    1    1    0    0    0  0.20395667436E+02 -0.15459978913E+02  0.11685563198E+02  0.28134437712E+02  0.00000000000E+00 0. -1.
</event>
<event>
 5    1  0.8902899E-005  0.9118800E+02  0.7818608E-02  0.1130116E+00
         25   -1    0    0    0    0  0.00000000000E+00  0.00000000000E+00  0.99999998245E-14  0.12500000000E+03  0.12500000000E+03 0.  0.
        -11    1    3    3    0    0 -0.28369049352E+02  0.15828746146E+02 -0.23052587221E+02  0.39834331217E+02  0.51100000000E-03 0.  1.
         23    2    1    0    0    0 -0.54743675227E+01 -0.27916677445E+02  0.42202165574E+01  0.96240309335E+02  0.91842677083E+02 0.  0.
         11    1    3    3    0    0  0.22894681829E+02 -0.43745423591E+02  0.27272803778E+02  0.56405978118E+02  0.51100000000E-03 0. -1.
         22    1    1    0    0    0  0.54743675227E+01  0.27916677445E+02 -0.42202165574E+01  0.28759690665E+02  0.00000000000E+00 0. -1.
</event>
<event>
 5    1  0.8902899E-005  0.9118800E+02  0.7818608E-02  0.1130116E+00
         25   -1    0    0    0    0  0.00000000000E+00  0.00000000000E+00  0.99999998245E-14  0.12500000000E+03  0.12500000000E+03 0.  0.
        -11    1    3    3    0    0 -0.40605821336E+02 -0.22629345070E+02  0.23416145937E+02  0.52050320609E+02  0.51100000000E-03 0.  1.
         23    2    1    0    0    0 -0.20739761257E+02 -0.95897144125E+01 -0.15316711504E+02  0.97491783576E+02  0.93530454367E+02 0.  0.
         11    1    3    3    0    0  0.19866060079E+02  0.13039630658E+02 -0.38732857441E+02  0.45441462967E+02  0.51100000000E-03 0. -1.
         22    1    1    0    0    0  0.20739761257E+02  0.95897144125E+01  0.15316711504E+02  0.27508216424E+02  0.00000000000E+00 0.  1.
</event>
<event>
 5    1  0.8902899E-005  0.9118800E+02  0.7818608E-02  0.1130116E+00
         25   -1    0    0    0    0  0.00000000000E+00  0.00000000000E+00  0.99999998245E-14  0.12500000000E+03  0.12500000000E+03 0.  0.
        -11    1    3    3    0    0  0.70407122944E+00  0.26419472194E+02  0.31882001073E+02  0.41411909157E+02  0.51100000000E-03 0.  1.
         23    2    1    0    0    0  0.65248799237E+00  0.18934081524E+02 -0.22088874815E+02  0.95899423127E+02  0.91377545282E+02 0.  0.
         11    1    3    3    0    0 -0.51583237071E-01 -0.74853906702E+01 -0.53970875888E+02  0.54487513971E+02  0.51100000000E-03 0. -1.
         22    1    1    0    0    0 -0.65248799237E+00 -0.18934081524E+02  0.22088874815E+02  0.29100576873E+02  0.00000000000E+00 0. -1.
</event>
<event>
 5    1  0.8902899E-005  0.9118800E+02  0.7818608E-02  0.1130116E+00
         25   -1    0    0    0    0  0.00000000000E+00  0.00000000000E+00  0.99999998245E-14  0.12500000000E+03  0.12500000000E+03 0.  0.
        -11    1    3    3    0    0 -0.39355178751E+02  0.20582902175E+02 -0.41630076828E+02  0.60873222795E+02  0.51100000000E-03 0.  1.
         23    2    1    0    0    0 -0.10035325664E+02  0.13479943036E+02 -0.23631506292E+02  0.96002332593E+02  0.91518212112E+02 0.  0.
         11    1    3    3    0    0  0.29319853087E+02 -0.71029591382E+01  0.17998570536E+02  0.35129109798E+02  0.51100000000E-03 0. -1.
         22    1    1    0    0    0  0.10035325664E+02 -0.13479943036E+02  0.23631506292E+02  0.28997667407E+02  0.00000000000E+00 0.  1.
</event>
<event>
 5    1  0.8902899E-005  0.9118800E+02  0.7818608E-02  0.1130116E+00
         25   -1    0    0    0    0  0.00000000000E+00  0.00000000000E+00  0.99999998245E-14  0.12500000000E+03  0.12500000000E+03 0.  0.
        -11    1    3    3    0    0 -0.25924748759E+02 -0.44323819754E+02  0.22229231525E+02  0.55953841068E+02  0.51100000000E-03 0. -1.
         23    2    1    0    0    0 -0.19818469085E+02 -0.19915351529E+02 -0.84779767810E+01  0.95652614534E+02  0.91039297194E+02 0.  0.
         11    1    3    3    0    0  0.61062796738E+01  0.24408468225E+02 -0.30707208306E+02  0.39698773466E+02  0.51100000000E-03 0.  1.
         22    1    1    0    0    0  0.19818469085E+02  0.19915351529E+02  0.84779767810E+01  0.29347385466E+02  0.00000000000E+00 0. -1.
</event>
<event>
 5    1  0.8902899E-005  0.9118800E+02  0.7818608E-02  0.1130116E+00
         25   -1    0    0    0    0  0.00000000000E+00  0.00000000000E+00  0.99999998245E-14  0.12500000000E+03  0.12500000000E+03 0.  0.
        -11    1    3    3    0    0  0.36617688864E+02  0.65289931775E+01  0.13545116690E+02  0.39584758128E+02  0.51100000000E-03 0. -1.
         23    2    1    0    0    0 -0.12206998881E+02 -0.23540784801E+02  0.85263219322E+01  0.97145421625E+02  0.93066403209E+02 0.  0.
         11    1    3    3    0    0 -0.48824687746E+02 -0.30069777978E+02 -0.50187947580E+01  0.57560663497E+02  0.51100000000E-03 0.  1.
         22    1    1    0    0    0  0.12206998881E+02  0.23540784801E+02 -0.85263219322E+01  0.27854578375E+02  0.00000000000E+00 0.  1.
</event>
<event>
 5    1  0.8902899E-005  0.9118800E+02  0.7818608E-02  0.1130116E+00
         25   -1    0    0    0    0  0.00000000000E+00  0.00000000000E+00  0.99999998245E-14  0.12500000000E+03  0.12500000000E+03 0.  0.
        -11    1    3    3    0    0 -0.33385888513E+02 -0.11305990103E+02 -0.87189946834E+01  0.36310657287E+02  0.51100000000E-03 0.  1.
         23    2    1    0    0    0  0.16069396796E+02 -0.13514585651E+02  0.22013223403E+02  0.94578764928E+02  0.89552728780E+02 0.  0.
         11    1    3    3    0    0  0.49455285310E+02 -0.22085955482E+01  0.30732218086E+02  0.58268107641E+02  0.51100000000E-03 0. -1.
         22    1    1    0    0    0 -0.16069396796E+02  0.13514585651E+02 -0.22013223403E+02  0.30421235072E+02  0.00000000000E+00 0. -1.
</event>
<event>
 5    1  0.8902899E-005  0.9118800E+02  0.7818608E-02  0.1130116E+00
         25   -1    0    0    0    0  0.00000000000E+00  0.00000000000E+00  0.99999998245E-14  0.12500000000E+03  0.12500000000E+03 0.  0.
        -11    1    3    3    0    0 -0.94897458475E+01  0.21116448938E+02  0.57163751530E+02  0.61673772232E+02  0.51100000000E-03 0.  1.
         23    2    1    0    0    0 -0.69156321394E+01  0.33440000673E+01  0.28369233410E+02  0.95609156041E+02  0.90979607662E+02 0.  0.
         11    1    3    3    0    0  0.25741137081E+01 -0.17772448871E+02 -0.28794518120E+02  0.33935383809E+02  0.51100000000E-03 0. -1.
         22    1    1    0    0    0  0.69156321394E+01 -0.33440000673E+01 -0.28369233410E+02  0.29390843959E+02  0.00000000000E+00 0.  1.
</event>
<event>
 5    1  0.8902899E-005  0.9118800E+02  0.7818608E-02  0.1130116E+00
         25   -1    0    0    0    0  0.00000000000E+00  0.00000000000E+00  0.99999998245E-14  0.12500000000E+03  0.12500000000E+03 0.  0.
        -11    1    3    3    0    0 -0.29848499674E+01  0.15574529331E+02 -0.33210438155E+02  0.36802289276E+02  0.51100000000E-03 0.  1.
         23    2    1    0    0    0 -0.19018016361E+02 -0.52384289940E+01  0.20473081284E+02  0.96569855050E+02  0.92290106525E+02 0.  0.
         11    1    3    3    0    0 -0.16033166393E+02 -0.20812958325E+02  0.53683519440E+02  0.59767565774E+02  0.51100000000E-03 0. -1.
         22    1    1    0    0    0  0.19018016361E+02  0.52384289940E+01 -0.20473081284E+02  0.28430144950E+02  0.00000000000E+00 0. -1.
</event>
<event>
 5    1  0.8902899E-005  0.9118800E+02  0.7818608E-02  0.1130116E+00
         25   -1    0    0    0    0  0.00000000000E+00  0.00000000000E+00  0.99999998245E-14  0.12500000000E+03  0.12500000000E+03 0.  0.
        -11    1    3    3    0    0 -0.58898139763E+01  0.41626514379E+02 -0.12599049300E+02  0.43888411358E+02  0.51100000000E-03 0.  1.
         23    2    1    0    0    0 -0.18618184373E+02 -0.86053949843E+01 -0.20140850734E+02  0.96253809288E+02  0.91861048993E+02 0.  0.
         11    1    3    3    0    0 -0.12728370396E+02 -0.50231909363E+02 -0.75418014341E+01  0.52365397930E+02  0.51100000000E-03 0. -1.
         22    1    1    0    0    0  0.18618184373E+02  0.86053949843E+01  0.20140850734E+02  0.28746190712E+02  0.00000000000E+00 0.  1.
</event>
<event>
 5    1  0.8902899E-005  0.9118800E+02  0.7818608E-02  0.1130116E+00
         25   -1    0    0    0    0  0.00000000000E+00  0.00000000000E+00  0.99999998245E-14  0.12500000000E+03  0.12500000000E+03 0.  0.
        -11    1    3    3    0    0  0.38938661449E+02 -0.10178052503E+02  0.22282092046E+02  0.46003301342E+02  0.51100000000E-03 0.  1.
         23    2    1    0    0    0  0.19533598393E+02  0.83680105681E+00 -0.21986720016E+02  0.95577601063E+02  0.90936242861E+02 0.  0.
         11    1    3    3    0    0 -0.19405063056E+02  0.11014853560E+02 -0.44268812062E+02  0.49574299720E+02  0.51100000000E-03 0. -1.
         22    1    1    0    0    0 -0.19533598393E+02 -0.83680105681E+00  0.21986720016E+02  0.29422398937E+02  0.00000000000E+00 0.  1.
</event>
<event>
 5    1  0.8902899E-005  0.9118800E+02  0.7818608E-02  0.1130116E+00
         25   -1    0    0    0    0  0.00000000000E+00  0.00000000000E+00  0.99999998245E-14  0.12500000000E+03  0.12500000000E+03 0.  0.
        -11    1    3    3    0    0 -0.31242552573E+02 -0.74429567060E+00 -0.22226171625E+02  0.38349103936E+02  0.51100000000E-03 0.  1.
         23    2    1    0    0    0  0.11471416381E+02  0.18369428668E+02  0.15425254492E+02  0.98411134294E+02  0.94751166608E+02 0.  0.
         11    1    3    3    0    0  0.42713968953E+02  0.19113724339E+02  0.37651426117E+02  0.60062030358E+02  0.51100000000E-03 0. -1.
         22    1    1    0    0    0 -0.11471416381E+02 -0.18369428668E+02 -0.15425254492E+02  0.26588865706E+02  0.00000000000E+00 0. -1.
</event>
<event>
 5    1  0.8902899E-005  0.9118800E+02  0.7818608E-02  0.1130116E+00
         25   -1    0    0    0    0  0.00000000000E+00  0.00000000000E+00  0.99999998245E-14  0.12500000000E+03  0.12500000000E+03 0.  0.
        -11    1    3    3    0    0  0.12741752737E+02  0.52261888394E+02  0.13372010272E+02  0.55429846656E+02  0.51100000000E-03 0. -1.
         23    2    1    0    0    0 -0.46025564678E+01  0.22113583527E+02  0.24237787775E+02  0.91868980416E+02  0.85686901590E+02 0.  0.
         11    1    3    3    0    0 -0.17344309205E+02 -0.30148304868E+02  0.10865777504E+02  0.36439133760E+02  0.51100000000E-03 0.  1.
         22    1    1    0    0    0  0.46025564678E+01 -0.22113583527E+02 -0.24237787775E+02  0.33131019584E+02  0.00000000000E+00 0. -1.
</event>
<event>
 5    1  0.8902899E-005  0.9118800E+02  0.7818608E-02  0.1130116E+00
         25   -1    0    0    0    0  0.00000000000E+00  0.00000000000E+00  0.99999998245E-14  0.12500000000E+03  0.12500000000E+03 0.  0.
        -11    1    3    3    0    0  0.15796484225E+02 -0.56371846804E+02  0.98049501950E+01  0.59358664696E+02  0.51100000000E-03 0. -1.
         23    2    1    0    0    0  0.15081255995E+02 -0.21172319123E+02  0.15064043925E+02  0.94956085494E+02  0.90077862839E+02 0.  0.
         11    1    3    3    0    0 -0.71522822986E+00  0.35199527680E+02  0.52590937296E+01  0.35597420798E+02  0.51100000000E-03 0.  1.
         22    1    1    0    0    0 -0.15081255995E+02  0.21172319123E+02 -0.15064043925E+02  0.30043914506E+02  0.00000000000E+00 0. -1.
</event>
<event>
 5    1  0.8902899E-005  0.9118800E+02  0.7818608E-02  0.1130116E+00
         25   -1    0    0    0    0  0.00000000000E+00  0.00000000000E+00  0.99999998245E-14  0.12500000000E+03  0.12500000000E+03 0.  0.
        -11    1    3    3    0    0  0.27592200820E+02 -0.21950800331E+02  0.35850070087E+02  0.50283145354E+02  0.51100000000E-03 0.  1.
         23    2    1    0    0    0  0.19930649935E+02 -0.13471393314E+02 -0.11029614505E+02  0.98535653403E+02  0.94915295663E+02 0.  0.
         11    1    3    3    0    0 -0.76615508848E+01  0.84794070166E+01 -0.46879684592E+02  0.48252508049E+02  0.51100000000E-03 0. -1.
         22    1    1    0    0    0 -0.19930649935E+02  0.13471393314E+02  0.11029614505E+02  0.26464346597E+02  0.00000000000E+00 0.  1.
</event>
<event>
 5    1  0.8902899E-005  0.9118800E+02  0.7818608E-02  0.1130116E+00
         25   -1    0    0    0    0  0.00000000000E+00  0.00000000000E+00  0.99999998245E-14  0.12500000000E+03  0.12500000000E+03 0.  0.
        -11    1    3    3    0    0  0.14758118535E+02  0.66305818497E+01  0.34018177231E+02  0.37669657029E+02  0.51100000000E-03 0.  1.
         23    2    1    0    0    0 -0.29835234887E+02  0.27705572350E+01 -0.17788392836E+01  0.94983646168E+02  0.90116100349E+02 0.  0.
         11    1    3    3    0    0 -0.44593353422E+02 -0.38600246147E+01 -0.35797016514E+02  0.57313989139E+02  0.51100000000E-03 0. -1.
         22    1    1    0    0    0  0.29835234887E+02 -0.27705572350E+01  0.17788392836E+01  0.30016353832E+02  0.00000000000E+00 0. -1.
</event>
<event>
 5    1  0.8902899E-005  0.9118800E+02  0.7818608E-02  0.1130116E+00
         25   -1    0    0    0    0  0.00000000000E+00  0.00000000000E+00  0.99999998245E-14  0.12500000000E+03  0.12500000000E+03 0.  0.
        -11    1    3    3    0    0  0.47987130264E+02  0.11574745629E+01  0.31358889543E+02  0.57336588423E+02  0.51100000000E-03 0. -1.
         23    2    1    0    0    0  0.12406186227E+02  0.55217070239E+01  0.28660047608E+02  0.93285633634E+02  0.87729176495E+02 0.  0.
         11    1    3    3    0    0 -0.35580944037E+02  0.43642324610E+01 -0.26988419353E+01  0.35949045211E+02  0.51100000000E-03 0.  1.
         22    1    1    0    0    0 -0.12406186227E+02 -0.55217070239E+01 -0.28660047608E+02  0.31714366366E+02  0.00000000000E+00 0. -1.
</event>
<event>
 5    1  0.8902899E-005  0.9118800E+02  0.7818608E-02  0.1130116E+00
         25   -1    0    0    0    0  0.00000000000E+00  0.00000000000E+00  0.99999998245E-14  0.12500000000E+03  0.12500000000E+03 0.  0.
        -11    1    3    3    0    0  0.23345752046E+02 -0.73210363066E+01  0.21562552636E+02  0.32612350232E+02  0.51100000000E-03 0. -1.
         23    2    1    0    0    0 -0.21757384147E+02  0.18361105686E+02 -0.11658046965E+02  0.94235994637E+02  0.89072996241E+02 0.  0.
         11    1    3    3    0    0 -0.45103136193E+02  0.25682141993E+02 -0.33220599600E+02  0.61623644406E+02  0.51100000000E-03 0.  1.
         22    1    1    0    0    0  0.21757384147E+02 -0.18361105686E+02  0.11658046965E+02  0.30764005363E+02  0.00000000000E+00 0.  1.
</event>
<event>
 5    1  0.8902899E-005  0.9118800E+02  0.7818608E-02  0.1130116E+00
         25   -1    0    0    0    0  0.00000000000E+00  0.00000000000E+00  0.99999998245E-14  0.12500000000E+03  0.12500000000E+03 0.  0.
        -11    1    3    3    0    0  0.93443537145E+01  0.26086587668E+02 -0.44925280156E+02  0.52783594041E+02  0.51100000000E-03 0. -1.
         23    2    1    0    0    0 -0.13126421356E+02  0.25409009114E+02 -0.92673924215E+01  0.94936646160E+02  0.90050883061E+02 0.  0.
         11    1    3    3    0    0 -0.22470775071E+02 -0.67757855396E+00  0.35657887735E+02  0.42153052119E+02  0.51100000000E-03 0.  1.
         22    1    1    0    0    0  0.13126421356E+02 -0.25409009114E+02  0.92673924215E+01  0.30063353840E+02  0.00000000000E+00 0. -1.
</event>
<event>
 5    1  0.8902899E-005  0.9118800E+02  0.7818608E-02  0.1130116E+00
         25   -1    0    0    0    0  0.00000000000E+00  0.00000000000E+00  0.99999998245E-14  0.12500000000E+03  0.12500000000E+03 0.  0.
        -11    1    3    3    0    0  0.19229021892E+02 -0.26651822016E+02 -0.33511063422E+01  0.33034902962E+02  0.51100000000E-03 0. -1.
         23    2    1    0    0    0 -0.18542708480E+02  0.19964296608E+02  0.12396901083E+02  0.95065265438E+02  0.90229243373E+02 0.  0.
         11    1    3    3    0    0 -0.37771730372E+02  0.46616118624E+02  0.15748007425E+02  0.62030362477E+02  0.51100000000E-03 0.  1.
         22    1    1    0    0    0  0.18542708480E+02 -0.19964296608E+02 -0.12396901083E+02  0.29934734562E+02  0.00000000000E+00 0.  1.
</event>
<event>
 5    1  0.8902899E-005  0.9118800E+02  0.7818608E-02  0.1130116E+00
         25   -1    0    0    0    0  0.00000000000E+00  0.00000000000E+00  0.99999998245E-14  0.12500000000E+03  0.12500000000E+03 0.  0.
        -11    1    3    3    0    0  0.24826545977E+02  0.56349439176E+02  0.17635315418E+01  0.61601353267E+02  0.51100000000E-03 0. -1.
         23    2    1    0    0    0  0.10993878263E+02  0.27982718617E+02 -0.65333460386E+01  0.94233418927E+02  0.89069381562E+02 0.  0.
         11    1    3    3    0    0 -0.13832667714E+02 -0.28366720560E+02 -0.82968775804E+01  0.32632065660E+02  0.51100000000E-03 0.  1.
         22    1    1    0    0    0 -0.10993878263E+02 -0.27982718617E+02  0.65333460386E+01  0.30766581073E+02  0.00000000000E+00 0. -1.
</event>
<event>
 5    1  0.8902899E-005  0.9118800E+02  0.7818608E-02  0.1130116E+00
         25   -1    0    0    0    0  0.00000000000E+00  0.00000000000E+00  0.99999998245E-14  0.12500000000E+03  0.12500000000E+03 0.  0.
        -11    1    3    3    0    0 -0.18063853419E+02  0.36245510398E+02  0.17877304793E+02  0.44267797000E+02  0.51100000000E-03 0.  1.
         23    2    1    0    0    0 -0.14983594971E+02  0.53571109699E+01 -0.23883005851E+02  0.96301485671E+02  0.91925901778E+02 0.  0.
         11    1    3    3    0    0  0.30802584479E+01 -0.30888399428E+02 -0.41760310644E+02  0.52033688671E+02  0.51100000000E-03 0. -1.
         22    1    1    0    0    0  0.14983594971E+02 -0.53571109699E+01  0.23883005851E+02  0.28698514329E+02  0.00000000000E+00 0.  1.
</event>
<event>
 5    1  0.8902899E-005  0.9118800E+02  0.7818608E-02  0.1130116E+00
         25   -1    0    0    0    0  0.00000000000E+00  0.00000000000E+00  0.99999998245E-14  0.12500000000E+03  0.12500000000E+03 0.  0.
        -11    1    3    3    0    0 -0.28217265843E+02  0.18240142166E+02 -0.21078253703E+02  0.39663707054E+02  0.51100000000E-03 0.  1.
         23    2    1    0    0    0  0.20783161868E+02  0.22035868149E+02  0.33095978746E+01  0.94529149332E+02  0.89483447258E+02 0.  0.
         11    1    3    3    0    0  0.49000427710E+02  0.37957259839E+01  0.24387851578E+02  0.54865442278E+02  0.51100000000E-03 0. -1.
         22    1    1    0    0    0 -0.20783161868E+02 -0.22035868149E+02 -0.33095978746E+01  0.30470850668E+02  0.00000000000E+00 0. -1.
</event>
<event>
 5    1  0.8902899E-005  0.9118800E+02  0.7818608E-02  0.1130116E+00
         25   -1    0    0    0    0  0.00000000000E+00  0.00000000000E+00  0.99999998245E-14  0.12500000000E+03  0.12500000000E+03 0.  0.
        -11    1    3    3    0    0  0.42106454730E+02  0.73241805451E+00  0.27705205678E+02  0.50409010981E+02  0.51100000000E-03 0. -1.
         23    2    1    0    0    0 -0.17510165175E+01 -0.14340715836E+02  0.24070576155E+02  0.96926617126E+02  0.92772055499E+02 0.  0.
         11    1    3    3    0    0 -0.43857471247E+02 -0.15073133891E+02 -0.36346295232E+01  0.46517606146E+02  0.51100000000E-03 0.  1.
         22    1    1    0    0    0  0.17510165175E+01  0.14340715836E+02 -0.24070576155E+02  0.28073382874E+02  0.00000000000E+00 0.  1.
</event>
<event>
 5    1  0.8902899E-005  0.9118800E+02  0.7818608E-02  0.1130116E+00
         25   -1    0    0    0    0  0.00000000000E+00  0.00000000000E+00  0.99999998245E-14  0.12500000000E+03  0.12500000000E+03 0.  0.
        -11    1    3    3    0    0  0.14474003248E+02 -0.37415455548E+02 -0.21567982642E+02  0.45547677870E+02  0.51100000000E-03 0.  1.
         23    2    1    0    0    0 -0.16300998276E+02  0.18237509736E+01 -0.24516119837E+02  0.95502733274E+02  0.90833272090E+02 0.  0.
         11    1    3    3    0    0 -0.30775001524E+02  0.39239206521E+02 -0.29481371950E+01  0.49955055404E+02  0.51100000000E-03 0. -1.
         22    1    1    0    0    0  0.16300998276E+02 -0.18237509736E+01  0.24516119837E+02  0.29497266726E+02  0.00000000000E+00 0. -1.
</event>
<event>
 5    1  0.8902899E-005  0.9118800E+02  0.7818608E-02  0.1130116E+00
         25   -1    0    0    0    0  0.00000000000E+00  0.00000000000E+00  0.99999998245E-14  0.12500000000E+03  0.12500000000E+03 0.  0.
        -11    1    3    3    0    0  0.24333672569E+02  0.14314822546E+02  0.31235856122E+02  0.42103687168E+02  0.51100000000E-03 0.  1.
         23    2    1    0    0    0  0.21456766529E+02 -0.10458452953E+00 -0.20157938946E+02  0.95559445142E+02  0.90911282498E+02 0.  0.
         11    1    3    3    0    0 -0.28769060401E+01 -0.14419407076E+02 -0.51393795068E+02  0.53455757974E+02  0.51100000000E-03 0. -1.
         22    1    1    0    0    0 -0.21456766529E+02  0.10458452953E+00  0.20157938946E+02  0.29440554858E+02  0.00000000000E+00 0. -1.
</event>
<event>
 5    1  0.8902899E-005  0.9118800E+02  0.7818608E-02  0.1130116E+00
         25   -1    0    0    0    0  0.00000000000E+00  0.00000000000E+00  0.99999998245E-14  0.12500000000E+03  0.12500000000E+03 0.  0.
        -11    1    3    3    0    0  0.23789086870E+02  0.35636488721E+01  0.49390073725E+02  0.54936323414E+02  0.51100000000E-03 0. -1.
         23    2    1    0    0    0  0.27614486786E+02 -0.12627891594E+01  0.88017471976E+01  0.95989221475E+02  0.91500302560E+02 0.  0.
         11    1    3    3    0    0  0.38253999160E+01 -0.48264380316E+01 -0.40588326528E+02  0.41052898061E+02  0.51100000000E-03 0.  1.
         22    1    1    0    0    0 -0.27614486786E+02  0.12627891594E+01 -0.88017471976E+01  0.29010778525E+02  0.00000000000E+00 0. -1.
</event>
<event>
 5    1  0.8902899E-005  0.9118800E+02  0.7818608E-02  0.1130116E+00
         25   -1    0    0    0    0  0.00000000000E+00  0.00000000000E+00  0.99999998245E-14  0.12500000000E+03  0.12500000000E+03 0.  0.
        -11    1    3    3    0    0 -0.53658920585E+02 -0.18359184679E+02 -0.68717451805E+01  0.57127579176E+02  0.51100000000E-03 0. -1.
         23    2    1    0    0    0 -0.21784039252E+02 -0.24361896510E+02 -0.12428942359E+02  0.90035375365E+02  0.82968932989E+02 0.  0.
         11    1    3    3    0    0  0.31874881333E+02 -0.60027118312E+01 -0.55571971781E+01  0.32907796190E+02  0.51100000000E-03 0.  1.
         22    1    1    0    0    0  0.21784039252E+02  0.24361896510E+02  0.12428942359E+02  0.34964624635E+02  0.00000000000E+00 0. -1.
</event>
<event>
 5    1  0.8902899E-005  0.9118800E+02  0.7818608E-02  0.1130116E+00
         25   -1    0    0    0    0  0.00000000000E+00  0.00000000000E+00  0.99999998245E-14  0.12500000000E+03  0.12500000000E+03 0.  0.
        -11    1    3    3    0    0 -0.40968453607E+02 -0.31978083303E+02  0.28143498200E+02  0.59102186879E+02  0.51100000000E-03 0. -1.
         23    2    1    0    0    0 -0.23778935240E+02 -0.14333297255E+02 -0.94411295565E+00  0.97219205904E+02  0.93165452159E+02 0.  0.
         11    1    3    3    0    0  0.17189518367E+02  0.17644786048E+02 -0.29087611155E+02  0.38117019025E+02  0.51100000000E-03 0.  1.
         22    1    1    0    0    0  0.23778935240E+02  0.14333297255E+02  0.94411295565E+00  0.27780794096E+02  0.00000000000E+00 0. -1.
</event>
<event>
 5    1  0.8902899E-005  0.9118800E+02  0.7818608E-02  0.1130116E+00
         25   -1    0    0    0    0  0.00000000000E+00  0.00000000000E+00  0.99999998245E-14  0.12500000000E+03  0.12500000000E+03 0.  0.
        -11    1    3    3    0    0  0.20010285387E+02 -0.15854907205E+02 -0.48561826999E+02  0.54863837321E+02  0.51100000000E-03 0.  1.
         23    2    1    0    0    0  0.25064283537E+02  0.64229215108E+01 -0.16211711344E+02  0.94466545975E+02  0.89395953453E+02 0.  0.
         11    1    3    3    0    0  0.50539981507E+01  0.22277828716E+02  0.32350115656E+02  0.39602708655E+02  0.51100000000E-03 0. -1.
         22    1    1    0    0    0 -0.25064283537E+02 -0.64229215108E+01  0.16211711344E+02  0.30533454025E+02  0.00000000000E+00 0.  1.
</event>
<event>
 5    1  0.8902899E-005  0.9118800E+02  0.7818608E-02  0.1130116E+00
         25   -1    0    0    0    0  0.00000000000E+00  0.00000000000E+00  0.99999998245E-14  0.12500000000E+03  0.12500000000E+03 0.  0.
        -11    1    3    3    0    0  0.14726639590E+02 -0.48549280854E+02 -0.12187240146E+02  0.52176962423E+02  0.51100000000E-03 0. -1.
         23    2    1    0    0    0 -0.18410787127E+02 -0.24249998252E+02 -0.21486694752E+01  0.94477282585E+02  0.89410964911E+02 0.  0.
         11    1    3    3    0    0 -0.33137426718E+02  0.24299282603E+02  0.10038570671E+02  0.42300320162E+02  0.51100000000E-03 0.  1.
         22    1    1    0    0    0  0.18410787127E+02  0.24249998252E+02  0.21486694752E+01  0.30522717415E+02  0.00000000000E+00 0. -1.
</event>
<event>
 5    1  0.8902899E-005  0.9118800E+02  0.7818608E-02  0.1130116E+00
         25   -1    0    0    0    0  0.00000000000E+00  0.00000000000E+00  0.99999998245E-14  0.12500000000E+03  0.12500000000E+03 0.  0.
        -11    1    3    3    0    0  0.13293935616E+02  0.12459596281E+02  0.50115219973E+02  0.53324530348E+02  0.51100000000E-03 0. -1.
         23    2    1    0    0    0  0.11192128223E+02  0.26892728073E+02  0.13193638670E+02  0.93022591432E+02  0.87353579537E+02 0.  0.
         11    1    3    3    0    0 -0.21018073923E+01  0.14433131792E+02 -0.36921581303E+02  0.39698061084E+02  0.51100000000E-03 0.  1.
         22    1    1    0    0    0 -0.11192128223E+02 -0.26892728073E+02 -0.13193638670E+02  0.31977408568E+02  0.00000000000E+00 0. -1.
</event>
<event>
 5    1  0.8902899E-005  0.9118800E+02  0.7818608E-02  0.1130116E+00
         25   -1    0    0    0    0  0.00000000000E+00  0.00000000000E+00  0.99999998245E-14  0.12500000000E+03  0.12500000000E+03 0.  0.
        -11    1    3    3    0    0 -0.21573472057E+02  0.20866996569E+02 -0.98353538047E+01  0.31584496626E+02  0.51100000000E-03 0. -1.
         23    2    1    0    0    0  0.78763143173E+00 -0.32766800403E+02  0.56951026076E+01  0.91732632120E+02  0.85487765383E+02 0.  0.
         11    1    3    3    0    0  0.22361103488E+02 -0.53633796972E+02  0.15530456412E+02  0.60148135495E+02  0.51100000000E-03 0.  1.
         22    1    1    0    0    0 -0.78763143173E+00  0.32766800403E+02 -0.56951026076E+01  0.33267367880E+02  0.00000000000E+00 0.  1.
</event>
<event>
 5    1  0.8902899E-005  0.9118800E+02  0.7818608E-02  0.1130116E+00
         25   -1    0    0    0    0  0.00000000000E+00  0.00000000000E+00  0.99999998245E-14  0.12500000000E+03  0.12500000000E+03 0.  0.
        -11    1    3    3    0    0  0.26804071527E+01 -0.49940887803E+02 -0.34806960322E+02  0.60932760845E+02  0.51100000000E-03 0. -1.
         23    2    1    0    0    0 -0.81205340734E+01 -0.29816893958E+02 -0.21307974980E+02  0.87463084348E+02  0.78998551170E+02 0.  0.
         11    1    3    3    0    0 -0.10800941226E+02  0.20123993845E+02  0.13498985342E+02  0.26530323503E+02  0.51100000000E-03 0.  1.
         22    1    1    0    0    0  0.81205340734E+01  0.29816893958E+02  0.21307974980E+02  0.37536915652E+02  0.00000000000E+00 0. -1.
</event>
<event>
 5    1  0.8902899E-005  0.9118800E+02  0.7818608E-02  0.1130116E+00
         25   -1    0    0    0    0  0.00000000000E+00  0.00000000000E+00  0.99999998245E-14  0.12500000000E+03  0.12500000000E+03 0.  0.
        -11    1    3    3    0    0  0.89979294807E+01  0.37500659020E+02 -0.93858856227E+01  0.39690767328E+02  0.51100000000E-03 0. -1.
         23    2    1    0    0    0 -0.24270539738E+02 -0.56469146204E+01 -0.17184875837E+02  0.94730102388E+02  0.89763720940E+02 0.  0.
         11    1    3    3    0    0 -0.33268469219E+02 -0.43147573640E+02 -0.77989902142E+01  0.55039335060E+02  0.51100000000E-03 0.  1.
         22    1    1    0    0    0  0.24270539738E+02  0.56469146204E+01  0.17184875837E+02  0.30269897612E+02  0.00000000000E+00 0.  1.
</event>
<event>
 5    1  0.8902899E-005  0.9118800E+02  0.7818608E-02  0.1130116E+00
         25   -1    0    0    0    0  0.00000000000E+00  0.00000000000E+00  0.99999998245E-14  0.12500000000E+03  0.12500000000E+03 0.  0.
        -11    1    3    3    0    0 -0.31007530097E+02 -0.11505891372E+02 -0.51890960616E+02  0.61534740212E+02  0.51100000000E-03 0.  1.
         23    2    1    0    0    0 -0.11249346837E+02  0.22260274574E+01 -0.24209369917E+02  0.98212006528E+02  0.94488103124E+02 0.  0.
         11    1    3    3    0    0  0.19758183260E+02  0.13731918830E+02  0.27681590700E+02  0.36677266316E+02  0.51100000000E-03 0. -1.
         22    1    1    0    0    0  0.11249346837E+02 -0.22260274574E+01  0.24209369917E+02  0.26787993472E+02  0.00000000000E+00 0.  1.
</event>
<event>
 5    1  0.8902899E-005  0.9118800E+02  0.7818608E-02  0.1130116E+00
         25   -1    0    0    0    0  0.00000000000E+00  0.00000000000E+00  0.99999998245E-14  0.12500000000E+03  0.12500000000E+03 0.  0.
        -11    1    3    3    0    0  0.30400830831E+02 -0.27799927470E+02  0.48378209314E+01  0.41478319568E+02  0.51100000000E-03 0.  1.
         23    2    1    0    0    0  0.12949036773E+02  0.17699338053E+02 -0.19233170749E+02  0.95830512896E+02  0.91283230793E+02 0.  0.
         11    1    3    3    0    0 -0.17451794058E+02  0.45499265522E+02 -0.24070991680E+02  0.54352193329E+02  0.51100000000E-03 0. -1.
         22    1    1    0    0    0 -0.12949036773E+02 -0.17699338053E+02  0.19233170749E+02  0.29169487104E+02  0.00000000000E+00 0. -1.
</event>
<event>
 5    1  0.8902899E-005  0.9118800E+02  0.7818608E-02  0.1130116E+00
         25   -1    0    0    0    0  0.00000000000E+00  0.00000000000E+00  0.99999998245E-14  0.12500000000E+03  0.12500000000E+03 0.  0.
        -11    1    3    3    0    0 -0.18070021257E+02  0.20029377743E+02  0.21138984610E+02  0.34271829709E+02  0.51100000000E-03 0.  1.
         23    2    1    0    0    0  0.32975235154E+02 -0.97693055125E+00  0.65411617663E+01  0.91368060953E+02  0.84953017830E+02 0.  0.
         11    1    3    3    0    0  0.51045256412E+02 -0.21006308294E+02 -0.14597822844E+02  0.57096231244E+02  0.51100000000E-03 0. -1.
         22    1    1    0    0    0 -0.32975235154E+02  0.97693055125E+00 -0.65411617663E+01  0.33631939047E+02  0.00000000000E+00 0. -1.
</event>
<event>
 5    1  0.8902899E-005  0.9118800E+02  0.7818608E-02  0.1130116E+00
         25   -1    0    0    0    0  0.00000000000E+00  0.00000000000E+00  0.99999998245E-14  0.12500000000E+03  0.12500000000E+03 0.  0.
        -11    1    3    3    0    0  0.23639455832E+00 -0.46103963144E+02  0.40269202899E+02  0.61214704135E+02  0.51100000000E-03 0.  1.
         23    2    1    0    0    0 -0.47089569952E+00 -0.27436213624E+02  0.12111764084E+02  0.95005627361E+02  0.90146585294E+02 0.  0.
         11    1    3    3    0    0 -0.70729025783E+00  0.18667749520E+02 -0.28157438814E+02  0.33790923226E+02  0.51100000000E-03 0. -1.
         22    1    1    0    0    0  0.47089569952E+00  0.27436213624E+02 -0.12111764084E+02  0.29994372639E+02  0.00000000000E+00 0.  1.
</event>
<event>
 5    1  0.8902899E-005  0.9118800E+02  0.7818608E-02  0.1130116E+00
         25   -1    0    0    0    0  0.00000000000E+00  0.00000000000E+00  0.99999998245E-14  0.12500000000E+03  0.12500000000E+03 0.  0.
        -11    1    3    3    0    0  0.24780607275E+02 -0.42764392388E+02 -0.36902818286E+02  0.61682167204E+02  0.51100000000E-03 0.  1.
         23    2    1    0    0    0  0.14774331486E+02 -0.13179799150E+02 -0.18333167405E+02  0.98016801458E+02  0.94229508990E+02 0.  0.
         11    1    3    3    0    0 -0.10006275789E+02  0.29584593239E+02  0.18569650881E+02  0.36334634254E+02  0.51100000000E-03 0. -1.
         22    1    1    0    0    0 -0.14774331486E+02  0.13179799150E+02  0.18333167405E+02  0.26983198542E+02  0.00000000000E+00 0.  1.
</event>
<event>
 5    1  0.8902899E-005  0.9118800E+02  0.7818608E-02  0.1130116E+00
         25   -1    0    0    0    0  0.00000000000E+00  0.00000000000E+00  0.99999998245E-14  0.12500000000E+03  0.12500000000E+03 0.  0.
        -11    1    3    3    0    0 -0.58194186609E-01 -0.37932986539E+02 -0.12880205425E+02  0.40060136625E+02  0.51100000000E-03 0.  1.
         23    2    1    0    0    0 -0.31384320217E+02  0.38344969463E+01 -0.25704793715E+01  0.93277984198E+02  0.87718276600E+02 0.  0.
         11    1    3    3    0    0 -0.31326126030E+02  0.41767483486E+02  0.10309726053E+02  0.53217847574E+02  0.51100000000E-03 0. -1.
         22    1    1    0    0    0  0.31384320217E+02 -0.38344969463E+01  0.25704793715E+01  0.31722015802E+02  0.00000000000E+00 0.  1.
</event>
<event>
 5    1  0.8902899E-005  0.9118800E+02  0.7818608E-02  0.1130116E+00
         25   -1    0    0    0    0  0.00000000000E+00  0.00000000000E+00  0.99999998245E-14  0.12500000000E+03  0.12500000000E+03 0.  0.
        -11    1    3    3    0    0 -0.22107380118E+02 -0.30330764599E+02  0.25063692815E+02  0.45131809565E+02  0.51100000000E-03 0.  1.
         23    2    1    0    0    0  0.28341444341E+01  0.16629835686E+02  0.20428378885E+02  0.98506557916E+02  0.94876970224E+02 0.  0.
         11    1    3    3    0    0  0.24941524552E+02  0.46960600284E+02 -0.46353139303E+01  0.53374748351E+02  0.51100000000E-03 0. -1.
         22    1    1    0    0    0 -0.28341444341E+01 -0.16629835686E+02 -0.20428378885E+02  0.26493442084E+02  0.00000000000E+00 0.  1.
</event>
<event>
 5    1  0.8902899E-005  0.9118800E+02  0.7818608E-02  0.1130116E+00
         25   -1    0    0    0    0  0.00000000000E+00  0.00000000000E+00  0.99999998245E-14  0.12500000000E+03  0.12500000000E+03 0.  0.
        -11    1    3    3    0    0 -0.11358644262E+02  0.21137463721E+02 -0.26269053091E+02  0.35579127625E+02  0.51100000000E-03 0.  1.
         23    2    1    0    0    0 -0.10567756010E+02 -0.19981616656E+02  0.18074247605E+02  0.96058319023E+02  0.91594649165E+02 0.  0.
         11    1    3    3    0    0  0.79088825152E+00 -0.41119080377E+02  0.44343300696E+02  0.60479191398E+02  0.51100000000E-03 0. -1.
         22    1    1    0    0    0  0.10567756010E+02  0.19981616656E+02 -0.18074247605E+02  0.28941680977E+02  0.00000000000E+00 0. -1.
</event>
<event>
 5    1  0.8902899E-005  0.9118800E+02  0.7818608E-02  0.1130116E+00
         25   -1    0    0    0    0  0.00000000000E+00  0.00000000000E+00  0.99999998245E-14  0.12500000000E+03  0.12500000000E+03 0.  0.
        -11    1    3    3    0    0  0.44200456324E+00 -0.64100205406E+01  0.33111202604E+02  0.33728852182E+02  0.51100000000E-03 0.  1.
         23    2    1    0    0    0 -0.69502724309E+01  0.27766684707E+01 -0.28025514230E+02  0.95992317871E+02  0.91504532498E+02 0.  0.
         11    1    3    3    0    0 -0.73922769942E+01  0.91866890113E+01 -0.61136716834E+02  0.62263465689E+02  0.51100000000E-03 0. -1.
         22    1    1    0    0    0  0.69502724309E+01 -0.27766684707E+01  0.28025514230E+02  0.29007682129E+02  0.00000000000E+00 0. -1.
</event>
<event>
 5    1  0.8902899E-005  0.9118800E+02  0.7818608E-02  0.1130116E+00
         25   -1    0    0    0    0  0.00000000000E+00  0.00000000000E+00  0.99999998245E-14  0.12500000000E+03  0.12500000000E+03 0.  0.
        -11    1    3    3    0    0 -0.30956412057E+02 -0.11196785357E+02  0.44547956474E+02  0.55391225623E+02  0.51100000000E-03 0.  1.
         23    2    1    0    0    0  0.31707502794E+01 -0.15261135593E+02  0.26614441148E+02  0.94157101392E+02  0.88962213035E+02 0.  0.
         11    1    3    3    0    0  0.34127162336E+02 -0.40643502364E+01 -0.17933515326E+02  0.38765875769E+02  0.51100000000E-03 0. -1.
         22    1    1    0    0    0 -0.31707502794E+01  0.15261135593E+02 -0.26614441148E+02  0.30842898608E+02  0.00000000000E+00 0. -1.
</event>
<event>
 5    1  0.8902899E-005  0.9118800E+02  0.7818608E-02  0.1130116E+00
         25   -1    0    0    0    0  0.00000000000E+00  0.00000000000E+00  0.99999998245E-14  0.12500000000E+03  0.12500000000E+03 0.  0.
        -11    1    3    3    0    0  0.29035253533E+02  0.70895806807E+01 -0.38267140742E+02  0.48555969383E+02  0.51100000000E-03 0.  1.
         23    2    1    0    0    0  0.25987479684E+02  0.13556817381E+02  0.73918229365E+01  0.94771281136E+02  0.89821045886E+02 0.  0.
         11    1    3    3    0    0 -0.30477738492E+01  0.64672367005E+01  0.45658963678E+02  0.46215311753E+02  0.51100000000E-03 0. -1.
         22    1    1    0    0    0 -0.25987479684E+02 -0.13556817381E+02 -0.73918229365E+01  0.30228718864E+02  0.00000000000E+00 0.  1.
</event>
<event>
 5    1  0.8902899E-005  0.9118800E+02  0.7818608E-02  0.1130116E+00
         25   -1    0    0    0    0  0.00000000000E+00  0.00000000000E+00  0.99999998245E-14  0.12500000000E+03  0.12500000000E+03 0.  0.
        -11    1    3    3    0    0  0.59101554732E+02 -0.11643389050E+02  0.94708501926E+01  0.60977530976E+02  0.51100000000E-03 0. -1.
         23    2    1    0    0    0  0.30566266478E+02  0.16237875930E+01 -0.16311472834E+01  0.94347202836E+02  0.89228923052E+02 0.  0.
         11    1    3    3    0    0 -0.28535288254E+02  0.13267176643E+02 -0.11101997476E+02  0.33369671860E+02  0.51100000000E-03 0.  1.
         22    1    1    0    0    0 -0.30566266478E+02 -0.16237875930E+01  0.16311472834E+01  0.30652797164E+02  0.00000000000E+00 0. -1.
</event>
<event>
 5    1  0.8902899E-005  0.9118800E+02  0.7818608E-02  0.1130116E+00
         25   -1    0    0    0    0  0.00000000000E+00  0.00000000000E+00  0.99999998245E-14  0.12500000000E+03  0.12500000000E+03 0.  0.
        -11    1    3    3    0    0 -0.19767532925E+01 -0.23070460079E+02 -0.43133713941E+02  0.48955806198E+02  0.51100000000E-03 0.  1.
         23    2    1    0    0    0 -0.26025873936E+02  0.21495559914E+01 -0.10016186997E+02  0.97030539743E+02  0.92911974125E+02 0.  0.
         11    1    3    3    0    0 -0.24049120644E+02  0.25220016070E+02  0.33117526944E+02  0.48074733545E+02  0.51100000000E-03 0. -1.
         22    1    1    0    0    0  0.26025873936E+02 -0.21495559914E+01  0.10016186997E+02  0.27969460257E+02  0.00000000000E+00 0.  1.
</event>
<event>
 5    1  0.8902899E-005  0.9118800E+02  0.7818608E-02  0.1130116E+00
         25   -1    0    0    0    0  0.00000000000E+00  0.00000000000E+00  0.99999998245E-14  0.12500000000E+03  0.12500000000E+03 0.  0.
        -11    1    3    3    0    0  0.23299232943E+02  0.39634330536E+01 -0.57129456797E+02  0.61825058766E+02  0.51100000000E-03 0. -1.
         23    2    1    0    0    0  0.68415367407E+01  0.70190838616E+01 -0.26748599479E+02  0.96512077343E+02  0.92211817766E+02 0.  0.
         11    1    3    3    0    0 -0.16457696202E+02  0.30556508081E+01  0.30380857317E+02  0.34687018577E+02  0.51100000000E-03 0.  1.
         22    1    1    0    0    0 -0.68415367407E+01 -0.70190838616E+01  0.26748599479E+02  0.28487922657E+02  0.00000000000E+00 0. -1.
</event>
<event>
 5    1  0.8902899E-005  0.9118800E+02  0.7818608E-02  0.1130116E+00
         25   -1    0    0    0    0  0.00000000000E+00  0.00000000000E+00  0.99999998245E-14  0.12500000000E+03  0.12500000000E+03 0.  0.
        -11    1    3    3    0    0 -0.25202858348E+02  0.25119868169E+02 -0.81197831383E+01  0.36498256455E+02  0.51100000000E-03 0. -1.
         23    2    1    0    0    0  0.51996344749E+01 -0.18771074300E+02  0.20202269610E+02  0.96937193183E+02  0.92786304462E+02 0.  0.
         11    1    3    3    0    0  0.30402492823E+02 -0.43890942469E+02  0.28322052749E+02  0.60438936728E+02  0.51100000000E-03 0.  1.
         22    1    1    0    0    0 -0.51996344749E+01  0.18771074300E+02 -0.20202269610E+02  0.28062806817E+02  0.00000000000E+00 0.  1.
</event>
<event>
 5    1  0.8902899E-005  0.9118800E+02  0.7818608E-02  0.1130116E+00
         25   -1    0    0    0    0  0.00000000000E+00  0.00000000000E+00  0.99999998245E-14  0.12500000000E+03  0.12500000000E+03 0.  0.
        -11    1    3    3    0    0 -0.13551535619E+02 -0.34948939364E+02  0.24282355017E+02  0.44662123166E+02  0.51100000000E-03 0.  1.
         23    2    1    0    0    0  0.88155259846E+01 -0.40226701408E+00  0.36385068131E+02  0.87560068108E+02  0.79151860541E+02 0.  0.
         11    1    3    3    0    0  0.22367061604E+02  0.34546672350E+02  0.12102713115E+02  0.42897944942E+02  0.51100000000E-03 0. -1.
         22    1    1    0    0    0 -0.88155259846E+01  0.40226701408E+00 -0.36385068131E+02  0.37439931892E+02  0.00000000000E+00 0. -1.
</event>
<event>
 5    1  0.8902899E-005  0.9118800E+02  0.7818608E-02  0.1130116E+00
         25   -1    0    0    0    0  0.00000000000E+00  0.00000000000E+00  0.99999998245E-14  0.12500000000E+03  0.12500000000E+03 0.  0.
        -11    1    3    3    0    0 -0.14716539383E+02  0.23232699252E+02 -0.38860727076E+02  0.47607677481E+02  0.51100000000E-03 0.  1.
         23    2    1    0    0    0 -0.34056273541E+02  0.59739906856E+01 -0.52892297818E+01  0.90021516844E+02  0.82948051279E+02 0.  0.
         11    1    3    3    0    0 -0.19339734157E+02 -0.17258708567E+02  0.33571497295E+02  0.42413839363E+02  0.51100000000E-03 0. -1.
         22    1    1    0    0    0  0.34056273541E+02 -0.59739906856E+01  0.52892297818E+01  0.34978483156E+02  0.00000000000E+00 0.  1.
</event>
<event>
 5    1  0.8902899E-005  0.9118800E+02  0.7818608E-02  0.1130116E+00
         25   -1    0    0    0    0  0.00000000000E+00  0.00000000000E+00  0.99999998245E-14  0.12500000000E+03  0.12500000000E+03 0.  0.
        -11    1    3    3    0    0 -0.36269365042E+02  0.11004878049E+02 -0.25155570129E+02  0.45490404375E+02  0.51100000000E-03 0. -1.
         23    2    1    0    0    0  0.40172908334E+01 -0.92695462115E+01 -0.32303175037E+02  0.91153903769E+02  0.84637320032E+02 0.  0.
         11    1    3    3    0    0  0.40286655875E+02 -0.20274424261E+02 -0.71476049081E+01  0.45663499394E+02  0.51100000000E-03 0.  1.
         22    1    1    0    0    0 -0.40172908334E+01  0.92695462115E+01  0.32303175037E+02  0.33846096231E+02  0.00000000000E+00 0. -1.
</event>
<event>
 5    1  0.8902899E-005  0.9118800E+02  0.7818608E-02  0.1130116E+00
         25   -1    0    0    0    0  0.00000000000E+00  0.00000000000E+00  0.99999998245E-14  0.12500000000E+03  0.12500000000E+03 0.  0.
        -11    1    3    3    0    0  0.30370311247E+02 -0.52076715535E+02 -0.13814290378E+02  0.61847996937E+02  0.51100000000E-03 0.  1.
         23    2    1    0    0    0  0.86200091247E+01 -0.24270719411E+02 -0.16349544450E+01  0.99192143560E+02  0.95775967183E+02 0.  0.
         11    1    3    3    0    0 -0.21750302122E+02  0.27805996125E+02  0.12179335933E+02  0.37344146622E+02  0.51100000000E-03 0. -1.
         22    1    1    0    0    0 -0.86200091247E+01  0.24270719411E+02  0.16349544450E+01  0.25807856440E+02  0.00000000000E+00 0.  1.
</event>
<event>
 5    1  0.8902899E-005  0.9118800E+02  0.7818608E-02  0.1130116E+00
         25   -1    0    0    0    0  0.00000000000E+00  0.00000000000E+00  0.99999998245E-14  0.12500000000E+03  0.12500000000E+03 0.  0.
        -11    1    3    3    0    0  0.26516593555E+02  0.30289751973E+02  0.30404668121E+01  0.40371317133E+02  0.51100000000E-03 0.  1.
         23    2    1    0    0    0 -0.11001657790E+02 -0.15091024433E+01  0.27531696376E+02  0.95313165045E+02  0.90572022509E+02 0.  0.
         11    1    3    3    0    0 -0.37518251345E+02 -0.31798854417E+02  0.24491229564E+02  0.54941847912E+02  0.51100000000E-03 0. -1.
         22    1    1    0    0    0  0.11001657790E+02  0.15091024433E+01 -0.27531696376E+02  0.29686834955E+02  0.00000000000E+00 0. -1.
</event>
<event>
 5    1  0.8902899E-005  0.9118800E+02  0.7818608E-02  0.1130116E+00
         25   -1    0    0    0    0  0.00000000000E+00  0.00000000000E+00  0.99999998245E-14  0.12500000000E+03  0.12500000000E+03 0.  0.
        -11    1    3    3    0    0 -0.38908822633E+02  0.93470182879E+01  0.47909984102E+02  0.62422991009E+02  0.51100000000E-03 0. -1.
         23    2    1    0    0    0 -0.17508757742E+02  0.62855667668E+01  0.23460648353E+02  0.95058941763E+02  0.90220482379E+02 0.  0.
         11    1    3    3    0    0  0.21400064892E+02 -0.30614515211E+01 -0.24449335749E+02  0.32635950754E+02  0.51100000000E-03 0.  1.
         22    1    1    0    0    0  0.17508757742E+02 -0.62855667668E+01 -0.23460648353E+02  0.29941058237E+02  0.00000000000E+00 0. -1.
</event>
