<event>
 5    1  0.3125560E-003  0.9118800E+02  0.7818608E-02  0.1130116E+00
         25   -1    0    0    0    0  0.00000000000E+00  0.00000000000E+00  0.99999998245E-14  0.12500000000E+03  0.12500000000E+03 0.  0.
        -13    1    3    3    0    0  0.16253596386E+01 -0.33814224814E+02  0.10433182378E+01  0.33869503550E+02  0.10566000000E+00 0.  1.
         23    2    1    0    0    0 -0.11991778285E+02  0.26449223521E+02 -0.31181421183E+01  0.95792347209E+02  0.91230953093E+02 0.  0.
         13    1    3    3    0    0 -0.13617137924E+02  0.60263448335E+02 -0.41614603560E+01  0.61922843659E+02  0.10566000000E+00 0. -1.
         22    1    1    0    0    0  0.11991778285E+02 -0.26449223521E+02  0.31181421183E+01  0.29207652791E+02  0.00000000000E+00 0. -1.
</event>
<event>
 5    1  0.3125560E-003  0.9118800E+02  0.7818608E-02  0.1130116E+00
         25   -1    0    0    0    0  0.00000000000E+00  0.00000000000E+00  0.99999998245E-14  0.12500000000E+03  0.12500000000E+03 0.  0.
        -13    1    3    3    0    0  0.51928931658E+02 -0.47738883465E+01 -0.31284730905E+02  0.60812412425E+02  0.10566000000E+00 0.  1.
         23    2    1    0    0    0  0.18724396586E+02 -0.75033408514E+01 -0.21460530943E+02  0.95547367863E+02  0.90894675123E+02 0.  0.
         13    1    3    3    0    0 -0.33204535072E+02 -0.27294525049E+01  0.98241999613E+01  0.34734955438E+02  0.10566000000E+00 0. -1.
         22    1    1    0    0    0 -0.18724396586E+02  0.75033408514E+01  0.21460530943E+02  0.29452632137E+02  0.00000000000E+00 0.  1.
</event>
<event>
 5    1  0.3125560E-003  0.9118800E+02  0.7818608E-02  0.1130116E+00
         25   -1    0    0    0    0  0.00000000000E+00  0.00000000000E+00  0.99999998245E-14  0.12500000000E+03  0.12500000000E+03 0.  0.
        -13    1    3    3    0    0  0.67260681856E+01 -0.13598783108E+02  0.32827249553E+02  0.36163605635E+02  0.10566000000E+00 0.  1.
         23    2    1    0    0    0 -0.18197995884E+02  0.10184982075E+02 -0.17922640063E+02  0.97502328446E+02  0.93544546135E+02 0.  0.
         13    1    3    3    0    0 -0.24924064069E+02  0.23783765182E+02 -0.50749889617E+02  0.61338722811E+02  0.10566000000E+00 0. -1.
         22    1    1    0    0    0  0.18197995884E+02 -0.10184982075E+02  0.17922640063E+02  0.27497671554E+02  0.00000000000E+00 0. -1.
</event>
<event>
 5    1  0.3125560E-003  0.9118800E+02  0.7818608E-02  0.1130116E+00
         25   -1    0    0    0    0  0.00000000000E+00  0.00000000000E+00  0.99999998245E-14  0.12500000000E+03  0.12500000000E+03 0.  0.
        -13    1    3    3    0    0  0.35912748858E+02  0.21384761070E+02  0.20952515689E+02  0.46755241570E+02  0.10566000000E+00 0.  1.
         23    2    1    0    0    0  0.16222299366E+02 -0.22238011500E+02  0.76016702967E+01  0.96443432568E+02  0.92118717653E+02 0.  0.
         13    1    3    3    0    0 -0.19690449492E+02 -0.43622772570E+02 -0.13350845392E+02  0.49688190998E+02  0.10566000000E+00 0. -1.
         22    1    1    0    0    0 -0.16222299366E+02  0.22238011500E+02 -0.76016702967E+01  0.28556567432E+02  0.00000000000E+00 0.  1.
</event>
<event>
 5    1  0.3125560E-003  0.9118800E+02  0.7818608E-02  0.1130116E+00
         25   -1    0    0    0    0  0.00000000000E+00  0.00000000000E+00  0.99999998245E-14  0.12500000000E+03  0.12500000000E+03 0.  0.
        -13    1    3    3    0    0  0.14907752431E+02 -0.21021812919E+02 -0.26191793036E+02  0.36744780411E+02  0.10566000000E+00 0. -1.
         23    2    1    0    0    0  0.52938693410E+01 -0.10967519651E+01  0.28630932444E+02  0.95863112553E+02  0.91327860690E+02 0.  0.
         13    1    3    3    0    0 -0.96138830897E+01  0.19925060954E+02  0.54822725481E+02  0.59118332142E+02  0.10566000000E+00 0.  1.
         22    1    1    0    0    0 -0.52938693410E+01  0.10967519651E+01 -0.28630932444E+02  0.29136887447E+02  0.00000000000E+00 0.  1.
</event>
<event>
 5    1  0.3125560E-003  0.9118800E+02  0.7818608E-02  0.1130116E+00
         25   -1    0    0    0    0  0.00000000000E+00  0.00000000000E+00  0.99999998245E-14  0.12500000000E+03  0.12500000000E+03 0.  0.
        -13    1    3    3    0    0  0.53003443660E+01 -0.60491526867E+01 -0.33084203090E+02  0.34047930286E+02  0.10566000000E+00 0.  1.
         23    2    1    0    0    0  0.10517635900E+02  0.88456684855E+01  0.26209426922E+02  0.95406071984E+02  0.90700154332E+02 0.  0.
         13    1    3    3    0    0  0.52172915335E+01  0.14894821172E+02  0.59293630011E+02  0.61358141698E+02  0.10566000000E+00 0. -1.
         22    1    1    0    0    0 -0.10517635900E+02 -0.88456684855E+01 -0.26209426922E+02  0.29593928016E+02  0.00000000000E+00 0. -1.
</event>
<event>
 5    1  0.3125560E-003  0.9118800E+02  0.7818608E-02  0.1130116E+00
         25   -1    0    0    0    0  0.00000000000E+00  0.00000000000E+00  0.99999998245E-14  0.12500000000E+03  0.12500000000E+03 0.  0.
        -13    1    3    3    0    0  0.37393565031E+02 -0.44305586803E+02  0.18118693257E+02  0.60741764355E+02  0.10566000000E+00 0.  1.
         23    2    1    0    0    0  0.13921841888E+02 -0.24559338563E+02 -0.75964695759E+00  0.96758968579E+02  0.92545892101E+02 0.  0.
         13    1    3    3    0    0 -0.23471723143E+02  0.19746248239E+02 -0.18878340214E+02  0.36017204224E+02  0.10566000000E+00 0. -1.
         22    1    1    0    0    0 -0.13921841888E+02  0.24559338563E+02  0.75964695759E+00  0.28241031421E+02  0.00000000000E+00 0.  1.
</event>
<event>
 5    1  0.3125560E-003  0.9118800E+02  0.7818608E-02  0.1130116E+00
         25   -1    0    0    0    0  0.00000000000E+00  0.00000000000E+00  0.99999998245E-14  0.12500000000E+03  0.12500000000E+03 0.  0.
        -13    1    3    3    0    0 -0.27250282632E+02 -0.25453476550E+02  0.15414982811E+02  0.40349600136E+02  0.10566000000E+00 0. -1.
         23    2    1    0    0    0 -0.98770107919E+01  0.26550546025E+02  0.35253499148E+01  0.96453285156E+02  0.92132086099E+02 0.  0.
         13    1    3    3    0    0  0.17373271840E+02  0.52004022574E+02 -0.11889632897E+02  0.56103685020E+02  0.10566000000E+00 0.  1.
         22    1    1    0    0    0  0.98770107919E+01 -0.26550546025E+02 -0.35253499148E+01  0.28546714844E+02  0.00000000000E+00 0.  1.
</event>
<event>
 5    1  0.3125560E-003  0.9118800E+02  0.7818608E-02  0.1130116E+00
         25   -1    0    0    0    0  0.00000000000E+00  0.00000000000E+00  0.99999998245E-14  0.12500000000E+03  0.12500000000E+03 0.  0.
        -13    1    3    3    0    0 -0.24289831533E+02 -0.51160936486E+01  0.46432511858E+02  0.52651302468E+02  0.10566000000E+00 0. -1.
         23    2    1    0    0    0  0.53169274347E+01 -0.20465074803E+02  0.24834751794E+02  0.92383226697E+02  0.86433828298E+02 0.  0.
         13    1    3    3    0    0  0.29606758967E+02 -0.15348981155E+02 -0.21597760065E+02  0.39731924228E+02  0.10566000000E+00 0.  1.
         22    1    1    0    0    0 -0.53169274347E+01  0.20465074803E+02 -0.24834751794E+02  0.32616773303E+02  0.00000000000E+00 0. -1.
</event>
<event>
 5    1  0.3125560E-003  0.9118800E+02  0.7818608E-02  0.1130116E+00
         25   -1    0    0    0    0  0.00000000000E+00  0.00000000000E+00  0.99999998245E-14  0.12500000000E+03  0.12500000000E+03 0.  0.
        -13    1    3    3    0    0 -0.34908648919E+02 -0.57264637946E+01  0.46194595834E+01  0.35675716220E+02  0.10566000000E+00 0. -1.
         23    2    1    0    0    0  0.22825189099E+02  0.90398729243E+01  0.15093002921E+02  0.96181476494E+02  0.91762569295E+02 0.  0.
         13    1    3    3    0    0  0.57733838018E+02  0.14766336719E+02  0.10473543337E+02  0.60505760275E+02  0.10566000000E+00 0.  1.
         22    1    1    0    0    0 -0.22825189099E+02 -0.90398729243E+01 -0.15093002921E+02  0.28818523506E+02  0.00000000000E+00 0.  1.
</event>
<event>
 5    1  0.3125560E-003  0.9118800E+02  0.7818608E-02  0.1130116E+00
         25   -1    0    0    0    0  0.00000000000E+00  0.00000000000E+00  0.99999998245E-14  0.12500000000E+03  0.12500000000E+03 0.  0.
        -13    1    3    3    0    0 -0.42464494851E+02 -0.12705346672E+02  0.31207057282E+02  0.54208401058E+02  0.10566000000E+00 0. -1.
         23    2    1    0    0    0 -0.27474214697E+02 -0.78177451158E+01 -0.70420656170E+01  0.95579933718E+02  0.90939449247E+02 0.  0.
         13    1    3    3    0    0  0.14990280154E+02  0.48876015557E+01 -0.38249122899E+02  0.41371532660E+02  0.10566000000E+00 0.  1.
         22    1    1    0    0    0  0.27474214697E+02  0.78177451158E+01  0.70420656170E+01  0.29420066282E+02  0.00000000000E+00 0.  1.
</event>
<event>
 5    1  0.3125560E-003  0.9118800E+02  0.7818608E-02  0.1130116E+00
         25   -1    0    0    0    0  0.00000000000E+00  0.00000000000E+00  0.99999998245E-14  0.12500000000E+03  0.12500000000E+03 0.  0.
        -13    1    3    3    0    0  0.19223727125E+02  0.48513094965E+01 -0.28338986426E+02  0.34586069509E+02  0.10566000000E+00 0. -1.
         23    2    1    0    0    0 -0.60815930776E+00  0.30808765506E+01  0.29281934185E+02  0.95550155727E+02  0.90898508963E+02 0.  0.
         13    1    3    3    0    0 -0.19831886433E+02 -0.17704329459E+01  0.57620920611E+02  0.60964086218E+02  0.10566000000E+00 0.  1.
         22    1    1    0    0    0  0.60815930776E+00 -0.30808765506E+01 -0.29281934185E+02  0.29449844273E+02  0.00000000000E+00 0.  1.
</event>
<event>
 5    1  0.3125560E-003  0.9118800E+02  0.7818608E-02  0.1130116E+00
         25   -1    0    0    0    0  0.00000000000E+00  0.00000000000E+00  0.99999998245E-14  0.12500000000E+03  0.12500000000E+03 0.  0.
        -13    1    3    3    0    0  0.34355845759E+02  0.35737236532E+02 -0.24483490465E+01  0.49633454341E+02  0.10566000000E+00 0. -1.
         23    2    1    0    0    0  0.14665138220E+02  0.11009448399E+02 -0.28847506119E+02  0.90817360512E+02  0.84138814634E+02 0.  0.
         13    1    3    3    0    0 -0.19690707539E+02 -0.24727788132E+02 -0.26399157073E+02  0.41183906171E+02  0.10566000000E+00 0.  1.
         22    1    1    0    0    0 -0.14665138220E+02 -0.11009448399E+02  0.28847506119E+02  0.34182639488E+02  0.00000000000E+00 0.  1.
</event>
<event>
 4    1  0.3125560E-003  0.9118800E+02  0.7818608E-02  0.1130116E+00
         25   -1    0    0    0    0  0.00000000000E+00  0.00000000000E+00  0.99999998245E-14  0.12500000000E+03  0.12500000000E+03 0.  0.
        -13    1    1    0    0    0 -0.17646780568E+02  0.37466635123E+02 -0.37256791456E+02  0.55706707725E+02  0.10566000000E+00 0.  1.
         13    1    1    0    0    0 -0.65434096406E+01  0.47304196855E+01  0.83136226381E-01  0.80753424567E+01  0.10566000000E+00 0. -1.
         22    1    1    0    0    0  0.24190190209E+02 -0.42197054809E+02  0.37173655230E+02  0.61217949819E+02  0.00000000000E+00 0.  1.
</event>
<event>
 5    1  0.3125560E-003  0.9118800E+02  0.7818608E-02  0.1130116E+00
         25   -1    0    0    0    0  0.00000000000E+00  0.00000000000E+00  0.99999998245E-14  0.12500000000E+03  0.12500000000E+03 0.  0.
        -13    1    3    3    0    0  0.19890816387E+02 -0.46612660801E+02 -0.75672960367E+01  0.51241192968E+02  0.10566000000E+00 0.  1.
         23    2    1    0    0    0 -0.14344968783E+02 -0.19615971446E+02 -0.16341719052E+02  0.95714914261E+02  0.91124796654E+02 0.  0.
         13    1    3    3    0    0 -0.34235785170E+02  0.26996689354E+02 -0.87744230151E+01  0.44473721293E+02  0.10566000000E+00 0. -1.
         22    1    1    0    0    0  0.14344968783E+02  0.19615971446E+02  0.16341719052E+02  0.29285085739E+02  0.00000000000E+00 0. -1.
</event>
<event>
 5    1  0.3125560E-003  0.9118800E+02  0.7818608E-02  0.1130116E+00
         25   -1    0    0    0    0  0.00000000000E+00  0.00000000000E+00  0.99999998245E-14  0.12500000000E+03  0.12500000000E+03 0.  0.
        -13    1    3    3    0    0 -0.18044950498E+02 -0.29339163353E+02  0.13328564207E+02  0.36933298425E+02  0.10566000000E+00 0. -1.
         23    2    1    0    0    0  0.23012676874E+02  0.14200751986E+02  0.66706704011E+01  0.97147845730E+02  0.93069659033E+02 0.  0.
         13    1    3    3    0    0  0.41057627372E+02  0.43539915339E+02 -0.66578938055E+01  0.60214547305E+02  0.10566000000E+00 0.  1.
         22    1    1    0    0    0 -0.23012676874E+02 -0.14200751986E+02 -0.66706704011E+01  0.27852154270E+02  0.00000000000E+00 0.  1.
</event>
<event>
 5    1  0.3125560E-003  0.9118800E+02  0.7818608E-02  0.1130116E+00
         25   -1    0    0    0    0  0.00000000000E+00  0.00000000000E+00  0.99999998245E-14  0.12500000000E+03  0.12500000000E+03 0.  0.
        -13    1    3    3    0    0  0.12926094637E+02  0.13859537000E+01  0.43995264253E+02  0.45875911227E+02  0.10566000000E+00 0. -1.
         23    2    1    0    0    0  0.24440249779E+02 -0.26088927188E+02  0.27249348316E+02  0.80050195609E+02  0.66238575636E+02 0.  0.
         13    1    3    3    0    0  0.11514155142E+02 -0.27474880888E+02 -0.16745915936E+02  0.34174284382E+02  0.10566000000E+00 0.  1.
         22    1    1    0    0    0 -0.24440249779E+02  0.26088927188E+02 -0.27249348316E+02  0.44949804391E+02  0.00000000000E+00 0. -1.
</event>
<event>
 5    1  0.3125560E-003  0.9118800E+02  0.7818608E-02  0.1130116E+00
         25   -1    0    0    0    0  0.00000000000E+00  0.00000000000E+00  0.99999998245E-14  0.12500000000E+03  0.12500000000E+03 0.  0.
        -13    1    3    3    0    0  0.16650787469E+02  0.48914593034E+01  0.27637134236E+02  0.32634298679E+02  0.10566000000E+00 0.  1.
         23    2    1    0    0    0 -0.31851688919E+02  0.17026425361E+02  0.19847823297E+01  0.88828621695E+02  0.81130483937E+02 0.  0.
         13    1    3    3    0    0 -0.48502476387E+02  0.12134966058E+02 -0.25652351906E+02  0.56194323017E+02  0.10566000000E+00 0. -1.
         22    1    1    0    0    0  0.31851688919E+02 -0.17026425361E+02 -0.19847823297E+01  0.36171378305E+02  0.00000000000E+00 0. -1.
</event>
<event>
 5    1  0.3125560E-003  0.9118800E+02  0.7818608E-02  0.1130116E+00
         25   -1    0    0    0    0  0.00000000000E+00  0.00000000000E+00  0.99999998245E-14  0.12500000000E+03  0.12500000000E+03 0.  0.
        -13    1    3    3    0    0  0.29891463517E+02 -0.39150046611E+00  0.13159077365E+02  0.32662292402E+02  0.10566000000E+00 0.  1.
         23    2    1    0    0    0 -0.23208586946E+02  0.17709371623E+02 -0.11079030240E+02  0.93774925743E+02  0.88423590945E+02 0.  0.
         13    1    3    3    0    0 -0.53100050463E+02  0.18100872089E+02 -0.24238107605E+02  0.61112633341E+02  0.10566000000E+00 0. -1.
         22    1    1    0    0    0  0.23208586946E+02 -0.17709371623E+02  0.11079030240E+02  0.31225074257E+02  0.00000000000E+00 0. -1.
</event>
<event>
 5    1  0.3125560E-003  0.9118800E+02  0.7818608E-02  0.1130116E+00
         25   -1    0    0    0    0  0.00000000000E+00  0.00000000000E+00  0.99999998245E-14  0.12500000000E+03  0.12500000000E+03 0.  0.
        -13    1    3    3    0    0  0.22461861772E+02  0.18514777517E+02 -0.32978002606E+02  0.43987407751E+02  0.10566000000E+00 0.  1.
         23    2    1    0    0    0 -0.23225011010E+02  0.14739870003E+02 -0.72634785064E+01  0.96549639297E+02  0.92262721748E+02 0.  0.
         13    1    3    3    0    0 -0.45686872782E+02 -0.37749075139E+01  0.25714524100E+02  0.52562231546E+02  0.10566000000E+00 0. -1.
         22    1    1    0    0    0  0.23225011010E+02 -0.14739870003E+02  0.72634785064E+01  0.28450360703E+02  0.00000000000E+00 0. -1.
</event>
<event>
 5    1  0.3125560E-003  0.9118800E+02  0.7818608E-02  0.1130116E+00
         25   -1    0    0    0    0  0.00000000000E+00  0.00000000000E+00  0.99999998245E-14  0.12500000000E+03  0.12500000000E+03 0.  0.
        -13    1    3    3    0    0  0.23919555261E+02  0.66568980621E+01 -0.21118411821E+02  0.32595366198E+02  0.10566000000E+00 0.  1.
         23    2    1    0    0    0 -0.12261768687E+02 -0.26541091198E+02  0.13621679943E+02  0.92745842783E+02  0.86956659869E+02 0.  0.
         13    1    3    3    0    0 -0.36181323948E+02 -0.33197989261E+02  0.34740091764E+02  0.60150476585E+02  0.10566000000E+00 0. -1.
         22    1    1    0    0    0  0.12261768687E+02  0.26541091198E+02 -0.13621679943E+02  0.32254157217E+02  0.00000000000E+00 0. -1.
</event>
<event>
 5    1  0.3125560E-003  0.9118800E+02  0.7818608E-02  0.1130116E+00
         25   -1    0    0    0    0  0.00000000000E+00  0.00000000000E+00  0.99999998245E-14  0.12500000000E+03  0.12500000000E+03 0.  0.
        -13    1    3    3    0    0  0.72505889021E+01 -0.10432899541E+01 -0.47927030195E+02  0.48483717686E+02  0.10566000000E+00 0.  1.
         23    2    1    0    0    0  0.82071191558E+01 -0.25748830137E+02 -0.57551778774E+01  0.97368837689E+02  0.93365997142E+02 0.  0.
         13    1    3    3    0    0  0.95653025362E+00 -0.24705540182E+02  0.42171852317E+02  0.48885120003E+02  0.10566000000E+00 0. -1.
         22    1    1    0    0    0 -0.82071191558E+01  0.25748830137E+02  0.57551778774E+01  0.27631162311E+02  0.00000000000E+00 0.  1.
</event>
<event>
 5    1  0.3125560E-003  0.9118800E+02  0.7818608E-02  0.1130116E+00
         25   -1    0    0    0    0  0.00000000000E+00  0.00000000000E+00  0.99999998245E-14  0.12500000000E+03  0.12500000000E+03 0.  0.
        -13    1    3    3    0    0 -0.20753607669E+02 -0.51009705718E+01 -0.41614759698E+02  0.46781743456E+02  0.10566000000E+00 0.  1.
         23    2    1    0    0    0  0.17491247173E+02  0.14905383553E+02 -0.16381235414E+02  0.96778393735E+02  0.92572125576E+02 0.  0.
         13    1    3    3    0    0  0.38244854842E+02  0.20006354124E+02  0.25233524283E+02  0.49996650278E+02  0.10566000000E+00 0. -1.
         22    1    1    0    0    0 -0.17491247173E+02 -0.14905383553E+02  0.16381235414E+02  0.28221606265E+02  0.00000000000E+00 0. -1.
</event>
<event>
 5    1  0.3125560E-003  0.9118800E+02  0.7818608E-02  0.1130116E+00
         25   -1    0    0    0    0  0.00000000000E+00  0.00000000000E+00  0.99999998245E-14  0.12500000000E+03  0.12500000000E+03 0.  0.
        -13    1    3    3    0    0 -0.18126529681E+02 -0.17110643154E+02 -0.24687550763E+02  0.35083208435E+02  0.10566000000E+00 0.  1.
         23    2    1    0    0    0  0.19092471158E+02 -0.36519847186E+01  0.21571287730E+02  0.95962439813E+02  0.91463708394E+02 0.  0.
         13    1    3    3    0    0  0.37219000839E+02  0.13458658435E+02  0.46258838493E+02  0.60879231377E+02  0.10566000000E+00 0. -1.
         22    1    1    0    0    0 -0.19092471158E+02  0.36519847186E+01 -0.21571287730E+02  0.29037560187E+02  0.00000000000E+00 0. -1.
</event>
<event>
 5    1  0.3125560E-003  0.9118800E+02  0.7818608E-02  0.1130116E+00
         25   -1    0    0    0    0  0.00000000000E+00  0.00000000000E+00  0.99999998245E-14  0.12500000000E+03  0.12500000000E+03 0.  0.
        -13    1    3    3    0    0 -0.44063612159E+02  0.31064299253E+01 -0.55930845102E+01  0.44525785582E+02  0.10566000000E+00 0.  1.
         23    2    1    0    0    0  0.81020504249E+01  0.19075443915E+02  0.10984560208E+02  0.10154416182E+03  0.98797977993E+02 0.  0.
         13    1    3    3    0    0  0.52165662584E+02  0.15969013990E+02  0.16577644718E+02  0.57018376240E+02  0.10566000000E+00 0. -1.
         22    1    1    0    0    0 -0.81020504249E+01 -0.19075443915E+02 -0.10984560208E+02  0.23455838178E+02  0.00000000000E+00 0. -1.
</event>
<event>
 5    1  0.3125560E-003  0.9118800E+02  0.7818608E-02  0.1130116E+00
         25   -1    0    0    0    0  0.00000000000E+00  0.00000000000E+00  0.99999998245E-14  0.12500000000E+03  0.12500000000E+03 0.  0.
        -13    1    3    3    0    0 -0.10895189217E+02  0.23431300660E+02  0.28523401931E+02  0.38488006190E+02  0.10566000000E+00 0.  1.
         23    2    1    0    0    0  0.19769659428E+02 -0.19966548157E+02  0.56550612750E+01  0.96338489272E+02  0.91976205172E+02 0.  0.
         13    1    3    3    0    0  0.30664848645E+02 -0.43397848817E+02 -0.22868340656E+02  0.57850483082E+02  0.10566000000E+00 0. -1.
         22    1    1    0    0    0 -0.19769659428E+02  0.19966548157E+02 -0.56550612750E+01  0.28661510728E+02  0.00000000000E+00 0. -1.
</event>
<event>
 5    1  0.3125560E-003  0.9118800E+02  0.7818608E-02  0.1130116E+00
         25   -1    0    0    0    0  0.00000000000E+00  0.00000000000E+00  0.99999998245E-14  0.12500000000E+03  0.12500000000E+03 0.  0.
        -13    1    3    3    0    0  0.11028980202E+02  0.25396806265E+02 -0.21431202544E+02  0.35013479966E+02  0.10566000000E+00 0.  1.
         23    2    1    0    0    0 -0.23738654148E+02 -0.81612777831E+01  0.15203816503E+02  0.95652322203E+02  0.91038895813E+02 0.  0.
         13    1    3    3    0    0 -0.34767634350E+02 -0.33558084048E+02  0.36635019047E+02  0.60638842238E+02  0.10566000000E+00 0. -1.
         22    1    1    0    0    0  0.23738654148E+02  0.81612777831E+01 -0.15203816503E+02  0.29347677797E+02  0.00000000000E+00 0. -1.
</event>
<event>
 5    1  0.3125560E-003  0.9118800E+02  0.7818608E-02  0.1130116E+00
         25   -1    0    0    0    0  0.00000000000E+00  0.00000000000E+00  0.99999998245E-14  0.12500000000E+03  0.12500000000E+03 0.  0.
        -13    1    3    3    0    0 -0.24462722581E+02 -0.30349993601E+01  0.19617445255E+02  0.31503830554E+02  0.10566000000E+00 0. -1.
         23    2    1    0    0    0  0.15194542119E+02  0.31936155234E+02 -0.39902857476E+01  0.89409067142E+02  0.82019917005E+02 0.  0.
         13    1    3    3    0    0  0.39657264700E+02  0.34971154594E+02 -0.23607731003E+02  0.57905236588E+02  0.10566000000E+00 0.  1.
         22    1    1    0    0    0 -0.15194542119E+02 -0.31936155234E+02  0.39902857476E+01  0.35590932858E+02  0.00000000000E+00 0.  1.
</event>
<event>
 5    1  0.3125560E-003  0.9118800E+02  0.7818608E-02  0.1130116E+00
         25   -1    0    0    0    0  0.00000000000E+00  0.00000000000E+00  0.99999998245E-14  0.12500000000E+03  0.12500000000E+03 0.  0.
        -13    1    3    3    0    0 -0.79090528636E+01 -0.54922762836E+02  0.25830014381E+01  0.55549491943E+02  0.10566000000E+00 0.  1.
         23    2    1    0    0    0  0.89600056854E+01 -0.23845770809E+02 -0.15413659497E+02  0.95226129132E+02  0.90451822994E+02 0.  0.
         13    1    3    3    0    0  0.16869058549E+02  0.31076992026E+02 -0.17996660935E+02  0.39676637189E+02  0.10566000000E+00 0. -1.
         22    1    1    0    0    0 -0.89600056854E+01  0.23845770809E+02  0.15413659497E+02  0.29773870868E+02  0.00000000000E+00 0.  1.
</event>
<event>
 5    1  0.3125560E-003  0.9118800E+02  0.7818608E-02  0.1130116E+00
         25   -1    0    0    0    0  0.00000000000E+00  0.00000000000E+00  0.99999998245E-14  0.12500000000E+03  0.12500000000E+03 0.  0.
        -13    1    3    3    0    0 -0.13007915026E+02 -0.30764625804E+02 -0.38263532355E+00  0.33403976230E+02  0.10566000000E+00 0.  1.
         23    2    1    0    0    0  0.14943362992E+02  0.24476354928E+02 -0.64359404502E+01  0.95609229722E+02  0.90979708895E+02 0.  0.
         13    1    3    3    0    0  0.27951278017E+02  0.55240980732E+02 -0.60533051266E+01  0.62205253492E+02  0.10566000000E+00 0. -1.
         22    1    1    0    0    0 -0.14943362992E+02 -0.24476354928E+02  0.64359404502E+01  0.29390770278E+02  0.00000000000E+00 0. -1.
</event>
<event>
 5    1  0.3125560E-003  0.9118800E+02  0.7818608E-02  0.1130116E+00
         25   -1    0    0    0    0  0.00000000000E+00  0.00000000000E+00  0.99999998245E-14  0.12500000000E+03  0.12500000000E+03 0.  0.
        -13    1    3    3    0    0 -0.51664524309E+01 -0.14161726789E+02  0.32042246249E+02  0.35411346276E+02  0.10566000000E+00 0.  1.
         23    2    1    0    0    0 -0.16743573936E+02 -0.90087745859E+01 -0.24857166751E+02  0.93704888136E+02  0.88324526798E+02 0.  0.
         13    1    3    3    0    0 -0.11577121505E+02  0.51529522030E+01 -0.56899413000E+02  0.58293541860E+02  0.10566000000E+00 0. -1.
         22    1    1    0    0    0  0.16743573936E+02  0.90087745859E+01  0.24857166751E+02  0.31295111864E+02  0.00000000000E+00 0. -1.
</event>
<event>
 5    1  0.3125560E-003  0.9118800E+02  0.7818608E-02  0.1130116E+00
         25   -1    0    0    0    0  0.00000000000E+00  0.00000000000E+00  0.99999998245E-14  0.12500000000E+03  0.12500000000E+03 0.  0.
        -13    1    3    3    0    0  0.38004491359E+02 -0.26458190731E+02  0.24616795921E+02  0.52444018017E+02  0.10566000000E+00 0. -1.
         23    2    1    0    0    0  0.16741636731E+02 -0.18711078901E+02 -0.13289886161E+02  0.96592114682E+02  0.92320250599E+02 0.  0.
         13    1    3    3    0    0 -0.21262854629E+02  0.77471118306E+01 -0.37906682082E+02  0.44148096666E+02  0.10566000000E+00 0.  1.
         22    1    1    0    0    0 -0.16741636731E+02  0.18711078901E+02  0.13289886161E+02  0.28407885318E+02  0.00000000000E+00 0. -1.
</event>
<event>
 5    1  0.3125560E-003  0.9118800E+02  0.7818608E-02  0.1130116E+00
         25   -1    0    0    0    0  0.00000000000E+00  0.00000000000E+00  0.99999998245E-14  0.12500000000E+03  0.12500000000E+03 0.  0.
        -13    1    3    3    0    0 -0.36180434583E+02 -0.77627490252E+01 -0.17077478024E-01  0.37003994037E+02  0.10566000000E+00 0.  1.
         23    2    1    0    0    0  0.15597745921E+02 -0.22859758133E+01 -0.25537137787E+02  0.94988989194E+02  0.90123511353E+02 0.  0.
         13    1    3    3    0    0  0.51778180504E+02  0.54767732119E+01 -0.25520060309E+02  0.57984995157E+02  0.10566000000E+00 0. -1.
         22    1    1    0    0    0 -0.15597745921E+02  0.22859758133E+01  0.25537137787E+02  0.30011010806E+02  0.00000000000E+00 0. -1.
</event>
<event>
 5    1  0.3125560E-003  0.9118800E+02  0.7818608E-02  0.1130116E+00
         25   -1    0    0    0    0  0.00000000000E+00  0.00000000000E+00  0.99999998245E-14  0.12500000000E+03  0.12500000000E+03 0.  0.
        -13    1    3    3    0    0 -0.95841748945E+01  0.25338249120E+02  0.32697930386E+02  0.42462325566E+02  0.10566000000E+00 0.  1.
         23    2    1    0    0    0 -0.10194798796E+02 -0.24159492951E+02  0.97605299858E+01  0.97019954114E+02  0.92897731558E+02 0.  0.
         13    1    3    3    0    0 -0.61062390132E+00 -0.49497742072E+02 -0.22937400400E+02  0.54557628549E+02  0.10566000000E+00 0. -1.
         22    1    1    0    0    0  0.10194798796E+02  0.24159492951E+02 -0.97605299858E+01  0.27980045886E+02  0.00000000000E+00 0. -1.
</event>
<event>
 5    1  0.3125560E-003  0.9118800E+02  0.7818608E-02  0.1130116E+00
         25   -1    0    0    0    0  0.00000000000E+00  0.00000000000E+00  0.99999998245E-14  0.12500000000E+03  0.12500000000E+03 0.  0.
        -13    1    3    3    0    0 -0.29019387512E+02  0.44952375041E+02  0.17731585458E+02  0.56367199330E+02  0.10566000000E+00 0. -1.
         23    2    1    0    0    0 -0.76559283893E+01  0.31641304864E+02 -0.70508127980E+01  0.91690851495E+02  0.85426652010E+02 0.  0.
         13    1    3    3    0    0  0.21363459122E+02 -0.13311070177E+02 -0.24782398256E+02  0.35323652165E+02  0.10566000000E+00 0.  1.
         22    1    1    0    0    0  0.76559283893E+01 -0.31641304864E+02  0.70508127980E+01  0.33309148505E+02  0.00000000000E+00 0. -1.
</event>
<event>
 5    1  0.3125560E-003  0.9118800E+02  0.7818608E-02  0.1130116E+00
         25   -1    0    0    0    0  0.00000000000E+00  0.00000000000E+00  0.99999998245E-14  0.12500000000E+03  0.12500000000E+03 0.  0.
        -13    1    3    3    0    0 -0.34363038512E+02  0.47677166880E+02 -0.89485227668E+01  0.59447606186E+02  0.10566000000E+00 0.  1.
         23    2    1    0    0    0 -0.15568128204E+02  0.16688130383E+02 -0.16959978732E+02  0.96565844657E+02  0.92284674591E+02 0.  0.
         13    1    3    3    0    0  0.18794910308E+02 -0.30989036497E+02 -0.80114559649E+01  0.37118238471E+02  0.10566000000E+00 0. -1.
         22    1    1    0    0    0  0.15568128204E+02 -0.16688130383E+02  0.16959978732E+02  0.28434155343E+02  0.00000000000E+00 0.  1.
</event>
<event>
 5    1  0.3125560E-003  0.9118800E+02  0.7818608E-02  0.1130116E+00
         25   -1    0    0    0    0  0.00000000000E+00  0.00000000000E+00  0.99999998245E-14  0.12500000000E+03  0.12500000000E+03 0.  0.
        -13    1    3    3    0    0 -0.15857687599E+01  0.60438306714E+01  0.42561067283E+02  0.43017416984E+02  0.10566000000E+00 0. -1.
         23    2    1    0    0    0 -0.25555106959E+02 -0.12501715001E+02 -0.15185444343E+01  0.96510311570E+02  0.92209424098E+02 0.  0.
         13    1    3    3    0    0 -0.23969338199E+02 -0.18545545672E+02 -0.44079611717E+02  0.53492894585E+02  0.10566000000E+00 0.  1.
         22    1    1    0    0    0  0.25555106959E+02  0.12501715001E+02  0.15185444343E+01  0.28489688430E+02  0.00000000000E+00 0.  1.
</event>
<event>
 5    1  0.3125560E-003  0.9118800E+02  0.7818608E-02  0.1130116E+00
         25   -1    0    0    0    0  0.00000000000E+00  0.00000000000E+00  0.99999998245E-14  0.12500000000E+03  0.12500000000E+03 0.  0.
        -13    1    3    3    0    0 -0.37143546951E+02  0.90205148310E+01 -0.18410941818E+02  0.42426250254E+02  0.10566000000E+00 0.  1.
         23    2    1    0    0    0 -0.10756361940E+02 -0.13781970067E+02  0.22707199289E+02  0.96342384596E+02  0.91981498949E+02 0.  0.
         13    1    3    3    0    0  0.26387185011E+02 -0.22802484898E+02  0.41118141106E+02  0.53916134342E+02  0.10566000000E+00 0. -1.
         22    1    1    0    0    0  0.10756361940E+02  0.13781970067E+02 -0.22707199289E+02  0.28657615404E+02  0.00000000000E+00 0. -1.
</event>
<event>
 5    1  0.3125560E-003  0.9118800E+02  0.7818608E-02  0.1130116E+00
         25   -1    0    0    0    0  0.00000000000E+00  0.00000000000E+00  0.99999998245E-14  0.12500000000E+03  0.12500000000E+03 0.  0.
        -13    1    3    3    0    0  0.36866691568E+02 -0.21750812090E+02 -0.43387949633E+02  0.60948963167E+02  0.10566000000E+00 0.  1.
         23    2    1    0    0    0  0.25480767420E+02 -0.61181474582E+01 -0.16632882911E+02  0.93962054988E+02  0.88687731660E+02 0.  0.
         13    1    3    3    0    0 -0.11385924148E+02  0.15632664632E+02  0.26755066722E+02  0.33013091820E+02  0.10566000000E+00 0. -1.
         22    1    1    0    0    0 -0.25480767420E+02  0.61181474582E+01  0.16632882911E+02  0.31037945012E+02  0.00000000000E+00 0.  1.
</event>
<event>
 5    1  0.3125560E-003  0.9118800E+02  0.7818608E-02  0.1130116E+00
         25   -1    0    0    0    0  0.00000000000E+00  0.00000000000E+00  0.99999998245E-14  0.12500000000E+03  0.12500000000E+03 0.  0.
        -13    1    3    3    0    0  0.46924090007E+02 -0.25734556499E+02  0.70225927757E+01  0.53976528181E+02  0.10566000000E+00 0.  1.
         23    2    1    0    0    0  0.75931449144E+01 -0.10945188231E+02  0.22579669931E+02  0.98783698024E+02  0.95241401218E+02 0.  0.
         13    1    3    3    0    0 -0.39330945093E+02  0.14789368268E+02  0.15557077155E+02  0.44807169843E+02  0.10566000000E+00 0. -1.
         22    1    1    0    0    0 -0.75931449144E+01  0.10945188231E+02 -0.22579669931E+02  0.26216301976E+02  0.00000000000E+00 0.  1.
</event>
<event>
 5    1  0.3125560E-003  0.9118800E+02  0.7818608E-02  0.1130116E+00
         25   -1    0    0    0    0  0.00000000000E+00  0.00000000000E+00  0.99999998245E-14  0.12500000000E+03  0.12500000000E+03 0.  0.
        -13    1    3    3    0    0  0.43082270866E+02 -0.26710165214E+02 -0.49012438017E+01  0.50926892146E+02  0.10566000000E+00 0.  1.
         23    2    1    0    0    0  0.23819099858E+02  0.10215540213E+02  0.12695738435E+02  0.96140191367E+02  0.91706312988E+02 0.  0.
         13    1    3    3    0    0 -0.19263171008E+02  0.36925705428E+02  0.17596982237E+02  0.45213299222E+02  0.10566000000E+00 0. -1.
         22    1    1    0    0    0 -0.23819099858E+02 -0.10215540213E+02 -0.12695738435E+02  0.28859808633E+02  0.00000000000E+00 0. -1.
</event>
<event>
 5    1  0.3125560E-003  0.9118800E+02  0.7818608E-02  0.1130116E+00
         25   -1    0    0    0    0  0.00000000000E+00  0.00000000000E+00  0.99999998245E-14  0.12500000000E+03  0.12500000000E+03 0.  0.
        -13    1    3    3    0    0 -0.19854839881E+02  0.20255685338E+01  0.57695548821E+02  0.61050021395E+02  0.10566000000E+00 0.  1.
         23    2    1    0    0    0 -0.15041290717E+02  0.73874216953E+01  0.22672326019E+02  0.96806937150E+02  0.92610659686E+02 0.  0.
         13    1    3    3    0    0  0.48135491631E+01  0.53618531615E+01 -0.35023222802E+02  0.35756915755E+02  0.10566000000E+00 0. -1.
         22    1    1    0    0    0  0.15041290717E+02 -0.73874216953E+01 -0.22672326019E+02  0.28193062850E+02  0.00000000000E+00 0.  1.
</event>
<event>
 5    1  0.3125560E-003  0.9118800E+02  0.7818608E-02  0.1130116E+00
         25   -1    0    0    0    0  0.00000000000E+00  0.00000000000E+00  0.99999998245E-14  0.12500000000E+03  0.12500000000E+03 0.  0.
        -13    1    3    3    0    0 -0.53967289683E+02 -0.28219300487E+02 -0.12848494792E+02  0.62240599757E+02  0.10566000000E+00 0. -1.
         23    2    1    0    0    0 -0.27951342785E+02 -0.16888916825E+02 -0.10418749995E+02  0.90720801840E+02  0.83995240698E+02 0.  0.
         13    1    3    3    0    0  0.26015946897E+02  0.11330383662E+02  0.24297447966E+01  0.28480202083E+02  0.10566000000E+00 0.  1.
         22    1    1    0    0    0  0.27951342785E+02  0.16888916825E+02  0.10418749995E+02  0.34279198160E+02  0.00000000000E+00 0. -1.
</event>
<event>
 5    1  0.3125560E-003  0.9118800E+02  0.7818608E-02  0.1130116E+00
         25   -1    0    0    0    0  0.00000000000E+00  0.00000000000E+00  0.99999998245E-14  0.12500000000E+03  0.12500000000E+03 0.  0.
        -13    1    3    3    0    0 -0.31206515356E+02  0.46117165264E+01 -0.43665607163E+02  0.53868459630E+02  0.10566000000E+00 0. -1.
         23    2    1    0    0    0 -0.26215607891E+02  0.11890496643E+01  0.80110241968E+00  0.98745215650E+02  0.95190881457E+02 0.  0.
         13    1    3    3    0    0  0.49909074654E+01 -0.34226668622E+01  0.44466709582E+02  0.44876756020E+02  0.10566000000E+00 0.  1.
         22    1    1    0    0    0  0.26215607891E+02 -0.11890496643E+01 -0.80110241968E+00  0.26254784350E+02  0.00000000000E+00 0. -1.
</event>
<event>
 5    1  0.3125560E-003  0.9118800E+02  0.7818608E-02  0.1130116E+00
         25   -1    0    0    0    0  0.00000000000E+00  0.00000000000E+00  0.99999998245E-14  0.12500000000E+03  0.12500000000E+03 0.  0.
        -13    1    3    3    0    0 -0.74009689422E+01  0.21948647380E+02  0.40059055128E+02  0.46273713109E+02  0.10566000000E+00 0.  1.
         23    2    1    0    0    0  0.27173792240E+02  0.32795697575E+01  0.95849119720E+01  0.95999291388E+02  0.91514058194E+02 0.  0.
         13    1    3    3    0    0  0.34574761182E+02 -0.18669077623E+02 -0.30474143156E+02  0.49725578279E+02  0.10566000000E+00 0. -1.
         22    1    1    0    0    0 -0.27173792240E+02 -0.32795697575E+01 -0.95849119720E+01  0.29000708612E+02  0.00000000000E+00 0. -1.
</event>
<event>
 5    1  0.3125560E-003  0.9118800E+02  0.7818608E-02  0.1130116E+00
         25   -1    0    0    0    0  0.00000000000E+00  0.00000000000E+00  0.99999998245E-14  0.12500000000E+03  0.12500000000E+03 0.  0.
        -13    1    3    3    0    0  0.53085705579E+02  0.14831452515E+02 -0.14490845763E+02  0.56991752872E+02  0.10566000000E+00 0.  1.
         23    2    1    0    0    0  0.17317002679E+02  0.28196303516E+01 -0.23392028702E+02  0.95759345016E+02  0.91185723959E+02 0.  0.
         13    1    3    3    0    0 -0.35768702900E+02 -0.12011822163E+02 -0.89011829391E+01  0.38767592144E+02  0.10566000000E+00 0. -1.
         22    1    1    0    0    0 -0.17317002679E+02 -0.28196303516E+01  0.23392028702E+02  0.29240654984E+02  0.00000000000E+00 0.  1.
</event>
<event>
 5    1  0.3125560E-003  0.9118800E+02  0.7818608E-02  0.1130116E+00
         25   -1    0    0    0    0  0.00000000000E+00  0.00000000000E+00  0.99999998245E-14  0.12500000000E+03  0.12500000000E+03 0.  0.
        -13    1    3    3    0    0  0.48416463535E+02 -0.13514370283E+02  0.21158726204E+02  0.54538931086E+02  0.10566000000E+00 0.  1.
         23    2    1    0    0    0  0.19311275106E+02  0.14763877086E+02  0.17010392189E+02  0.95330978189E+02  0.90596603397E+02 0.  0.
         13    1    3    3    0    0 -0.29105188429E+02  0.28278247369E+02 -0.41483340149E+01  0.40792047103E+02  0.10566000000E+00 0. -1.
         22    1    1    0    0    0 -0.19311275106E+02 -0.14763877086E+02 -0.17010392189E+02  0.29669021811E+02  0.00000000000E+00 0.  1.
</event>
<event>
 5    1  0.3125560E-003  0.9118800E+02  0.7818608E-02  0.1130116E+00
         25   -1    0    0    0    0  0.00000000000E+00  0.00000000000E+00  0.99999998245E-14  0.12500000000E+03  0.12500000000E+03 0.  0.
        -13    1    3    3    0    0 -0.39952224918E+02 -0.15990652467E+02 -0.43997511638E+02  0.61544077185E+02  0.10566000000E+00 0.  1.
         23    2    1    0    0    0 -0.25622498929E+02 -0.39242104370E+01 -0.18633490397E+02  0.93076359179E+02  0.87430485499E+02 0.  0.
         13    1    3    3    0    0  0.14329725989E+02  0.12066442030E+02  0.25364021241E+02  0.31532281994E+02  0.10566000000E+00 0. -1.
         22    1    1    0    0    0  0.25622498929E+02  0.39242104370E+01  0.18633490397E+02  0.31923640821E+02  0.00000000000E+00 0.  1.
</event>
<event>
 5    1  0.3125560E-003  0.9118800E+02  0.7818608E-02  0.1130116E+00
         25   -1    0    0    0    0  0.00000000000E+00  0.00000000000E+00  0.99999998245E-14  0.12500000000E+03  0.12500000000E+03 0.  0.
        -13    1    3    3    0    0 -0.32897061117E+02  0.21549975681E+02 -0.29938421780E+02  0.49426089717E+02  0.10566000000E+00 0. -1.
         23    2    1    0    0    0 -0.32254759932E+02  0.57641662387E+01  0.86399159462E+01  0.91114261137E+02  0.84578751967E+02 0.  0.
         13    1    3    3    0    0  0.64230118498E+00 -0.15785809442E+02  0.38578337726E+02  0.41688171420E+02  0.10566000000E+00 0.  1.
         22    1    1    0    0    0  0.32254759932E+02 -0.57641662387E+01 -0.86399159462E+01  0.33885738863E+02  0.00000000000E+00 0.  1.
</event>
<event>
 5    1  0.3125560E-003  0.9118800E+02  0.7818608E-02  0.1130116E+00
         25   -1    0    0    0    0  0.00000000000E+00  0.00000000000E+00  0.99999998245E-14  0.12500000000E+03  0.12500000000E+03 0.  0.
        -13    1    3    3    0    0  0.67318760821E+01 -0.48365400293E+02 -0.20036966643E+02  0.52782774627E+02  0.10566000000E+00 0.  1.
         23    2    1    0    0    0 -0.10481793877E+01 -0.66472893480E+01 -0.28208565094E+02  0.95999857235E+02  0.91514831087E+02 0.  0.
         13    1    3    3    0    0 -0.77800554698E+01  0.41718110945E+02 -0.81715984507E+01  0.43217082608E+02  0.10566000000E+00 0. -1.
         22    1    1    0    0    0  0.10481793877E+01  0.66472893480E+01  0.28208565094E+02  0.29000142765E+02  0.00000000000E+00 0. -1.
</event>
<event>
 5    1  0.3125560E-003  0.9118800E+02  0.7818608E-02  0.1130116E+00
         25   -1    0    0    0    0  0.00000000000E+00  0.00000000000E+00  0.99999998245E-14  0.12500000000E+03  0.12500000000E+03 0.  0.
        -13    1    3    3    0    0 -0.12122112996E+02 -0.15946871408E+01 -0.58758386631E+02  0.60017062691E+02  0.10566000000E+00 0.  1.
         23    2    1    0    0    0  0.63885729712E+01  0.22207840430E+01 -0.28621731868E+02  0.95589979913E+02  0.90953257107E+02 0.  0.
         13    1    3    3    0    0  0.18510685967E+02  0.38154711838E+01  0.30136654763E+02  0.35572917222E+02  0.10566000000E+00 0. -1.
         22    1    1    0    0    0 -0.63885729712E+01 -0.22207840430E+01  0.28621731868E+02  0.29410020087E+02  0.00000000000E+00 0.  1.
</event>
<event>
 5    1  0.3125560E-003  0.9118800E+02  0.7818608E-02  0.1130116E+00
         25   -1    0    0    0    0  0.00000000000E+00  0.00000000000E+00  0.99999998245E-14  0.12500000000E+03  0.12500000000E+03 0.  0.
        -13    1    3    3    0    0  0.20265279603E+02  0.12280191449E+02 -0.55138038115E+02  0.60014157252E+02  0.10566000000E+00 0. -1.
         23    2    1    0    0    0 -0.26893224415E+01  0.37659506277E+01 -0.28228700566E+02  0.96394504462E+02  0.92052300978E+02 0.  0.
         13    1    3    3    0    0 -0.22954602044E+02 -0.85142408217E+01  0.26909337549E+02  0.36380347210E+02  0.10566000000E+00 0.  1.
         22    1    1    0    0    0  0.26893224415E+01 -0.37659506277E+01  0.28228700566E+02  0.28605495538E+02  0.00000000000E+00 0. -1.
</event>
<event>
 5    1  0.3125560E-003  0.9118800E+02  0.7818608E-02  0.1130116E+00
         25   -1    0    0    0    0  0.00000000000E+00  0.00000000000E+00  0.99999998245E-14  0.12500000000E+03  0.12500000000E+03 0.  0.
        -13    1    3    3    0    0 -0.13489587187E+02 -0.34864434292E+02 -0.10353200540E+02  0.38790432666E+02  0.10566000000E+00 0.  1.
         23    2    1    0    0    0  0.29466978568E+02 -0.21247214209E+01  0.52141082217E+01  0.94999930140E+02  0.90138685009E+02 0.  0.
         13    1    3    3    0    0  0.42956565754E+02  0.32739712871E+02  0.15567308762E+02  0.56209497475E+02  0.10566000000E+00 0. -1.
         22    1    1    0    0    0 -0.29466978568E+02  0.21247214209E+01 -0.52141082217E+01  0.30000069860E+02  0.00000000000E+00 0. -1.
</event>
<event>
 5    1  0.3125560E-003  0.9118800E+02  0.7818608E-02  0.1130116E+00
         25   -1    0    0    0    0  0.00000000000E+00  0.00000000000E+00  0.99999998245E-14  0.12500000000E+03  0.12500000000E+03 0.  0.
        -13    1    3    3    0    0 -0.46149891338E+02 -0.18542201238E+02  0.19134966848E+01  0.49772465589E+02  0.10566000000E+00 0. -1.
         23    2    1    0    0    0 -0.51347146060E+01 -0.21224326022E+02  0.20651171095E+02  0.94944914295E+02  0.90062359361E+02 0.  0.
         13    1    3    3    0    0  0.41015176732E+02 -0.26821247839E+01  0.18737674410E+02  0.45172448705E+02  0.10566000000E+00 0.  1.
         22    1    1    0    0    0  0.51347146060E+01  0.21224326022E+02 -0.20651171095E+02  0.30055085705E+02  0.00000000000E+00 0. -1.
</event>
<event>
 5    1  0.3125560E-003  0.9118800E+02  0.7818608E-02  0.1130116E+00
         25   -1    0    0    0    0  0.00000000000E+00  0.00000000000E+00  0.99999998245E-14  0.12500000000E+03  0.12500000000E+03 0.  0.
        -13    1    3    3    0    0  0.48678333868E+02  0.11913853934E+02 -0.32363495469E+02  0.59656744017E+02  0.10566000000E+00 0. -1.
         23    2    1    0    0    0  0.22430169191E+02 -0.70791821354E+01 -0.19237809742E+02  0.94613808509E+02  0.89601630160E+02 0.  0.
         13    1    3    3    0    0 -0.26248164677E+02 -0.18993036069E+02  0.13125685726E+02  0.34957064492E+02  0.10566000000E+00 0.  1.
         22    1    1    0    0    0 -0.22430169191E+02  0.70791821354E+01  0.19237809742E+02  0.30386191491E+02  0.00000000000E+00 0. -1.
</event>
<event>
 5    1  0.3125560E-003  0.9118800E+02  0.7818608E-02  0.1130116E+00
         25   -1    0    0    0    0  0.00000000000E+00  0.00000000000E+00  0.99999998245E-14  0.12500000000E+03  0.12500000000E+03 0.  0.
        -13    1    3    3    0    0  0.32610428983E+02  0.63704969236E+01  0.40042641851E+02  0.52033139824E+02  0.10566000000E+00 0. -1.
         23    2    1    0    0    0 -0.94369419430E+01  0.55629930748E+01  0.26677327119E+02  0.96161093166E+02  0.91734798694E+02 0.  0.
         13    1    3    3    0    0 -0.42047370926E+02 -0.80750384882E+00 -0.13365314732E+02  0.44127953342E+02  0.10566000000E+00 0.  1.
         22    1    1    0    0    0  0.94369419430E+01 -0.55629930748E+01 -0.26677327119E+02  0.28838906834E+02  0.00000000000E+00 0. -1.
</event>
<event>
 5    1  0.3125560E-003  0.9118800E+02  0.7818608E-02  0.1130116E+00
         25   -1    0    0    0    0  0.00000000000E+00  0.00000000000E+00  0.99999998245E-14  0.12500000000E+03  0.12500000000E+03 0.  0.
        -13    1    3    3    0    0 -0.87223566057E+01  0.33832115566E+01 -0.29476516492E+02  0.30925746777E+02  0.10566000000E+00 0.  1.
         23    2    1    0    0    0  0.28413121836E+02  0.94744370436E+01  0.16868657380E+02  0.90625270161E+02  0.83852951887E+02 0.  0.
         13    1    3    3    0    0  0.37135478441E+02  0.60912254870E+01  0.46345173872E+02  0.59699523383E+02  0.10566000000E+00 0. -1.
         22    1    1    0    0    0 -0.28413121836E+02 -0.94744370436E+01 -0.16868657380E+02  0.34374729839E+02  0.00000000000E+00 0. -1.
</event>
<event>
 5    1  0.3125560E-003  0.9118800E+02  0.7818608E-02  0.1130116E+00
         25   -1    0    0    0    0  0.00000000000E+00  0.00000000000E+00  0.99999998245E-14  0.12500000000E+03  0.12500000000E+03 0.  0.
        -13    1    3    3    0    0 -0.57985557967E+02  0.20932518901E+02 -0.70027615763E+01  0.62044702546E+02  0.10566000000E+00 0. -1.
         23    2    1    0    0    0 -0.26865575825E+02  0.15364378292E+02 -0.36834504315E+01  0.93832852364E+02  0.88505441024E+02 0.  0.
         13    1    3    3    0    0  0.31119982142E+02 -0.55681406084E+01  0.33193111447E+01  0.31788149818E+02  0.10566000000E+00 0.  1.
         22    1    1    0    0    0  0.26865575825E+02 -0.15364378292E+02  0.36834504315E+01  0.31167147636E+02  0.00000000000E+00 0. -1.
</event>
<event>
 5    1  0.3125560E-003  0.9118800E+02  0.7818608E-02  0.1130116E+00
         25   -1    0    0    0    0  0.00000000000E+00  0.00000000000E+00  0.99999998245E-14  0.12500000000E+03  0.12500000000E+03 0.  0.
        -13    1    3    3    0    0 -0.22772957682E+02  0.60291669754E+01  0.92763609602E+01  0.25318382506E+02  0.10566000000E+00 0.  1.
         23    2    1    0    0    0  0.11863799632E+02  0.17304632925E+02  0.44382715193E+02  0.75907989751E+02  0.57896437176E+02 0.  0.
         13    1    3    3    0    0  0.34636757314E+02  0.11275465950E+02  0.35106354233E+02  0.50589607245E+02  0.10566000000E+00 0. -1.
         22    1    1    0    0    0 -0.11863799632E+02 -0.17304632925E+02 -0.44382715193E+02  0.49092010249E+02  0.00000000000E+00 0. -1.
</event>
<event>
 5    1  0.3125560E-003  0.9118800E+02  0.7818608E-02  0.1130116E+00
         25   -1    0    0    0    0  0.00000000000E+00  0.00000000000E+00  0.99999998245E-14  0.12500000000E+03  0.12500000000E+03 0.  0.
        -13    1    3    3    0    0 -0.35191942718E+02 -0.55942372247E+01  0.43008951979E+02  0.55852926841E+02  0.10566000000E+00 0.  1.
         23    2    1    0    0    0 -0.26932909157E+02  0.78048407276E+01  0.56457807776E+01  0.96396294383E+02  0.92054731523E+02 0.  0.
         13    1    3    3    0    0  0.82590335606E+01  0.13399077952E+02 -0.37363171202E+02  0.40543367541E+02  0.10566000000E+00 0. -1.
         22    1    1    0    0    0  0.26932909157E+02 -0.78048407276E+01 -0.56457807776E+01  0.28603705617E+02  0.00000000000E+00 0.  1.
</event>
<event>
 5    1  0.3125560E-003  0.9118800E+02  0.7818608E-02  0.1130116E+00
         25   -1    0    0    0    0  0.00000000000E+00  0.00000000000E+00  0.99999998245E-14  0.12500000000E+03  0.12500000000E+03 0.  0.
        -13    1    3    3    0    0 -0.31447282613E+02  0.71198173035E+01  0.25933211136E+01  0.32347486156E+02  0.10566000000E+00 0.  1.
         23    2    1    0    0    0  0.28628849541E+02 -0.21943502611E+01 -0.10303664265E+02  0.94494398934E+02  0.89434891030E+02 0.  0.
         13    1    3    3    0    0  0.60076132154E+02 -0.93141675646E+01 -0.12896985378E+02  0.62146912778E+02  0.10566000000E+00 0. -1.
         22    1    1    0    0    0 -0.28628849541E+02  0.21943502611E+01  0.10303664265E+02  0.30505601066E+02  0.00000000000E+00 0. -1.
</event>
<event>
 5    1  0.3125560E-003  0.9118800E+02  0.7818608E-02  0.1130116E+00
         25   -1    0    0    0    0  0.00000000000E+00  0.00000000000E+00  0.99999998245E-14  0.12500000000E+03  0.12500000000E+03 0.  0.
        -13    1    3    3    0    0  0.38455896791E+02 -0.40740936206E+02 -0.23670456669E+02  0.60819253234E+02  0.10566000000E+00 0. -1.
         23    2    1    0    0    0  0.26067263226E+02 -0.12815435833E+02 -0.10112920178E+02  0.94242744559E+02  0.89082468195E+02 0.  0.
         13    1    3    3    0    0 -0.12388633564E+02  0.27925500373E+02  0.13557536491E+02  0.33423491326E+02  0.10566000000E+00 0.  1.
         22    1    1    0    0    0 -0.26067263226E+02  0.12815435833E+02  0.10112920178E+02  0.30757255441E+02  0.00000000000E+00 0. -1.
</event>
<event>
 5    1  0.3125560E-003  0.9118800E+02  0.7818608E-02  0.1130116E+00
         25   -1    0    0    0    0  0.00000000000E+00  0.00000000000E+00  0.99999998245E-14  0.12500000000E+03  0.12500000000E+03 0.  0.
        -13    1    3    3    0    0  0.37841120976E+02  0.70980240321E+01 -0.42845563927E+01  0.38738881881E+02  0.10566000000E+00 0.  1.
         23    2    1    0    0    0 -0.61234127240E+01  0.24146000415E+01  0.29747347361E+02  0.94533113849E+02  0.89488985145E+02 0.  0.
         13    1    3    3    0    0 -0.43964533700E+02 -0.46834239905E+01  0.34031903753E+02  0.55794231968E+02  0.10566000000E+00 0. -1.
         22    1    1    0    0    0  0.61234127240E+01 -0.24146000415E+01 -0.29747347361E+02  0.30466886151E+02  0.00000000000E+00 0.  1.
</event>
<event>
 5    1  0.3125560E-003  0.9118800E+02  0.7818608E-02  0.1130116E+00
         25   -1    0    0    0    0  0.00000000000E+00  0.00000000000E+00  0.99999998245E-14  0.12500000000E+03  0.12500000000E+03 0.  0.
        -13    1    3    3    0    0  0.77972907478E+01  0.25834339820E+02 -0.44334955891E+02  0.51901929972E+02  0.10566000000E+00 0.  1.
         23    2    1    0    0    0  0.23284927647E+02  0.13834670959E+02 -0.28689387547E+01  0.97763686269E+02  0.93893139086E+02 0.  0.
         13    1    3    3    0    0  0.15487636899E+02 -0.11999668860E+02  0.41466017137E+02  0.45861756297E+02  0.10566000000E+00 0. -1.
         22    1    1    0    0    0 -0.23284927647E+02 -0.13834670959E+02  0.28689387547E+01  0.27236313731E+02  0.00000000000E+00 0.  1.
</event>
<event>
 5    1  0.3125560E-003  0.9118800E+02  0.7818608E-02  0.1130116E+00
         25   -1    0    0    0    0  0.00000000000E+00  0.00000000000E+00  0.99999998245E-14  0.12500000000E+03  0.12500000000E+03 0.  0.
        -13    1    3    3    0    0 -0.16627371594E+01  0.26450329848E+02 -0.44703889362E+02  0.51969544274E+02  0.10566000000E+00 0.  1.
         23    2    1    0    0    0 -0.22670422629E+02  0.16691683693E+02 -0.73814732642E+01  0.95895936466E+02  0.91372775576E+02 0.  0.
         13    1    3    3    0    0 -0.21007685469E+02 -0.97586461553E+01  0.37322416098E+02  0.43926392192E+02  0.10566000000E+00 0. -1.
         22    1    1    0    0    0  0.22670422629E+02 -0.16691683693E+02  0.73814732642E+01  0.29104063534E+02  0.00000000000E+00 0. -1.
</event>
<event>
 5    1  0.3125560E-003  0.9118800E+02  0.7818608E-02  0.1130116E+00
         25   -1    0    0    0    0  0.00000000000E+00  0.00000000000E+00  0.99999998245E-14  0.12500000000E+03  0.12500000000E+03 0.  0.
        -13    1    3    3    0    0  0.18450534334E+02 -0.22327700925E+02  0.51320392383E+02  0.58929977806E+02  0.10566000000E+00 0. -1.
         23    2    1    0    0    0  0.10195320642E+02 -0.28144936629E+02  0.29509994819E+02  0.82965230879E+02  0.71528370034E+02 0.  0.
         13    1    3    3    0    0 -0.82552136914E+01 -0.58172357041E+01 -0.21810397564E+02  0.24035253073E+02  0.10566000000E+00 0.  1.
         22    1    1    0    0    0 -0.10195320642E+02  0.28144936629E+02 -0.29509994819E+02  0.42034769121E+02  0.00000000000E+00 0. -1.
</event>
<event>
 5    1  0.3125560E-003  0.9118800E+02  0.7818608E-02  0.1130116E+00
         25   -1    0    0    0    0  0.00000000000E+00  0.00000000000E+00  0.99999998245E-14  0.12500000000E+03  0.12500000000E+03 0.  0.
        -13    1    3    3    0    0  0.49814539539E+01  0.11837306393E+02  0.38225952552E+02  0.40325814545E+02  0.10566000000E+00 0.  1.
         23    2    1    0    0    0 -0.71484534456E+01  0.22160777783E+02 -0.15937521859E+02  0.96782894166E+02  0.92578202303E+02 0.  0.
         13    1    3    3    0    0 -0.12129907400E+02  0.10323471391E+02 -0.54163474411E+02  0.56457079622E+02  0.10566000000E+00 0. -1.
         22    1    1    0    0    0  0.71484534456E+01 -0.22160777783E+02  0.15937521859E+02  0.28217105834E+02  0.00000000000E+00 0. -1.
</event>
<event>
 5    1  0.3125560E-003  0.9118800E+02  0.7818608E-02  0.1130116E+00
         25   -1    0    0    0    0  0.00000000000E+00  0.00000000000E+00  0.99999998245E-14  0.12500000000E+03  0.12500000000E+03 0.  0.
        -13    1    3    3    0    0 -0.30083431956E+02  0.12419751308E+01 -0.16340432571E+02  0.34257499633E+02  0.10566000000E+00 0. -1.
         23    2    1    0    0    0  0.26472500816E+02  0.15252423096E+02 -0.13618451399E+01  0.94417581326E+02  0.89327461240E+02 0.  0.
         13    1    3    3    0    0  0.56555932772E+02  0.14010447965E+02  0.14978587431E+02  0.60160081693E+02  0.10566000000E+00 0.  1.
         22    1    1    0    0    0 -0.26472500816E+02 -0.15252423096E+02  0.13618451399E+01  0.30582418674E+02  0.00000000000E+00 0.  1.
</event>
<event>
 5    1  0.3125560E-003  0.9118800E+02  0.7818608E-02  0.1130116E+00
         25   -1    0    0    0    0  0.00000000000E+00  0.00000000000E+00  0.99999998245E-14  0.12500000000E+03  0.12500000000E+03 0.  0.
        -13    1    3    3    0    0  0.46795407905E+02 -0.32790042654E+02 -0.66786115013E+01  0.57529228345E+02  0.10566000000E+00 0. -1.
         23    2    1    0    0    0  0.25514234469E+02 -0.96387297895E+00  0.75517991138E+01  0.98374168905E+02  0.94702387647E+02 0.  0.
         13    1    3    3    0    0 -0.21281173436E+02  0.31826169675E+02  0.14230410615E+02  0.40844940560E+02  0.10566000000E+00 0.  1.
         22    1    1    0    0    0 -0.25514234469E+02  0.96387297895E+00 -0.75517991138E+01  0.26625831095E+02  0.00000000000E+00 0. -1.
</event>
<event>
 5    1  0.3125560E-003  0.9118800E+02  0.7818608E-02  0.1130116E+00
         25   -1    0    0    0    0  0.00000000000E+00  0.00000000000E+00  0.99999998245E-14  0.12500000000E+03  0.12500000000E+03 0.  0.
        -13    1    3    3    0    0  0.35176118767E+02 -0.10884032670E+02  0.20738601239E+02  0.42260173261E+02  0.10566000000E+00 0.  1.
         23    2    1    0    0    0 -0.10076144288E+02 -0.26203038822E+02 -0.49340417939E+01  0.96496093327E+02  0.92190147694E+02 0.  0.
         13    1    3    3    0    0 -0.45252263055E+02 -0.15319006151E+02 -0.25672643033E+02  0.54235920066E+02  0.10566000000E+00 0. -1.
         22    1    1    0    0    0  0.10076144288E+02  0.26203038822E+02  0.49340417939E+01  0.28503906673E+02  0.00000000000E+00 0. -1.
</event>
<event>
 5    1  0.3125560E-003  0.9118800E+02  0.7818608E-02  0.1130116E+00
         25   -1    0    0    0    0  0.00000000000E+00  0.00000000000E+00  0.99999998245E-14  0.12500000000E+03  0.12500000000E+03 0.  0.
        -13    1    3    3    0    0  0.51637391740E+01 -0.43873202272E+02  0.50683828455E+01  0.44465961684E+02  0.10566000000E+00 0.  1.
         23    2    1    0    0    0  0.24744107185E+02 -0.52768756355E+01  0.22517642768E+02  0.91130242211E+02  0.84602367300E+02 0.  0.
         13    1    3    3    0    0  0.19580368011E+02  0.38596326636E+02  0.17449259922E+02  0.46664280527E+02  0.10566000000E+00 0. -1.
         22    1    1    0    0    0 -0.24744107185E+02  0.52768756355E+01 -0.22517642768E+02  0.33869757789E+02  0.00000000000E+00 0.  1.
</event>
<event>
 5    1  0.3125560E-003  0.9118800E+02  0.7818608E-02  0.1130116E+00
         25   -1    0    0    0    0  0.00000000000E+00  0.00000000000E+00  0.99999998245E-14  0.12500000000E+03  0.12500000000E+03 0.  0.
        -13    1    3    3    0    0  0.25334381347E+02  0.14503861293E+02  0.18350672543E+02  0.34481171927E+02  0.10566000000E+00 0. -1.
         23    2    1    0    0    0 -0.89269158797E+01 -0.82568619886E+01 -0.26806963354E+02  0.95563986661E+02  0.90917526722E+02 0.  0.
         13    1    3    3    0    0 -0.34261297227E+02 -0.22760723282E+02 -0.45157635897E+02  0.61082814734E+02  0.10566000000E+00 0.  1.
         22    1    1    0    0    0  0.89269158797E+01  0.82568619886E+01  0.26806963354E+02  0.29436013339E+02  0.00000000000E+00 0.  1.
</event>
<event>
 5    1  0.3125560E-003  0.9118800E+02  0.7818608E-02  0.1130116E+00
         25   -1    0    0    0    0  0.00000000000E+00  0.00000000000E+00  0.99999998245E-14  0.12500000000E+03  0.12500000000E+03 0.  0.
        -13    1    3    3    0    0  0.44762759596E+01 -0.12641298508E+02  0.47046237632E+02  0.48920334359E+02  0.10566000000E+00 0. -1.
         23    2    1    0    0    0 -0.15542831099E+02 -0.23542509783E+02  0.55742333633E+01  0.96244105942E+02  0.91847844208E+02 0.  0.
         13    1    3    3    0    0 -0.20019107059E+02 -0.10901211276E+02 -0.41472004269E+02  0.47323771583E+02  0.10566000000E+00 0.  1.
         22    1    1    0    0    0  0.15542831099E+02  0.23542509783E+02 -0.55742333633E+01  0.28755894058E+02  0.00000000000E+00 0. -1.
</event>
<event>
 5    1  0.3125560E-003  0.9118800E+02  0.7818608E-02  0.1130116E+00
         25   -1    0    0    0    0  0.00000000000E+00  0.00000000000E+00  0.99999998245E-14  0.12500000000E+03  0.12500000000E+03 0.  0.
        -13    1    3    3    0    0 -0.32264595937E+02 -0.75969484726E+01  0.45905774920E+02  0.56622160963E+02  0.10566000000E+00 0. -1.
         23    2    1    0    0    0 -0.85496852896E+01  0.15406219042E+02  0.16865290662E+02  0.10060970003E+03  0.97608529373E+02 0.  0.
         13    1    3    3    0    0  0.23714910647E+02  0.23003167515E+02 -0.29040484258E+02  0.43987539062E+02  0.10566000000E+00 0.  1.
         22    1    1    0    0    0  0.85496852896E+01 -0.15406219042E+02 -0.16865290662E+02  0.24390299975E+02  0.00000000000E+00 0. -1.
</event>
<event>
 5    1  0.3125560E-003  0.9118800E+02  0.7818608E-02  0.1130116E+00
         25   -1    0    0    0    0  0.00000000000E+00  0.00000000000E+00  0.99999998245E-14  0.12500000000E+03  0.12500000000E+03 0.  0.
        -13    1    3    3    0    0 -0.20779939923E+02 -0.34647289442E+02  0.39012866153E+02  0.56162758643E+02  0.10566000000E+00 0. -1.
         23    2    1    0    0    0 -0.24641539991E+02 -0.31149906999E+01  0.15010030641E+02  0.95979150942E+02  0.91486544013E+02 0.  0.
         13    1    3    3    0    0 -0.38616000686E+01  0.31532298742E+02 -0.24002835513E+02  0.39816392299E+02  0.10566000000E+00 0.  1.
         22    1    1    0    0    0  0.24641539991E+02  0.31149906999E+01 -0.15010030641E+02  0.29020849058E+02  0.00000000000E+00 0. -1.
</event>
<event>
 5    1  0.3125560E-003  0.9118800E+02  0.7818608E-02  0.1130116E+00
         25   -1    0    0    0    0  0.00000000000E+00  0.00000000000E+00  0.99999998245E-14  0.12500000000E+03  0.12500000000E+03 0.  0.
        -13    1    3    3    0    0 -0.23262373307E+02  0.14233351843E+01 -0.44660982163E+02  0.50376367344E+02  0.10566000000E+00 0.  1.
         23    2    1    0    0    0 -0.23027226431E+02  0.19361879636E+02 -0.42175388362E+01  0.94620349344E+02  0.89610754578E+02 0.  0.
         13    1    3    3    0    0  0.23514687550E+00  0.17938544451E+02  0.40443443327E+02  0.44243982001E+02  0.10566000000E+00 0. -1.
         22    1    1    0    0    0  0.23027226431E+02 -0.19361879636E+02  0.42175388362E+01  0.30379650656E+02  0.00000000000E+00 0. -1.
</event>
<event>
 5    1  0.3125560E-003  0.9118800E+02  0.7818608E-02  0.1130116E+00
         25   -1    0    0    0    0  0.00000000000E+00  0.00000000000E+00  0.99999998245E-14  0.12500000000E+03  0.12500000000E+03 0.  0.
        -13    1    3    3    0    0 -0.29840417507E+02 -0.13430130746E+02  0.32444915821E+02  0.46081478443E+02  0.10566000000E+00 0. -1.
         23    2    1    0    0    0 -0.41072452670E+01 -0.21416659482E+02 -0.13505930277E+02  0.99349407030E+02  0.95980996856E+02 0.  0.
         13    1    3    3    0    0  0.25733172240E+02 -0.79865287367E+01 -0.45950846098E+02  0.53267928587E+02  0.10566000000E+00 0.  1.
         22    1    1    0    0    0  0.41072452670E+01  0.21416659482E+02  0.13505930277E+02  0.25650592970E+02  0.00000000000E+00 0. -1.
</event>
<event>
 5    1  0.3125560E-003  0.9118800E+02  0.7818608E-02  0.1130116E+00
         25   -1    0    0    0    0  0.00000000000E+00  0.00000000000E+00  0.99999998245E-14  0.12500000000E+03  0.12500000000E+03 0.  0.
        -13    1    3    3    0    0 -0.37106218093E+02  0.33846451660E+02  0.54251946286E+01  0.50516310356E+02  0.10566000000E+00 0.  1.
         23    2    1    0    0    0 -0.52788465344E+01  0.91033524548E+01  0.26844104481E+02  0.96166977404E+02  0.91742816345E+02 0.  0.
         13    1    3    3    0    0  0.31827371559E+02 -0.24743099205E+02  0.21418909853E+02  0.45650667048E+02  0.10566000000E+00 0. -1.
         22    1    1    0    0    0  0.52788465344E+01 -0.91033524548E+01 -0.26844104481E+02  0.28833022596E+02  0.00000000000E+00 0. -1.
</event>
<event>
 5    1  0.3125560E-003  0.9118800E+02  0.7818608E-02  0.1130116E+00
         25   -1    0    0    0    0  0.00000000000E+00  0.00000000000E+00  0.99999998245E-14  0.12500000000E+03  0.12500000000E+03 0.  0.
        -13    1    3    3    0    0  0.73916693165E+01  0.70016974165E+01  0.35288542603E+02  0.36728094765E+02  0.10566000000E+00 0. -1.
         23    2    1    0    0    0 -0.11170274113E+02 -0.19286608255E+02 -0.16200220184E+02  0.97446499029E+02  0.93469913647E+02 0.  0.
         13    1    3    3    0    0 -0.18561943429E+02 -0.26288305672E+02 -0.51488762787E+02  0.60718404264E+02  0.10566000000E+00 0.  1.
         22    1    1    0    0    0  0.11170274113E+02  0.19286608255E+02  0.16200220184E+02  0.27553500971E+02  0.00000000000E+00 0.  1.
</event>
<event>
 5    1  0.3125560E-003  0.9118800E+02  0.7818608E-02  0.1130116E+00
         25   -1    0    0    0    0  0.00000000000E+00  0.00000000000E+00  0.99999998245E-14  0.12500000000E+03  0.12500000000E+03 0.  0.
        -13    1    3    3    0    0 -0.18889884216E+01  0.33807948761E+01 -0.30875618912E+02  0.31117729006E+02  0.10566000000E+00 0.  1.
         23    2    1    0    0    0 -0.10213884166E+02 -0.10486935842E+01  0.30295681099E+02  0.93011697744E+02  0.87337989649E+02 0.  0.
         13    1    3    3    0    0 -0.83248957441E+01 -0.44294884603E+01  0.61171300011E+02  0.61893968738E+02  0.10566000000E+00 0. -1.
         22    1    1    0    0    0  0.10213884166E+02  0.10486935842E+01 -0.30295681099E+02  0.31988302256E+02  0.00000000000E+00 0. -1.
</event>
<event>
 5    1  0.3125560E-003  0.9118800E+02  0.7818608E-02  0.1130116E+00
         25   -1    0    0    0    0  0.00000000000E+00  0.00000000000E+00  0.99999998245E-14  0.12500000000E+03  0.12500000000E+03 0.  0.
        -13    1    3    3    0    0 -0.64846096931E+01 -0.48280669318E+02 -0.19926605768E+02  0.52632252224E+02  0.10566000000E+00 0. -1.
         23    2    1    0    0    0  0.11467448337E+02 -0.86458472276E+01 -0.24724626744E+02  0.96406990133E+02  0.92069254006E+02 0.  0.
         13    1    3    3    0    0  0.17952058030E+02  0.39634822090E+02 -0.47980209756E+01  0.43774737909E+02  0.10566000000E+00 0.  1.
         22    1    1    0    0    0 -0.11467448337E+02  0.86458472276E+01  0.24724626744E+02  0.28593009867E+02  0.00000000000E+00 0.  1.
</event>
<event>
 5    1  0.3125560E-003  0.9118800E+02  0.7818608E-02  0.1130116E+00
         25   -1    0    0    0    0  0.00000000000E+00  0.00000000000E+00  0.99999998245E-14  0.12500000000E+03  0.12500000000E+03 0.  0.
        -13    1    3    3    0    0  0.11814535856E+02  0.55261968175E+02 -0.21283000158E+02  0.60385806643E+02  0.10566000000E+00 0. -1.
         23    2    1    0    0    0  0.16327781870E+02  0.22947945304E+02 -0.71524374576E+01  0.95942092022E+02  0.91435895607E+02 0.  0.
         13    1    3    3    0    0  0.45132460144E+01 -0.32314022871E+02  0.14130562701E+02  0.35556285379E+02  0.10566000000E+00 0.  1.
         22    1    1    0    0    0 -0.16327781870E+02 -0.22947945304E+02  0.71524374576E+01  0.29057907978E+02  0.00000000000E+00 0. -1.
</event>
<event>
 5    1  0.3125560E-003  0.9118800E+02  0.7818608E-02  0.1130116E+00
         25   -1    0    0    0    0  0.00000000000E+00  0.00000000000E+00  0.99999998245E-14  0.12500000000E+03  0.12500000000E+03 0.  0.
        -13    1    3    3    0    0 -0.13389012294E+01  0.16995888770E+02 -0.37332867622E+02  0.41041528486E+02  0.10566000000E+00 0. -1.
         23    2    1    0    0    0  0.18626683259E+02  0.22128928999E+02  0.11364554911E+02  0.93922742460E+02  0.88632305708E+02 0.  0.
         13    1    3    3    0    0  0.19965584488E+02  0.51330402292E+01  0.48697422533E+02  0.52881213974E+02  0.10566000000E+00 0.  1.
         22    1    1    0    0    0 -0.18626683259E+02 -0.22128928999E+02 -0.11364554911E+02  0.31077257540E+02  0.00000000000E+00 0. -1.
</event>
<event>
 5    1  0.3125560E-003  0.9118800E+02  0.7818608E-02  0.1130116E+00
         25   -1    0    0    0    0  0.00000000000E+00  0.00000000000E+00  0.99999998245E-14  0.12500000000E+03  0.12500000000E+03 0.  0.
        -13    1    3    3    0    0  0.26876419744E+02 -0.19915587817E+02  0.36763754813E+02  0.49704702075E+02  0.10566000000E+00 0.  1.
         23    2    1    0    0    0  0.15472844378E+02  0.19322143201E+02  0.15842113368E+02  0.95610772603E+02  0.90981828684E+02 0.  0.
         13    1    3    3    0    0 -0.11403575365E+02  0.39237731018E+02 -0.20921641445E+02  0.45906070528E+02  0.10566000000E+00 0. -1.
         22    1    1    0    0    0 -0.15472844378E+02 -0.19322143201E+02 -0.15842113368E+02  0.29389227397E+02  0.00000000000E+00 0.  1.
</event>
<event>
 5    1  0.3125560E-003  0.9118800E+02  0.7818608E-02  0.1130116E+00
         25   -1    0    0    0    0  0.00000000000E+00  0.00000000000E+00  0.99999998245E-14  0.12500000000E+03  0.12500000000E+03 0.  0.
        -13    1    3    3    0    0 -0.13691108872E+02 -0.17560299822E+02 -0.29497428750E+02  0.36958355738E+02  0.10566000000E+00 0.  1.
         23    2    1    0    0    0 -0.15801738333E+01  0.30231274150E+02  0.60010328145E+00  0.94721509119E+02  0.89751753631E+02 0.  0.
         13    1    3    3    0    0  0.12110935039E+02  0.47791573971E+02  0.30097532031E+02  0.57763153382E+02  0.10566000000E+00 0. -1.
         22    1    1    0    0    0  0.15801738333E+01 -0.30231274150E+02 -0.60010328145E+00  0.30278490881E+02  0.00000000000E+00 0.  1.
</event>
<event>
 5    1  0.3125560E-003  0.9118800E+02  0.7818608E-02  0.1130116E+00
         25   -1    0    0    0    0  0.00000000000E+00  0.00000000000E+00  0.99999998245E-14  0.12500000000E+03  0.12500000000E+03 0.  0.
        -13    1    3    3    0    0 -0.56794204795E+01 -0.11242988452E+02  0.49026970670E+02  0.50619320653E+02  0.10566000000E+00 0.  1.
         23    2    1    0    0    0 -0.30029276032E+02 -0.29751207958E+01  0.24991626941E+02  0.85818496967E+02  0.76351976017E+02 0.  0.
         13    1    3    3    0    0 -0.24349855552E+02  0.82678676558E+01 -0.24035343728E+02  0.35199176314E+02  0.10566000000E+00 0. -1.
         22    1    1    0    0    0  0.30029276032E+02  0.29751207958E+01 -0.24991626941E+02  0.39181503033E+02  0.00000000000E+00 0.  1.
</event>
<event>
 5    1  0.3125560E-003  0.9118800E+02  0.7818608E-02  0.1130116E+00
         25   -1    0    0    0    0  0.00000000000E+00  0.00000000000E+00  0.99999998245E-14  0.12500000000E+03  0.12500000000E+03 0.  0.
        -13    1    3    3    0    0  0.50766130237E+02 -0.18956538105E+02 -0.20287964870E+02  0.57863313064E+02  0.10566000000E+00 0.  1.
         23    2    1    0    0    0  0.14997979807E+02 -0.70589951105E+01 -0.24098929839E+02  0.95750602918E+02  0.91173739254E+02 0.  0.
         13    1    3    3    0    0 -0.35768150430E+02  0.11897542994E+02 -0.38109649688E+01  0.37887289854E+02  0.10566000000E+00 0. -1.
         22    1    1    0    0    0 -0.14997979807E+02  0.70589951105E+01  0.24098929839E+02  0.29249397082E+02  0.00000000000E+00 0.  1.
</event>
<event>
 5    1  0.3125560E-003  0.9118800E+02  0.7818608E-02  0.1130116E+00
         25   -1    0    0    0    0  0.00000000000E+00  0.00000000000E+00  0.99999998245E-14  0.12500000000E+03  0.12500000000E+03 0.  0.
        -13    1    3    3    0    0  0.17724589095E+02  0.26223947248E+02  0.52472374333E+02  0.61279831103E+02  0.10566000000E+00 0. -1.
         23    2    1    0    0    0  0.16802383791E+02  0.12719002721E+02  0.22472372045E+02  0.94192523041E+02  0.89011969758E+02 0.  0.
         13    1    3    3    0    0 -0.92220530358E+00 -0.13504944527E+02 -0.30000002288E+02  0.32912691938E+02  0.10566000000E+00 0.  1.
         22    1    1    0    0    0 -0.16802383791E+02 -0.12719002721E+02 -0.22472372045E+02  0.30807476959E+02  0.00000000000E+00 0. -1.
</event>
<event>
 5    1  0.3125560E-003  0.9118800E+02  0.7818608E-02  0.1130116E+00
         25   -1    0    0    0    0  0.00000000000E+00  0.00000000000E+00  0.99999998245E-14  0.12500000000E+03  0.12500000000E+03 0.  0.
        -13    1    3    3    0    0 -0.39884820730E+01 -0.21070955286E+02  0.44717440950E+02  0.49593889090E+02  0.10566000000E+00 0. -1.
         23    2    1    0    0    0  0.24609901378E+02  0.85267852355E+00  0.16566632924E+02  0.95321259580E+02  0.90583193225E+02 0.  0.
         13    1    3    3    0    0  0.28598383451E+02  0.21923633810E+02 -0.28150808025E+02  0.45727370490E+02  0.10566000000E+00 0.  1.
         22    1    1    0    0    0 -0.24609901378E+02 -0.85267852355E+00 -0.16566632924E+02  0.29678740420E+02  0.00000000000E+00 0.  1.
</event>
<event>
 5    1  0.3125560E-003  0.9118800E+02  0.7818608E-02  0.1130116E+00
         25   -1    0    0    0    0  0.00000000000E+00  0.00000000000E+00  0.99999998245E-14  0.12500000000E+03  0.12500000000E+03 0.  0.
        -13    1    3    3    0    0 -0.19863949600E+02 -0.58495796374E+02 -0.65828604986E+01  0.62126322147E+02  0.10566000000E+00 0. -1.
         23    2    1    0    0    0 -0.12207460710E+02 -0.24846644210E+02  0.29724015946E+00  0.97314874441E+02  0.93293722245E+02 0.  0.
         13    1    3    3    0    0  0.76564888905E+01  0.33649152164E+02  0.68801006581E+01  0.35188552294E+02  0.10566000000E+00 0.  1.
         22    1    1    0    0    0  0.12207460710E+02  0.24846644210E+02 -0.29724015946E+00  0.27685125559E+02  0.00000000000E+00 0. -1.
</event>
<event>
 5    1  0.3125560E-003  0.9118800E+02  0.7818608E-02  0.1130116E+00
         25   -1    0    0    0    0  0.00000000000E+00  0.00000000000E+00  0.99999998245E-14  0.12500000000E+03  0.12500000000E+03 0.  0.
        -13    1    3    3    0    0 -0.38604996190E+01  0.42268163834E+02  0.24051925672E+02  0.48785319757E+02  0.10566000000E+00 0. -1.
         23    2    1    0    0    0 -0.40752491612E+01  0.19211203551E+02 -0.19032514958E+02  0.97651972224E+02  0.93744296125E+02 0.  0.
         13    1    3    3    0    0 -0.21474954219E+00 -0.23056960283E+02 -0.43084440630E+02  0.48866652467E+02  0.10566000000E+00 0.  1.
         22    1    1    0    0    0  0.40752491612E+01 -0.19211203551E+02  0.19032514958E+02  0.27348027776E+02  0.00000000000E+00 0.  1.
</event>
<event>
 5    1  0.3125560E-003  0.9118800E+02  0.7818608E-02  0.1130116E+00
         25   -1    0    0    0    0  0.00000000000E+00  0.00000000000E+00  0.99999998245E-14  0.12500000000E+03  0.12500000000E+03 0.  0.
        -13    1    3    3    0    0  0.35326388996E+02  0.33800056942E+02 -0.73139338652E+00  0.48897277113E+02  0.10566000000E+00 0. -1.
         23    2    1    0    0    0  0.21525419203E+02 -0.90780130250E+01  0.15708917069E+02  0.96848196011E+02  0.92666331549E+02 0.  0.
         13    1    3    3    0    0 -0.13800969793E+02 -0.42878069967E+02  0.16440310456E+02  0.47950918898E+02  0.10566000000E+00 0.  1.
         22    1    1    0    0    0 -0.21525419203E+02  0.90780130250E+01 -0.15708917069E+02  0.28151803989E+02  0.00000000000E+00 0.  1.
</event>
<event>
 5    1  0.3125560E-003  0.9118800E+02  0.7818608E-02  0.1130116E+00
         25   -1    0    0    0    0  0.00000000000E+00  0.00000000000E+00  0.99999998245E-14  0.12500000000E+03  0.12500000000E+03 0.  0.
        -13    1    3    3    0    0 -0.43698339012E+02 -0.97209029506E+01  0.93637446211E+00  0.44776430717E+02  0.10566000000E+00 0. -1.
         23    2    1    0    0    0 -0.73416852032E+00 -0.90855878878E+01  0.27997030387E+02  0.95556484225E+02  0.90907211245E+02 0.  0.
         13    1    3    3    0    0  0.42964170491E+02  0.63531506289E+00  0.27060655925E+02  0.50780053509E+02  0.10566000000E+00 0.  1.
         22    1    1    0    0    0  0.73416852032E+00  0.90855878878E+01 -0.27997030387E+02  0.29443515775E+02  0.00000000000E+00 0.  1.
</event>
<event>
 5    1  0.3125560E-003  0.9118800E+02  0.7818608E-02  0.1130116E+00
         25   -1    0    0    0    0  0.00000000000E+00  0.00000000000E+00  0.99999998245E-14  0.12500000000E+03  0.12500000000E+03 0.  0.
        -13    1    3    3    0    0 -0.32428644489E+02  0.78971474507E+01  0.32149107826E+02  0.46341754599E+02  0.10566000000E+00 0.  1.
         23    2    1    0    0    0  0.43318357602E+01 -0.23005935321E+02  0.14252767631E+02  0.97592350590E+02  0.93664762037E+02 0.  0.
         13    1    3    3    0    0  0.36760480250E+02 -0.30903082772E+02 -0.17896340195E+02  0.51250595991E+02  0.10566000000E+00 0. -1.
         22    1    1    0    0    0 -0.43318357602E+01  0.23005935321E+02 -0.14252767631E+02  0.27407649410E+02  0.00000000000E+00 0. -1.
</event>
<event>
 5    1  0.3125560E-003  0.9118800E+02  0.7818608E-02  0.1130116E+00
         25   -1    0    0    0    0  0.00000000000E+00  0.00000000000E+00  0.99999998245E-14  0.12500000000E+03  0.12500000000E+03 0.  0.
        -13    1    3    3    0    0  0.39587413228E+01  0.23356012523E+02 -0.45804466079E+02  0.51567773179E+02  0.10566000000E+00 0.  1.
         23    2    1    0    0    0  0.16780035922E+02  0.22234337270E+02 -0.21709964738E+01  0.97059910790E+02  0.92951480340E+02 0.  0.
         13    1    3    3    0    0  0.12821294599E+02 -0.11216752529E+01  0.43633469605E+02  0.45492137611E+02  0.10566000000E+00 0. -1.
         22    1    1    0    0    0 -0.16780035922E+02 -0.22234337270E+02  0.21709964738E+01  0.27940089210E+02  0.00000000000E+00 0.  1.
</event>
<event>
 5    1  0.3125560E-003  0.9118800E+02  0.7818608E-02  0.1130116E+00
         25   -1    0    0    0    0  0.00000000000E+00  0.00000000000E+00  0.99999998245E-14  0.12500000000E+03  0.12500000000E+03 0.  0.
        -13    1    3    3    0    0  0.11282581014E+02  0.25333084413E+02  0.30909855130E+02  0.41527004569E+02  0.10566000000E+00 0.  1.
         23    2    1    0    0    0  0.63303720427E+00  0.20884600786E+02 -0.21397822618E+02  0.95092908886E+02  0.90267531381E+02 0.  0.
         13    1    3    3    0    0 -0.10649543810E+02 -0.44484836271E+01 -0.52307677748E+02  0.53565904318E+02  0.10566000000E+00 0. -1.
         22    1    1    0    0    0 -0.63303720427E+00 -0.20884600786E+02  0.21397822618E+02  0.29907091114E+02  0.00000000000E+00 0. -1.
</event>
<event>
 5    1  0.3125560E-003  0.9118800E+02  0.7818608E-02  0.1130116E+00
         25   -1    0    0    0    0  0.00000000000E+00  0.00000000000E+00  0.99999998245E-14  0.12500000000E+03  0.12500000000E+03 0.  0.
        -13    1    3    3    0    0  0.43759679855E+02 -0.12604086175E+02  0.37275850229E+02  0.58849577260E+02  0.10566000000E+00 0. -1.
         23    2    1    0    0    0  0.18540471237E+02 -0.19406013859E+02  0.10718845881E+02  0.96099548367E+02  0.91650897931E+02 0.  0.
         13    1    3    3    0    0 -0.25219208618E+02 -0.68019276841E+01 -0.26557004348E+02  0.37249971107E+02  0.10566000000E+00 0.  1.
         22    1    1    0    0    0 -0.18540471237E+02  0.19406013859E+02 -0.10718845881E+02  0.28900451633E+02  0.00000000000E+00 0. -1.
</event>
<event>
 5    1  0.3125560E-003  0.9118800E+02  0.7818608E-02  0.1130116E+00
         25   -1    0    0    0    0  0.00000000000E+00  0.00000000000E+00  0.99999998245E-14  0.12500000000E+03  0.12500000000E+03 0.  0.
        -13    1    3    3    0    0  0.12051665703E+02 -0.46971303167E+02 -0.14920296035E+02  0.50736302243E+02  0.10566000000E+00 0.  1.
         23    2    1    0    0    0  0.24253509476E+02 -0.38298959585E+01 -0.16191154055E+02  0.95588194639E+02  0.90950803514E+02 0.  0.
         13    1    3    3    0    0  0.12201843773E+02  0.43141407209E+02 -0.12708580199E+01  0.44851892397E+02  0.10566000000E+00 0. -1.
         22    1    1    0    0    0 -0.24253509476E+02  0.38298959585E+01  0.16191154055E+02  0.29411805361E+02  0.00000000000E+00 0.  1.
</event>
<event>
 5    1  0.3125560E-003  0.9118800E+02  0.7818608E-02  0.1130116E+00
         25   -1    0    0    0    0  0.00000000000E+00  0.00000000000E+00  0.99999998245E-14  0.12500000000E+03  0.12500000000E+03 0.  0.
        -13    1    3    3    0    0  0.18525786724E+02 -0.20248946766E+02  0.29813389468E+02  0.40522511947E+02  0.10566000000E+00 0.  1.
         23    2    1    0    0    0  0.27053112784E+02  0.14074323007E+02 -0.91677475731E+01  0.93156553657E+02  0.87545065048E+02 0.  0.
         13    1    3    3    0    0  0.85273260606E+01  0.34323269773E+02 -0.38981137041E+02  0.52634041710E+02  0.10566000000E+00 0. -1.
         22    1    1    0    0    0 -0.27053112784E+02 -0.14074323007E+02  0.91677475731E+01  0.31843446343E+02  0.00000000000E+00 0. -1.
</event>
<event>
 5    1  0.3125560E-003  0.9118800E+02  0.7818608E-02  0.1130116E+00
         25   -1    0    0    0    0  0.00000000000E+00  0.00000000000E+00  0.99999998245E-14  0.12500000000E+03  0.12500000000E+03 0.  0.
        -13    1    3    3    0    0 -0.58760646642E+01 -0.86671424880E+00  0.36042548326E+02  0.36528834958E+02  0.10566000000E+00 0. -1.
         23    2    1    0    0    0 -0.19360082028E+02  0.73348758136E+01 -0.20878345486E+02  0.95597304723E+02  0.90963323272E+02 0.  0.
         13    1    3    3    0    0 -0.13484017364E+02  0.82015900624E+01 -0.56920893812E+02  0.59068469764E+02  0.10566000000E+00 0.  1.
         22    1    1    0    0    0  0.19360082028E+02 -0.73348758136E+01  0.20878345486E+02  0.29402695277E+02  0.00000000000E+00 0. -1.
</event>
<event>
 5    1  0.3125560E-003  0.9118800E+02  0.7818608E-02  0.1130116E+00
         25   -1    0    0    0    0  0.00000000000E+00  0.00000000000E+00  0.99999998245E-14  0.12500000000E+03  0.12500000000E+03 0.  0.
        -13    1    3    3    0    0 -0.22225563414E+02  0.59232486379E+01  0.56378449476E+02  0.60890075323E+02  0.10566000000E+00 0.  1.
         23    2    1    0    0    0 -0.28361343925E+01 -0.27564448302E+01  0.29911255026E+02  0.94828410324E+02  0.89900514909E+02 0.  0.
         13    1    3    3    0    0  0.19389429021E+02 -0.86796934682E+01 -0.26467194451E+02  0.33938335000E+02  0.10566000000E+00 0. -1.
         22    1    1    0    0    0  0.28361343925E+01  0.27564448302E+01 -0.29911255026E+02  0.30171589676E+02  0.00000000000E+00 0.  1.
</event>
<event>
 5    1  0.3125560E-003  0.9118800E+02  0.7818608E-02  0.1130116E+00
         25   -1    0    0    0    0  0.00000000000E+00  0.00000000000E+00  0.99999998245E-14  0.12500000000E+03  0.12500000000E+03 0.  0.
        -13    1    3    3    0    0  0.58182099456E+01  0.10335158222E+01  0.46384830023E+02  0.46759847542E+02  0.10566000000E+00 0.  1.
         23    2    1    0    0    0 -0.26001874942E+02  0.23507903405E+01  0.59641325972E+01  0.98219510958E+02  0.94498030347E+02 0.  0.
         13    1    3    3    0    0 -0.31820084888E+02  0.13172745183E+01 -0.40420697425E+02  0.51459663415E+02  0.10566000000E+00 0. -1.
         22    1    1    0    0    0  0.26001874942E+02 -0.23507903405E+01 -0.59641325972E+01  0.26780489042E+02  0.00000000000E+00 0.  1.
</event>
<event>
 5    1  0.3125560E-003  0.9118800E+02  0.7818608E-02  0.1130116E+00
         25   -1    0    0    0    0  0.00000000000E+00  0.00000000000E+00  0.99999998245E-14  0.12500000000E+03  0.12500000000E+03 0.  0.
        -13    1    3    3    0    0 -0.23018818512E+02 -0.22641940853E+02  0.15518315651E+02  0.35823913465E+02  0.10566000000E+00 0.  1.
         23    2    1    0    0    0  0.64524980926E+01  0.27862867138E+02 -0.29140469368E+00  0.96398269047E+02  0.92057412856E+02 0.  0.
         13    1    3    3    0    0  0.29471316605E+02  0.50504807992E+02 -0.15809720345E+02  0.60574355582E+02  0.10566000000E+00 0. -1.
         22    1    1    0    0    0 -0.64524980926E+01 -0.27862867138E+02  0.29140469368E+00  0.28601730953E+02  0.00000000000E+00 0. -1.
</event>
<event>
 5    1  0.3125560E-003  0.9118800E+02  0.7818608E-02  0.1130116E+00
         25   -1    0    0    0    0  0.00000000000E+00  0.00000000000E+00  0.99999998245E-14  0.12500000000E+03  0.12500000000E+03 0.  0.
        -13    1    3    3    0    0  0.39077982555E+02 -0.33366759093E+02 -0.21131014879E+02  0.55560420145E+02  0.10566000000E+00 0.  1.
         23    2    1    0    0    0  0.11484804392E+02 -0.50411347403E+01 -0.26705793221E+02  0.95495539948E+02  0.90823372471E+02 0.  0.
         13    1    3    3    0    0 -0.27593178162E+02  0.28325624352E+02 -0.55747783418E+01  0.39935119802E+02  0.10566000000E+00 0. -1.
         22    1    1    0    0    0 -0.11484804392E+02  0.50411347403E+01  0.26705793221E+02  0.29504460052E+02  0.00000000000E+00 0.  1.
</event>
<event>
 5    1  0.3125560E-003  0.9118800E+02  0.7818608E-02  0.1130116E+00
         25   -1    0    0    0    0  0.00000000000E+00  0.00000000000E+00  0.99999998245E-14  0.12500000000E+03  0.12500000000E+03 0.  0.
        -13    1    3    3    0    0  0.56734390459E+01  0.44352946772E+02  0.55596765024E+01  0.45058772340E+02  0.10566000000E+00 0.  1.
         23    2    1    0    0    0 -0.23141129871E+02  0.80931421954E+01 -0.15561816912E+02  0.95962421108E+02  0.91463682831E+02 0.  0.
         13    1    3    3    0    0 -0.28814568917E+02 -0.36259804576E+02 -0.21121493414E+02  0.50903648768E+02  0.10566000000E+00 0. -1.
         22    1    1    0    0    0  0.23141129871E+02 -0.80931421954E+01  0.15561816912E+02  0.29037578892E+02  0.00000000000E+00 0. -1.
</event>
<event>
 5    1  0.3125560E-003  0.9118800E+02  0.7818608E-02  0.1130116E+00
         25   -1    0    0    0    0  0.00000000000E+00  0.00000000000E+00  0.99999998245E-14  0.12500000000E+03  0.12500000000E+03 0.  0.
        -13    1    3    3    0    0 -0.35277055497E+02  0.18693319760E+02 -0.47846016418E+02  0.62315032691E+02  0.10566000000E+00 0. -1.
         23    2    1    0    0    0 -0.17760106207E+02  0.11533809025E+02 -0.20861885764E+02  0.95273439473E+02  0.90517179962E+02 0.  0.
         13    1    3    3    0    0  0.17516949290E+02 -0.71595107346E+01  0.26984130655E+02  0.32958406782E+02  0.10566000000E+00 0.  1.
         22    1    1    0    0    0  0.17760106207E+02 -0.11533809025E+02  0.20861885764E+02  0.29726560527E+02  0.00000000000E+00 0. -1.
</event>
<event>
 5    1  0.3125560E-003  0.9118800E+02  0.7818608E-02  0.1130116E+00
         25   -1    0    0    0    0  0.00000000000E+00  0.00000000000E+00  0.99999998245E-14  0.12500000000E+03  0.12500000000E+03 0.  0.
        -13    1    3    3    0    0  0.92878107905E+01  0.13789236481E+02 -0.40985984047E+02  0.44229724443E+02  0.10566000000E+00 0. -1.
         23    2    1    0    0    0 -0.22411774844E+01 -0.25883560088E+02 -0.60752159076E+01  0.98318736768E+02  0.94629193128E+02 0.  0.
         13    1    3    3    0    0 -0.11528988275E+02 -0.39672796568E+02  0.34910768139E+02  0.54089012325E+02  0.10566000000E+00 0.  1.
         22    1    1    0    0    0  0.22411774844E+01  0.25883560088E+02  0.60752159076E+01  0.26681263232E+02  0.00000000000E+00 0.  1.
</event>
<event>
 5    1  0.3125560E-003  0.9118800E+02  0.7818608E-02  0.1130116E+00
         25   -1    0    0    0    0  0.00000000000E+00  0.00000000000E+00  0.99999998245E-14  0.12500000000E+03  0.12500000000E+03 0.  0.
        -13    1    3    3    0    0  0.16690512702E+02  0.48317812920E+01 -0.19349098073E+02  0.26006116299E+02  0.10566000000E+00 0.  1.
         23    2    1    0    0    0 -0.35540198986E+02 -0.17493105051E+02 -0.13688964442E+02  0.83089354386E+02  0.71744955199E+02 0.  0.
         13    1    3    3    0    0 -0.52230711688E+02 -0.22324886343E+02  0.56601336306E+01  0.57083238086E+02  0.10566000000E+00 0. -1.
         22    1    1    0    0    0  0.35540198986E+02  0.17493105051E+02  0.13688964442E+02  0.41910645614E+02  0.00000000000E+00 0. -1.
</event>
<event>
 5    1  0.3125560E-003  0.9118800E+02  0.7818608E-02  0.1130116E+00
         25   -1    0    0    0    0  0.00000000000E+00  0.00000000000E+00  0.99999998245E-14  0.12500000000E+03  0.12500000000E+03 0.  0.
        -13    1    3    3    0    0 -0.92305876730E+01  0.12636014073E+02 -0.37940729375E+02  0.41041231828E+02  0.10566000000E+00 0.  1.
         23    2    1    0    0    0 -0.20717399425E+02 -0.18681377252E+02  0.62533522551E+01  0.96411384969E+02  0.92075220565E+02 0.  0.
         13    1    3    3    0    0 -0.11486811752E+02 -0.31317391325E+02  0.44194081630E+02  0.55370153141E+02  0.10566000000E+00 0. -1.
         22    1    1    0    0    0  0.20717399425E+02  0.18681377252E+02 -0.62533522551E+01  0.28588615031E+02  0.00000000000E+00 0. -1.
</event>
<event>
 5    1  0.3125560E-003  0.9118800E+02  0.7818608E-02  0.1130116E+00
         25   -1    0    0    0    0  0.00000000000E+00  0.00000000000E+00  0.99999998245E-14  0.12500000000E+03  0.12500000000E+03 0.  0.
        -13    1    3    3    0    0  0.90906164157E+01 -0.34990562160E+02  0.15451370202E+02  0.39315833353E+02  0.10566000000E+00 0. -1.
         23    2    1    0    0    0  0.18336703881E+02  0.16381729818E+02 -0.11265342472E+02  0.97953674519E+02  0.94145730809E+02 0.  0.
         13    1    3    3    0    0  0.92460874653E+01  0.51372291978E+02 -0.26716712673E+02  0.58637841166E+02  0.10566000000E+00 0.  1.
         22    1    1    0    0    0 -0.18336703881E+02 -0.16381729818E+02  0.11265342472E+02  0.27046325481E+02  0.00000000000E+00 0.  1.
</event>
<event>
 5    1  0.3125560E-003  0.9118800E+02  0.7818608E-02  0.1130116E+00
         25   -1    0    0    0    0  0.00000000000E+00  0.00000000000E+00  0.99999998245E-14  0.12500000000E+03  0.12500000000E+03 0.  0.
        -13    1    3    3    0    0  0.14241534492E+02  0.24072513248E+02 -0.23895487809E+02  0.36787398663E+02  0.10566000000E+00 0.  1.
         23    2    1    0    0    0 -0.10090895246E+02  0.69529986477E+01  0.26779086657E+02  0.95550214954E+02  0.90898590410E+02 0.  0.
         13    1    3    3    0    0 -0.24332429738E+02 -0.17119514600E+02  0.50674574466E+02  0.58762816291E+02  0.10566000000E+00 0. -1.
         22    1    1    0    0    0  0.10090895246E+02 -0.69529986477E+01 -0.26779086657E+02  0.29449785046E+02  0.00000000000E+00 0.  1.
</event>
<event>
 5    1  0.3125560E-003  0.9118800E+02  0.7818608E-02  0.1130116E+00
         25   -1    0    0    0    0  0.00000000000E+00  0.00000000000E+00  0.99999998245E-14  0.12500000000E+03  0.12500000000E+03 0.  0.
        -13    1    3    3    0    0  0.28607347278E+02  0.92609252581E+01  0.54787095132E+02  0.62496255984E+02  0.10566000000E+00 0.  1.
         23    2    1    0    0    0  0.13342278226E+02  0.39985039501E+01  0.24604517537E+02  0.96726572451E+02  0.92502124910E+02 0.  0.
         13    1    3    3    0    0 -0.15265069051E+02 -0.52624213080E+01 -0.30182577595E+02  0.34230316468E+02  0.10566000000E+00 0. -1.
         22    1    1    0    0    0 -0.13342278226E+02 -0.39985039501E+01 -0.24604517537E+02  0.28273427549E+02  0.00000000000E+00 0.  1.
</event>
<event>
 5    1  0.3125560E-003  0.9118800E+02  0.7818608E-02  0.1130116E+00
         25   -1    0    0    0    0  0.00000000000E+00  0.00000000000E+00  0.99999998245E-14  0.12500000000E+03  0.12500000000E+03 0.  0.
        -13    1    3    3    0    0  0.38985420592E+02 -0.44888135045E+02 -0.11708170617E+02  0.60596205407E+02  0.10566000000E+00 0. -1.
         23    2    1    0    0    0  0.20462114797E+02 -0.12414789861E+02 -0.12518499735E+02  0.97990039155E+02  0.94194000810E+02 0.  0.
         13    1    3    3    0    0 -0.18523305795E+02  0.32473345184E+02 -0.81032911786E+00  0.37393833747E+02  0.10566000000E+00 0.  1.
         22    1    1    0    0    0 -0.20462114797E+02  0.12414789861E+02  0.12518499735E+02  0.27009960845E+02  0.00000000000E+00 0. -1.
</event>
<event>
 5    1  0.3125560E-003  0.9118800E+02  0.7818608E-02  0.1130116E+00
         25   -1    0    0    0    0  0.00000000000E+00  0.00000000000E+00  0.99999998245E-14  0.12500000000E+03  0.12500000000E+03 0.  0.
        -13    1    3    3    0    0 -0.42916781953E+02  0.16304835638E+02  0.15151244761E+02  0.48345312288E+02  0.10566000000E+00 0.  1.
         23    2    1    0    0    0 -0.80741608831E+01  0.26034375354E+02 -0.13584155200E+02  0.94544950394E+02  0.89505517139E+02 0.  0.
         13    1    3    3    0    0  0.34842621070E+02  0.97295397160E+01 -0.28735399961E+02  0.46199638105E+02  0.10566000000E+00 0. -1.
         22    1    1    0    0    0  0.80741608831E+01 -0.26034375354E+02  0.13584155200E+02  0.30455049606E+02  0.00000000000E+00 0.  1.
</event>
<event>
 5    1  0.3125560E-003  0.9118800E+02  0.7818608E-02  0.1130116E+00
         25   -1    0    0    0    0  0.00000000000E+00  0.00000000000E+00  0.99999998245E-14  0.12500000000E+03  0.12500000000E+03 0.  0.
        -13    1    3    3    0    0  0.20925322709E+02 -0.25863681906E+02 -0.17673278215E+02  0.37671675024E+02  0.10566000000E+00 0. -1.
         23    2    1    0    0    0 -0.28390573964E+02  0.16187782875E+01 -0.97260665194E+00  0.96546685662E+02  0.92258719997E+02 0.  0.
         13    1    3    3    0    0 -0.49315896673E+02  0.27482460193E+02  0.16700671563E+02  0.58875010638E+02  0.10566000000E+00 0.  1.
         22    1    1    0    0    0  0.28390573964E+02 -0.16187782875E+01  0.97260665194E+00  0.28453314338E+02  0.00000000000E+00 0. -1.
</event>
<event>
 5    1  0.3125560E-003  0.9118800E+02  0.7818608E-02  0.1130116E+00
         25   -1    0    0    0    0  0.00000000000E+00  0.00000000000E+00  0.99999998245E-14  0.12500000000E+03  0.12500000000E+03 0.  0.
        -13    1    3    3    0    0  0.27282917270E+02 -0.18186220303E+02 -0.22717863669E+02  0.39889957099E+02  0.10566000000E+00 0.  1.
         23    2    1    0    0    0  0.92555941738E+01 -0.39585940947E+01  0.27827311657E+02  0.95407842850E+02  0.90702594850E+02 0.  0.
         13    1    3    3    0    0 -0.18027323096E+02  0.14227626208E+02  0.50545175326E+02  0.55517885751E+02  0.10566000000E+00 0. -1.
         22    1    1    0    0    0 -0.92555941738E+01  0.39585940947E+01 -0.27827311657E+02  0.29592157150E+02  0.00000000000E+00 0. -1.
</event>
<event>
 5    1  0.3125560E-003  0.9118800E+02  0.7818608E-02  0.1130116E+00
         25   -1    0    0    0    0  0.00000000000E+00  0.00000000000E+00  0.99999998245E-14  0.12500000000E+03  0.12500000000E+03 0.  0.
        -13    1    3    3    0    0 -0.12902933421E+02 -0.23512160298E+02  0.40190357072E+02  0.48317526202E+02  0.10566000000E+00 0. -1.
         23    2    1    0    0    0 -0.22034873575E+02 -0.35129601656E+02  0.93863947574E+01  0.82482603884E+02  0.70679919149E+02 0.  0.
         13    1    3    3    0    0 -0.91319401538E+01 -0.11617441358E+02 -0.30803962314E+02  0.34165077681E+02  0.10566000000E+00 0.  1.
         22    1    1    0    0    0  0.22034873575E+02  0.35129601656E+02 -0.93863947574E+01  0.42517396116E+02  0.00000000000E+00 0. -1.
</event>
<event>
 5    1  0.3125560E-003  0.9118800E+02  0.7818608E-02  0.1130116E+00
         25   -1    0    0    0    0  0.00000000000E+00  0.00000000000E+00  0.99999998245E-14  0.12500000000E+03  0.12500000000E+03 0.  0.
        -13    1    3    3    0    0  0.10369803216E+02  0.19968976025E+02  0.37189744624E+02  0.43467011531E+02  0.10566000000E+00 0. -1.
         23    2    1    0    0    0  0.22473052655E+02 -0.18500287956E+02  0.41586916927E+01  0.95596029746E+02  0.90961571207E+02 0.  0.
         13    1    3    3    0    0  0.12103249439E+02 -0.38469263981E+02 -0.33031052931E+02  0.52129018215E+02  0.10566000000E+00 0.  1.
         22    1    1    0    0    0 -0.22473052655E+02  0.18500287956E+02 -0.41586916927E+01  0.29403970254E+02  0.00000000000E+00 0.  1.
</event>
<event>
 5    1  0.3125560E-003  0.9118800E+02  0.7818608E-02  0.1130116E+00
         25   -1    0    0    0    0  0.00000000000E+00  0.00000000000E+00  0.99999998245E-14  0.12500000000E+03  0.12500000000E+03 0.  0.
        -13    1    3    3    0    0  0.11171962692E+02  0.18540502102E+02 -0.40152585455E+02  0.45615833340E+02  0.10566000000E+00 0.  1.
         23    2    1    0    0    0 -0.25105959763E+02  0.13340394338E+02 -0.55214189360E+01  0.96038622205E+02  0.91567764804E+02 0.  0.
         13    1    3    3    0    0 -0.36277922455E+02 -0.52001077631E+01  0.34631166519E+02  0.50422788865E+02  0.10566000000E+00 0. -1.
         22    1    1    0    0    0  0.25105959763E+02 -0.13340394338E+02  0.55214189360E+01  0.28961377795E+02  0.00000000000E+00 0. -1.
</event>
<event>
 5    1  0.3125560E-003  0.9118800E+02  0.7818608E-02  0.1130116E+00
         25   -1    0    0    0    0  0.00000000000E+00  0.00000000000E+00  0.99999998245E-14  0.12500000000E+03  0.12500000000E+03 0.  0.
        -13    1    3    3    0    0 -0.89031107643E+00  0.60391066877E+02  0.59913913124E+01  0.60694164022E+02  0.10566000000E+00 0. -1.
         23    2    1    0    0    0  0.10018910517E+02  0.26903922261E+02  0.44585417478E+01  0.95946976138E+02  0.91442572331E+02 0.  0.
         13    1    3    3    0    0  0.10909221594E+02 -0.33487144616E+02 -0.15328495645E+01  0.35252812117E+02  0.10566000000E+00 0.  1.
         22    1    1    0    0    0 -0.10018910517E+02 -0.26903922261E+02 -0.44585417478E+01  0.29053023862E+02  0.00000000000E+00 0. -1.
</event>
<event>
 5    1  0.3125560E-003  0.9118800E+02  0.7818608E-02  0.1130116E+00
         25   -1    0    0    0    0  0.00000000000E+00  0.00000000000E+00  0.99999998245E-14  0.12500000000E+03  0.12500000000E+03 0.  0.
        -13    1    3    3    0    0 -0.93175660162E+01 -0.99607859731E+01  0.34841962534E+02  0.37416678246E+02  0.10566000000E+00 0. -1.
         23    2    1    0    0    0  0.81246238712E+00  0.34512079375E+02  0.11809050293E+02  0.88514422209E+02  0.80644935068E+02 0.  0.
         13    1    3    3    0    0  0.10130028403E+02  0.44472865348E+02 -0.23032912241E+02  0.51097743963E+02  0.10566000000E+00 0.  1.
         22    1    1    0    0    0 -0.81246238712E+00 -0.34512079375E+02 -0.11809050293E+02  0.36485577791E+02  0.00000000000E+00 0.  1.
</event>
<event>
 5    1  0.3125560E-003  0.9118800E+02  0.7818608E-02  0.1130116E+00
         25   -1    0    0    0    0  0.00000000000E+00  0.00000000000E+00  0.99999998245E-14  0.12500000000E+03  0.12500000000E+03 0.  0.
        -13    1    3    3    0    0 -0.29086272047E+02 -0.37555970151E+02  0.23505461985E+02  0.52999811535E+02  0.10566000000E+00 0.  1.
         23    2    1    0    0    0  0.30095882166E+00 -0.28189663844E+02 -0.65413601875E+01  0.96059766467E+02  0.91596624483E+02 0.  0.
         13    1    3    3    0    0  0.29387230869E+02  0.93663063071E+01 -0.30046822173E+02  0.43059954932E+02  0.10566000000E+00 0. -1.
         22    1    1    0    0    0 -0.30095882166E+00  0.28189663844E+02  0.65413601875E+01  0.28940233533E+02  0.00000000000E+00 0.  1.
</event>
<event>
 5    1  0.3125560E-003  0.9118800E+02  0.7818608E-02  0.1130116E+00
         25   -1    0    0    0    0  0.00000000000E+00  0.00000000000E+00  0.99999998245E-14  0.12500000000E+03  0.12500000000E+03 0.  0.
        -13    1    3    3    0    0 -0.31015933272E+01  0.30521300729E+02 -0.16854573797E+02  0.35003678396E+02  0.10566000000E+00 0.  1.
         23    2    1    0    0    0  0.51651183819E+01 -0.26128196631E+02 -0.18984099174E+02  0.92292858142E+02  0.86303038970E+02 0.  0.
         13    1    3    3    0    0  0.82667117091E+01 -0.56649497360E+02 -0.21295253773E+01  0.57289179746E+02  0.10566000000E+00 0. -1.
         22    1    1    0    0    0 -0.51651183819E+01  0.26128196631E+02  0.18984099174E+02  0.32707141858E+02  0.00000000000E+00 0. -1.
</event>
<event>
 5    1  0.3125560E-003  0.9118800E+02  0.7818608E-02  0.1130116E+00
         25   -1    0    0    0    0  0.00000000000E+00  0.00000000000E+00  0.99999998245E-14  0.12500000000E+03  0.12500000000E+03 0.  0.
        -13    1    3    3    0    0 -0.35752741645E+02 -0.22531296709E+02 -0.32021666367E+02  0.53021845945E+02  0.10566000000E+00 0. -1.
         23    2    1    0    0    0 -0.39593299932E+01 -0.76436651697E+01 -0.35659278499E+02  0.88316406197E+02  0.80337423094E+02 0.  0.
         13    1    3    3    0    0  0.31793411652E+02  0.14887631539E+02 -0.36376121323E+01  0.35294560252E+02  0.10566000000E+00 0.  1.
         22    1    1    0    0    0  0.39593299932E+01  0.76436651697E+01  0.35659278499E+02  0.36683593803E+02  0.00000000000E+00 0. -1.
</event>
<event>
 5    1  0.3125560E-003  0.9118800E+02  0.7818608E-02  0.1130116E+00
         25   -1    0    0    0    0  0.00000000000E+00  0.00000000000E+00  0.99999998245E-14  0.12500000000E+03  0.12500000000E+03 0.  0.
        -13    1    3    3    0    0 -0.27303769565E+02 -0.31281612262E+02  0.26173262932E+02  0.49082440391E+02  0.10566000000E+00 0.  1.
         23    2    1    0    0    0  0.13823707053E+02 -0.79787856795E+01  0.23711400366E+02  0.96417025961E+02  0.92082878377E+02 0.  0.
         13    1    3    3    0    0  0.41127476618E+02  0.23302826582E+02 -0.24618625661E+01  0.47334585570E+02  0.10566000000E+00 0. -1.
         22    1    1    0    0    0 -0.13823707053E+02  0.79787856795E+01 -0.23711400366E+02  0.28582974039E+02  0.00000000000E+00 0.  1.
</event>
<event>
 5    1  0.3125560E-003  0.9118800E+02  0.7818608E-02  0.1130116E+00
         25   -1    0    0    0    0  0.00000000000E+00  0.00000000000E+00  0.99999998245E-14  0.12500000000E+03  0.12500000000E+03 0.  0.
        -13    1    3    3    0    0  0.13998018866E+02  0.57927157189E+02 -0.12071718119E+02  0.60804914395E+02  0.10566000000E+00 0.  1.
         23    2    1    0    0    0  0.14763053270E+02  0.23859605804E+02 -0.10894409877E+02  0.94901549914E+02  0.90002152633E+02 0.  0.
         13    1    3    3    0    0  0.76503440451E+00 -0.34067551385E+02  0.11773082419E+01  0.34096635519E+02  0.10566000000E+00 0. -1.
         22    1    1    0    0    0 -0.14763053270E+02 -0.23859605804E+02  0.10894409877E+02  0.30098450086E+02  0.00000000000E+00 0.  1.
</event>
<event>
 5    1  0.3125560E-003  0.9118800E+02  0.7818608E-02  0.1130116E+00
         25   -1    0    0    0    0  0.00000000000E+00  0.00000000000E+00  0.99999998245E-14  0.12500000000E+03  0.12500000000E+03 0.  0.
        -13    1    3    3    0    0 -0.25300048630E+02 -0.15342086837E+02 -0.51170627644E+02  0.59109359553E+02  0.10566000000E+00 0. -1.
         23    2    1    0    0    0 -0.51615311826E+01 -0.19831670349E+02 -0.21021323748E+02  0.95643014373E+02  0.91026114897E+02 0.  0.
         13    1    3    3    0    0  0.20138517448E+02 -0.44895835117E+01  0.30149303896E+02  0.36533654821E+02  0.10566000000E+00 0.  1.
         22    1    1    0    0    0  0.51615311826E+01  0.19831670349E+02  0.21021323748E+02  0.29356985627E+02  0.00000000000E+00 0. -1.
</event>
<event>
 5    1  0.3125560E-003  0.9118800E+02  0.7818608E-02  0.1130116E+00
         25   -1    0    0    0    0  0.00000000000E+00  0.00000000000E+00  0.99999998245E-14  0.12500000000E+03  0.12500000000E+03 0.  0.
        -13    1    3    3    0    0  0.42282473282E+01 -0.15007822045E+02  0.31885929575E+02  0.35494175112E+02  0.10566000000E+00 0. -1.
         23    2    1    0    0    0  0.89098215175E+01  0.14134089453E+02 -0.22262901516E+02  0.97164874923E+02  0.93092527792E+02 0.  0.
         13    1    3    3    0    0  0.46815741893E+01  0.29141911498E+02 -0.54148831091E+02  0.61670699811E+02  0.10566000000E+00 0.  1.
         22    1    1    0    0    0 -0.89098215175E+01 -0.14134089453E+02  0.22262901516E+02  0.27835125077E+02  0.00000000000E+00 0.  1.
</event>
<event>
 5    1  0.3125560E-003  0.9118800E+02  0.7818608E-02  0.1130116E+00
         25   -1    0    0    0    0  0.00000000000E+00  0.00000000000E+00  0.99999998245E-14  0.12500000000E+03  0.12500000000E+03 0.  0.
        -13    1    3    3    0    0  0.20666101673E+02 -0.23841654112E+02  0.42740408910E+02  0.53125003030E+02  0.10566000000E+00 0.  1.
         23    2    1    0    0    0 -0.47746727445E+01  0.73801772380E+01  0.27403869515E+02  0.96220900288E+02  0.91816257122E+02 0.  0.
         13    1    3    3    0    0 -0.25440774417E+02  0.31221831350E+02 -0.15336539395E+02  0.43095897257E+02  0.10566000000E+00 0. -1.
         22    1    1    0    0    0  0.47746727445E+01 -0.73801772380E+01 -0.27403869515E+02  0.28779099712E+02  0.00000000000E+00 0.  1.
</event>
<event>
 5    1  0.3125560E-003  0.9118800E+02  0.7818608E-02  0.1130116E+00
         25   -1    0    0    0    0  0.00000000000E+00  0.00000000000E+00  0.99999998245E-14  0.12500000000E+03  0.12500000000E+03 0.  0.
        -13    1    3    3    0    0  0.56347119174E+01 -0.43609342662E+02 -0.32564121603E+01  0.44092404448E+02  0.10566000000E+00 0.  1.
         23    2    1    0    0    0  0.20020509726E+02  0.98449402722E+01 -0.11234787776E+02  0.10002072629E+03  0.96851337485E+02 0.  0.
         13    1    3    3    0    0  0.14385797809E+02  0.53454282934E+02 -0.79783756156E+01  0.55928321843E+02  0.10566000000E+00 0. -1.
         22    1    1    0    0    0 -0.20020509726E+02 -0.98449402722E+01  0.11234787776E+02  0.24979273709E+02  0.00000000000E+00 0. -1.
</event>
<event>
 5    1  0.3125560E-003  0.9118800E+02  0.7818608E-02  0.1130116E+00
         25   -1    0    0    0    0  0.00000000000E+00  0.00000000000E+00  0.99999998245E-14  0.12500000000E+03  0.12500000000E+03 0.  0.
        -13    1    3    3    0    0  0.45023718634E+02  0.13818039047E+02 -0.66967696903E+01  0.47570277812E+02  0.10566000000E+00 0. -1.
         23    2    1    0    0    0  0.40796582943E-01  0.27757366407E+02 -0.11596080564E+02  0.94917743790E+02  0.90024640780E+02 0.  0.
         13    1    3    3    0    0 -0.44982922051E+02  0.13939327360E+02 -0.48993108741E+01  0.47347465979E+02  0.10566000000E+00 0.  1.
         22    1    1    0    0    0 -0.40796582943E-01 -0.27757366407E+02  0.11596080564E+02  0.30082256210E+02  0.00000000000E+00 0.  1.
</event>
<event>
 5    1  0.3125560E-003  0.9118800E+02  0.7818608E-02  0.1130116E+00
         25   -1    0    0    0    0  0.00000000000E+00  0.00000000000E+00  0.99999998245E-14  0.12500000000E+03  0.12500000000E+03 0.  0.
        -13    1    3    3    0    0  0.20723216297E+02 -0.54958109782E+02 -0.29664818942E+01  0.58810345207E+02  0.10566000000E+00 0.  1.
         23    2    1    0    0    0  0.18134118169E+02 -0.21423342781E+02  0.10488475985E+02  0.95036455714E+02  0.90189322697E+02 0.  0.
         13    1    3    3    0    0 -0.25890981277E+01  0.33534767001E+02  0.13454957879E+02  0.36226110507E+02  0.10566000000E+00 0. -1.
         22    1    1    0    0    0 -0.18134118169E+02  0.21423342781E+02 -0.10488475985E+02  0.29963544286E+02  0.00000000000E+00 0.  1.
</event>
<event>
 5    1  0.3125560E-003  0.9118800E+02  0.7818608E-02  0.1130116E+00
         25   -1    0    0    0    0  0.00000000000E+00  0.00000000000E+00  0.99999998245E-14  0.12500000000E+03  0.12500000000E+03 0.  0.
        -13    1    3    3    0    0  0.19176156275E+02  0.35837558940E+02 -0.43389144808E+02  0.59453213970E+02  0.10566000000E+00 0. -1.
         23    2    1    0    0    0 -0.16361211356E+01  0.10087247355E+02 -0.26450555213E+02  0.96644024922E+02  0.92390509418E+02 0.  0.
         13    1    3    3    0    0 -0.20812277410E+02 -0.25750311585E+02  0.16938589595E+02  0.37190810951E+02  0.10566000000E+00 0.  1.
         22    1    1    0    0    0  0.16361211356E+01 -0.10087247355E+02  0.26450555213E+02  0.28355975078E+02  0.00000000000E+00 0. -1.
</event>
<event>
 5    1  0.3125560E-003  0.9118800E+02  0.7818608E-02  0.1130116E+00
         25   -1    0    0    0    0  0.00000000000E+00  0.00000000000E+00  0.99999998245E-14  0.12500000000E+03  0.12500000000E+03 0.  0.
        -13    1    3    3    0    0 -0.20492632056E+02  0.25241995083E+02 -0.15231094569E+02  0.35904090159E+02  0.10566000000E+00 0.  1.
         23    2    1    0    0    0 -0.36253778821E+01 -0.26605194534E+02  0.10469740651E+02  0.96179951245E+02  0.91760491559E+02 0.  0.
         13    1    3    3    0    0  0.16867254174E+02 -0.51847189617E+02  0.25700835220E+02  0.60275861085E+02  0.10566000000E+00 0. -1.
         22    1    1    0    0    0  0.36253778821E+01  0.26605194534E+02 -0.10469740651E+02  0.28820048755E+02  0.00000000000E+00 0. -1.
</event>
<event>
 5    1  0.3125560E-003  0.9118800E+02  0.7818608E-02  0.1130116E+00
         25   -1    0    0    0    0  0.00000000000E+00  0.00000000000E+00  0.99999998245E-14  0.12500000000E+03  0.12500000000E+03 0.  0.
        -13    1    3    3    0    0 -0.55687455742E+01 -0.13472977554E+02 -0.48857989255E+02  0.50986726994E+02  0.10566000000E+00 0.  1.
         23    2    1    0    0    0  0.96718904344E+01  0.17493845615E+02 -0.25216554132E+02  0.92821518040E+02  0.87065374920E+02 0.  0.
         13    1    3    3    0    0  0.15240636009E+02  0.30966823169E+02  0.23641435124E+02  0.41834791046E+02  0.10566000000E+00 0. -1.
         22    1    1    0    0    0 -0.96718904344E+01 -0.17493845615E+02  0.25216554132E+02  0.32178481960E+02  0.00000000000E+00 0.  1.
</event>
<event>
 5    1  0.3125560E-003  0.9118800E+02  0.7818608E-02  0.1130116E+00
         25   -1    0    0    0    0  0.00000000000E+00  0.00000000000E+00  0.99999998245E-14  0.12500000000E+03  0.12500000000E+03 0.  0.
        -13    1    3    3    0    0 -0.42951276444E+02  0.28801812520E+02  0.33786855277E+02  0.61773127703E+02  0.10566000000E+00 0.  1.
         23    2    1    0    0    0 -0.21437780522E+02  0.17073653316E+02  0.10277125502E+02  0.95730435947E+02  0.91146085965E+02 0.  0.
         13    1    3    3    0    0  0.21513495922E+02 -0.11728159204E+02 -0.23509729774E+02  0.33957308244E+02  0.10566000000E+00 0. -1.
         22    1    1    0    0    0  0.21437780522E+02 -0.17073653316E+02 -0.10277125502E+02  0.29269564053E+02  0.00000000000E+00 0.  1.
</event>
<event>
 5    1  0.3125560E-003  0.9118800E+02  0.7818608E-02  0.1130116E+00
         25   -1    0    0    0    0  0.00000000000E+00  0.00000000000E+00  0.99999998245E-14  0.12500000000E+03  0.12500000000E+03 0.  0.
        -13    1    3    3    0    0 -0.53176450153E+02  0.22912017983E+01 -0.32579741811E+01  0.53325509996E+02  0.10566000000E+00 0.  1.
         23    2    1    0    0    0 -0.16736708532E+02  0.23943410849E+02 -0.13102886526E+01  0.95757544701E+02  0.91183256003E+02 0.  0.
         13    1    3    3    0    0  0.36439741621E+02  0.21652209051E+02  0.19476855286E+01  0.42432034705E+02  0.10566000000E+00 0. -1.
         22    1    1    0    0    0  0.16736708532E+02 -0.23943410849E+02  0.13102886526E+01  0.29242455299E+02  0.00000000000E+00 0.  1.
</event>
<event>
 5    1  0.3125560E-003  0.9118800E+02  0.7818608E-02  0.1130116E+00
         25   -1    0    0    0    0  0.00000000000E+00  0.00000000000E+00  0.99999998245E-14  0.12500000000E+03  0.12500000000E+03 0.  0.
        -13    1    3    3    0    0 -0.42732233898E+02 -0.11366480847E+02 -0.42259960208E+02  0.61164990817E+02  0.10566000000E+00 0.  1.
         23    2    1    0    0    0 -0.25331099511E+02 -0.37468317117E+01 -0.12416075014E+02  0.96541920847E+02  0.92252263993E+02 0.  0.
         13    1    3    3    0    0  0.17401134387E+02  0.76196491352E+01  0.29843885194E+02  0.35376930031E+02  0.10566000000E+00 0. -1.
         22    1    1    0    0    0  0.25331099511E+02  0.37468317117E+01  0.12416075014E+02  0.28458079153E+02  0.00000000000E+00 0.  1.
</event>
<event>
 5    1  0.3125560E-003  0.9118800E+02  0.7818608E-02  0.1130116E+00
         25   -1    0    0    0    0  0.00000000000E+00  0.00000000000E+00  0.99999998245E-14  0.12500000000E+03  0.12500000000E+03 0.  0.
        -13    1    3    3    0    0  0.36773191287E+02 -0.32692848778E+02  0.74240606773E+01  0.49761609697E+02  0.10566000000E+00 0. -1.
         23    2    1    0    0    0  0.15897311506E+02 -0.50881378073E+01 -0.23500719851E+02  0.96174707409E+02  0.91753347907E+02 0.  0.
         13    1    3    3    0    0 -0.20875879781E+02  0.27604710971E+02 -0.30924780528E+02  0.46413097711E+02  0.10566000000E+00 0.  1.
         22    1    1    0    0    0 -0.15897311506E+02  0.50881378073E+01  0.23500719851E+02  0.28825292591E+02  0.00000000000E+00 0. -1.
</event>
<event>
 5    1  0.3125560E-003  0.9118800E+02  0.7818608E-02  0.1130116E+00
         25   -1    0    0    0    0  0.00000000000E+00  0.00000000000E+00  0.99999998245E-14  0.12500000000E+03  0.12500000000E+03 0.  0.
        -13    1    3    3    0    0 -0.30097767624E+02 -0.47847567168E+02 -0.45929295311E+01  0.56713062565E+02  0.10566000000E+00 0.  1.
         23    2    1    0    0    0 -0.27218555215E+02 -0.89870329633E+01 -0.60382440768E+01  0.95707050319E+02  0.91114008691E+02 0.  0.
         13    1    3    3    0    0  0.28792124086E+01  0.38860534205E+02 -0.14453145458E+01  0.38993987754E+02  0.10566000000E+00 0. -1.
         22    1    1    0    0    0  0.27218555215E+02  0.89870329633E+01  0.60382440768E+01  0.29292949681E+02  0.00000000000E+00 0.  1.
</event>
<event>
 5    1  0.3125560E-003  0.9118800E+02  0.7818608E-02  0.1130116E+00
         25   -1    0    0    0    0  0.00000000000E+00  0.00000000000E+00  0.99999998245E-14  0.12500000000E+03  0.12500000000E+03 0.  0.
        -13    1    3    3    0    0 -0.22120184531E+02  0.36082221369E+02  0.19203875480E+01  0.42366594329E+02  0.10566000000E+00 0.  1.
         23    2    1    0    0    0 -0.21215121577E+01 -0.25127416020E+01 -0.29065692217E+02  0.95748860736E+02  0.91171350675E+02 0.  0.
         13    1    3    3    0    0  0.19998672374E+02 -0.38594962971E+02 -0.30986079765E+02  0.53382266407E+02  0.10566000000E+00 0. -1.
         22    1    1    0    0    0  0.21215121577E+01  0.25127416020E+01  0.29065692217E+02  0.29251139264E+02  0.00000000000E+00 0. -1.
</event>
<event>
 5    1  0.3125560E-003  0.9118800E+02  0.7818608E-02  0.1130116E+00
         25   -1    0    0    0    0  0.00000000000E+00  0.00000000000E+00  0.99999998245E-14  0.12500000000E+03  0.12500000000E+03 0.  0.
        -13    1    3    3    0    0  0.38817064778E+02  0.42910489507E+02 -0.11589402150E+01  0.57874251046E+02  0.10566000000E+00 0. -1.
         23    2    1    0    0    0  0.22887953504E+02  0.10842104171E+02 -0.14179189937E+02  0.95974854597E+02  0.91480673637E+02 0.  0.
         13    1    3    3    0    0 -0.15929111274E+02 -0.32068385336E+02 -0.13020249722E+02  0.38100603551E+02  0.10566000000E+00 0.  1.
         22    1    1    0    0    0 -0.22887953504E+02 -0.10842104171E+02  0.14179189937E+02  0.29025145403E+02  0.00000000000E+00 0. -1.
</event>
<event>
 5    1  0.3125560E-003  0.9118800E+02  0.7818608E-02  0.1130116E+00
         25   -1    0    0    0    0  0.00000000000E+00  0.00000000000E+00  0.99999998245E-14  0.12500000000E+03  0.12500000000E+03 0.  0.
        -13    1    3    3    0    0  0.71792041927E+01 -0.28437223817E+01  0.48509929797E+02  0.49120791756E+02  0.10566000000E+00 0.  1.
         23    2    1    0    0    0  0.28353378470E+02  0.91947401447E+00  0.71398000580E+01  0.95747030100E+02  0.91168840757E+02 0.  0.
         13    1    3    3    0    0  0.21174174277E+02  0.37631963962E+01 -0.41370129739E+02  0.46626238344E+02  0.10566000000E+00 0. -1.
         22    1    1    0    0    0 -0.28353378470E+02 -0.91947401447E+00 -0.71398000580E+01  0.29252969900E+02  0.00000000000E+00 0.  1.
</event>
<event>
 5    1  0.3125560E-003  0.9118800E+02  0.7818608E-02  0.1130116E+00
         25   -1    0    0    0    0  0.00000000000E+00  0.00000000000E+00  0.99999998245E-14  0.12500000000E+03  0.12500000000E+03 0.  0.
        -13    1    3    3    0    0 -0.59427649798E+02 -0.73922444871E+01  0.14556452705E+02  0.61629476052E+02  0.10566000000E+00 0.  1.
         23    2    1    0    0    0 -0.30401080326E+02 -0.92438171553E+00  0.36028532191E+00  0.94582735625E+02  0.89558271010E+02 0.  0.
         13    1    3    3    0    0  0.29026569472E+02  0.64678627715E+01 -0.14196167383E+02  0.32953259574E+02  0.10566000000E+00 0. -1.
         22    1    1    0    0    0  0.30401080326E+02  0.92438171553E+00 -0.36028532191E+00  0.30417264375E+02  0.00000000000E+00 0.  1.
</event>
<event>
 5    1  0.3125560E-003  0.9118800E+02  0.7818608E-02  0.1130116E+00
         25   -1    0    0    0    0  0.00000000000E+00  0.00000000000E+00  0.99999998245E-14  0.12500000000E+03  0.12500000000E+03 0.  0.
        -13    1    3    3    0    0 -0.41393747615E+02  0.12372758264E+02  0.37915290550E+02  0.57481370114E+02  0.10566000000E+00 0.  1.
         23    2    1    0    0    0 -0.28201282566E+02 -0.31995428729E+01  0.50444259012E+01  0.96173004915E+02  0.91751028489E+02 0.  0.
         13    1    3    3    0    0  0.13192465049E+02 -0.15572301137E+02 -0.32870864649E+02  0.38691634801E+02  0.10566000000E+00 0. -1.
         22    1    1    0    0    0  0.28201282566E+02  0.31995428729E+01 -0.50444259012E+01  0.28826995085E+02  0.00000000000E+00 0.  1.
</event>
<event>
 4    1  0.3125560E-003  0.9118800E+02  0.7818608E-02  0.1130116E+00
         25   -1    0    0    0    0  0.00000000000E+00  0.00000000000E+00  0.99999998245E-14  0.12500000000E+03  0.12500000000E+03 0.  0.
        -13    1    1    0    0    0  0.36499782258E+02 -0.42340442021E+02  0.14956804186E+02  0.57867644595E+02  0.10566000000E+00 0. -1.
         13    1    1    0    0    0 -0.46531007861E+01  0.25646992844E+01  0.92906560655E+01  0.10703106255E+02  0.10566000000E+00 0.  1.
         22    1    1    0    0    0 -0.31846681472E+02  0.39775742736E+02 -0.24247460251E+02  0.56429249150E+02  0.00000000000E+00 0. -1.
</event>
<event>
 5    1  0.3125560E-003  0.9118800E+02  0.7818608E-02  0.1130116E+00
         25   -1    0    0    0    0  0.00000000000E+00  0.00000000000E+00  0.99999998245E-14  0.12500000000E+03  0.12500000000E+03 0.  0.
        -13    1    3    3    0    0 -0.40281612321E+01  0.22213658277E+02  0.40343763008E+02  0.46230975272E+02  0.10566000000E+00 0. -1.
         23    2    1    0    0    0  0.15442454895E+01  0.28885151618E+02 -0.77091856138E+01  0.95063931104E+02  0.90227394820E+02 0.  0.
         13    1    3    3    0    0  0.55724067216E+01  0.66714933411E+01 -0.48052948621E+02  0.48832955832E+02  0.10566000000E+00 0.  1.
         22    1    1    0    0    0 -0.15442454895E+01 -0.28885151618E+02  0.77091856138E+01  0.29936068896E+02  0.00000000000E+00 0. -1.
</event>
<event>
 5    1  0.3125560E-003  0.9118800E+02  0.7818608E-02  0.1130116E+00
         25   -1    0    0    0    0  0.00000000000E+00  0.00000000000E+00  0.99999998245E-14  0.12500000000E+03  0.12500000000E+03 0.  0.
        -13    1    3    3    0    0 -0.37647385711E+02 -0.15630791188E+02  0.17208017136E+02  0.44246743404E+02  0.10566000000E+00 0.  1.
         23    2    1    0    0    0  0.14032908977E+02 -0.22093029528E+02  0.10659266731E+02  0.96739701783E+02  0.92519865141E+02 0.  0.
         13    1    3    3    0    0  0.51680294689E+02 -0.64622383401E+01 -0.65487504045E+01  0.52492958379E+02  0.10566000000E+00 0. -1.
         22    1    1    0    0    0 -0.14032908977E+02  0.22093029528E+02 -0.10659266731E+02  0.28260298217E+02  0.00000000000E+00 0.  1.
</event>
<event>
 5    1  0.3125560E-003  0.9118800E+02  0.7818608E-02  0.1130116E+00
         25   -1    0    0    0    0  0.00000000000E+00  0.00000000000E+00  0.99999998245E-14  0.12500000000E+03  0.12500000000E+03 0.  0.
        -13    1    3    3    0    0 -0.26355901419E+02  0.51459701254E+02  0.84687907233E+01  0.58433431981E+02  0.10566000000E+00 0.  1.
         23    2    1    0    0    0 -0.24941031198E+02  0.15855567381E+02 -0.14171294354E+01  0.95411787651E+02  0.90708031136E+02 0.  0.
         13    1    3    3    0    0  0.14148702206E+01 -0.35604133873E+02 -0.98859201587E+01  0.36978355669E+02  0.10566000000E+00 0. -1.
         22    1    1    0    0    0  0.24941031198E+02 -0.15855567381E+02  0.14171294354E+01  0.29588212349E+02  0.00000000000E+00 0.  1.
</event>
<event>
 5    1  0.3125560E-003  0.9118800E+02  0.7818608E-02  0.1130116E+00
         25   -1    0    0    0    0  0.00000000000E+00  0.00000000000E+00  0.99999998245E-14  0.12500000000E+03  0.12500000000E+03 0.  0.
        -13    1    3    3    0    0  0.27793100308E+02 -0.25900905848E+02  0.25545212286E+02  0.45780808023E+02  0.10566000000E+00 0. -1.
         23    2    1    0    0    0 -0.15812052506E+02 -0.47270656976E+01  0.25938156059E+02  0.94256641460E+02  0.89101966112E+02 0.  0.
         13    1    3    3    0    0 -0.43605152814E+02  0.21173840150E+02  0.39294377263E+00  0.48475833438E+02  0.10566000000E+00 0.  1.
         22    1    1    0    0    0  0.15812052506E+02  0.47270656976E+01 -0.25938156059E+02  0.30743358540E+02  0.00000000000E+00 0. -1.
</event>
<event>
 5    1  0.3125560E-003  0.9118800E+02  0.7818608E-02  0.1130116E+00
         25   -1    0    0    0    0  0.00000000000E+00  0.00000000000E+00  0.99999998245E-14  0.12500000000E+03  0.12500000000E+03 0.  0.
        -13    1    3    3    0    0  0.28828786187E+02 -0.22653275370E+02  0.66382628855E+01  0.37260535372E+02  0.10566000000E+00 0.  1.
         23    2    1    0    0    0 -0.16363108405E+02 -0.22012910776E+01 -0.24225749716E+02  0.95683043330E+02  0.91081067366E+02 0.  0.
         13    1    3    3    0    0 -0.45191894592E+02  0.20451984292E+02 -0.30864012601E+02  0.58422507959E+02  0.10566000000E+00 0. -1.
         22    1    1    0    0    0  0.16363108405E+02  0.22012910776E+01  0.24225749716E+02  0.29316956670E+02  0.00000000000E+00 0. -1.
</event>
<event>
 5    1  0.3125560E-003  0.9118800E+02  0.7818608E-02  0.1130116E+00
         25   -1    0    0    0    0  0.00000000000E+00  0.00000000000E+00  0.99999998245E-14  0.12500000000E+03  0.12500000000E+03 0.  0.
        -13    1    3    3    0    0  0.31833721714E+02 -0.10594500375E+02 -0.27318120647E+01  0.33661598856E+02  0.10566000000E+00 0.  1.
         23    2    1    0    0    0 -0.20456983539E+02  0.20336055604E+02 -0.91127809348E+01  0.94749609765E+02  0.89790881726E+02 0.  0.
         13    1    3    3    0    0 -0.52290705253E+02  0.30930555979E+02 -0.63809688701E+01  0.61088010909E+02  0.10566000000E+00 0. -1.
         22    1    1    0    0    0  0.20456983539E+02 -0.20336055604E+02  0.91127809348E+01  0.30250390235E+02  0.00000000000E+00 0. -1.
</event>
<event>
 5    1  0.3125560E-003  0.9118800E+02  0.7818608E-02  0.1130116E+00
         25   -1    0    0    0    0  0.00000000000E+00  0.00000000000E+00  0.99999998245E-14  0.12500000000E+03  0.12500000000E+03 0.  0.
        -13    1    3    3    0    0 -0.12419877030E+01  0.22685971732E+02 -0.22300215082E+02  0.31835618474E+02  0.10566000000E+00 0.  1.
         23    2    1    0    0    0  0.12647298024E+02 -0.11928112570E+02  0.26530626499E+02  0.93280791952E+02  0.87722277603E+02 0.  0.
         13    1    3    3    0    0  0.13889285727E+02 -0.34614084302E+02  0.48830841581E+02  0.61445173477E+02  0.10566000000E+00 0. -1.
         22    1    1    0    0    0 -0.12647298024E+02  0.11928112570E+02 -0.26530626499E+02  0.31719208048E+02  0.00000000000E+00 0. -1.
</event>
<event>
 5    1  0.3125560E-003  0.9118800E+02  0.7818608E-02  0.1130116E+00
         25   -1    0    0    0    0  0.00000000000E+00  0.00000000000E+00  0.99999998245E-14  0.12500000000E+03  0.12500000000E+03 0.  0.
        -13    1    3    3    0    0  0.57605685302E+02 -0.79667888458E+01  0.21631475072E+02  0.62046890184E+02  0.10566000000E+00 0.  1.
         23    2    1    0    0    0  0.27257710250E+02  0.69554238762E+00  0.13156827012E+02  0.94725115288E+02  0.89756775911E+02 0.  0.
         13    1    3    3    0    0 -0.30347975052E+02  0.86623312334E+01 -0.84746480595E+01  0.32678225104E+02  0.10566000000E+00 0. -1.
         22    1    1    0    0    0 -0.27257710250E+02 -0.69554238762E+00 -0.13156827012E+02  0.30274884712E+02  0.00000000000E+00 0.  1.
</event>
<event>
 5    1  0.3125560E-003  0.9118800E+02  0.7818608E-02  0.1130116E+00
         25   -1    0    0    0    0  0.00000000000E+00  0.00000000000E+00  0.99999998245E-14  0.12500000000E+03  0.12500000000E+03 0.  0.
        -13    1    3    3    0    0  0.17560060526E+02 -0.41482046588E+02  0.32751441077E+02  0.55693661861E+02  0.10566000000E+00 0. -1.
         23    2    1    0    0    0  0.19076492307E+02 -0.19656293047E+02 -0.28294596652E+01  0.97462965717E+02  0.93491932429E+02 0.  0.
         13    1    3    3    0    0  0.15164317810E+01  0.21825753541E+02 -0.35580900742E+02  0.41769303856E+02  0.10566000000E+00 0.  1.
         22    1    1    0    0    0 -0.19076492307E+02  0.19656293047E+02  0.28294596652E+01  0.27537034283E+02  0.00000000000E+00 0. -1.
</event>
<event>
 5    1  0.3125560E-003  0.9118800E+02  0.7818608E-02  0.1130116E+00
         25   -1    0    0    0    0  0.00000000000E+00  0.00000000000E+00  0.99999998245E-14  0.12500000000E+03  0.12500000000E+03 0.  0.
        -13    1    3    3    0    0  0.14482036177E+01 -0.46920005225E+02 -0.34370135598E+02  0.58179906919E+02  0.10566000000E+00 0.  1.
         23    2    1    0    0    0  0.15061229957E+02 -0.22692713749E+02 -0.77017891762E+01  0.96695981528E+02  0.92460777533E+02 0.  0.
         13    1    3    3    0    0  0.13613026340E+02  0.24227291476E+02  0.26668346422E+02  0.38516074609E+02  0.10566000000E+00 0. -1.
         22    1    1    0    0    0 -0.15061229957E+02  0.22692713749E+02  0.77017891762E+01  0.28304018472E+02  0.00000000000E+00 0.  1.
</event>
<event>
 5    1  0.3125560E-003  0.9118800E+02  0.7818608E-02  0.1130116E+00
         25   -1    0    0    0    0  0.00000000000E+00  0.00000000000E+00  0.99999998245E-14  0.12500000000E+03  0.12500000000E+03 0.  0.
        -13    1    3    3    0    0  0.25140341651E+01 -0.28697725863E+02  0.25849871720E+02  0.38705385535E+02  0.10566000000E+00 0.  1.
         23    2    1    0    0    0  0.22792637574E+02 -0.33076538876E+00 -0.18866254706E+02  0.95410317678E+02  0.90706005421E+02 0.  0.
         13    1    3    3    0    0  0.20278603409E+02  0.28366960474E+02 -0.44716126425E+02  0.56704932142E+02  0.10566000000E+00 0. -1.
         22    1    1    0    0    0 -0.22792637574E+02  0.33076538876E+00  0.18866254706E+02  0.29589682322E+02  0.00000000000E+00 0. -1.
</event>
<event>
 5    1  0.3125560E-003  0.9118800E+02  0.7818608E-02  0.1130116E+00
         25   -1    0    0    0    0  0.00000000000E+00  0.00000000000E+00  0.99999998245E-14  0.12500000000E+03  0.12500000000E+03 0.  0.
        -13    1    3    3    0    0 -0.24641936638E+02  0.36100878871E+02 -0.69347294361E+01  0.44256074531E+02  0.10566000000E+00 0.  1.
         23    2    1    0    0    0  0.32183137602E+01  0.11883128738E+02  0.27582553586E+02  0.94794643615E+02  0.89853552538E+02 0.  0.
         13    1    3    3    0    0  0.27860250398E+02 -0.24217750133E+02  0.34517283022E+02  0.50538569083E+02  0.10566000000E+00 0. -1.
         22    1    1    0    0    0 -0.32183137602E+01 -0.11883128738E+02 -0.27582553586E+02  0.30205356385E+02  0.00000000000E+00 0. -1.
</event>
<event>
 5    1  0.3125560E-003  0.9118800E+02  0.7818608E-02  0.1130116E+00
         25   -1    0    0    0    0  0.00000000000E+00  0.00000000000E+00  0.99999998245E-14  0.12500000000E+03  0.12500000000E+03 0.  0.
        -13    1    3    3    0    0  0.36348612828E+02  0.25609808090E+02 -0.11661703139E+02  0.45968363133E+02  0.10566000000E+00 0. -1.
         23    2    1    0    0    0 -0.13696132034E+02  0.16940245926E+02 -0.17451363012E+02  0.97087529029E+02  0.92988613589E+02 0.  0.
         13    1    3    3    0    0 -0.50044744863E+02 -0.86695621645E+01 -0.57896598725E+01  0.51119165897E+02  0.10566000000E+00 0.  1.
         22    1    1    0    0    0  0.13696132034E+02 -0.16940245926E+02  0.17451363012E+02  0.27912470971E+02  0.00000000000E+00 0. -1.
</event>
<event>
 5    1  0.3125560E-003  0.9118800E+02  0.7818608E-02  0.1130116E+00
         25   -1    0    0    0    0  0.00000000000E+00  0.00000000000E+00  0.99999998245E-14  0.12500000000E+03  0.12500000000E+03 0.  0.
        -13    1    3    3    0    0  0.10471484989E+02  0.32514713180E+02  0.40797117145E+02  0.53209721879E+02  0.10566000000E+00 0. -1.
         23    2    1    0    0    0 -0.13615014671E+02  0.12200161290E+01  0.26450949378E+02  0.95225685787E+02  0.90451210311E+02 0.  0.
         13    1    3    3    0    0 -0.24086499661E+02 -0.31294697051E+02 -0.14346167767E+02  0.42015963908E+02  0.10566000000E+00 0.  1.
         22    1    1    0    0    0  0.13615014671E+02 -0.12200161290E+01 -0.26450949378E+02  0.29774314213E+02  0.00000000000E+00 0. -1.
</event>
<event>
 5    1  0.3125560E-003  0.9118800E+02  0.7818608E-02  0.1130116E+00
         25   -1    0    0    0    0  0.00000000000E+00  0.00000000000E+00  0.99999998245E-14  0.12500000000E+03  0.12500000000E+03 0.  0.
        -13    1    3    3    0    0  0.53707041992E+02 -0.21860685728E+02 -0.15662974615E+02  0.60063931589E+02  0.10566000000E+00 0.  1.
         23    2    1    0    0    0  0.24352130111E+02 -0.90885417626E+01  0.54889966078E+01  0.98433914175E+02  0.94781214087E+02 0.  0.
         13    1    3    3    0    0 -0.29354911881E+02  0.12772143965E+02  0.21151971223E+02  0.38369982586E+02  0.10566000000E+00 0. -1.
         22    1    1    0    0    0 -0.24352130111E+02  0.90885417626E+01 -0.54889966078E+01  0.26566085825E+02  0.00000000000E+00 0.  1.
</event>
<event>
 5    1  0.3125560E-003  0.9118800E+02  0.7818608E-02  0.1130116E+00
         25   -1    0    0    0    0  0.00000000000E+00  0.00000000000E+00  0.99999998245E-14  0.12500000000E+03  0.12500000000E+03 0.  0.
        -13    1    3    3    0    0 -0.27436489964E+02  0.25189274934E+01 -0.31808564340E+02  0.42082085341E+02  0.10566000000E+00 0.  1.
         23    2    1    0    0    0  0.45605572797E+01  0.23393382715E+02  0.10385092256E+02  0.99001938943E+02  0.95527403062E+02 0.  0.
         13    1    3    3    0    0  0.31997047243E+02  0.20874455222E+02  0.42193656596E+02  0.56919853602E+02  0.10566000000E+00 0. -1.
         22    1    1    0    0    0 -0.45605572797E+01 -0.23393382715E+02 -0.10385092256E+02  0.25998061057E+02  0.00000000000E+00 0. -1.
</event>
<event>
 5    1  0.3125560E-003  0.9118800E+02  0.7818608E-02  0.1130116E+00
         25   -1    0    0    0    0  0.00000000000E+00  0.00000000000E+00  0.99999998245E-14  0.12500000000E+03  0.12500000000E+03 0.  0.
        -13    1    3    3    0    0  0.18982913313E+02  0.48862720430E+02 -0.19971431507E+02  0.56096218109E+02  0.10566000000E+00 0.  1.
         23    2    1    0    0    0  0.13162504958E+02  0.24097623266E+02  0.10331809557E+02  0.95662425585E+02  0.91052767098E+02 0.  0.
         13    1    3    3    0    0 -0.58204083549E+01 -0.24765097164E+02  0.30303241064E+02  0.39566207475E+02  0.10566000000E+00 0. -1.
         22    1    1    0    0    0 -0.13162504958E+02 -0.24097623266E+02 -0.10331809557E+02  0.29337574415E+02  0.00000000000E+00 0.  1.
</event>
<event>
 5    1  0.3125560E-003  0.9118800E+02  0.7818608E-02  0.1130116E+00
         25   -1    0    0    0    0  0.00000000000E+00  0.00000000000E+00  0.99999998245E-14  0.12500000000E+03  0.12500000000E+03 0.  0.
        -13    1    3    3    0    0  0.72436923168E+01  0.18052469936E+02 -0.40294416578E+02  0.44743870201E+02  0.10566000000E+00 0.  1.
         23    2    1    0    0    0  0.25819483235E+02 -0.13575237689E+02 -0.54718655640E+01  0.95320476661E+02  0.90582112833E+02 0.  0.
         13    1    3    3    0    0  0.18575790919E+02 -0.31627707625E+02  0.34822551014E+02  0.50576606460E+02  0.10566000000E+00 0. -1.
         22    1    1    0    0    0 -0.25819483235E+02  0.13575237689E+02  0.54718655640E+01  0.29679523339E+02  0.00000000000E+00 0. -1.
</event>
<event>
 5    1  0.3125560E-003  0.9118800E+02  0.7818608E-02  0.1130116E+00
         25   -1    0    0    0    0  0.00000000000E+00  0.00000000000E+00  0.99999998245E-14  0.12500000000E+03  0.12500000000E+03 0.  0.
        -13    1    3    3    0    0  0.17131914806E+02 -0.53921472576E+02  0.26264233620E+02  0.62376669046E+02  0.10566000000E+00 0.  1.
         23    2    1    0    0    0  0.74290342226E+01 -0.29766270077E+02  0.12023195866E+02  0.92048844898E+02  0.85948887278E+02 0.  0.
         13    1    3    3    0    0 -0.97028805834E+01  0.24155202499E+02 -0.14241037754E+02  0.29672175851E+02  0.10566000000E+00 0. -1.
         22    1    1    0    0    0 -0.74290342226E+01  0.29766270077E+02 -0.12023195866E+02  0.32951155102E+02  0.00000000000E+00 0.  1.
</event>
<event>
 5    1  0.3125560E-003  0.9118800E+02  0.7818608E-02  0.1130116E+00
         25   -1    0    0    0    0  0.00000000000E+00  0.00000000000E+00  0.99999998245E-14  0.12500000000E+03  0.12500000000E+03 0.  0.
        -13    1    3    3    0    0  0.25228328657E+01 -0.28564033472E+02 -0.21132543818E+02  0.35621121067E+02  0.10566000000E+00 0. -1.
         23    2    1    0    0    0  0.10722952975E+02  0.68771067047E+01  0.26524287778E+02  0.95575279793E+02  0.90933052013E+02 0.  0.
         13    1    3    3    0    0  0.82001201091E+01  0.35441140177E+02  0.47656831595E+02  0.59954158726E+02  0.10566000000E+00 0.  1.
         22    1    1    0    0    0 -0.10722952975E+02 -0.68771067047E+01 -0.26524287778E+02  0.29424720207E+02  0.00000000000E+00 0.  1.
</event>
<event>
 5    1  0.3125560E-003  0.9118800E+02  0.7818608E-02  0.1130116E+00
         25   -1    0    0    0    0  0.00000000000E+00  0.00000000000E+00  0.99999998245E-14  0.12500000000E+03  0.12500000000E+03 0.  0.
        -13    1    3    3    0    0  0.19262211346E+02  0.51280190093E+02  0.11966008480E+02  0.56070377249E+02  0.10566000000E+00 0.  1.
         23    2    1    0    0    0  0.24513801580E+02  0.10358672913E+02  0.40282382820E+01  0.98084293134E+02  0.94318997469E+02 0.  0.
         13    1    3    3    0    0  0.52515902339E+01 -0.40921517180E+02 -0.79377701977E+01  0.42013915885E+02  0.10566000000E+00 0. -1.
         22    1    1    0    0    0 -0.24513801580E+02 -0.10358672913E+02 -0.40282382820E+01  0.26915706866E+02  0.00000000000E+00 0.  1.
</event>
<event>
 5    1  0.3125560E-003  0.9118800E+02  0.7818608E-02  0.1130116E+00
         25   -1    0    0    0    0  0.00000000000E+00  0.00000000000E+00  0.99999998245E-14  0.12500000000E+03  0.12500000000E+03 0.  0.
        -13    1    3    3    0    0  0.54284960505E+02  0.40955979783E+01 -0.18758057867E+01  0.54471650160E+02  0.10566000000E+00 0.  1.
         23    2    1    0    0    0  0.20314177253E+02 -0.18958607224E+02 -0.82406369053E+01  0.96017200240E+02  0.91538516811E+02 0.  0.
         13    1    3    3    0    0 -0.33970783252E+02 -0.23054205202E+02 -0.63648311186E+01  0.41545550080E+02  0.10566000000E+00 0. -1.
         22    1    1    0    0    0 -0.20314177253E+02  0.18958607224E+02  0.82406369053E+01  0.28982799760E+02  0.00000000000E+00 0.  1.
</event>
<event>
 5    1  0.3125560E-003  0.9118800E+02  0.7818608E-02  0.1130116E+00
         25   -1    0    0    0    0  0.00000000000E+00  0.00000000000E+00  0.99999998245E-14  0.12500000000E+03  0.12500000000E+03 0.  0.
        -13    1    3    3    0    0 -0.28763691431E-01  0.98907528161E+01  0.50492124358E+02  0.51451857156E+02  0.10566000000E+00 0.  1.
         23    2    1    0    0    0  0.14805575879E+02 -0.16987653595E+02  0.17945958386E+02  0.96193006506E+02  0.91778274263E+02 0.  0.
         13    1    3    3    0    0  0.14834339570E+02 -0.26878406411E+02 -0.32546165972E+02  0.44741149350E+02  0.10566000000E+00 0. -1.
         22    1    1    0    0    0 -0.14805575879E+02  0.16987653595E+02 -0.17945958386E+02  0.28806993494E+02  0.00000000000E+00 0.  1.
</event>
<event>
 5    1  0.3125560E-003  0.9118800E+02  0.7818608E-02  0.1130116E+00
         25   -1    0    0    0    0  0.00000000000E+00  0.00000000000E+00  0.99999998245E-14  0.12500000000E+03  0.12500000000E+03 0.  0.
        -13    1    3    3    0    0  0.99193743167E+01  0.40846610972E+02 -0.34955809746E+01  0.42179021624E+02  0.10566000000E+00 0. -1.
         23    2    1    0    0    0  0.80595032981E+01 -0.81191392248E+01 -0.26369303351E+02  0.96256023685E+02  0.91864062186E+02 0.  0.
         13    1    3    3    0    0 -0.18598710185E+01 -0.48965750197E+02 -0.22873722376E+02  0.54077002061E+02  0.10566000000E+00 0.  1.
         22    1    1    0    0    0 -0.80595032981E+01  0.81191392248E+01  0.26369303351E+02  0.28743976315E+02  0.00000000000E+00 0.  1.
</event>
<event>
 5    1  0.3125560E-003  0.9118800E+02  0.7818608E-02  0.1130116E+00
         25   -1    0    0    0    0  0.00000000000E+00  0.00000000000E+00  0.99999998245E-14  0.12500000000E+03  0.12500000000E+03 0.  0.
        -13    1    3    3    0    0 -0.27427642201E+02 -0.14318021113E+02 -0.22482789364E+02  0.38246153622E+02  0.10566000000E+00 0. -1.
         23    2    1    0    0    0  0.17773503904E+02  0.18655052067E+02  0.16546674926E+01  0.99180504785E+02  0.95760775876E+02 0.  0.
         13    1    3    3    0    0  0.45201146105E+02  0.32973073180E+02  0.24137456856E+02  0.60934351163E+02  0.10566000000E+00 0.  1.
         22    1    1    0    0    0 -0.17773503904E+02 -0.18655052067E+02 -0.16546674926E+01  0.25819495215E+02  0.00000000000E+00 0.  1.
</event>
<event>
 5    1  0.3125560E-003  0.9118800E+02  0.7818608E-02  0.1130116E+00
         25   -1    0    0    0    0  0.00000000000E+00  0.00000000000E+00  0.99999998245E-14  0.12500000000E+03  0.12500000000E+03 0.  0.
        -13    1    3    3    0    0  0.25125253077E+02  0.19890681800E+02 -0.95808838517E+01  0.33447302792E+02  0.10566000000E+00 0. -1.
         23    2    1    0    0    0 -0.23127990756E+02 -0.18300581617E+02 -0.22272329606E+01  0.95423390820E+02  0.90724019449E+02 0.  0.
         13    1    3    3    0    0 -0.48253243833E+02 -0.38191263417E+02  0.73536508912E+01  0.61976088028E+02  0.10566000000E+00 0.  1.
         22    1    1    0    0    0  0.23127990756E+02  0.18300581617E+02  0.22272329606E+01  0.29576609180E+02  0.00000000000E+00 0.  1.
</event>
<event>
 5    1  0.3125560E-003  0.9118800E+02  0.7818608E-02  0.1130116E+00
         25   -1    0    0    0    0  0.00000000000E+00  0.00000000000E+00  0.99999998245E-14  0.12500000000E+03  0.12500000000E+03 0.  0.
        -13    1    3    3    0    0 -0.38443567810E+02  0.29480990222E+02  0.20176769861E+02  0.52479995203E+02  0.10566000000E+00 0.  1.
         23    2    1    0    0    0  0.18953781776E+01  0.28950036748E+02  0.51262789506E+01  0.95538570605E+02  0.90882576169E+02 0.  0.
         13    1    3    3    0    0  0.40338945987E+02 -0.53095347370E+00 -0.15050490910E+02  0.43058575402E+02  0.10566000000E+00 0. -1.
         22    1    1    0    0    0 -0.18953781776E+01 -0.28950036748E+02 -0.51262789506E+01  0.29461429395E+02  0.00000000000E+00 0. -1.
</event>
<event>
 5    1  0.3125560E-003  0.9118800E+02  0.7818608E-02  0.1130116E+00
         25   -1    0    0    0    0  0.00000000000E+00  0.00000000000E+00  0.99999998245E-14  0.12500000000E+03  0.12500000000E+03 0.  0.
        -13    1    3    3    0    0 -0.35084934859E+02  0.39548706500E+02 -0.20861760043E+02  0.56835526178E+02  0.10566000000E+00 0.  1.
         23    2    1    0    0    0  0.73952412371E+00  0.24744467734E+02 -0.15041654618E+02  0.96033002347E+02  0.91560092763E+02 0.  0.
         13    1    3    3    0    0  0.35824458982E+02 -0.14804238766E+02  0.58201054252E+01  0.39197476169E+02  0.10566000000E+00 0. -1.
         22    1    1    0    0    0 -0.73952412371E+00 -0.24744467734E+02  0.15041654618E+02  0.28966997653E+02  0.00000000000E+00 0.  1.
</event>
<event>
 5    1  0.3125560E-003  0.9118800E+02  0.7818608E-02  0.1130116E+00
         25   -1    0    0    0    0  0.00000000000E+00  0.00000000000E+00  0.99999998245E-14  0.12500000000E+03  0.12500000000E+03 0.  0.
        -13    1    3    3    0    0 -0.49703443845E+02 -0.33267737858E+02  0.94135890487E+01  0.60545863072E+02  0.10566000000E+00 0.  1.
         23    2    1    0    0    0 -0.22894375087E+02 -0.19478901300E+02 -0.59110734413E+01  0.94364713227E+02  0.89253449830E+02 0.  0.
         13    1    3    3    0    0  0.26809068759E+02  0.13788836558E+02 -0.15324662490E+02  0.33818850155E+02  0.10566000000E+00 0. -1.
         22    1    1    0    0    0  0.22894375087E+02  0.19478901300E+02  0.59110734413E+01  0.30635286773E+02  0.00000000000E+00 0.  1.
</event>
<event>
 5    1  0.3125560E-003  0.9118800E+02  0.7818608E-02  0.1130116E+00
         25   -1    0    0    0    0  0.00000000000E+00  0.00000000000E+00  0.99999998245E-14  0.12500000000E+03  0.12500000000E+03 0.  0.
        -13    1    3    3    0    0 -0.29463884822E+01  0.48958609620E+02 -0.11347784461E+02  0.50342924400E+02  0.10566000000E+00 0.  1.
         23    2    1    0    0    0 -0.19306759378E+02  0.80979433257E+01 -0.20938449754E+02  0.95390097571E+02  0.90678136244E+02 0.  0.
         13    1    3    3    0    0 -0.16360370895E+02 -0.40860666294E+02 -0.95906652932E+01  0.45047173170E+02  0.10566000000E+00 0. -1.
         22    1    1    0    0    0  0.19306759378E+02 -0.80979433257E+01  0.20938449754E+02  0.29609902429E+02  0.00000000000E+00 0.  1.
</event>
<event>
 5    1  0.3125560E-003  0.9118800E+02  0.7818608E-02  0.1130116E+00
         25   -1    0    0    0    0  0.00000000000E+00  0.00000000000E+00  0.99999998245E-14  0.12500000000E+03  0.12500000000E+03 0.  0.
        -13    1    3    3    0    0  0.34787861173E+01 -0.16834696346E+02 -0.28357006522E+02  0.33160819303E+02  0.10566000000E+00 0. -1.
         23    2    1    0    0    0 -0.14645693725E+02  0.12731953830E+02  0.22859499448E+02  0.95014074835E+02  0.90158298058E+02 0.  0.
         13    1    3    3    0    0 -0.18124479842E+02  0.29566650176E+02  0.51216505969E+02  0.61853255532E+02  0.10566000000E+00 0.  1.
         22    1    1    0    0    0  0.14645693725E+02 -0.12731953830E+02 -0.22859499448E+02  0.29985925165E+02  0.00000000000E+00 0.  1.
</event>
<event>
 5    1  0.3125560E-003  0.9118800E+02  0.7818608E-02  0.1130116E+00
         25   -1    0    0    0    0  0.00000000000E+00  0.00000000000E+00  0.99999998245E-14  0.12500000000E+03  0.12500000000E+03 0.  0.
        -13    1    3    3    0    0 -0.15371948360E+02  0.94003953160E+01 -0.27735604699E+02  0.33074751103E+02  0.10566000000E+00 0. -1.
         23    2    1    0    0    0  0.10132427755E+02 -0.20010632516E+01  0.27855791369E+02  0.95291155204E+02  0.90541641254E+02 0.  0.
         13    1    3    3    0    0  0.25504376115E+02 -0.11401458568E+02  0.55591396068E+02  0.62216404101E+02  0.10566000000E+00 0.  1.
         22    1    1    0    0    0 -0.10132427755E+02  0.20010632516E+01 -0.27855791369E+02  0.29708844796E+02  0.00000000000E+00 0.  1.
</event>
<event>
 5    1  0.3125560E-003  0.9118800E+02  0.7818608E-02  0.1130116E+00
         25   -1    0    0    0    0  0.00000000000E+00  0.00000000000E+00  0.99999998245E-14  0.12500000000E+03  0.12500000000E+03 0.  0.
        -13    1    3    3    0    0  0.19503472727E+02  0.16495818096E+02 -0.32685354598E+02  0.41483021012E+02  0.10566000000E+00 0. -1.
         23    2    1    0    0    0  0.65941957859E+01  0.19992422494E+02  0.20074075280E+02  0.95911361778E+02  0.91393875312E+02 0.  0.
         13    1    3    3    0    0 -0.12909276941E+02  0.34966043982E+01  0.52759429878E+02  0.54428340766E+02  0.10566000000E+00 0.  1.
         22    1    1    0    0    0 -0.65941957859E+01 -0.19992422494E+02 -0.20074075280E+02  0.29088638222E+02  0.00000000000E+00 0.  1.
</event>
<event>
 5    1  0.3125560E-003  0.9118800E+02  0.7818608E-02  0.1130116E+00
         25   -1    0    0    0    0  0.00000000000E+00  0.00000000000E+00  0.99999998245E-14  0.12500000000E+03  0.12500000000E+03 0.  0.
        -13    1    3    3    0    0  0.29454214532E+02 -0.16484402255E+02 -0.30337432870E+02  0.45383447077E+02  0.10566000000E+00 0.  1.
         23    2    1    0    0    0 -0.18892816447E+02 -0.16155425104E+02 -0.14299179195E+02  0.96322433869E+02  0.91954382534E+02 0.  0.
         13    1    3    3    0    0 -0.48347030979E+02  0.32897715078E+00  0.16038253675E+02  0.50938986792E+02  0.10566000000E+00 0. -1.
         22    1    1    0    0    0  0.18892816447E+02  0.16155425104E+02  0.14299179195E+02  0.28677566131E+02  0.00000000000E+00 0. -1.
</event>
<event>
 5    1  0.3125560E-003  0.9118800E+02  0.7818608E-02  0.1130116E+00
         25   -1    0    0    0    0  0.00000000000E+00  0.00000000000E+00  0.99999998245E-14  0.12500000000E+03  0.12500000000E+03 0.  0.
        -13    1    3    3    0    0 -0.33039883941E+02  0.42831003011E+00 -0.25496105036E+02  0.41735834918E+02  0.10566000000E+00 0. -1.
         23    2    1    0    0    0  0.21368525911E+02 -0.45117406642E+01 -0.17631900202E+02  0.96931269922E+02  0.92778324411E+02 0.  0.
         13    1    3    3    0    0  0.54408409852E+02 -0.49400506943E+01  0.78642048336E+01  0.55195435004E+02  0.10566000000E+00 0.  1.
         22    1    1    0    0    0 -0.21368525911E+02  0.45117406642E+01  0.17631900202E+02  0.28068730078E+02  0.00000000000E+00 0.  1.
</event>
<event>
 5    1  0.3125560E-003  0.9118800E+02  0.7818608E-02  0.1130116E+00
         25   -1    0    0    0    0  0.00000000000E+00  0.00000000000E+00  0.99999998245E-14  0.12500000000E+03  0.12500000000E+03 0.  0.
        -13    1    3    3    0    0 -0.28154734574E+02 -0.27638960970E+02  0.17757196647E+02  0.43265811436E+02  0.10566000000E+00 0. -1.
         23    2    1    0    0    0 -0.31784843995E+00  0.14247487916E+02  0.27064561491E+02  0.94412708060E+02  0.89320641595E+02 0.  0.
         13    1    3    3    0    0  0.27836886134E+02  0.41886448885E+02  0.93073648444E+01  0.51146896624E+02  0.10566000000E+00 0.  1.
         22    1    1    0    0    0  0.31784843995E+00 -0.14247487916E+02 -0.27064561491E+02  0.30587291940E+02  0.00000000000E+00 0. -1.
</event>
<event>
 5    1  0.3125560E-003  0.9118800E+02  0.7818608E-02  0.1130116E+00
         25   -1    0    0    0    0  0.00000000000E+00  0.00000000000E+00  0.99999998245E-14  0.12500000000E+03  0.12500000000E+03 0.  0.
        -13    1    3    3    0    0  0.65913440004E+00 -0.38896480532E+02  0.37077015107E+01  0.39078496267E+02  0.10566000000E+00 0.  1.
         23    2    1    0    0    0 -0.71895047476E+01  0.15169945696E+02  0.22565680978E+02  0.96874812198E+02  0.92702227856E+02 0.  0.
         13    1    3    3    0    0 -0.78486391477E+01  0.54066426228E+02  0.18857979467E+02  0.57796315931E+02  0.10566000000E+00 0. -1.
         22    1    1    0    0    0  0.71895047476E+01 -0.15169945696E+02 -0.22565680978E+02  0.28125187802E+02  0.00000000000E+00 0. -1.
</event>
<event>
 5    1  0.3125560E-003  0.9118800E+02  0.7818608E-02  0.1130116E+00
         25   -1    0    0    0    0  0.00000000000E+00  0.00000000000E+00  0.99999998245E-14  0.12500000000E+03  0.12500000000E+03 0.  0.
        -13    1    3    3    0    0 -0.26583046903E+02 -0.12828929447E+02 -0.19419814142E+02  0.35332423619E+02  0.10566000000E+00 0.  1.
         23    2    1    0    0    0  0.26516963661E+02  0.11602453055E+02 -0.88644969354E+01  0.94728799419E+02  0.89761906479E+02 0.  0.
         13    1    3    3    0    0  0.53100010564E+02  0.24431382502E+02  0.10555317207E+02  0.59396375801E+02  0.10566000000E+00 0. -1.
         22    1    1    0    0    0 -0.26516963661E+02 -0.11602453055E+02  0.88644969354E+01  0.30271200581E+02  0.00000000000E+00 0. -1.
</event>
<event>
 5    1  0.3125560E-003  0.9118800E+02  0.7818608E-02  0.1130116E+00
         25   -1    0    0    0    0  0.00000000000E+00  0.00000000000E+00  0.99999998245E-14  0.12500000000E+03  0.12500000000E+03 0.  0.
        -13    1    3    3    0    0  0.35427251974E+02 -0.48355587633E+02  0.10138178044E+02  0.60795944403E+02  0.10566000000E+00 0. -1.
         23    2    1    0    0    0  0.88748974531E+01 -0.26429990026E+02  0.10431350290E+02  0.95232211260E+02  0.90460227808E+02 0.  0.
         13    1    3    3    0    0 -0.26552354521E+02  0.21925597607E+02  0.29317224591E+00  0.34436266857E+02  0.10566000000E+00 0.  1.
         22    1    1    0    0    0 -0.88748974531E+01  0.26429990026E+02 -0.10431350290E+02  0.29767788740E+02  0.00000000000E+00 0. -1.
</event>
<event>
 5    1  0.3125560E-003  0.9118800E+02  0.7818608E-02  0.1130116E+00
         25   -1    0    0    0    0  0.00000000000E+00  0.00000000000E+00  0.99999998245E-14  0.12500000000E+03  0.12500000000E+03 0.  0.
        -13    1    3    3    0    0 -0.98530390858E+01 -0.10775899097E+02 -0.30451950887E+02  0.33771805659E+02  0.10566000000E+00 0. -1.
         23    2    1    0    0    0  0.23785427995E+02  0.14521842872E+02  0.12984585661E+02  0.94255407466E+02  0.89100234941E+02 0.  0.
         13    1    3    3    0    0  0.33638467080E+02  0.25297741969E+02  0.43436536548E+02  0.60483601807E+02  0.10566000000E+00 0.  1.
         22    1    1    0    0    0 -0.23785427995E+02 -0.14521842872E+02 -0.12984585661E+02  0.30744592534E+02  0.00000000000E+00 0.  1.
</event>
<event>
 5    1  0.3125560E-003  0.9118800E+02  0.7818608E-02  0.1130116E+00
         25   -1    0    0    0    0  0.00000000000E+00  0.00000000000E+00  0.99999998245E-14  0.12500000000E+03  0.12500000000E+03 0.  0.
        -13    1    3    3    0    0  0.51385082184E+02 -0.62764515133E+01  0.20615585115E+02  0.55721037575E+02  0.10566000000E+00 0.  1.
         23    2    1    0    0    0  0.23876160825E+02 -0.83336443943E+01 -0.10775882978E+02  0.97511086988E+02  0.93556249107E+02 0.  0.
         13    1    3    3    0    0 -0.27508921360E+02 -0.20571928810E+01 -0.31391468093E+02  0.41790049414E+02  0.10566000000E+00 0. -1.
         22    1    1    0    0    0 -0.23876160825E+02  0.83336443943E+01  0.10775882978E+02  0.27488913012E+02  0.00000000000E+00 0.  1.
</event>
<event>
 5    1  0.3125560E-003  0.9118800E+02  0.7818608E-02  0.1130116E+00
         25   -1    0    0    0    0  0.00000000000E+00  0.00000000000E+00  0.99999998245E-14  0.12500000000E+03  0.12500000000E+03 0.  0.
        -13    1    3    3    0    0  0.33455435982E+02  0.21777364275E+02 -0.44856143747E+01  0.40170283692E+02  0.10566000000E+00 0.  1.
         23    2    1    0    0    0  0.99750590733E+01 -0.25240704044E+02 -0.15325518200E+02  0.93831643414E+02  0.88503733557E+02 0.  0.
         13    1    3    3    0    0 -0.23480376909E+02 -0.47018068319E+02 -0.10839903825E+02  0.53661359722E+02  0.10566000000E+00 0. -1.
         22    1    1    0    0    0 -0.99750590733E+01  0.25240704044E+02  0.15325518200E+02  0.31168356586E+02  0.00000000000E+00 0. -1.
</event>
<event>
 5    1  0.3125560E-003  0.9118800E+02  0.7818608E-02  0.1130116E+00
         25   -1    0    0    0    0  0.00000000000E+00  0.00000000000E+00  0.99999998245E-14  0.12500000000E+03  0.12500000000E+03 0.  0.
        -13    1    3    3    0    0 -0.46151768707E+02  0.37669514426E+02  0.60109247785E+01  0.59875875381E+02  0.10566000000E+00 0.  1.
         23    2    1    0    0    0 -0.25047772615E+02  0.14829417709E+02 -0.91702865096E+01  0.94481207474E+02  0.89416451890E+02 0.  0.
         13    1    3    3    0    0  0.21103996093E+02 -0.22840096717E+02 -0.15181211288E+02  0.34605332094E+02  0.10566000000E+00 0. -1.
         22    1    1    0    0    0  0.25047772615E+02 -0.14829417709E+02  0.91702865096E+01  0.30518792526E+02  0.00000000000E+00 0.  1.
</event>
<event>
 5    1  0.3125560E-003  0.9118800E+02  0.7818608E-02  0.1130116E+00
         25   -1    0    0    0    0  0.00000000000E+00  0.00000000000E+00  0.99999998245E-14  0.12500000000E+03  0.12500000000E+03 0.  0.
        -13    1    3    3    0    0  0.29091239111E+02 -0.37904911482E+02 -0.18326828919E+02  0.51175837363E+02  0.10566000000E+00 0.  1.
         23    2    1    0    0    0  0.17133831915E+02  0.38223234759E+01 -0.24332171325E+02  0.94996118347E+02  0.90133398842E+02 0.  0.
         13    1    3    3    0    0 -0.11957407196E+02  0.41727234958E+02 -0.60053424059E+01  0.43820280985E+02  0.10566000000E+00 0. -1.
         22    1    1    0    0    0 -0.17133831915E+02 -0.38223234759E+01  0.24332171325E+02  0.30003881653E+02  0.00000000000E+00 0.  1.
</event>
<event>
 5    1  0.3125560E-003  0.9118800E+02  0.7818608E-02  0.1130116E+00
         25   -1    0    0    0    0  0.00000000000E+00  0.00000000000E+00  0.99999998245E-14  0.12500000000E+03  0.12500000000E+03 0.  0.
        -13    1    3    3    0    0 -0.60766480946E+01  0.17398427560E+02  0.37841744689E+02  0.42090851010E+02  0.10566000000E+00 0. -1.
         23    2    1    0    0    0 -0.80587338672E+01 -0.27339895151E+02  0.10147677919E+02  0.94744613280E+02  0.89783925733E+02 0.  0.
         13    1    3    3    0    0 -0.19820857726E+01 -0.44738322711E+02 -0.27694066769E+02  0.52653762271E+02  0.10566000000E+00 0.  1.
         22    1    1    0    0    0  0.80587338672E+01  0.27339895151E+02 -0.10147677919E+02  0.30255386720E+02  0.00000000000E+00 0.  1.
</event>
<event>
 5    1  0.3125560E-003  0.9118800E+02  0.7818608E-02  0.1130116E+00
         25   -1    0    0    0    0  0.00000000000E+00  0.00000000000E+00  0.99999998245E-14  0.12500000000E+03  0.12500000000E+03 0.  0.
        -13    1    3    3    0    0 -0.25753157278E+02 -0.44944977203E+02 -0.34207200470E+02  0.62075919757E+02  0.10566000000E+00 0. -1.
         23    2    1    0    0    0 -0.13910672591E+02 -0.17433593654E+02 -0.19167770175E+02  0.95591830844E+02  0.90955800865E+02 0.  0.
         13    1    3    3    0    0  0.11842484687E+02  0.27511383550E+02  0.15039430296E+02  0.33515911088E+02  0.10566000000E+00 0.  1.
         22    1    1    0    0    0  0.13910672591E+02  0.17433593654E+02  0.19167770175E+02  0.29408169156E+02  0.00000000000E+00 0. -1.
</event>
<event>
 5    1  0.3125560E-003  0.9118800E+02  0.7818608E-02  0.1130116E+00
         25   -1    0    0    0    0  0.00000000000E+00  0.00000000000E+00  0.99999998245E-14  0.12500000000E+03  0.12500000000E+03 0.  0.
        -13    1    3    3    0    0 -0.38344330595E+02  0.15885619431E+02  0.84138972041E+01  0.42349089998E+02  0.10566000000E+00 0.  1.
         23    2    1    0    0    0  0.15051263885E+02  0.23067023219E+02  0.83268641522E+01  0.96225623007E+02  0.91822686476E+02 0.  0.
         13    1    3    3    0    0  0.53395594480E+02  0.71814037884E+01 -0.87033051857E-01  0.53876533009E+02  0.10566000000E+00 0. -1.
         22    1    1    0    0    0 -0.15051263885E+02 -0.23067023219E+02 -0.83268641522E+01  0.28774376993E+02  0.00000000000E+00 0. -1.
</event>
<event>
 5    1  0.3125560E-003  0.9118800E+02  0.7818608E-02  0.1130116E+00
         25   -1    0    0    0    0  0.00000000000E+00  0.00000000000E+00  0.99999998245E-14  0.12500000000E+03  0.12500000000E+03 0.  0.
        -13    1    3    3    0    0  0.13355646774E+02 -0.24571419233E+02  0.22607438537E+02  0.35961582072E+02  0.10566000000E+00 0. -1.
         23    2    1    0    0    0 -0.24158916047E+02 -0.79114150256E+01 -0.18116904708E+02  0.93783562847E+02  0.88435799945E+02 0.  0.
         13    1    3    3    0    0 -0.37514562822E+02  0.16660004208E+02 -0.40724343246E+02  0.57821980775E+02  0.10566000000E+00 0.  1.
         22    1    1    0    0    0  0.24158916047E+02  0.79114150256E+01  0.18116904708E+02  0.31216437153E+02  0.00000000000E+00 0.  1.
</event>
<event>
 5    1  0.3125560E-003  0.9118800E+02  0.7818608E-02  0.1130116E+00
         25   -1    0    0    0    0  0.00000000000E+00  0.00000000000E+00  0.99999998245E-14  0.12500000000E+03  0.12500000000E+03 0.  0.
        -13    1    3    3    0    0 -0.53229620783E+02 -0.51138410811E+01 -0.89814200174E+01  0.54223804448E+02  0.10566000000E+00 0.  1.
         23    2    1    0    0    0 -0.21046531185E+02  0.19722199439E+02  0.12018413688E+01  0.96131919906E+02  0.91695037906E+02 0.  0.
         13    1    3    3    0    0  0.32183089598E+02  0.24836040520E+02  0.10183261386E+02  0.41908115458E+02  0.10566000000E+00 0. -1.
         22    1    1    0    0    0  0.21046531185E+02 -0.19722199439E+02 -0.12018413688E+01  0.28868080094E+02  0.00000000000E+00 0.  1.
</event>
<event>
 5    1  0.3125560E-003  0.9118800E+02  0.7818608E-02  0.1130116E+00
         25   -1    0    0    0    0  0.00000000000E+00  0.00000000000E+00  0.99999998245E-14  0.12500000000E+03  0.12500000000E+03 0.  0.
        -13    1    3    3    0    0  0.31319341786E+02 -0.22565461339E+02  0.35411259807E+01  0.38764054904E+02  0.10566000000E+00 0.  1.
         23    2    1    0    0    0  0.89137586549E+01  0.26472744807E+02 -0.11584312274E+02  0.94759999970E+02  0.89805345010E+02 0.  0.
         13    1    3    3    0    0 -0.22405583131E+02  0.49038206146E+02 -0.15125438255E+02  0.55995945066E+02  0.10566000000E+00 0. -1.
         22    1    1    0    0    0 -0.89137586549E+01 -0.26472744807E+02  0.11584312274E+02  0.30240000030E+02  0.00000000000E+00 0. -1.
</event>
<event>
 5    1  0.3125560E-003  0.9118800E+02  0.7818608E-02  0.1130116E+00
         25   -1    0    0    0    0  0.00000000000E+00  0.00000000000E+00  0.99999998245E-14  0.12500000000E+03  0.12500000000E+03 0.  0.
        -13    1    3    3    0    0 -0.96490462252E+01 -0.16433509490E+02  0.44662318651E+02  0.48558193938E+02  0.10566000000E+00 0.  1.
         23    2    1    0    0    0 -0.19362992791E+02  0.17761898612E+02  0.15874963409E+02  0.94301058726E+02  0.89164256749E+02 0.  0.
         13    1    3    3    0    0 -0.97139465654E+01  0.34195408102E+02 -0.28787355242E+02  0.45742864788E+02  0.10566000000E+00 0. -1.
         22    1    1    0    0    0  0.19362992791E+02 -0.17761898612E+02 -0.15874963409E+02  0.30698941274E+02  0.00000000000E+00 0. -1.
</event>
<event>
 5    1  0.3125560E-003  0.9118800E+02  0.7818608E-02  0.1130116E+00
         25   -1    0    0    0    0  0.00000000000E+00  0.00000000000E+00  0.99999998245E-14  0.12500000000E+03  0.12500000000E+03 0.  0.
        -13    1    3    3    0    0  0.16423761387E+02  0.12971102319E+02  0.26319519363E+02  0.33626146033E+02  0.10566000000E+00 0. -1.
         23    2    1    0    0    0 -0.17300140079E+00 -0.35108634929E+02  0.24688705908E+01  0.89804240339E+02  0.82619973885E+02 0.  0.
         13    1    3    3    0    0 -0.16596762788E+02 -0.48079737249E+02 -0.23850648773E+02  0.56178094306E+02  0.10566000000E+00 0.  1.
         22    1    1    0    0    0  0.17300140079E+00  0.35108634929E+02 -0.24688705908E+01  0.35195759661E+02  0.00000000000E+00 0. -1.
</event>
<event>
 5    1  0.3125560E-003  0.9118800E+02  0.7818608E-02  0.1130116E+00
         25   -1    0    0    0    0  0.00000000000E+00  0.00000000000E+00  0.99999998245E-14  0.12500000000E+03  0.12500000000E+03 0.  0.
        -13    1    3    3    0    0 -0.39467676989E+02 -0.17202458606E+02 -0.72328032278E+01  0.43657149650E+02  0.10566000000E+00 0. -1.
         23    2    1    0    0    0 -0.76321185429E+01  0.23152893734E+02 -0.16054968543E+02  0.95809800675E+02  0.91254863809E+02 0.  0.
         13    1    3    3    0    0  0.31835558446E+02  0.40355352340E+02 -0.88221653149E+01  0.52152651025E+02  0.10566000000E+00 0.  1.
         22    1    1    0    0    0  0.76321185429E+01 -0.23152893734E+02  0.16054968543E+02  0.29190199325E+02  0.00000000000E+00 0.  1.
</event>
<event>
 5    1  0.3125560E-003  0.9118800E+02  0.7818608E-02  0.1130116E+00
         25   -1    0    0    0    0  0.00000000000E+00  0.00000000000E+00  0.99999998245E-14  0.12500000000E+03  0.12500000000E+03 0.  0.
        -13    1    3    3    0    0  0.22322286991E+02  0.43092749268E+02 -0.32467324704E+02  0.58390135070E+02  0.10566000000E+00 0.  1.
         23    2    1    0    0    0  0.14715223170E+02  0.25087571878E+02 -0.43891615663E+00  0.95911914757E+02  0.91394631622E+02 0.  0.
         13    1    3    3    0    0 -0.76070638211E+01 -0.18005177389E+02  0.32028408548E+02  0.37521779688E+02  0.10566000000E+00 0. -1.
         22    1    1    0    0    0 -0.14715223170E+02 -0.25087571878E+02  0.43891615663E+00  0.29088085243E+02  0.00000000000E+00 0.  1.
</event>
<event>
 5    1  0.3125560E-003  0.9118800E+02  0.7818608E-02  0.1130116E+00
         25   -1    0    0    0    0  0.00000000000E+00  0.00000000000E+00  0.99999998245E-14  0.12500000000E+03  0.12500000000E+03 0.  0.
        -13    1    3    3    0    0 -0.86304372698E+01  0.28104936385E+02  0.52049056889E+02  0.59778653244E+02  0.10566000000E+00 0.  1.
         23    2    1    0    0    0 -0.14303271957E+02  0.18963350831E+02  0.18853416507E+02  0.94674374246E+02  0.89686083432E+02 0.  0.
         13    1    3    3    0    0 -0.56728346867E+01 -0.91415855541E+01 -0.33195640382E+02  0.34895721001E+02  0.10566000000E+00 0. -1.
         22    1    1    0    0    0  0.14303271957E+02 -0.18963350831E+02 -0.18853416507E+02  0.30325625754E+02  0.00000000000E+00 0.  1.
</event>
<event>
 5    1  0.3125560E-003  0.9118800E+02  0.7818608E-02  0.1130116E+00
         25   -1    0    0    0    0  0.00000000000E+00  0.00000000000E+00  0.99999998245E-14  0.12500000000E+03  0.12500000000E+03 0.  0.
        -13    1    3    3    0    0  0.29636286259E+02 -0.17064027159E+02 -0.30081298120E+02  0.45545429483E+02  0.10566000000E+00 0.  1.
         23    2    1    0    0    0  0.70289453291E+01  0.24807364018E+02 -0.13180537364E+02  0.96042480300E+02  0.91573031374E+02 0.  0.
         13    1    3    3    0    0 -0.22607340930E+02  0.41871391178E+02  0.16900760756E+02  0.50497050817E+02  0.10566000000E+00 0. -1.
         22    1    1    0    0    0 -0.70289453291E+01 -0.24807364018E+02  0.13180537364E+02  0.28957519700E+02  0.00000000000E+00 0.  1.
</event>
<event>
 5    1  0.3125560E-003  0.9118800E+02  0.7818608E-02  0.1130116E+00
         25   -1    0    0    0    0  0.00000000000E+00  0.00000000000E+00  0.99999998245E-14  0.12500000000E+03  0.12500000000E+03 0.  0.
        -13    1    3    3    0    0  0.86344922982E+01 -0.11121349496E+02 -0.32265728639E+02  0.35204080452E+02  0.10566000000E+00 0.  1.
         23    2    1    0    0    0 -0.21503948314E+02  0.77198154401E+01  0.17402256671E+02  0.96279730489E+02  0.91896314520E+02 0.  0.
         13    1    3    3    0    0 -0.30138440612E+02  0.18841164936E+02  0.49667985310E+02  0.61075650037E+02  0.10566000000E+00 0. -1.
         22    1    1    0    0    0  0.21503948314E+02 -0.77198154401E+01 -0.17402256671E+02  0.28720269511E+02  0.00000000000E+00 0. -1.
</event>
<event>
 5    1  0.3125560E-003  0.9118800E+02  0.7818608E-02  0.1130116E+00
         25   -1    0    0    0    0  0.00000000000E+00  0.00000000000E+00  0.99999998245E-14  0.12500000000E+03  0.12500000000E+03 0.  0.
        -13    1    3    3    0    0 -0.12537016944E+02 -0.42843666200E+02 -0.27518451523E+02  0.52440755769E+02  0.10566000000E+00 0. -1.
         23    2    1    0    0    0 -0.10466377045E+02 -0.12358647628E+01 -0.29018255004E+02  0.94127171597E+02  0.88920149006E+02 0.  0.
         13    1    3    3    0    0  0.20706398986E+01  0.41607801438E+02 -0.14998034808E+01  0.41686415828E+02  0.10566000000E+00 0.  1.
         22    1    1    0    0    0  0.10466377045E+02  0.12358647628E+01  0.29018255004E+02  0.30872828403E+02  0.00000000000E+00 0. -1.
</event>
<event>
 5    1  0.3125560E-003  0.9118800E+02  0.7818608E-02  0.1130116E+00
         25   -1    0    0    0    0  0.00000000000E+00  0.00000000000E+00  0.99999998245E-14  0.12500000000E+03  0.12500000000E+03 0.  0.
        -13    1    3    3    0    0 -0.40480632302E+02 -0.81100271839E+01  0.12145730479E+02  0.43034684447E+02  0.10566000000E+00 0.  1.
         23    2    1    0    0    0 -0.59552190958E+01  0.29201797916E+02  0.46878716406E+00  0.95193467203E+02  0.90406674536E+02 0.  0.
         13    1    3    3    0    0  0.34525413207E+02  0.37311825100E+02 -0.11676943315E+02  0.52158782756E+02  0.10566000000E+00 0. -1.
         22    1    1    0    0    0  0.59552190958E+01 -0.29201797916E+02 -0.46878716406E+00  0.29806532797E+02  0.00000000000E+00 0. -1.
</event>
<event>
 5    1  0.3125560E-003  0.9118800E+02  0.7818608E-02  0.1130116E+00
         25   -1    0    0    0    0  0.00000000000E+00  0.00000000000E+00  0.99999998245E-14  0.12500000000E+03  0.12500000000E+03 0.  0.
        -13    1    3    3    0    0  0.29948343049E+02  0.63719717581E+01 -0.24244065850E+02  0.39054976232E+02  0.10566000000E+00 0.  1.
         23    2    1    0    0    0 -0.15797908167E+01 -0.26291568946E+02  0.10928653428E+02  0.96483727410E+02  0.92173379305E+02 0.  0.
         13    1    3    3    0    0 -0.31528133866E+02 -0.32663540704E+02  0.35172719278E+02  0.57428751178E+02  0.10566000000E+00 0. -1.
         22    1    1    0    0    0  0.15797908167E+01  0.26291568946E+02 -0.10928653428E+02  0.28516272590E+02  0.00000000000E+00 0. -1.
</event>
<event>
 5    1  0.3125560E-003  0.9118800E+02  0.7818608E-02  0.1130116E+00
         25   -1    0    0    0    0  0.00000000000E+00  0.00000000000E+00  0.99999998245E-14  0.12500000000E+03  0.12500000000E+03 0.  0.
        -13    1    3    3    0    0  0.26402277714E+02  0.35381368727E+02  0.42565728170E+02  0.61325149003E+02  0.10566000000E+00 0.  1.
         23    2    1    0    0    0  0.14495185100E+02  0.11824149451E+02  0.84136059751E+01  0.10448879168E+03  0.10245583399E+03 0.  0.
         13    1    3    3    0    0 -0.11907092614E+02 -0.23557219276E+02 -0.34152122195E+02  0.43163642675E+02  0.10566000000E+00 0. -1.
         22    1    1    0    0    0 -0.14495185100E+02 -0.11824149451E+02 -0.84136059751E+01  0.20511208322E+02  0.00000000000E+00 0.  1.
</event>
<event>
 5    1  0.3125560E-003  0.9118800E+02  0.7818608E-02  0.1130116E+00
         25   -1    0    0    0    0  0.00000000000E+00  0.00000000000E+00  0.99999998245E-14  0.12500000000E+03  0.12500000000E+03 0.  0.
        -13    1    3    3    0    0 -0.17337263427E+02 -0.39254019655E+02 -0.28451230859E+02  0.51487303907E+02  0.10566000000E+00 0. -1.
         23    2    1    0    0    0  0.18553800536E+02 -0.18658850507E+02 -0.12913258848E+02  0.95688765453E+02  0.91088920091E+02 0.  0.
         13    1    3    3    0    0  0.35891063963E+02  0.20595169148E+02  0.15537972011E+02  0.44201461547E+02  0.10566000000E+00 0.  1.
         22    1    1    0    0    0 -0.18553800536E+02  0.18658850507E+02  0.12913258848E+02  0.29311234547E+02  0.00000000000E+00 0. -1.
</event>
<event>
 5    1  0.3125560E-003  0.9118800E+02  0.7818608E-02  0.1130116E+00
         25   -1    0    0    0    0  0.00000000000E+00  0.00000000000E+00  0.99999998245E-14  0.12500000000E+03  0.12500000000E+03 0.  0.
        -13    1    3    3    0    0 -0.12170423366E+02  0.86620559658E+01  0.43454757979E+02  0.45950816897E+02  0.10566000000E+00 0. -1.
         23    2    1    0    0    0 -0.28299987135E+02  0.96147484301E+01 -0.28326500992E+01  0.94977399083E+02  0.90107434604E+02 0.  0.
         13    1    3    3    0    0 -0.16129563769E+02  0.95269246430E+00 -0.46287408078E+02  0.49026582187E+02  0.10566000000E+00 0.  1.
         22    1    1    0    0    0  0.28299987135E+02 -0.96147484301E+01  0.28326500992E+01  0.30022600917E+02  0.00000000000E+00 0.  1.
</event>
<event>
 5    1  0.3125560E-003  0.9118800E+02  0.7818608E-02  0.1130116E+00
         25   -1    0    0    0    0  0.00000000000E+00  0.00000000000E+00  0.99999998245E-14  0.12500000000E+03  0.12500000000E+03 0.  0.
        -13    1    3    3    0    0 -0.43128070196E+02  0.40376271261E+02 -0.17869372240E+02  0.61721951914E+02  0.10566000000E+00 0. -1.
         23    2    1    0    0    0 -0.12849239116E+02  0.96717119274E+01  0.11995021765E+01  0.10887288733E+03  0.10767182470E+03 0.  0.
         13    1    3    3    0    0  0.30278831080E+02 -0.30704559334E+02  0.19068874416E+02  0.47150935420E+02  0.10566000000E+00 0.  1.
         22    1    1    0    0    0  0.12849239116E+02 -0.96717119274E+01 -0.11995021765E+01  0.16127112666E+02  0.00000000000E+00 0. -1.
</event>
<event>
 5    1  0.3125560E-003  0.9118800E+02  0.7818608E-02  0.1130116E+00
         25   -1    0    0    0    0  0.00000000000E+00  0.00000000000E+00  0.99999998245E-14  0.12500000000E+03  0.12500000000E+03 0.  0.
        -13    1    3    3    0    0  0.35672789214E+02  0.44878833265E+02 -0.18939700679E+02  0.60376990580E+02  0.10566000000E+00 0.  1.
         23    2    1    0    0    0  0.13975430200E+02  0.16423961224E+02 -0.19147257003E+02  0.96161196240E+02  0.91734939146E+02 0.  0.
         13    1    3    3    0    0 -0.21697359014E+02 -0.28454872042E+02 -0.20755632322E+00  0.35784205661E+02  0.10566000000E+00 0. -1.
         22    1    1    0    0    0 -0.13975430200E+02 -0.16423961224E+02  0.19147257003E+02  0.28838803760E+02  0.00000000000E+00 0.  1.
</event>
<event>
 5    1  0.3125560E-003  0.9118800E+02  0.7818608E-02  0.1130116E+00
         25   -1    0    0    0    0  0.00000000000E+00  0.00000000000E+00  0.99999998245E-14  0.12500000000E+03  0.12500000000E+03 0.  0.
        -13    1    3    3    0    0  0.22841405324E+02 -0.21274172050E+02 -0.34662914425E+02  0.46645996549E+02  0.10566000000E+00 0.  1.
         23    2    1    0    0    0  0.30470902215E+02 -0.25933624419E+01  0.76083330969E+01  0.93486698950E+02  0.88015196061E+02 0.  0.
         13    1    3    3    0    0  0.76294968911E+01  0.18680809608E+02  0.42271247522E+02  0.46840702402E+02  0.10566000000E+00 0. -1.
         22    1    1    0    0    0 -0.30470902215E+02  0.25933624419E+01 -0.76083330969E+01  0.31513301050E+02  0.00000000000E+00 0.  1.
</event>
<event>
 5    1  0.3125560E-003  0.9118800E+02  0.7818608E-02  0.1130116E+00
         25   -1    0    0    0    0  0.00000000000E+00  0.00000000000E+00  0.99999998245E-14  0.12500000000E+03  0.12500000000E+03 0.  0.
        -13    1    3    3    0    0 -0.26790099532E+00 -0.24524006700E+02 -0.22779671549E+02  0.33472724351E+02  0.10566000000E+00 0.  1.
         23    2    1    0    0    0 -0.58004711979E+01  0.29669110416E+02  0.45665566288E+01  0.94426236436E+02  0.89339571910E+02 0.  0.
         13    1    3    3    0    0 -0.55325702025E+01  0.54193117117E+02  0.27346228178E+02  0.60953512085E+02  0.10566000000E+00 0. -1.
         22    1    1    0    0    0  0.58004711979E+01 -0.29669110416E+02 -0.45665566288E+01  0.30573763564E+02  0.00000000000E+00 0. -1.
</event>
<event>
 5    1  0.3125560E-003  0.9118800E+02  0.7818608E-02  0.1130116E+00
         25   -1    0    0    0    0  0.00000000000E+00  0.00000000000E+00  0.99999998245E-14  0.12500000000E+03  0.12500000000E+03 0.  0.
        -13    1    3    3    0    0 -0.26144841469E+02  0.12667260132E+02  0.23217906427E+02  0.37189979263E+02  0.10566000000E+00 0.  1.
         23    2    1    0    0    0  0.15169455935E+02 -0.24693698454E+02  0.82255060405E+01  0.94874428033E+02  0.89964476368E+02 0.  0.
         13    1    3    3    0    0  0.41314297404E+02 -0.37360958586E+02 -0.14992400387E+02  0.57684448770E+02  0.10566000000E+00 0. -1.
         22    1    1    0    0    0 -0.15169455935E+02  0.24693698454E+02 -0.82255060405E+01  0.30125571967E+02  0.00000000000E+00 0. -1.
</event>
<event>
 5    1  0.3125560E-003  0.9118800E+02  0.7818608E-02  0.1130116E+00
         25   -1    0    0    0    0  0.00000000000E+00  0.00000000000E+00  0.99999998245E-14  0.12500000000E+03  0.12500000000E+03 0.  0.
        -13    1    3    3    0    0 -0.13575936858E+02  0.48903753938E+02 -0.58241920564E+01  0.51086354225E+02  0.10566000000E+00 0.  1.
         23    2    1    0    0    0  0.11292026257E+02  0.12050285164E+02 -0.21198095115E+02  0.98128482253E+02  0.94377542685E+02 0.  0.
         13    1    3    3    0    0  0.24867963115E+02 -0.36853468774E+02 -0.15373903058E+02  0.47042128028E+02  0.10566000000E+00 0. -1.
         22    1    1    0    0    0 -0.11292026257E+02 -0.12050285164E+02  0.21198095115E+02  0.26871517747E+02  0.00000000000E+00 0. -1.
</event>
<event>
 5    1  0.3125560E-003  0.9118800E+02  0.7818608E-02  0.1130116E+00
         25   -1    0    0    0    0  0.00000000000E+00  0.00000000000E+00  0.99999998245E-14  0.12500000000E+03  0.12500000000E+03 0.  0.
        -13    1    3    3    0    0 -0.70363491209E+01 -0.14005680236E+02 -0.48930144340E+02  0.51379368204E+02  0.10566000000E+00 0.  1.
         23    2    1    0    0    0  0.20411184820E+01 -0.28112907180E+02 -0.78689080283E+01  0.95735321148E+02  0.91152785405E+02 0.  0.
         13    1    3    3    0    0  0.90774676029E+01 -0.14107226943E+02  0.41061236312E+02  0.44355952944E+02  0.10566000000E+00 0. -1.
         22    1    1    0    0    0 -0.20411184820E+01  0.28112907180E+02  0.78689080283E+01  0.29264678852E+02  0.00000000000E+00 0.  1.
</event>
<event>
 5    1  0.3125560E-003  0.9118800E+02  0.7818608E-02  0.1130116E+00
         25   -1    0    0    0    0  0.00000000000E+00  0.00000000000E+00  0.99999998245E-14  0.12500000000E+03  0.12500000000E+03 0.  0.
        -13    1    3    3    0    0  0.15160310824E+02  0.34631492983E+02 -0.38451112722E+02  0.53922857530E+02  0.10566000000E+00 0.  1.
         23    2    1    0    0    0 -0.12791631294E+02  0.66661324404E+01 -0.25807754857E+02  0.95434760890E+02  0.90739683836E+02 0.  0.
         13    1    3    3    0    0 -0.27951942118E+02 -0.27965360543E+02  0.12643357866E+02  0.41511903361E+02  0.10566000000E+00 0. -1.
         22    1    1    0    0    0  0.12791631294E+02 -0.66661324404E+01  0.25807754857E+02  0.29565239110E+02  0.00000000000E+00 0. -1.
</event>
<event>
 5    1  0.3125560E-003  0.9118800E+02  0.7818608E-02  0.1130116E+00
         25   -1    0    0    0    0  0.00000000000E+00  0.00000000000E+00  0.99999998245E-14  0.12500000000E+03  0.12500000000E+03 0.  0.
        -13    1    3    3    0    0 -0.31089508862E+02  0.28873398409E+01 -0.40916462898E+02  0.51469043052E+02  0.10566000000E+00 0.  1.
         23    2    1    0    0    0 -0.42723163799E+01  0.23270165796E+02 -0.29820940766E+02  0.86933718180E+02  0.78156442761E+02 0.  0.
         13    1    3    3    0    0  0.26817192482E+02  0.20382825955E+02  0.11095522132E+02  0.35464675128E+02  0.10566000000E+00 0. -1.
         22    1    1    0    0    0  0.42723163799E+01 -0.23270165796E+02  0.29820940766E+02  0.38066281820E+02  0.00000000000E+00 0.  1.
</event>
<event>
 5    1  0.3125560E-003  0.9118800E+02  0.7818608E-02  0.1130116E+00
         25   -1    0    0    0    0  0.00000000000E+00  0.00000000000E+00  0.99999998245E-14  0.12500000000E+03  0.12500000000E+03 0.  0.
        -13    1    3    3    0    0 -0.23540940344E+01  0.29289793780E+02 -0.27008070692E+02  0.39910911101E+02  0.10566000000E+00 0.  1.
         23    2    1    0    0    0 -0.20640787972E+02 -0.19595333648E+02 -0.10724463610E+02  0.94585639106E+02  0.89562323421E+02 0.  0.
         13    1    3    3    0    0 -0.18286693937E+02 -0.48885127428E+02  0.16283607082E+02  0.54674728005E+02  0.10566000000E+00 0. -1.
         22    1    1    0    0    0  0.20640787972E+02  0.19595333648E+02  0.10724463610E+02  0.30414360894E+02  0.00000000000E+00 0.  1.
</event>
<event>
 5    1  0.3125560E-003  0.9118800E+02  0.7818608E-02  0.1130116E+00
         25   -1    0    0    0    0  0.00000000000E+00  0.00000000000E+00  0.99999998245E-14  0.12500000000E+03  0.12500000000E+03 0.  0.
        -13    1    3    3    0    0  0.12715979090E+02  0.32181720276E+02  0.38717776760E+02  0.51927224511E+02  0.10566000000E+00 0.  1.
         23    2    1    0    0    0  0.22895619432E+02 -0.47096529889E+01  0.18369385183E+02  0.95270813458E+02  0.90513553485E+02 0.  0.
         13    1    3    3    0    0  0.10179640343E+02 -0.36891373265E+02 -0.20348391578E+02  0.43343588946E+02  0.10566000000E+00 0. -1.
         22    1    1    0    0    0 -0.22895619432E+02  0.47096529889E+01 -0.18369385183E+02  0.29729186542E+02  0.00000000000E+00 0.  1.
</event>
<event>
 5    1  0.3125560E-003  0.9118800E+02  0.7818608E-02  0.1130116E+00
         25   -1    0    0    0    0  0.00000000000E+00  0.00000000000E+00  0.99999998245E-14  0.12500000000E+03  0.12500000000E+03 0.  0.
        -13    1    3    3    0    0 -0.92525305017E+01  0.25521782720E+02 -0.33468204624E+02  0.43094113272E+02  0.10566000000E+00 0.  1.
         23    2    1    0    0    0 -0.25447654716E+02 -0.12967035726E+02 -0.27636943210E+02  0.85256726656E+02  0.75426664145E+02 0.  0.
         13    1    3    3    0    0 -0.16195124215E+02 -0.38488818446E+02  0.58312614134E+01  0.42162613385E+02  0.10566000000E+00 0. -1.
         22    1    1    0    0    0  0.25447654716E+02  0.12967035726E+02  0.27636943210E+02  0.39743273344E+02  0.00000000000E+00 0. -1.
</event>
<event>
 5    1  0.3125560E-003  0.9118800E+02  0.7818608E-02  0.1130116E+00
         25   -1    0    0    0    0  0.00000000000E+00  0.00000000000E+00  0.99999998245E-14  0.12500000000E+03  0.12500000000E+03 0.  0.
        -13    1    3    3    0    0 -0.48570574931E+01 -0.19708975417E+02  0.30972922449E+02  0.37031983589E+02  0.10566000000E+00 0.  1.
         23    2    1    0    0    0 -0.27942382480E+02 -0.34523591426E+01 -0.16572884404E+02  0.92329584946E+02  0.86356217127E+02 0.  0.
         13    1    3    3    0    0 -0.23085324987E+02  0.16256616274E+02 -0.47545806853E+02  0.55297601357E+02  0.10566000000E+00 0. -1.
         22    1    1    0    0    0  0.27942382480E+02  0.34523591426E+01  0.16572884404E+02  0.32670415054E+02  0.00000000000E+00 0. -1.
</event>
<event>
 5    1  0.3125560E-003  0.9118800E+02  0.7818608E-02  0.1130116E+00
         25   -1    0    0    0    0  0.00000000000E+00  0.00000000000E+00  0.99999998245E-14  0.12500000000E+03  0.12500000000E+03 0.  0.
        -13    1    3    3    0    0  0.57311650250E+02  0.57378766810E+01 -0.20976100354E+02  0.61298910539E+02  0.10566000000E+00 0.  1.
         23    2    1    0    0    0  0.30323334814E+02  0.27698020961E+01 -0.20196463964E+02  0.88461341096E+02  0.80562617100E+02 0.  0.
         13    1    3    3    0    0 -0.26988315436E+02 -0.29680745849E+01  0.77963639048E+00  0.27162430557E+02  0.10566000000E+00 0. -1.
         22    1    1    0    0    0 -0.30323334814E+02 -0.27698020961E+01  0.20196463964E+02  0.36538658904E+02  0.00000000000E+00 0.  1.
</event>
<event>
 5    1  0.3125560E-003  0.9118800E+02  0.7818608E-02  0.1130116E+00
         25   -1    0    0    0    0  0.00000000000E+00  0.00000000000E+00  0.99999998245E-14  0.12500000000E+03  0.12500000000E+03 0.  0.
        -13    1    3    3    0    0  0.26386035134E+02 -0.25301875664E+02 -0.34678581981E+02  0.50388718722E+02  0.10566000000E+00 0. -1.
         23    2    1    0    0    0 -0.15309409246E+02 -0.13559352112E+02 -0.20689187962E+02  0.95909167429E+02  0.91390874037E+02 0.  0.
         13    1    3    3    0    0 -0.41695444380E+02  0.11742523552E+02  0.13989394019E+02  0.45520448707E+02  0.10566000000E+00 0.  1.
         22    1    1    0    0    0  0.15309409246E+02  0.13559352112E+02  0.20689187962E+02  0.29090832571E+02  0.00000000000E+00 0.  1.
</event>
<event>
 5    1  0.3125560E-003  0.9118800E+02  0.7818608E-02  0.1130116E+00
         25   -1    0    0    0    0  0.00000000000E+00  0.00000000000E+00  0.99999998245E-14  0.12500000000E+03  0.12500000000E+03 0.  0.
        -13    1    3    3    0    0  0.32009180303E+02 -0.38390268299E+02  0.12057183401E+02  0.51417770851E+02  0.10566000000E+00 0.  1.
         23    2    1    0    0    0 -0.90575713297E+00 -0.25967845974E+02 -0.14266876754E+02  0.95357240466E+02  0.90632831338E+02 0.  0.
         13    1    3    3    0    0 -0.32914937436E+02  0.12422422325E+02 -0.26324060156E+02  0.43939469614E+02  0.10566000000E+00 0. -1.
         22    1    1    0    0    0  0.90575713297E+00  0.25967845974E+02  0.14266876754E+02  0.29642759534E+02  0.00000000000E+00 0. -1.
</event>
<event>
 5    1  0.3125560E-003  0.9118800E+02  0.7818608E-02  0.1130116E+00
         25   -1    0    0    0    0  0.00000000000E+00  0.00000000000E+00  0.99999998245E-14  0.12500000000E+03  0.12500000000E+03 0.  0.
        -13    1    3    3    0    0 -0.58813291686E+02  0.34907895526E+01  0.17789399797E+01  0.58943741670E+02  0.10566000000E+00 0.  1.
         23    2    1    0    0    0 -0.25309746318E+02 -0.12286604473E+02  0.60515081254E+01  0.96222149859E+02  0.91817958291E+02 0.  0.
         13    1    3    3    0    0  0.33503545368E+02 -0.15777394026E+02  0.42725681457E+01  0.37278408188E+02  0.10566000000E+00 0. -1.
         22    1    1    0    0    0  0.25309746318E+02  0.12286604473E+02 -0.60515081254E+01  0.28777850141E+02  0.00000000000E+00 0.  1.
</event>
<event>
 5    1  0.3125560E-003  0.9118800E+02  0.7818608E-02  0.1130116E+00
         25   -1    0    0    0    0  0.00000000000E+00  0.00000000000E+00  0.99999998245E-14  0.12500000000E+03  0.12500000000E+03 0.  0.
        -13    1    3    3    0    0  0.30352237578E+02  0.37049073690E+01  0.16236553425E+02  0.34621113439E+02  0.10566000000E+00 0.  1.
         23    2    1    0    0    0 -0.22744220483E+02  0.15438472650E+02 -0.10942941086E+02  0.95412942648E+02  0.90709622764E+02 0.  0.
         13    1    3    3    0    0 -0.53096458060E+02  0.11733565281E+02 -0.27179494511E+02  0.60791829209E+02  0.10566000000E+00 0. -1.
         22    1    1    0    0    0  0.22744220483E+02 -0.15438472650E+02  0.10942941086E+02  0.29587057352E+02  0.00000000000E+00 0. -1.
</event>
<event>
 5    1  0.3125560E-003  0.9118800E+02  0.7818608E-02  0.1130116E+00
         25   -1    0    0    0    0  0.00000000000E+00  0.00000000000E+00  0.99999998245E-14  0.12500000000E+03  0.12500000000E+03 0.  0.
        -13    1    3    3    0    0  0.31802618264E+02  0.42824879518E+01 -0.10893112479E+02  0.33888306169E+02  0.10566000000E+00 0.  1.
         23    2    1    0    0    0 -0.20817315060E+02 -0.91694166924E+01  0.18532015603E+02  0.95659338605E+02  0.91048529100E+02 0.  0.
         13    1    3    3    0    0 -0.52619933324E+02 -0.13451904644E+02  0.29425128082E+02  0.61771032436E+02  0.10566000000E+00 0. -1.
         22    1    1    0    0    0  0.20817315060E+02  0.91694166924E+01 -0.18532015603E+02  0.29340661395E+02  0.00000000000E+00 0. -1.
</event>
<event>
 5    1  0.3125560E-003  0.9118800E+02  0.7818608E-02  0.1130116E+00
         25   -1    0    0    0    0  0.00000000000E+00  0.00000000000E+00  0.99999998245E-14  0.12500000000E+03  0.12500000000E+03 0.  0.
        -13    1    3    3    0    0  0.45847699260E+01 -0.35210808582E+02 -0.38839589991E+02  0.52624576683E+02  0.10566000000E+00 0.  1.
         23    2    1    0    0    0 -0.19597096721E+02 -0.37309096835E+01 -0.20644743370E+02  0.96291615932E+02  0.91912480018E+02 0.  0.
         13    1    3    3    0    0 -0.24181866647E+02  0.31479898899E+02  0.18194846621E+02  0.43667039250E+02  0.10566000000E+00 0. -1.
         22    1    1    0    0    0  0.19597096721E+02  0.37309096835E+01  0.20644743370E+02  0.28708384068E+02  0.00000000000E+00 0.  1.
</event>
<event>
 5    1  0.3125560E-003  0.9118800E+02  0.7818608E-02  0.1130116E+00
         25   -1    0    0    0    0  0.00000000000E+00  0.00000000000E+00  0.99999998245E-14  0.12500000000E+03  0.12500000000E+03 0.  0.
        -13    1    3    3    0    0  0.34958375291E+02  0.60201161859E+01  0.80250962514E+01  0.36369535820E+02  0.10566000000E+00 0.  1.
         23    2    1    0    0    0 -0.13180008070E+02  0.37545532449E+01 -0.26168828717E+02  0.95459910643E+02  0.90774322695E+02 0.  0.
         13    1    3    3    0    0 -0.48138383360E+02 -0.22655629410E+01 -0.34193924969E+02  0.59090374823E+02  0.10566000000E+00 0. -1.
         22    1    1    0    0    0  0.13180008070E+02 -0.37545532449E+01  0.26168828717E+02  0.29540089357E+02  0.00000000000E+00 0. -1.
</event>
<event>
 5    1  0.3125560E-003  0.9118800E+02  0.7818608E-02  0.1130116E+00
         25   -1    0    0    0    0  0.00000000000E+00  0.00000000000E+00  0.99999998245E-14  0.12500000000E+03  0.12500000000E+03 0.  0.
        -13    1    3    3    0    0 -0.27077049233E+02  0.16589306459E+02  0.30400359012E+02  0.43960944895E+02  0.10566000000E+00 0.  1.
         23    2    1    0    0    0  0.21823308101E+02  0.14438135988E+02  0.11080119143E+02  0.96583709118E+02  0.92308868910E+02 0.  0.
         13    1    3    3    0    0  0.48900357334E+02 -0.21511704703E+01 -0.19320239869E+02  0.52622764223E+02  0.10566000000E+00 0. -1.
         22    1    1    0    0    0 -0.21823308101E+02 -0.14438135988E+02 -0.11080119143E+02  0.28416290882E+02  0.00000000000E+00 0. -1.
</event>
<event>
 5    1  0.3125560E-003  0.9118800E+02  0.7818608E-02  0.1130116E+00
         25   -1    0    0    0    0  0.00000000000E+00  0.00000000000E+00  0.99999998245E-14  0.12500000000E+03  0.12500000000E+03 0.  0.
        -13    1    3    3    0    0 -0.15953158868E+02  0.25841498424E+02 -0.50362104791E+02  0.58810195389E+02  0.10566000000E+00 0.  1.
         23    2    1    0    0    0 -0.46065359018E+01 -0.18118598107E+01 -0.29075757043E+02  0.95505887764E+02  0.90837613030E+02 0.  0.
         13    1    3    3    0    0  0.11346622966E+02 -0.27653358234E+02  0.21286347749E+02  0.36695692375E+02  0.10566000000E+00 0. -1.
         22    1    1    0    0    0  0.46065359018E+01  0.18118598107E+01  0.29075757043E+02  0.29494112236E+02  0.00000000000E+00 0.  1.
</event>
<event>
 5    1  0.3125560E-003  0.9118800E+02  0.7818608E-02  0.1130116E+00
         25   -1    0    0    0    0  0.00000000000E+00  0.00000000000E+00  0.99999998245E-14  0.12500000000E+03  0.12500000000E+03 0.  0.
        -13    1    3    3    0    0 -0.68995716862E+01  0.23713239958E+02 -0.34365215780E+02  0.42319038959E+02  0.10566000000E+00 0.  1.
         23    2    1    0    0    0  0.32313175762E+01 -0.24905546792E+02 -0.15745738857E+02  0.95357868389E+02  0.90633697360E+02 0.  0.
         13    1    3    3    0    0  0.10130889262E+02 -0.48618786750E+02  0.18619476923E+02  0.53038829430E+02  0.10566000000E+00 0. -1.
         22    1    1    0    0    0 -0.32313175762E+01  0.24905546792E+02  0.15745738857E+02  0.29642131611E+02  0.00000000000E+00 0.  1.
</event>
<event>
 5    1  0.3125560E-003  0.9118800E+02  0.7818608E-02  0.1130116E+00
         25   -1    0    0    0    0  0.00000000000E+00  0.00000000000E+00  0.99999998245E-14  0.12500000000E+03  0.12500000000E+03 0.  0.
        -13    1    3    3    0    0 -0.55701146352E+02 -0.16961336918E+02 -0.14608076587E+02  0.60030923036E+02  0.10566000000E+00 0.  1.
         23    2    1    0    0    0 -0.36749386556E+02  0.15815944068E+01 -0.79937025290E+01  0.87358026974E+02  0.78832142833E+02 0.  0.
         13    1    3    3    0    0  0.18951759795E+02  0.18542931325E+02  0.66143740581E+01  0.27327103939E+02  0.10566000000E+00 0. -1.
         22    1    1    0    0    0  0.36749386556E+02 -0.15815944068E+01  0.79937025290E+01  0.37641973026E+02  0.00000000000E+00 0.  1.
</event>
<event>
 5    1  0.3125560E-003  0.9118800E+02  0.7818608E-02  0.1130116E+00
         25   -1    0    0    0    0  0.00000000000E+00  0.00000000000E+00  0.99999998245E-14  0.12500000000E+03  0.12500000000E+03 0.  0.
        -13    1    3    3    0    0 -0.45791628941E+02 -0.99076534672E+01 -0.24796405570E+02  0.53008563191E+02  0.10566000000E+00 0.  1.
         23    2    1    0    0    0 -0.21106336350E+02 -0.16899527604E+02  0.99396864648E+01  0.96192555921E+02  0.91777660574E+02 0.  0.
         13    1    3    3    0    0  0.24685292592E+02 -0.69918741364E+01  0.34736092035E+02  0.43183992731E+02  0.10566000000E+00 0. -1.
         22    1    1    0    0    0  0.21106336350E+02  0.16899527604E+02 -0.99396864648E+01  0.28807444079E+02  0.00000000000E+00 0.  1.
</event>
<event>
 5    1  0.3125560E-003  0.9118800E+02  0.7818608E-02  0.1130116E+00
         25   -1    0    0    0    0  0.00000000000E+00  0.00000000000E+00  0.99999998245E-14  0.12500000000E+03  0.12500000000E+03 0.  0.
        -13    1    3    3    0    0 -0.20224398935E+02  0.28005604750E+02 -0.15478680879E+02  0.37854206312E+02  0.10566000000E+00 0.  1.
         23    2    1    0    0    0  0.36531574356E+01 -0.25176359846E+02 -0.13536138629E+02  0.96182961579E+02  0.91764592272E+02 0.  0.
         13    1    3    3    0    0  0.23877556371E+02 -0.53181964597E+02  0.19425422496E+01  0.58328755267E+02  0.10566000000E+00 0. -1.
         22    1    1    0    0    0 -0.36531574356E+01  0.25176359846E+02  0.13536138629E+02  0.28817038421E+02  0.00000000000E+00 0. -1.
</event>
<event>
 5    1  0.3125560E-003  0.9118800E+02  0.7818608E-02  0.1130116E+00
         25   -1    0    0    0    0  0.00000000000E+00  0.00000000000E+00  0.99999998245E-14  0.12500000000E+03  0.12500000000E+03 0.  0.
        -13    1    3    3    0    0  0.31123480760E+02  0.30328200071E+01 -0.16893765023E+02  0.35542643578E+02  0.10566000000E+00 0. -1.
         23    2    1    0    0    0 -0.12097052913E+02 -0.15676940293E+02  0.21107179882E+02  0.96058365826E+02  0.91594713037E+02 0.  0.
         13    1    3    3    0    0 -0.43220533673E+02 -0.18709760301E+02  0.38000944904E+02  0.60515722248E+02  0.10566000000E+00 0.  1.
         22    1    1    0    0    0  0.12097052913E+02  0.15676940293E+02 -0.21107179882E+02  0.28941634174E+02  0.00000000000E+00 0.  1.
</event>
<event>
 5    1  0.3125560E-003  0.9118800E+02  0.7818608E-02  0.1130116E+00
         25   -1    0    0    0    0  0.00000000000E+00  0.00000000000E+00  0.99999998245E-14  0.12500000000E+03  0.12500000000E+03 0.  0.
        -13    1    3    3    0    0  0.48471359566E+02 -0.11048830816E+02  0.23739912930E+02  0.55092140915E+02  0.10566000000E+00 0.  1.
         23    2    1    0    0    0  0.11168029166E+02  0.63510272602E+01  0.25664833112E+02  0.96299057831E+02  0.91922600364E+02 0.  0.
         13    1    3    3    0    0 -0.37303330400E+02  0.17399858076E+02  0.19249201820E+01  0.41206916916E+02  0.10566000000E+00 0. -1.
         22    1    1    0    0    0 -0.11168029166E+02 -0.63510272602E+01 -0.25664833112E+02  0.28700942169E+02  0.00000000000E+00 0.  1.
</event>
<event>
 5    1  0.3125560E-003  0.9118800E+02  0.7818608E-02  0.1130116E+00
         25   -1    0    0    0    0  0.00000000000E+00  0.00000000000E+00  0.99999998245E-14  0.12500000000E+03  0.12500000000E+03 0.  0.
        -13    1    3    3    0    0  0.23614366580E+02  0.29375882039E+02 -0.23797245674E+02  0.44574665677E+02  0.10566000000E+00 0.  1.
         23    2    1    0    0    0  0.10601155760E+02 -0.19933636268E+02 -0.18432546640E+02  0.95853934503E+02  0.91315297874E+02 0.  0.
         13    1    3    3    0    0 -0.13013210820E+02 -0.49309518307E+02  0.53646990339E+01  0.51279268826E+02  0.10566000000E+00 0. -1.
         22    1    1    0    0    0 -0.10601155760E+02  0.19933636268E+02  0.18432546640E+02  0.29146065497E+02  0.00000000000E+00 0. -1.
</event>
<event>
 5    1  0.3125560E-003  0.9118800E+02  0.7818608E-02  0.1130116E+00
         25   -1    0    0    0    0  0.00000000000E+00  0.00000000000E+00  0.99999998245E-14  0.12500000000E+03  0.12500000000E+03 0.  0.
        -13    1    3    3    0    0 -0.18431549718E+02  0.16502203238E+02 -0.48417712574E+02  0.54372150883E+02  0.10566000000E+00 0. -1.
         23    2    1    0    0    0 -0.11919155979E+02 -0.14875596925E+02 -0.21888635680E+02  0.95974803445E+02  0.91480603743E+02 0.  0.
         13    1    3    3    0    0  0.65123937389E+01 -0.31377800163E+02  0.26529076894E+02  0.41602652562E+02  0.10566000000E+00 0.  1.
         22    1    1    0    0    0  0.11919155979E+02  0.14875596925E+02  0.21888635680E+02  0.29025196555E+02  0.00000000000E+00 0. -1.
</event>
<event>
 5    1  0.3125560E-003  0.9118800E+02  0.7818608E-02  0.1130116E+00
         25   -1    0    0    0    0  0.00000000000E+00  0.00000000000E+00  0.99999998245E-14  0.12500000000E+03  0.12500000000E+03 0.  0.
        -13    1    3    3    0    0 -0.41089609725E+02  0.21551015590E+02 -0.39939680778E+02  0.61220842570E+02  0.10566000000E+00 0. -1.
         23    2    1    0    0    0 -0.21862333933E+02  0.11277652866E+02 -0.95710263015E+01  0.98603946439E+02  0.95005192540E+02 0.  0.
         13    1    3    3    0    0  0.19227275793E+02 -0.10273362724E+02  0.30368654476E+02  0.37383103868E+02  0.10566000000E+00 0.  1.
         22    1    1    0    0    0  0.21862333933E+02 -0.11277652866E+02  0.95710263015E+01  0.26396053561E+02  0.00000000000E+00 0. -1.
</event>
<event>
 5    1  0.3125560E-003  0.9118800E+02  0.7818608E-02  0.1130116E+00
         25   -1    0    0    0    0  0.00000000000E+00  0.00000000000E+00  0.99999998245E-14  0.12500000000E+03  0.12500000000E+03 0.  0.
        -13    1    3    3    0    0 -0.18432807151E+02 -0.41457419671E+02 -0.32925582437E+02  0.56058818825E+02  0.10566000000E+00 0. -1.
         23    2    1    0    0    0 -0.91037782813E+01 -0.27573557070E+02  0.31187677962E+01  0.95795436297E+02  0.91235185506E+02 0.  0.
         13    1    3    3    0    0  0.93290288700E+01  0.13883862601E+02  0.36044350233E+02  0.39736617472E+02  0.10566000000E+00 0.  1.
         22    1    1    0    0    0  0.91037782813E+01  0.27573557070E+02 -0.31187677962E+01  0.29204563703E+02  0.00000000000E+00 0. -1.
</event>
<event>
 5    1  0.3125560E-003  0.9118800E+02  0.7818608E-02  0.1130116E+00
         25   -1    0    0    0    0  0.00000000000E+00  0.00000000000E+00  0.99999998245E-14  0.12500000000E+03  0.12500000000E+03 0.  0.
        -13    1    3    3    0    0 -0.46627960953E+02 -0.11112343492E+02  0.16895678505E+02  0.50824462975E+02  0.10566000000E+00 0.  1.
         23    2    1    0    0    0 -0.92814520088E+01  0.13135291686E+02  0.24195431561E+02  0.95946598349E+02  0.91442055901E+02 0.  0.
         13    1    3    3    0    0  0.37346508944E+02  0.24247635178E+02  0.72997530555E+01  0.45122135374E+02  0.10566000000E+00 0. -1.
         22    1    1    0    0    0  0.92814520088E+01 -0.13135291686E+02 -0.24195431561E+02  0.29053401651E+02  0.00000000000E+00 0.  1.
</event>
<event>
 5    1  0.3125560E-003  0.9118800E+02  0.7818608E-02  0.1130116E+00
         25   -1    0    0    0    0  0.00000000000E+00  0.00000000000E+00  0.99999998245E-14  0.12500000000E+03  0.12500000000E+03 0.  0.
        -13    1    3    3    0    0 -0.14555265807E+00  0.32498317183E+02  0.27210909988E+02  0.42386396304E+02  0.10566000000E+00 0.  1.
         23    2    1    0    0    0 -0.21660956043E+02  0.12872815823E+02 -0.16478963059E+02  0.94892482211E+02  0.89989558021E+02 0.  0.
         13    1    3    3    0    0 -0.21515403385E+02 -0.19625501360E+02 -0.43689873046E+02  0.52506085907E+02  0.10566000000E+00 0. -1.
         22    1    1    0    0    0  0.21660956043E+02 -0.12872815823E+02  0.16478963059E+02  0.30107517789E+02  0.00000000000E+00 0.  1.
</event>
<event>
 5    1  0.3125560E-003  0.9118800E+02  0.7818608E-02  0.1130116E+00
         25   -1    0    0    0    0  0.00000000000E+00  0.00000000000E+00  0.99999998245E-14  0.12500000000E+03  0.12500000000E+03 0.  0.
        -13    1    3    3    0    0  0.40497050646E+02  0.35722227203E+02  0.55245196762E+01  0.54282779121E+02  0.10566000000E+00 0. -1.
         23    2    1    0    0    0 -0.22586641774E+01  0.19246405404E+02  0.14275007325E+02  0.10093131663E+03  0.98019534576E+02 0.  0.
         13    1    3    3    0    0 -0.42755714824E+02 -0.16475821798E+02  0.87504876484E+01  0.46648537513E+02  0.10566000000E+00 0.  1.
         22    1    1    0    0    0  0.22586641774E+01 -0.19246405404E+02 -0.14275007325E+02  0.24068683366E+02  0.00000000000E+00 0. -1.
</event>
<event>
 5    1  0.3125560E-003  0.9118800E+02  0.7818608E-02  0.1130116E+00
         25   -1    0    0    0    0  0.00000000000E+00  0.00000000000E+00  0.99999998245E-14  0.12500000000E+03  0.12500000000E+03 0.  0.
        -13    1    3    3    0    0  0.29029590028E+02  0.40672340925E+01 -0.51097232412E+02  0.58908384926E+02  0.10566000000E+00 0. -1.
         23    2    1    0    0    0  0.24027638106E+02 -0.74176868545E+01 -0.18643015188E+02  0.93696462076E+02  0.88312601134E+02 0.  0.
         13    1    3    3    0    0 -0.50019519211E+01 -0.11484920947E+02  0.32454217224E+02  0.34788077151E+02  0.10566000000E+00 0.  1.
         22    1    1    0    0    0 -0.24027638106E+02  0.74176868545E+01  0.18643015188E+02  0.31303537924E+02  0.00000000000E+00 0. -1.
</event>
<event>
 5    1  0.3125560E-003  0.9118800E+02  0.7818608E-02  0.1130116E+00
         25   -1    0    0    0    0  0.00000000000E+00  0.00000000000E+00  0.99999998245E-14  0.12500000000E+03  0.12500000000E+03 0.  0.
        -13    1    3    3    0    0 -0.87325341071E+00 -0.55773928180E+02  0.15413042900E+02  0.57871121396E+02  0.10566000000E+00 0.  1.
         23    2    1    0    0    0  0.10192979584E+02 -0.26262080086E+02 -0.62853528654E+01  0.96136539641E+02  0.91701335379E+02 0.  0.
         13    1    3    3    0    0  0.11066232995E+02  0.29511848094E+02 -0.21698395765E+02  0.38265418245E+02  0.10566000000E+00 0. -1.
         22    1    1    0    0    0 -0.10192979584E+02  0.26262080086E+02  0.62853528654E+01  0.28863460359E+02  0.00000000000E+00 0.  1.
</event>
<event>
 5    1  0.3125560E-003  0.9118800E+02  0.7818608E-02  0.1130116E+00
         25   -1    0    0    0    0  0.00000000000E+00  0.00000000000E+00  0.99999998245E-14  0.12500000000E+03  0.12500000000E+03 0.  0.
        -13    1    3    3    0    0 -0.48332135116E+02  0.19836412549E+02  0.45596329874E+01  0.52443111699E+02  0.10566000000E+00 0.  1.
         23    2    1    0    0    0 -0.14928648502E+02 -0.19815657092E+01  0.23876403142E+02  0.96771047208E+02  0.92562205041E+02 0.  0.
         13    1    3    3    0    0  0.33403486614E+02 -0.21817978258E+02  0.19316770154E+02  0.44327935509E+02  0.10566000000E+00 0. -1.
         22    1    1    0    0    0  0.14928648502E+02  0.19815657092E+01 -0.23876403142E+02  0.28228952792E+02  0.00000000000E+00 0.  1.
</event>
<event>
 5    1  0.3125560E-003  0.9118800E+02  0.7818608E-02  0.1130116E+00
         25   -1    0    0    0    0  0.00000000000E+00  0.00000000000E+00  0.99999998245E-14  0.12500000000E+03  0.12500000000E+03 0.  0.
        -13    1    3    3    0    0  0.52124587541E+02  0.13404543328E+02 -0.13580671624E+02  0.55507659057E+02  0.10566000000E+00 0. -1.
         23    2    1    0    0    0  0.19956851053E+02  0.49547899641E+01 -0.26733438468E+02  0.91273117846E+02  0.84813203344E+02 0.  0.
         13    1    3    3    0    0 -0.32167736488E+02 -0.84497533638E+01 -0.13152766843E+02  0.35765458788E+02  0.10566000000E+00 0.  1.
         22    1    1    0    0    0 -0.19956851053E+02 -0.49547899641E+01  0.26733438468E+02  0.33726882154E+02  0.00000000000E+00 0. -1.
</event>
<event>
 5    1  0.3125560E-003  0.9118800E+02  0.7818608E-02  0.1130116E+00
         25   -1    0    0    0    0  0.00000000000E+00  0.00000000000E+00  0.99999998245E-14  0.12500000000E+03  0.12500000000E+03 0.  0.
        -13    1    3    3    0    0 -0.93789239096E+01 -0.12183536400E+02 -0.28520502711E+02  0.32401126707E+02  0.10566000000E+00 0.  1.
         23    2    1    0    0    0  0.10659868151E+02  0.95427116095E+01  0.26515072688E+02  0.94871189644E+02  0.89959976717E+02 0.  0.
         13    1    3    3    0    0  0.20038792061E+02  0.21726248010E+02  0.55035575399E+02  0.62470062937E+02  0.10566000000E+00 0. -1.
         22    1    1    0    0    0 -0.10659868151E+02 -0.95427116095E+01 -0.26515072688E+02  0.30128810356E+02  0.00000000000E+00 0. -1.
</event>
<event>
 5    1  0.3125560E-003  0.9118800E+02  0.7818608E-02  0.1130116E+00
         25   -1    0    0    0    0  0.00000000000E+00  0.00000000000E+00  0.99999998245E-14  0.12500000000E+03  0.12500000000E+03 0.  0.
        -13    1    3    3    0    0  0.41193701501E+02  0.21477066104E+01 -0.96938921326E+00  0.41261175051E+02  0.10566000000E+00 0.  1.
         23    2    1    0    0    0 -0.46137720962E+01 -0.17992642217E+02  0.21903763435E+02  0.96280722162E+02  0.91897663412E+02 0.  0.
         13    1    3    3    0    0 -0.45807473598E+02 -0.20140348828E+02  0.22873152648E+02  0.55019547112E+02  0.10566000000E+00 0. -1.
         22    1    1    0    0    0  0.46137720962E+01  0.17992642217E+02 -0.21903763435E+02  0.28719277838E+02  0.00000000000E+00 0.  1.
</event>
<event>
 5    1  0.3125560E-003  0.9118800E+02  0.7818608E-02  0.1130116E+00
         25   -1    0    0    0    0  0.00000000000E+00  0.00000000000E+00  0.99999998245E-14  0.12500000000E+03  0.12500000000E+03 0.  0.
        -13    1    3    3    0    0 -0.23319560066E+02 -0.11958821780E+02 -0.24562807035E+02  0.35918768819E+02  0.10566000000E+00 0.  1.
         23    2    1    0    0    0 -0.13456416811E+02  0.29861462079E+01  0.29267438739E+02  0.92649185591E+02  0.86817604193E+02 0.  0.
         13    1    3    3    0    0  0.98631432546E+01  0.14944967988E+02  0.53830245774E+02  0.56730416772E+02  0.10566000000E+00 0. -1.
         22    1    1    0    0    0  0.13456416811E+02 -0.29861462079E+01 -0.29267438739E+02  0.32350814409E+02  0.00000000000E+00 0. -1.
</event>
<event>
 5    1  0.3125560E-003  0.9118800E+02  0.7818608E-02  0.1130116E+00
         25   -1    0    0    0    0  0.00000000000E+00  0.00000000000E+00  0.99999998245E-14  0.12500000000E+03  0.12500000000E+03 0.  0.
        -13    1    3    3    0    0  0.23979326436E+02 -0.10520070964E+02  0.24119272418E+02  0.35600989529E+02  0.10566000000E+00 0. -1.
         23    2    1    0    0    0 -0.16877363312E+02  0.13591745546E+02 -0.16266660819E+02  0.97904148038E+02  0.94079950092E+02 0.  0.
         13    1    3    3    0    0 -0.40856689748E+02  0.24111816511E+02 -0.40385933238E+02  0.62303158508E+02  0.10566000000E+00 0.  1.
         22    1    1    0    0    0  0.16877363312E+02 -0.13591745546E+02  0.16266660819E+02  0.27095851962E+02  0.00000000000E+00 0.  1.
</event>
<event>
 5    1  0.3125560E-003  0.9118800E+02  0.7818608E-02  0.1130116E+00
         25   -1    0    0    0    0  0.00000000000E+00  0.00000000000E+00  0.99999998245E-14  0.12500000000E+03  0.12500000000E+03 0.  0.
        -13    1    3    3    0    0 -0.16091298179E+02 -0.22722255897E+02 -0.27418572113E+02  0.39077103921E+02  0.10566000000E+00 0.  1.
         23    2    1    0    0    0 -0.20245446629E+02  0.22810302936E+02  0.35432148920E+01  0.94295889509E+02  0.89157009693E+02 0.  0.
         13    1    3    3    0    0 -0.41541484505E+01  0.45532558833E+02  0.30961787005E+02  0.55218785588E+02  0.10566000000E+00 0. -1.
         22    1    1    0    0    0  0.20245446629E+02 -0.22810302936E+02 -0.35432148920E+01  0.30704110491E+02  0.00000000000E+00 0.  1.
</event>
<event>
 5    1  0.3125560E-003  0.9118800E+02  0.7818608E-02  0.1130116E+00
         25   -1    0    0    0    0  0.00000000000E+00  0.00000000000E+00  0.99999998245E-14  0.12500000000E+03  0.12500000000E+03 0.  0.
        -13    1    3    3    0    0  0.22285905785E+02 -0.28310521967E+02 -0.30400511898E+02  0.47141802452E+02  0.10566000000E+00 0. -1.
         23    2    1    0    0    0  0.40959603586E+01 -0.20806163223E+02  0.16583519575E+02  0.98079999242E+02  0.94313306646E+02 0.  0.
         13    1    3    3    0    0 -0.18189945426E+02  0.75043587441E+01  0.46984031473E+02  0.50938196790E+02  0.10566000000E+00 0.  1.
         22    1    1    0    0    0 -0.40959603586E+01  0.20806163223E+02 -0.16583519575E+02  0.26920000758E+02  0.00000000000E+00 0. -1.
</event>
<event>
 5    1  0.3125560E-003  0.9118800E+02  0.7818608E-02  0.1130116E+00
         25   -1    0    0    0    0  0.00000000000E+00  0.00000000000E+00  0.99999998245E-14  0.12500000000E+03  0.12500000000E+03 0.  0.
        -13    1    3    3    0    0  0.24565081165E+02  0.29514621399E+02 -0.26959177800E+02  0.46918701182E+02  0.10566000000E+00 0. -1.
         23    2    1    0    0    0  0.28719211646E+02 -0.63228905467E+01  0.50659774002E+01  0.95159822564E+02  0.90360144095E+02 0.  0.
         13    1    3    3    0    0  0.41541304809E+01 -0.35837511946E+02  0.32025155200E+02  0.48241121381E+02  0.10566000000E+00 0.  1.
         22    1    1    0    0    0 -0.28719211646E+02  0.63228905467E+01 -0.50659774002E+01  0.29840177436E+02  0.00000000000E+00 0.  1.
</event>
<event>
 5    1  0.3125560E-003  0.9118800E+02  0.7818608E-02  0.1130116E+00
         25   -1    0    0    0    0  0.00000000000E+00  0.00000000000E+00  0.99999998245E-14  0.12500000000E+03  0.12500000000E+03 0.  0.
        -13    1    3    3    0    0  0.32498971014E+01 -0.38753806002E+02  0.36118467906E+02  0.53075174975E+02  0.10566000000E+00 0.  1.
         23    2    1    0    0    0 -0.86579517938E+01  0.12378791355E+01  0.28106201318E+02  0.95564459805E+02  0.90918177232E+02 0.  0.
         13    1    3    3    0    0 -0.11907848895E+02  0.39991685137E+02 -0.80122665870E+01  0.42489284830E+02  0.10566000000E+00 0. -1.
         22    1    1    0    0    0  0.86579517938E+01 -0.12378791355E+01 -0.28106201318E+02  0.29435540195E+02  0.00000000000E+00 0.  1.
</event>
<event>
 5    1  0.3125560E-003  0.9118800E+02  0.7818608E-02  0.1130116E+00
         25   -1    0    0    0    0  0.00000000000E+00  0.00000000000E+00  0.99999998245E-14  0.12500000000E+03  0.12500000000E+03 0.  0.
        -13    1    3    3    0    0 -0.22882282244E+02  0.46541870273E+02  0.44760198455E+01  0.52055647599E+02  0.10566000000E+00 0. -1.
         23    2    1    0    0    0  0.13434462615E+02  0.29739916546E+02 -0.37813727690E+00  0.92364277092E+02  0.86406419166E+02 0.  0.
         13    1    3    3    0    0  0.36316744860E+02 -0.16801953727E+02 -0.48541571224E+01  0.40308629494E+02  0.10566000000E+00 0.  1.
         22    1    1    0    0    0 -0.13434462615E+02 -0.29739916546E+02  0.37813727690E+00  0.32635722908E+02  0.00000000000E+00 0.  1.
</event>
<event>
 5    1  0.3125560E-003  0.9118800E+02  0.7818608E-02  0.1130116E+00
         25   -1    0    0    0    0  0.00000000000E+00  0.00000000000E+00  0.99999998245E-14  0.12500000000E+03  0.12500000000E+03 0.  0.
        -13    1    3    3    0    0  0.13521448587E+02  0.52151575813E+02  0.23645349890E+02  0.58836469703E+02  0.10566000000E+00 0.  1.
         23    2    1    0    0    0  0.11549595509E+02  0.14872170897E+02  0.21771390428E+02  0.96215141745E+02  0.91808417023E+02 0.  0.
         13    1    3    3    0    0 -0.19718530783E+01 -0.37279404916E+02 -0.18739594624E+01  0.37378672041E+02  0.10566000000E+00 0. -1.
         22    1    1    0    0    0 -0.11549595509E+02 -0.14872170897E+02 -0.21771390428E+02  0.28784858255E+02  0.00000000000E+00 0.  1.
</event>
<event>
 5    1  0.3125560E-003  0.9118800E+02  0.7818608E-02  0.1130116E+00
         25   -1    0    0    0    0  0.00000000000E+00  0.00000000000E+00  0.99999998245E-14  0.12500000000E+03  0.12500000000E+03 0.  0.
        -13    1    3    3    0    0  0.26667927764E+02  0.14996938195E+02  0.46482999277E+02  0.55648602069E+02  0.10566000000E+00 0. -1.
         23    2    1    0    0    0  0.13582501200E+02  0.24475245003E+02  0.10480293379E+02  0.95110896532E+02  0.90292436743E+02 0.  0.
         13    1    3    3    0    0 -0.13085426564E+02  0.94783068080E+01 -0.36002705897E+02  0.39462294463E+02  0.10566000000E+00 0.  1.
         22    1    1    0    0    0 -0.13582501200E+02 -0.24475245003E+02 -0.10480293379E+02  0.29889103468E+02  0.00000000000E+00 0. -1.
</event>
<event>
 5    1  0.3125560E-003  0.9118800E+02  0.7818608E-02  0.1130116E+00
         25   -1    0    0    0    0  0.00000000000E+00  0.00000000000E+00  0.99999998245E-14  0.12500000000E+03  0.12500000000E+03 0.  0.
        -13    1    3    3    0    0 -0.58413088261E+01  0.19359336358E+02 -0.41074803885E+02  0.45782698384E+02  0.10566000000E+00 0. -1.
         23    2    1    0    0    0 -0.18421917379E+02  0.18985236779E+02  0.87218568752E+01  0.97145430486E+02  0.93066415110E+02 0.  0.
         13    1    3    3    0    0 -0.12580608553E+02 -0.37409957901E+00  0.49796660761E+02  0.51362732102E+02  0.10566000000E+00 0.  1.
         22    1    1    0    0    0  0.18421917379E+02 -0.18985236779E+02 -0.87218568752E+01  0.27854569514E+02  0.00000000000E+00 0.  1.
</event>
<event>
 5    1  0.3125560E-003  0.9118800E+02  0.7818608E-02  0.1130116E+00
         25   -1    0    0    0    0  0.00000000000E+00  0.00000000000E+00  0.99999998245E-14  0.12500000000E+03  0.12500000000E+03 0.  0.
        -13    1    3    3    0    0 -0.86507484903E+01  0.43140951411E+02 -0.13361567944E+02  0.45983908056E+02  0.10566000000E+00 0. -1.
         23    2    1    0    0    0  0.11095999767E+02  0.77695868845E+00 -0.27925593961E+02  0.94940664117E+02  0.90056460230E+02 0.  0.
         13    1    3    3    0    0  0.19746748258E+02 -0.42363992723E+02 -0.14564026017E+02  0.48956756061E+02  0.10566000000E+00 0.  1.
         22    1    1    0    0    0 -0.11095999767E+02 -0.77695868845E+00  0.27925593961E+02  0.30059335883E+02  0.00000000000E+00 0.  1.
</event>
<event>
 5    1  0.3125560E-003  0.9118800E+02  0.7818608E-02  0.1130116E+00
         25   -1    0    0    0    0  0.00000000000E+00  0.00000000000E+00  0.99999998245E-14  0.12500000000E+03  0.12500000000E+03 0.  0.
        -13    1    3    3    0    0 -0.19719558488E+02 -0.16928353835E+02 -0.40469099591E+02  0.48095626998E+02  0.10566000000E+00 0.  1.
         23    2    1    0    0    0 -0.31086711594E+02  0.46119265179E+01 -0.21505792132E+01  0.93499547703E+02  0.88033442087E+02 0.  0.
         13    1    3    3    0    0 -0.11367153107E+02  0.21540280353E+02  0.38318520378E+02  0.45403920705E+02  0.10566000000E+00 0. -1.
         22    1    1    0    0    0  0.31086711594E+02 -0.46119265179E+01  0.21505792132E+01  0.31500452297E+02  0.00000000000E+00 0.  1.
</event>
<event>
 4    1  0.3125560E-003  0.9118800E+02  0.7818608E-02  0.1130116E+00
         25   -1    0    0    0    0  0.00000000000E+00  0.00000000000E+00  0.99999998245E-14  0.12500000000E+03  0.12500000000E+03 0.  0.
        -13    1    1    0    0    0  0.25245754156E+02  0.33525079517E+02  0.25310138963E+02  0.49009115049E+02  0.10566000000E+00 0.  1.
         13    1    1    0    0    0 -0.12325882163E+02  0.15854406769E+02 -0.11379342007E+02  0.23082248019E+02  0.10566000000E+00 0. -1.
         22    1    1    0    0    0 -0.12919871993E+02 -0.49379486286E+02 -0.13930796956E+02  0.52908636932E+02  0.00000000000E+00 0.  1.
</event>
<event>
 5    1  0.3125560E-003  0.9118800E+02  0.7818608E-02  0.1130116E+00
         25   -1    0    0    0    0  0.00000000000E+00  0.00000000000E+00  0.99999998245E-14  0.12500000000E+03  0.12500000000E+03 0.  0.
        -13    1    3    3    0    0 -0.83329101638E+01 -0.33828963579E+02 -0.20463346195E+02  0.40405394073E+02  0.10566000000E+00 0. -1.
         23    2    1    0    0    0 -0.24264614401E+01 -0.26173090926E+01  0.27135651798E+02  0.97630644499E+02  0.93715853113E+02 0.  0.
         13    1    3    3    0    0  0.59064487237E+01  0.31211654487E+02  0.47598997993E+02  0.57225250426E+02  0.10566000000E+00 0.  1.
         22    1    1    0    0    0  0.24264614401E+01  0.26173090926E+01 -0.27135651798E+02  0.27369355501E+02  0.00000000000E+00 0.  1.
</event>
<event>
 5    1  0.3125560E-003  0.9118800E+02  0.7818608E-02  0.1130116E+00
         25   -1    0    0    0    0  0.00000000000E+00  0.00000000000E+00  0.99999998245E-14  0.12500000000E+03  0.12500000000E+03 0.  0.
        -13    1    3    3    0    0  0.14988592661E+02  0.41839186578E+02  0.30998758808E+01  0.44551047552E+02  0.10566000000E+00 0. -1.
         23    2    1    0    0    0 -0.19150109494E+02  0.11023658956E+02 -0.19259655687E+02  0.95688192011E+02  0.91088133161E+02 0.  0.
         13    1    3    3    0    0 -0.34138702155E+02 -0.30815527622E+02 -0.22359531568E+02  0.51137144459E+02  0.10566000000E+00 0.  1.
         22    1    1    0    0    0  0.19150109494E+02 -0.11023658956E+02  0.19259655687E+02  0.29311807989E+02  0.00000000000E+00 0.  1.
</event>
<event>
 5    1  0.3125560E-003  0.9118800E+02  0.7818608E-02  0.1130116E+00
         25   -1    0    0    0    0  0.00000000000E+00  0.00000000000E+00  0.99999998245E-14  0.12500000000E+03  0.12500000000E+03 0.  0.
        -13    1    3    3    0    0  0.44028862063E+02 -0.65574820089E+01  0.14051327600E+02  0.46679676908E+02  0.10566000000E+00 0.  1.
         23    2    1    0    0    0  0.14526663966E+02  0.63769853635E+01 -0.23808841189E+02  0.96389672720E+02  0.92045739608E+02 0.  0.
         13    1    3    3    0    0 -0.29502198097E+02  0.12934467372E+02 -0.37860168789E+02  0.49709995811E+02  0.10566000000E+00 0. -1.
         22    1    1    0    0    0 -0.14526663966E+02 -0.63769853635E+01  0.23808841189E+02  0.28610327280E+02  0.00000000000E+00 0. -1.
</event>
<event>
 5    1  0.3125560E-003  0.9118800E+02  0.7818608E-02  0.1130116E+00
         25   -1    0    0    0    0  0.00000000000E+00  0.00000000000E+00  0.99999998245E-14  0.12500000000E+03  0.12500000000E+03 0.  0.
        -13    1    3    3    0    0 -0.27887168571E+02 -0.75959454063E+01 -0.75876239808E+01  0.29882699999E+02  0.10566000000E+00 0. -1.
         23    2    1    0    0    0  0.26355509838E+02 -0.13194755205E+02  0.18363128874E+02  0.90273656027E+02  0.83327150477E+02 0.  0.
         13    1    3    3    0    0  0.54242678409E+02 -0.55988097986E+01  0.25950752855E+02  0.60390956027E+02  0.10566000000E+00 0.  1.
         22    1    1    0    0    0 -0.26355509838E+02  0.13194755205E+02 -0.18363128874E+02  0.34726343973E+02  0.00000000000E+00 0.  1.
</event>
<event>
 5    1  0.3125560E-003  0.9118800E+02  0.7818608E-02  0.1130116E+00
         25   -1    0    0    0    0  0.00000000000E+00  0.00000000000E+00  0.99999998245E-14  0.12500000000E+03  0.12500000000E+03 0.  0.
        -13    1    3    3    0    0  0.15877380818E+02  0.18656833850E+02 -0.26862743282E+02  0.36356386119E+02  0.10566000000E+00 0. -1.
         23    2    1    0    0    0  0.21154073337E+02 -0.15782443466E+02  0.17921650677E+02  0.93097556465E+02  0.87460786163E+02 0.  0.
         13    1    3    3    0    0  0.52766925184E+01 -0.34439277316E+02  0.44784393959E+02  0.56741170346E+02  0.10566000000E+00 0.  1.
         22    1    1    0    0    0 -0.21154073337E+02  0.15782443466E+02 -0.17921650677E+02  0.31902443535E+02  0.00000000000E+00 0.  1.
</event>
<event>
 5    1  0.3125560E-003  0.9118800E+02  0.7818608E-02  0.1130116E+00
         25   -1    0    0    0    0  0.00000000000E+00  0.00000000000E+00  0.99999998245E-14  0.12500000000E+03  0.12500000000E+03 0.  0.
        -13    1    3    3    0    0  0.61896062889E+01 -0.43917943107E+02 -0.27640929054E+01  0.44438140447E+02  0.10566000000E+00 0.  1.
         23    2    1    0    0    0 -0.66522724279E+01 -0.79885766847E+01  0.29068349074E+02  0.94128670197E+02  0.88922255646E+02 0.  0.
         13    1    3    3    0    0 -0.12841878717E+02  0.35929366422E+02  0.31832441980E+02  0.49690529750E+02  0.10566000000E+00 0. -1.
         22    1    1    0    0    0  0.66522724279E+01  0.79885766847E+01 -0.29068349074E+02  0.30871329803E+02  0.00000000000E+00 0. -1.
</event>
<event>
 5    1  0.3125560E-003  0.9118800E+02  0.7818608E-02  0.1130116E+00
         25   -1    0    0    0    0  0.00000000000E+00  0.00000000000E+00  0.99999998245E-14  0.12500000000E+03  0.12500000000E+03 0.  0.
        -13    1    3    3    0    0 -0.33607367778E+02 -0.11448923951E+02  0.20520455710E+02  0.41007722384E+02  0.10566000000E+00 0. -1.
         23    2    1    0    0    0  0.14262494505E+02  0.47985506548E+01  0.29058984743E+02  0.92275858572E+02  0.86278413540E+02 0.  0.
         13    1    3    3    0    0  0.47869862283E+02  0.16247474605E+02  0.85385290338E+01  0.51268136188E+02  0.10566000000E+00 0.  1.
         22    1    1    0    0    0 -0.14262494505E+02 -0.47985506548E+01 -0.29058984743E+02  0.32724141428E+02  0.00000000000E+00 0.  1.
</event>
<event>
 5    1  0.3125560E-003  0.9118800E+02  0.7818608E-02  0.1130116E+00
         25   -1    0    0    0    0  0.00000000000E+00  0.00000000000E+00  0.99999998245E-14  0.12500000000E+03  0.12500000000E+03 0.  0.
        -13    1    3    3    0    0  0.36634186572E+02 -0.94278675803E+01  0.65423052631E+01  0.38389598006E+02  0.10566000000E+00 0.  1.
         23    2    1    0    0    0 -0.16768107159E+02 -0.16882015491E+02 -0.15458066450E+02  0.96625298537E+02  0.92365170028E+02 0.  0.
         13    1    3    3    0    0 -0.53402293731E+02 -0.74541479109E+01 -0.22000371713E+02  0.58235700531E+02  0.10566000000E+00 0. -1.
         22    1    1    0    0    0  0.16768107159E+02  0.16882015491E+02  0.15458066450E+02  0.28374701463E+02  0.00000000000E+00 0. -1.
</event>
<event>
 5    1  0.3125560E-003  0.9118800E+02  0.7818608E-02  0.1130116E+00
         25   -1    0    0    0    0  0.00000000000E+00  0.00000000000E+00  0.99999998245E-14  0.12500000000E+03  0.12500000000E+03 0.  0.
        -13    1    3    3    0    0  0.25735102439E+02 -0.51638262444E+02 -0.13499885827E+02  0.59254229614E+02  0.10566000000E+00 0.  1.
         23    2    1    0    0    0  0.14450689948E+02 -0.25891263980E+02  0.75848529711E+01  0.94394281825E+02  0.89294851230E+02 0.  0.
         13    1    3    3    0    0 -0.11284412491E+02  0.25746998464E+02  0.21084738798E+02  0.35140052211E+02  0.10566000000E+00 0. -1.
         22    1    1    0    0    0 -0.14450689948E+02  0.25891263980E+02 -0.75848529711E+01  0.30605718175E+02  0.00000000000E+00 0.  1.
</event>
<event>
 5    1  0.3125560E-003  0.9118800E+02  0.7818608E-02  0.1130116E+00
         25   -1    0    0    0    0  0.00000000000E+00  0.00000000000E+00  0.99999998245E-14  0.12500000000E+03  0.12500000000E+03 0.  0.
        -13    1    3    3    0    0  0.34191056325E+02 -0.14567245682E+02  0.25421913763E+02  0.45027967340E+02  0.10566000000E+00 0.  1.
         23    2    1    0    0    0  0.20122488920E+02 -0.22521367371E+01 -0.21456743713E+02  0.95497821589E+02  0.90826512634E+02 0.  0.
         13    1    3    3    0    0 -0.14068567405E+02  0.12315108944E+02 -0.46878657476E+02  0.50469854249E+02  0.10566000000E+00 0. -1.
         22    1    1    0    0    0 -0.20122488920E+02  0.22521367371E+01  0.21456743713E+02  0.29502178411E+02  0.00000000000E+00 0. -1.
</event>
<event>
 5    1  0.3125560E-003  0.9118800E+02  0.7818608E-02  0.1130116E+00
         25   -1    0    0    0    0  0.00000000000E+00  0.00000000000E+00  0.99999998245E-14  0.12500000000E+03  0.12500000000E+03 0.  0.
        -13    1    3    3    0    0 -0.20734883277E+02  0.19716714561E+02  0.24690555084E+02  0.37793106408E+02  0.10566000000E+00 0. -1.
         23    2    1    0    0    0 -0.13455143142E+02  0.87004682595E+00 -0.27835471921E+02  0.94070865587E+02  0.88840961255E+02 0.  0.
         13    1    3    3    0    0  0.72797401346E+01 -0.18846667735E+02 -0.52526027006E+02  0.56277759179E+02  0.10566000000E+00 0.  1.
         22    1    1    0    0    0  0.13455143142E+02 -0.87004682595E+00  0.27835471921E+02  0.30929134413E+02  0.00000000000E+00 0.  1.
</event>
<event>
 5    1  0.3125560E-003  0.9118800E+02  0.7818608E-02  0.1130116E+00
         25   -1    0    0    0    0  0.00000000000E+00  0.00000000000E+00  0.99999998245E-14  0.12500000000E+03  0.12500000000E+03 0.  0.
        -13    1    3    3    0    0 -0.27577052700E+02 -0.97525615843E+01  0.93808394875E+01  0.30718359438E+02  0.10566000000E+00 0.  1.
         23    2    1    0    0    0  0.24827298503E+02  0.12050369615E+02 -0.16225714644E+02  0.92986253351E+02  0.87301565494E+02 0.  0.
         13    1    3    3    0    0  0.52404351202E+02  0.21802931199E+02 -0.25606554131E+02  0.62267893913E+02  0.10566000000E+00 0. -1.
         22    1    1    0    0    0 -0.24827298503E+02 -0.12050369615E+02  0.16225714644E+02  0.32013746649E+02  0.00000000000E+00 0. -1.
</event>
<event>
 5    1  0.3125560E-003  0.9118800E+02  0.7818608E-02  0.1130116E+00
         25   -1    0    0    0    0  0.00000000000E+00  0.00000000000E+00  0.99999998245E-14  0.12500000000E+03  0.12500000000E+03 0.  0.
        -13    1    3    3    0    0 -0.33628978986E+01 -0.23797721148E+02  0.52972159019E+02  0.58169591792E+02  0.10566000000E+00 0. -1.
         23    2    1    0    0    0  0.13308965058E+02 -0.82278429028E+01  0.32956426988E+02  0.88517784750E+02  0.80650146853E+02 0.  0.
         13    1    3    3    0    0  0.16671862957E+02  0.15569878245E+02 -0.20015732031E+02  0.30348192957E+02  0.10566000000E+00 0.  1.
         22    1    1    0    0    0 -0.13308965058E+02  0.82278429028E+01 -0.32956426988E+02  0.36482215250E+02  0.00000000000E+00 0. -1.
</event>
<event>
 5    1  0.3125560E-003  0.9118800E+02  0.7818608E-02  0.1130116E+00
         25   -1    0    0    0    0  0.00000000000E+00  0.00000000000E+00  0.99999998245E-14  0.12500000000E+03  0.12500000000E+03 0.  0.
        -13    1    3    3    0    0 -0.19336834215E+02 -0.82929020253E+01  0.30830266766E+02  0.37325619812E+02  0.10566000000E+00 0.  1.
         23    2    1    0    0    0 -0.21251625106E+02  0.28271858782E+01 -0.23717889102E+02  0.93028718933E+02  0.87362347343E+02 0.  0.
         13    1    3    3    0    0 -0.19147908911E+01  0.11120087903E+02 -0.54548155868E+02  0.55703099121E+02  0.10566000000E+00 0. -1.
         22    1    1    0    0    0  0.21251625106E+02 -0.28271858782E+01  0.23717889102E+02  0.31971281067E+02  0.00000000000E+00 0. -1.
</event>
<event>
 5    1  0.3125560E-003  0.9118800E+02  0.7818608E-02  0.1130116E+00
         25   -1    0    0    0    0  0.00000000000E+00  0.00000000000E+00  0.99999998245E-14  0.12500000000E+03  0.12500000000E+03 0.  0.
        -13    1    3    3    0    0  0.56213690066E+01  0.50003709443E+02 -0.32338164990E+02  0.59814202549E+02  0.10566000000E+00 0. -1.
         23    2    1    0    0    0 -0.84146860365E+01  0.20476238656E+02 -0.21186478700E+02  0.94357706184E+02  0.89243635886E+02 0.  0.
         13    1    3    3    0    0 -0.14036055043E+02 -0.29527470787E+02  0.11151686291E+02  0.34543503635E+02  0.10566000000E+00 0.  1.
         22    1    1    0    0    0  0.84146860365E+01 -0.20476238656E+02  0.21186478700E+02  0.30642293816E+02  0.00000000000E+00 0. -1.
</event>
<event>
 5    1  0.3125560E-003  0.9118800E+02  0.7818608E-02  0.1130116E+00
         25   -1    0    0    0    0  0.00000000000E+00  0.00000000000E+00  0.99999998245E-14  0.12500000000E+03  0.12500000000E+03 0.  0.
        -13    1    3    3    0    0  0.47934251251E+02 -0.27673219649E+02 -0.83045068509E+01  0.55968522643E+02  0.10566000000E+00 0.  1.
         23    2    1    0    0    0  0.20926888675E+02  0.71637969268E+01 -0.11322295493E+02  0.10015147829E+03  0.97019944197E+02 0.  0.
         13    1    3    3    0    0 -0.27007362576E+02  0.34837016576E+02 -0.30177886425E+01  0.44182955645E+02  0.10566000000E+00 0. -1.
         22    1    1    0    0    0 -0.20926888675E+02 -0.71637969268E+01  0.11322295493E+02  0.24848521712E+02  0.00000000000E+00 0.  1.
</event>
<event>
 5    1  0.3125560E-003  0.9118800E+02  0.7818608E-02  0.1130116E+00
         25   -1    0    0    0    0  0.00000000000E+00  0.00000000000E+00  0.99999998245E-14  0.12500000000E+03  0.12500000000E+03 0.  0.
        -13    1    3    3    0    0  0.22417668339E+02 -0.20565491545E+01  0.28850765303E+02  0.36594522416E+02  0.10566000000E+00 0. -1.
         23    2    1    0    0    0 -0.26791297923E+02 -0.80258830967E+01 -0.49581598535E+01  0.96596271495E+02  0.92325878678E+02 0.  0.
         13    1    3    3    0    0 -0.49208966262E+02 -0.59693339422E+01 -0.33808925157E+02  0.60001749079E+02  0.10566000000E+00 0.  1.
         22    1    1    0    0    0  0.26791297923E+02  0.80258830967E+01  0.49581598535E+01  0.28403728505E+02  0.00000000000E+00 0.  1.
</event>
<event>
 5    1  0.3125560E-003  0.9118800E+02  0.7818608E-02  0.1130116E+00
         25   -1    0    0    0    0  0.00000000000E+00  0.00000000000E+00  0.99999998245E-14  0.12500000000E+03  0.12500000000E+03 0.  0.
        -13    1    3    3    0    0  0.85067494450E+01 -0.34050237861E+02 -0.32716075068E+02  0.47980581660E+02  0.10566000000E+00 0. -1.
         23    2    1    0    0    0 -0.18718835913E+02 -0.22257552240E+02  0.44947974454E+01  0.95572178917E+02  0.90928789331E+02 0.  0.
         13    1    3    3    0    0 -0.27225585358E+02  0.11792685621E+02  0.37210872514E+02  0.47591597257E+02  0.10566000000E+00 0.  1.
         22    1    1    0    0    0  0.18718835913E+02  0.22257552240E+02 -0.44947974454E+01  0.29427821083E+02  0.00000000000E+00 0.  1.
</event>
<event>
 5    1  0.3125560E-003  0.9118800E+02  0.7818608E-02  0.1130116E+00
         25   -1    0    0    0    0  0.00000000000E+00  0.00000000000E+00  0.99999998245E-14  0.12500000000E+03  0.12500000000E+03 0.  0.
        -13    1    3    3    0    0  0.42831368017E+01 -0.41666521664E+02 -0.44384019748E+02  0.61027835137E+02  0.10566000000E+00 0.  1.
         23    2    1    0    0    0 -0.73602735775E+01 -0.21043868379E+02 -0.19484322625E+02  0.95391608425E+02  0.90680218936E+02 0.  0.
         13    1    3    3    0    0 -0.11643410379E+02  0.20622653285E+02  0.24899697123E+02  0.34363773288E+02  0.10566000000E+00 0. -1.
         22    1    1    0    0    0  0.73602735775E+01  0.21043868379E+02  0.19484322625E+02  0.29608391575E+02  0.00000000000E+00 0.  1.
</event>
<event>
 5    1  0.3125560E-003  0.9118800E+02  0.7818608E-02  0.1130116E+00
         25   -1    0    0    0    0  0.00000000000E+00  0.00000000000E+00  0.99999998245E-14  0.12500000000E+03  0.12500000000E+03 0.  0.
        -13    1    3    3    0    0 -0.30667311845E+02  0.20672361531E+02 -0.25713511025E+02  0.45044715121E+02  0.10566000000E+00 0.  1.
         23    2    1    0    0    0 -0.93674514064E+00 -0.19647889151E+02 -0.22310544646E+02  0.95256472268E+02  0.90493746010E+02 0.  0.
         13    1    3    3    0    0  0.29730566704E+02 -0.40320250682E+02  0.34029663796E+01  0.50211757147E+02  0.10566000000E+00 0. -1.
         22    1    1    0    0    0  0.93674514064E+00  0.19647889151E+02  0.22310544646E+02  0.29743527732E+02  0.00000000000E+00 0. -1.
</event>
<event>
 5    1  0.3125560E-003  0.9118800E+02  0.7818608E-02  0.1130116E+00
         25   -1    0    0    0    0  0.00000000000E+00  0.00000000000E+00  0.99999998245E-14  0.12500000000E+03  0.12500000000E+03 0.  0.
        -13    1    3    3    0    0 -0.11990808538E+02 -0.34022723547E+02 -0.11105621273E+02  0.37744816794E+02  0.10566000000E+00 0.  1.
         23    2    1    0    0    0 -0.88660221097E+01  0.19645288387E+02  0.16196563841E+02  0.98039429084E+02  0.94259520851E+02 0.  0.
         13    1    3    3    0    0  0.31247864278E+01  0.53668011934E+02  0.27302185113E+02  0.60294612290E+02  0.10566000000E+00 0. -1.
         22    1    1    0    0    0  0.88660221097E+01 -0.19645288387E+02 -0.16196563841E+02  0.26960570916E+02  0.00000000000E+00 0. -1.
</event>
<event>
 5    1  0.3125560E-003  0.9118800E+02  0.7818608E-02  0.1130116E+00
         25   -1    0    0    0    0  0.00000000000E+00  0.00000000000E+00  0.99999998245E-14  0.12500000000E+03  0.12500000000E+03 0.  0.
        -13    1    3    3    0    0 -0.37930248545E+01 -0.55196393938E+02 -0.17483324857E+02  0.58023329389E+02  0.10566000000E+00 0. -1.
         23    2    1    0    0    0 -0.17580359105E+02 -0.18845159142E+02 -0.66014626211E+01  0.98395707901E+02  0.94730813230E+02 0.  0.
         13    1    3    3    0    0 -0.13787334250E+02  0.36351234796E+02  0.10881862236E+02  0.40372378512E+02  0.10566000000E+00 0.  1.
         22    1    1    0    0    0  0.17580359105E+02  0.18845159142E+02  0.66014626211E+01  0.26604292099E+02  0.00000000000E+00 0. -1.
</event>
<event>
 5    1  0.3125560E-003  0.9118800E+02  0.7818608E-02  0.1130116E+00
         25   -1    0    0    0    0  0.00000000000E+00  0.00000000000E+00  0.99999998245E-14  0.12500000000E+03  0.12500000000E+03 0.  0.
        -13    1    3    3    0    0 -0.54914231076E+02  0.12606726877E+02  0.14087834949E+02  0.58077367320E+02  0.10566000000E+00 0.  1.
         23    2    1    0    0    0 -0.27664226003E+02 -0.10138256529E+02  0.24361783270E+01  0.95436025121E+02  0.90741425382E+02 0.  0.
         13    1    3    3    0    0  0.27250005073E+02 -0.22744983407E+02 -0.11651656622E+02  0.37358657801E+02  0.10566000000E+00 0. -1.
         22    1    1    0    0    0  0.27664226003E+02  0.10138256529E+02 -0.24361783270E+01  0.29563974879E+02  0.00000000000E+00 0.  1.
</event>
<event>
 5    1  0.3125560E-003  0.9118800E+02  0.7818608E-02  0.1130116E+00
         25   -1    0    0    0    0  0.00000000000E+00  0.00000000000E+00  0.99999998245E-14  0.12500000000E+03  0.12500000000E+03 0.  0.
        -13    1    3    3    0    0 -0.14073771839E+02  0.33450978074E+02  0.45190545630E+02  0.57958912742E+02  0.10566000000E+00 0.  1.
         23    2    1    0    0    0  0.92300414515E+01  0.16674090018E+02  0.27002147525E+02  0.91949509624E+02  0.85804297130E+02 0.  0.
         13    1    3    3    0    0  0.23303813290E+02 -0.16776888056E+02 -0.18188398104E+02  0.33990596882E+02  0.10566000000E+00 0. -1.
         22    1    1    0    0    0 -0.92300414515E+01 -0.16674090018E+02 -0.27002147525E+02  0.33050490376E+02  0.00000000000E+00 0.  1.
</event>
<event>
 5    1  0.3125560E-003  0.9118800E+02  0.7818608E-02  0.1130116E+00
         25   -1    0    0    0    0  0.00000000000E+00  0.00000000000E+00  0.99999998245E-14  0.12500000000E+03  0.12500000000E+03 0.  0.
        -13    1    3    3    0    0 -0.14362049739E+01  0.34714114894E+02  0.70660805158E+01  0.35455226913E+02  0.10566000000E+00 0. -1.
         23    2    1    0    0    0 -0.17180836408E+02 -0.22854306843E+02  0.85520242106E+01  0.95156447948E+02  0.90355475689E+02 0.  0.
         13    1    3    3    0    0 -0.15744631434E+02 -0.57568421737E+02  0.14859436949E+01  0.59701221035E+02  0.10566000000E+00 0.  1.
         22    1    1    0    0    0  0.17180836408E+02  0.22854306843E+02 -0.85520242106E+01  0.29843552052E+02  0.00000000000E+00 0.  1.
</event>
<event>
 5    1  0.3125560E-003  0.9118800E+02  0.7818608E-02  0.1130116E+00
         25   -1    0    0    0    0  0.00000000000E+00  0.00000000000E+00  0.99999998245E-14  0.12500000000E+03  0.12500000000E+03 0.  0.
        -13    1    3    3    0    0  0.13383804926E+02 -0.34009018412E+02 -0.13484693047E+02  0.38956227720E+02  0.10566000000E+00 0. -1.
         23    2    1    0    0    0 -0.72819740601E+01 -0.37407143742E+01  0.28884544725E+02  0.94977724700E+02  0.90107886308E+02 0.  0.
         13    1    3    3    0    0 -0.20665778986E+02  0.30268304037E+02  0.42369237772E+02  0.56021496979E+02  0.10566000000E+00 0.  1.
         22    1    1    0    0    0  0.72819740601E+01  0.37407143742E+01 -0.28884544725E+02  0.30022275300E+02  0.00000000000E+00 0.  1.
</event>
<event>
 5    1  0.3125560E-003  0.9118800E+02  0.7818608E-02  0.1130116E+00
         25   -1    0    0    0    0  0.00000000000E+00  0.00000000000E+00  0.99999998245E-14  0.12500000000E+03  0.12500000000E+03 0.  0.
        -13    1    3    3    0    0 -0.80492317524E+00 -0.29025060447E+02 -0.35045343810E+02  0.45511419688E+02  0.10566000000E+00 0.  1.
         23    2    1    0    0    0 -0.21747550405E+02 -0.15591854704E+02  0.95578987317E+01  0.96584945718E+02  0.92310543436E+02 0.  0.
         13    1    3    3    0    0 -0.20942627229E+02  0.13433205743E+02  0.44603242541E+02  0.51073526029E+02  0.10566000000E+00 0. -1.
         22    1    1    0    0    0  0.21747550405E+02  0.15591854704E+02 -0.95578987317E+01  0.28415054282E+02  0.00000000000E+00 0.  1.
</event>
<event>
 5    1  0.3125560E-003  0.9118800E+02  0.7818608E-02  0.1130116E+00
         25   -1    0    0    0    0  0.00000000000E+00  0.00000000000E+00  0.99999998245E-14  0.12500000000E+03  0.12500000000E+03 0.  0.
        -13    1    3    3    0    0  0.34411608413E+02 -0.45146981386E+01  0.35783864822E+02  0.49850149834E+02  0.10566000000E+00 0. -1.
         23    2    1    0    0    0  0.20672700646E+02  0.18744120660E+02 -0.28043460833E+01  0.96954198741E+02  0.92809211209E+02 0.  0.
         13    1    3    3    0    0 -0.13738907767E+02  0.23258818799E+02 -0.38588210905E+02  0.47104048907E+02  0.10566000000E+00 0.  1.
         22    1    1    0    0    0 -0.20672700646E+02 -0.18744120660E+02  0.28043460833E+01  0.28045801259E+02  0.00000000000E+00 0.  1.
</event>
<event>
 5    1  0.3125560E-003  0.9118800E+02  0.7818608E-02  0.1130116E+00
         25   -1    0    0    0    0  0.00000000000E+00  0.00000000000E+00  0.99999998245E-14  0.12500000000E+03  0.12500000000E+03 0.  0.
        -13    1    3    3    0    0 -0.15916072847E+02 -0.11898511107E+02  0.18973092765E+02  0.27475177061E+02  0.10566000000E+00 0.  1.
         23    2    1    0    0    0  0.35657922628E+02  0.38716717283E+00 -0.10095516758E+02  0.87938472735E+02  0.79747214270E+02 0.  0.
         13    1    3    3    0    0  0.51573995475E+02  0.12285678280E+02 -0.29068609524E+02  0.60463295674E+02  0.10566000000E+00 0. -1.
         22    1    1    0    0    0 -0.35657922628E+02 -0.38716717283E+00  0.10095516758E+02  0.37061527265E+02  0.00000000000E+00 0. -1.
</event>
<event>
 5    1  0.3125560E-003  0.9118800E+02  0.7818608E-02  0.1130116E+00
         25   -1    0    0    0    0  0.00000000000E+00  0.00000000000E+00  0.99999998245E-14  0.12500000000E+03  0.12500000000E+03 0.  0.
        -13    1    3    3    0    0  0.24032664070E+02 -0.13371656027E+02 -0.15618406082E+00  0.27502830485E+02  0.10566000000E+00 0.  1.
         23    2    1    0    0    0  0.17488355916E+02  0.29821499911E+02 -0.29020058975E+02  0.79863227048E+02  0.65884799173E+02 0.  0.
         13    1    3    3    0    0 -0.65443081541E+01  0.43193155938E+02 -0.28863874914E+02  0.52360396563E+02  0.10566000000E+00 0. -1.
         22    1    1    0    0    0 -0.17488355916E+02 -0.29821499911E+02  0.29020058975E+02  0.45136772952E+02  0.00000000000E+00 0. -1.
</event>
<event>
 5    1  0.3125560E-003  0.9118800E+02  0.7818608E-02  0.1130116E+00
         25   -1    0    0    0    0  0.00000000000E+00  0.00000000000E+00  0.99999998245E-14  0.12500000000E+03  0.12500000000E+03 0.  0.
        -13    1    3    3    0    0  0.14450672423E+02 -0.54446684618E+02  0.22655003556E+02  0.60716750156E+02  0.10566000000E+00 0. -1.
         23    2    1    0    0    0  0.84463333618E+01 -0.26723177985E+02  0.73830590972E-01  0.96973686652E+02  0.92835454774E+02 0.  0.
         13    1    3    3    0    0 -0.60043390609E+01  0.27723506633E+02 -0.22581172966E+02  0.36256936496E+02  0.10566000000E+00 0.  1.
         22    1    1    0    0    0 -0.84463333618E+01  0.26723177985E+02 -0.73830590972E-01  0.28026313348E+02  0.00000000000E+00 0. -1.
</event>
<event>
 5    1  0.3125560E-003  0.9118800E+02  0.7818608E-02  0.1130116E+00
         25   -1    0    0    0    0  0.00000000000E+00  0.00000000000E+00  0.99999998245E-14  0.12500000000E+03  0.12500000000E+03 0.  0.
        -13    1    3    3    0    0  0.20285007518E+02  0.20780252822E+02 -0.32395545014E+02  0.43506125295E+02  0.10566000000E+00 0.  1.
         23    2    1    0    0    0 -0.14488572564E+02  0.24608348077E+02  0.63888161659E+01  0.95737284780E+02  0.91155478140E+02 0.  0.
         13    1    3    3    0    0 -0.34773580082E+02  0.38280952549E+01  0.38784361180E+02  0.52231159485E+02  0.10566000000E+00 0. -1.
         22    1    1    0    0    0  0.14488572564E+02 -0.24608348077E+02 -0.63888161659E+01  0.29262715220E+02  0.00000000000E+00 0. -1.
</event>
<event>
 5    1  0.3125560E-003  0.9118800E+02  0.7818608E-02  0.1130116E+00
         25   -1    0    0    0    0  0.00000000000E+00  0.00000000000E+00  0.99999998245E-14  0.12500000000E+03  0.12500000000E+03 0.  0.
        -13    1    3    3    0    0  0.19938387060E+02 -0.40701444432E+02 -0.29267512130E+02  0.53951323318E+02  0.10566000000E+00 0. -1.
         23    2    1    0    0    0  0.10293375473E+02  0.60134192185E+01 -0.18724215677E+02  0.10280290465E+03  0.10037791671E+03 0.  0.
         13    1    3    3    0    0 -0.96450115875E+01  0.46714863651E+02  0.10543296454E+02  0.48851581331E+02  0.10566000000E+00 0.  1.
         22    1    1    0    0    0 -0.10293375473E+02 -0.60134192185E+01  0.18724215677E+02  0.22197095351E+02  0.00000000000E+00 0.  1.
</event>
<event>
 5    1  0.3125560E-003  0.9118800E+02  0.7818608E-02  0.1130116E+00
         25   -1    0    0    0    0  0.00000000000E+00  0.00000000000E+00  0.99999998245E-14  0.12500000000E+03  0.12500000000E+03 0.  0.
        -13    1    3    3    0    0  0.12947401186E+01 -0.29782161960E+02 -0.50577639709E+02  0.58709133238E+02  0.10566000000E+00 0.  1.
         23    2    1    0    0    0  0.64732991888E+01 -0.25141339023E+02 -0.14882518798E+02  0.95075429894E+02  0.90243323706E+02 0.  0.
         13    1    3    3    0    0  0.51785590702E+01  0.46408229371E+01  0.35695120911E+02  0.36366296656E+02  0.10566000000E+00 0. -1.
         22    1    1    0    0    0 -0.64732991888E+01  0.25141339023E+02  0.14882518798E+02  0.29924570106E+02  0.00000000000E+00 0.  1.
</event>
<event>
 5    1  0.3125560E-003  0.9118800E+02  0.7818608E-02  0.1130116E+00
         25   -1    0    0    0    0  0.00000000000E+00  0.00000000000E+00  0.99999998245E-14  0.12500000000E+03  0.12500000000E+03 0.  0.
        -13    1    3    3    0    0 -0.21069024093E+02  0.23829163962E+02 -0.21953045264E+02  0.38648158970E+02  0.10566000000E+00 0.  1.
         23    2    1    0    0    0 -0.44228180432E+01  0.19125353699E+01  0.28487129637E+02  0.96108207637E+02  0.91662707299E+02 0.  0.
         13    1    3    3    0    0  0.16646206050E+02 -0.21916628592E+02  0.50440174901E+02  0.57460048667E+02  0.10566000000E+00 0. -1.
         22    1    1    0    0    0  0.44228180432E+01 -0.19125353699E+01 -0.28487129637E+02  0.28891792363E+02  0.00000000000E+00 0. -1.
</event>
<event>
 5    1  0.3125560E-003  0.9118800E+02  0.7818608E-02  0.1130116E+00
         25   -1    0    0    0    0  0.00000000000E+00  0.00000000000E+00  0.99999998245E-14  0.12500000000E+03  0.12500000000E+03 0.  0.
        -13    1    3    3    0    0 -0.32129953996E+02  0.10050961382E+02  0.37781956510E+01  0.33876860759E+02  0.10566000000E+00 0. -1.
         23    2    1    0    0    0  0.23394478501E+02 -0.15438208773E+02 -0.74543290680E+01  0.95996432352E+02  0.91510152924E+02 0.  0.
         13    1    3    3    0    0  0.55524432497E+02 -0.25489170155E+02 -0.11232524719E+02  0.62119571593E+02  0.10566000000E+00 0.  1.
         22    1    1    0    0    0 -0.23394478501E+02  0.15438208773E+02  0.74543290680E+01  0.29003567648E+02  0.00000000000E+00 0.  1.
</event>
<event>
 5    1  0.3125560E-003  0.9118800E+02  0.7818608E-02  0.1130116E+00
         25   -1    0    0    0    0  0.00000000000E+00  0.00000000000E+00  0.99999998245E-14  0.12500000000E+03  0.12500000000E+03 0.  0.
        -13    1    3    3    0    0  0.47687648832E+02 -0.53644351419E+01 -0.23219999615E+02  0.53311054779E+02  0.10566000000E+00 0.  1.
         23    2    1    0    0    0  0.77680661460E+01 -0.19625409957E+02 -0.20160527478E+02  0.95811878515E+02  0.91257709969E+02 0.  0.
         13    1    3    3    0    0 -0.39919582686E+02 -0.14260974815E+02  0.30594721374E+01  0.42500823736E+02  0.10566000000E+00 0. -1.
         22    1    1    0    0    0 -0.77680661460E+01  0.19625409957E+02  0.20160527478E+02  0.29188121485E+02  0.00000000000E+00 0.  1.
</event>
<event>
 5    1  0.3125560E-003  0.9118800E+02  0.7818608E-02  0.1130116E+00
         25   -1    0    0    0    0  0.00000000000E+00  0.00000000000E+00  0.99999998245E-14  0.12500000000E+03  0.12500000000E+03 0.  0.
        -13    1    3    3    0    0  0.36281831549E+02  0.21691321599E+02 -0.36424606451E+02  0.55800070362E+02  0.10566000000E+00 0. -1.
         23    2    1    0    0    0  0.10326855387E+02 -0.76698225328E+01 -0.25429798814E+02  0.96501845892E+02  0.92197947227E+02 0.  0.
         13    1    3    3    0    0 -0.25954976162E+02 -0.29361144131E+02  0.10994807637E+02  0.40701775530E+02  0.10566000000E+00 0.  1.
         22    1    1    0    0    0 -0.10326855387E+02  0.76698225328E+01  0.25429798814E+02  0.28498154108E+02  0.00000000000E+00 0. -1.
</event>
<event>
 5    1  0.3125560E-003  0.9118800E+02  0.7818608E-02  0.1130116E+00
         25   -1    0    0    0    0  0.00000000000E+00  0.00000000000E+00  0.99999998245E-14  0.12500000000E+03  0.12500000000E+03 0.  0.
        -13    1    3    3    0    0 -0.50483849562E+01 -0.49918034742E+01  0.43320324224E+02  0.43898359280E+02  0.10566000000E+00 0.  1.
         23    2    1    0    0    0 -0.38488536189E+01 -0.28331395177E+02 -0.34680291042E+01  0.96198804665E+02  0.91786170888E+02 0.  0.
         13    1    3    3    0    0  0.11995313374E+01 -0.23339591703E+02 -0.46788353328E+02  0.52300445385E+02  0.10566000000E+00 0. -1.
         22    1    1    0    0    0  0.38488536189E+01  0.28331395177E+02  0.34680291042E+01  0.28801195335E+02  0.00000000000E+00 0. -1.
</event>
<event>
 5    1  0.3125560E-003  0.9118800E+02  0.7818608E-02  0.1130116E+00
         25   -1    0    0    0    0  0.00000000000E+00  0.00000000000E+00  0.99999998245E-14  0.12500000000E+03  0.12500000000E+03 0.  0.
        -13    1    3    3    0    0  0.34875453660E+02 -0.25895471786E+02  0.15893253616E+02  0.46254506824E+02  0.10566000000E+00 0.  1.
         23    2    1    0    0    0 -0.13138162088E+02 -0.25871715692E+02  0.78822024491E+01  0.94931975600E+02  0.90044399604E+02 0.  0.
         13    1    3    3    0    0 -0.48013615748E+02  0.23756094298E-01 -0.80110511664E+01  0.48677468775E+02  0.10566000000E+00 0. -1.
         22    1    1    0    0    0  0.13138162088E+02  0.25871715692E+02 -0.78822024491E+01  0.30068024400E+02  0.00000000000E+00 0.  1.
</event>
<event>
 5    1  0.3125560E-003  0.9118800E+02  0.7818608E-02  0.1130116E+00
         25   -1    0    0    0    0  0.00000000000E+00  0.00000000000E+00  0.99999998245E-14  0.12500000000E+03  0.12500000000E+03 0.  0.
        -13    1    3    3    0    0 -0.37940067338E+02 -0.20840452894E+02  0.11558762062E+02  0.44803898613E+02  0.10566000000E+00 0.  1.
         23    2    1    0    0    0 -0.13091283310E+02  0.23203929198E+02 -0.47470221551E+01  0.97938251197E+02  0.94125250593E+02 0.  0.
         13    1    3    3    0    0  0.24848784028E+02  0.44044382092E+02 -0.16305784217E+02  0.53134352584E+02  0.10566000000E+00 0. -1.
         22    1    1    0    0    0  0.13091283310E+02 -0.23203929198E+02  0.47470221551E+01  0.27061748803E+02  0.00000000000E+00 0. -1.
</event>
<event>
 5    1  0.3125560E-003  0.9118800E+02  0.7818608E-02  0.1130116E+00
         25   -1    0    0    0    0  0.00000000000E+00  0.00000000000E+00  0.99999998245E-14  0.12500000000E+03  0.12500000000E+03 0.  0.
        -13    1    3    3    0    0 -0.22747921767E+02  0.36532701237E+02 -0.29120365429E+02  0.51962612051E+02  0.10566000000E+00 0.  1.
         23    2    1    0    0    0  0.11652802586E+01 -0.11968214528E+01 -0.28311269063E+02  0.96639495498E+02  0.92384381117E+02 0.  0.
         13    1    3    3    0    0  0.23913202026E+02 -0.37729522690E+02  0.80909636601E+00  0.44676883447E+02  0.10566000000E+00 0. -1.
         22    1    1    0    0    0 -0.11652802586E+01  0.11968214528E+01  0.28311269063E+02  0.28360504502E+02  0.00000000000E+00 0.  1.
</event>
<event>
 5    1  0.3125560E-003  0.9118800E+02  0.7818608E-02  0.1130116E+00
         25   -1    0    0    0    0  0.00000000000E+00  0.00000000000E+00  0.99999998245E-14  0.12500000000E+03  0.12500000000E+03 0.  0.
        -13    1    3    3    0    0 -0.23623495734E+02  0.45384985104E+02  0.65896797831E+01  0.51587803474E+02  0.10566000000E+00 0.  1.
         23    2    1    0    0    0 -0.29837073515E+02  0.26992873797E+01  0.35710661379E+01  0.94828993692E+02  0.89901326036E+02 0.  0.
         13    1    3    3    0    0 -0.62135777804E+01 -0.42685697725E+02 -0.30186136452E+01  0.43241190218E+02  0.10566000000E+00 0. -1.
         22    1    1    0    0    0  0.29837073515E+02 -0.26992873797E+01 -0.35710661379E+01  0.30171006308E+02  0.00000000000E+00 0.  1.
</event>
<event>
 5    1  0.3125560E-003  0.9118800E+02  0.7818608E-02  0.1130116E+00
         25   -1    0    0    0    0  0.00000000000E+00  0.00000000000E+00  0.99999998245E-14  0.12500000000E+03  0.12500000000E+03 0.  0.
        -13    1    3    3    0    0 -0.44819664172E+01 -0.49918208283E+02 -0.40445082919E+01  0.50282051992E+02  0.10566000000E+00 0.  1.
         23    2    1    0    0    0  0.23407666184E+02 -0.14198254453E+02 -0.97070704768E+01  0.95952857577E+02  0.91450611776E+02 0.  0.
         13    1    3    3    0    0  0.27889632602E+02  0.35719953830E+02 -0.56625621849E+01  0.45670805585E+02  0.10566000000E+00 0. -1.
         22    1    1    0    0    0 -0.23407666184E+02  0.14198254453E+02  0.97070704768E+01  0.29047142423E+02  0.00000000000E+00 0. -1.
</event>
<event>
 4    1  0.3125560E-003  0.9118800E+02  0.7818608E-02  0.1130116E+00
         25   -1    0    0    0    0  0.00000000000E+00  0.00000000000E+00  0.99999998245E-14  0.12500000000E+03  0.12500000000E+03 0.  0.
        -13    1    1    0    0    0 -0.85411052096E+01  0.37365967598E+01  0.47339247293E+02  0.48248607564E+02  0.10566000000E+00 0.  1.
         13    1    1    0    0    0  0.11557584979E+02 -0.22290370180E+02  0.74887341812E+00  0.25119919362E+02  0.10566000000E+00 0. -1.
         22    1    1    0    0    0 -0.30164797696E+01  0.18553773420E+02 -0.48088120711E+02  0.51631473074E+02  0.00000000000E+00 0.  1.
</event>
<event>
 5    1  0.3125560E-003  0.9118800E+02  0.7818608E-02  0.1130116E+00
         25   -1    0    0    0    0  0.00000000000E+00  0.00000000000E+00  0.99999998245E-14  0.12500000000E+03  0.12500000000E+03 0.  0.
        -13    1    3    3    0    0  0.89619806147E+01 -0.76403752435E+01 -0.37519849513E+02  0.39324835688E+02  0.10566000000E+00 0.  1.
         23    2    1    0    0    0 -0.85970018854E+01 -0.23417043199E+02  0.14284780337E+02  0.96254195039E+02  0.91861573902E+02 0.  0.
         13    1    3    3    0    0 -0.17558982500E+02 -0.15776667955E+02  0.51804629850E+02  0.56929359351E+02  0.10566000000E+00 0. -1.
         22    1    1    0    0    0  0.85970018854E+01  0.23417043199E+02 -0.14284780337E+02  0.28745804961E+02  0.00000000000E+00 0. -1.
</event>
<event>
 5    1  0.3125560E-003  0.9118800E+02  0.7818608E-02  0.1130116E+00
         25   -1    0    0    0    0  0.00000000000E+00  0.00000000000E+00  0.99999998245E-14  0.12500000000E+03  0.12500000000E+03 0.  0.
        -13    1    3    3    0    0 -0.93464122689E+01  0.21860418844E+02 -0.20851448966E+02  0.31623210184E+02  0.10566000000E+00 0. -1.
         23    2    1    0    0    0  0.56147919907E+01 -0.46948381331E+01  0.31749924069E+02  0.92417411512E+02  0.86483252009E+02 0.  0.
         13    1    3    3    0    0  0.14961204260E+02 -0.26555256977E+02  0.52601373035E+02  0.60794201328E+02  0.10566000000E+00 0.  1.
         22    1    1    0    0    0 -0.56147919907E+01  0.46948381331E+01 -0.31749924069E+02  0.32582588488E+02  0.00000000000E+00 0.  1.
</event>
<event>
 5    1  0.3125560E-003  0.9118800E+02  0.7818608E-02  0.1130116E+00
         25   -1    0    0    0    0  0.00000000000E+00  0.00000000000E+00  0.99999998245E-14  0.12500000000E+03  0.12500000000E+03 0.  0.
        -13    1    3    3    0    0 -0.29603735470E+02  0.35556671706E+01  0.37586441533E+02  0.47976824343E+02  0.10566000000E+00 0.  1.
         23    2    1    0    0    0  0.54924337933E+01 -0.22383783861E+02  0.17720158473E+02  0.95927596844E+02  0.91416077421E+02 0.  0.
         13    1    3    3    0    0  0.35096169264E+02 -0.25939451032E+02 -0.19866283060E+02  0.47950772502E+02  0.10566000000E+00 0. -1.
         22    1    1    0    0    0 -0.54924337933E+01  0.22383783861E+02 -0.17720158473E+02  0.29072403156E+02  0.00000000000E+00 0. -1.
</event>
<event>
 5    1  0.3125560E-003  0.9118800E+02  0.7818608E-02  0.1130116E+00
         25   -1    0    0    0    0  0.00000000000E+00  0.00000000000E+00  0.99999998245E-14  0.12500000000E+03  0.12500000000E+03 0.  0.
        -13    1    3    3    0    0  0.58605567324E+02 -0.17742594739E+02 -0.41384118750E+00  0.61233933550E+02  0.10566000000E+00 0.  1.
         23    2    1    0    0    0  0.26765572028E+02 -0.60481066179E+01  0.84412266193E+01  0.96290598291E+02  0.91911096026E+02 0.  0.
         13    1    3    3    0    0 -0.31839995296E+02  0.11694488121E+02  0.88550678068E+01  0.35056664741E+02  0.10566000000E+00 0. -1.
         22    1    1    0    0    0 -0.26765572028E+02  0.60481066179E+01 -0.84412266193E+01  0.28709401709E+02  0.00000000000E+00 0.  1.
</event>
<event>
 5    1  0.3125560E-003  0.9118800E+02  0.7818608E-02  0.1130116E+00
         25   -1    0    0    0    0  0.00000000000E+00  0.00000000000E+00  0.99999998245E-14  0.12500000000E+03  0.12500000000E+03 0.  0.
        -13    1    3    3    0    0 -0.30113414805E+02  0.42532575110E+02 -0.32686961639E+02  0.61516553235E+02  0.10566000000E+00 0.  1.
         23    2    1    0    0    0 -0.13953381825E+02  0.25745306632E+02 -0.99524635920E+01  0.94071546928E+02  0.88841919902E+02 0.  0.
         13    1    3    3    0    0  0.16160032980E+02 -0.16787268478E+02  0.22734498046E+02  0.32554993693E+02  0.10566000000E+00 0. -1.
         22    1    1    0    0    0  0.13953381825E+02 -0.25745306632E+02  0.99524635920E+01  0.30928453072E+02  0.00000000000E+00 0.  1.
</event>
<event>
 5    1  0.3125560E-003  0.9118800E+02  0.7818608E-02  0.1130116E+00
         25   -1    0    0    0    0  0.00000000000E+00  0.00000000000E+00  0.99999998245E-14  0.12500000000E+03  0.12500000000E+03 0.  0.
        -13    1    3    3    0    0 -0.37707247707E+02 -0.34926915576E+02  0.79741354563E+01  0.52012728842E+02  0.10566000000E+00 0.  1.
         23    2    1    0    0    0 -0.12907072281E+02 -0.40760702102E+01  0.26138575723E+02  0.95564782929E+02  0.90918621482E+02 0.  0.
         13    1    3    3    0    0  0.24800175426E+02  0.30850845365E+02  0.18164440266E+02  0.43552054087E+02  0.10566000000E+00 0. -1.
         22    1    1    0    0    0  0.12907072281E+02  0.40760702102E+01 -0.26138575723E+02  0.29435217071E+02  0.00000000000E+00 0. -1.
</event>
<event>
 5    1  0.3125560E-003  0.9118800E+02  0.7818608E-02  0.1130116E+00
         25   -1    0    0    0    0  0.00000000000E+00  0.00000000000E+00  0.99999998245E-14  0.12500000000E+03  0.12500000000E+03 0.  0.
        -13    1    3    3    0    0  0.42455031259E+02 -0.38998729847E+01 -0.42322249634E+02  0.60073477231E+02  0.10566000000E+00 0. -1.
         23    2    1    0    0    0  0.18444432228E+02  0.10420219121E+02 -0.20260540265E+02  0.95686734427E+02  0.91086132900E+02 0.  0.
         13    1    3    3    0    0 -0.24010599031E+02  0.14320092106E+02  0.22061709369E+02  0.35613257196E+02  0.10566000000E+00 0.  1.
         22    1    1    0    0    0 -0.18444432228E+02 -0.10420219121E+02  0.20260540265E+02  0.29313265573E+02  0.00000000000E+00 0. -1.
</event>
<event>
 5    1  0.3125560E-003  0.9118800E+02  0.7818608E-02  0.1130116E+00
         25   -1    0    0    0    0  0.00000000000E+00  0.00000000000E+00  0.99999998245E-14  0.12500000000E+03  0.12500000000E+03 0.  0.
        -13    1    3    3    0    0  0.12250629140E+02  0.26936102587E+02 -0.25696788303E+02  0.39191422914E+02  0.10566000000E+00 0. -1.
         23    2    1    0    0    0 -0.85668708892E+01 -0.24715296344E+02 -0.72507518199E+01  0.97855745504E+02  0.94015617723E+02 0.  0.
         13    1    3    3    0    0 -0.20817500029E+02 -0.51651398931E+02  0.18446036483E+02  0.58664322590E+02  0.10566000000E+00 0.  1.
         22    1    1    0    0    0  0.85668708892E+01  0.24715296344E+02  0.72507518199E+01  0.27144254496E+02  0.00000000000E+00 0.  1.
</event>
<event>
 5    1  0.3125560E-003  0.9118800E+02  0.7818608E-02  0.1130116E+00
         25   -1    0    0    0    0  0.00000000000E+00  0.00000000000E+00  0.99999998245E-14  0.12500000000E+03  0.12500000000E+03 0.  0.
        -13    1    3    3    0    0 -0.29844887883E+00 -0.51486359671E+02 -0.19754126637E+02  0.55146813028E+02  0.10566000000E+00 0.  1.
         23    2    1    0    0    0  0.11818966044E+01 -0.25542084300E+02  0.12476716493E+02  0.96548929643E+02  0.92261760285E+02 0.  0.
         13    1    3    3    0    0  0.14803454832E+01  0.25944275371E+02  0.32230843130E+02  0.41402116615E+02  0.10566000000E+00 0. -1.
         22    1    1    0    0    0 -0.11818966044E+01  0.25542084300E+02 -0.12476716493E+02  0.28451070357E+02  0.00000000000E+00 0.  1.
</event>
<event>
 5    1  0.3125560E-003  0.9118800E+02  0.7818608E-02  0.1130116E+00
         25   -1    0    0    0    0  0.00000000000E+00  0.00000000000E+00  0.99999998245E-14  0.12500000000E+03  0.12500000000E+03 0.  0.
        -13    1    3    3    0    0  0.40910675828E+02  0.40558542161E+02 -0.91871750853E+01  0.58336044509E+02  0.10566000000E+00 0.  1.
         23    2    1    0    0    0  0.28111703033E+02  0.81412672487E+01  0.37111253665E+01  0.95498804578E+02  0.90827865463E+02 0.  0.
         13    1    3    3    0    0 -0.12798972795E+02 -0.32417274912E+02  0.12898300452E+02  0.37162760069E+02  0.10566000000E+00 0. -1.
         22    1    1    0    0    0 -0.28111703033E+02 -0.81412672487E+01 -0.37111253665E+01  0.29501195422E+02  0.00000000000E+00 0.  1.
</event>
<event>
 5    1  0.3125560E-003  0.9118800E+02  0.7818608E-02  0.1130116E+00
         25   -1    0    0    0    0  0.00000000000E+00  0.00000000000E+00  0.99999998245E-14  0.12500000000E+03  0.12500000000E+03 0.  0.
        -13    1    3    3    0    0 -0.83405956024E+00  0.43448226508E+02  0.27745569122E+02  0.51558431047E+02  0.10566000000E+00 0. -1.
         23    2    1    0    0    0  0.24107927131E+02  0.12097811225E+02  0.17285660545E+02  0.92963407680E+02  0.87268848509E+02 0.  0.
         13    1    3    3    0    0  0.24941986691E+02 -0.31350415283E+02 -0.10459908578E+02  0.41404976634E+02  0.10566000000E+00 0.  1.
         22    1    1    0    0    0 -0.24107927131E+02 -0.12097811225E+02 -0.17285660545E+02  0.32036592320E+02  0.00000000000E+00 0.  1.
</event>
<event>
 5    1  0.3125560E-003  0.9118800E+02  0.7818608E-02  0.1130116E+00
         25   -1    0    0    0    0  0.00000000000E+00  0.00000000000E+00  0.99999998245E-14  0.12500000000E+03  0.12500000000E+03 0.  0.
        -13    1    3    3    0    0 -0.19809416060E+02 -0.85514556888E+00 -0.51230426489E+02  0.54933705508E+02  0.10566000000E+00 0. -1.
         23    2    1    0    0    0  0.10742452806E+02  0.87909183612E+01 -0.25264740496E+02  0.96173143594E+02  0.91751217423E+02 0.  0.
         13    1    3    3    0    0  0.30551868866E+02  0.96460639301E+01  0.25965685993E+02  0.41239438086E+02  0.10566000000E+00 0.  1.
         22    1    1    0    0    0 -0.10742452806E+02 -0.87909183612E+01  0.25264740496E+02  0.28826856406E+02  0.00000000000E+00 0. -1.
</event>
<event>
 5    1  0.3125560E-003  0.9118800E+02  0.7818608E-02  0.1130116E+00
         25   -1    0    0    0    0  0.00000000000E+00  0.00000000000E+00  0.99999998245E-14  0.12500000000E+03  0.12500000000E+03 0.  0.
        -13    1    3    3    0    0 -0.55060691815E+01  0.57297828108E+02  0.20229467191E+02  0.61013116710E+02  0.10566000000E+00 0.  1.
         23    2    1    0    0    0  0.17951865151E+01  0.28622635609E+02  0.99815876255E+00  0.96303758352E+02  0.91928992097E+02 0.  0.
         13    1    3    3    0    0  0.73012556965E+01 -0.28675192500E+02 -0.19231308428E+02  0.35290641643E+02  0.10566000000E+00 0. -1.
         22    1    1    0    0    0 -0.17951865151E+01 -0.28622635609E+02 -0.99815876255E+00  0.28696241648E+02  0.00000000000E+00 0.  1.
</event>
<event>
 5    1  0.3125560E-003  0.9118800E+02  0.7818608E-02  0.1130116E+00
         25   -1    0    0    0    0  0.00000000000E+00  0.00000000000E+00  0.99999998245E-14  0.12500000000E+03  0.12500000000E+03 0.  0.
        -13    1    3    3    0    0  0.63806761298E+01  0.20921720589E+02 -0.27312400099E+02  0.34991567320E+02  0.10566000000E+00 0. -1.
         23    2    1    0    0    0  0.74376290979E+01 -0.45948135972E+01  0.27866678433E+02  0.95794137481E+02  0.91233405999E+02 0.  0.
         13    1    3    3    0    0  0.10569529681E+01 -0.25516534186E+02  0.55179078532E+02  0.60802570161E+02  0.10566000000E+00 0.  1.
         22    1    1    0    0    0 -0.74376290979E+01  0.45948135972E+01 -0.27866678433E+02  0.29205862519E+02  0.00000000000E+00 0.  1.
</event>
<event>
 5    1  0.3125560E-003  0.9118800E+02  0.7818608E-02  0.1130116E+00
         25   -1    0    0    0    0  0.00000000000E+00  0.00000000000E+00  0.99999998245E-14  0.12500000000E+03  0.12500000000E+03 0.  0.
        -13    1    3    3    0    0 -0.21011370958E+02  0.61273256864E+01 -0.44985506154E+02  0.50027280133E+02  0.10566000000E+00 0.  1.
         23    2    1    0    0    0 -0.28869957758E+00  0.27956477325E+02 -0.12313066287E+02  0.94450702574E+02  0.89373797298E+02 0.  0.
         13    1    3    3    0    0  0.20722671380E+02  0.21829151639E+02  0.32672439867E+02  0.44423422440E+02  0.10566000000E+00 0. -1.
         22    1    1    0    0    0  0.28869957758E+00 -0.27956477325E+02  0.12313066287E+02  0.30549297426E+02  0.00000000000E+00 0. -1.
</event>
<event>
 5    1  0.3125560E-003  0.9118800E+02  0.7818608E-02  0.1130116E+00
         25   -1    0    0    0    0  0.00000000000E+00  0.00000000000E+00  0.99999998245E-14  0.12500000000E+03  0.12500000000E+03 0.  0.
        -13    1    3    3    0    0  0.17298677692E+02 -0.32994511430E+02  0.49560100687E+02  0.62000780467E+02  0.10566000000E+00 0.  1.
         23    2    1    0    0    0  0.39100858542E+01 -0.18788940737E+02  0.27607133275E+02  0.91377583771E+02  0.84967028562E+02 0.  0.
         13    1    3    3    0    0 -0.13388591838E+02  0.14205570693E+02 -0.21952967412E+02  0.29376803303E+02  0.10566000000E+00 0. -1.
         22    1    1    0    0    0 -0.39100858542E+01  0.18788940737E+02 -0.27607133275E+02  0.33622416229E+02  0.00000000000E+00 0.  1.
</event>
<event>
 5    1  0.3125560E-003  0.9118800E+02  0.7818608E-02  0.1130116E+00
         25   -1    0    0    0    0  0.00000000000E+00  0.00000000000E+00  0.99999998245E-14  0.12500000000E+03  0.12500000000E+03 0.  0.
        -13    1    3    3    0    0  0.58097952348E+02  0.88764203319E+01 -0.21720652467E+01  0.58812345102E+02  0.10566000000E+00 0. -1.
         23    2    1    0    0    0  0.24685551855E+02  0.13675584058E+02 -0.12532281177E+02  0.94121914872E+02  0.88912759028E+02 0.  0.
         13    1    3    3    0    0 -0.33412400493E+02  0.47991637265E+01 -0.10360215930E+02  0.35309569770E+02  0.10566000000E+00 0.  1.
         22    1    1    0    0    0 -0.24685551855E+02 -0.13675584058E+02  0.12532281177E+02  0.30878085128E+02  0.00000000000E+00 0. -1.
</event>
<event>
 5    1  0.3125560E-003  0.9118800E+02  0.7818608E-02  0.1130116E+00
         25   -1    0    0    0    0  0.00000000000E+00  0.00000000000E+00  0.99999998245E-14  0.12500000000E+03  0.12500000000E+03 0.  0.
        -13    1    3    3    0    0  0.31979432399E+02 -0.25688197220E+02 -0.61826026184E+01  0.41482566364E+02  0.10566000000E+00 0.  1.
         23    2    1    0    0    0 -0.12858641763E+02 -0.15107955757E+02  0.21910583753E+02  0.95442113142E+02  0.90749811490E+02 0.  0.
         13    1    3    3    0    0 -0.44838074162E+02  0.10580241464E+02  0.28093186371E+02  0.53959546778E+02  0.10566000000E+00 0. -1.
         22    1    1    0    0    0  0.12858641763E+02  0.15107955757E+02 -0.21910583753E+02  0.29557886858E+02  0.00000000000E+00 0. -1.
</event>
<event>
 5    1  0.3125560E-003  0.9118800E+02  0.7818608E-02  0.1130116E+00
         25   -1    0    0    0    0  0.00000000000E+00  0.00000000000E+00  0.99999998245E-14  0.12500000000E+03  0.12500000000E+03 0.  0.
        -13    1    3    3    0    0 -0.18839312371E+02  0.22398373952E+02  0.18525967375E+02  0.34638554783E+02  0.10566000000E+00 0.  1.
         23    2    1    0    0    0  0.20224579835E+02 -0.15165816549E+02  0.25276110059E+02  0.89252029976E+02  0.81780239018E+02 0.  0.
         13    1    3    3    0    0  0.39063892206E+02 -0.37564190501E+02  0.67501426849E+01  0.54613475192E+02  0.10566000000E+00 0. -1.
         22    1    1    0    0    0 -0.20224579835E+02  0.15165816549E+02 -0.25276110059E+02  0.35747970024E+02  0.00000000000E+00 0. -1.
</event>
<event>
 5    1  0.3125560E-003  0.9118800E+02  0.7818608E-02  0.1130116E+00
         25   -1    0    0    0    0  0.00000000000E+00  0.00000000000E+00  0.99999998245E-14  0.12500000000E+03  0.12500000000E+03 0.  0.
        -13    1    3    3    0    0 -0.32633118714E+02 -0.77054697437E+01 -0.56303418748E+00  0.33535397306E+02  0.10566000000E+00 0. -1.
         23    2    1    0    0    0  0.28597408281E+02  0.25418655404E+01  0.49669033406E+01  0.95863374087E+02  0.91328218649E+02 0.  0.
         13    1    3    3    0    0  0.61230526995E+02  0.10247335284E+02  0.55299375281E+01  0.62327976781E+02  0.10566000000E+00 0.  1.
         22    1    1    0    0    0 -0.28597408281E+02 -0.25418655404E+01 -0.49669033406E+01  0.29136625913E+02  0.00000000000E+00 0.  1.
</event>
<event>
 5    1  0.3125560E-003  0.9118800E+02  0.7818608E-02  0.1130116E+00
         25   -1    0    0    0    0  0.00000000000E+00  0.00000000000E+00  0.99999998245E-14  0.12500000000E+03  0.12500000000E+03 0.  0.
        -13    1    3    3    0    0 -0.11457687827E+02 -0.44646574388E+02 -0.29685461214E+02  0.54825477531E+02  0.10566000000E+00 0. -1.
         23    2    1    0    0    0 -0.22246563174E+02 -0.55592057465E+01 -0.87850944313E+01  0.10044409998E+03  0.97396226802E+02 0.  0.
         13    1    3    3    0    0 -0.10788875346E+02  0.39087368641E+02  0.20900366783E+02  0.45618622450E+02  0.10566000000E+00 0.  1.
         22    1    1    0    0    0  0.22246563174E+02  0.55592057465E+01  0.87850944313E+01  0.24555900019E+02  0.00000000000E+00 0. -1.
</event>
<event>
 5    1  0.3125560E-003  0.9118800E+02  0.7818608E-02  0.1130116E+00
         25   -1    0    0    0    0  0.00000000000E+00  0.00000000000E+00  0.99999998245E-14  0.12500000000E+03  0.12500000000E+03 0.  0.
        -13    1    3    3    0    0  0.45703610399E+02 -0.32272028373E+02 -0.72900200395E+01  0.56422153229E+02  0.10566000000E+00 0. -1.
         23    2    1    0    0    0  0.29289137684E+02  0.23801708337E+01 -0.71115525335E+01  0.94766029389E+02  0.89813736963E+02 0.  0.
         13    1    3    3    0    0 -0.16414472715E+02  0.34652199206E+02  0.17846750596E+00  0.38343876161E+02  0.10566000000E+00 0.  1.
         22    1    1    0    0    0 -0.29289137684E+02 -0.23801708337E+01  0.71115525335E+01  0.30233970611E+02  0.00000000000E+00 0. -1.
</event>
<event>
 5    1  0.3125560E-003  0.9118800E+02  0.7818608E-02  0.1130116E+00
         25   -1    0    0    0    0  0.00000000000E+00  0.00000000000E+00  0.99999998245E-14  0.12500000000E+03  0.12500000000E+03 0.  0.
        -13    1    3    3    0    0 -0.12524541231E+02 -0.36509851821E+02 -0.44822267327E+02  0.59151333252E+02  0.10566000000E+00 0. -1.
         23    2    1    0    0    0 -0.19481768938E+02 -0.13302064111E+02 -0.17778246428E+02  0.95461037990E+02  0.90775875085E+02 0.  0.
         13    1    3    3    0    0 -0.69572277068E+01  0.23207787710E+02  0.27044020899E+02  0.36309704739E+02  0.10566000000E+00 0.  1.
         22    1    1    0    0    0  0.19481768938E+02  0.13302064111E+02  0.17778246428E+02  0.29538962010E+02  0.00000000000E+00 0. -1.
</event>
<event>
 5    1  0.3125560E-003  0.9118800E+02  0.7818608E-02  0.1130116E+00
         25   -1    0    0    0    0  0.00000000000E+00  0.00000000000E+00  0.99999998245E-14  0.12500000000E+03  0.12500000000E+03 0.  0.
        -13    1    3    3    0    0 -0.27142460847E+01  0.23287657726E+02  0.50839226608E+02  0.55985000315E+02  0.10566000000E+00 0.  1.
         23    2    1    0    0    0  0.16872335909E+02  0.17768131437E+02  0.18085172503E+02  0.94545843005E+02  0.89506763718E+02 0.  0.
         13    1    3    3    0    0  0.19586581994E+02 -0.55195262887E+01 -0.32754054105E+02  0.38560842690E+02  0.10566000000E+00 0. -1.
         22    1    1    0    0    0 -0.16872335909E+02 -0.17768131437E+02 -0.18085172503E+02  0.30454156995E+02  0.00000000000E+00 0.  1.
</event>
<event>
 5    1  0.3125560E-003  0.9118800E+02  0.7818608E-02  0.1130116E+00
         25   -1    0    0    0    0  0.00000000000E+00  0.00000000000E+00  0.99999998245E-14  0.12500000000E+03  0.12500000000E+03 0.  0.
        -13    1    3    3    0    0 -0.36274339673E+02  0.19311674014E+02  0.20839827373E+02  0.46076870997E+02  0.10566000000E+00 0. -1.
         23    2    1    0    0    0  0.53457090197E+01 -0.74529855664E+01  0.27504191686E+02  0.96006825647E+02  0.91524348737E+02 0.  0.
         13    1    3    3    0    0  0.41620048693E+02 -0.26764659580E+02  0.66643643133E+01  0.49929954650E+02  0.10566000000E+00 0.  1.
         22    1    1    0    0    0 -0.53457090197E+01  0.74529855664E+01 -0.27504191686E+02  0.28993174353E+02  0.00000000000E+00 0.  1.
</event>
<event>
 5    1  0.3125560E-003  0.9118800E+02  0.7818608E-02  0.1130116E+00
         25   -1    0    0    0    0  0.00000000000E+00  0.00000000000E+00  0.99999998245E-14  0.12500000000E+03  0.12500000000E+03 0.  0.
        -13    1    3    3    0    0 -0.39228270263E+02 -0.20153188527E+02 -0.75114833137E+00  0.44108769915E+02  0.10566000000E+00 0.  1.
         23    2    1    0    0    0  0.34346757871E+01 -0.10887347788E+02 -0.27441317323E+02  0.95278673717E+02  0.90524407920E+02 0.  0.
         13    1    3    3    0    0  0.42662946050E+02  0.92658407385E+01 -0.26690168991E+02  0.51169903802E+02  0.10566000000E+00 0. -1.
         22    1    1    0    0    0 -0.34346757871E+01  0.10887347788E+02  0.27441317323E+02  0.29721326283E+02  0.00000000000E+00 0.  1.
</event>
<event>
 5    1  0.3125560E-003  0.9118800E+02  0.7818608E-02  0.1130116E+00
         25   -1    0    0    0    0  0.00000000000E+00  0.00000000000E+00  0.99999998245E-14  0.12500000000E+03  0.12500000000E+03 0.  0.
        -13    1    3    3    0    0 -0.53372617048E+01 -0.49694275668E+02  0.15768995430E+02  0.52408775768E+02  0.10566000000E+00 0.  1.
         23    2    1    0    0    0  0.15064433678E+02 -0.20878021899E+02 -0.11285345415E+02  0.96889717511E+02  0.92722324053E+02 0.  0.
         13    1    3    3    0    0  0.20401695383E+02  0.28816253768E+02 -0.27054340845E+02  0.44480941743E+02  0.10566000000E+00 0. -1.
         22    1    1    0    0    0 -0.15064433678E+02  0.20878021899E+02  0.11285345415E+02  0.28110282489E+02  0.00000000000E+00 0.  1.
</event>
<event>
 5    1  0.3125560E-003  0.9118800E+02  0.7818608E-02  0.1130116E+00
         25   -1    0    0    0    0  0.00000000000E+00  0.00000000000E+00  0.99999998245E-14  0.12500000000E+03  0.12500000000E+03 0.  0.
        -13    1    3    3    0    0 -0.35889805593E+02  0.28096731110E+02 -0.29806201207E+02  0.54460308840E+02  0.10566000000E+00 0.  1.
         23    2    1    0    0    0 -0.17410277226E+02 -0.60981551875E+01 -0.25442573566E+02  0.93573422085E+02  0.88138275008E+02 0.  0.
         13    1    3    3    0    0  0.18479528367E+02 -0.34194886297E+02  0.43636276407E+01  0.39113113246E+02  0.10566000000E+00 0. -1.
         22    1    1    0    0    0  0.17410277226E+02  0.60981551875E+01  0.25442573566E+02  0.31426577915E+02  0.00000000000E+00 0.  1.
</event>
<event>
 5    1  0.3125560E-003  0.9118800E+02  0.7818608E-02  0.1130116E+00
         25   -1    0    0    0    0  0.00000000000E+00  0.00000000000E+00  0.99999998245E-14  0.12500000000E+03  0.12500000000E+03 0.  0.
        -13    1    3    3    0    0 -0.19518862322E+02 -0.41456296963E+02 -0.18897315536E+02  0.49565413775E+02  0.10566000000E+00 0. -1.
         23    2    1    0    0    0  0.33183778376E+01 -0.48162235688E+01 -0.30235536427E+02  0.94203972594E+02  0.89028046977E+02 0.  0.
         13    1    3    3    0    0  0.22837240159E+02  0.36640073394E+02 -0.11338220891E+02  0.44638558819E+02  0.10566000000E+00 0.  1.
         22    1    1    0    0    0 -0.33183778376E+01  0.48162235688E+01  0.30235536427E+02  0.30796027406E+02  0.00000000000E+00 0. -1.
</event>
<event>
 5    1  0.3125560E-003  0.9118800E+02  0.7818608E-02  0.1130116E+00
         25   -1    0    0    0    0  0.00000000000E+00  0.00000000000E+00  0.99999998245E-14  0.12500000000E+03  0.12500000000E+03 0.  0.
        -13    1    3    3    0    0 -0.43684235360E+02  0.19955671230E+02 -0.21248597196E+02  0.52517190329E+02  0.10566000000E+00 0.  1.
         23    2    1    0    0    0 -0.24694897779E+02 -0.29746804938E+01  0.12199074832E+02  0.97296135159E+02  0.93268610957E+02 0.  0.
         13    1    3    3    0    0  0.18989337581E+02 -0.22930351723E+02  0.33447672028E+02  0.44778944830E+02  0.10566000000E+00 0. -1.
         22    1    1    0    0    0  0.24694897779E+02  0.29746804938E+01 -0.12199074832E+02  0.27703864841E+02  0.00000000000E+00 0. -1.
</event>
<event>
 5    1  0.3125560E-003  0.9118800E+02  0.7818608E-02  0.1130116E+00
         25   -1    0    0    0    0  0.00000000000E+00  0.00000000000E+00  0.99999998245E-14  0.12500000000E+03  0.12500000000E+03 0.  0.
        -13    1    3    3    0    0 -0.21964939711E+02 -0.28854058928E+02  0.58097806163E+01  0.36725740401E+02  0.10566000000E+00 0. -1.
         23    2    1    0    0    0 -0.22579276814E+01  0.19354878972E+02 -0.21872002859E+02  0.95706756982E+02  0.91113606259E+02 0.  0.
         13    1    3    3    0    0  0.19707012030E+02  0.48208937900E+02 -0.27681783475E+02  0.58981016582E+02  0.10566000000E+00 0.  1.
         22    1    1    0    0    0  0.22579276814E+01 -0.19354878972E+02  0.21872002859E+02  0.29293243018E+02  0.00000000000E+00 0.  1.
</event>
<event>
 5    1  0.3125560E-003  0.9118800E+02  0.7818608E-02  0.1130116E+00
         25   -1    0    0    0    0  0.00000000000E+00  0.00000000000E+00  0.99999998245E-14  0.12500000000E+03  0.12500000000E+03 0.  0.
        -13    1    3    3    0    0  0.29642269924E+02  0.42834372173E+02 -0.19648358944E+02  0.55673304006E+02  0.10566000000E+00 0.  1.
         23    2    1    0    0    0  0.15727454850E+02  0.60813239817E+01 -0.24486538018E+02  0.95269108969E+02  0.90511199540E+02 0.  0.
         13    1    3    3    0    0 -0.13914815074E+02 -0.36753048191E+02 -0.48381790735E+01  0.39595804963E+02  0.10566000000E+00 0. -1.
         22    1    1    0    0    0 -0.15727454850E+02 -0.60813239817E+01  0.24486538018E+02  0.29730891031E+02  0.00000000000E+00 0.  1.
</event>
<event>
 5    1  0.3125560E-003  0.9118800E+02  0.7818608E-02  0.1130116E+00
         25   -1    0    0    0    0  0.00000000000E+00  0.00000000000E+00  0.99999998245E-14  0.12500000000E+03  0.12500000000E+03 0.  0.
        -13    1    3    3    0    0 -0.24565937121E+02 -0.48649122541E+02  0.23471385813E+02  0.59339190310E+02  0.10566000000E+00 0.  1.
         23    2    1    0    0    0 -0.81312014802E+01 -0.16654046522E+02  0.23195783146E+02  0.95309630201E+02  0.90567143878E+02 0.  0.
         13    1    3    3    0    0  0.16434735641E+02  0.31995076019E+02 -0.27560266671E+00  0.35970439891E+02  0.10566000000E+00 0. -1.
         22    1    1    0    0    0  0.81312014802E+01  0.16654046522E+02 -0.23195783146E+02  0.29690369799E+02  0.00000000000E+00 0.  1.
</event>
<event>
 5    1  0.3125560E-003  0.9118800E+02  0.7818608E-02  0.1130116E+00
         25   -1    0    0    0    0  0.00000000000E+00  0.00000000000E+00  0.99999998245E-14  0.12500000000E+03  0.12500000000E+03 0.  0.
        -13    1    3    3    0    0 -0.20694221970E+02 -0.40865845025E+01 -0.41112361038E+02  0.46208098749E+02  0.10566000000E+00 0. -1.
         23    2    1    0    0    0 -0.17179553708E+02  0.23619005344E+02 -0.13971367020E+00  0.95793596610E+02  0.91232664943E+02 0.  0.
         13    1    3    3    0    0  0.35146682614E+01  0.27705589847E+02  0.40972647368E+02  0.49585497861E+02  0.10566000000E+00 0.  1.
         22    1    1    0    0    0  0.17179553708E+02 -0.23619005344E+02  0.13971367020E+00  0.29206403390E+02  0.00000000000E+00 0.  1.
</event>
<event>
 5    1  0.3125560E-003  0.9118800E+02  0.7818608E-02  0.1130116E+00
         25   -1    0    0    0    0  0.00000000000E+00  0.00000000000E+00  0.99999998245E-14  0.12500000000E+03  0.12500000000E+03 0.  0.
        -13    1    3    3    0    0 -0.75757407095E+01  0.23699864636E+02 -0.39571606079E+01  0.25194160339E+02  0.10566000000E+00 0.  1.
         23    2    1    0    0    0 -0.20870666223E+02 -0.25180319964E+02  0.25263117224E+02  0.83673757563E+02  0.72756026491E+02 0.  0.
         13    1    3    3    0    0 -0.13294925514E+02 -0.48880184600E+02  0.29220277832E+02  0.58479597224E+02  0.10566000000E+00 0. -1.
         22    1    1    0    0    0  0.20870666223E+02  0.25180319964E+02 -0.25263117224E+02  0.41326242437E+02  0.00000000000E+00 0. -1.
</event>
<event>
 5    1  0.3125560E-003  0.9118800E+02  0.7818608E-02  0.1130116E+00
         25   -1    0    0    0    0  0.00000000000E+00  0.00000000000E+00  0.99999998245E-14  0.12500000000E+03  0.12500000000E+03 0.  0.
        -13    1    3    3    0    0 -0.35381287665E+02 -0.22329086931E+02  0.10260119394E+02  0.43077892869E+02  0.10566000000E+00 0. -1.
         23    2    1    0    0    0  0.15672913828E+01 -0.13076927229E+02 -0.26118494033E+02  0.95748706719E+02  0.91171139511E+02 0.  0.
         13    1    3    3    0    0  0.36948579047E+02  0.92521597023E+01 -0.36378613427E+02  0.52670813851E+02  0.10566000000E+00 0.  1.
         22    1    1    0    0    0 -0.15672913828E+01  0.13076927229E+02  0.26118494033E+02  0.29251293281E+02  0.00000000000E+00 0.  1.
</event>
<event>
 5    1  0.3125560E-003  0.9118800E+02  0.7818608E-02  0.1130116E+00
         25   -1    0    0    0    0  0.00000000000E+00  0.00000000000E+00  0.99999998245E-14  0.12500000000E+03  0.12500000000E+03 0.  0.
        -13    1    3    3    0    0  0.40744172513E+02  0.35540504051E+02 -0.22314959593E+02  0.58490884825E+02  0.10566000000E+00 0.  1.
         23    2    1    0    0    0  0.31796954287E+00  0.18900433903E+02 -0.57397788796E+01  0.10524468254E+03  0.10337393596E+03 0.  0.
         13    1    3    3    0    0 -0.40426202970E+02 -0.16640070149E+02  0.16575180713E+02  0.46753797715E+02  0.10566000000E+00 0. -1.
         22    1    1    0    0    0 -0.31796954287E+00 -0.18900433903E+02  0.57397788796E+01  0.19755317460E+02  0.00000000000E+00 0.  1.
</event>
<event>
 5    1  0.3125560E-003  0.9118800E+02  0.7818608E-02  0.1130116E+00
         25   -1    0    0    0    0  0.00000000000E+00  0.00000000000E+00  0.99999998245E-14  0.12500000000E+03  0.12500000000E+03 0.  0.
        -13    1    3    3    0    0  0.21373565037E+02 -0.33159030794E+02 -0.34348530867E+02  0.52308539860E+02  0.10566000000E+00 0. -1.
         23    2    1    0    0    0  0.31802995698E+02 -0.35800490133E+01 -0.11999791811E+02  0.90820440468E+02  0.84143390216E+02 0.  0.
         13    1    3    3    0    0  0.10429430661E+02  0.29578981780E+02  0.22348739055E+02  0.38511900608E+02  0.10566000000E+00 0.  1.
         22    1    1    0    0    0 -0.31802995698E+02  0.35800490133E+01  0.11999791811E+02  0.34179559532E+02  0.00000000000E+00 0. -1.
</event>
<event>
 5    1  0.3125560E-003  0.9118800E+02  0.7818608E-02  0.1130116E+00
         25   -1    0    0    0    0  0.00000000000E+00  0.00000000000E+00  0.99999998245E-14  0.12500000000E+03  0.12500000000E+03 0.  0.
        -13    1    3    3    0    0 -0.48700512872E+02  0.25347537687E+02  0.10052724828E+02  0.55814926868E+02  0.10566000000E+00 0.  1.
         23    2    1    0    0    0 -0.21589116988E+02  0.13663659211E+02 -0.15717949515E+02  0.95002675248E+02  0.90142491711E+02 0.  0.
         13    1    3    3    0    0  0.27111395884E+02 -0.11683878476E+02 -0.25770674342E+02  0.39187748380E+02  0.10566000000E+00 0. -1.
         22    1    1    0    0    0  0.21589116988E+02 -0.13663659211E+02  0.15717949515E+02  0.29997324752E+02  0.00000000000E+00 0.  1.
</event>
<event>
 5    1  0.3125560E-003  0.9118800E+02  0.7818608E-02  0.1130116E+00
         25   -1    0    0    0    0  0.00000000000E+00  0.00000000000E+00  0.99999998245E-14  0.12500000000E+03  0.12500000000E+03 0.  0.
        -13    1    3    3    0    0 -0.18731926456E+02 -0.35217761570E+01  0.32325382950E+02  0.37526384357E+02  0.10566000000E+00 0. -1.
         23    2    1    0    0    0  0.24492121209E+02  0.15233771383E+02 -0.23986325098E+01  0.96057207637E+02  0.91593132435E+02 0.  0.
         13    1    3    3    0    0  0.43224047665E+02  0.18755547540E+02 -0.34724015460E+02  0.58530823279E+02  0.10566000000E+00 0.  1.
         22    1    1    0    0    0 -0.24492121209E+02 -0.15233771383E+02  0.23986325098E+01  0.28942792363E+02  0.00000000000E+00 0.  1.
</event>
<event>
 5    1  0.3125560E-003  0.9118800E+02  0.7818608E-02  0.1130116E+00
         25   -1    0    0    0    0  0.00000000000E+00  0.00000000000E+00  0.99999998245E-14  0.12500000000E+03  0.12500000000E+03 0.  0.
        -13    1    3    3    0    0 -0.19737572788E+02  0.11918923359E+02 -0.33792505630E+02  0.40909376851E+02  0.10566000000E+00 0.  1.
         23    2    1    0    0    0  0.17379390898E+01  0.24708669036E+02  0.15220163917E+02  0.95927811443E+02  0.91416370858E+02 0.  0.
         13    1    3    3    0    0  0.21475511877E+02  0.12789745677E+02  0.49012669547E+02  0.55018434592E+02  0.10566000000E+00 0. -1.
         22    1    1    0    0    0 -0.17379390898E+01 -0.24708669036E+02 -0.15220163917E+02  0.29072188557E+02  0.00000000000E+00 0. -1.
</event>
<event>
 5    1  0.3125560E-003  0.9118800E+02  0.7818608E-02  0.1130116E+00
         25   -1    0    0    0    0  0.00000000000E+00  0.00000000000E+00  0.99999998245E-14  0.12500000000E+03  0.12500000000E+03 0.  0.
        -13    1    3    3    0    0  0.21223856489E+02 -0.85570855470E+00 -0.49927231103E+02  0.54257938507E+02  0.10566000000E+00 0.  1.
         23    2    1    0    0    0 -0.78912649356E+00 -0.20503699251E+02 -0.18390804101E+02  0.97445579682E+02  0.93468684170E+02 0.  0.
         13    1    3    3    0    0 -0.22012982983E+02 -0.19647990696E+02  0.31536427002E+02  0.43187641175E+02  0.10566000000E+00 0. -1.
         22    1    1    0    0    0  0.78912649356E+00  0.20503699251E+02  0.18390804101E+02  0.27554420318E+02  0.00000000000E+00 0.  1.
</event>
<event>
 5    1  0.3125560E-003  0.9118800E+02  0.7818608E-02  0.1130116E+00
         25   -1    0    0    0    0  0.00000000000E+00  0.00000000000E+00  0.99999998245E-14  0.12500000000E+03  0.12500000000E+03 0.  0.
        -13    1    3    3    0    0 -0.13133383839E+02  0.31471160510E+02 -0.78433527834E+01  0.34992128570E+02  0.10566000000E+00 0.  1.
         23    2    1    0    0    0 -0.15829383920E+02 -0.26908531707E+02 -0.31498679401E+01  0.93622298651E+02  0.88207565791E+02 0.  0.
         13    1    3    3    0    0 -0.26960000812E+01 -0.58379692217E+02  0.46934848433E+01  0.58630170081E+02  0.10566000000E+00 0. -1.
         22    1    1    0    0    0  0.15829383920E+02  0.26908531707E+02  0.31498679401E+01  0.31377701349E+02  0.00000000000E+00 0. -1.
</event>
<event>
 5    1  0.3125560E-003  0.9118800E+02  0.7818608E-02  0.1130116E+00
         25   -1    0    0    0    0  0.00000000000E+00  0.00000000000E+00  0.99999998245E-14  0.12500000000E+03  0.12500000000E+03 0.  0.
        -13    1    3    3    0    0  0.12494923530E+02 -0.37688757078E+02  0.20292269578E+02  0.44590950794E+02  0.10566000000E+00 0.  1.
         23    2    1    0    0    0  0.22186180592E+02 -0.78349245060E+01 -0.18912430747E+02  0.94812375250E+02  0.89878216562E+02 0.  0.
         13    1    3    3    0    0  0.96912570625E+01  0.29853832572E+02 -0.39204700325E+02  0.50221424455E+02  0.10566000000E+00 0. -1.
         22    1    1    0    0    0 -0.22186180592E+02  0.78349245060E+01  0.18912430747E+02  0.30187624750E+02  0.00000000000E+00 0. -1.
</event>
<event>
 5    1  0.3125560E-003  0.9118800E+02  0.7818608E-02  0.1130116E+00
         25   -1    0    0    0    0  0.00000000000E+00  0.00000000000E+00  0.99999998245E-14  0.12500000000E+03  0.12500000000E+03 0.  0.
        -13    1    3    3    0    0 -0.17079486719E+02 -0.86818722700E+01  0.54602663295E+02  0.57866620566E+02  0.10566000000E+00 0.  1.
         23    2    1    0    0    0  0.29893550465E+01 -0.16487573998E+02  0.30596677131E+02  0.90115433335E+02  0.83089459824E+02 0.  0.
         13    1    3    3    0    0  0.20068841766E+02 -0.78057017279E+01 -0.24005986165E+02  0.32248812770E+02  0.10566000000E+00 0. -1.
         22    1    1    0    0    0 -0.29893550465E+01  0.16487573998E+02 -0.30596677131E+02  0.34884566665E+02  0.00000000000E+00 0.  1.
</event>
<event>
 5    1  0.3125560E-003  0.9118800E+02  0.7818608E-02  0.1130116E+00
         25   -1    0    0    0    0  0.00000000000E+00  0.00000000000E+00  0.99999998245E-14  0.12500000000E+03  0.12500000000E+03 0.  0.
        -13    1    3    3    0    0  0.33926927576E+02  0.21555846097E+02  0.92434292181E+01  0.41244915607E+02  0.10566000000E+00 0. -1.
         23    2    1    0    0    0  0.10194102017E+02 -0.23542738257E+02 -0.12269843996E+02  0.96561833528E+02  0.92279241338E+02 0.  0.
         13    1    3    3    0    0 -0.23732825559E+02 -0.45098584354E+02 -0.21513273215E+02  0.55316917921E+02  0.10566000000E+00 0.  1.
         22    1    1    0    0    0 -0.10194102017E+02  0.23542738257E+02  0.12269843996E+02  0.28438166472E+02  0.00000000000E+00 0.  1.
</event>
<event>
 5    1  0.3125560E-003  0.9118800E+02  0.7818608E-02  0.1130116E+00
         25   -1    0    0    0    0  0.00000000000E+00  0.00000000000E+00  0.99999998245E-14  0.12500000000E+03  0.12500000000E+03 0.  0.
        -13    1    3    3    0    0 -0.35182767153E+02  0.12060872874E+02 -0.16074428761E+02  0.40517776136E+02  0.10566000000E+00 0. -1.
         23    2    1    0    0    0  0.18816994324E+02  0.41781290989E+01 -0.22392070537E+02  0.95454427386E+02  0.90766771710E+02 0.  0.
         13    1    3    3    0    0  0.53999761476E+02 -0.78827437750E+01 -0.63176417759E+01  0.54936651250E+02  0.10566000000E+00 0.  1.
         22    1    1    0    0    0 -0.18816994324E+02 -0.41781290989E+01  0.22392070537E+02  0.29545572614E+02  0.00000000000E+00 0.  1.
</event>
<event>
 5    1  0.3125560E-003  0.9118800E+02  0.7818608E-02  0.1130116E+00
         25   -1    0    0    0    0  0.00000000000E+00  0.00000000000E+00  0.99999998245E-14  0.12500000000E+03  0.12500000000E+03 0.  0.
        -13    1    3    3    0    0  0.44075486187E+02  0.27553681658E+02 -0.26593887178E+02  0.58387497418E+02  0.10566000000E+00 0. -1.
         23    2    1    0    0    0  0.23878112081E+02 -0.24947398510E+01 -0.16135704032E+02  0.96073387546E+02  0.91615210999E+02 0.  0.
         13    1    3    3    0    0 -0.20197374106E+02 -0.30048421509E+02  0.10458183145E+02  0.37685890127E+02  0.10566000000E+00 0.  1.
         22    1    1    0    0    0 -0.23878112081E+02  0.24947398510E+01  0.16135704032E+02  0.28926612454E+02  0.00000000000E+00 0. -1.
</event>
<event>
 5    1  0.3125560E-003  0.9118800E+02  0.7818608E-02  0.1130116E+00
         25   -1    0    0    0    0  0.00000000000E+00  0.00000000000E+00  0.99999998245E-14  0.12500000000E+03  0.12500000000E+03 0.  0.
        -13    1    3    3    0    0  0.83283764660E+01  0.28350654878E+02  0.22910502998E+02  0.37390156435E+02  0.10566000000E+00 0.  1.
         23    2    1    0    0    0  0.70590964426E+01 -0.61697219014E+01 -0.26052333724E+02  0.97312089220E+02  0.93289990379E+02 0.  0.
         13    1    3    3    0    0 -0.12692800234E+01 -0.34520376779E+02 -0.48962836722E+02  0.59921932785E+02  0.10566000000E+00 0. -1.
         22    1    1    0    0    0 -0.70590964426E+01  0.61697219014E+01  0.26052333724E+02  0.27687910780E+02  0.00000000000E+00 0. -1.
</event>
<event>
 5    1  0.3125560E-003  0.9118800E+02  0.7818608E-02  0.1130116E+00
         25   -1    0    0    0    0  0.00000000000E+00  0.00000000000E+00  0.99999998245E-14  0.12500000000E+03  0.12500000000E+03 0.  0.
        -13    1    3    3    0    0 -0.30340579014E+02 -0.77619154619E+01 -0.30055654568E+02  0.43406815157E+02  0.10566000000E+00 0.  1.
         23    2    1    0    0    0  0.17929505119E+02 -0.17534209413E+02 -0.18058628933E+02  0.94096444663E+02  0.88876943949E+02 0.  0.
         13    1    3    3    0    0  0.48270084133E+02 -0.97722939511E+01  0.11997025635E+02  0.50689629505E+02  0.10566000000E+00 0. -1.
         22    1    1    0    0    0 -0.17929505119E+02  0.17534209413E+02  0.18058628933E+02  0.30903555337E+02  0.00000000000E+00 0. -1.
</event>
<event>
 5    1  0.3125560E-003  0.9118800E+02  0.7818608E-02  0.1130116E+00
         25   -1    0    0    0    0  0.00000000000E+00  0.00000000000E+00  0.99999998245E-14  0.12500000000E+03  0.12500000000E+03 0.  0.
        -13    1    3    3    0    0 -0.59464942655E+01  0.27779180191E+02 -0.18689549330E+02  0.34005206429E+02  0.10566000000E+00 0.  1.
         23    2    1    0    0    0  0.11585889437E+02 -0.25632578667E+02  0.73012604776E+01  0.95938507820E+02  0.91430995592E+02 0.  0.
         13    1    3    3    0    0  0.17532383702E+02 -0.53411758858E+02  0.25990809808E+02  0.61933301390E+02  0.10566000000E+00 0. -1.
         22    1    1    0    0    0 -0.11585889437E+02  0.25632578667E+02 -0.73012604776E+01  0.29061492180E+02  0.00000000000E+00 0. -1.
</event>
<event>
 5    1  0.3125560E-003  0.9118800E+02  0.7818608E-02  0.1130116E+00
         25   -1    0    0    0    0  0.00000000000E+00  0.00000000000E+00  0.99999998245E-14  0.12500000000E+03  0.12500000000E+03 0.  0.
        -13    1    3    3    0    0  0.17270019000E+02 -0.17995851380E+02 -0.27858929859E+02  0.37392985439E+02  0.10566000000E+00 0. -1.
         23    2    1    0    0    0  0.76257565124E+01 -0.80404934982E+01  0.27968862112E+02  0.94915802389E+02  0.90021945087E+02 0.  0.
         13    1    3    3    0    0 -0.96442624873E+01  0.99553578819E+01  0.55827791970E+02  0.57522816950E+02  0.10566000000E+00 0.  1.
         22    1    1    0    0    0 -0.76257565124E+01  0.80404934982E+01 -0.27968862112E+02  0.30084197611E+02  0.00000000000E+00 0.  1.
</event>
<event>
 5    1  0.3125560E-003  0.9118800E+02  0.7818608E-02  0.1130116E+00
         25   -1    0    0    0    0  0.00000000000E+00  0.00000000000E+00  0.99999998245E-14  0.12500000000E+03  0.12500000000E+03 0.  0.
        -13    1    3    3    0    0 -0.15260662487E+02 -0.39697153989E+02 -0.16915579511E+02  0.45770075907E+02  0.10566000000E+00 0.  1.
         23    2    1    0    0    0  0.23763781705E+02 -0.96729426230E+01 -0.15492068770E+02  0.95028558015E+02  0.90178376031E+02 0.  0.
         13    1    3    3    0    0  0.39024444192E+02  0.30024211366E+02  0.14235107408E+01  0.49258482107E+02  0.10566000000E+00 0. -1.
         22    1    1    0    0    0 -0.23763781705E+02  0.96729426230E+01  0.15492068770E+02  0.29971441985E+02  0.00000000000E+00 0.  1.
</event>
<event>
 5    1  0.3125560E-003  0.9118800E+02  0.7818608E-02  0.1130116E+00
         25   -1    0    0    0    0  0.00000000000E+00  0.00000000000E+00  0.99999998245E-14  0.12500000000E+03  0.12500000000E+03 0.  0.
        -13    1    3    3    0    0  0.37915588293E+02  0.99928089931E+01  0.31590968398E+02  0.50353237389E+02  0.10566000000E+00 0.  1.
         23    2    1    0    0    0 -0.40668973848E+01 -0.61180693300E+01  0.28656664111E+02  0.95416646157E+02  0.90714726143E+02 0.  0.
         13    1    3    3    0    0 -0.41982485678E+02 -0.16110878323E+02 -0.29343042876E+01  0.45063408767E+02  0.10566000000E+00 0. -1.
         22    1    1    0    0    0  0.40668973848E+01  0.61180693300E+01 -0.28656664111E+02  0.29583353843E+02  0.00000000000E+00 0. -1.
</event>
<event>
 5    1  0.3125560E-003  0.9118800E+02  0.7818608E-02  0.1130116E+00
         25   -1    0    0    0    0  0.00000000000E+00  0.00000000000E+00  0.99999998245E-14  0.12500000000E+03  0.12500000000E+03 0.  0.
        -13    1    3    3    0    0  0.48994432826E+02 -0.25203728096E+02  0.25755071359E+02  0.60819546387E+02  0.10566000000E+00 0. -1.
         23    2    1    0    0    0  0.19664230243E+02 -0.19287145770E+02  0.56097412485E+01  0.96890479551E+02  0.92723351362E+02 0.  0.
         13    1    3    3    0    0 -0.29330202584E+02  0.59165823260E+01 -0.20145330111E+02  0.36070933164E+02  0.10566000000E+00 0.  1.
         22    1    1    0    0    0 -0.19664230243E+02  0.19287145770E+02 -0.56097412485E+01  0.28109520449E+02  0.00000000000E+00 0. -1.
</event>
<event>
 5    1  0.3125560E-003  0.9118800E+02  0.7818608E-02  0.1130116E+00
         25   -1    0    0    0    0  0.00000000000E+00  0.00000000000E+00  0.99999998245E-14  0.12500000000E+03  0.12500000000E+03 0.  0.
        -13    1    3    3    0    0  0.10950960979E+02  0.29203620943E+01  0.23815156420E+02  0.26374701904E+02  0.10566000000E+00 0. -1.
         23    2    1    0    0    0 -0.34131724784E+02 -0.16248125284E+02 -0.99964580746E+01  0.85898780249E+02  0.76483299237E+02 0.  0.
         13    1    3    3    0    0 -0.45082685764E+02 -0.19168487378E+02 -0.33811614495E+02  0.59524078345E+02  0.10566000000E+00 0.  1.
         22    1    1    0    0    0  0.34131724784E+02  0.16248125284E+02  0.99964580746E+01  0.39101219751E+02  0.00000000000E+00 0.  1.
</event>
<event>
 5    1  0.3125560E-003  0.9118800E+02  0.7818608E-02  0.1130116E+00
         25   -1    0    0    0    0  0.00000000000E+00  0.00000000000E+00  0.99999998245E-14  0.12500000000E+03  0.12500000000E+03 0.  0.
        -13    1    3    3    0    0  0.44936840225E+02  0.41568847961E+02 -0.43326596105E+01  0.61368329239E+02  0.10566000000E+00 0.  1.
         23    2    1    0    0    0  0.19256151864E+02  0.17324980894E+02  0.64720309773E+01  0.98300907646E+02  0.94605638898E+02 0.  0.
         13    1    3    3    0    0 -0.25680688361E+02 -0.24243867067E+02  0.10804690588E+02  0.36932578407E+02  0.10566000000E+00 0. -1.
         22    1    1    0    0    0 -0.19256151864E+02 -0.17324980894E+02 -0.64720309773E+01  0.26699092354E+02  0.00000000000E+00 0.  1.
</event>
<event>
 5    1  0.3125560E-003  0.9118800E+02  0.7818608E-02  0.1130116E+00
         25   -1    0    0    0    0  0.00000000000E+00  0.00000000000E+00  0.99999998245E-14  0.12500000000E+03  0.12500000000E+03 0.  0.
        -13    1    3    3    0    0  0.32566766552E+02  0.13516076958E+01 -0.28210431820E+02  0.43107548695E+02  0.10566000000E+00 0.  1.
         23    2    1    0    0    0  0.90050666883E+01 -0.26379566023E+02  0.95374322060E+01  0.95539257601E+02  0.90883521060E+02 0.  0.
         13    1    3    3    0    0 -0.23561699864E+02 -0.27731173718E+02  0.37747864026E+02  0.52431708906E+02  0.10566000000E+00 0. -1.
         22    1    1    0    0    0 -0.90050666883E+01  0.26379566023E+02 -0.95374322060E+01  0.29460742399E+02  0.00000000000E+00 0. -1.
</event>
<event>
 5    1  0.3125560E-003  0.9118800E+02  0.7818608E-02  0.1130116E+00
         25   -1    0    0    0    0  0.00000000000E+00  0.00000000000E+00  0.99999998245E-14  0.12500000000E+03  0.12500000000E+03 0.  0.
        -13    1    3    3    0    0 -0.83159474981E+01  0.44831519964E+02 -0.30766354276E+01  0.45700076746E+02  0.10566000000E+00 0.  1.
         23    2    1    0    0    0  0.25858076823E+02  0.94773899055E+01  0.84280836717E+01  0.96199068578E+02  0.91786530300E+02 0.  0.
         13    1    3    3    0    0  0.34174024321E+02 -0.35354130058E+02  0.11504719099E+02  0.50498991832E+02  0.10566000000E+00 0. -1.
         22    1    1    0    0    0 -0.25858076823E+02 -0.94773899055E+01 -0.84280836717E+01  0.28800931422E+02  0.00000000000E+00 0. -1.
</event>
<event>
 5    1  0.3125560E-003  0.9118800E+02  0.7818608E-02  0.1130116E+00
         25   -1    0    0    0    0  0.00000000000E+00  0.00000000000E+00  0.99999998245E-14  0.12500000000E+03  0.12500000000E+03 0.  0.
        -13    1    3    3    0    0  0.25243717784E+02 -0.32568743863E+02 -0.27965559465E+02  0.49800120929E+02  0.10566000000E+00 0.  1.
         23    2    1    0    0    0  0.13739695667E+02 -0.16991641479E+02  0.16050062612E+02  0.97887279240E+02  0.94057534573E+02 0.  0.
         13    1    3    3    0    0 -0.11504022117E+02  0.15577102384E+02  0.44015622077E+02  0.48087158310E+02  0.10566000000E+00 0. -1.
         22    1    1    0    0    0 -0.13739695667E+02  0.16991641479E+02 -0.16050062612E+02  0.27112720760E+02  0.00000000000E+00 0. -1.
</event>
<event>
 5    1  0.3125560E-003  0.9118800E+02  0.7818608E-02  0.1130116E+00
         25   -1    0    0    0    0  0.00000000000E+00  0.00000000000E+00  0.99999998245E-14  0.12500000000E+03  0.12500000000E+03 0.  0.
        -13    1    3    3    0    0 -0.52861811724E+02 -0.84774193638E+01 -0.47485638106E+01  0.53747537619E+02  0.10566000000E+00 0.  1.
         23    2    1    0    0    0 -0.33739821155E+02  0.17086498479E+02 -0.94531415653E+01  0.86016851752E+02  0.76676025836E+02 0.  0.
         13    1    3    3    0    0  0.19121990568E+02  0.25563917842E+02 -0.47045777546E+01  0.32269314133E+02  0.10566000000E+00 0. -1.
         22    1    1    0    0    0  0.33739821155E+02 -0.17086498479E+02  0.94531415653E+01  0.38983148248E+02  0.00000000000E+00 0.  1.
</event>
<event>
 5    1  0.3125560E-003  0.9118800E+02  0.7818608E-02  0.1130116E+00
         25   -1    0    0    0    0  0.00000000000E+00  0.00000000000E+00  0.99999998245E-14  0.12500000000E+03  0.12500000000E+03 0.  0.
        -13    1    3    3    0    0 -0.17633812871E+02 -0.50530163363E+02 -0.53316408137E+01  0.53783699424E+02  0.10566000000E+00 0.  1.
         23    2    1    0    0    0 -0.17767161807E+02 -0.81948871676E+01 -0.18451878989E+02  0.98105761722E+02  0.94347445278E+02 0.  0.
         13    1    3    3    0    0 -0.13334893547E+00  0.42335276196E+02 -0.13120238175E+02  0.44322062298E+02  0.10566000000E+00 0. -1.
         22    1    1    0    0    0  0.17767161807E+02  0.81948871676E+01  0.18451878989E+02  0.26894238278E+02  0.00000000000E+00 0.  1.
</event>
<event>
 5    1  0.3125560E-003  0.9118800E+02  0.7818608E-02  0.1130116E+00
         25   -1    0    0    0    0  0.00000000000E+00  0.00000000000E+00  0.99999998245E-14  0.12500000000E+03  0.12500000000E+03 0.  0.
        -13    1    3    3    0    0 -0.32424102592E+02  0.12051434263E+02  0.20628481542E+02  0.40275363579E+02  0.10566000000E+00 0. -1.
         23    2    1    0    0    0 -0.55744912894E+01 -0.26177927084E+02 -0.10321692145E+02  0.96313833503E+02  0.91942690714E+02 0.  0.
         13    1    3    3    0    0  0.26849611302E+02 -0.38229361347E+02 -0.30950173687E+02  0.56038469924E+02  0.10566000000E+00 0.  1.
         22    1    1    0    0    0  0.55744912894E+01  0.26177927084E+02  0.10321692145E+02  0.28686166497E+02  0.00000000000E+00 0. -1.
</event>
<event>
 4    1  0.3125560E-003  0.9118800E+02  0.7818608E-02  0.1130116E+00
         25   -1    0    0    0    0  0.00000000000E+00  0.00000000000E+00  0.99999998245E-14  0.12500000000E+03  0.12500000000E+03 0.  0.
        -13    1    1    0    0    0  0.13910027669E+02 -0.60048589372E+01  0.82548501443E+01  0.17254011579E+02  0.10566000000E+00 0. -1.
         13    1    1    0    0    0 -0.27888363378E+02  0.18544156481E+02  0.42220405528E+02  0.53890818871E+02  0.10566000000E+00 0.  1.
         22    1    1    0    0    0  0.13978335709E+02 -0.12539297544E+02 -0.50475255673E+02  0.53855169551E+02  0.00000000000E+00 0.  1.
</event>
<event>
 5    1  0.3125560E-003  0.9118800E+02  0.7818608E-02  0.1130116E+00
         25   -1    0    0    0    0  0.00000000000E+00  0.00000000000E+00  0.99999998245E-14  0.12500000000E+03  0.12500000000E+03 0.  0.
        -13    1    3    3    0    0 -0.35929513143E+02  0.44156813636E+02 -0.12739437230E+02  0.58335739732E+02  0.10566000000E+00 0.  1.
         23    2    1    0    0    0 -0.18857776846E+02  0.21184675026E+02  0.10037752369E+02  0.94914078439E+02  0.90019551264E+02 0.  0.
         13    1    3    3    0    0  0.17071736297E+02 -0.22972138610E+02  0.22777189600E+02  0.36578338707E+02  0.10566000000E+00 0. -1.
         22    1    1    0    0    0  0.18857776846E+02 -0.21184675026E+02 -0.10037752369E+02  0.30085921561E+02  0.00000000000E+00 0.  1.
</event>
<event>
 5    1  0.3125560E-003  0.9118800E+02  0.7818608E-02  0.1130116E+00
         25   -1    0    0    0    0  0.00000000000E+00  0.00000000000E+00  0.99999998245E-14  0.12500000000E+03  0.12500000000E+03 0.  0.
        -13    1    3    3    0    0  0.27890301129E+02  0.51912072718E+02 -0.15553922469E+02  0.60948075106E+02  0.10566000000E+00 0. -1.
         23    2    1    0    0    0  0.12246313718E+02  0.21455766832E+02 -0.16655690092E+02  0.95205132280E+02  0.90422801714E+02 0.  0.
         13    1    3    3    0    0 -0.15643987410E+02 -0.30456305885E+02 -0.11017676225E+01  0.34257057174E+02  0.10566000000E+00 0.  1.
         22    1    1    0    0    0 -0.12246313718E+02 -0.21455766832E+02  0.16655690092E+02  0.29794867720E+02  0.00000000000E+00 0. -1.
</event>
<event>
 5    1  0.3125560E-003  0.9118800E+02  0.7818608E-02  0.1130116E+00
         25   -1    0    0    0    0  0.00000000000E+00  0.00000000000E+00  0.99999998245E-14  0.12500000000E+03  0.12500000000E+03 0.  0.
        -13    1    3    3    0    0  0.38638222712E+02  0.44060912829E+02 -0.52632915383E+01  0.58838675168E+02  0.10566000000E+00 0.  1.
         23    2    1    0    0    0  0.22350357205E+01  0.16934502220E+02  0.80040749468E+01  0.10613633212E+03  0.10444655586E+03 0.  0.
         13    1    3    3    0    0 -0.36403186992E+02 -0.27126410610E+02  0.13267366485E+02  0.47297656952E+02  0.10566000000E+00 0. -1.
         22    1    1    0    0    0 -0.22350357205E+01 -0.16934502220E+02 -0.80040749468E+01  0.18863667879E+02  0.00000000000E+00 0.  1.
</event>
<event>
 5    1  0.3125560E-003  0.9118800E+02  0.7818608E-02  0.1130116E+00
         25   -1    0    0    0    0  0.00000000000E+00  0.00000000000E+00  0.99999998245E-14  0.12500000000E+03  0.12500000000E+03 0.  0.
        -13    1    3    3    0    0 -0.21609878225E+02 -0.49364642345E+02 -0.52995048919E+01  0.54147489941E+02  0.10566000000E+00 0.  1.
         23    2    1    0    0    0 -0.15783028292E+02 -0.16260618215E+02 -0.23485110064E+02  0.92364711101E+02  0.86407047023E+02 0.  0.
         13    1    3    3    0    0  0.58268499335E+01  0.33104024130E+02 -0.18185605172E+02  0.38217221161E+02  0.10566000000E+00 0. -1.
         22    1    1    0    0    0  0.15783028292E+02  0.16260618215E+02  0.23485110064E+02  0.32635288899E+02  0.00000000000E+00 0.  1.
</event>
<event>
 5    1  0.3125560E-003  0.9118800E+02  0.7818608E-02  0.1130116E+00
         25   -1    0    0    0    0  0.00000000000E+00  0.00000000000E+00  0.99999998245E-14  0.12500000000E+03  0.12500000000E+03 0.  0.
        -13    1    3    3    0    0  0.24653831889E+02  0.34697720013E+00 -0.57109166579E+02  0.62204500572E+02  0.10566000000E+00 0. -1.
         23    2    1    0    0    0  0.10219056667E+02 -0.37672781592E+01 -0.28013557499E+02  0.94943704359E+02  0.90060680043E+02 0.  0.
         13    1    3    3    0    0 -0.14434775222E+02 -0.41142553593E+01  0.29095609080E+02  0.32739203787E+02  0.10566000000E+00 0.  1.
         22    1    1    0    0    0 -0.10219056667E+02  0.37672781592E+01  0.28013557499E+02  0.30056295641E+02  0.00000000000E+00 0. -1.
</event>
<event>
 5    1  0.3125560E-003  0.9118800E+02  0.7818608E-02  0.1130116E+00
         25   -1    0    0    0    0  0.00000000000E+00  0.00000000000E+00  0.99999998245E-14  0.12500000000E+03  0.12500000000E+03 0.  0.
        -13    1    3    3    0    0  0.10164836459E+02  0.60571737002E+01 -0.51997613863E+02  0.53327068783E+02  0.10566000000E+00 0. -1.
         23    2    1    0    0    0 -0.14841118968E+02  0.16301693075E+02 -0.19738436208E+02  0.95409294140E+02  0.90704594895E+02 0.  0.
         13    1    3    3    0    0 -0.25005955427E+02  0.10244519375E+02  0.32259177655E+02  0.42082225357E+02  0.10566000000E+00 0.  1.
         22    1    1    0    0    0  0.14841118968E+02 -0.16301693075E+02  0.19738436208E+02  0.29590705860E+02  0.00000000000E+00 0. -1.
</event>
<event>
 5    1  0.3125560E-003  0.9118800E+02  0.7818608E-02  0.1130116E+00
         25   -1    0    0    0    0  0.00000000000E+00  0.00000000000E+00  0.99999998245E-14  0.12500000000E+03  0.12500000000E+03 0.  0.
        -13    1    3    3    0    0 -0.32734435608E+02 -0.40461401141E+01 -0.14903935217E+02  0.36194653934E+02  0.10566000000E+00 0. -1.
         23    2    1    0    0    0  0.68111839736E+01  0.88303536918E+01  0.27338468475E+02  0.95474430878E+02  0.90794315458E+02 0.  0.
         13    1    3    3    0    0  0.39545619582E+02  0.12876493806E+02  0.42242403692E+02  0.59279776944E+02  0.10566000000E+00 0.  1.
         22    1    1    0    0    0 -0.68111839736E+01 -0.88303536918E+01 -0.27338468475E+02  0.29525569122E+02  0.00000000000E+00 0.  1.
</event>
<event>
 5    1  0.3125560E-003  0.9118800E+02  0.7818608E-02  0.1130116E+00
         25   -1    0    0    0    0  0.00000000000E+00  0.00000000000E+00  0.99999998245E-14  0.12500000000E+03  0.12500000000E+03 0.  0.
        -13    1    3    3    0    0  0.19496763848E+01 -0.42430095372E+02  0.85043332337E+01  0.43317999482E+02  0.10566000000E+00 0.  1.
         23    2    1    0    0    0  0.11703743442E+02  0.11035223074E+02  0.20468364602E+02  0.98967180170E+02  0.95481909504E+02 0.  0.
         13    1    3    3    0    0  0.97540670570E+01  0.53465318446E+02  0.11964031368E+02  0.55649180688E+02  0.10566000000E+00 0. -1.
         22    1    1    0    0    0 -0.11703743442E+02 -0.11035223074E+02 -0.20468364602E+02  0.26032819830E+02  0.00000000000E+00 0.  1.
</event>
<event>
 5    1  0.3125560E-003  0.9118800E+02  0.7818608E-02  0.1130116E+00
         25   -1    0    0    0    0  0.00000000000E+00  0.00000000000E+00  0.99999998245E-14  0.12500000000E+03  0.12500000000E+03 0.  0.
        -13    1    3    3    0    0  0.64330216460E+01 -0.21319331945E+02  0.54749661533E+02  0.59105281355E+02  0.10566000000E+00 0. -1.
         23    2    1    0    0    0 -0.11542608113E+02 -0.81398377712E+01  0.25101221926E+02  0.96197914951E+02  0.91784959213E+02 0.  0.
         13    1    3    3    0    0 -0.17975629759E+02  0.13179494174E+02 -0.29648439607E+02  0.37092633596E+02  0.10566000000E+00 0.  1.
         22    1    1    0    0    0  0.11542608113E+02  0.81398377712E+01 -0.25101221926E+02  0.28802085049E+02  0.00000000000E+00 0. -1.
</event>
<event>
 5    1  0.3125560E-003  0.9118800E+02  0.7818608E-02  0.1130116E+00
         25   -1    0    0    0    0  0.00000000000E+00  0.00000000000E+00  0.99999998245E-14  0.12500000000E+03  0.12500000000E+03 0.  0.
        -13    1    3    3    0    0 -0.52095428629E+02 -0.20758358747E+02  0.35376917693E+01  0.56190475785E+02  0.10566000000E+00 0. -1.
         23    2    1    0    0    0 -0.11419368246E+02 -0.22792755019E+02 -0.75725163819E+01  0.98405740153E+02  0.94744050146E+02 0.  0.
         13    1    3    3    0    0  0.40676060382E+02 -0.20343962715E+01 -0.11110208151E+02  0.42215264367E+02  0.10566000000E+00 0.  1.
         22    1    1    0    0    0  0.11419368246E+02  0.22792755019E+02  0.75725163819E+01  0.26594259847E+02  0.00000000000E+00 0. -1.
</event>
<event>
 5    1  0.3125560E-003  0.9118800E+02  0.7818608E-02  0.1130116E+00
         25   -1    0    0    0    0  0.00000000000E+00  0.00000000000E+00  0.99999998245E-14  0.12500000000E+03  0.12500000000E+03 0.  0.
        -13    1    3    3    0    0 -0.82983968319E+01 -0.54660866737E+01 -0.46054798840E+02  0.47114723323E+02  0.10566000000E+00 0.  1.
         23    2    1    0    0    0  0.25350335276E+02 -0.88264010794E+01 -0.10517751466E+02  0.96170016467E+02  0.91746956989E+02 0.  0.
         13    1    3    3    0    0  0.33648732108E+02 -0.33603144057E+01  0.35537047375E+02  0.49055293145E+02  0.10566000000E+00 0. -1.
         22    1    1    0    0    0 -0.25350335276E+02  0.88264010794E+01  0.10517751466E+02  0.28829983533E+02  0.00000000000E+00 0. -1.
</event>
<event>
 5    1  0.3125560E-003  0.9118800E+02  0.7818608E-02  0.1130116E+00
         25   -1    0    0    0    0  0.00000000000E+00  0.00000000000E+00  0.99999998245E-14  0.12500000000E+03  0.12500000000E+03 0.  0.
        -13    1    3    3    0    0 -0.12945862571E+02 -0.26913225339E+02 -0.40648961545E+02  0.50440720599E+02  0.10566000000E+00 0.  1.
         23    2    1    0    0    0  0.21511052210E+02 -0.13751303782E+02 -0.14694753087E+02  0.95542242258E+02  0.90887626025E+02 0.  0.
         13    1    3    3    0    0  0.34456914781E+02  0.13161921557E+02  0.25954208458E+02  0.45101521659E+02  0.10566000000E+00 0. -1.
         22    1    1    0    0    0 -0.21511052210E+02  0.13751303782E+02  0.14694753087E+02  0.29457757742E+02  0.00000000000E+00 0.  1.
</event>
<event>
 5    1  0.3125560E-003  0.9118800E+02  0.7818608E-02  0.1130116E+00
         25   -1    0    0    0    0  0.00000000000E+00  0.00000000000E+00  0.99999998245E-14  0.12500000000E+03  0.12500000000E+03 0.  0.
        -13    1    3    3    0    0  0.23614043245E+02  0.10887142283E+02 -0.50461723842E+02  0.56767505165E+02  0.10566000000E+00 0. -1.
         23    2    1    0    0    0 -0.71274461092E+01  0.44517221836E+01 -0.28997720191E+02  0.94809172010E+02  0.89873761480E+02 0.  0.
         13    1    3    3    0    0 -0.30741489354E+02 -0.64354200998E+01  0.21464003652E+02  0.38041666845E+02  0.10566000000E+00 0.  1.
         22    1    1    0    0    0  0.71274461092E+01 -0.44517221836E+01  0.28997720191E+02  0.30190827990E+02  0.00000000000E+00 0. -1.
</event>
<event>
 5    1  0.3125560E-003  0.9118800E+02  0.7818608E-02  0.1130116E+00
         25   -1    0    0    0    0  0.00000000000E+00  0.00000000000E+00  0.99999998245E-14  0.12500000000E+03  0.12500000000E+03 0.  0.
        -13    1    3    3    0    0  0.21081386728E+01 -0.37793202387E+02 -0.48083261565E+02  0.61194620696E+02  0.10566000000E+00 0.  1.
         23    2    1    0    0    0  0.47829578692E+01 -0.24062210981E+02 -0.17380587709E+02  0.94934213592E+02  0.90047506339E+02 0.  0.
         13    1    3    3    0    0  0.26748191964E+01  0.13730991407E+02  0.30702673857E+02  0.33739592895E+02  0.10566000000E+00 0. -1.
         22    1    1    0    0    0 -0.47829578692E+01  0.24062210981E+02  0.17380587709E+02  0.30065786408E+02  0.00000000000E+00 0.  1.
</event>
<event>
 5    1  0.3125560E-003  0.9118800E+02  0.7818608E-02  0.1130116E+00
         25   -1    0    0    0    0  0.00000000000E+00  0.00000000000E+00  0.99999998245E-14  0.12500000000E+03  0.12500000000E+03 0.  0.
        -13    1    3    3    0    0 -0.11420052513E+02  0.33631580850E+02 -0.88539215645E+01  0.36604698073E+02  0.10566000000E+00 0. -1.
         23    2    1    0    0    0 -0.15314930683E+02 -0.24819918493E+02 -0.57914238319E+01  0.95265911048E+02  0.90506782962E+02 0.  0.
         13    1    3    3    0    0 -0.38948781700E+01 -0.58451499343E+02  0.30624977326E+01  0.58661212976E+02  0.10566000000E+00 0.  1.
         22    1    1    0    0    0  0.15314930683E+02  0.24819918493E+02  0.57914238319E+01  0.29734088952E+02  0.00000000000E+00 0.  1.
</event>
<event>
 5    1  0.3125560E-003  0.9118800E+02  0.7818608E-02  0.1130116E+00
         25   -1    0    0    0    0  0.00000000000E+00  0.00000000000E+00  0.99999998245E-14  0.12500000000E+03  0.12500000000E+03 0.  0.
        -13    1    3    3    0    0 -0.17899883321E+02 -0.64085403896E+01  0.28187937793E+02  0.34000679609E+02  0.10566000000E+00 0. -1.
         23    2    1    0    0    0  0.67671843043E+01  0.14444276003E+02 -0.24478476327E+02  0.95783092293E+02  0.91218271598E+02 0.  0.
         13    1    3    3    0    0  0.24667067626E+02  0.20852816392E+02 -0.52666414120E+02  0.61782412684E+02  0.10566000000E+00 0.  1.
         22    1    1    0    0    0 -0.67671843043E+01 -0.14444276003E+02  0.24478476327E+02  0.29216907707E+02  0.00000000000E+00 0.  1.
</event>
<event>
 5    1  0.3125560E-003  0.9118800E+02  0.7818608E-02  0.1130116E+00
         25   -1    0    0    0    0  0.00000000000E+00  0.00000000000E+00  0.99999998245E-14  0.12500000000E+03  0.12500000000E+03 0.  0.
        -13    1    3    3    0    0  0.22764662182E+02  0.47008159821E+02 -0.32669747634E+02  0.61606172650E+02  0.10566000000E+00 0. -1.
         23    2    1    0    0    0  0.82208752172E+01  0.26950326067E+02 -0.10258856988E+02  0.95014219850E+02  0.90158499115E+02 0.  0.
         13    1    3    3    0    0 -0.14543786965E+02 -0.20057833754E+02  0.22410890646E+02  0.33408047201E+02  0.10566000000E+00 0.  1.
         22    1    1    0    0    0 -0.82208752172E+01 -0.26950326067E+02  0.10258856988E+02  0.29985780150E+02  0.00000000000E+00 0. -1.
</event>
<event>
 5    1  0.3125560E-003  0.9118800E+02  0.7818608E-02  0.1130116E+00
         25   -1    0    0    0    0  0.00000000000E+00  0.00000000000E+00  0.99999998245E-14  0.12500000000E+03  0.12500000000E+03 0.  0.
        -13    1    3    3    0    0 -0.18575081945E+02 -0.38342613677E+02  0.32472613851E+02  0.53569314978E+02  0.10566000000E+00 0.  1.
         23    2    1    0    0    0 -0.14505023586E+02  0.50366927316E+01 -0.25053078130E+01  0.10944234754E+03  0.10833091380E+03 0.  0.
         13    1    3    3    0    0  0.40700583598E+01  0.43379306409E+02 -0.34977921664E+02  0.55873032560E+02  0.10566000000E+00 0. -1.
         22    1    1    0    0    0  0.14505023586E+02 -0.50366927316E+01  0.25053078130E+01  0.15557652462E+02  0.00000000000E+00 0. -1.
</event>
<event>
 5    1  0.3125560E-003  0.9118800E+02  0.7818608E-02  0.1130116E+00
         25   -1    0    0    0    0  0.00000000000E+00  0.00000000000E+00  0.99999998245E-14  0.12500000000E+03  0.12500000000E+03 0.  0.
        -13    1    3    3    0    0 -0.30071749344E+02 -0.28171702057E+01 -0.16714655579E+02  0.34520101850E+02  0.10566000000E+00 0.  1.
         23    2    1    0    0    0  0.24588153857E+02  0.17858436491E+02 -0.76948416006E+01  0.93651767973E+02  0.88249317239E+02 0.  0.
         13    1    3    3    0    0  0.54659903201E+02  0.20675606697E+02  0.90198139781E+01  0.59131666123E+02  0.10566000000E+00 0. -1.
         22    1    1    0    0    0 -0.24588153857E+02 -0.17858436491E+02  0.76948416006E+01  0.31348232027E+02  0.00000000000E+00 0. -1.
</event>
<event>
 5    1  0.3125560E-003  0.9118800E+02  0.7818608E-02  0.1130116E+00
         25   -1    0    0    0    0  0.00000000000E+00  0.00000000000E+00  0.99999998245E-14  0.12500000000E+03  0.12500000000E+03 0.  0.
        -13    1    3    3    0    0 -0.47418933788E+01 -0.52380576780E+02 -0.21692212616E+01  0.52639595947E+02  0.10566000000E+00 0. -1.
         23    2    1    0    0    0 -0.22645642455E+02 -0.85600734207E+01  0.42838025352E+01  0.10041441594E+03  0.97358122343E+02 0.  0.
         13    1    3    3    0    0 -0.17903749076E+02  0.43820503359E+02  0.64530237969E+01  0.47774819997E+02  0.10566000000E+00 0.  1.
         22    1    1    0    0    0  0.22645642455E+02  0.85600734207E+01 -0.42838025352E+01  0.24585584055E+02  0.00000000000E+00 0. -1.
</event>
<event>
 5    1  0.3125560E-003  0.9118800E+02  0.7818608E-02  0.1130116E+00
         25   -1    0    0    0    0  0.00000000000E+00  0.00000000000E+00  0.99999998245E-14  0.12500000000E+03  0.12500000000E+03 0.  0.
        -13    1    3    3    0    0 -0.21292667830E+02  0.30215567563E+02  0.41730205601E+02  0.55747461377E+02  0.10566000000E+00 0. -1.
         23    2    1    0    0    0 -0.24922201311E+02  0.17460892681E+02  0.58332207776E+01  0.94015724052E+02  0.88763342732E+02 0.  0.
         13    1    3    3    0    0 -0.36295334815E+01 -0.12754674883E+02 -0.35896984823E+02  0.38268262674E+02  0.10566000000E+00 0.  1.
         22    1    1    0    0    0  0.24922201311E+02 -0.17460892681E+02 -0.58332207776E+01  0.30984275948E+02  0.00000000000E+00 0. -1.
</event>
<event>
 5    1  0.3125560E-003  0.9118800E+02  0.7818608E-02  0.1130116E+00
         25   -1    0    0    0    0  0.00000000000E+00  0.00000000000E+00  0.99999998245E-14  0.12500000000E+03  0.12500000000E+03 0.  0.
        -13    1    3    3    0    0 -0.51805468731E+02  0.70364912947E+01  0.32263719795E+02  0.61435149379E+02  0.10566000000E+00 0. -1.
         23    2    1    0    0    0 -0.20265022467E+02  0.51659952722E+01  0.21975145716E+02  0.94664119067E+02  0.89671789136E+02 0.  0.
         13    1    3    3    0    0  0.31540446264E+02 -0.18704960225E+01 -0.10288574078E+02  0.33228969688E+02  0.10566000000E+00 0.  1.
         22    1    1    0    0    0  0.20265022467E+02 -0.51659952722E+01 -0.21975145716E+02  0.30335880933E+02  0.00000000000E+00 0. -1.
</event>
<event>
 5    1  0.3125560E-003  0.9118800E+02  0.7818608E-02  0.1130116E+00
         25   -1    0    0    0    0  0.00000000000E+00  0.00000000000E+00  0.99999998245E-14  0.12500000000E+03  0.12500000000E+03 0.  0.
        -13    1    3    3    0    0  0.29348432635E+02  0.14268038897E+02  0.15813467635E+02  0.36262713009E+02  0.10566000000E+00 0.  1.
         23    2    1    0    0    0 -0.12249228927E+02 -0.14083836480E+02 -0.19693902729E+02  0.97866112258E+02  0.94029400001E+02 0.  0.
         13    1    3    3    0    0 -0.41597661562E+02 -0.28351875376E+02 -0.35507370364E+02  0.61603399249E+02  0.10566000000E+00 0. -1.
         22    1    1    0    0    0  0.12249228927E+02  0.14083836480E+02  0.19693902729E+02  0.27133887742E+02  0.00000000000E+00 0. -1.
</event>
<event>
 5    1  0.3125560E-003  0.9118800E+02  0.7818608E-02  0.1130116E+00
         25   -1    0    0    0    0  0.00000000000E+00  0.00000000000E+00  0.99999998245E-14  0.12500000000E+03  0.12500000000E+03 0.  0.
        -13    1    3    3    0    0 -0.18122061024E+02 -0.34458783532E+02  0.45075425580E+02  0.59561917477E+02  0.10566000000E+00 0.  1.
         23    2    1    0    0    0  0.36645790838E+01 -0.22021106520E+02  0.20128699355E+02  0.94941343843E+02  0.90057403697E+02 0.  0.
         13    1    3    3    0    0  0.21786640107E+02  0.12437677012E+02 -0.24946726225E+02  0.35379426366E+02  0.10566000000E+00 0. -1.
         22    1    1    0    0    0 -0.36645790838E+01  0.22021106520E+02 -0.20128699355E+02  0.30058656157E+02  0.00000000000E+00 0.  1.
</event>
<event>
 5    1  0.3125560E-003  0.9118800E+02  0.7818608E-02  0.1130116E+00
         25   -1    0    0    0    0  0.00000000000E+00  0.00000000000E+00  0.99999998245E-14  0.12500000000E+03  0.12500000000E+03 0.  0.
        -13    1    3    3    0    0 -0.25951812776E+02 -0.41122207023E+02 -0.38430922909E+02  0.61979670026E+02  0.10566000000E+00 0.  1.
         23    2    1    0    0    0 -0.22456243670E+02 -0.28258979107E+02 -0.31922869944E+02  0.76813669932E+02  0.59819875318E+02 0.  0.
         13    1    3    3    0    0  0.34955691058E+01  0.12863227916E+02  0.65080529648E+01  0.14833999907E+02  0.10566000000E+00 0. -1.
         22    1    1    0    0    0  0.22456243670E+02  0.28258979107E+02  0.31922869944E+02  0.48186330068E+02  0.00000000000E+00 0.  1.
</event>
<event>
 5    1  0.3125560E-003  0.9118800E+02  0.7818608E-02  0.1130116E+00
         25   -1    0    0    0    0  0.00000000000E+00  0.00000000000E+00  0.99999998245E-14  0.12500000000E+03  0.12500000000E+03 0.  0.
        -13    1    3    3    0    0 -0.40209633088E+02 -0.12487437322E+01  0.20958464065E+02  0.45361242642E+02  0.10566000000E+00 0.  1.
         23    2    1    0    0    0  0.83583151695E+01  0.15415899046E+02  0.22182383042E+02  0.96723340132E+02  0.92497756908E+02 0.  0.
         13    1    3    3    0    0  0.48567948258E+02  0.16664642778E+02  0.12239189762E+01  0.51362097490E+02  0.10566000000E+00 0. -1.
         22    1    1    0    0    0 -0.83583151695E+01 -0.15415899046E+02 -0.22182383042E+02  0.28276659868E+02  0.00000000000E+00 0.  1.
</event>
<event>
 5    1  0.3125560E-003  0.9118800E+02  0.7818608E-02  0.1130116E+00
         25   -1    0    0    0    0  0.00000000000E+00  0.00000000000E+00  0.99999998245E-14  0.12500000000E+03  0.12500000000E+03 0.  0.
        -13    1    3    3    0    0 -0.42399037088E+01  0.20227976943E+02  0.30587767375E+02  0.36915721741E+02  0.10566000000E+00 0. -1.
         23    2    1    0    0    0  0.25546605117E+02  0.39081228439E+02  0.11888488631E+02  0.76820049697E+02  0.59833205030E+02 0.  0.
         13    1    3    3    0    0  0.29786508826E+02  0.18853251496E+02 -0.18699278744E+02  0.39904327955E+02  0.10566000000E+00 0.  1.
         22    1    1    0    0    0 -0.25546605117E+02 -0.39081228439E+02 -0.11888488631E+02  0.48179950303E+02  0.00000000000E+00 0.  1.
</event>
<event>
 5    1  0.3125560E-003  0.9118800E+02  0.7818608E-02  0.1130116E+00
         25   -1    0    0    0    0  0.00000000000E+00  0.00000000000E+00  0.99999998245E-14  0.12500000000E+03  0.12500000000E+03 0.  0.
        -13    1    3    3    0    0  0.34370781474E+02 -0.16678357299E+02 -0.54834180881E+01  0.38595301000E+02  0.10566000000E+00 0.  1.
         23    2    1    0    0    0 -0.34701432949E+01  0.27505279849E+02 -0.53305242876E+01  0.96768868190E+02  0.92559262354E+02 0.  0.
         13    1    3    3    0    0 -0.37840924769E+02  0.44183637148E+02  0.15289380051E+00  0.58173567190E+02  0.10566000000E+00 0. -1.
         22    1    1    0    0    0  0.34701432949E+01 -0.27505279849E+02  0.53305242876E+01  0.28231131810E+02  0.00000000000E+00 0. -1.
</event>
<event>
 5    1  0.3125560E-003  0.9118800E+02  0.7818608E-02  0.1130116E+00
         25   -1    0    0    0    0  0.00000000000E+00  0.00000000000E+00  0.99999998245E-14  0.12500000000E+03  0.12500000000E+03 0.  0.
        -13    1    3    3    0    0 -0.37600139900E+02  0.10250226547E+02  0.48147242936E+02  0.61943569732E+02  0.10566000000E+00 0.  1.
         23    2    1    0    0    0 -0.12862520884E+02  0.90321723526E+01  0.22038231679E+02  0.97931416061E+02  0.94116172974E+02 0.  0.
         13    1    3    3    0    0  0.24737619016E+02 -0.12180541941E+01 -0.26109011256E+02  0.35987846329E+02  0.10566000000E+00 0. -1.
         22    1    1    0    0    0  0.12862520884E+02 -0.90321723526E+01 -0.22038231679E+02  0.27068583939E+02  0.00000000000E+00 0.  1.
</event>
<event>
 5    1  0.3125560E-003  0.9118800E+02  0.7818608E-02  0.1130116E+00
         25   -1    0    0    0    0  0.00000000000E+00  0.00000000000E+00  0.99999998245E-14  0.12500000000E+03  0.12500000000E+03 0.  0.
        -13    1    3    3    0    0 -0.84620544345E+01 -0.31875961479E+02 -0.23179233428E+02  0.40310932907E+02  0.10566000000E+00 0.  1.
         23    2    1    0    0    0  0.26872631851E+02  0.41910652542E+00  0.74121185958E+01  0.97120733601E+02  0.93033238148E+02 0.  0.
         13    1    3    3    0    0  0.35334686285E+02  0.32295068005E+02  0.30591352023E+02  0.56809800694E+02  0.10566000000E+00 0. -1.
         22    1    1    0    0    0 -0.26872631851E+02 -0.41910652542E+00 -0.74121185958E+01  0.27879266399E+02  0.00000000000E+00 0.  1.
</event>
<event>
 5    1  0.3125560E-003  0.9118800E+02  0.7818608E-02  0.1130116E+00
         25   -1    0    0    0    0  0.00000000000E+00  0.00000000000E+00  0.99999998245E-14  0.12500000000E+03  0.12500000000E+03 0.  0.
        -13    1    3    3    0    0  0.22411703906E+02 -0.18296290183E+02  0.45347073884E+02  0.53790398589E+02  0.10566000000E+00 0.  1.
         23    2    1    0    0    0 -0.74103696105E+01  0.52406073928E+01  0.28020154734E+02  0.95546534755E+02  0.90893529411E+02 0.  0.
         13    1    3    3    0    0 -0.29822073517E+02  0.23536897576E+02 -0.17326919150E+02  0.41756136167E+02  0.10566000000E+00 0. -1.
         22    1    1    0    0    0  0.74103696105E+01 -0.52406073928E+01 -0.28020154734E+02  0.29453465245E+02  0.00000000000E+00 0.  1.
</event>
<event>
 5    1  0.3125560E-003  0.9118800E+02  0.7818608E-02  0.1130116E+00
         25   -1    0    0    0    0  0.00000000000E+00  0.00000000000E+00  0.99999998245E-14  0.12500000000E+03  0.12500000000E+03 0.  0.
        -13    1    3    3    0    0  0.36735345093E+02  0.23111860250E+02 -0.41164767010E+02  0.59817997880E+02  0.10566000000E+00 0. -1.
         23    2    1    0    0    0  0.24841130474E+02  0.23433771812E+01 -0.12716117819E+02  0.96995128420E+02  0.92864320947E+02 0.  0.
         13    1    3    3    0    0 -0.11894214619E+02 -0.20768483069E+02  0.28448649191E+02  0.37177130540E+02  0.10566000000E+00 0.  1.
         22    1    1    0    0    0 -0.24841130474E+02 -0.23433771812E+01  0.12716117819E+02  0.28004871580E+02  0.00000000000E+00 0. -1.
</event>
<event>
 5    1  0.3125560E-003  0.9118800E+02  0.7818608E-02  0.1130116E+00
         25   -1    0    0    0    0  0.00000000000E+00  0.00000000000E+00  0.99999998245E-14  0.12500000000E+03  0.12500000000E+03 0.  0.
        -13    1    3    3    0    0 -0.46904792147E+02  0.30466054316E+00 -0.37011259429E+02  0.59749450482E+02  0.10566000000E+00 0.  1.
         23    2    1    0    0    0 -0.24699779869E+02  0.11655854905E+02 -0.11683444392E+02  0.95294092304E+02  0.90545696066E+02 0.  0.
         13    1    3    3    0    0  0.22205012278E+02  0.11351194362E+02  0.25327815037E+02  0.35544641822E+02  0.10566000000E+00 0. -1.
         22    1    1    0    0    0  0.24699779869E+02 -0.11655854905E+02  0.11683444392E+02  0.29705907696E+02  0.00000000000E+00 0.  1.
</event>
<event>
 5    1  0.3125560E-003  0.9118800E+02  0.7818608E-02  0.1130116E+00
         25   -1    0    0    0    0  0.00000000000E+00  0.00000000000E+00  0.99999998245E-14  0.12500000000E+03  0.12500000000E+03 0.  0.
        -13    1    3    3    0    0  0.40189986406E+02 -0.40929799152E+02 -0.24305228973E+02  0.62299588967E+02  0.10566000000E+00 0.  1.
         23    2    1    0    0    0  0.16070230165E+02 -0.19325887590E+02 -0.13709668719E+02  0.96369644691E+02  0.92018537115E+02 0.  0.
         13    1    3    3    0    0 -0.24119756241E+02  0.21603911562E+02  0.10595560254E+02  0.34070055724E+02  0.10566000000E+00 0. -1.
         22    1    1    0    0    0 -0.16070230165E+02  0.19325887590E+02  0.13709668719E+02  0.28630355309E+02  0.00000000000E+00 0.  1.
</event>
<event>
 5    1  0.3125560E-003  0.9118800E+02  0.7818608E-02  0.1130116E+00
         25   -1    0    0    0    0  0.00000000000E+00  0.00000000000E+00  0.99999998245E-14  0.12500000000E+03  0.12500000000E+03 0.  0.
        -13    1    3    3    0    0 -0.11232891632E+02 -0.47492839096E+01 -0.39242939546E+02  0.41094440261E+02  0.10566000000E+00 0. -1.
         23    2    1    0    0    0  0.27091336259E+02  0.92508486158E+01 -0.20572543535E+01  0.96298937374E+02  0.91922436561E+02 0.  0.
         13    1    3    3    0    0  0.38324227891E+02  0.14000132525E+02  0.37185685193E+02  0.55204497113E+02  0.10566000000E+00 0.  1.
         22    1    1    0    0    0 -0.27091336259E+02 -0.92508486158E+01  0.20572543535E+01  0.28701062626E+02  0.00000000000E+00 0.  1.
</event>
<event>
 5    1  0.3125560E-003  0.9118800E+02  0.7818608E-02  0.1130116E+00
         25   -1    0    0    0    0  0.00000000000E+00  0.00000000000E+00  0.99999998245E-14  0.12500000000E+03  0.12500000000E+03 0.  0.
        -13    1    3    3    0    0 -0.30382586089E+02  0.20711144451E+02  0.22248262567E+02  0.42977312541E+02  0.10566000000E+00 0.  1.
         23    2    1    0    0    0  0.98796099202E+01 -0.14239385638E+02  0.22879961936E+02  0.96297047997E+02  0.91919867271E+02 0.  0.
         13    1    3    3    0    0  0.40262196010E+02 -0.34950530089E+02  0.63169936922E+00  0.53319735456E+02  0.10566000000E+00 0. -1.
         22    1    1    0    0    0 -0.98796099202E+01  0.14239385638E+02 -0.22879961936E+02  0.28702952003E+02  0.00000000000E+00 0. -1.
</event>
<event>
 5    1  0.3125560E-003  0.9118800E+02  0.7818608E-02  0.1130116E+00
         25   -1    0    0    0    0  0.00000000000E+00  0.00000000000E+00  0.99999998245E-14  0.12500000000E+03  0.12500000000E+03 0.  0.
        -13    1    3    3    0    0 -0.22981541367E+02 -0.51724835206E+02  0.13090617334E+01  0.56615674750E+02  0.10566000000E+00 0.  1.
         23    2    1    0    0    0  0.82139433944E+01 -0.24346242376E+02  0.66364531959E+01  0.98462274119E+02  0.94818608562E+02 0.  0.
         13    1    3    3    0    0  0.31195484762E+02  0.27378592830E+02  0.53273914625E+01  0.41846599369E+02  0.10566000000E+00 0. -1.
         22    1    1    0    0    0 -0.82139433944E+01  0.24346242376E+02 -0.66364531959E+01  0.26537725881E+02  0.00000000000E+00 0.  1.
</event>
<event>
 5    1  0.3125560E-003  0.9118800E+02  0.7818608E-02  0.1130116E+00
         25   -1    0    0    0    0  0.00000000000E+00  0.00000000000E+00  0.99999998245E-14  0.12500000000E+03  0.12500000000E+03 0.  0.
        -13    1    3    3    0    0 -0.12639362490E+02 -0.31513516507E+02  0.12252652409E+02  0.36097006273E+02  0.10566000000E+00 0. -1.
         23    2    1    0    0    0  0.34359491123E+01  0.23001167057E+02 -0.13074557200E+02  0.98320354607E+02  0.94631330181E+02 0.  0.
         13    1    3    3    0    0  0.16075311602E+02  0.54514683564E+02 -0.25327209610E+02  0.62223348334E+02  0.10566000000E+00 0.  1.
         22    1    1    0    0    0 -0.34359491123E+01 -0.23001167057E+02  0.13074557200E+02  0.26679645393E+02  0.00000000000E+00 0.  1.
</event>
<event>
 5    1  0.3125560E-003  0.9118800E+02  0.7818608E-02  0.1130116E+00
         25   -1    0    0    0    0  0.00000000000E+00  0.00000000000E+00  0.99999998245E-14  0.12500000000E+03  0.12500000000E+03 0.  0.
        -13    1    3    3    0    0 -0.94692857032E+01 -0.27666965071E+02  0.32258915998E+02  0.43540523118E+02  0.10566000000E+00 0.  1.
         23    2    1    0    0    0  0.10844209986E+02 -0.15077081847E+02 -0.17965200809E+02  0.99160810242E+02  0.95735064425E+02 0.  0.
         13    1    3    3    0    0  0.20313495689E+02  0.12589883224E+02 -0.50224116807E+02  0.55620287124E+02  0.10566000000E+00 0. -1.
         22    1    1    0    0    0 -0.10844209986E+02  0.15077081847E+02  0.17965200809E+02  0.25839189758E+02  0.00000000000E+00 0. -1.
</event>
<event>
 5    1  0.3125560E-003  0.9118800E+02  0.7818608E-02  0.1130116E+00
         25   -1    0    0    0    0  0.00000000000E+00  0.00000000000E+00  0.99999998245E-14  0.12500000000E+03  0.12500000000E+03 0.  0.
        -13    1    3    3    0    0  0.22554313742E+02 -0.39973714105E+02 -0.11903522682E+02  0.47416240930E+02  0.10566000000E+00 0.  1.
         23    2    1    0    0    0  0.30531995891E-02 -0.16052297707E+02  0.24018496937E+02  0.96111170565E+02  0.91666747740E+02 0.  0.
         13    1    3    3    0    0 -0.22551260543E+02  0.23921416398E+02  0.35922019619E+02  0.48694929634E+02  0.10566000000E+00 0. -1.
         22    1    1    0    0    0 -0.30531995891E-02  0.16052297707E+02 -0.24018496937E+02  0.28888829435E+02  0.00000000000E+00 0.  1.
</event>
<event>
 5    1  0.3125560E-003  0.9118800E+02  0.7818608E-02  0.1130116E+00
         25   -1    0    0    0    0  0.00000000000E+00  0.00000000000E+00  0.99999998245E-14  0.12500000000E+03  0.12500000000E+03 0.  0.
        -13    1    3    3    0    0  0.40802322912E+02 -0.13397208512E+02  0.37907526217E+02  0.57282688998E+02  0.10566000000E+00 0. -1.
         23    2    1    0    0    0  0.29649297327E+02 -0.47404842865E+01  0.31366412409E+01  0.94810737976E+02  0.89875939462E+02 0.  0.
         13    1    3    3    0    0 -0.11153025585E+02  0.86567242253E+01 -0.34770884977E+02  0.37528048978E+02  0.10566000000E+00 0.  1.
         22    1    1    0    0    0 -0.29649297327E+02  0.47404842865E+01 -0.31366412409E+01  0.30189262024E+02  0.00000000000E+00 0. -1.
</event>
<event>
 5    1  0.3125560E-003  0.9118800E+02  0.7818608E-02  0.1130116E+00
         25   -1    0    0    0    0  0.00000000000E+00  0.00000000000E+00  0.99999998245E-14  0.12500000000E+03  0.12500000000E+03 0.  0.
        -13    1    3    3    0    0  0.43016999721E+02 -0.21866653963E+02 -0.22481766811E+02  0.53235832139E+02  0.10566000000E+00 0.  1.
         23    2    1    0    0    0  0.40902483037E+01 -0.56250782691E+01 -0.28339158209E+02  0.95819877918E+02  0.91268666472E+02 0.  0.
         13    1    3    3    0    0 -0.38926751417E+02  0.16241575694E+02 -0.58573913984E+01  0.42584045779E+02  0.10566000000E+00 0. -1.
         22    1    1    0    0    0 -0.40902483037E+01  0.56250782691E+01  0.28339158209E+02  0.29180122082E+02  0.00000000000E+00 0.  1.
</event>
<event>
 5    1  0.3125560E-003  0.9118800E+02  0.7818608E-02  0.1130116E+00
         25   -1    0    0    0    0  0.00000000000E+00  0.00000000000E+00  0.99999998245E-14  0.12500000000E+03  0.12500000000E+03 0.  0.
        -13    1    3    3    0    0  0.22277813782E+02  0.17357030267E+02 -0.51309187853E+02  0.58568006699E+02  0.10566000000E+00 0.  1.
         23    2    1    0    0    0 -0.61956405921E+01  0.57481862017E+01 -0.23497257215E+02  0.10002904280E+03  0.96862070490E+02 0.  0.
         13    1    3    3    0    0 -0.28473454374E+02 -0.11608844065E+02  0.27811930638E+02  0.41461036099E+02  0.10566000000E+00 0. -1.
         22    1    1    0    0    0  0.61956405921E+01 -0.57481862017E+01  0.23497257215E+02  0.24970957202E+02  0.00000000000E+00 0.  1.
</event>
<event>
 5    1  0.3125560E-003  0.9118800E+02  0.7818608E-02  0.1130116E+00
         25   -1    0    0    0    0  0.00000000000E+00  0.00000000000E+00  0.99999998245E-14  0.12500000000E+03  0.12500000000E+03 0.  0.
        -13    1    3    3    0    0  0.37851615443E+02 -0.88063100186E-01 -0.41283912561E+01  0.38076335500E+02  0.10566000000E+00 0.  1.
         23    2    1    0    0    0 -0.11966503718E+02  0.17083522615E+02  0.20063571642E+02  0.96058837909E+02  0.91595357291E+02 0.  0.
         13    1    3    3    0    0 -0.49818119160E+02  0.17171585715E+02  0.24191962898E+02  0.57982502408E+02  0.10566000000E+00 0. -1.
         22    1    1    0    0    0  0.11966503718E+02 -0.17083522615E+02 -0.20063571642E+02  0.28941162091E+02  0.00000000000E+00 0.  1.
</event>
<event>
 5    1  0.3125560E-003  0.9118800E+02  0.7818608E-02  0.1130116E+00
         25   -1    0    0    0    0  0.00000000000E+00  0.00000000000E+00  0.99999998245E-14  0.12500000000E+03  0.12500000000E+03 0.  0.
        -13    1    3    3    0    0  0.35292105769E+02  0.17435107349E+02 -0.12533906510E+02  0.41311326223E+02  0.10566000000E+00 0. -1.
         23    2    1    0    0    0 -0.23892646064E+01 -0.20021968967E+02 -0.21866028115E+02  0.95255907945E+02  0.90492966502E+02 0.  0.
         13    1    3    3    0    0 -0.37681370375E+02 -0.37457076316E+02 -0.93321216049E+01  0.53944581722E+02  0.10566000000E+00 0.  1.
         22    1    1    0    0    0  0.23892646064E+01  0.20021968967E+02  0.21866028115E+02  0.29744092055E+02  0.00000000000E+00 0.  1.
</event>
<event>
 5    1  0.3125560E-003  0.9118800E+02  0.7818608E-02  0.1130116E+00
         25   -1    0    0    0    0  0.00000000000E+00  0.00000000000E+00  0.99999998245E-14  0.12500000000E+03  0.12500000000E+03 0.  0.
        -13    1    3    3    0    0  0.64019191528E+01 -0.35353342242E+02 -0.92293018730E+01  0.37094939731E+02  0.10566000000E+00 0. -1.
         23    2    1    0    0    0  0.74519583352E+01  0.25335087873E+02 -0.62310169704E+01  0.97866553240E+02  0.94029986228E+02 0.  0.
         13    1    3    3    0    0  0.10500391824E+01  0.60688430115E+02  0.29982849025E+01  0.60771613510E+02  0.10566000000E+00 0.  1.
         22    1    1    0    0    0 -0.74519583352E+01 -0.25335087873E+02  0.62310169704E+01  0.27133446760E+02  0.00000000000E+00 0.  1.
</event>
<event>
 5    1  0.3125560E-003  0.9118800E+02  0.7818608E-02  0.1130116E+00
         25   -1    0    0    0    0  0.00000000000E+00  0.00000000000E+00  0.99999998245E-14  0.12500000000E+03  0.12500000000E+03 0.  0.
        -13    1    3    3    0    0  0.43382815886E+02 -0.33358993478E+02 -0.17343521310E+02  0.57408188053E+02  0.10566000000E+00 0.  1.
         23    2    1    0    0    0  0.31592938017E+02 -0.68461808511E+01  0.25256140234E+01  0.92575277164E+02  0.86711125531E+02 0.  0.
         13    1    3    3    0    0 -0.11789877868E+02  0.26512812627E+02  0.19869135334E+02  0.35167089111E+02  0.10566000000E+00 0. -1.
         22    1    1    0    0    0 -0.31592938017E+02  0.68461808511E+01 -0.25256140234E+01  0.32424722836E+02  0.00000000000E+00 0.  1.
</event>
<event>
 5    1  0.3125560E-003  0.9118800E+02  0.7818608E-02  0.1130116E+00
         25   -1    0    0    0    0  0.00000000000E+00  0.00000000000E+00  0.99999998245E-14  0.12500000000E+03  0.12500000000E+03 0.  0.
        -13    1    3    3    0    0  0.10810944106E+02  0.15010759057E+02 -0.32118741173E+02  0.37065133192E+02  0.10566000000E+00 0. -1.
         23    2    1    0    0    0 -0.75011644546E+01 -0.28089708084E+02  0.32424878894E+01  0.95745720038E+02  0.91167044536E+02 0.  0.
         13    1    3    3    0    0 -0.18312108561E+02 -0.43100467140E+02  0.35361229063E+02  0.58680586846E+02  0.10566000000E+00 0.  1.
         22    1    1    0    0    0  0.75011644546E+01  0.28089708084E+02 -0.32424878894E+01  0.29254279962E+02  0.00000000000E+00 0.  1.
</event>
<event>
 5    1  0.3125560E-003  0.9118800E+02  0.7818608E-02  0.1130116E+00
         25   -1    0    0    0    0  0.00000000000E+00  0.00000000000E+00  0.99999998245E-14  0.12500000000E+03  0.12500000000E+03 0.  0.
        -13    1    3    3    0    0  0.32972189551E+02 -0.44036890336E+01  0.25346490613E+02  0.41821208869E+02  0.10566000000E+00 0. -1.
         23    2    1    0    0    0  0.10854702900E+02  0.10254191854E+02 -0.23353601801E+02  0.97280625139E+02  0.93247821877E+02 0.  0.
         13    1    3    3    0    0 -0.22117486651E+02  0.14657880888E+02 -0.48700092413E+02  0.55459416270E+02  0.10566000000E+00 0.  1.
         22    1    1    0    0    0 -0.10854702900E+02 -0.10254191854E+02  0.23353601801E+02  0.27719374861E+02  0.00000000000E+00 0.  1.
</event>
<event>
 5    1  0.3125560E-003  0.9118800E+02  0.7818608E-02  0.1130116E+00
         25   -1    0    0    0    0  0.00000000000E+00  0.00000000000E+00  0.99999998245E-14  0.12500000000E+03  0.12500000000E+03 0.  0.
        -13    1    3    3    0    0  0.87852480619E+01  0.31912289426E+02 -0.72463544046E+01  0.33883559673E+02  0.10566000000E+00 0. -1.
         23    2    1    0    0    0  0.76578634699E+01 -0.28888862792E+02 -0.46782610753E+01  0.94749456318E+02  0.89790668109E+02 0.  0.
         13    1    3    3    0    0 -0.11273845920E+01 -0.60801152218E+02  0.25680933293E+01  0.60865896645E+02  0.10566000000E+00 0.  1.
         22    1    1    0    0    0 -0.76578634699E+01  0.28888862792E+02  0.46782610753E+01  0.30250543682E+02  0.00000000000E+00 0.  1.
</event>
<event>
 5    1  0.3125560E-003  0.9118800E+02  0.7818608E-02  0.1130116E+00
         25   -1    0    0    0    0  0.00000000000E+00  0.00000000000E+00  0.99999998245E-14  0.12500000000E+03  0.12500000000E+03 0.  0.
        -13    1    3    3    0    0 -0.41503933611E+02  0.27370224172E+02  0.29504859804E+02  0.57812227015E+02  0.10566000000E+00 0. -1.
         23    2    1    0    0    0 -0.28126876615E+02  0.15628245893E+01  0.38782412475E+01  0.96564030454E+02  0.92282217212E+02 0.  0.
         13    1    3    3    0    0  0.13377056995E+02 -0.25807399582E+02 -0.25626618557E+02  0.38751803439E+02  0.10566000000E+00 0.  1.
         22    1    1    0    0    0  0.28126876615E+02 -0.15628245893E+01 -0.38782412475E+01  0.28435969546E+02  0.00000000000E+00 0. -1.
</event>
<event>
 5    1  0.3125560E-003  0.9118800E+02  0.7818608E-02  0.1130116E+00
         25   -1    0    0    0    0  0.00000000000E+00  0.00000000000E+00  0.99999998245E-14  0.12500000000E+03  0.12500000000E+03 0.  0.
        -13    1    3    3    0    0 -0.23827813338E+02 -0.30120424325E+02  0.14565470775E+02  0.41075159804E+02  0.10566000000E+00 0.  1.
         23    2    1    0    0    0  0.23926096112E+02 -0.94836148738E+01  0.18587387138E+02  0.93252748358E+02  0.87682307733E+02 0.  0.
         13    1    3    3    0    0  0.47753909450E+02  0.20636809451E+02  0.40219163624E+01  0.52177588554E+02  0.10566000000E+00 0. -1.
         22    1    1    0    0    0 -0.23926096112E+02  0.94836148738E+01 -0.18587387138E+02  0.31747251642E+02  0.00000000000E+00 0. -1.
</event>
<event>
 5    1  0.3125560E-003  0.9118800E+02  0.7818608E-02  0.1130116E+00
         25   -1    0    0    0    0  0.00000000000E+00  0.00000000000E+00  0.99999998245E-14  0.12500000000E+03  0.12500000000E+03 0.  0.
        -13    1    3    3    0    0  0.10540414516E+02 -0.54407050833E+02  0.18684776949E+02  0.58483840265E+02  0.10566000000E+00 0.  1.
         23    2    1    0    0    0  0.39649588964E+01 -0.28271439897E+02 -0.68843696403E+01  0.95633526629E+02  0.91013085088E+02 0.  0.
         13    1    3    3    0    0 -0.65754556193E+01  0.26135610935E+02 -0.25569146590E+02  0.37149686364E+02  0.10566000000E+00 0. -1.
         22    1    1    0    0    0 -0.39649588964E+01  0.28271439897E+02  0.68843696403E+01  0.29366473371E+02  0.00000000000E+00 0.  1.
</event>
<event>
 5    1  0.3125560E-003  0.9118800E+02  0.7818608E-02  0.1130116E+00
         25   -1    0    0    0    0  0.00000000000E+00  0.00000000000E+00  0.99999998245E-14  0.12500000000E+03  0.12500000000E+03 0.  0.
        -13    1    3    3    0    0  0.35793615339E+02 -0.38120271035E+02  0.28616980607E+02  0.59609401154E+02  0.10566000000E+00 0.  1.
         23    2    1    0    0    0 -0.86101057263E+00 -0.14251618191E+02  0.11819328982E+02  0.10646499264E+03  0.10483915375E+03 0.  0.
         13    1    3    3    0    0 -0.36654625912E+02  0.23868652844E+02 -0.16797651625E+02  0.46855591486E+02  0.10566000000E+00 0. -1.
         22    1    1    0    0    0  0.86101057263E+00  0.14251618191E+02 -0.11819328982E+02  0.18535007360E+02  0.00000000000E+00 0.  1.
</event>
<event>
 5    1  0.3125560E-003  0.9118800E+02  0.7818608E-02  0.1130116E+00
         25   -1    0    0    0    0  0.00000000000E+00  0.00000000000E+00  0.99999998245E-14  0.12500000000E+03  0.12500000000E+03 0.  0.
        -13    1    3    3    0    0 -0.10433845084E+02 -0.15753176782E+01  0.33502181545E+02  0.35124835677E+02  0.10566000000E+00 0. -1.
         23    2    1    0    0    0 -0.14901120644E+02  0.10041264060E+02 -0.24595092428E+02  0.94540371770E+02  0.89499122580E+02 0.  0.
         13    1    3    3    0    0 -0.44672755603E+01  0.11616581738E+02 -0.58097273972E+02  0.59415536093E+02  0.10566000000E+00 0.  1.
         22    1    1    0    0    0  0.14901120644E+02 -0.10041264060E+02  0.24595092428E+02  0.30459628230E+02  0.00000000000E+00 0.  1.
</event>
<event>
 5    1  0.3125560E-003  0.9118800E+02  0.7818608E-02  0.1130116E+00
         25   -1    0    0    0    0  0.00000000000E+00  0.00000000000E+00  0.99999998245E-14  0.12500000000E+03  0.12500000000E+03 0.  0.
        -13    1    3    3    0    0 -0.18322580225E+02 -0.13903266847E+02  0.40662236043E+01  0.23357292513E+02  0.10566000000E+00 0. -1.
         23    2    1    0    0    0  0.27675137845E+02 -0.39960839920E+02 -0.15369645725E+00  0.76391301144E+02  0.58930682043E+02 0.  0.
         13    1    3    3    0    0  0.45997718070E+02 -0.26057573073E+02 -0.42199200616E+01  0.53034008631E+02  0.10566000000E+00 0.  1.
         22    1    1    0    0    0 -0.27675137845E+02  0.39960839920E+02  0.15369645725E+00  0.48608698856E+02  0.00000000000E+00 0.  1.
</event>
<event>
 5    1  0.3125560E-003  0.9118800E+02  0.7818608E-02  0.1130116E+00
         25   -1    0    0    0    0  0.00000000000E+00  0.00000000000E+00  0.99999998245E-14  0.12500000000E+03  0.12500000000E+03 0.  0.
        -13    1    3    3    0    0  0.30364345271E+02 -0.11862220289E+02  0.34318848348E+02  0.47333922824E+02  0.10566000000E+00 0. -1.
         23    2    1    0    0    0 -0.15900591470E+02 -0.12927259519E+02  0.21377792180E+02  0.95386610355E+02  0.90673328982E+02 0.  0.
         13    1    3    3    0    0 -0.46264936741E+02 -0.10650392305E+01 -0.12941056167E+02  0.48052687531E+02  0.10566000000E+00 0.  1.
         22    1    1    0    0    0  0.15900591470E+02  0.12927259519E+02 -0.21377792180E+02  0.29613389645E+02  0.00000000000E+00 0. -1.
</event>
<event>
 5    1  0.3125560E-003  0.9118800E+02  0.7818608E-02  0.1130116E+00
         25   -1    0    0    0    0  0.00000000000E+00  0.00000000000E+00  0.99999998245E-14  0.12500000000E+03  0.12500000000E+03 0.  0.
        -13    1    3    3    0    0 -0.26762295986E+02 -0.40150879592E+01  0.28254948970E+02  0.39124093895E+02  0.10566000000E+00 0. -1.
         23    2    1    0    0    0  0.24540951899E+02  0.11682428674E+02  0.62605899045E+01  0.97108559632E+02  0.93016879694E+02 0.  0.
         13    1    3    3    0    0  0.51303247885E+02  0.15697516633E+02 -0.21994359066E+02  0.57984465737E+02  0.10566000000E+00 0.  1.
         22    1    1    0    0    0 -0.24540951899E+02 -0.11682428674E+02 -0.62605899045E+01  0.27891440368E+02  0.00000000000E+00 0.  1.
</event>
<event>
 5    1  0.3125560E-003  0.9118800E+02  0.7818608E-02  0.1130116E+00
         25   -1    0    0    0    0  0.00000000000E+00  0.00000000000E+00  0.99999998245E-14  0.12500000000E+03  0.12500000000E+03 0.  0.
        -13    1    3    3    0    0 -0.49938453416E+02  0.89944177505E+01  0.74603887693E+01  0.51287593479E+02  0.10566000000E+00 0. -1.
         23    2    1    0    0    0 -0.13601721379E+02  0.18292253597E+02 -0.17431842747E+02  0.96303615076E+02  0.91928797279E+02 0.  0.
         13    1    3    3    0    0  0.36336732037E+02  0.92978358469E+01 -0.24892231516E+02  0.45016021597E+02  0.10566000000E+00 0.  1.
         22    1    1    0    0    0  0.13601721379E+02 -0.18292253597E+02  0.17431842747E+02  0.28696384924E+02  0.00000000000E+00 0. -1.
</event>
<event>
 5    1  0.3125560E-003  0.9118800E+02  0.7818608E-02  0.1130116E+00
         25   -1    0    0    0    0  0.00000000000E+00  0.00000000000E+00  0.99999998245E-14  0.12500000000E+03  0.12500000000E+03 0.  0.
        -13    1    3    3    0    0 -0.13940634730E+02  0.37733640182E+02 -0.14786774956E+02  0.42858240464E+02  0.10566000000E+00 0.  1.
         23    2    1    0    0    0  0.18085797374E+02 -0.54662967632E+01 -0.20717346656E+02  0.96961010727E+02  0.92818385473E+02 0.  0.
         13    1    3    3    0    0  0.32026432105E+02 -0.43199936945E+02 -0.59305716996E+01  0.54102770263E+02  0.10566000000E+00 0. -1.
         22    1    1    0    0    0 -0.18085797374E+02  0.54662967632E+01  0.20717346656E+02  0.28038989273E+02  0.00000000000E+00 0. -1.
</event>
<event>
 5    1  0.3125560E-003  0.9118800E+02  0.7818608E-02  0.1130116E+00
         25   -1    0    0    0    0  0.00000000000E+00  0.00000000000E+00  0.99999998245E-14  0.12500000000E+03  0.12500000000E+03 0.  0.
        -13    1    3    3    0    0 -0.40745228673E+02  0.24218505739E+02 -0.55658078378E+01  0.47725245529E+02  0.10566000000E+00 0.  1.
         23    2    1    0    0    0  0.55569770855E+01  0.29456823593E+02 -0.64769567408E+01  0.94331850087E+02  0.89207412930E+02 0.  0.
         13    1    3    3    0    0  0.46302205759E+02  0.52383178539E+01 -0.91114890304E+00  0.46606604558E+02  0.10566000000E+00 0. -1.
         22    1    1    0    0    0 -0.55569770855E+01 -0.29456823593E+02  0.64769567408E+01  0.30668149913E+02  0.00000000000E+00 0.  1.
</event>
<event>
 5    1  0.3125560E-003  0.9118800E+02  0.7818608E-02  0.1130116E+00
         25   -1    0    0    0    0  0.00000000000E+00  0.00000000000E+00  0.99999998245E-14  0.12500000000E+03  0.12500000000E+03 0.  0.
        -13    1    3    3    0    0 -0.13559686656E+02 -0.38201130695E+02  0.75167200207E+00  0.40543404685E+02  0.10566000000E+00 0. -1.
         23    2    1    0    0    0 -0.20264094137E+02  0.17164235179E+02 -0.85869332176E+01  0.97089788562E+02  0.92991650918E+02 0.  0.
         13    1    3    3    0    0 -0.67044074810E+01  0.55365365874E+02 -0.93386052197E+01  0.56546383877E+02  0.10566000000E+00 0.  1.
         22    1    1    0    0    0  0.20264094137E+02 -0.17164235179E+02  0.85869332176E+01  0.27910211438E+02  0.00000000000E+00 0.  1.
</event>
<event>
 5    1  0.3125560E-003  0.9118800E+02  0.7818608E-02  0.1130116E+00
         25   -1    0    0    0    0  0.00000000000E+00  0.00000000000E+00  0.99999998245E-14  0.12500000000E+03  0.12500000000E+03 0.  0.
        -13    1    3    3    0    0  0.43934972311E+01 -0.17096199531E+02  0.33948705988E+02  0.38263672832E+02  0.10566000000E+00 0.  1.
         23    2    1    0    0    0 -0.12511806826E+02 -0.18300713793E+02 -0.20203357296E+02  0.95006049253E+02  0.90147170301E+02 0.  0.
         13    1    3    3    0    0 -0.16905304057E+02 -0.12045142628E+01 -0.54152063284E+02  0.56742376421E+02  0.10566000000E+00 0. -1.
         22    1    1    0    0    0  0.12511806826E+02  0.18300713793E+02  0.20203357296E+02  0.29993950747E+02  0.00000000000E+00 0. -1.
</event>
<event>
 5    1  0.3125560E-003  0.9118800E+02  0.7818608E-02  0.1130116E+00
         25   -1    0    0    0    0  0.00000000000E+00  0.00000000000E+00  0.99999998245E-14  0.12500000000E+03  0.12500000000E+03 0.  0.
        -13    1    3    3    0    0  0.43586276944E+02  0.28150085800E+02 -0.24836071858E+02  0.57524190545E+02  0.10566000000E+00 0.  1.
         23    2    1    0    0    0  0.14121698480E+02  0.26473328466E+02 -0.18378807083E+01  0.94939439568E+02  0.90054760518E+02 0.  0.
         13    1    3    3    0    0 -0.29464578464E+02 -0.16767573348E+01  0.22998191150E+02  0.37415249023E+02  0.10566000000E+00 0. -1.
         22    1    1    0    0    0 -0.14121698480E+02 -0.26473328466E+02  0.18378807083E+01  0.30060560432E+02  0.00000000000E+00 0.  1.
</event>
<event>
 5    1  0.3125560E-003  0.9118800E+02  0.7818608E-02  0.1130116E+00
         25   -1    0    0    0    0  0.00000000000E+00  0.00000000000E+00  0.99999998245E-14  0.12500000000E+03  0.12500000000E+03 0.  0.
        -13    1    3    3    0    0 -0.48913472343E+01  0.38735048914E+02 -0.61195393493E+01  0.39519478969E+02  0.10566000000E+00 0.  1.
         23    2    1    0    0    0 -0.13101800439E+02 -0.10532256397E+02 -0.26625446333E+02  0.93511907139E+02  0.88050989686E+02 0.  0.
         13    1    3    3    0    0 -0.82104532049E+01 -0.49267305311E+02 -0.20505906984E+02  0.53992428170E+02  0.10566000000E+00 0. -1.
         22    1    1    0    0    0  0.13101800439E+02  0.10532256397E+02  0.26625446333E+02  0.31488092861E+02  0.00000000000E+00 0. -1.
</event>
<event>
 5    1  0.3125560E-003  0.9118800E+02  0.7818608E-02  0.1130116E+00
         25   -1    0    0    0    0  0.00000000000E+00  0.00000000000E+00  0.99999998245E-14  0.12500000000E+03  0.12500000000E+03 0.  0.
        -13    1    3    3    0    0 -0.47585296723E+02  0.27575924271E+01 -0.89430314739E+01  0.48496945844E+02  0.10566000000E+00 0. -1.
         23    2    1    0    0    0 -0.15499628830E+02 -0.68718689688E+01  0.24088626391E+02  0.95542861673E+02  0.90888477919E+02 0.  0.
         13    1    3    3    0    0  0.32085667893E+02 -0.96294613958E+01  0.33031657864E+02  0.47045915829E+02  0.10566000000E+00 0.  1.
         22    1    1    0    0    0  0.15499628830E+02  0.68718689688E+01 -0.24088626391E+02  0.29457138327E+02  0.00000000000E+00 0.  1.
</event>
<event>
 5    1  0.3125560E-003  0.9118800E+02  0.7818608E-02  0.1130116E+00
         25   -1    0    0    0    0  0.00000000000E+00  0.00000000000E+00  0.99999998245E-14  0.12500000000E+03  0.12500000000E+03 0.  0.
        -13    1    3    3    0    0 -0.62999375973E+01 -0.44475062324E+02 -0.34288165804E+02  0.56510263322E+02  0.10566000000E+00 0. -1.
         23    2    1    0    0    0  0.91726647396E+01 -0.27056973867E+02 -0.19540260705E+01  0.96363732241E+02  0.92010505163E+02 0.  0.
         13    1    3    3    0    0  0.15472602337E+02  0.17418088457E+02  0.32334139733E+02  0.39853468919E+02  0.10566000000E+00 0.  1.
         22    1    1    0    0    0 -0.91726647396E+01  0.27056973867E+02  0.19540260705E+01  0.28636267759E+02  0.00000000000E+00 0. -1.
</event>
<event>
 5    1  0.3125560E-003  0.9118800E+02  0.7818608E-02  0.1130116E+00
         25   -1    0    0    0    0  0.00000000000E+00  0.00000000000E+00  0.99999998245E-14  0.12500000000E+03  0.12500000000E+03 0.  0.
        -13    1    3    3    0    0 -0.28572330546E+02 -0.22377354293E+02  0.26303669604E+01  0.36387553536E+02  0.10566000000E+00 0.  1.
         23    2    1    0    0    0  0.24047074430E+02  0.55262247752E+01  0.13413104585E+02  0.96915977434E+02  0.92757718592E+02 0.  0.
         13    1    3    3    0    0  0.52619404976E+02  0.27903579068E+02  0.10782737624E+02  0.60528423898E+02  0.10566000000E+00 0. -1.
         22    1    1    0    0    0 -0.24047074430E+02 -0.55262247752E+01 -0.13413104585E+02  0.28084022566E+02  0.00000000000E+00 0. -1.
</event>
<event>
 5    1  0.3125560E-003  0.9118800E+02  0.7818608E-02  0.1130116E+00
         25   -1    0    0    0    0  0.00000000000E+00  0.00000000000E+00  0.99999998245E-14  0.12500000000E+03  0.12500000000E+03 0.  0.
        -13    1    3    3    0    0 -0.53515698266E+02 -0.18461996774E+01 -0.79830238187E+01  0.54139433387E+02  0.10566000000E+00 0.  1.
         23    2    1    0    0    0 -0.18297842379E+02  0.21177022371E+02  0.24297802400E+00  0.97011853392E+02  0.92886830864E+02 0.  0.
         13    1    3    3    0    0  0.35217855887E+02  0.23023222049E+02  0.82260018427E+01  0.42872420005E+02  0.10566000000E+00 0. -1.
         22    1    1    0    0    0  0.18297842379E+02 -0.21177022371E+02 -0.24297802400E+00  0.27988146608E+02  0.00000000000E+00 0.  1.
</event>
<event>
 5    1  0.3125560E-003  0.9118800E+02  0.7818608E-02  0.1130116E+00
         25   -1    0    0    0    0  0.00000000000E+00  0.00000000000E+00  0.99999998245E-14  0.12500000000E+03  0.12500000000E+03 0.  0.
        -13    1    3    3    0    0  0.32727642161E+02 -0.29702340070E+01 -0.25679322273E+02  0.41705630410E+02  0.10566000000E+00 0. -1.
         23    2    1    0    0    0 -0.15810937090E+02 -0.21929705759E+02 -0.68791780064E+01  0.97103390593E+02  0.93009933062E+02 0.  0.
         13    1    3    3    0    0 -0.48538579251E+02 -0.18959471752E+02  0.18800144267E+02  0.55397760183E+02  0.10566000000E+00 0.  1.
         22    1    1    0    0    0  0.15810937090E+02  0.21929705759E+02  0.68791780064E+01  0.27896609407E+02  0.00000000000E+00 0.  1.
</event>
<event>
 5    1  0.3125560E-003  0.9118800E+02  0.7818608E-02  0.1130116E+00
         25   -1    0    0    0    0  0.00000000000E+00  0.00000000000E+00  0.99999998245E-14  0.12500000000E+03  0.12500000000E+03 0.  0.
        -13    1    3    3    0    0  0.23715238849E+02  0.33071101748E+02 -0.30974073828E+02  0.51142103379E+02  0.10566000000E+00 0.  1.
         23    2    1    0    0    0  0.40998538567E+01 -0.67299499067E+01 -0.28331448547E+02  0.95592993961E+02  0.90957399316E+02 0.  0.
         13    1    3    3    0    0 -0.19615384992E+02 -0.39801051654E+02  0.26426252815E+01  0.44450890583E+02  0.10566000000E+00 0. -1.
         22    1    1    0    0    0 -0.40998538567E+01  0.67299499067E+01  0.28331448547E+02  0.29407006039E+02  0.00000000000E+00 0.  1.
</event>
<event>
 5    1  0.3125560E-003  0.9118800E+02  0.7818608E-02  0.1130116E+00
         25   -1    0    0    0    0  0.00000000000E+00  0.00000000000E+00  0.99999998245E-14  0.12500000000E+03  0.12500000000E+03 0.  0.
        -13    1    3    3    0    0 -0.22080216818E+02  0.51782628632E+02  0.25402926497E+02  0.61759990621E+02  0.10566000000E+00 0.  1.
         23    2    1    0    0    0 -0.13805080525E+02  0.27726918689E+02  0.67651093633E+01  0.93296230934E+02  0.87744274649E+02 0.  0.
         13    1    3    3    0    0  0.82751362929E+01 -0.24055709944E+02 -0.18637817134E+02  0.31536240314E+02  0.10566000000E+00 0. -1.
         22    1    1    0    0    0  0.13805080525E+02 -0.27726918689E+02 -0.67651093633E+01  0.31703769066E+02  0.00000000000E+00 0.  1.
</event>
<event>
 5    1  0.3125560E-003  0.9118800E+02  0.7818608E-02  0.1130116E+00
         25   -1    0    0    0    0  0.00000000000E+00  0.00000000000E+00  0.99999998245E-14  0.12500000000E+03  0.12500000000E+03 0.  0.
        -13    1    3    3    0    0  0.19026426477E+02 -0.48035279849E+02 -0.20259980004E+02  0.55496585197E+02  0.10566000000E+00 0. -1.
         23    2    1    0    0    0 -0.98026388830E+01 -0.24922221953E+02 -0.18426192347E+02  0.92492563304E+02  0.86591805767E+02 0.  0.
         13    1    3    3    0    0 -0.28829065360E+02  0.23113057897E+02  0.18337876567E+01  0.36995978107E+02  0.10566000000E+00 0.  1.
         22    1    1    0    0    0  0.98026388830E+01  0.24922221953E+02  0.18426192347E+02  0.32507436696E+02  0.00000000000E+00 0. -1.
</event>
<event>
 5    1  0.3125560E-003  0.9118800E+02  0.7818608E-02  0.1130116E+00
         25   -1    0    0    0    0  0.00000000000E+00  0.00000000000E+00  0.99999998245E-14  0.12500000000E+03  0.12500000000E+03 0.  0.
        -13    1    3    3    0    0  0.17479713517E+02 -0.19297989811E+02 -0.44882617963E+02  0.51888470345E+02  0.10566000000E+00 0. -1.
         23    2    1    0    0    0  0.27273341830E+02 -0.11047283751E+02 -0.33102711488E+01  0.95388590916E+02  0.90676059294E+02 0.  0.
         13    1    3    3    0    0  0.97936283127E+01  0.82507060601E+01  0.41572346815E+02  0.43500120572E+02  0.10566000000E+00 0.  1.
         22    1    1    0    0    0 -0.27273341830E+02  0.11047283751E+02  0.33102711488E+01  0.29611409084E+02  0.00000000000E+00 0. -1.
</event>
<event>
 5    1  0.3125560E-003  0.9118800E+02  0.7818608E-02  0.1130116E+00
         25   -1    0    0    0    0  0.00000000000E+00  0.00000000000E+00  0.99999998245E-14  0.12500000000E+03  0.12500000000E+03 0.  0.
        -13    1    3    3    0    0 -0.53606452480E+02  0.15790448028E+02  0.23246873683E+02  0.60526178605E+02  0.10566000000E+00 0.  1.
         23    2    1    0    0    0 -0.21751902817E+02  0.17271230459E+02  0.68084995733E+01  0.96402861259E+02  0.92063648172E+02 0.  0.
         13    1    3    3    0    0  0.31854549663E+02  0.14807824317E+01 -0.16438374110E+02  0.35876682654E+02  0.10566000000E+00 0. -1.
         22    1    1    0    0    0  0.21751902817E+02 -0.17271230459E+02 -0.68084995733E+01  0.28597138741E+02  0.00000000000E+00 0.  1.
</event>
<event>
 5    1  0.3125560E-003  0.9118800E+02  0.7818608E-02  0.1130116E+00
         25   -1    0    0    0    0  0.00000000000E+00  0.00000000000E+00  0.99999998245E-14  0.12500000000E+03  0.12500000000E+03 0.  0.
        -13    1    3    3    0    0  0.37472638319E+02 -0.19006965183E+02  0.18689626677E+02  0.45986700875E+02  0.10566000000E+00 0.  1.
         23    2    1    0    0    0  0.12670246723E+02  0.23600120845E+02  0.11660904987E+02  0.95785661721E+02  0.91221792519E+02 0.  0.
         13    1    3    3    0    0 -0.24802391596E+02  0.42607086028E+02 -0.70287216894E+01  0.49798960846E+02  0.10566000000E+00 0. -1.
         22    1    1    0    0    0 -0.12670246723E+02 -0.23600120845E+02 -0.11660904987E+02  0.29214338279E+02  0.00000000000E+00 0.  1.
</event>
<event>
 5    1  0.3125560E-003  0.9118800E+02  0.7818608E-02  0.1130116E+00
         25   -1    0    0    0    0  0.00000000000E+00  0.00000000000E+00  0.99999998245E-14  0.12500000000E+03  0.12500000000E+03 0.  0.
        -13    1    3    3    0    0  0.12604520951E+02  0.38023172363E+02  0.12061659081E+01  0.40076197239E+02  0.10566000000E+00 0.  1.
         23    2    1    0    0    0 -0.29444156506E+02  0.18770767943E+02 -0.11841620362E+02  0.88128275680E+02  0.80044168556E+02 0.  0.
         13    1    3    3    0    0 -0.42048677457E+02 -0.19252404420E+02 -0.13047786270E+02  0.48052078440E+02  0.10566000000E+00 0. -1.
         22    1    1    0    0    0  0.29444156506E+02 -0.18770767943E+02  0.11841620362E+02  0.36871724320E+02  0.00000000000E+00 0.  1.
</event>
<event>
 5    1  0.3125560E-003  0.9118800E+02  0.7818608E-02  0.1130116E+00
         25   -1    0    0    0    0  0.00000000000E+00  0.00000000000E+00  0.99999998245E-14  0.12500000000E+03  0.12500000000E+03 0.  0.
        -13    1    3    3    0    0 -0.41278065406E+02 -0.26672830622E+02 -0.31283453009E+02  0.58257910821E+02  0.10566000000E+00 0. -1.
         23    2    1    0    0    0 -0.96446440854E+01 -0.24828396989E+02 -0.94561446724E+01  0.96735408571E+02  0.92514064568E+02 0.  0.
         13    1    3    3    0    0  0.31633421320E+02  0.18444336331E+01  0.21827308337E+02  0.38477497750E+02  0.10566000000E+00 0.  1.
         22    1    1    0    0    0  0.96446440854E+01  0.24828396989E+02  0.94561446724E+01  0.28264591429E+02  0.00000000000E+00 0. -1.
</event>
<event>
 5    1  0.3125560E-003  0.9118800E+02  0.7818608E-02  0.1130116E+00
         25   -1    0    0    0    0  0.00000000000E+00  0.00000000000E+00  0.99999998245E-14  0.12500000000E+03  0.12500000000E+03 0.  0.
        -13    1    3    3    0    0 -0.31897630701E+02  0.24028504266E+00 -0.23854548538E+02  0.39831736483E+02  0.10566000000E+00 0. -1.
         23    2    1    0    0    0 -0.97262266526E+01 -0.35032194328E+01  0.27353031311E+02  0.95758584966E+02  0.91184682055E+02 0.  0.
         13    1    3    3    0    0  0.22171404048E+02 -0.37435044755E+01  0.51207579849E+02  0.55926848483E+02  0.10566000000E+00 0.  1.
         22    1    1    0    0    0  0.97262266526E+01  0.35032194328E+01 -0.27353031311E+02  0.29241415034E+02  0.00000000000E+00 0.  1.
</event>
<event>
 5    1  0.3125560E-003  0.9118800E+02  0.7818608E-02  0.1130116E+00
         25   -1    0    0    0    0  0.00000000000E+00  0.00000000000E+00  0.99999998245E-14  0.12500000000E+03  0.12500000000E+03 0.  0.
        -13    1    3    3    0    0 -0.10635355425E+02 -0.25335508103E+02  0.38067890786E+02  0.46948633940E+02  0.10566000000E+00 0. -1.
         23    2    1    0    0    0 -0.26702438080E+01  0.19788829591E+02  0.21458259711E+02  0.95688144235E+02  0.91088067598E+02 0.  0.
         13    1    3    3    0    0  0.79651116168E+01  0.45124337694E+02 -0.16609631076E+02  0.48739510296E+02  0.10566000000E+00 0.  1.
         22    1    1    0    0    0  0.26702438080E+01 -0.19788829591E+02 -0.21458259711E+02  0.29311855765E+02  0.00000000000E+00 0.  1.
</event>
<event>
 5    1  0.3125560E-003  0.9118800E+02  0.7818608E-02  0.1130116E+00
         25   -1    0    0    0    0  0.00000000000E+00  0.00000000000E+00  0.99999998245E-14  0.12500000000E+03  0.12500000000E+03 0.  0.
        -13    1    3    3    0    0 -0.23857063929E+02  0.10492747597E+02  0.29941963993E+02  0.39696216737E+02  0.10566000000E+00 0.  1.
         23    2    1    0    0    0 -0.20057510035E+02 -0.21203638463E+02 -0.12870908045E+02  0.93100810876E+02  0.87465437283E+02 0.  0.
         13    1    3    3    0    0  0.37995538943E+01 -0.31696386059E+02 -0.42812872037E+02  0.53404594139E+02  0.10566000000E+00 0. -1.
         22    1    1    0    0    0  0.20057510035E+02  0.21203638463E+02  0.12870908045E+02  0.31899189124E+02  0.00000000000E+00 0. -1.
</event>
<event>
 5    1  0.3125560E-003  0.9118800E+02  0.7818608E-02  0.1130116E+00
         25   -1    0    0    0    0  0.00000000000E+00  0.00000000000E+00  0.99999998245E-14  0.12500000000E+03  0.12500000000E+03 0.  0.
        -13    1    3    3    0    0  0.85891246342E+00 -0.11264366393E+02 -0.37964947491E+02  0.39610252245E+02  0.10566000000E+00 0.  1.
         23    2    1    0    0    0 -0.17560124527E+02 -0.12209256266E+02  0.17058675655E+02  0.97642691524E+02  0.93731920288E+02 0.  0.
         13    1    3    3    0    0 -0.18419036990E+02 -0.94488987274E+00  0.55023623146E+02  0.58032439279E+02  0.10566000000E+00 0. -1.
         22    1    1    0    0    0  0.17560124527E+02  0.12209256266E+02 -0.17058675655E+02  0.27357308476E+02  0.00000000000E+00 0.  1.
</event>
<event>
 5    1  0.3125560E-003  0.9118800E+02  0.7818608E-02  0.1130116E+00
         25   -1    0    0    0    0  0.00000000000E+00  0.00000000000E+00  0.99999998245E-14  0.12500000000E+03  0.12500000000E+03 0.  0.
        -13    1    3    3    0    0 -0.10620575020E+02 -0.22621643118E+02  0.55929053707E+02  0.61258514214E+02  0.10566000000E+00 0. -1.
         23    2    1    0    0    0  0.24083336407E+01 -0.59558452744E+01  0.27873299059E+02  0.96395927488E+02  0.92054233319E+02 0.  0.
         13    1    3    3    0    0  0.13028908661E+02  0.16665797844E+02 -0.28055754649E+02  0.35137413274E+02  0.10566000000E+00 0.  1.
         22    1    1    0    0    0 -0.24083336407E+01  0.59558452744E+01 -0.27873299059E+02  0.28604072512E+02  0.00000000000E+00 0. -1.
</event>
<event>
 5    1  0.3125560E-003  0.9118800E+02  0.7818608E-02  0.1130116E+00
         25   -1    0    0    0    0  0.00000000000E+00  0.00000000000E+00  0.99999998245E-14  0.12500000000E+03  0.12500000000E+03 0.  0.
        -13    1    3    3    0    0 -0.20537470596E+02  0.49130781711E+01 -0.25329506250E+02  0.32977584606E+02  0.10566000000E+00 0.  1.
         23    2    1    0    0    0  0.32365936129E+02 -0.25260123996E+01  0.96378157413E+00  0.92521338773E+02  0.86633334769E+02 0.  0.
         13    1    3    3    0    0  0.52903406725E+02 -0.74390905707E+01  0.26293287824E+02  0.59543754167E+02  0.10566000000E+00 0. -1.
         22    1    1    0    0    0 -0.32365936129E+02  0.25260123996E+01 -0.96378157413E+00  0.32478661227E+02  0.00000000000E+00 0. -1.
</event>
<event>
 5    1  0.3125560E-003  0.9118800E+02  0.7818608E-02  0.1130116E+00
         25   -1    0    0    0    0  0.00000000000E+00  0.00000000000E+00  0.99999998245E-14  0.12500000000E+03  0.12500000000E+03 0.  0.
        -13    1    3    3    0    0 -0.63114110238E+01  0.47799375668E+02  0.28461982915E+02  0.55988479698E+02  0.10566000000E+00 0. -1.
         23    2    1    0    0    0  0.10344839108E+02  0.27214928599E+02 -0.13396104959E+01  0.95854458469E+02  0.91316015120E+02 0.  0.
         13    1    3    3    0    0  0.16656250132E+02 -0.20584447069E+02 -0.29801593411E+02  0.39865978772E+02  0.10566000000E+00 0.  1.
         22    1    1    0    0    0 -0.10344839108E+02 -0.27214928599E+02  0.13396104959E+01  0.29145541531E+02  0.00000000000E+00 0. -1.
</event>
<event>
 5    1  0.3125560E-003  0.9118800E+02  0.7818608E-02  0.1130116E+00
         25   -1    0    0    0    0  0.00000000000E+00  0.00000000000E+00  0.99999998245E-14  0.12500000000E+03  0.12500000000E+03 0.  0.
        -13    1    3    3    0    0 -0.12870236039E+02 -0.12545441416E+02  0.87757092701E+01  0.20001382784E+02  0.10566000000E+00 0.  1.
         23    2    1    0    0    0  0.48138296339E+01  0.36688162847E+01 -0.45371783362E+02  0.79226296915E+02  0.64665092815E+02 0.  0.
         13    1    3    3    0    0  0.17684065673E+02  0.16214257701E+02 -0.54147492632E+02  0.59224914131E+02  0.10566000000E+00 0. -1.
         22    1    1    0    0    0 -0.48138296339E+01 -0.36688162847E+01  0.45371783362E+02  0.45773703085E+02  0.00000000000E+00 0. -1.
</event>
<event>
 5    1  0.3125560E-003  0.9118800E+02  0.7818608E-02  0.1130116E+00
         25   -1    0    0    0    0  0.00000000000E+00  0.00000000000E+00  0.99999998245E-14  0.12500000000E+03  0.12500000000E+03 0.  0.
        -13    1    3    3    0    0 -0.14991205697E+02  0.61324350436E+01 -0.33790865722E+02  0.37472346845E+02  0.10566000000E+00 0.  1.
         23    2    1    0    0    0  0.16325997372E+02 -0.22473993636E+02  0.70361779854E+01  0.96344697161E+02  0.91984641600E+02 0.  0.
         13    1    3    3    0    0  0.31317203069E+02 -0.28606428680E+02  0.40827043707E+02  0.58872350316E+02  0.10566000000E+00 0. -1.
         22    1    1    0    0    0 -0.16325997372E+02  0.22473993636E+02 -0.70361779854E+01  0.28655302839E+02  0.00000000000E+00 0. -1.
</event>
<event>
 5    1  0.3125560E-003  0.9118800E+02  0.7818608E-02  0.1130116E+00
         25   -1    0    0    0    0  0.00000000000E+00  0.00000000000E+00  0.99999998245E-14  0.12500000000E+03  0.12500000000E+03 0.  0.
        -13    1    3    3    0    0  0.39004479702E+02  0.88429225010E+01  0.33948497171E+02  0.52460064234E+02  0.10566000000E+00 0.  1.
         23    2    1    0    0    0  0.24042175163E+02  0.15745706170E+02 -0.59710382043E+01  0.95646861384E+02  0.91031397584E+02 0.  0.
         13    1    3    3    0    0 -0.14962304539E+02  0.69027836690E+01 -0.39919535375E+02  0.43186797151E+02  0.10566000000E+00 0. -1.
         22    1    1    0    0    0 -0.24042175163E+02 -0.15745706170E+02  0.59710382043E+01  0.29353138616E+02  0.00000000000E+00 0. -1.
</event>
<event>
 5    1  0.3125560E-003  0.9118800E+02  0.7818608E-02  0.1130116E+00
         25   -1    0    0    0    0  0.00000000000E+00  0.00000000000E+00  0.99999998245E-14  0.12500000000E+03  0.12500000000E+03 0.  0.
        -13    1    3    3    0    0 -0.16299625967E+02 -0.22861789407E+02  0.53099047175E+02  0.60065457598E+02  0.10566000000E+00 0. -1.
         23    2    1    0    0    0 -0.68399959352E+01  0.90552768228E+00  0.28931681045E+02  0.95256972365E+02  0.90494436797E+02 0.  0.
         13    1    3    3    0    0  0.94596300315E+01  0.23767317089E+02 -0.24167366129E+02  0.35191514767E+02  0.10566000000E+00 0.  1.
         22    1    1    0    0    0  0.68399959352E+01 -0.90552768228E+00 -0.28931681045E+02  0.29743027635E+02  0.00000000000E+00 0. -1.
</event>
<event>
 5    1  0.3125560E-003  0.9118800E+02  0.7818608E-02  0.1130116E+00
         25   -1    0    0    0    0  0.00000000000E+00  0.00000000000E+00  0.99999998245E-14  0.12500000000E+03  0.12500000000E+03 0.  0.
        -13    1    3    3    0    0 -0.34471632997E+01  0.16268843483E+02 -0.33565422546E+02  0.37459404130E+02  0.10566000000E+00 0. -1.
         23    2    1    0    0    0 -0.21501281915E+02 -0.10215547296E+02  0.15879709058E+02  0.96384834610E+02  0.92039169121E+02 0.  0.
         13    1    3    3    0    0 -0.18054118615E+02 -0.26484390778E+02  0.49445131604E+02  0.58925430480E+02  0.10566000000E+00 0.  1.
         22    1    1    0    0    0  0.21501281915E+02  0.10215547296E+02 -0.15879709058E+02  0.28615165390E+02  0.00000000000E+00 0.  1.
</event>
<event>
 5    1  0.3125560E-003  0.9118800E+02  0.7818608E-02  0.1130116E+00
         25   -1    0    0    0    0  0.00000000000E+00  0.00000000000E+00  0.99999998245E-14  0.12500000000E+03  0.12500000000E+03 0.  0.
        -13    1    3    3    0    0 -0.52732132586E+02  0.57446337940E+01  0.15864830091E+01  0.53067944344E+02  0.10566000000E+00 0.  1.
         23    2    1    0    0    0 -0.15476430011E+02  0.20670899684E+02 -0.13397869322E+02  0.95908611550E+02  0.91390113729E+02 0.  0.
         13    1    3    3    0    0  0.37255702576E+02  0.14926265890E+02 -0.14984352331E+02  0.42840667206E+02  0.10566000000E+00 0. -1.
         22    1    1    0    0    0  0.15476430011E+02 -0.20670899684E+02  0.13397869322E+02  0.29091388450E+02  0.00000000000E+00 0.  1.
</event>
<event>
 5    1  0.3125560E-003  0.9118800E+02  0.7818608E-02  0.1130116E+00
         25   -1    0    0    0    0  0.00000000000E+00  0.00000000000E+00  0.99999998245E-14  0.12500000000E+03  0.12500000000E+03 0.  0.
        -13    1    3    3    0    0  0.12294412793E+02  0.16457210232E+02 -0.29663505248E+02  0.36082226403E+02  0.10566000000E+00 0. -1.
         23    2    1    0    0    0 -0.74586582862E+01  0.43594138951E+02 -0.15793631113E+00  0.80772118769E+02  0.67587200654E+02 0.  0.
         13    1    3    3    0    0 -0.19753071079E+02  0.27136928719E+02  0.29505568937E+02  0.44689892366E+02  0.10566000000E+00 0.  1.
         22    1    1    0    0    0  0.74586582862E+01 -0.43594138951E+02  0.15793631113E+00  0.44227881231E+02  0.00000000000E+00 0.  1.
</event>
<event>
 5    1  0.3125560E-003  0.9118800E+02  0.7818608E-02  0.1130116E+00
         25   -1    0    0    0    0  0.00000000000E+00  0.00000000000E+00  0.99999998245E-14  0.12500000000E+03  0.12500000000E+03 0.  0.
        -13    1    3    3    0    0  0.24088131950E+02  0.49922294705E+02 -0.10094339122E+02  0.56341640514E+02  0.10566000000E+00 0. -1.
         23    2    1    0    0    0 -0.75405342571E+01  0.24688879293E+02 -0.11299042288E+02  0.96820774066E+02  0.92629333995E+02 0.  0.
         13    1    3    3    0    0 -0.31628666207E+02 -0.25233415412E+02 -0.12047031661E+01  0.40479133552E+02  0.10566000000E+00 0.  1.
         22    1    1    0    0    0  0.75405342571E+01 -0.24688879293E+02  0.11299042288E+02  0.28179225934E+02  0.00000000000E+00 0. -1.
</event>
<event>
 5    1  0.3125560E-003  0.9118800E+02  0.7818608E-02  0.1130116E+00
         25   -1    0    0    0    0  0.00000000000E+00  0.00000000000E+00  0.99999998245E-14  0.12500000000E+03  0.12500000000E+03 0.  0.
        -13    1    3    3    0    0 -0.26907229831E+02  0.25109652738E+01 -0.24665839208E+02  0.36588505732E+02  0.10566000000E+00 0.  1.
         23    2    1    0    0    0  0.39092936138E+01  0.17385119298E+02  0.23398248282E+02  0.95589067131E+02  0.90952002632E+02 0.  0.
         13    1    3    3    0    0  0.30816523445E+02  0.14874154025E+02  0.48064087489E+02  0.59000561399E+02  0.10566000000E+00 0. -1.
         22    1    1    0    0    0 -0.39092936138E+01 -0.17385119298E+02 -0.23398248282E+02  0.29410932869E+02  0.00000000000E+00 0. -1.
</event>
<event>
 5    1  0.3125560E-003  0.9118800E+02  0.7818608E-02  0.1130116E+00
         25   -1    0    0    0    0  0.00000000000E+00  0.00000000000E+00  0.99999998245E-14  0.12500000000E+03  0.12500000000E+03 0.  0.
        -13    1    3    3    0    0 -0.29582000706E+02 -0.16951267469E+02  0.13460363912E+02  0.36655597052E+02  0.10566000000E+00 0. -1.
         23    2    1    0    0    0  0.25663689165E+02  0.27005830092E+01  0.14691711391E+02  0.95305480745E+02  0.90561416654E+02 0.  0.
         13    1    3    3    0    0  0.55245689872E+02  0.19651850478E+02  0.12313474792E+01  0.58649883693E+02  0.10566000000E+00 0.  1.
         22    1    1    0    0    0 -0.25663689165E+02 -0.27005830092E+01 -0.14691711391E+02  0.29694519255E+02  0.00000000000E+00 0.  1.
</event>
<event>
 5    1  0.3125560E-003  0.9118800E+02  0.7818608E-02  0.1130116E+00
         25   -1    0    0    0    0  0.00000000000E+00  0.00000000000E+00  0.99999998245E-14  0.12500000000E+03  0.12500000000E+03 0.  0.
        -13    1    3    3    0    0  0.15361783703E+02 -0.37543067617E+02 -0.14583578815E+02  0.43106359852E+02  0.10566000000E+00 0. -1.
         23    2    1    0    0    0  0.22529420115E+02  0.15250121443E+02 -0.68794782853E+01  0.96938136266E+02  0.92787574957E+02 0.  0.
         13    1    3    3    0    0  0.71676364119E+01  0.52793189060E+02  0.77041005299E+01  0.53831776414E+02  0.10566000000E+00 0.  1.
         22    1    1    0    0    0 -0.22529420115E+02 -0.15250121443E+02  0.68794782853E+01  0.28061863734E+02  0.00000000000E+00 0.  1.
</event>
<event>
 5    1  0.3125560E-003  0.9118800E+02  0.7818608E-02  0.1130116E+00
         25   -1    0    0    0    0  0.00000000000E+00  0.00000000000E+00  0.99999998245E-14  0.12500000000E+03  0.12500000000E+03 0.  0.
        -13    1    3    3    0    0 -0.11045243250E+02 -0.43963455340E+02  0.13792621322E+02  0.47381751454E+02  0.10566000000E+00 0. -1.
         23    2    1    0    0    0  0.20636539222E+02 -0.17754098521E+02 -0.11270972177E+02  0.95536300654E+02  0.90879454022E+02 0.  0.
         13    1    3    3    0    0  0.31681782471E+02  0.26209356819E+02 -0.25063593499E+02  0.48154549199E+02  0.10566000000E+00 0.  1.
         22    1    1    0    0    0 -0.20636539222E+02  0.17754098521E+02  0.11270972177E+02  0.29463699346E+02  0.00000000000E+00 0.  1.
</event>
<event>
 5    1  0.3125560E-003  0.9118800E+02  0.7818608E-02  0.1130116E+00
         25   -1    0    0    0    0  0.00000000000E+00  0.00000000000E+00  0.99999998245E-14  0.12500000000E+03  0.12500000000E+03 0.  0.
        -13    1    3    3    0    0  0.50835781618E+01  0.15336123120E+02  0.57926893705E+02  0.60137971512E+02  0.10566000000E+00 0. -1.
         23    2    1    0    0    0 -0.96083652078E+01  0.41457264077E+01  0.25146291340E+02  0.97763192229E+02  0.93892481366E+02 0.  0.
         13    1    3    3    0    0 -0.14691943370E+02 -0.11190396713E+02 -0.32780602364E+02  0.37625220717E+02  0.10566000000E+00 0.  1.
         22    1    1    0    0    0  0.96083652078E+01 -0.41457264077E+01 -0.25146291340E+02  0.27236807771E+02  0.00000000000E+00 0. -1.
</event>
<event>
 5    1  0.3125560E-003  0.9118800E+02  0.7818608E-02  0.1130116E+00
         25   -1    0    0    0    0  0.00000000000E+00  0.00000000000E+00  0.99999998245E-14  0.12500000000E+03  0.12500000000E+03 0.  0.
        -13    1    3    3    0    0 -0.10921367238E+02 -0.34446908825E+02 -0.39510194388E+02  0.53543743001E+02  0.10566000000E+00 0.  1.
         23    2    1    0    0    0  0.17245109066E+02 -0.71685914847E+01 -0.20978500532E+02  0.96912992770E+02  0.92753696382E+02 0.  0.
         13    1    3    3    0    0  0.28166476304E+02  0.27278317341E+02  0.18531693856E+02  0.43369249769E+02  0.10566000000E+00 0. -1.
         22    1    1    0    0    0 -0.17245109066E+02  0.71685914847E+01  0.20978500532E+02  0.28087007230E+02  0.00000000000E+00 0.  1.
</event>
<event>
 5    1  0.3125560E-003  0.9118800E+02  0.7818608E-02  0.1130116E+00
         25   -1    0    0    0    0  0.00000000000E+00  0.00000000000E+00  0.99999998245E-14  0.12500000000E+03  0.12500000000E+03 0.  0.
        -13    1    3    3    0    0 -0.41656756743E+02  0.20767338136E+02 -0.38786546053E+02  0.60588571813E+02  0.10566000000E+00 0. -1.
         23    2    1    0    0    0 -0.24779481806E+02  0.63327691632E+00 -0.15012724679E+02  0.96020599376E+02  0.91543158368E+02 0.  0.
         13    1    3    3    0    0  0.16877274937E+02 -0.20134061220E+02  0.23773821373E+02  0.35432027563E+02  0.10566000000E+00 0.  1.
         22    1    1    0    0    0  0.24779481806E+02 -0.63327691632E+00  0.15012724679E+02  0.28979400624E+02  0.00000000000E+00 0. -1.
</event>
<event>
 5    1  0.3125560E-003  0.9118800E+02  0.7818608E-02  0.1130116E+00
         25   -1    0    0    0    0  0.00000000000E+00  0.00000000000E+00  0.99999998245E-14  0.12500000000E+03  0.12500000000E+03 0.  0.
        -13    1    3    3    0    0  0.29680439665E+02 -0.33332493288E+02 -0.56806116744E+01  0.44991822818E+02  0.10566000000E+00 0. -1.
         23    2    1    0    0    0  0.12702628359E+02  0.10171025493E+02 -0.24704798609E+02  0.95417342900E+02  0.90715686213E+02 0.  0.
         13    1    3    3    0    0 -0.16977811306E+02  0.43503518780E+02 -0.19024186934E+02  0.50425520082E+02  0.10566000000E+00 0.  1.
         22    1    1    0    0    0 -0.12702628359E+02 -0.10171025493E+02  0.24704798609E+02  0.29582657100E+02  0.00000000000E+00 0. -1.
</event>
<event>
 5    1  0.3125560E-003  0.9118800E+02  0.7818608E-02  0.1130116E+00
         25   -1    0    0    0    0  0.00000000000E+00  0.00000000000E+00  0.99999998245E-14  0.12500000000E+03  0.12500000000E+03 0.  0.
        -13    1    3    3    0    0  0.28901907264E+02  0.26128669697E+02  0.16437867316E+02  0.42287613666E+02  0.10566000000E+00 0.  1.
         23    2    1    0    0    0  0.94486122275E+01 -0.24120753593E+02  0.12280068937E+02  0.96331426265E+02  0.91966605712E+02 0.  0.
         13    1    3    3    0    0 -0.19453295037E+02 -0.50249423290E+02 -0.41577983792E+01  0.54043812598E+02  0.10566000000E+00 0. -1.
         22    1    1    0    0    0 -0.94486122275E+01  0.24120753593E+02 -0.12280068937E+02  0.28668573735E+02  0.00000000000E+00 0. -1.
</event>
<event>
 5    1  0.3125560E-003  0.9118800E+02  0.7818608E-02  0.1130116E+00
         25   -1    0    0    0    0  0.00000000000E+00  0.00000000000E+00  0.99999998245E-14  0.12500000000E+03  0.12500000000E+03 0.  0.
        -13    1    3    3    0    0 -0.49081541364E+02  0.68502341299E+01 -0.17733834962E+02  0.52634812403E+02  0.10566000000E+00 0.  1.
         23    2    1    0    0    0 -0.21621863803E+02  0.14320967147E+02  0.14219218624E+02  0.95423298483E+02  0.90723892227E+02 0.  0.
         13    1    3    3    0    0  0.27459677560E+02  0.74707330171E+01  0.31953053585E+02  0.42788486080E+02  0.10566000000E+00 0. -1.
         22    1    1    0    0    0  0.21621863803E+02 -0.14320967147E+02 -0.14219218624E+02  0.29576701517E+02  0.00000000000E+00 0. -1.
</event>
<event>
 5    1  0.3125560E-003  0.9118800E+02  0.7818608E-02  0.1130116E+00
         25   -1    0    0    0    0  0.00000000000E+00  0.00000000000E+00  0.99999998245E-14  0.12500000000E+03  0.12500000000E+03 0.  0.
        -13    1    3    3    0    0  0.13282977004E+02  0.24589069283E+02 -0.23814549632E+02  0.36717894064E+02  0.10566000000E+00 0.  1.
         23    2    1    0    0    0 -0.19965300770E+02  0.10179944083E+02  0.20957563842E+02  0.94316714997E+02  0.89186202685E+02 0.  0.
         13    1    3    3    0    0 -0.33248277774E+02 -0.14409125200E+02  0.44772113474E+02  0.57598820934E+02  0.10566000000E+00 0. -1.
         22    1    1    0    0    0  0.19965300770E+02 -0.10179944083E+02 -0.20957563842E+02  0.30683285003E+02  0.00000000000E+00 0. -1.
</event>
<event>
 5    1  0.3125560E-003  0.9118800E+02  0.7818608E-02  0.1130116E+00
         25   -1    0    0    0    0  0.00000000000E+00  0.00000000000E+00  0.99999998245E-14  0.12500000000E+03  0.12500000000E+03 0.  0.
        -13    1    3    3    0    0  0.30767492407E+02 -0.13047298535E+02 -0.75698518987E+01  0.34266374333E+02  0.10566000000E+00 0.  1.
         23    2    1    0    0    0 -0.19082658599E+02  0.21864587441E+02  0.21603670368E+01  0.95898879250E+02  0.91376801281E+02 0.  0.
         13    1    3    3    0    0 -0.49850151006E+02  0.34911885976E+02  0.97302189355E+01  0.61632504917E+02  0.10566000000E+00 0. -1.
         22    1    1    0    0    0  0.19082658599E+02 -0.21864587441E+02 -0.21603670368E+01  0.29101120750E+02  0.00000000000E+00 0. -1.
</event>
<event>
 5    1  0.3125560E-003  0.9118800E+02  0.7818608E-02  0.1130116E+00
         25   -1    0    0    0    0  0.00000000000E+00  0.00000000000E+00  0.99999998245E-14  0.12500000000E+03  0.12500000000E+03 0.  0.
        -13    1    3    3    0    0  0.24078745210E+01  0.55208653083E+01  0.38123816405E+02  0.38596817936E+02  0.10566000000E+00 0.  1.
         23    2    1    0    0    0 -0.27583194781E+02 -0.12404556166E+02 -0.52609888393E+01  0.94301732108E+02  0.89165200763E+02 0.  0.
         13    1    3    3    0    0 -0.29991069302E+02 -0.17925421474E+02 -0.43384805244E+02  0.55704914173E+02  0.10566000000E+00 0. -1.
         22    1    1    0    0    0  0.27583194781E+02  0.12404556166E+02  0.52609888393E+01  0.30698267892E+02  0.00000000000E+00 0. -1.
</event>
<event>
 5    1  0.3125560E-003  0.9118800E+02  0.7818608E-02  0.1130116E+00
         25   -1    0    0    0    0  0.00000000000E+00  0.00000000000E+00  0.99999998245E-14  0.12500000000E+03  0.12500000000E+03 0.  0.
        -13    1    3    3    0    0  0.37295192424E+02 -0.14992970358E+02  0.24828806732E+02  0.47246178109E+02  0.10566000000E+00 0. -1.
         23    2    1    0    0    0 -0.82503761222E+01 -0.24995240480E+02  0.14274981106E+02  0.95056622796E+02  0.90217269405E+02 0.  0.
         13    1    3    3    0    0 -0.45545568546E+02 -0.10002270122E+02 -0.10553825626E+02  0.47810444687E+02  0.10566000000E+00 0.  1.
         22    1    1    0    0    0  0.82503761222E+01  0.24995240480E+02 -0.14274981106E+02  0.29943377204E+02  0.00000000000E+00 0. -1.
</event>
<event>
 5    1  0.3125560E-003  0.9118800E+02  0.7818608E-02  0.1130116E+00
         25   -1    0    0    0    0  0.00000000000E+00  0.00000000000E+00  0.99999998245E-14  0.12500000000E+03  0.12500000000E+03 0.  0.
        -13    1    3    3    0    0 -0.83187566912E+01 -0.40521646072E+02  0.66198319706E+01  0.41893183844E+02  0.10566000000E+00 0. -1.
         23    2    1    0    0    0 -0.16245748656E+02  0.47703423967E+01 -0.22889747440E+02  0.96528592345E+02  0.92234202367E+02 0.  0.
         13    1    3    3    0    0 -0.79269919647E+01  0.45291988468E+02 -0.29509579411E+02  0.54635408501E+02  0.10566000000E+00 0.  1.
         22    1    1    0    0    0  0.16245748656E+02 -0.47703423967E+01  0.22889747440E+02  0.28471407655E+02  0.00000000000E+00 0.  1.
</event>
<event>
 5    1  0.3125560E-003  0.9118800E+02  0.7818608E-02  0.1130116E+00
         25   -1    0    0    0    0  0.00000000000E+00  0.00000000000E+00  0.99999998245E-14  0.12500000000E+03  0.12500000000E+03 0.  0.
        -13    1    3    3    0    0 -0.27468874182E+02 -0.20545874295E+02  0.31952765550E+02  0.46879231965E+02  0.10566000000E+00 0. -1.
         23    2    1    0    0    0 -0.26201755090E+02 -0.44458588214E+01 -0.13554107596E+02  0.95166940097E+02  0.90369989621E+02 0.  0.
         13    1    3    3    0    0  0.12671190913E+01  0.16100015473E+02 -0.45506873146E+02  0.48287708131E+02  0.10566000000E+00 0.  1.
         22    1    1    0    0    0  0.26201755090E+02  0.44458588214E+01  0.13554107596E+02  0.29833059903E+02  0.00000000000E+00 0. -1.
</event>
<event>
 5    1  0.3125560E-003  0.9118800E+02  0.7818608E-02  0.1130116E+00
         25   -1    0    0    0    0  0.00000000000E+00  0.00000000000E+00  0.99999998245E-14  0.12500000000E+03  0.12500000000E+03 0.  0.
        -13    1    3    3    0    0  0.19861958561E+02 -0.28746036307E+02  0.40184678394E+02  0.53250836077E+02  0.10566000000E+00 0. -1.
         23    2    1    0    0    0 -0.11859168004E+02 -0.34491819111E+01  0.25971592878E+02  0.96241342899E+02  0.91844083777E+02 0.  0.
         13    1    3    3    0    0 -0.31721126565E+02  0.25296854396E+02 -0.14213085516E+02  0.42990506822E+02  0.10566000000E+00 0.  1.
         22    1    1    0    0    0  0.11859168004E+02  0.34491819111E+01 -0.25971592878E+02  0.28758657101E+02  0.00000000000E+00 0. -1.
</event>
<event>
 5    1  0.3125560E-003  0.9118800E+02  0.7818608E-02  0.1130116E+00
         25   -1    0    0    0    0  0.00000000000E+00  0.00000000000E+00  0.99999998245E-14  0.12500000000E+03  0.12500000000E+03 0.  0.
        -13    1    3    3    0    0  0.40752301278E+02  0.78968128495E+01  0.43933341686E+02  0.60442198738E+02  0.10566000000E+00 0.  1.
         23    2    1    0    0    0  0.14820963381E+02  0.13742845141E+02  0.23717801030E+02  0.93838150988E+02  0.88512924181E+02 0.  0.
         13    1    3    3    0    0 -0.25931337897E+02  0.58460322913E+01 -0.20215540656E+02  0.33395952250E+02  0.10566000000E+00 0. -1.
         22    1    1    0    0    0 -0.14820963381E+02 -0.13742845141E+02 -0.23717801030E+02  0.31161849012E+02  0.00000000000E+00 0.  1.
</event>
<event>
 5    1  0.3125560E-003  0.9118800E+02  0.7818608E-02  0.1130116E+00
         25   -1    0    0    0    0  0.00000000000E+00  0.00000000000E+00  0.99999998245E-14  0.12500000000E+03  0.12500000000E+03 0.  0.
        -13    1    3    3    0    0  0.19866895968E+02 -0.25897622132E+00 -0.26506865488E+01  0.20044897788E+02  0.10566000000E+00 0. -1.
         23    2    1    0    0    0 -0.18149437109E+02 -0.60381895917E+00  0.42329531929E+02  0.78939648959E+02  0.64108597237E+02 0.  0.
         13    1    3    3    0    0 -0.38016333077E+02 -0.34484273785E+00  0.44980218478E+02  0.58894751171E+02  0.10566000000E+00 0.  1.
         22    1    1    0    0    0  0.18149437109E+02  0.60381895917E+00 -0.42329531929E+02  0.46060351041E+02  0.00000000000E+00 0.  1.
</event>
<event>
 5    1  0.3125560E-003  0.9118800E+02  0.7818608E-02  0.1130116E+00
         25   -1    0    0    0    0  0.00000000000E+00  0.00000000000E+00  0.99999998245E-14  0.12500000000E+03  0.12500000000E+03 0.  0.
        -13    1    3    3    0    0 -0.17652231033E+02 -0.19212244091E+02 -0.35204106391E+02  0.43818396300E+02  0.10566000000E+00 0.  1.
         23    2    1    0    0    0 -0.24848402451E+02  0.11933102951E+02  0.68056034961E+01  0.96607073251E+02  0.92340502018E+02 0.  0.
         13    1    3    3    0    0 -0.71961714184E+01  0.31145347041E+02  0.42009709888E+02  0.52788676951E+02  0.10566000000E+00 0. -1.
         22    1    1    0    0    0  0.24848402451E+02 -0.11933102951E+02 -0.68056034961E+01  0.28392926749E+02  0.00000000000E+00 0. -1.
</event>
<event>
 5    1  0.3125560E-003  0.9118800E+02  0.7818608E-02  0.1130116E+00
         25   -1    0    0    0    0  0.00000000000E+00  0.00000000000E+00  0.99999998245E-14  0.12500000000E+03  0.12500000000E+03 0.  0.
        -13    1    3    3    0    0  0.95436792134E+01  0.11179072403E+02 -0.40304564846E+02  0.42901312150E+02  0.10566000000E+00 0.  1.
         23    2    1    0    0    0  0.22167127462E+02  0.16597631041E+02  0.10388820352E+02  0.95423142757E+02  0.90723677666E+02 0.  0.
         13    1    3    3    0    0  0.12623448248E+02  0.54185586383E+01  0.50693385198E+02  0.52521830607E+02  0.10566000000E+00 0. -1.
         22    1    1    0    0    0 -0.22167127462E+02 -0.16597631041E+02 -0.10388820352E+02  0.29576857243E+02  0.00000000000E+00 0. -1.
</event>
<event>
 5    1  0.3125560E-003  0.9118800E+02  0.7818608E-02  0.1130116E+00
         25   -1    0    0    0    0  0.00000000000E+00  0.00000000000E+00  0.99999998245E-14  0.12500000000E+03  0.12500000000E+03 0.  0.
        -13    1    3    3    0    0 -0.21618980797E+01 -0.38134988263E+02 -0.42707266136E+02  0.57296360076E+02  0.10566000000E+00 0. -1.
         23    2    1    0    0    0  0.14946915578E+02 -0.25040716983E+02 -0.15585580060E+02  0.91934034142E+02  0.85781749431E+02 0.  0.
         13    1    3    3    0    0  0.17108813657E+02  0.13094271279E+02  0.27121686075E+02  0.34637674066E+02  0.10566000000E+00 0.  1.
         22    1    1    0    0    0 -0.14946915578E+02  0.25040716983E+02  0.15585580060E+02  0.33065965858E+02  0.00000000000E+00 0. -1.
</event>
<event>
 5    1  0.3125560E-003  0.9118800E+02  0.7818608E-02  0.1130116E+00
         25   -1    0    0    0    0  0.00000000000E+00  0.00000000000E+00  0.99999998245E-14  0.12500000000E+03  0.12500000000E+03 0.  0.
        -13    1    3    3    0    0 -0.22344693864E+02  0.26181166017E+02  0.26278990106E+02  0.43305141530E+02  0.10566000000E+00 0. -1.
         23    2    1    0    0    0  0.23264698049E+02  0.18852092900E+02  0.33744148294E+01  0.94866393222E+02  0.89953311809E+02 0.  0.
         13    1    3    3    0    0  0.45609391913E+02 -0.73290731172E+01 -0.22904575277E+02  0.51561251692E+02  0.10566000000E+00 0.  1.
         22    1    1    0    0    0 -0.23264698049E+02 -0.18852092900E+02 -0.33744148294E+01  0.30133606778E+02  0.00000000000E+00 0.  1.
</event>
<event>
 5    1  0.3125560E-003  0.9118800E+02  0.7818608E-02  0.1130116E+00
         25   -1    0    0    0    0  0.00000000000E+00  0.00000000000E+00  0.99999998245E-14  0.12500000000E+03  0.12500000000E+03 0.  0.
        -13    1    3    3    0    0  0.10918271406E+02  0.45598594565E+02  0.27110700790E+02  0.54161256800E+02  0.10566000000E+00 0.  1.
         23    2    1    0    0    0  0.23453380496E+02  0.17645360179E+02 -0.84956210808E+00  0.95637753010E+02  0.91018889537E+02 0.  0.
         13    1    3    3    0    0  0.12535109089E+02 -0.27953234386E+02 -0.27960262898E+02  0.41476496210E+02  0.10566000000E+00 0. -1.
         22    1    1    0    0    0 -0.23453380496E+02 -0.17645360179E+02  0.84956210808E+00  0.29362246990E+02  0.00000000000E+00 0.  1.
</event>
<event>
 5    1  0.3125560E-003  0.9118800E+02  0.7818608E-02  0.1130116E+00
         25   -1    0    0    0    0  0.00000000000E+00  0.00000000000E+00  0.99999998245E-14  0.12500000000E+03  0.12500000000E+03 0.  0.
        -13    1    3    3    0    0 -0.34617993463E+02  0.29353435372E+02 -0.13553700078E+02  0.47368170636E+02  0.10566000000E+00 0. -1.
         23    2    1    0    0    0 -0.12569680795E+00 -0.14569940602E+00 -0.29518723392E+02  0.95480649420E+02  0.90802876358E+02 0.  0.
         13    1    3    3    0    0  0.34492296655E+02 -0.29499134778E+02 -0.15965023314E+02  0.48112478783E+02  0.10566000000E+00 0.  1.
         22    1    1    0    0    0  0.12569680795E+00  0.14569940602E+00  0.29518723392E+02  0.29519350580E+02  0.00000000000E+00 0. -1.
</event>
<event>
 5    1  0.3125560E-003  0.9118800E+02  0.7818608E-02  0.1130116E+00
         25   -1    0    0    0    0  0.00000000000E+00  0.00000000000E+00  0.99999998245E-14  0.12500000000E+03  0.12500000000E+03 0.  0.
        -13    1    3    3    0    0  0.14317653084E+02 -0.21721299612E+02 -0.14338013595E+02  0.29705215780E+02  0.10566000000E+00 0.  1.
         23    2    1    0    0    0 -0.31654090538E+02 -0.33847222488E+02 -0.11022098801E+02  0.77364901807E+02  0.60960851796E+02 0.  0.
         13    1    3    3    0    0 -0.45971743621E+02 -0.12125922876E+02  0.33159147941E+01  0.47659686026E+02  0.10566000000E+00 0. -1.
         22    1    1    0    0    0  0.31654090538E+02  0.33847222488E+02  0.11022098801E+02  0.47635098193E+02  0.00000000000E+00 0. -1.
</event>
<event>
 5    1  0.3125560E-003  0.9118800E+02  0.7818608E-02  0.1130116E+00
         25   -1    0    0    0    0  0.00000000000E+00  0.00000000000E+00  0.99999998245E-14  0.12500000000E+03  0.12500000000E+03 0.  0.
        -13    1    3    3    0    0  0.23820464008E+01  0.22559886218E+02 -0.55904422541E+02  0.60331900640E+02  0.10566000000E+00 0.  1.
         23    2    1    0    0    0 -0.63898764024E+01  0.16824429732E+01 -0.27804640768E+02  0.96421001014E+02  0.92088274246E+02 0.  0.
         13    1    3    3    0    0 -0.87719228032E+01 -0.20877443245E+02  0.28099781773E+02  0.36089100374E+02  0.10566000000E+00 0. -1.
         22    1    1    0    0    0  0.63898764024E+01 -0.16824429732E+01  0.27804640768E+02  0.28578998986E+02  0.00000000000E+00 0.  1.
</event>
<event>
 5    1  0.3125560E-003  0.9118800E+02  0.7818608E-02  0.1130116E+00
         25   -1    0    0    0    0  0.00000000000E+00  0.00000000000E+00  0.99999998245E-14  0.12500000000E+03  0.12500000000E+03 0.  0.
        -13    1    3    3    0    0 -0.26995995882E+02 -0.29470020604E+02  0.27080191289E+02  0.48276431437E+02  0.10566000000E+00 0. -1.
         23    2    1    0    0    0  0.17935434733E+02 -0.11434603822E+02  0.17094733198E+02  0.97711542976E+02  0.93823695003E+02 0.  0.
         13    1    3    3    0    0  0.44931430614E+02  0.18035416782E+02 -0.99854580912E+01  0.49435111539E+02  0.10566000000E+00 0.  1.
         22    1    1    0    0    0 -0.17935434733E+02  0.11434603822E+02 -0.17094733198E+02  0.27288457024E+02  0.00000000000E+00 0.  1.
</event>
<event>
 5    1  0.3125560E-003  0.9118800E+02  0.7818608E-02  0.1130116E+00
         25   -1    0    0    0    0  0.00000000000E+00  0.00000000000E+00  0.99999998245E-14  0.12500000000E+03  0.12500000000E+03 0.  0.
        -13    1    3    3    0    0 -0.48995003827E+02  0.21728825081E+01 -0.32977566490E+02  0.59099601302E+02  0.10566000000E+00 0.  1.
         23    2    1    0    0    0 -0.28912738327E+02 -0.11304406595E+02 -0.10198337116E+02  0.92323676371E+02  0.86347664083E+02 0.  0.
         13    1    3    3    0    0  0.20082265501E+02 -0.13477289103E+02  0.22779229375E+02  0.33224075068E+02  0.10566000000E+00 0. -1.
         22    1    1    0    0    0  0.28912738327E+02  0.11304406595E+02  0.10198337116E+02  0.32676323629E+02  0.00000000000E+00 0.  1.
</event>
<event>
 5    1  0.3125560E-003  0.9118800E+02  0.7818608E-02  0.1130116E+00
         25   -1    0    0    0    0  0.00000000000E+00  0.00000000000E+00  0.99999998245E-14  0.12500000000E+03  0.12500000000E+03 0.  0.
        -13    1    3    3    0    0  0.20464376744E+02  0.26826360426E+02  0.29232739819E+02  0.44643124561E+02  0.10566000000E+00 0.  1.
         23    2    1    0    0    0  0.71913656390E+01  0.23195643436E+02 -0.18596548292E+02  0.94412662382E+02  0.89320577671E+02 0.  0.
         13    1    3    3    0    0 -0.13273011105E+02 -0.36307169897E+01 -0.47829288111E+02  0.49769537821E+02  0.10566000000E+00 0. -1.
         22    1    1    0    0    0 -0.71913656390E+01 -0.23195643436E+02  0.18596548292E+02  0.30587337618E+02  0.00000000000E+00 0.  1.
</event>
<event>
 5    1  0.3125560E-003  0.9118800E+02  0.7818608E-02  0.1130116E+00
         25   -1    0    0    0    0  0.00000000000E+00  0.00000000000E+00  0.99999998245E-14  0.12500000000E+03  0.12500000000E+03 0.  0.
        -13    1    3    3    0    0  0.44649293238E+01  0.19620703253E+02  0.58849734886E+02  0.62194935889E+02  0.10566000000E+00 0.  1.
         23    2    1    0    0    0 -0.93642805981E+00  0.65723577524E+01  0.29453836243E+02  0.94807264891E+02  0.89871108943E+02 0.  0.
         13    1    3    3    0    0 -0.54013573836E+01 -0.13048345501E+02 -0.29395898643E+02  0.32612329002E+02  0.10566000000E+00 0. -1.
         22    1    1    0    0    0  0.93642805981E+00 -0.65723577524E+01 -0.29453836243E+02  0.30192735109E+02  0.00000000000E+00 0.  1.
</event>
<event>
 5    1  0.3125560E-003  0.9118800E+02  0.7818608E-02  0.1130116E+00
         25   -1    0    0    0    0  0.00000000000E+00  0.00000000000E+00  0.99999998245E-14  0.12500000000E+03  0.12500000000E+03 0.  0.
        -13    1    3    3    0    0 -0.14016854051E+02  0.69946742360E+01 -0.38068612848E+02  0.41165861018E+02  0.10566000000E+00 0.  1.
         23    2    1    0    0    0  0.20945802205E+02  0.19475304097E+02  0.26611083646E+01  0.96275522678E+02  0.91890590756E+02 0.  0.
         13    1    3    3    0    0  0.34962656256E+02  0.12480629861E+02  0.40729721212E+02  0.55109661660E+02  0.10566000000E+00 0. -1.
         22    1    1    0    0    0 -0.20945802205E+02 -0.19475304097E+02 -0.26611083646E+01  0.28724477322E+02  0.00000000000E+00 0. -1.
</event>
<event>
 5    1  0.3125560E-003  0.9118800E+02  0.7818608E-02  0.1130116E+00
         25   -1    0    0    0    0  0.00000000000E+00  0.00000000000E+00  0.99999998245E-14  0.12500000000E+03  0.12500000000E+03 0.  0.
        -13    1    3    3    0    0 -0.14284753651E+02 -0.15966491026E+01  0.29783232876E+02  0.33070464161E+02  0.10566000000E+00 0. -1.
         23    2    1    0    0    0  0.21345949254E+02 -0.27016661635E+01 -0.20879730236E+02  0.95018144081E+02  0.90163939690E+02 0.  0.
         13    1    3    3    0    0  0.35630702904E+02 -0.11050170609E+01 -0.50662963112E+02  0.61947679920E+02  0.10566000000E+00 0.  1.
         22    1    1    0    0    0 -0.21345949254E+02  0.27016661635E+01  0.20879730236E+02  0.29981855919E+02  0.00000000000E+00 0.  1.
</event>
<event>
 5    1  0.3125560E-003  0.9118800E+02  0.7818608E-02  0.1130116E+00
         25   -1    0    0    0    0  0.00000000000E+00  0.00000000000E+00  0.99999998245E-14  0.12500000000E+03  0.12500000000E+03 0.  0.
        -13    1    3    3    0    0 -0.12643496950E+02  0.10706329508E+02 -0.21766097967E+02  0.27354299322E+02  0.10566000000E+00 0.  1.
         23    2    1    0    0    0  0.48337493814E+01 -0.14926551773E+02  0.31961060515E+02  0.89395555472E+02  0.81999322363E+02 0.  0.
         13    1    3    3    0    0  0.17477246331E+02 -0.25632881282E+02  0.53727158482E+02  0.62041256150E+02  0.10566000000E+00 0. -1.
         22    1    1    0    0    0 -0.48337493814E+01  0.14926551773E+02 -0.31961060515E+02  0.35604444528E+02  0.00000000000E+00 0. -1.
</event>
<event>
 5    1  0.3125560E-003  0.9118800E+02  0.7818608E-02  0.1130116E+00
         25   -1    0    0    0    0  0.00000000000E+00  0.00000000000E+00  0.99999998245E-14  0.12500000000E+03  0.12500000000E+03 0.  0.
        -13    1    3    3    0    0  0.79428438410E+01  0.63144547551E+01  0.36196453275E+02  0.37591960588E+02  0.10566000000E+00 0.  1.
         23    2    1    0    0    0 -0.14559733025E+02  0.17259331516E+02 -0.17235685777E+02  0.96593324475E+02  0.92321888623E+02 0.  0.
         13    1    3    3    0    0 -0.22502576866E+02  0.10944876761E+02 -0.53432139052E+02  0.59001363888E+02  0.10566000000E+00 0. -1.
         22    1    1    0    0    0  0.14559733025E+02 -0.17259331516E+02  0.17235685777E+02  0.28406675525E+02  0.00000000000E+00 0. -1.
</event>
<event>
 5    1  0.3125560E-003  0.9118800E+02  0.7818608E-02  0.1130116E+00
         25   -1    0    0    0    0  0.00000000000E+00  0.00000000000E+00  0.99999998245E-14  0.12500000000E+03  0.12500000000E+03 0.  0.
        -13    1    3    3    0    0 -0.22211713073E+02 -0.32917926471E+02 -0.17586171804E+02  0.43430803395E+02  0.10566000000E+00 0.  1.
         23    2    1    0    0    0 -0.24958886312E+02  0.13480214159E+02  0.66712762915E+01  0.95859510864E+02  0.91322930943E+02 0.  0.
         13    1    3    3    0    0 -0.27471732394E+01  0.46398140630E+02  0.24257448095E+02  0.52428707469E+02  0.10566000000E+00 0. -1.
         22    1    1    0    0    0  0.24958886312E+02 -0.13480214159E+02 -0.66712762915E+01  0.29140489136E+02  0.00000000000E+00 0. -1.
</event>
<event>
 5    1  0.3125560E-003  0.9118800E+02  0.7818608E-02  0.1130116E+00
         25   -1    0    0    0    0  0.00000000000E+00  0.00000000000E+00  0.99999998245E-14  0.12500000000E+03  0.12500000000E+03 0.  0.
        -13    1    3    3    0    0 -0.25935763514E+02  0.17134875944E+02  0.14093782492E+02  0.34130831687E+02  0.10566000000E+00 0. -1.
         23    2    1    0    0    0  0.30256413038E+02 -0.20872914564E+01  0.33021197740E+01  0.94492438470E+02  0.89432150916E+02 0.  0.
         13    1    3    3    0    0  0.56192176551E+02 -0.19222167400E+02 -0.10791662718E+02  0.60361606783E+02  0.10566000000E+00 0.  1.
         22    1    1    0    0    0 -0.30256413038E+02  0.20872914564E+01 -0.33021197740E+01  0.30507561530E+02  0.00000000000E+00 0.  1.
</event>
<event>
 5    1  0.3125560E-003  0.9118800E+02  0.7818608E-02  0.1130116E+00
         25   -1    0    0    0    0  0.00000000000E+00  0.00000000000E+00  0.99999998245E-14  0.12500000000E+03  0.12500000000E+03 0.  0.
        -13    1    3    3    0    0 -0.43861551486E+02  0.24831757092E+02  0.63801971647E+01  0.50805215667E+02  0.10566000000E+00 0. -1.
         23    2    1    0    0    0 -0.23155202937E+02 -0.99798923130E+01 -0.14012541884E+02  0.96153631014E+02  0.91724630026E+02 0.  0.
         13    1    3    3    0    0  0.20706348548E+02 -0.34811649405E+02 -0.20392739049E+02  0.45348415347E+02  0.10566000000E+00 0.  1.
         22    1    1    0    0    0  0.23155202937E+02  0.99798923130E+01  0.14012541884E+02  0.28846368986E+02  0.00000000000E+00 0. -1.
</event>
<event>
 5    1  0.3125560E-003  0.9118800E+02  0.7818608E-02  0.1130116E+00
         25   -1    0    0    0    0  0.00000000000E+00  0.00000000000E+00  0.99999998245E-14  0.12500000000E+03  0.12500000000E+03 0.  0.
        -13    1    3    3    0    0 -0.18604137293E+02  0.21963981463E+02 -0.20394115710E+02  0.35276926252E+02  0.10566000000E+00 0. -1.
         23    2    1    0    0    0  0.30480035083E+00 -0.29107755636E+02  0.51644642019E+01  0.95436068734E+02  0.90741485460E+02 0.  0.
         13    1    3    3    0    0  0.18908937644E+02 -0.51071737098E+02  0.25558579912E+02  0.60159142483E+02  0.10566000000E+00 0.  1.
         22    1    1    0    0    0 -0.30480035083E+00  0.29107755636E+02 -0.51644642019E+01  0.29563931266E+02  0.00000000000E+00 0.  1.
</event>
<event>
 5    1  0.3125560E-003  0.9118800E+02  0.7818608E-02  0.1130116E+00
         25   -1    0    0    0    0  0.00000000000E+00  0.00000000000E+00  0.99999998245E-14  0.12500000000E+03  0.12500000000E+03 0.  0.
        -13    1    3    3    0    0 -0.43160702523E+01  0.79473970308E+01  0.50861042109E+02  0.51658942599E+02  0.10566000000E+00 0. -1.
         23    2    1    0    0    0  0.12333188555E+02  0.22288427306E+02  0.10839175197E+02  0.97316625013E+02  0.93296067726E+02 0.  0.
         13    1    3    3    0    0  0.16649258807E+02  0.14341030276E+02 -0.40021866912E+02  0.45657682414E+02  0.10566000000E+00 0.  1.
         22    1    1    0    0    0 -0.12333188555E+02 -0.22288427306E+02 -0.10839175197E+02  0.27683374987E+02  0.00000000000E+00 0. -1.
</event>
<event>
 5    1  0.3125560E-003  0.9118800E+02  0.7818608E-02  0.1130116E+00
         25   -1    0    0    0    0  0.00000000000E+00  0.00000000000E+00  0.99999998245E-14  0.12500000000E+03  0.12500000000E+03 0.  0.
        -13    1    3    3    0    0 -0.35744563824E+01 -0.44775730181E+02  0.13436801489E+01  0.44938395521E+02  0.10566000000E+00 0. -1.
         23    2    1    0    0    0  0.99207034321E+01 -0.54994493191E+01  0.28341680530E+02  0.94472714587E+02  0.89404578444E+02 0.  0.
         13    1    3    3    0    0  0.13495159815E+02  0.39276280861E+02  0.26998000381E+02  0.49534319066E+02  0.10566000000E+00 0.  1.
         22    1    1    0    0    0 -0.99207034321E+01  0.54994493191E+01 -0.28341680530E+02  0.30527285413E+02  0.00000000000E+00 0.  1.
</event>
<event>
 5    1  0.3125560E-003  0.9118800E+02  0.7818608E-02  0.1130116E+00
         25   -1    0    0    0    0  0.00000000000E+00  0.00000000000E+00  0.99999998245E-14  0.12500000000E+03  0.12500000000E+03 0.  0.
        -13    1    3    3    0    0  0.26462134836E+02  0.38732065441E+02  0.12115646074E+02  0.48448090956E+02  0.10566000000E+00 0.  1.
         23    2    1    0    0    0 -0.14711095151E+02  0.24466299188E+02 -0.63167975932E+01  0.95761018343E+02  0.91188017775E+02 0.  0.
         13    1    3    3    0    0 -0.41173229987E+02 -0.14265766253E+02 -0.18432443668E+02  0.47312927387E+02  0.10566000000E+00 0. -1.
         22    1    1    0    0    0  0.14711095151E+02 -0.24466299188E+02  0.63167975932E+01  0.29238981657E+02  0.00000000000E+00 0.  1.
</event>
<event>
 5    1  0.3125560E-003  0.9118800E+02  0.7818608E-02  0.1130116E+00
         25   -1    0    0    0    0  0.00000000000E+00  0.00000000000E+00  0.99999998245E-14  0.12500000000E+03  0.12500000000E+03 0.  0.
        -13    1    3    3    0    0  0.97382651212E+01 -0.37558050617E+02  0.24466135707E+02  0.45869858668E+02  0.10566000000E+00 0.  1.
         23    2    1    0    0    0 -0.74738271427E+01 -0.21008930531E+02 -0.19158305699E+02  0.95601463787E+02  0.90969038396E+02 0.  0.
         13    1    3    3    0    0 -0.17212092264E+02  0.16549120086E+02 -0.43624441406E+02  0.49731605119E+02  0.10566000000E+00 0. -1.
         22    1    1    0    0    0  0.74738271427E+01  0.21008930531E+02  0.19158305699E+02  0.29398536213E+02  0.00000000000E+00 0. -1.
</event>
<event>
 5    1  0.3125560E-003  0.9118800E+02  0.7818608E-02  0.1130116E+00
         25   -1    0    0    0    0  0.00000000000E+00  0.00000000000E+00  0.99999998245E-14  0.12500000000E+03  0.12500000000E+03 0.  0.
        -13    1    3    3    0    0  0.11890002602E+02 -0.30334666012E+02  0.69237753359E+01  0.33309367344E+02  0.10566000000E+00 0.  1.
         23    2    1    0    0    0 -0.25509391393E+02  0.17041360959E+02  0.63531591445E+01  0.93671104972E+02  0.88276702719E+02 0.  0.
         13    1    3    3    0    0 -0.37399393994E+02  0.47376026970E+02 -0.57061619143E+00  0.60361737628E+02  0.10566000000E+00 0. -1.
         22    1    1    0    0    0  0.25509391393E+02 -0.17041360959E+02 -0.63531591445E+01  0.31328895028E+02  0.00000000000E+00 0. -1.
</event>
<event>
 5    1  0.3125560E-003  0.9118800E+02  0.7818608E-02  0.1130116E+00
         25   -1    0    0    0    0  0.00000000000E+00  0.00000000000E+00  0.99999998245E-14  0.12500000000E+03  0.12500000000E+03 0.  0.
        -13    1    3    3    0    0  0.17232339438E+02 -0.55853548123E+02 -0.14203901281E+02  0.60152592098E+02  0.10566000000E+00 0. -1.
         23    2    1    0    0    0 -0.37684824865E+01 -0.25524102312E+02 -0.10185541954E+02  0.97261461394E+02  0.93222129071E+02 0.  0.
         13    1    3    3    0    0 -0.21000821924E+02  0.30329445811E+02  0.40183593262E+01  0.37108869296E+02  0.10566000000E+00 0.  1.
         22    1    1    0    0    0  0.37684824865E+01  0.25524102312E+02  0.10185541954E+02  0.27738538606E+02  0.00000000000E+00 0. -1.
</event>
<event>
 5    1  0.3125560E-003  0.9118800E+02  0.7818608E-02  0.1130116E+00
         25   -1    0    0    0    0  0.00000000000E+00  0.00000000000E+00  0.99999998245E-14  0.12500000000E+03  0.12500000000E+03 0.  0.
        -13    1    3    3    0    0  0.36223904385E+02  0.46217121814E+02  0.12163409402E+02  0.59967935515E+02  0.10566000000E+00 0. -1.
         23    2    1    0    0    0  0.21610674417E+02  0.34999201322E+02  0.19093484385E+02  0.79651058580E+02  0.65481025076E+02 0.  0.
         13    1    3    3    0    0 -0.14613229968E+02 -0.11217920492E+02  0.69300749839E+01  0.19683123065E+02  0.10566000000E+00 0.  1.
         22    1    1    0    0    0 -0.21610674417E+02 -0.34999201322E+02 -0.19093484385E+02  0.45348941420E+02  0.00000000000E+00 0. -1.
</event>
<event>
 5    1  0.3125560E-003  0.9118800E+02  0.7818608E-02  0.1130116E+00
         25   -1    0    0    0    0  0.00000000000E+00  0.00000000000E+00  0.99999998245E-14  0.12500000000E+03  0.12500000000E+03 0.  0.
        -13    1    3    3    0    0  0.26134445643E+02 -0.56967381587E+01  0.25682033580E+02  0.37081532972E+02  0.10566000000E+00 0.  1.
         23    2    1    0    0    0 -0.27910751928E+02 -0.82668748060E+01  0.30472129806E+01  0.95731641672E+02  0.91147739511E+02 0.  0.
         13    1    3    3    0    0 -0.54045197571E+02 -0.25701366473E+01 -0.22634820599E+02  0.58650108700E+02  0.10566000000E+00 0. -1.
         22    1    1    0    0    0  0.27910751928E+02  0.82668748060E+01 -0.30472129806E+01  0.29268358328E+02  0.00000000000E+00 0. -1.
</event>
<event>
 5    1  0.3125560E-003  0.9118800E+02  0.7818608E-02  0.1130116E+00
         25   -1    0    0    0    0  0.00000000000E+00  0.00000000000E+00  0.99999998245E-14  0.12500000000E+03  0.12500000000E+03 0.  0.
        -13    1    3    3    0    0  0.14668036909E+02 -0.52491940524E+02  0.10741801656E+02  0.55551350961E+02  0.10566000000E+00 0. -1.
         23    2    1    0    0    0 -0.13769274205E+02 -0.21457097281E+02  0.98914383872E+01  0.97653327639E+02  0.93746103437E+02 0.  0.
         13    1    3    3    0    0 -0.28437311114E+02  0.31034843242E+02 -0.85036326877E+00  0.42101976678E+02  0.10566000000E+00 0.  1.
         22    1    1    0    0    0  0.13769274205E+02  0.21457097281E+02 -0.98914383872E+01  0.27346672361E+02  0.00000000000E+00 0. -1.
</event>
<event>
 5    1  0.3125560E-003  0.9118800E+02  0.7818608E-02  0.1130116E+00
         25   -1    0    0    0    0  0.00000000000E+00  0.00000000000E+00  0.99999998245E-14  0.12500000000E+03  0.12500000000E+03 0.  0.
        -13    1    3    3    0    0  0.18189547343E+02 -0.21002558846E+02 -0.51205538401E+02  0.58257921672E+02  0.10566000000E+00 0.  1.
         23    2    1    0    0    0 -0.53385144950E+01 -0.14337973440E+01 -0.27450895672E+02  0.96998086047E+02  0.92868301975E+02 0.  0.
         13    1    3    3    0    0 -0.23528061838E+02  0.19568761502E+02  0.23754642729E+02  0.38740164374E+02  0.10566000000E+00 0. -1.
         22    1    1    0    0    0  0.53385144950E+01  0.14337973440E+01  0.27450895672E+02  0.28001913953E+02  0.00000000000E+00 0.  1.
</event>
<event>
 5    1  0.3125560E-003  0.9118800E+02  0.7818608E-02  0.1130116E+00
         25   -1    0    0    0    0  0.00000000000E+00  0.00000000000E+00  0.99999998245E-14  0.12500000000E+03  0.12500000000E+03 0.  0.
        -13    1    3    3    0    0  0.20733273493E+02  0.26872778348E+02 -0.22847427236E+02  0.40914923209E+02  0.10566000000E+00 0. -1.
         23    2    1    0    0    0 -0.10888667774E+02  0.17211304825E+02  0.20943223577E+02  0.95786805833E+02  0.91223360266E+02 0.  0.
         13    1    3    3    0    0 -0.31621941267E+02 -0.96614735228E+01  0.43790650812E+02  0.54871882624E+02  0.10566000000E+00 0.  1.
         22    1    1    0    0    0  0.10888667774E+02 -0.17211304825E+02 -0.20943223577E+02  0.29213194167E+02  0.00000000000E+00 0.  1.
</event>
<event>
 5    1  0.3125560E-003  0.9118800E+02  0.7818608E-02  0.1130116E+00
         25   -1    0    0    0    0  0.00000000000E+00  0.00000000000E+00  0.99999998245E-14  0.12500000000E+03  0.12500000000E+03 0.  0.
        -13    1    3    3    0    0 -0.69790014577E+01  0.53458736274E+02  0.16871874434E+02  0.56490833383E+02  0.10566000000E+00 0. -1.
         23    2    1    0    0    0 -0.33092993145E+00  0.27809731506E+02 -0.11131830410E+02  0.95043225652E+02  0.90198705162E+02 0.  0.
         13    1    3    3    0    0  0.66480715262E+01 -0.25649004768E+02 -0.28003704844E+02  0.38552392269E+02  0.10566000000E+00 0.  1.
         22    1    1    0    0    0  0.33092993145E+00 -0.27809731506E+02  0.11131830410E+02  0.29956774348E+02  0.00000000000E+00 0. -1.
</event>
<event>
 5    1  0.3125560E-003  0.9118800E+02  0.7818608E-02  0.1130116E+00
         25   -1    0    0    0    0  0.00000000000E+00  0.00000000000E+00  0.99999998245E-14  0.12500000000E+03  0.12500000000E+03 0.  0.
        -13    1    3    3    0    0 -0.37212013093E+02 -0.53110858069E+01  0.16198598046E+02  0.40931006505E+02  0.10566000000E+00 0.  1.
         23    2    1    0    0    0  0.13050637644E+02 -0.23495111730E+02  0.14618329600E+02  0.94405311271E+02  0.89310289540E+02 0.  0.
         13    1    3    3    0    0  0.50262650736E+02 -0.18184025923E+02 -0.15802684457E+01  0.53474304766E+02  0.10566000000E+00 0. -1.
         22    1    1    0    0    0 -0.13050637644E+02  0.23495111730E+02 -0.14618329600E+02  0.30594688729E+02  0.00000000000E+00 0. -1.
</event>
<event>
 5    1  0.3125560E-003  0.9118800E+02  0.7818608E-02  0.1130116E+00
         25   -1    0    0    0    0  0.00000000000E+00  0.00000000000E+00  0.99999998245E-14  0.12500000000E+03  0.12500000000E+03 0.  0.
        -13    1    3    3    0    0 -0.23572630308E+02  0.18077916484E+02 -0.32760282089E+02  0.44223604677E+02  0.10566000000E+00 0.  1.
         23    2    1    0    0    0 -0.91163995921E+01  0.20769995481E+02  0.17347214633E+02  0.96444312137E+02  0.92119911172E+02 0.  0.
         13    1    3    3    0    0  0.14456230716E+02  0.26920789965E+01  0.50107496722E+02  0.52220707460E+02  0.10566000000E+00 0. -1.
         22    1    1    0    0    0  0.91163995921E+01 -0.20769995481E+02 -0.17347214633E+02  0.28555687863E+02  0.00000000000E+00 0. -1.
</event>
<event>
 5    1  0.3125560E-003  0.9118800E+02  0.7818608E-02  0.1130116E+00
         25   -1    0    0    0    0  0.00000000000E+00  0.00000000000E+00  0.99999998245E-14  0.12500000000E+03  0.12500000000E+03 0.  0.
        -13    1    3    3    0    0 -0.33546418616E+02  0.58802338056E+01 -0.91229623752E+01  0.35258743002E+02  0.10566000000E+00 0. -1.
         23    2    1    0    0    0 -0.13522911309E+02 -0.18128297456E+02  0.31314755216E+02  0.86372054246E+02  0.77252919436E+02 0.  0.
         13    1    3    3    0    0  0.20023507307E+02 -0.24008531262E+02  0.40437717592E+02  0.51113311244E+02  0.10566000000E+00 0.  1.
         22    1    1    0    0    0  0.13522911309E+02  0.18128297456E+02 -0.31314755216E+02  0.38627945754E+02  0.00000000000E+00 0.  1.
</event>
<event>
 5    1  0.3125560E-003  0.9118800E+02  0.7818608E-02  0.1130116E+00
         25   -1    0    0    0    0  0.00000000000E+00  0.00000000000E+00  0.99999998245E-14  0.12500000000E+03  0.12500000000E+03 0.  0.
        -13    1    3    3    0    0  0.30715706636E+02  0.21034923233E+02 -0.29464409831E+02  0.47477207587E+02  0.10566000000E+00 0.  1.
         23    2    1    0    0    0 -0.17706190130E+02  0.98499710801E+01 -0.16585375062E+02  0.98815925352E+02  0.95283688730E+02 0.  0.
         13    1    3    3    0    0 -0.48421896767E+02 -0.11184952153E+02  0.12879034768E+02  0.51338717765E+02  0.10566000000E+00 0. -1.
         22    1    1    0    0    0  0.17706190130E+02 -0.98499710801E+01  0.16585375062E+02  0.26184074648E+02  0.00000000000E+00 0. -1.
</event>
<event>
 5    1  0.3125560E-003  0.9118800E+02  0.7818608E-02  0.1130116E+00
         25   -1    0    0    0    0  0.00000000000E+00  0.00000000000E+00  0.99999998245E-14  0.12500000000E+03  0.12500000000E+03 0.  0.
        -13    1    3    3    0    0  0.85309911725E+01  0.10602407133E+02  0.55900854800E+02  0.57533517004E+02  0.10566000000E+00 0.  1.
         23    2    1    0    0    0 -0.83284718460E+01  0.16847867762E+02  0.20828825234E+02  0.96945516365E+02  0.92797516622E+02 0.  0.
         13    1    3    3    0    0 -0.16859463019E+02  0.62454606286E+01 -0.35072029566E+02  0.39411999361E+02  0.10566000000E+00 0. -1.
         22    1    1    0    0    0  0.83284718460E+01 -0.16847867762E+02 -0.20828825234E+02  0.28054483635E+02  0.00000000000E+00 0.  1.
</event>
<event>
 5    1  0.3125560E-003  0.9118800E+02  0.7818608E-02  0.1130116E+00
         25   -1    0    0    0    0  0.00000000000E+00  0.00000000000E+00  0.99999998245E-14  0.12500000000E+03  0.12500000000E+03 0.  0.
        -13    1    3    3    0    0  0.26274796358E+02 -0.39311550369E+01 -0.48438463676E+02  0.55245948547E+02  0.10566000000E+00 0. -1.
         23    2    1    0    0    0 -0.12394998194E+00  0.15180358625E+02 -0.26261595334E+02  0.94666354636E+02  0.89674905403E+02 0.  0.
         13    1    3    3    0    0 -0.26398746339E+02  0.19111513662E+02  0.22176868342E+02  0.39420406089E+02  0.10566000000E+00 0.  1.
         22    1    1    0    0    0  0.12394998194E+00 -0.15180358625E+02  0.26261595334E+02  0.30333645364E+02  0.00000000000E+00 0. -1.
</event>
<event>
 5    1  0.3125560E-003  0.9118800E+02  0.7818608E-02  0.1130116E+00
         25   -1    0    0    0    0  0.00000000000E+00  0.00000000000E+00  0.99999998245E-14  0.12500000000E+03  0.12500000000E+03 0.  0.
        -13    1    3    3    0    0  0.21207740410E+02  0.28419514965E+02 -0.28068034940E+02  0.45224582182E+02  0.10566000000E+00 0. -1.
         23    2    1    0    0    0 -0.97901789995E+01 -0.13407038323E+02 -0.21706754476E+02  0.97672733922E+02  0.93771975986E+02 0.  0.
         13    1    3    3    0    0 -0.30997919409E+02 -0.41826553288E+02  0.63612804644E+01  0.52448151739E+02  0.10566000000E+00 0.  1.
         22    1    1    0    0    0  0.97901789995E+01  0.13407038323E+02  0.21706754476E+02  0.27327266078E+02  0.00000000000E+00 0. -1.
</event>
<event>
 5    1  0.3125560E-003  0.9118800E+02  0.7818608E-02  0.1130116E+00
         25   -1    0    0    0    0  0.00000000000E+00  0.00000000000E+00  0.99999998245E-14  0.12500000000E+03  0.12500000000E+03 0.  0.
        -13    1    3    3    0    0  0.44573557647E+02  0.14552791684E+02  0.25165221608E+02  0.53215461378E+02  0.10566000000E+00 0. -1.
         23    2    1    0    0    0  0.34874896591E+02  0.77088497856E+01 -0.79630720460E+01  0.88406348998E+02  0.80477246781E+02 0.  0.
         13    1    3    3    0    0 -0.96986610556E+01 -0.68439418980E+01 -0.33128293654E+02  0.35190887619E+02  0.10566000000E+00 0.  1.
         22    1    1    0    0    0 -0.34874896591E+02 -0.77088497856E+01  0.79630720460E+01  0.36593651002E+02  0.00000000000E+00 0. -1.
</event>
<event>
 5    1  0.3125560E-003  0.9118800E+02  0.7818608E-02  0.1130116E+00
         25   -1    0    0    0    0  0.00000000000E+00  0.00000000000E+00  0.99999998245E-14  0.12500000000E+03  0.12500000000E+03 0.  0.
        -13    1    3    3    0    0 -0.67853442771E+01 -0.41955031366E+02 -0.35354255781E+02  0.55282909834E+02  0.10566000000E+00 0. -1.
         23    2    1    0    0    0  0.16276888339E+02 -0.23268644656E+02 -0.83759292534E+01  0.95393867038E+02  0.90683332314E+02 0.  0.
         13    1    3    3    0    0  0.23062232616E+02  0.18686386710E+02  0.26978326528E+02  0.40110957204E+02  0.10566000000E+00 0.  1.
         22    1    1    0    0    0 -0.16276888339E+02  0.23268644656E+02  0.83759292534E+01  0.29606132962E+02  0.00000000000E+00 0. -1.
</event>
<event>
 5    1  0.3125560E-003  0.9118800E+02  0.7818608E-02  0.1130116E+00
         25   -1    0    0    0    0  0.00000000000E+00  0.00000000000E+00  0.99999998245E-14  0.12500000000E+03  0.12500000000E+03 0.  0.
        -13    1    3    3    0    0 -0.12854572710E+02 -0.36659486838E+02  0.27696266257E+02  0.47710086391E+02  0.10566000000E+00 0. -1.
         23    2    1    0    0    0  0.14002120617E+02  0.37953835228E+01  0.24692672767E+02  0.96360998512E+02  0.92006791206E+02 0.  0.
         13    1    3    3    0    0  0.26856693326E+02  0.40454870361E+02 -0.30035934897E+01  0.48650912121E+02  0.10566000000E+00 0.  1.
         22    1    1    0    0    0 -0.14002120617E+02 -0.37953835228E+01 -0.24692672767E+02  0.28639001488E+02  0.00000000000E+00 0. -1.
</event>
<event>
 5    1  0.3125560E-003  0.9118800E+02  0.7818608E-02  0.1130116E+00
         25   -1    0    0    0    0  0.00000000000E+00  0.00000000000E+00  0.99999998245E-14  0.12500000000E+03  0.12500000000E+03 0.  0.
        -13    1    3    3    0    0 -0.23302231219E+02 -0.33711596008E+02  0.40089750969E+02  0.57329442540E+02  0.10566000000E+00 0. -1.
         23    2    1    0    0    0 -0.15072469792E+02  0.13309110458E+01  0.23701093299E+02  0.96880745148E+02  0.92710227521E+02 0.  0.
         13    1    3    3    0    0  0.82297614267E+01  0.35042507054E+02 -0.16388657669E+02  0.39551302608E+02  0.10566000000E+00 0.  1.
         22    1    1    0    0    0  0.15072469792E+02 -0.13309110458E+01 -0.23701093299E+02  0.28119254852E+02  0.00000000000E+00 0. -1.
</event>
<event>
 5    1  0.3125560E-003  0.9118800E+02  0.7818608E-02  0.1130116E+00
         25   -1    0    0    0    0  0.00000000000E+00  0.00000000000E+00  0.99999998245E-14  0.12500000000E+03  0.12500000000E+03 0.  0.
        -13    1    3    3    0    0 -0.57297919053E+02 -0.19448915803E+02  0.99854536966E+01  0.61327255795E+02  0.10566000000E+00 0.  1.
         23    2    1    0    0    0 -0.26394535851E+02 -0.30573907345E+01  0.10799065631E+02  0.96318316308E+02  0.91948785076E+02 0.  0.
         13    1    3    3    0    0  0.30903383202E+02  0.16391525069E+02  0.81361193478E+00  0.34991060513E+02  0.10566000000E+00 0. -1.
         22    1    1    0    0    0  0.26394535851E+02  0.30573907345E+01 -0.10799065631E+02  0.28681683692E+02  0.00000000000E+00 0.  1.
</event>
<event>
 5    1  0.3125560E-003  0.9118800E+02  0.7818608E-02  0.1130116E+00
         25   -1    0    0    0    0  0.00000000000E+00  0.00000000000E+00  0.99999998245E-14  0.12500000000E+03  0.12500000000E+03 0.  0.
        -13    1    3    3    0    0  0.17049718791E+02 -0.27459366008E+02 -0.50690721931E+02  0.60118800274E+02  0.10566000000E+00 0. -1.
         23    2    1    0    0    0 -0.27032304150E+01 -0.18623939867E+02 -0.22164537388E+02  0.95923801684E+02  0.91410887869E+02 0.  0.
         13    1    3    3    0    0 -0.19752949206E+02  0.88354261401E+01  0.28526184543E+02  0.35805001411E+02  0.10566000000E+00 0.  1.
         22    1    1    0    0    0  0.27032304150E+01  0.18623939867E+02  0.22164537388E+02  0.29076198316E+02  0.00000000000E+00 0. -1.
</event>
<event>
 5    1  0.3125560E-003  0.9118800E+02  0.7818608E-02  0.1130116E+00
         25   -1    0    0    0    0  0.00000000000E+00  0.00000000000E+00  0.99999998245E-14  0.12500000000E+03  0.12500000000E+03 0.  0.
        -13    1    3    3    0    0 -0.21346624567E+02  0.69798721755E+01  0.29894432289E+02  0.37390978082E+02  0.10566000000E+00 0. -1.
         23    2    1    0    0    0  0.86017555811E+01  0.37905512500E+02  0.18664963578E+02  0.81881570734E+02  0.69608854922E+02 0.  0.
         13    1    3    3    0    0  0.29948380148E+02  0.30925640325E+02 -0.11229468711E+02  0.44490592652E+02  0.10566000000E+00 0.  1.
         22    1    1    0    0    0 -0.86017555811E+01 -0.37905512500E+02 -0.18664963578E+02  0.43118429266E+02  0.00000000000E+00 0.  1.
</event>
<event>
 5    1  0.3125560E-003  0.9118800E+02  0.7818608E-02  0.1130116E+00
         25   -1    0    0    0    0  0.00000000000E+00  0.00000000000E+00  0.99999998245E-14  0.12500000000E+03  0.12500000000E+03 0.  0.
        -13    1    3    3    0    0 -0.71521449393E+01  0.43641350582E+02 -0.33994707272E+02  0.55779673219E+02  0.10566000000E+00 0. -1.
         23    2    1    0    0    0  0.15884014367E+02  0.21224126045E+02 -0.74598851161E+01  0.97460658601E+02  0.93488847732E+02 0.  0.
         13    1    3    3    0    0  0.23036159306E+02 -0.22417224538E+02  0.26534822156E+02  0.41680985382E+02  0.10566000000E+00 0.  1.
         22    1    1    0    0    0 -0.15884014367E+02 -0.21224126045E+02  0.74598851161E+01  0.27539341399E+02  0.00000000000E+00 0. -1.
</event>
<event>
 5    1  0.3125560E-003  0.9118800E+02  0.7818608E-02  0.1130116E+00
         25   -1    0    0    0    0  0.00000000000E+00  0.00000000000E+00  0.99999998245E-14  0.12500000000E+03  0.12500000000E+03 0.  0.
        -13    1    3    3    0    0 -0.30361570430E+02 -0.38019235056E+01  0.45341053041E+02  0.54700108192E+02  0.10566000000E+00 0.  1.
         23    2    1    0    0    0 -0.15206002807E+02  0.19892023008E+02  0.16331421560E+02  0.95106347984E+02  0.90286139557E+02 0.  0.
         13    1    3    3    0    0  0.15155567624E+02  0.23693946513E+02 -0.29009631482E+02  0.40406239792E+02  0.10566000000E+00 0. -1.
         22    1    1    0    0    0  0.15206002807E+02 -0.19892023008E+02 -0.16331421560E+02  0.29893652016E+02  0.00000000000E+00 0.  1.
</event>
<event>
 5    1  0.3125560E-003  0.9118800E+02  0.7818608E-02  0.1130116E+00
         25   -1    0    0    0    0  0.00000000000E+00  0.00000000000E+00  0.99999998245E-14  0.12500000000E+03  0.12500000000E+03 0.  0.
        -13    1    3    3    0    0 -0.26522012133E+02  0.39153832027E+02  0.22930389321E+02  0.52557146121E+02  0.10566000000E+00 0.  1.
         23    2    1    0    0    0 -0.64289625960E-01  0.27956051122E+02 -0.91147269700E+01  0.95595524571E+02  0.90960876990E+02 0.  0.
         13    1    3    3    0    0  0.26457722507E+02 -0.11197780905E+02 -0.32045116291E+02  0.43038378450E+02  0.10566000000E+00 0. -1.
         22    1    1    0    0    0  0.64289625960E-01 -0.27956051122E+02  0.91147269700E+01  0.29404475429E+02  0.00000000000E+00 0.  1.
</event>
<event>
 5    1  0.3125560E-003  0.9118800E+02  0.7818608E-02  0.1130116E+00
         25   -1    0    0    0    0  0.00000000000E+00  0.00000000000E+00  0.99999998245E-14  0.12500000000E+03  0.12500000000E+03 0.  0.
        -13    1    3    3    0    0 -0.45118514277E+01  0.89934138603E+01  0.32723084464E+02  0.34235211655E+02  0.10566000000E+00 0. -1.
         23    2    1    0    0    0  0.82723470790E+01  0.12601479021E+01 -0.27484925080E+02  0.96269514352E+02  0.91882417186E+02 0.  0.
         13    1    3    3    0    0  0.12784198507E+02 -0.77332659582E+01 -0.60208009544E+02  0.62034302697E+02  0.10566000000E+00 0.  1.
         22    1    1    0    0    0 -0.82723470790E+01 -0.12601479021E+01  0.27484925080E+02  0.28730485648E+02  0.00000000000E+00 0.  1.
</event>
<event>
 5    1  0.3125560E-003  0.9118800E+02  0.7818608E-02  0.1130116E+00
         25   -1    0    0    0    0  0.00000000000E+00  0.00000000000E+00  0.99999998245E-14  0.12500000000E+03  0.12500000000E+03 0.  0.
        -13    1    3    3    0    0  0.27538893058E+02  0.28632215166E+02  0.85789336999E+00  0.39735897137E+02  0.10566000000E+00 0. -1.
         23    2    1    0    0    0 -0.21559878149E+02  0.65591237120E+01  0.17920630046E+02  0.96207649785E+02  0.91798215921E+02 0.  0.
         13    1    3    3    0    0 -0.49098771206E+02 -0.22073091454E+02  0.17062736676E+02  0.56471752649E+02  0.10566000000E+00 0.  1.
         22    1    1    0    0    0  0.21559878149E+02 -0.65591237120E+01 -0.17920630046E+02  0.28792350215E+02  0.00000000000E+00 0.  1.
</event>
<event>
 5    1  0.3125560E-003  0.9118800E+02  0.7818608E-02  0.1130116E+00
         25   -1    0    0    0    0  0.00000000000E+00  0.00000000000E+00  0.99999998245E-14  0.12500000000E+03  0.12500000000E+03 0.  0.
        -13    1    3    3    0    0 -0.24003452426E+02  0.30795535500E+02 -0.39645960258E+02  0.55644802667E+02  0.10566000000E+00 0.  1.
         23    2    1    0    0    0 -0.93728052945E+01 -0.43654633454E+01 -0.27503300678E+02  0.95617381030E+02  0.90990907555E+02 0.  0.
         13    1    3    3    0    0  0.14630647131E+02 -0.35160998845E+02  0.12142659579E+02  0.39972578363E+02  0.10566000000E+00 0. -1.
         22    1    1    0    0    0  0.93728052945E+01  0.43654633454E+01  0.27503300678E+02  0.29382618970E+02  0.00000000000E+00 0. -1.
</event>
<event>
 5    1  0.3125560E-003  0.9118800E+02  0.7818608E-02  0.1130116E+00
         25   -1    0    0    0    0  0.00000000000E+00  0.00000000000E+00  0.99999998245E-14  0.12500000000E+03  0.12500000000E+03 0.  0.
        -13    1    3    3    0    0  0.11034485614E+01 -0.32272330401E+02  0.30058013759E+02  0.44115941148E+02  0.10566000000E+00 0. -1.
         23    2    1    0    0    0 -0.13857164326E+02 -0.19922478620E+02 -0.17235984075E+02  0.95234158763E+02  0.90462918871E+02 0.  0.
         13    1    3    3    0    0 -0.14960612887E+02  0.12349851781E+02 -0.47293997834E+02  0.51118217615E+02  0.10566000000E+00 0.  1.
         22    1    1    0    0    0  0.13857164326E+02  0.19922478620E+02  0.17235984075E+02  0.29765841237E+02  0.00000000000E+00 0.  1.
</event>
<event>
 5    1  0.3125560E-003  0.9118800E+02  0.7818608E-02  0.1130116E+00
         25   -1    0    0    0    0  0.00000000000E+00  0.00000000000E+00  0.99999998245E-14  0.12500000000E+03  0.12500000000E+03 0.  0.
        -13    1    3    3    0    0 -0.30371941594E+02 -0.16283618563E+02  0.46594539663E+02  0.57954062499E+02  0.10566000000E+00 0. -1.
         23    2    1    0    0    0 -0.87911196402E+01 -0.21101931334E+02  0.35708915245E+02  0.82600684929E+02  0.70888442162E+02 0.  0.
         13    1    3    3    0    0  0.21580821954E+02 -0.48183127716E+01 -0.10885624418E+02  0.24646622430E+02  0.10566000000E+00 0.  1.
         22    1    1    0    0    0  0.87911196402E+01  0.21101931334E+02 -0.35708915245E+02  0.42399315071E+02  0.00000000000E+00 0. -1.
</event>
<event>
 5    1  0.3125560E-003  0.9118800E+02  0.7818608E-02  0.1130116E+00
         25   -1    0    0    0    0  0.00000000000E+00  0.00000000000E+00  0.99999998245E-14  0.12500000000E+03  0.12500000000E+03 0.  0.
        -13    1    3    3    0    0  0.52235065882E+01  0.36942051076E+02 -0.31044949724E+00  0.37310959539E+02  0.10566000000E+00 0.  1.
         23    2    1    0    0    0 -0.51684740898E+01 -0.14908946046E+02  0.24605968742E+02  0.95769134561E+02  0.91199142760E+02 0.  0.
         13    1    3    3    0    0 -0.10391980678E+02 -0.51850997122E+02  0.24916418239E+02  0.58458175022E+02  0.10566000000E+00 0. -1.
         22    1    1    0    0    0  0.51684740898E+01  0.14908946046E+02 -0.24605968742E+02  0.29230865439E+02  0.00000000000E+00 0. -1.
</event>
<event>
 5    1  0.3125560E-003  0.9118800E+02  0.7818608E-02  0.1130116E+00
         25   -1    0    0    0    0  0.00000000000E+00  0.00000000000E+00  0.99999998245E-14  0.12500000000E+03  0.12500000000E+03 0.  0.
        -13    1    3    3    0    0  0.59166654823E+02  0.10868994617E+02  0.37799463915E+00  0.60157976452E+02  0.10566000000E+00 0. -1.
         23    2    1    0    0    0  0.26778901998E+02 -0.49594602273E+01 -0.68345151077E+01  0.96921245849E+02  0.92764818019E+02 0.  0.
         13    1    3    3    0    0 -0.32387752825E+02 -0.15828454844E+02 -0.72125097468E+01  0.36763269396E+02  0.10566000000E+00 0.  1.
         22    1    1    0    0    0 -0.26778901998E+02  0.49594602273E+01  0.68345151077E+01  0.28078754151E+02  0.00000000000E+00 0. -1.
</event>
<event>
 5    1  0.3125560E-003  0.9118800E+02  0.7818608E-02  0.1130116E+00
         25   -1    0    0    0    0  0.00000000000E+00  0.00000000000E+00  0.99999998245E-14  0.12500000000E+03  0.12500000000E+03 0.  0.
        -13    1    3    3    0    0  0.35974683205E+02  0.31656809274E+02 -0.16931936802E+02  0.50823548213E+02  0.10566000000E+00 0. -1.
         23    2    1    0    0    0 -0.21359284144E+01  0.11844365886E+02 -0.27434240461E+02  0.95041883518E+02  0.90196845175E+02 0.  0.
         13    1    3    3    0    0 -0.38110611619E+02 -0.19812443388E+02 -0.10502303659E+02  0.44218335305E+02  0.10566000000E+00 0.  1.
         22    1    1    0    0    0  0.21359284144E+01 -0.11844365886E+02  0.27434240461E+02  0.29958116482E+02  0.00000000000E+00 0. -1.
</event>
<event>
 5    1  0.3125560E-003  0.9118800E+02  0.7818608E-02  0.1130116E+00
         25   -1    0    0    0    0  0.00000000000E+00  0.00000000000E+00  0.99999998245E-14  0.12500000000E+03  0.12500000000E+03 0.  0.
        -13    1    3    3    0    0 -0.91869898794E+01  0.26488719151E+02 -0.36040927600E+02  0.45661938763E+02  0.10566000000E+00 0. -1.
         23    2    1    0    0    0 -0.15953148126E+02  0.12745215027E+02  0.15457075248E+02  0.99390146106E+02  0.96034038375E+02 0.  0.
         13    1    3    3    0    0 -0.67661582465E+01 -0.13743504124E+02  0.51498002848E+02  0.53728207344E+02  0.10566000000E+00 0.  1.
         22    1    1    0    0    0  0.15953148126E+02 -0.12745215027E+02 -0.15457075248E+02  0.25609853894E+02  0.00000000000E+00 0.  1.
</event>
<event>
 5    1  0.3125560E-003  0.9118800E+02  0.7818608E-02  0.1130116E+00
         25   -1    0    0    0    0  0.00000000000E+00  0.00000000000E+00  0.99999998245E-14  0.12500000000E+03  0.12500000000E+03 0.  0.
        -13    1    3    3    0    0 -0.20024733034E+02  0.18042209797E+02 -0.40906710359E+02  0.48988584220E+02  0.10566000000E+00 0.  1.
         23    2    1    0    0    0  0.13436975236E+02 -0.67877621399E+01 -0.29001691792E+02  0.92323951506E+02  0.86348062379E+02 0.  0.
         13    1    3    3    0    0  0.33461708270E+02 -0.24829971937E+02  0.11905018567E+02  0.43335367287E+02  0.10566000000E+00 0. -1.
         22    1    1    0    0    0 -0.13436975236E+02  0.67877621399E+01  0.29001691792E+02  0.32676048494E+02  0.00000000000E+00 0. -1.
</event>
<event>
 5    1  0.3125560E-003  0.9118800E+02  0.7818608E-02  0.1130116E+00
         25   -1    0    0    0    0  0.00000000000E+00  0.00000000000E+00  0.99999998245E-14  0.12500000000E+03  0.12500000000E+03 0.  0.
        -13    1    3    3    0    0  0.24474655133E+02  0.23246766386E+02 -0.29977544240E+02  0.45145157149E+02  0.10566000000E+00 0. -1.
         23    2    1    0    0    0  0.26302948243E+02 -0.76903900896E+00  0.13930905221E+02  0.95225738841E+02  0.90451283630E+02 0.  0.
         13    1    3    3    0    0  0.18282931103E+01 -0.24015805395E+02  0.43908449461E+02  0.50080581692E+02  0.10566000000E+00 0.  1.
         22    1    1    0    0    0 -0.26302948243E+02  0.76903900896E+00 -0.13930905221E+02  0.29774261159E+02  0.00000000000E+00 0.  1.
</event>
<event>
 5    1  0.3125560E-003  0.9118800E+02  0.7818608E-02  0.1130116E+00
         25   -1    0    0    0    0  0.00000000000E+00  0.00000000000E+00  0.99999998245E-14  0.12500000000E+03  0.12500000000E+03 0.  0.
        -13    1    3    3    0    0 -0.46260103007E+02 -0.24820549139E+02 -0.61798896656E+01  0.52860750941E+02  0.10566000000E+00 0.  1.
         23    2    1    0    0    0 -0.56686603050E+01 -0.29972766361E+02 -0.66443871410E+01  0.93780642007E+02  0.88431671373E+02 0.  0.
         13    1    3    3    0    0  0.40591442702E+02 -0.51522172221E+01 -0.46449747537E+00  0.40919891066E+02  0.10566000000E+00 0. -1.
         22    1    1    0    0    0  0.56686603050E+01  0.29972766361E+02  0.66443871410E+01  0.31219357993E+02  0.00000000000E+00 0. -1.
</event>
<event>
 5    1  0.3125560E-003  0.9118800E+02  0.7818608E-02  0.1130116E+00
         25   -1    0    0    0    0  0.00000000000E+00  0.00000000000E+00  0.99999998245E-14  0.12500000000E+03  0.12500000000E+03 0.  0.
        -13    1    3    3    0    0  0.81592660345E+01 -0.14729933915E+02  0.25959404950E+02  0.30942631510E+02  0.10566000000E+00 0.  1.
         23    2    1    0    0    0  0.77177754963E+01  0.25824678056E+02 -0.19401019784E+02  0.91790398618E+02  0.85572189726E+02 0.  0.
         13    1    3    3    0    0 -0.44149053818E+00  0.40554611970E+02 -0.45360424734E+02  0.60847767108E+02  0.10566000000E+00 0. -1.
         22    1    1    0    0    0 -0.77177754963E+01 -0.25824678056E+02  0.19401019784E+02  0.33209601382E+02  0.00000000000E+00 0. -1.
</event>
<event>
 5    1  0.3125560E-003  0.9118800E+02  0.7818608E-02  0.1130116E+00
         25   -1    0    0    0    0  0.00000000000E+00  0.00000000000E+00  0.99999998245E-14  0.12500000000E+03  0.12500000000E+03 0.  0.
        -13    1    3    3    0    0  0.33392109279E+02 -0.46241743515E+02  0.38164890660E+01  0.57165623920E+02  0.10566000000E+00 0. -1.
         23    2    1    0    0    0  0.23380474717E+02 -0.96461431563E+01  0.13511179791E+02  0.96325156406E+02  0.91958083394E+02 0.  0.
         13    1    3    3    0    0 -0.10011634562E+02  0.36595600359E+02  0.96946907250E+01  0.39159532486E+02  0.10566000000E+00 0.  1.
         22    1    1    0    0    0 -0.23380474717E+02  0.96461431563E+01 -0.13511179791E+02  0.28674843594E+02  0.00000000000E+00 0. -1.
</event>
<event>
 5    1  0.3125560E-003  0.9118800E+02  0.7818608E-02  0.1130116E+00
         25   -1    0    0    0    0  0.00000000000E+00  0.00000000000E+00  0.99999998245E-14  0.12500000000E+03  0.12500000000E+03 0.  0.
        -13    1    3    3    0    0 -0.18150557843E+02  0.17893262278E+02 -0.21029179024E+02  0.33043140278E+02  0.10566000000E+00 0.  1.
         23    2    1    0    0    0  0.12745253849E+02 -0.48576387436E+01  0.27139690749E+02  0.94625652866E+02  0.89618152271E+02 0.  0.
         13    1    3    3    0    0  0.30895811692E+02 -0.22750901022E+02  0.48168869773E+02  0.61582512588E+02  0.10566000000E+00 0. -1.
         22    1    1    0    0    0 -0.12745253849E+02  0.48576387436E+01 -0.27139690749E+02  0.30374347134E+02  0.00000000000E+00 0. -1.
</event>
<event>
 5    1  0.3125560E-003  0.9118800E+02  0.7818608E-02  0.1130116E+00
         25   -1    0    0    0    0  0.00000000000E+00  0.00000000000E+00  0.99999998245E-14  0.12500000000E+03  0.12500000000E+03 0.  0.
        -13    1    3    3    0    0  0.11837618285E+02  0.11598573828E+02 -0.31366086117E+02  0.35475324436E+02  0.10566000000E+00 0.  1.
         23    2    1    0    0    0 -0.25184158240E+02  0.90765440680E+01  0.14565944386E+02  0.94523907496E+02  0.89476124603E+02 0.  0.
         13    1    3    3    0    0 -0.37021776525E+02 -0.25220297604E+01  0.45932030503E+02  0.59048583060E+02  0.10566000000E+00 0. -1.
         22    1    1    0    0    0  0.25184158240E+02 -0.90765440680E+01 -0.14565944386E+02  0.30476092504E+02  0.00000000000E+00 0. -1.
</event>
<event>
 5    1  0.3125560E-003  0.9118800E+02  0.7818608E-02  0.1130116E+00
         25   -1    0    0    0    0  0.00000000000E+00  0.00000000000E+00  0.99999998245E-14  0.12500000000E+03  0.12500000000E+03 0.  0.
        -13    1    3    3    0    0  0.19139615965E+02 -0.22451368331E+02 -0.29274323378E+02  0.41561833604E+02  0.10566000000E+00 0.  1.
         23    2    1    0    0    0  0.25942306456E-01  0.25286747692E+02 -0.17304531049E+02  0.94359062079E+02  0.89245535013E+02 0.  0.
         13    1    3    3    0    0 -0.19113673659E+02  0.47738116023E+02  0.11969792329E+02  0.52797228475E+02  0.10566000000E+00 0. -1.
         22    1    1    0    0    0 -0.25942306456E-01 -0.25286747692E+02  0.17304531049E+02  0.30640937921E+02  0.00000000000E+00 0.  1.
</event>
<event>
 5    1  0.3125560E-003  0.9118800E+02  0.7818608E-02  0.1130116E+00
         25   -1    0    0    0    0  0.00000000000E+00  0.00000000000E+00  0.99999998245E-14  0.12500000000E+03  0.12500000000E+03 0.  0.
        -13    1    3    3    0    0 -0.32639708480E+02 -0.12138694010E+02  0.41154966511E+01  0.35066322000E+02  0.10566000000E+00 0.  1.
         23    2    1    0    0    0  0.18496145084E+02  0.16055507538E+02 -0.14722356111E+02  0.96423182915E+02  0.92091235895E+02 0.  0.
         13    1    3    3    0    0  0.51135853563E+02  0.28194201548E+02 -0.18837852762E+02  0.61356860915E+02  0.10566000000E+00 0. -1.
         22    1    1    0    0    0 -0.18496145084E+02 -0.16055507538E+02  0.14722356111E+02  0.28576817085E+02  0.00000000000E+00 0. -1.
</event>
<event>
 5    1  0.3125560E-003  0.9118800E+02  0.7818608E-02  0.1130116E+00
         25   -1    0    0    0    0  0.00000000000E+00  0.00000000000E+00  0.99999998245E-14  0.12500000000E+03  0.12500000000E+03 0.  0.
        -13    1    3    3    0    0 -0.13438613456E+02 -0.36869958518E+02 -0.49158355596E+01  0.39549548367E+02  0.10566000000E+00 0.  1.
         23    2    1    0    0    0  0.58807861328E+01  0.48943261748E+01  0.27900975377E+02  0.96069004490E+02  0.91609230553E+02 0.  0.
         13    1    3    3    0    0  0.19319399589E+02  0.41764284693E+02  0.32816810936E+02  0.56519456123E+02  0.10566000000E+00 0. -1.
         22    1    1    0    0    0 -0.58807861328E+01 -0.48943261748E+01 -0.27900975377E+02  0.28930995510E+02  0.00000000000E+00 0. -1.
</event>
<event>
 5    1  0.3125560E-003  0.9118800E+02  0.7818608E-02  0.1130116E+00
         25   -1    0    0    0    0  0.00000000000E+00  0.00000000000E+00  0.99999998245E-14  0.12500000000E+03  0.12500000000E+03 0.  0.
        -13    1    3    3    0    0  0.77363763089E+01  0.56568970414E+02 -0.12220957127E+02  0.58388893543E+02  0.10566000000E+00 0.  1.
         23    2    1    0    0    0  0.39787164065E+01  0.24509791550E+02  0.10683706632E+02  0.97968506266E+02  0.94165421289E+02 0.  0.
         13    1    3    3    0    0 -0.37576599024E+01 -0.32059178863E+02  0.22904663759E+02  0.39579612723E+02  0.10566000000E+00 0. -1.
         22    1    1    0    0    0 -0.39787164065E+01 -0.24509791550E+02 -0.10683706632E+02  0.27031493734E+02  0.00000000000E+00 0.  1.
</event>
<event>
 5    1  0.3125560E-003  0.9118800E+02  0.7818608E-02  0.1130116E+00
         25   -1    0    0    0    0  0.00000000000E+00  0.00000000000E+00  0.99999998245E-14  0.12500000000E+03  0.12500000000E+03 0.  0.
        -13    1    3    3    0    0  0.29212984245E+02  0.30074454190E+02  0.33247366715E+02  0.53509530000E+02  0.10566000000E+00 0. -1.
         23    2    1    0    0    0  0.15806873693E+02 -0.87056478054E+01  0.22933430643E+02  0.95818022673E+02  0.91266125525E+02 0.  0.
         13    1    3    3    0    0 -0.13406110552E+02 -0.38780101996E+02 -0.10313936073E+02  0.42308492673E+02  0.10566000000E+00 0.  1.
         22    1    1    0    0    0 -0.15806873693E+02  0.87056478054E+01 -0.22933430643E+02  0.29181977327E+02  0.00000000000E+00 0.  1.
</event>
<event>
 5    1  0.3125560E-003  0.9118800E+02  0.7818608E-02  0.1130116E+00
         25   -1    0    0    0    0  0.00000000000E+00  0.00000000000E+00  0.99999998245E-14  0.12500000000E+03  0.12500000000E+03 0.  0.
        -13    1    3    3    0    0 -0.42482835143E+02  0.30461390829E+02 -0.34083234106E+02  0.62404852569E+02  0.10566000000E+00 0.  1.
         23    2    1    0    0    0 -0.16628708323E+02  0.13936596352E+02 -0.16227795437E+02  0.97906015371E+02  0.94082431105E+02 0.  0.
         13    1    3    3    0    0  0.25854126820E+02 -0.16524794477E+02  0.17855438669E+02  0.35501162801E+02  0.10566000000E+00 0. -1.
         22    1    1    0    0    0  0.16628708323E+02 -0.13936596352E+02  0.16227795437E+02  0.27093984629E+02  0.00000000000E+00 0.  1.
</event>
<event>
 5    1  0.3125560E-003  0.9118800E+02  0.7818608E-02  0.1130116E+00
         25   -1    0    0    0    0  0.00000000000E+00  0.00000000000E+00  0.99999998245E-14  0.12500000000E+03  0.12500000000E+03 0.  0.
        -13    1    3    3    0    0  0.41766669966E+02 -0.17259234351E+02 -0.22404650763E+02  0.50441207661E+02  0.10566000000E+00 0.  1.
         23    2    1    0    0    0  0.63268679775E+00 -0.28438769146E+02 -0.77318719914E+01  0.95522114601E+02  0.90859939743E+02 0.  0.
         13    1    3    3    0    0 -0.41133983169E+02 -0.11179534795E+02  0.14672778772E+02  0.45080906939E+02  0.10566000000E+00 0. -1.
         22    1    1    0    0    0 -0.63268679775E+00  0.28438769146E+02  0.77318719914E+01  0.29477885399E+02  0.00000000000E+00 0.  1.
</event>
<event>
 5    1  0.3125560E-003  0.9118800E+02  0.7818608E-02  0.1130116E+00
         25   -1    0    0    0    0  0.00000000000E+00  0.00000000000E+00  0.99999998245E-14  0.12500000000E+03  0.12500000000E+03 0.  0.
        -13    1    3    3    0    0 -0.12839904664E+02  0.12268031070E+02 -0.58883368983E+02  0.61503089719E+02  0.10566000000E+00 0.  1.
         23    2    1    0    0    0 -0.34997261680E+01  0.12765371914E+02 -0.24303539341E+02  0.97325737086E+02  0.93308275472E+02 0.  0.
         13    1    3    3    0    0  0.93401784965E+01  0.49734084429E+00  0.34579829642E+02  0.35822647367E+02  0.10566000000E+00 0. -1.
         22    1    1    0    0    0  0.34997261680E+01 -0.12765371914E+02  0.24303539341E+02  0.27674262914E+02  0.00000000000E+00 0.  1.
</event>
<event>
 5    1  0.3125560E-003  0.9118800E+02  0.7818608E-02  0.1130116E+00
         25   -1    0    0    0    0  0.00000000000E+00  0.00000000000E+00  0.99999998245E-14  0.12500000000E+03  0.12500000000E+03 0.  0.
        -13    1    3    3    0    0 -0.44449011029E+02 -0.25442549866E+02  0.58020387541E+01  0.51543309390E+02  0.10566000000E+00 0. -1.
         23    2    1    0    0    0 -0.12317999050E+01 -0.22583317393E+02 -0.13169906922E+02  0.98828068398E+02  0.95299617520E+02 0.  0.
         13    1    3    3    0    0  0.43217211124E+02  0.28592324735E+01 -0.18971945676E+02  0.47284759008E+02  0.10566000000E+00 0.  1.
         22    1    1    0    0    0  0.12317999050E+01  0.22583317393E+02  0.13169906922E+02  0.26171931602E+02  0.00000000000E+00 0.  1.
</event>
<event>
 5    1  0.3125560E-003  0.9118800E+02  0.7818608E-02  0.1130116E+00
         25   -1    0    0    0    0  0.00000000000E+00  0.00000000000E+00  0.99999998245E-14  0.12500000000E+03  0.12500000000E+03 0.  0.
        -13    1    3    3    0    0  0.33773521569E+02  0.27415257386E+02 -0.35342571753E+02  0.56047797806E+02  0.10566000000E+00 0. -1.
         23    2    1    0    0    0 -0.27901674673E+01  0.17258541138E+02 -0.23318783183E+02  0.95855396282E+02  0.91317298857E+02 0.  0.
         13    1    3    3    0    0 -0.36563689036E+02 -0.10156716248E+02  0.12023788570E+02  0.39807598477E+02  0.10566000000E+00 0.  1.
         22    1    1    0    0    0  0.27901674673E+01 -0.17258541138E+02  0.23318783183E+02  0.29144603718E+02  0.00000000000E+00 0. -1.
</event>
<event>
 5    1  0.3125560E-003  0.9118800E+02  0.7818608E-02  0.1130116E+00
         25   -1    0    0    0    0  0.00000000000E+00  0.00000000000E+00  0.99999998245E-14  0.12500000000E+03  0.12500000000E+03 0.  0.
        -13    1    3    3    0    0  0.31757387326E+01 -0.29463837620E+02  0.25910288945E+02  0.39364416432E+02  0.10566000000E+00 0.  1.
         23    2    1    0    0    0  0.24051104649E+02  0.15139598365E+02 -0.29221261511E+01  0.96430752639E+02  0.92101510084E+02 0.  0.
         13    1    3    3    0    0  0.20875365917E+02  0.44603435985E+02 -0.28832415096E+02  0.57066336207E+02  0.10566000000E+00 0. -1.
         22    1    1    0    0    0 -0.24051104649E+02 -0.15139598365E+02  0.29221261511E+01  0.28569247361E+02  0.00000000000E+00 0. -1.
</event>
<event>
 5    1  0.3125560E-003  0.9118800E+02  0.7818608E-02  0.1130116E+00
         25   -1    0    0    0    0  0.00000000000E+00  0.00000000000E+00  0.99999998245E-14  0.12500000000E+03  0.12500000000E+03 0.  0.
        -13    1    3    3    0    0 -0.58987717420E+02  0.42130726069E+01 -0.14995412563E+02  0.61009625053E+02  0.10566000000E+00 0. -1.
         23    2    1    0    0    0 -0.25925255898E+02  0.91259316259E+01 -0.13269567217E+02  0.94479794635E+02  0.89414476785E+02 0.  0.
         13    1    3    3    0    0  0.33062461522E+02  0.49128590190E+01  0.17258453461E+01  0.33470169581E+02  0.10566000000E+00 0.  1.
         22    1    1    0    0    0  0.25925255898E+02 -0.91259316259E+01  0.13269567217E+02  0.30520205365E+02  0.00000000000E+00 0. -1.
</event>
<event>
 5    1  0.3125560E-003  0.9118800E+02  0.7818608E-02  0.1130116E+00
         25   -1    0    0    0    0  0.00000000000E+00  0.00000000000E+00  0.99999998245E-14  0.12500000000E+03  0.12500000000E+03 0.  0.
        -13    1    3    3    0    0  0.10447702996E+02 -0.33123002117E+02 -0.29513996033E+02  0.45578228279E+02  0.10566000000E+00 0.  1.
         23    2    1    0    0    0 -0.25473010675E+02 -0.73734628809E+01 -0.44527847228E+00  0.98477547236E+02  0.94838741077E+02 0.  0.
         13    1    3    3    0    0 -0.35920713671E+02  0.25749539237E+02  0.29068717561E+02  0.52899318957E+02  0.10566000000E+00 0. -1.
         22    1    1    0    0    0  0.25473010675E+02  0.73734628809E+01  0.44527847228E+00  0.26522452764E+02  0.00000000000E+00 0.  1.
</event>
<event>
 5    1  0.3125560E-003  0.9118800E+02  0.7818608E-02  0.1130116E+00
         25   -1    0    0    0    0  0.00000000000E+00  0.00000000000E+00  0.99999998245E-14  0.12500000000E+03  0.12500000000E+03 0.  0.
        -13    1    3    3    0    0 -0.83505465053E-01  0.40577882218E+02  0.78604376944E+01  0.41332422422E+02  0.10566000000E+00 0. -1.
         23    2    1    0    0    0 -0.25166290341E+02 -0.93253194380E+01 -0.21529682395E+01  0.98075308277E+02  0.94307089178E+02 0.  0.
         13    1    3    3    0    0 -0.25082784876E+02 -0.49903201656E+02 -0.10013405934E+02  0.56742885855E+02  0.10566000000E+00 0.  1.
         22    1    1    0    0    0  0.25166290341E+02  0.93253194380E+01  0.21529682395E+01  0.26924691723E+02  0.00000000000E+00 0.  1.
</event>
<event>
 5    1  0.3125560E-003  0.9118800E+02  0.7818608E-02  0.1130116E+00
         25   -1    0    0    0    0  0.00000000000E+00  0.00000000000E+00  0.99999998245E-14  0.12500000000E+03  0.12500000000E+03 0.  0.
        -13    1    3    3    0    0  0.19704701000E+02 -0.21214192270E+02 -0.23561240366E+02  0.37329082587E+02  0.10566000000E+00 0.  1.
         23    2    1    0    0    0  0.97953978335E+01  0.39855373771E+01  0.27725963001E+02  0.95325712288E+02  0.90589337518E+02 0.  0.
         13    1    3    3    0    0 -0.99093031668E+01  0.25199729647E+02  0.51287203366E+02  0.57996629701E+02  0.10566000000E+00 0. -1.
         22    1    1    0    0    0 -0.97953978335E+01 -0.39855373771E+01 -0.27725963001E+02  0.29674287712E+02  0.00000000000E+00 0. -1.
</event>
<event>
 5    1  0.3125560E-003  0.9118800E+02  0.7818608E-02  0.1130116E+00
         25   -1    0    0    0    0  0.00000000000E+00  0.00000000000E+00  0.99999998245E-14  0.12500000000E+03  0.12500000000E+03 0.  0.
        -13    1    3    3    0    0  0.48564385736E+02 -0.10345411737E+02 -0.13352766768E+02  0.51418232664E+02  0.10566000000E+00 0.  1.
         23    2    1    0    0    0  0.23251954426E+02  0.11996150809E+02  0.14410849640E+02  0.95129720353E+02  0.90318492504E+02 0.  0.
         13    1    3    3    0    0 -0.25312431310E+02  0.22341562546E+02  0.27763616408E+02  0.43711487688E+02  0.10566000000E+00 0. -1.
         22    1    1    0    0    0 -0.23251954426E+02 -0.11996150809E+02 -0.14410849640E+02  0.29870279647E+02  0.00000000000E+00 0.  1.
</event>
<event>
 5    1  0.3125560E-003  0.9118800E+02  0.7818608E-02  0.1130116E+00
         25   -1    0    0    0    0  0.00000000000E+00  0.00000000000E+00  0.99999998245E-14  0.12500000000E+03  0.12500000000E+03 0.  0.
        -13    1    3    3    0    0  0.23869127394E+02  0.45405644978E+02 -0.17508777428E+02  0.54203102212E+02  0.10566000000E+00 0.  1.
         23    2    1    0    0    0 -0.10401142181E+02  0.20841680034E+02 -0.16635289874E+02  0.96376718313E+02  0.92028145576E+02 0.  0.
         13    1    3    3    0    0 -0.34270269575E+02 -0.24563964943E+02  0.87348755342E+00  0.42173616101E+02  0.10566000000E+00 0. -1.
         22    1    1    0    0    0  0.10401142181E+02 -0.20841680034E+02  0.16635289874E+02  0.28623281687E+02  0.00000000000E+00 0.  1.
</event>
<event>
 5    1  0.3125560E-003  0.9118800E+02  0.7818608E-02  0.1130116E+00
         25   -1    0    0    0    0  0.00000000000E+00  0.00000000000E+00  0.99999998245E-14  0.12500000000E+03  0.12500000000E+03 0.  0.
        -13    1    3    3    0    0  0.17237103815E+02 -0.33039978294E+01  0.47159009031E+02  0.50319155859E+02  0.10566000000E+00 0.  1.
         23    2    1    0    0    0 -0.17601013724E+02 -0.10753338017E+02  0.90839893719E+01  0.10246227994E+03  0.99952838804E+02 0.  0.
         13    1    3    3    0    0 -0.34838117539E+02 -0.74493401872E+01 -0.38075019659E+02  0.52143124081E+02  0.10566000000E+00 0. -1.
         22    1    1    0    0    0  0.17601013724E+02  0.10753338017E+02 -0.90839893719E+01  0.22537720060E+02  0.00000000000E+00 0. -1.
</event>
<event>
 5    1  0.3125560E-003  0.9118800E+02  0.7818608E-02  0.1130116E+00
         25   -1    0    0    0    0  0.00000000000E+00  0.00000000000E+00  0.99999998245E-14  0.12500000000E+03  0.12500000000E+03 0.  0.
        -13    1    3    3    0    0 -0.36747671480E+02 -0.22448107846E+02 -0.24988670008E+02  0.49787083645E+02  0.10566000000E+00 0.  1.
         23    2    1    0    0    0 -0.19073459264E+02  0.16531274414E+02 -0.19840855296E+02  0.92894869243E+02  0.87170621833E+02 0.  0.
         13    1    3    3    0    0  0.17674212216E+02  0.38979382260E+02  0.51478147122E+01  0.43107785598E+02  0.10566000000E+00 0. -1.
         22    1    1    0    0    0  0.19073459264E+02 -0.16531274414E+02  0.19840855296E+02  0.32105130757E+02  0.00000000000E+00 0.  1.
</event>
<event>
 5    1  0.3125560E-003  0.9118800E+02  0.7818608E-02  0.1130116E+00
         25   -1    0    0    0    0  0.00000000000E+00  0.00000000000E+00  0.99999998245E-14  0.12500000000E+03  0.12500000000E+03 0.  0.
        -13    1    3    3    0    0  0.19687655176E+02  0.53396880925E+01 -0.23433756496E+02  0.31068764745E+02  0.10566000000E+00 0. -1.
         23    2    1    0    0    0 -0.16682275477E+02  0.13290150140E+02  0.24987359959E+02  0.92147381177E+02  0.86092074514E+02 0.  0.
         13    1    3    3    0    0 -0.36369930652E+02  0.79504620477E+01  0.48421116455E+02  0.61078616432E+02  0.10566000000E+00 0.  1.
         22    1    1    0    0    0  0.16682275477E+02 -0.13290150140E+02 -0.24987359959E+02  0.32852618823E+02  0.00000000000E+00 0.  1.
</event>
<event>
 5    1  0.3125560E-003  0.9118800E+02  0.7818608E-02  0.1130116E+00
         25   -1    0    0    0    0  0.00000000000E+00  0.00000000000E+00  0.99999998245E-14  0.12500000000E+03  0.12500000000E+03 0.  0.
        -13    1    3    3    0    0 -0.16665162334E+02 -0.33353961455E+02 -0.25122503189E+02  0.44959600875E+02  0.10566000000E+00 0.  1.
         23    2    1    0    0    0  0.22772703214E+02 -0.58494144197E+01  0.39663536499E+01  0.10115584722E+03  0.98305451548E+02 0.  0.
         13    1    3    3    0    0  0.39437865548E+02  0.27504547035E+02  0.29088856839E+02  0.56196246341E+02  0.10566000000E+00 0. -1.
         22    1    1    0    0    0 -0.22772703214E+02  0.58494144197E+01 -0.39663536499E+01  0.23844152784E+02  0.00000000000E+00 0. -1.
</event>
<event>
 5    1  0.3125560E-003  0.9118800E+02  0.7818608E-02  0.1130116E+00
         25   -1    0    0    0    0  0.00000000000E+00  0.00000000000E+00  0.99999998245E-14  0.12500000000E+03  0.12500000000E+03 0.  0.
        -13    1    3    3    0    0 -0.49253511352E+02  0.32508523083E+02  0.13696675842E+02  0.60583186997E+02  0.10566000000E+00 0.  1.
         23    2    1    0    0    0 -0.39636725550E+02  0.16699396951E+02  0.15738166746E+02  0.79200111753E+02  0.64614456109E+02 0.  0.
         13    1    3    3    0    0  0.96167858020E+01 -0.15809126132E+02  0.20414909045E+01  0.18616924756E+02  0.10566000000E+00 0. -1.
         22    1    1    0    0    0  0.39636725550E+02 -0.16699396951E+02 -0.15738166746E+02  0.45799888247E+02  0.00000000000E+00 0.  1.
</event>
<event>
 5    1  0.3125560E-003  0.9118800E+02  0.7818608E-02  0.1130116E+00
         25   -1    0    0    0    0  0.00000000000E+00  0.00000000000E+00  0.99999998245E-14  0.12500000000E+03  0.12500000000E+03 0.  0.
        -13    1    3    3    0    0  0.17536669529E+02  0.31584088165E+02  0.37784975101E+01  0.36323237890E+02  0.10566000000E+00 0. -1.
         23    2    1    0    0    0  0.13381133003E+02 -0.20237337386E+02 -0.20063513090E+02  0.93517479414E+02  0.88058899911E+02 0.  0.
         13    1    3    3    0    0 -0.41555365262E+01 -0.51821425551E+02 -0.23842010600E+02  0.57194241524E+02  0.10566000000E+00 0.  1.
         22    1    1    0    0    0 -0.13381133003E+02  0.20237337386E+02  0.20063513090E+02  0.31482520586E+02  0.00000000000E+00 0.  1.
</event>
<event>
 5    1  0.3125560E-003  0.9118800E+02  0.7818608E-02  0.1130116E+00
         25   -1    0    0    0    0  0.00000000000E+00  0.00000000000E+00  0.99999998245E-14  0.12500000000E+03  0.12500000000E+03 0.  0.
        -13    1    3    3    0    0 -0.44328154127E+02 -0.36331353021E+02 -0.16727586637E+02  0.59705743270E+02  0.10566000000E+00 0.  1.
         23    2    1    0    0    0 -0.17751479535E+02 -0.25823598387E+02  0.15429351969E+01  0.93625585131E+02  0.88212222978E+02 0.  0.
         13    1    3    3    0    0  0.26576674592E+02  0.10507754634E+02  0.18270521833E+02  0.33919841861E+02  0.10566000000E+00 0. -1.
         22    1    1    0    0    0  0.17751479535E+02  0.25823598387E+02 -0.15429351969E+01  0.31374414869E+02  0.00000000000E+00 0.  1.
</event>
<event>
 5    1  0.3125560E-003  0.9118800E+02  0.7818608E-02  0.1130116E+00
         25   -1    0    0    0    0  0.00000000000E+00  0.00000000000E+00  0.99999998245E-14  0.12500000000E+03  0.12500000000E+03 0.  0.
        -13    1    3    3    0    0  0.15806113219E+02  0.42793794669E+02  0.16461606737E+02  0.48498842643E+02  0.10566000000E+00 0. -1.
         23    2    1    0    0    0  0.16055741089E+01  0.19436077833E+02 -0.21945763795E+02  0.95640920683E+02  0.91023239730E+02 0.  0.
         13    1    3    3    0    0 -0.14200539110E+02 -0.23357716836E+02 -0.38407370532E+02  0.47142078041E+02  0.10566000000E+00 0.  1.
         22    1    1    0    0    0 -0.16055741089E+01 -0.19436077833E+02  0.21945763795E+02  0.29359079317E+02  0.00000000000E+00 0. -1.
</event>
<event>
 5    1  0.3125560E-003  0.9118800E+02  0.7818608E-02  0.1130116E+00
         25   -1    0    0    0    0  0.00000000000E+00  0.00000000000E+00  0.99999998245E-14  0.12500000000E+03  0.12500000000E+03 0.  0.
        -13    1    3    3    0    0  0.39107583834E+02  0.41819536378E+02 -0.16109604525E+02  0.59479469216E+02  0.10566000000E+00 0.  1.
         23    2    1    0    0    0  0.19593598246E+02  0.20681549934E+02  0.61505709961E+01  0.95854415026E+02  0.91315955651E+02 0.  0.
         13    1    3    3    0    0 -0.19513985588E+02 -0.21137986444E+02  0.22260175521E+02  0.36374945810E+02  0.10566000000E+00 0. -1.
         22    1    1    0    0    0 -0.19593598246E+02 -0.20681549934E+02 -0.61505709961E+01  0.29145584974E+02  0.00000000000E+00 0.  1.
</event>
<event>
 5    1  0.3125560E-003  0.9118800E+02  0.7818608E-02  0.1130116E+00
         25   -1    0    0    0    0  0.00000000000E+00  0.00000000000E+00  0.99999998245E-14  0.12500000000E+03  0.12500000000E+03 0.  0.
        -13    1    3    3    0    0  0.17692276443E+02 -0.48254039815E+02  0.94209733725E+01  0.52251649806E+02  0.10566000000E+00 0.  1.
         23    2    1    0    0    0  0.87053689125E+01 -0.18974737585E+02 -0.20978061596E+02  0.95404338449E+02  0.90697765200E+02 0.  0.
         13    1    3    3    0    0 -0.89869075302E+01  0.29279302230E+02 -0.30399034968E+02  0.43152688643E+02  0.10566000000E+00 0. -1.
         22    1    1    0    0    0 -0.87053689125E+01  0.18974737585E+02  0.20978061596E+02  0.29595661551E+02  0.00000000000E+00 0.  1.
</event>
<event>
 5    1  0.3125560E-003  0.9118800E+02  0.7818608E-02  0.1130116E+00
         25   -1    0    0    0    0  0.00000000000E+00  0.00000000000E+00  0.99999998245E-14  0.12500000000E+03  0.12500000000E+03 0.  0.
        -13    1    3    3    0    0  0.23086260228E+02  0.14146417721E+02 -0.14795520046E+02  0.30854742312E+02  0.10566000000E+00 0. -1.
         23    2    1    0    0    0 -0.24144723594E+02 -0.22575174440E+02 -0.72956113402E+01  0.91149857854E+02  0.84631344451E+02 0.  0.
         13    1    3    3    0    0 -0.47230983822E+02 -0.36721592161E+02  0.74999087056E+01  0.60295115543E+02  0.10566000000E+00 0.  1.
         22    1    1    0    0    0  0.24144723594E+02  0.22575174440E+02  0.72956113402E+01  0.33850142146E+02  0.00000000000E+00 0.  1.
</event>
<event>
 5    1  0.3125560E-003  0.9118800E+02  0.7818608E-02  0.1130116E+00
         25   -1    0    0    0    0  0.00000000000E+00  0.00000000000E+00  0.99999998245E-14  0.12500000000E+03  0.12500000000E+03 0.  0.
        -13    1    3    3    0    0  0.39456795077E+02 -0.26353390933E+02  0.37833313302E+02  0.60685341318E+02  0.10566000000E+00 0.  1.
         23    2    1    0    0    0  0.26213489878E+02 -0.13426386546E+02  0.10423580816E+02  0.93757945902E+02  0.88399584136E+02 0.  0.
         13    1    3    3    0    0 -0.13243305199E+02  0.12927004387E+02 -0.27409732485E+02  0.33072604584E+02  0.10566000000E+00 0. -1.
         22    1    1    0    0    0 -0.26213489878E+02  0.13426386546E+02 -0.10423580816E+02  0.31242054098E+02  0.00000000000E+00 0.  1.
</event>
<event>
 5    1  0.3125560E-003  0.9118800E+02  0.7818608E-02  0.1130116E+00
         25   -1    0    0    0    0  0.00000000000E+00  0.00000000000E+00  0.99999998245E-14  0.12500000000E+03  0.12500000000E+03 0.  0.
        -13    1    3    3    0    0  0.15933709825E+02 -0.17839354538E+01 -0.35167581006E+02  0.38650167559E+02  0.10566000000E+00 0.  1.
         23    2    1    0    0    0 -0.23909659505E+02 -0.13213519821E+02  0.59571398765E+01  0.97040092289E+02  0.92924824844E+02 0.  0.
         13    1    3    3    0    0 -0.39843369330E+02 -0.11429584367E+02  0.41124720882E+02  0.58389924730E+02  0.10566000000E+00 0. -1.
         22    1    1    0    0    0  0.23909659505E+02  0.13213519821E+02 -0.59571398765E+01  0.27959907711E+02  0.00000000000E+00 0. -1.
</event>
<event>
 5    1  0.3125560E-003  0.9118800E+02  0.7818608E-02  0.1130116E+00
         25   -1    0    0    0    0  0.00000000000E+00  0.00000000000E+00  0.99999998245E-14  0.12500000000E+03  0.12500000000E+03 0.  0.
        -13    1    3    3    0    0 -0.52549172051E+02 -0.22331294459E+02  0.92065782626E+01  0.57834889494E+02  0.10566000000E+00 0.  1.
         23    2    1    0    0    0 -0.21577316269E+02 -0.11713943346E+02  0.21057253961E+02  0.92654907784E+02  0.86825842617E+02 0.  0.
         13    1    3    3    0    0  0.30971855782E+02  0.10617351113E+02  0.11850675698E+02  0.34820018291E+02  0.10566000000E+00 0. -1.
         22    1    1    0    0    0  0.21577316269E+02  0.11713943346E+02 -0.21057253961E+02  0.32345092216E+02  0.00000000000E+00 0.  1.
</event>
<event>
 5    1  0.3125560E-003  0.9118800E+02  0.7818608E-02  0.1130116E+00
         25   -1    0    0    0    0  0.00000000000E+00  0.00000000000E+00  0.99999998245E-14  0.12500000000E+03  0.12500000000E+03 0.  0.
        -13    1    3    3    0    0 -0.61906373196E+02 -0.59527355843E+00  0.96940530418E+00  0.61916914519E+02  0.10566000000E+00 0. -1.
         23    2    1    0    0    0 -0.29132491193E+02 -0.45556378300E+01 -0.37907075563E+01  0.95270799827E+02  0.90513534661E+02 0.  0.
         13    1    3    3    0    0  0.32773882003E+02 -0.39603642716E+01 -0.47601128604E+01  0.33353885309E+02  0.10566000000E+00 0.  1.
         22    1    1    0    0    0  0.29132491193E+02  0.45556378300E+01  0.37907075563E+01  0.29729200173E+02  0.00000000000E+00 0. -1.
</event>
<event>
 5    1  0.3125560E-003  0.9118800E+02  0.7818608E-02  0.1130116E+00
         25   -1    0    0    0    0  0.00000000000E+00  0.00000000000E+00  0.99999998245E-14  0.12500000000E+03  0.12500000000E+03 0.  0.
        -13    1    3    3    0    0  0.10744803234E+02  0.29222729900E+02  0.20403924051E+02  0.37225663460E+02  0.10566000000E+00 0. -1.
         23    2    1    0    0    0  0.29816001813E+02 -0.12905273914E+02 -0.80581850828E+01  0.91526511897E+02  0.85185843744E+02 0.  0.
         13    1    3    3    0    0  0.19071198579E+02 -0.42128003814E+02 -0.28462109134E+02  0.54300848437E+02  0.10566000000E+00 0.  1.
         22    1    1    0    0    0 -0.29816001813E+02  0.12905273914E+02  0.80581850828E+01  0.33473488103E+02  0.00000000000E+00 0.  1.
</event>
<event>
 5    1  0.3125560E-003  0.9118800E+02  0.7818608E-02  0.1130116E+00
         25   -1    0    0    0    0  0.00000000000E+00  0.00000000000E+00  0.99999998245E-14  0.12500000000E+03  0.12500000000E+03 0.  0.
        -13    1    3    3    0    0 -0.18644730417E+02 -0.16659189340E+02  0.22646618982E+02  0.33734775487E+02  0.10566000000E+00 0. -1.
         23    2    1    0    0    0  0.62869870446E+01  0.51925704695E+00 -0.29933455132E+02  0.94409027964E+02  0.89315491327E+02 0.  0.
         13    1    3    3    0    0  0.24931717461E+02  0.17178446387E+02 -0.52580074114E+02  0.60674252477E+02  0.10566000000E+00 0.  1.
         22    1    1    0    0    0 -0.62869870446E+01 -0.51925704695E+00  0.29933455132E+02  0.30590972036E+02  0.00000000000E+00 0.  1.
</event>
<event>
 5    1  0.3125560E-003  0.9118800E+02  0.7818608E-02  0.1130116E+00
         25   -1    0    0    0    0  0.00000000000E+00  0.00000000000E+00  0.99999998245E-14  0.12500000000E+03  0.12500000000E+03 0.  0.
        -13    1    3    3    0    0 -0.26737332892E+02  0.17089922179E+02 -0.38509564811E+02  0.49899380320E+02  0.10566000000E+00 0.  1.
         23    2    1    0    0    0 -0.20869968038E+02 -0.14468400937E+02 -0.56635713644E+00  0.99598997028E+02  0.96305499620E+02 0.  0.
         13    1    3    3    0    0  0.58673648546E+01 -0.31558323117E+02  0.37943207675E+02  0.49699616708E+02  0.10566000000E+00 0. -1.
         22    1    1    0    0    0  0.20869968038E+02  0.14468400937E+02  0.56635713644E+00  0.25401002972E+02  0.00000000000E+00 0. -1.
</event>
<event>
 5    1  0.3125560E-003  0.9118800E+02  0.7818608E-02  0.1130116E+00
         25   -1    0    0    0    0  0.00000000000E+00  0.00000000000E+00  0.99999998245E-14  0.12500000000E+03  0.12500000000E+03 0.  0.
        -13    1    3    3    0    0 -0.26127113560E+02  0.15739462202E+01  0.41589790416E+02  0.49140870979E+02  0.10566000000E+00 0. -1.
         23    2    1    0    0    0 -0.24325534236E+02 -0.16817062050E+02 -0.83491723574E+00  0.95415506112E+02  0.90713155208E+02 0.  0.
         13    1    3    3    0    0  0.18015793246E+01 -0.18391008271E+02 -0.42424707652E+02  0.46274635132E+02  0.10566000000E+00 0.  1.
         22    1    1    0    0    0  0.24325534236E+02  0.16817062050E+02  0.83491723574E+00  0.29584493888E+02  0.00000000000E+00 0.  1.
</event>
<event>
 5    1  0.3125560E-003  0.9118800E+02  0.7818608E-02  0.1130116E+00
         25   -1    0    0    0    0  0.00000000000E+00  0.00000000000E+00  0.99999998245E-14  0.12500000000E+03  0.12500000000E+03 0.  0.
        -13    1    3    3    0    0  0.25838674002E+02  0.32445253414E+02  0.39977035501E+02  0.57606475980E+02  0.10566000000E+00 0. -1.
         23    2    1    0    0    0  0.91803502514E+01  0.30102567678E+00  0.27669580308E+02  0.95845667189E+02  0.91303980184E+02 0.  0.
         13    1    3    3    0    0 -0.16658323751E+02 -0.32144227737E+02 -0.12307455193E+02  0.38239191210E+02  0.10566000000E+00 0.  1.
         22    1    1    0    0    0 -0.91803502514E+01 -0.30102567678E+00 -0.27669580308E+02  0.29154332811E+02  0.00000000000E+00 0. -1.
</event>
<event>
 5    1  0.3125560E-003  0.9118800E+02  0.7818608E-02  0.1130116E+00
         25   -1    0    0    0    0  0.00000000000E+00  0.00000000000E+00  0.99999998245E-14  0.12500000000E+03  0.12500000000E+03 0.  0.
        -13    1    3    3    0    0 -0.16351902392E+02  0.10112783613E+01  0.44822441956E+02  0.47722844244E+02  0.10566000000E+00 0.  1.
         23    2    1    0    0    0  0.22719807453E+02  0.58265268612E+01  0.14378886159E+02  0.97488358225E+02  0.93525876400E+02 0.  0.
         13    1    3    3    0    0  0.39071709844E+02  0.48152484998E+01 -0.30443555797E+02  0.49765513982E+02  0.10566000000E+00 0. -1.
         22    1    1    0    0    0 -0.22719807453E+02 -0.58265268612E+01 -0.14378886159E+02  0.27511641775E+02  0.00000000000E+00 0.  1.
</event>
<event>
 5    1  0.3125560E-003  0.9118800E+02  0.7818608E-02  0.1130116E+00
         25   -1    0    0    0    0  0.00000000000E+00  0.00000000000E+00  0.99999998245E-14  0.12500000000E+03  0.12500000000E+03 0.  0.
        -13    1    3    3    0    0 -0.42823444577E+02  0.15267725083E+02 -0.37752633887E+02  0.59095036713E+02  0.10566000000E+00 0. -1.
         23    2    1    0    0    0 -0.12089662213E+02 -0.19252210930E+01 -0.26070651911E+02  0.96198171938E+02  0.91785309197E+02 0.  0.
         13    1    3    3    0    0  0.30733782364E+02 -0.17192946176E+02  0.11681981976E+02  0.37103135225E+02  0.10566000000E+00 0.  1.
         22    1    1    0    0    0  0.12089662213E+02  0.19252210930E+01  0.26070651911E+02  0.28801828062E+02  0.00000000000E+00 0. -1.
</event>
<event>
 5    1  0.3125560E-003  0.9118800E+02  0.7818608E-02  0.1130116E+00
         25   -1    0    0    0    0  0.00000000000E+00  0.00000000000E+00  0.99999998245E-14  0.12500000000E+03  0.12500000000E+03 0.  0.
        -13    1    3    3    0    0 -0.43701945951E+01  0.55905553723E+00  0.44765974384E+02  0.44982382890E+02  0.10566000000E+00 0.  1.
         23    2    1    0    0    0 -0.17409986902E+02 -0.23009588643E+02  0.13010919135E+01  0.96116758256E+02  0.91674366996E+02 0.  0.
         13    1    3    3    0    0 -0.13039792307E+02 -0.23568644180E+02 -0.43464882470E+02  0.51134375366E+02  0.10566000000E+00 0. -1.
         22    1    1    0    0    0  0.17409986902E+02  0.23009588643E+02 -0.13010919135E+01  0.28883241744E+02  0.00000000000E+00 0.  1.
</event>
<event>
 5    1  0.3125560E-003  0.9118800E+02  0.7818608E-02  0.1130116E+00
         25   -1    0    0    0    0  0.00000000000E+00  0.00000000000E+00  0.99999998245E-14  0.12500000000E+03  0.12500000000E+03 0.  0.
        -13    1    3    3    0    0  0.65887530835E+01 -0.32511190118E+02  0.51505796367E+01  0.33569759974E+02  0.10566000000E+00 0.  1.
         23    2    1    0    0    0 -0.59299914495E+01  0.28071773219E+02 -0.37314767862E+01  0.96067091932E+02  0.91606620847E+02 0.  0.
         13    1    3    3    0    0 -0.12518744533E+02  0.60582963338E+02 -0.88820564230E+01  0.62497331957E+02  0.10566000000E+00 0. -1.
         22    1    1    0    0    0  0.59299914495E+01 -0.28071773219E+02  0.37314767862E+01  0.28932908068E+02  0.00000000000E+00 0. -1.
</event>
<event>
 5    1  0.3125560E-003  0.9118800E+02  0.7818608E-02  0.1130116E+00
         25   -1    0    0    0    0  0.00000000000E+00  0.00000000000E+00  0.99999998245E-14  0.12500000000E+03  0.12500000000E+03 0.  0.
        -13    1    3    3    0    0  0.42568374647E+02  0.18106012137E+02  0.24825871514E+02  0.52499802438E+02  0.10566000000E+00 0. -1.
         23    2    1    0    0    0  0.47496464328E+01 -0.51105302430E+01  0.27180114108E+02  0.96938723060E+02  0.92788365461E+02 0.  0.
         13    1    3    3    0    0 -0.37818728214E+02 -0.23216542380E+02  0.23542425943E+01  0.44438920622E+02  0.10566000000E+00 0.  1.
         22    1    1    0    0    0 -0.47496464328E+01  0.51105302430E+01 -0.27180114108E+02  0.28061276940E+02  0.00000000000E+00 0. -1.
</event>
<event>
 5    1  0.3125560E-003  0.9118800E+02  0.7818608E-02  0.1130116E+00
         25   -1    0    0    0    0  0.00000000000E+00  0.00000000000E+00  0.99999998245E-14  0.12500000000E+03  0.12500000000E+03 0.  0.
        -13    1    3    3    0    0  0.26255219069E+02  0.25440067288E+01  0.52427725194E+02  0.58689743837E+02  0.10566000000E+00 0.  1.
         23    2    1    0    0    0  0.14229767733E+02  0.15873641482E+02  0.19929398171E+02  0.95817133535E+02  0.91264907735E+02 0.  0.
         13    1    3    3    0    0 -0.12025451336E+02  0.13329634753E+02 -0.32498327023E+02  0.37127389698E+02  0.10566000000E+00 0. -1.
         22    1    1    0    0    0 -0.14229767733E+02 -0.15873641482E+02 -0.19929398171E+02  0.29182866465E+02  0.00000000000E+00 0.  1.
</event>
<event>
 5    1  0.3125560E-003  0.9118800E+02  0.7818608E-02  0.1130116E+00
         25   -1    0    0    0    0  0.00000000000E+00  0.00000000000E+00  0.99999998245E-14  0.12500000000E+03  0.12500000000E+03 0.  0.
        -13    1    3    3    0    0 -0.98555864659E+01 -0.18951517637E+02  0.34601412571E+02  0.40664007689E+02  0.10566000000E+00 0. -1.
         23    2    1    0    0    0  0.29072749686E+01  0.27992413517E+02  0.10426454347E+02  0.94987695648E+02  0.90121717205E+02 0.  0.
         13    1    3    3    0    0  0.12762861434E+02  0.46943931155E+02 -0.24174958225E+02  0.54323687959E+02  0.10566000000E+00 0.  1.
         22    1    1    0    0    0 -0.29072749686E+01 -0.27992413517E+02 -0.10426454347E+02  0.30012304352E+02  0.00000000000E+00 0.  1.
</event>
<event>
 5    1  0.3125560E-003  0.9118800E+02  0.7818608E-02  0.1130116E+00
         25   -1    0    0    0    0  0.00000000000E+00  0.00000000000E+00  0.99999998245E-14  0.12500000000E+03  0.12500000000E+03 0.  0.
        -13    1    3    3    0    0 -0.33668805576E+02  0.45513395284E+02  0.22639702586E+02  0.60972329104E+02  0.10566000000E+00 0. -1.
         23    2    1    0    0    0 -0.22280845818E+02  0.19330112381E+02  0.36165023734E+01  0.95281850252E+02  0.90528794110E+02 0.  0.
         13    1    3    3    0    0  0.11387959758E+02 -0.26183282902E+02 -0.19023200213E+02  0.34309521148E+02  0.10566000000E+00 0.  1.
         22    1    1    0    0    0  0.22280845818E+02 -0.19330112381E+02 -0.36165023734E+01  0.29718149748E+02  0.00000000000E+00 0. -1.
</event>
<event>
 5    1  0.3125560E-003  0.9118800E+02  0.7818608E-02  0.1130116E+00
         25   -1    0    0    0    0  0.00000000000E+00  0.00000000000E+00  0.99999998245E-14  0.12500000000E+03  0.12500000000E+03 0.  0.
        -13    1    3    3    0    0  0.36014162687E+02  0.35514791297E+02 -0.34353235963E+02  0.61143080558E+02  0.10566000000E+00 0.  1.
         23    2    1    0    0    0  0.15200051195E+02  0.11915011232E+02 -0.23836464708E+02  0.94321243526E+02  0.89192549473E+02 0.  0.
         13    1    3    3    0    0 -0.20814111492E+02 -0.23599780065E+02  0.10516771254E+02  0.33178162969E+02  0.10566000000E+00 0. -1.
         22    1    1    0    0    0 -0.15200051195E+02 -0.11915011232E+02  0.23836464708E+02  0.30678756474E+02  0.00000000000E+00 0.  1.
</event>
<event>
 5    1  0.3125560E-003  0.9118800E+02  0.7818608E-02  0.1130116E+00
         25   -1    0    0    0    0  0.00000000000E+00  0.00000000000E+00  0.99999998245E-14  0.12500000000E+03  0.12500000000E+03 0.  0.
        -13    1    3    3    0    0 -0.49704126619E+02 -0.15439824470E+02 -0.10308777730E+02  0.53058179812E+02  0.10566000000E+00 0. -1.
         23    2    1    0    0    0 -0.18257319069E+02  0.44550781999E+01 -0.25560559325E+02  0.93274306716E+02  0.87713035969E+02 0.  0.
         13    1    3    3    0    0  0.31446807550E+02  0.19894902669E+02 -0.15251781595E+02  0.40216126904E+02  0.10566000000E+00 0.  1.
         22    1    1    0    0    0  0.18257319069E+02 -0.44550781999E+01  0.25560559325E+02  0.31725693284E+02  0.00000000000E+00 0. -1.
</event>
<event>
 5    1  0.3125560E-003  0.9118800E+02  0.7818608E-02  0.1130116E+00
         25   -1    0    0    0    0  0.00000000000E+00  0.00000000000E+00  0.99999998245E-14  0.12500000000E+03  0.12500000000E+03 0.  0.
        -13    1    3    3    0    0  0.11666281254E+02  0.49253714268E+02 -0.19934500964E+02  0.54400606433E+02  0.10566000000E+00 0.  1.
         23    2    1    0    0    0 -0.16368929119E+02  0.24471772273E+02 -0.32184616397E+01  0.95382978307E+02  0.90668321792E+02 0.  0.
         13    1    3    3    0    0 -0.28035210372E+02 -0.24781941996E+02  0.16716039324E+02  0.40982371874E+02  0.10566000000E+00 0. -1.
         22    1    1    0    0    0  0.16368929119E+02 -0.24471772273E+02  0.32184616397E+01  0.29617021693E+02  0.00000000000E+00 0.  1.
</event>
<event>
 5    1  0.3125560E-003  0.9118800E+02  0.7818608E-02  0.1130116E+00
         25   -1    0    0    0    0  0.00000000000E+00  0.00000000000E+00  0.99999998245E-14  0.12500000000E+03  0.12500000000E+03 0.  0.
        -13    1    3    3    0    0 -0.53719774629E+02 -0.14406322266E+02  0.21050430916E+02  0.59468379103E+02  0.10566000000E+00 0. -1.
         23    2    1    0    0    0 -0.17223265655E+02 -0.17826303106E+02  0.13047242388E+02  0.96988422105E+02  0.92855293474E+02 0.  0.
         13    1    3    3    0    0  0.36496508974E+02 -0.34199808393E+01 -0.80031885274E+01  0.37520043002E+02  0.10566000000E+00 0.  1.
         22    1    1    0    0    0  0.17223265655E+02  0.17826303106E+02 -0.13047242388E+02  0.28011577895E+02  0.00000000000E+00 0. -1.
</event>
<event>
 5    1  0.3125560E-003  0.9118800E+02  0.7818608E-02  0.1130116E+00
         25   -1    0    0    0    0  0.00000000000E+00  0.00000000000E+00  0.99999998245E-14  0.12500000000E+03  0.12500000000E+03 0.  0.
        -13    1    3    3    0    0  0.35970294284E+02  0.27989104939E+00 -0.18243944937E+01  0.36017773240E+02  0.10566000000E+00 0. -1.
         23    2    1    0    0    0 -0.16859414662E+02 -0.15998288410E+02  0.18887586097E+02  0.95051277099E+02  0.90209862403E+02 0.  0.
         13    1    3    3    0    0 -0.52829708946E+02 -0.16278179460E+02  0.20711980591E+02  0.59033503859E+02  0.10566000000E+00 0.  1.
         22    1    1    0    0    0  0.16859414662E+02  0.15998288410E+02 -0.18887586097E+02  0.29948722901E+02  0.00000000000E+00 0.  1.
</event>
<event>
 5    1  0.3125560E-003  0.9118800E+02  0.7818608E-02  0.1130116E+00
         25   -1    0    0    0    0  0.00000000000E+00  0.00000000000E+00  0.99999998245E-14  0.12500000000E+03  0.12500000000E+03 0.  0.
        -13    1    3    3    0    0  0.25447005868E+02  0.42612120557E+02 -0.14838812323E+02  0.51802938539E+02  0.10566000000E+00 0.  1.
         23    2    1    0    0    0  0.15550184340E+02  0.15444154113E+01 -0.25245529527E+02  0.95309425518E+02  0.90566861376E+02 0.  0.
         13    1    3    3    0    0 -0.98968215283E+01 -0.41067705146E+02 -0.10406717204E+02  0.43506486979E+02  0.10566000000E+00 0. -1.
         22    1    1    0    0    0 -0.15550184340E+02 -0.15444154113E+01  0.25245529527E+02  0.29690574482E+02  0.00000000000E+00 0.  1.
</event>
<event>
 5    1  0.3125560E-003  0.9118800E+02  0.7818608E-02  0.1130116E+00
         25   -1    0    0    0    0  0.00000000000E+00  0.00000000000E+00  0.99999998245E-14  0.12500000000E+03  0.12500000000E+03 0.  0.
        -13    1    3    3    0    0  0.29552415631E+02  0.31740537804E+01  0.27437237386E+02  0.40450377581E+02  0.10566000000E+00 0. -1.
         23    2    1    0    0    0  0.15521877854E+02 -0.15518447463E+02 -0.21245455415E+02  0.94452982476E+02  0.89376985959E+02 0.  0.
         13    1    3    3    0    0 -0.14030537777E+02 -0.18692501244E+02 -0.48682692801E+02  0.54002604895E+02  0.10566000000E+00 0.  1.
         22    1    1    0    0    0 -0.15521877854E+02  0.15518447463E+02  0.21245455415E+02  0.30547017524E+02  0.00000000000E+00 0.  1.
</event>
<event>
 5    1  0.3125560E-003  0.9118800E+02  0.7818608E-02  0.1130116E+00
         25   -1    0    0    0    0  0.00000000000E+00  0.00000000000E+00  0.99999998245E-14  0.12500000000E+03  0.12500000000E+03 0.  0.
        -13    1    3    3    0    0  0.39977008763E+02  0.32168024442E+02 -0.24395953490E+01  0.51370281444E+02  0.10566000000E+00 0.  1.
         23    2    1    0    0    0  0.12687929635E+02  0.88015118160E+01  0.24336975520E+02  0.96177464613E+02  0.91757104102E+02 0.  0.
         13    1    3    3    0    0 -0.27289079127E+02 -0.23366512626E+02  0.26776570869E+02  0.44807183168E+02  0.10566000000E+00 0. -1.
         22    1    1    0    0    0 -0.12687929635E+02 -0.88015118160E+01 -0.24336975520E+02  0.28822535387E+02  0.00000000000E+00 0.  1.
</event>
<event>
 5    1  0.3125560E-003  0.9118800E+02  0.7818608E-02  0.1130116E+00
         25   -1    0    0    0    0  0.00000000000E+00  0.00000000000E+00  0.99999998245E-14  0.12500000000E+03  0.12500000000E+03 0.  0.
        -13    1    3    3    0    0 -0.98842033782E+01  0.43091186013E+01  0.43800185953E+02  0.45108019609E+02  0.10566000000E+00 0.  1.
         23    2    1    0    0    0  0.26898317837E+02 -0.61719515227E+01  0.11761287511E+02  0.95000993817E+02  0.90140160052E+02 0.  0.
         13    1    3    3    0    0  0.36782521215E+02 -0.10481070124E+02 -0.32038898442E+02  0.49892974208E+02  0.10566000000E+00 0. -1.
         22    1    1    0    0    0 -0.26898317837E+02  0.61719515227E+01 -0.11761287511E+02  0.29999006183E+02  0.00000000000E+00 0. -1.
</event>
<event>
 5    1  0.3125560E-003  0.9118800E+02  0.7818608E-02  0.1130116E+00
         25   -1    0    0    0    0  0.00000000000E+00  0.00000000000E+00  0.99999998245E-14  0.12500000000E+03  0.12500000000E+03 0.  0.
        -13    1    3    3    0    0  0.43264953024E+01 -0.31533409707E+02  0.21953353501E+02  0.38665687416E+02  0.10566000000E+00 0.  1.
         23    2    1    0    0    0 -0.62383799032E+01 -0.70876741384E+01 -0.28096337285E+02  0.95359543233E+02  0.90636007239E+02 0.  0.
         13    1    3    3    0    0 -0.10564875206E+02  0.24445735569E+02 -0.50049690786E+02  0.56693855817E+02  0.10566000000E+00 0. -1.
         22    1    1    0    0    0  0.62383799032E+01  0.70876741384E+01  0.28096337285E+02  0.29640456767E+02  0.00000000000E+00 0.  1.
</event>
<event>
 5    1  0.3125560E-003  0.9118800E+02  0.7818608E-02  0.1130116E+00
         25   -1    0    0    0    0  0.00000000000E+00  0.00000000000E+00  0.99999998245E-14  0.12500000000E+03  0.12500000000E+03 0.  0.
        -13    1    3    3    0    0 -0.24483108049E+02 -0.32965856145E+01  0.56780439055E+02  0.61921882075E+02  0.10566000000E+00 0.  1.
         23    2    1    0    0    0 -0.13477877325E+02 -0.64837383066E+01  0.23260680953E+02  0.97345862551E+02  0.93335232564E+02 0.  0.
         13    1    3    3    0    0  0.11005230724E+02 -0.31871526921E+01 -0.33519758101E+02  0.35423980476E+02  0.10566000000E+00 0. -1.
         22    1    1    0    0    0  0.13477877325E+02  0.64837383066E+01 -0.23260680953E+02  0.27654137449E+02  0.00000000000E+00 0.  1.
</event>
<event>
 5    1  0.3125560E-003  0.9118800E+02  0.7818608E-02  0.1130116E+00
         25   -1    0    0    0    0  0.00000000000E+00  0.00000000000E+00  0.99999998245E-14  0.12500000000E+03  0.12500000000E+03 0.  0.
        -13    1    3    3    0    0 -0.68830515395E+01 -0.46501125083E+02  0.28817275832E+02  0.55137805387E+02  0.10566000000E+00 0.  1.
         23    2    1    0    0    0  0.14046785031E+02 -0.11027241178E+02  0.21633727015E+02  0.96947720908E+02  0.92800486135E+02 0.  0.
         13    1    3    3    0    0  0.20929836570E+02  0.35473883905E+02 -0.71835488170E+01  0.41809915520E+02  0.10566000000E+00 0. -1.
         22    1    1    0    0    0 -0.14046785031E+02  0.11027241178E+02 -0.21633727015E+02  0.28052279092E+02  0.00000000000E+00 0.  1.
</event>
<event>
 5    1  0.3125560E-003  0.9118800E+02  0.7818608E-02  0.1130116E+00
         25   -1    0    0    0    0  0.00000000000E+00  0.00000000000E+00  0.99999998245E-14  0.12500000000E+03  0.12500000000E+03 0.  0.
        -13    1    3    3    0    0 -0.99967519749E+01 -0.22330258537E+02  0.29105840319E+02  0.38022843149E+02  0.10566000000E+00 0. -1.
         23    2    1    0    0    0  0.76583599244E+01 -0.15505984430E+02 -0.24578775527E+02  0.94946676785E+02  0.90064805536E+02 0.  0.
         13    1    3    3    0    0  0.17655111899E+02  0.68242741075E+01 -0.53684615846E+02  0.56923833636E+02  0.10566000000E+00 0.  1.
         22    1    1    0    0    0 -0.76583599244E+01  0.15505984430E+02  0.24578775527E+02  0.30053323215E+02  0.00000000000E+00 0.  1.
</event>
<event>
 5    1  0.3125560E-003  0.9118800E+02  0.7818608E-02  0.1130116E+00
         25   -1    0    0    0    0  0.00000000000E+00  0.00000000000E+00  0.99999998245E-14  0.12500000000E+03  0.12500000000E+03 0.  0.
        -13    1    3    3    0    0  0.19679431680E+02  0.55755187020E+02 -0.35181852448E+01  0.59230985998E+02  0.10566000000E+00 0. -1.
         23    2    1    0    0    0 -0.37007762783E+01  0.25180770922E+02  0.59383446236E+01  0.98865140021E+02  0.95348230215E+02 0.  0.
         13    1    3    3    0    0 -0.23380207958E+02 -0.30574416098E+02  0.94565298684E+01  0.39634154023E+02  0.10566000000E+00 0.  1.
         22    1    1    0    0    0  0.37007762783E+01 -0.25180770922E+02 -0.59383446236E+01  0.26134859979E+02  0.00000000000E+00 0. -1.
</event>
<event>
 5    1  0.3125560E-003  0.9118800E+02  0.7818608E-02  0.1130116E+00
         25   -1    0    0    0    0  0.00000000000E+00  0.00000000000E+00  0.99999998245E-14  0.12500000000E+03  0.12500000000E+03 0.  0.
        -13    1    3    3    0    0  0.78087947684E+00 -0.14101630049E+02  0.43453551413E+02  0.45691224948E+02  0.10566000000E+00 0.  1.
         23    2    1    0    0    0  0.28012643095E+02 -0.97516202530E+01  0.22745007656E+01  0.95251460129E+02  0.90486822423E+02 0.  0.
         13    1    3    3    0    0  0.27231763618E+02  0.43500097961E+01 -0.41179050647E+02  0.49560235181E+02  0.10566000000E+00 0. -1.
         22    1    1    0    0    0 -0.28012643095E+02  0.97516202530E+01 -0.22745007656E+01  0.29748539871E+02  0.00000000000E+00 0. -1.
</event>
<event>
 5    1  0.3125560E-003  0.9118800E+02  0.7818608E-02  0.1130116E+00
         25   -1    0    0    0    0  0.00000000000E+00  0.00000000000E+00  0.99999998245E-14  0.12500000000E+03  0.12500000000E+03 0.  0.
        -13    1    3    3    0    0  0.90192347997E+01  0.28531195778E+02 -0.22351879570E+02  0.37349610617E+02  0.10566000000E+00 0. -1.
         23    2    1    0    0    0  0.21821679435E+02 -0.75133220383E+01  0.20030699689E+02  0.94440801198E+02  0.89359947960E+02 0.  0.
         13    1    3    3    0    0  0.12802444635E+02 -0.36044517817E+02  0.42382579258E+02  0.57091190581E+02  0.10566000000E+00 0.  1.
         22    1    1    0    0    0 -0.21821679435E+02  0.75133220383E+01 -0.20030699689E+02  0.30559198802E+02  0.00000000000E+00 0.  1.
</event>
<event>
 5    1  0.3125560E-003  0.9118800E+02  0.7818608E-02  0.1130116E+00
         25   -1    0    0    0    0  0.00000000000E+00  0.00000000000E+00  0.99999998245E-14  0.12500000000E+03  0.12500000000E+03 0.  0.
        -13    1    3    3    0    0  0.14372479004E+02 -0.17012797039E+02  0.35300034802E+02  0.41738555759E+02  0.10566000000E+00 0.  1.
         23    2    1    0    0    0  0.22717973974E+02 -0.54063261923E+01 -0.17101609981E+02  0.96055228999E+02  0.91590432086E+02 0.  0.
         13    1    3    3    0    0  0.83454949699E+01  0.11606470847E+02 -0.52401644783E+02  0.54316673239E+02  0.10566000000E+00 0. -1.
         22    1    1    0    0    0 -0.22717973974E+02  0.54063261923E+01  0.17101609981E+02  0.28944771001E+02  0.00000000000E+00 0. -1.
</event>
<event>
 5    1  0.3125560E-003  0.9118800E+02  0.7818608E-02  0.1130116E+00
         25   -1    0    0    0    0  0.00000000000E+00  0.00000000000E+00  0.99999998245E-14  0.12500000000E+03  0.12500000000E+03 0.  0.
        -13    1    3    3    0    0 -0.23401128111E+02  0.19288086541E+02 -0.24276075283E+02  0.38845618471E+02  0.10566000000E+00 0.  1.
         23    2    1    0    0    0  0.27576440619E+02 -0.79184291285E+00 -0.11537364893E+02  0.95096858341E+02  0.90273000311E+02 0.  0.
         13    1    3    3    0    0  0.50977568730E+02 -0.20079929454E+02  0.12738710390E+02  0.56251239870E+02  0.10566000000E+00 0. -1.
         22    1    1    0    0    0 -0.27576440619E+02  0.79184291285E+00  0.11537364893E+02  0.29903141659E+02  0.00000000000E+00 0. -1.
</event>
<event>
 5    1  0.3125560E-003  0.9118800E+02  0.7818608E-02  0.1130116E+00
         25   -1    0    0    0    0  0.00000000000E+00  0.00000000000E+00  0.99999998245E-14  0.12500000000E+03  0.12500000000E+03 0.  0.
        -13    1    3    3    0    0  0.24378439034E+02 -0.26378870042E+01 -0.51825594783E+02  0.57333848434E+02  0.10566000000E+00 0.  1.
         23    2    1    0    0    0  0.80556145541E+01 -0.18713624928E+02 -0.20998136141E+02  0.95742276145E+02  0.91162322460E+02 0.  0.
         13    1    3    3    0    0 -0.16322824480E+02 -0.16075737924E+02  0.30827458643E+02  0.38408427711E+02  0.10566000000E+00 0. -1.
         22    1    1    0    0    0 -0.80556145541E+01  0.18713624928E+02  0.20998136141E+02  0.29257723855E+02  0.00000000000E+00 0.  1.
</event>
<event>
 5    1  0.3125560E-003  0.9118800E+02  0.7818608E-02  0.1130116E+00
         25   -1    0    0    0    0  0.00000000000E+00  0.00000000000E+00  0.99999998245E-14  0.12500000000E+03  0.12500000000E+03 0.  0.
        -13    1    3    3    0    0  0.29070470581E+02  0.16530590734E+02 -0.28686706906E+02  0.44060084055E+02  0.10566000000E+00 0. -1.
         23    2    1    0    0    0 -0.16934888271E+02 -0.47811618674E+01 -0.24363676663E+02  0.94946070305E+02  0.90063963805E+02 0.  0.
         13    1    3    3    0    0 -0.46005358853E+02 -0.21311752601E+02  0.43230302428E+01  0.50885986250E+02  0.10566000000E+00 0.  1.
         22    1    1    0    0    0  0.16934888271E+02  0.47811618674E+01  0.24363676663E+02  0.30053929695E+02  0.00000000000E+00 0.  1.
</event>
<event>
 5    1  0.3125560E-003  0.9118800E+02  0.7818608E-02  0.1130116E+00
         25   -1    0    0    0    0  0.00000000000E+00  0.00000000000E+00  0.99999998245E-14  0.12500000000E+03  0.12500000000E+03 0.  0.
        -13    1    3    3    0    0 -0.19981145953E+02 -0.33219676749E+02 -0.73725332231E+01  0.39460848028E+02  0.10566000000E+00 0. -1.
         23    2    1    0    0    0 -0.72324656200E+01  0.20793884682E+02 -0.18713498146E+02  0.96105550499E+02  0.91659083700E+02 0.  0.
         13    1    3    3    0    0  0.12748680333E+02  0.54013561430E+02 -0.11340964923E+02  0.56644702471E+02  0.10566000000E+00 0.  1.
         22    1    1    0    0    0  0.72324656200E+01 -0.20793884682E+02  0.18713498146E+02  0.28894449501E+02  0.00000000000E+00 0.  1.
</event>
<event>
 5    1  0.3125560E-003  0.9118800E+02  0.7818608E-02  0.1130116E+00
         25   -1    0    0    0    0  0.00000000000E+00  0.00000000000E+00  0.99999998245E-14  0.12500000000E+03  0.12500000000E+03 0.  0.
        -13    1    3    3    0    0 -0.56765006849E+02 -0.16337716393E+02 -0.20312106918E+01  0.59104348067E+02  0.10566000000E+00 0.  1.
         23    2    1    0    0    0 -0.21558604703E+02 -0.21035539708E+02  0.17783507537E+01  0.94826669078E+02  0.89898093803E+02 0.  0.
         13    1    3    3    0    0  0.35206402146E+02 -0.46978233148E+01  0.38095614455E+01  0.35722321011E+02  0.10566000000E+00 0. -1.
         22    1    1    0    0    0  0.21558604703E+02  0.21035539708E+02 -0.17783507537E+01  0.30173330922E+02  0.00000000000E+00 0.  1.
</event>
<event>
 5    1  0.3125560E-003  0.9118800E+02  0.7818608E-02  0.1130116E+00
         25   -1    0    0    0    0  0.00000000000E+00  0.00000000000E+00  0.99999998245E-14  0.12500000000E+03  0.12500000000E+03 0.  0.
        -13    1    3    3    0    0 -0.25936515066E+02  0.28679673846E+02 -0.63533316593E+01  0.39186764256E+02  0.10566000000E+00 0. -1.
         23    2    1    0    0    0  0.20032931289E+02 -0.17630951006E+01  0.16613542067E+02  0.98914819909E+02  0.95413337523E+02 0.  0.
         13    1    3    3    0    0  0.45969446354E+02 -0.30442768947E+02  0.22966873727E+02  0.59728055653E+02  0.10566000000E+00 0.  1.
         22    1    1    0    0    0 -0.20032931289E+02  0.17630951006E+01 -0.16613542067E+02  0.26085180091E+02  0.00000000000E+00 0.  1.
</event>
<event>
 5    1  0.3125560E-003  0.9118800E+02  0.7818608E-02  0.1130116E+00
         25   -1    0    0    0    0  0.00000000000E+00  0.00000000000E+00  0.99999998245E-14  0.12500000000E+03  0.12500000000E+03 0.  0.
        -13    1    3    3    0    0 -0.28939905675E+02 -0.54202830918E+02 -0.77564705661E+01  0.61932536035E+02  0.10566000000E+00 0.  1.
         23    2    1    0    0    0 -0.13015702934E+02 -0.25912818419E+02 -0.96143752685E+01  0.94449731702E+02  0.89372439406E+02 0.  0.
         13    1    3    3    0    0  0.15924202741E+02  0.28290012499E+02 -0.18579047024E+01  0.32517195667E+02  0.10566000000E+00 0. -1.
         22    1    1    0    0    0  0.13015702934E+02  0.25912818419E+02  0.96143752685E+01  0.30550268298E+02  0.00000000000E+00 0.  1.
</event>
<event>
 5    1  0.3125560E-003  0.9118800E+02  0.7818608E-02  0.1130116E+00
         25   -1    0    0    0    0  0.00000000000E+00  0.00000000000E+00  0.99999998245E-14  0.12500000000E+03  0.12500000000E+03 0.  0.
        -13    1    3    3    0    0  0.28604400089E+02 -0.29778460244E+02  0.46295140478E+02  0.62034019657E+02  0.10566000000E+00 0.  1.
         23    2    1    0    0    0  0.11471725890E+02 -0.10125788523E+02  0.24960161487E+02  0.95723016727E+02  0.91135910495E+02 0.  0.
         13    1    3    3    0    0 -0.17132674199E+02  0.19652671721E+02 -0.21334978991E+02  0.33688997070E+02  0.10566000000E+00 0. -1.
         22    1    1    0    0    0 -0.11471725890E+02  0.10125788523E+02 -0.24960161487E+02  0.29276983273E+02  0.00000000000E+00 0.  1.
</event>
<event>
 5    1  0.3125560E-003  0.9118800E+02  0.7818608E-02  0.1130116E+00
         25   -1    0    0    0    0  0.00000000000E+00  0.00000000000E+00  0.99999998245E-14  0.12500000000E+03  0.12500000000E+03 0.  0.
        -13    1    3    3    0    0 -0.11032989592E+02 -0.46924252638E+01  0.35508380698E+02  0.37478019932E+02  0.10566000000E+00 0. -1.
         23    2    1    0    0    0 -0.87087732136E+01  0.23621240991E+02 -0.15192492553E+02  0.95595619598E+02  0.90961007578E+02 0.  0.
         13    1    3    3    0    0  0.23242163784E+01  0.28313666255E+02 -0.50700873251E+02  0.58117599666E+02  0.10566000000E+00 0.  1.
         22    1    1    0    0    0  0.87087732136E+01 -0.23621240991E+02  0.15192492553E+02  0.29404380402E+02  0.00000000000E+00 0.  1.
</event>
<event>
 5    1  0.3125560E-003  0.9118800E+02  0.7818608E-02  0.1130116E+00
         25   -1    0    0    0    0  0.00000000000E+00  0.00000000000E+00  0.99999998245E-14  0.12500000000E+03  0.12500000000E+03 0.  0.
        -13    1    3    3    0    0 -0.78087779051E+01 -0.15931105136E+02  0.51110069496E+02  0.54102010047E+02  0.10566000000E+00 0.  1.
         23    2    1    0    0    0  0.10848848036E+02  0.75968186664E+01  0.33650465048E+02  0.88836994656E+02  0.81143383366E+02 0.  0.
         13    1    3    3    0    0  0.18657625942E+02  0.23527923803E+02 -0.17459604449E+02  0.34734984609E+02  0.10566000000E+00 0. -1.
         22    1    1    0    0    0 -0.10848848036E+02 -0.75968186664E+01 -0.33650465048E+02  0.36163005344E+02  0.00000000000E+00 0.  1.
</event>
<event>
 5    1  0.3125560E-003  0.9118800E+02  0.7818608E-02  0.1130116E+00
         25   -1    0    0    0    0  0.00000000000E+00  0.00000000000E+00  0.99999998245E-14  0.12500000000E+03  0.12500000000E+03 0.  0.
        -13    1    3    3    0    0 -0.71012507136E+01  0.25756606530E+02  0.41142179703E+02  0.49056300884E+02  0.10566000000E+00 0.  1.
         23    2    1    0    0    0  0.95065658246E+01 -0.13601091102E+02  0.25555790594E+02  0.94529310709E+02  0.89483672686E+02 0.  0.
         13    1    3    3    0    0  0.16607816538E+02 -0.39357697632E+02 -0.15586389109E+02  0.45473009825E+02  0.10566000000E+00 0. -1.
         22    1    1    0    0    0 -0.95065658246E+01  0.13601091102E+02 -0.25555790594E+02  0.30470689291E+02  0.00000000000E+00 0. -1.
</event>
<event>
 5    1  0.3125560E-003  0.9118800E+02  0.7818608E-02  0.1130116E+00
         25   -1    0    0    0    0  0.00000000000E+00  0.00000000000E+00  0.99999998245E-14  0.12500000000E+03  0.12500000000E+03 0.  0.
        -13    1    3    3    0    0  0.20045828003E+02  0.19375799667E+02 -0.54282415371E+02  0.61023344841E+02  0.10566000000E+00 0.  1.
         23    2    1    0    0    0  0.19131557221E+02  0.14463030956E+02 -0.26471847372E+02  0.89279495392E+02  0.81822208771E+02 0.  0.
         13    1    3    3    0    0 -0.91427078175E+00 -0.49127687107E+01  0.27810568000E+02  0.28256150551E+02  0.10566000000E+00 0. -1.
         22    1    1    0    0    0 -0.19131557221E+02 -0.14463030956E+02  0.26471847372E+02  0.35720504608E+02  0.00000000000E+00 0.  1.
</event>
<event>
 5    1  0.3125560E-003  0.9118800E+02  0.7818608E-02  0.1130116E+00
         25   -1    0    0    0    0  0.00000000000E+00  0.00000000000E+00  0.99999998245E-14  0.12500000000E+03  0.12500000000E+03 0.  0.
        -13    1    3    3    0    0 -0.26263965449E+01 -0.38126553228E+02  0.58345307877E+01  0.38659862046E+02  0.10566000000E+00 0.  1.
         23    2    1    0    0    0  0.92940558098E+00 -0.51552735949E+01 -0.34060909352E+02  0.90538627618E+02  0.83723693806E+02 0.  0.
         13    1    3    3    0    0  0.35558021259E+01  0.32971279633E+02 -0.39895440139E+02  0.51878765573E+02  0.10566000000E+00 0. -1.
         22    1    1    0    0    0 -0.92940558098E+00  0.51552735949E+01  0.34060909352E+02  0.34461372382E+02  0.00000000000E+00 0. -1.
</event>
<event>
 5    1  0.3125560E-003  0.9118800E+02  0.7818608E-02  0.1130116E+00
         25   -1    0    0    0    0  0.00000000000E+00  0.00000000000E+00  0.99999998245E-14  0.12500000000E+03  0.12500000000E+03 0.  0.
        -13    1    3    3    0    0 -0.47819556353E+02  0.18899835789E+02  0.58970121905E+00  0.51422491910E+02  0.10566000000E+00 0. -1.
         23    2    1    0    0    0 -0.61337613767E+01  0.21795199223E+02  0.17380778825E+02  0.96456257947E+02  0.92136119339E+02 0.  0.
         13    1    3    3    0    0  0.41685794977E+02  0.28953634344E+01  0.16791077606E+02  0.45033766037E+02  0.10566000000E+00 0.  1.
         22    1    1    0    0    0  0.61337613767E+01 -0.21795199223E+02 -0.17380778825E+02  0.28543742053E+02  0.00000000000E+00 0. -1.
</event>
<event>
 5    1  0.3125560E-003  0.9118800E+02  0.7818608E-02  0.1130116E+00
         25   -1    0    0    0    0  0.00000000000E+00  0.00000000000E+00  0.99999998245E-14  0.12500000000E+03  0.12500000000E+03 0.  0.
        -13    1    3    3    0    0 -0.15475341899E+02 -0.53558819499E+02  0.84603186934E+01  0.56388132701E+02  0.10566000000E+00 0.  1.
         23    2    1    0    0    0 -0.25288547555E+02 -0.18090734130E+02  0.12955775320E+01  0.93879848652E+02  0.88571791012E+02 0.  0.
         13    1    3    3    0    0 -0.98132056554E+01  0.35468085370E+02 -0.71647411615E+01  0.37491715951E+02  0.10566000000E+00 0. -1.
         22    1    1    0    0    0  0.25288547555E+02  0.18090734130E+02 -0.12955775320E+01  0.31120151348E+02  0.00000000000E+00 0.  1.
</event>
<event>
 5    1  0.3125560E-003  0.9118800E+02  0.7818608E-02  0.1130116E+00
         25   -1    0    0    0    0  0.00000000000E+00  0.00000000000E+00  0.99999998245E-14  0.12500000000E+03  0.12500000000E+03 0.  0.
        -13    1    3    3    0    0 -0.12801829433E+02 -0.61084836350E+01 -0.49081279368E+02  0.51089955545E+02  0.10566000000E+00 0. -1.
         23    2    1    0    0    0 -0.14961491690E+02 -0.22297555159E+02 -0.55553368005E+01  0.97579406158E+02  0.93647485495E+02 0.  0.
         13    1    3    3    0    0 -0.21596622573E+01 -0.16189071524E+02  0.43525942568E+02  0.46489450613E+02  0.10566000000E+00 0.  1.
         22    1    1    0    0    0  0.14961491690E+02  0.22297555159E+02  0.55553368005E+01  0.27420593842E+02  0.00000000000E+00 0.  1.
</event>
<event>
 5    1  0.3125560E-003  0.9118800E+02  0.7818608E-02  0.1130116E+00
         25   -1    0    0    0    0  0.00000000000E+00  0.00000000000E+00  0.99999998245E-14  0.12500000000E+03  0.12500000000E+03 0.  0.
        -13    1    3    3    0    0 -0.20947635802E+01  0.12683113397E+02  0.45373469187E+02  0.47159434581E+02  0.10566000000E+00 0. -1.
         23    2    1    0    0    0  0.23649358460E+02  0.21658706105E+02  0.10860074934E+02  0.91142461205E+02  0.84620418938E+02 0.  0.
         13    1    3    3    0    0  0.25744122040E+02  0.89755927080E+01 -0.34513394253E+02  0.43983026624E+02  0.10566000000E+00 0.  1.
         22    1    1    0    0    0 -0.23649358460E+02 -0.21658706105E+02 -0.10860074934E+02  0.33857538795E+02  0.00000000000E+00 0.  1.
</event>
<event>
 5    1  0.3125560E-003  0.9118800E+02  0.7818608E-02  0.1130116E+00
         25   -1    0    0    0    0  0.00000000000E+00  0.00000000000E+00  0.99999998245E-14  0.12500000000E+03  0.12500000000E+03 0.  0.
        -13    1    3    3    0    0  0.34102799541E+02  0.19621924482E+02  0.11832500143E+02  0.41085764938E+02  0.10566000000E+00 0. -1.
         23    2    1    0    0    0 -0.13971248218E+02  0.20618362561E+02 -0.14775186844E+02  0.96041084313E+02  0.91571125789E+02 0.  0.
         13    1    3    3    0    0 -0.48074047759E+02  0.99643807918E+00 -0.26607686987E+02  0.54955319375E+02  0.10566000000E+00 0.  1.
         22    1    1    0    0    0  0.13971248218E+02 -0.20618362561E+02  0.14775186844E+02  0.28958915687E+02  0.00000000000E+00 0. -1.
</event>
<event>
 5    1  0.3125560E-003  0.9118800E+02  0.7818608E-02  0.1130116E+00
         25   -1    0    0    0    0  0.00000000000E+00  0.00000000000E+00  0.99999998245E-14  0.12500000000E+03  0.12500000000E+03 0.  0.
        -13    1    3    3    0    0 -0.21859077659E+02 -0.30673795703E+02 -0.24731763238E+02  0.45059652637E+02  0.10566000000E+00 0.  1.
         23    2    1    0    0    0  0.23002854310E+02 -0.17321624328E+02 -0.53940169736E+01  0.95703833103E+02  0.91109594860E+02 0.  0.
         13    1    3    3    0    0  0.44861931969E+02  0.13352171375E+02  0.19337746264E+02  0.50644180465E+02  0.10566000000E+00 0. -1.
         22    1    1    0    0    0 -0.23002854310E+02  0.17321624328E+02  0.53940169736E+01  0.29296166897E+02  0.00000000000E+00 0. -1.
</event>
<event>
 5    1  0.3125560E-003  0.9118800E+02  0.7818608E-02  0.1130116E+00
         25   -1    0    0    0    0  0.00000000000E+00  0.00000000000E+00  0.99999998245E-14  0.12500000000E+03  0.12500000000E+03 0.  0.
        -13    1    3    3    0    0 -0.11884530143E+02 -0.24842303871E+02 -0.25872709012E+02  0.37786113243E+02  0.10566000000E+00 0. -1.
         23    2    1    0    0    0  0.83159367065E+01  0.24027740926E+02 -0.22951277056E+02  0.90747288344E+02  0.84034648128E+02 0.  0.
         13    1    3    3    0    0  0.20200466850E+02  0.48870044797E+02  0.29214319559E+01  0.52961175101E+02  0.10566000000E+00 0.  1.
         22    1    1    0    0    0 -0.83159367065E+01 -0.24027740926E+02  0.22951277056E+02  0.34252711656E+02  0.00000000000E+00 0.  1.
</event>
<event>
 5    1  0.3125560E-003  0.9118800E+02  0.7818608E-02  0.1130116E+00
         25   -1    0    0    0    0  0.00000000000E+00  0.00000000000E+00  0.99999998245E-14  0.12500000000E+03  0.12500000000E+03 0.  0.
        -13    1    3    3    0    0  0.47386301458E+01 -0.11729820933E+02  0.28779239870E+02  0.31437225169E+02  0.10566000000E+00 0. -1.
         23    2    1    0    0    0 -0.26741736081E+00  0.14832977697E+02 -0.27433940359E+02  0.93811703749E+02  0.88475566895E+02 0.  0.
         13    1    3    3    0    0 -0.50060475066E+01  0.26562798631E+02 -0.56213180229E+02  0.62374478581E+02  0.10566000000E+00 0.  1.
         22    1    1    0    0    0  0.26741736081E+00 -0.14832977697E+02  0.27433940359E+02  0.31188296251E+02  0.00000000000E+00 0.  1.
</event>
<event>
 5    1  0.3125560E-003  0.9118800E+02  0.7818608E-02  0.1130116E+00
         25   -1    0    0    0    0  0.00000000000E+00  0.00000000000E+00  0.99999998245E-14  0.12500000000E+03  0.12500000000E+03 0.  0.
        -13    1    3    3    0    0 -0.73595974879E+01  0.16726326325E+02  0.49687085218E+02  0.52941016887E+02  0.10566000000E+00 0.  1.
         23    2    1    0    0    0 -0.12002222256E+02  0.25786938868E+02  0.85790872682E+01  0.95291073839E+02  0.90541528924E+02 0.  0.
         13    1    3    3    0    0 -0.46426247678E+01  0.90606125433E+01 -0.41107997950E+02  0.42350056953E+02  0.10566000000E+00 0. -1.
         22    1    1    0    0    0  0.12002222256E+02 -0.25786938868E+02 -0.85790872682E+01  0.29708926161E+02  0.00000000000E+00 0.  1.
</event>
<event>
 5    1  0.3125560E-003  0.9118800E+02  0.7818608E-02  0.1130116E+00
         25   -1    0    0    0    0  0.00000000000E+00  0.00000000000E+00  0.99999998245E-14  0.12500000000E+03  0.12500000000E+03 0.  0.
        -13    1    3    3    0    0 -0.11601653558E+02 -0.46966574573E+02 -0.24094963929E+02  0.54046608988E+02  0.10566000000E+00 0.  1.
         23    2    1    0    0    0 -0.66859798292E+01 -0.25917873453E+02  0.11641465011E+02  0.95811608503E+02  0.91257340119E+02 0.  0.
         13    1    3    3    0    0  0.49156737289E+01  0.21048701120E+02  0.35736428940E+02  0.41764999514E+02  0.10566000000E+00 0. -1.
         22    1    1    0    0    0  0.66859798292E+01  0.25917873453E+02 -0.11641465011E+02  0.29188391497E+02  0.00000000000E+00 0.  1.
</event>
<event>
 5    1  0.3125560E-003  0.9118800E+02  0.7818608E-02  0.1130116E+00
         25   -1    0    0    0    0  0.00000000000E+00  0.00000000000E+00  0.99999998245E-14  0.12500000000E+03  0.12500000000E+03 0.  0.
        -13    1    3    3    0    0  0.15405239523E+02  0.10695933264E+02  0.35949848675E+02  0.40547838129E+02  0.10566000000E+00 0.  1.
         23    2    1    0    0    0 -0.26992572138E+02  0.10810908441E+02  0.33252271087E+00  0.95921051200E+02  0.91407126637E+02 0.  0.
         13    1    3    3    0    0 -0.42397811661E+02  0.11497517775E+00 -0.35617325964E+02  0.55373213071E+02  0.10566000000E+00 0. -1.
         22    1    1    0    0    0  0.26992572138E+02 -0.10810908441E+02 -0.33252271087E+00  0.29078948800E+02  0.00000000000E+00 0. -1.
</event>
<event>
 5    1  0.3125560E-003  0.9118800E+02  0.7818608E-02  0.1130116E+00
         25   -1    0    0    0    0  0.00000000000E+00  0.00000000000E+00  0.99999998245E-14  0.12500000000E+03  0.12500000000E+03 0.  0.
        -13    1    3    3    0    0  0.29320643841E+02 -0.89417504958E+01 -0.31795580985E+02  0.44165882663E+02  0.10566000000E+00 0. -1.
         23    2    1    0    0    0 -0.92698566019E+01  0.22138592749E+02 -0.15927454709E+02  0.96194942392E+02  0.91780910858E+02 0.  0.
         13    1    3    3    0    0 -0.38590500443E+02  0.31080343245E+02  0.15868126276E+02  0.52029059728E+02  0.10566000000E+00 0.  1.
         22    1    1    0    0    0  0.92698566019E+01 -0.22138592749E+02  0.15927454709E+02  0.28805057608E+02  0.00000000000E+00 0.  1.
</event>
<event>
 5    1  0.3125560E-003  0.9118800E+02  0.7818608E-02  0.1130116E+00
         25   -1    0    0    0    0  0.00000000000E+00  0.00000000000E+00  0.99999998245E-14  0.12500000000E+03  0.12500000000E+03 0.  0.
        -13    1    3    3    0    0 -0.13952079002E+02  0.27267593797E+01  0.48830399897E+02  0.50857790390E+02  0.10566000000E+00 0.  1.
         23    2    1    0    0    0  0.20663376084E+02  0.41853304214E+01  0.20179620071E+02  0.95815943255E+02  0.91263277465E+02 0.  0.
         13    1    3    3    0    0  0.34615455086E+02  0.14585710417E+01 -0.28650779827E+02  0.44958152865E+02  0.10566000000E+00 0. -1.
         22    1    1    0    0    0 -0.20663376084E+02 -0.41853304214E+01 -0.20179620071E+02  0.29184056745E+02  0.00000000000E+00 0.  1.
</event>
<event>
 5    1  0.3125560E-003  0.9118800E+02  0.7818608E-02  0.1130116E+00
         25   -1    0    0    0    0  0.00000000000E+00  0.00000000000E+00  0.99999998245E-14  0.12500000000E+03  0.12500000000E+03 0.  0.
        -13    1    3    3    0    0 -0.33429406711E+02  0.34643426226E+01  0.40055557124E+02  0.52287529330E+02  0.10566000000E+00 0.  1.
         23    2    1    0    0    0 -0.29090204100E+02  0.24015158806E+01 -0.30753126064E+01  0.95649279383E+02  0.91034717805E+02 0.  0.
         13    1    3    3    0    0  0.43392026109E+01 -0.10628267420E+01 -0.43130869730E+02  0.43361750054E+02  0.10566000000E+00 0. -1.
         22    1    1    0    0    0  0.29090204100E+02 -0.24015158806E+01  0.30753126064E+01  0.29350720617E+02  0.00000000000E+00 0.  1.
</event>
<event>
 5    1  0.3125560E-003  0.9118800E+02  0.7818608E-02  0.1130116E+00
         25   -1    0    0    0    0  0.00000000000E+00  0.00000000000E+00  0.99999998245E-14  0.12500000000E+03  0.12500000000E+03 0.  0.
        -13    1    3    3    0    0  0.49832198088E+02  0.29426784345E+02  0.10022151994E+02  0.58733621528E+02  0.10566000000E+00 0.  1.
         23    2    1    0    0    0  0.16479244854E+02  0.15025367191E+02  0.18483073391E+02  0.96035346158E+02  0.91563292534E+02 0.  0.
         13    1    3    3    0    0 -0.33352953234E+02 -0.14401417154E+02  0.84609213974E+01  0.37301724630E+02  0.10566000000E+00 0. -1.
         22    1    1    0    0    0 -0.16479244854E+02 -0.15025367191E+02 -0.18483073391E+02  0.28964653842E+02  0.00000000000E+00 0.  1.
</event>
<event>
 5    1  0.3125560E-003  0.9118800E+02  0.7818608E-02  0.1130116E+00
         25   -1    0    0    0    0  0.00000000000E+00  0.00000000000E+00  0.99999998245E-14  0.12500000000E+03  0.12500000000E+03 0.  0.
        -13    1    3    3    0    0  0.68069197921E+01  0.38718132145E+02 -0.19404842609E+02  0.43840472107E+02  0.10566000000E+00 0.  1.
         23    2    1    0    0    0 -0.25125976264E+02 -0.25695840966E+01 -0.13478431975E+02  0.96371594977E+02  0.92021186388E+02 0.  0.
         13    1    3    3    0    0 -0.31932896056E+02 -0.41287716241E+02  0.59264106340E+01  0.52531122870E+02  0.10566000000E+00 0. -1.
         22    1    1    0    0    0  0.25125976264E+02  0.25695840966E+01  0.13478431975E+02  0.28628405023E+02  0.00000000000E+00 0. -1.
</event>
<event>
 5    1  0.3125560E-003  0.9118800E+02  0.7818608E-02  0.1130116E+00
         25   -1    0    0    0    0  0.00000000000E+00  0.00000000000E+00  0.99999998245E-14  0.12500000000E+03  0.12500000000E+03 0.  0.
        -13    1    3    3    0    0  0.91900174488E+01  0.36558286706E+02 -0.42690919903E+02  0.56951651019E+02  0.10566000000E+00 0.  1.
         23    2    1    0    0    0 -0.20459792146E+01  0.27344244071E+02 -0.52934695684E+01  0.97073050026E+02  0.92969148143E+02 0.  0.
         13    1    3    3    0    0 -0.11235996663E+02 -0.92140426348E+01  0.37397450335E+02  0.40121399007E+02  0.10566000000E+00 0. -1.
         22    1    1    0    0    0  0.20459792146E+01 -0.27344244071E+02  0.52934695684E+01  0.27926949974E+02  0.00000000000E+00 0.  1.
</event>
<event>
 5    1  0.3125560E-003  0.9118800E+02  0.7818608E-02  0.1130116E+00
         25   -1    0    0    0    0  0.00000000000E+00  0.00000000000E+00  0.99999998245E-14  0.12500000000E+03  0.12500000000E+03 0.  0.
        -13    1    3    3    0    0  0.21919466010E+02  0.19819040367E+02  0.11173975824E+02  0.31593136137E+02  0.10566000000E+00 0.  1.
         23    2    1    0    0    0 -0.33902849653E+02  0.94807697290E+01 -0.15085642334E+01  0.89764166317E+02  0.82559321577E+02 0.  0.
         13    1    3    3    0    0 -0.55822315664E+02 -0.10338270638E+02 -0.12682540058E+02  0.58171030180E+02  0.10566000000E+00 0. -1.
         22    1    1    0    0    0  0.33902849653E+02 -0.94807697290E+01  0.15085642334E+01  0.35235833683E+02  0.00000000000E+00 0. -1.
</event>
<event>
 5    1  0.3125560E-003  0.9118800E+02  0.7818608E-02  0.1130116E+00
         25   -1    0    0    0    0  0.00000000000E+00  0.00000000000E+00  0.99999998245E-14  0.12500000000E+03  0.12500000000E+03 0.  0.
        -13    1    3    3    0    0 -0.20784888697E+02  0.44757414372E+02 -0.50979027760E+01  0.49610860869E+02  0.10566000000E+00 0.  1.
         23    2    1    0    0    0 -0.22735212388E+02  0.25523665690E+00 -0.18015599826E+02  0.95991089900E+02  0.91502855010E+02 0.  0.
         13    1    3    3    0    0 -0.19503236912E+01 -0.44502177715E+02 -0.12917697050E+02  0.46380229031E+02  0.10566000000E+00 0. -1.
         22    1    1    0    0    0  0.22735212388E+02 -0.25523665690E+00  0.18015599826E+02  0.29008910100E+02  0.00000000000E+00 0. -1.
</event>
<event>
 5    1  0.3125560E-003  0.9118800E+02  0.7818608E-02  0.1130116E+00
         25   -1    0    0    0    0  0.00000000000E+00  0.00000000000E+00  0.99999998245E-14  0.12500000000E+03  0.12500000000E+03 0.  0.
        -13    1    3    3    0    0  0.19056486162E+02 -0.30888302281E+02 -0.16444710208E+02  0.39845658992E+02  0.10566000000E+00 0.  1.
         23    2    1    0    0    0 -0.83465583780E+01  0.19459109229E+02 -0.18030599599E+02  0.97189489566E+02  0.93125573241E+02 0.  0.
         13    1    3    3    0    0 -0.27403044540E+02  0.50347411509E+02 -0.15858893905E+01  0.57343830574E+02  0.10566000000E+00 0. -1.
         22    1    1    0    0    0  0.83465583780E+01 -0.19459109229E+02  0.18030599599E+02  0.27810510434E+02  0.00000000000E+00 0. -1.
</event>
<event>
 5    1  0.3125560E-003  0.9118800E+02  0.7818608E-02  0.1130116E+00
         25   -1    0    0    0    0  0.00000000000E+00  0.00000000000E+00  0.99999998245E-14  0.12500000000E+03  0.12500000000E+03 0.  0.
        -13    1    3    3    0    0  0.45865669480E+01  0.45972451103E+02 -0.51967141998E+01  0.46492148361E+02  0.10566000000E+00 0.  1.
         23    2    1    0    0    0  0.19875931921E+02  0.57890992562E+01  0.19908068002E+02  0.96278970918E+02  0.91895281324E+02 0.  0.
         13    1    3    3    0    0  0.15289364973E+02 -0.40183351846E+02  0.25104782201E+02  0.49786822557E+02  0.10566000000E+00 0. -1.
         22    1    1    0    0    0 -0.19875931921E+02 -0.57890992562E+01 -0.19908068002E+02  0.28721029082E+02  0.00000000000E+00 0.  1.
</event>
<event>
 5    1  0.3125560E-003  0.9118800E+02  0.7818608E-02  0.1130116E+00
         25   -1    0    0    0    0  0.00000000000E+00  0.00000000000E+00  0.99999998245E-14  0.12500000000E+03  0.12500000000E+03 0.  0.
        -13    1    3    3    0    0 -0.22852104812E+02 -0.10926279945E+02  0.34263649546E+02  0.42609988641E+02  0.10566000000E+00 0. -1.
         23    2    1    0    0    0  0.21155428058E+02 -0.20631233060E+02  0.17275480226E+02  0.90770741596E+02  0.84069527172E+02 0.  0.
         13    1    3    3    0    0  0.44007532870E+02 -0.97049531144E+01 -0.16988169320E+02  0.48160752954E+02  0.10566000000E+00 0.  1.
         22    1    1    0    0    0 -0.21155428058E+02  0.20631233060E+02 -0.17275480226E+02  0.34229258404E+02  0.00000000000E+00 0.  1.
</event>
<event>
 5    1  0.3125560E-003  0.9118800E+02  0.7818608E-02  0.1130116E+00
         25   -1    0    0    0    0  0.00000000000E+00  0.00000000000E+00  0.99999998245E-14  0.12500000000E+03  0.12500000000E+03 0.  0.
        -13    1    3    3    0    0  0.37489406329E+02  0.13540957701E+02 -0.67415645522E+01  0.40426142272E+02  0.10566000000E+00 0. -1.
         23    2    1    0    0    0 -0.11460863010E+02  0.15937932225E+02 -0.25427316995E+02  0.92876527054E+02  0.87144315726E+02 0.  0.
         13    1    3    3    0    0 -0.48950269340E+02  0.23969745243E+01 -0.18685752443E+02  0.52450384781E+02  0.10566000000E+00 0.  1.
         22    1    1    0    0    0  0.11460863010E+02 -0.15937932225E+02  0.25427316995E+02  0.32123472946E+02  0.00000000000E+00 0.  1.
</event>
<event>
 5    1  0.3125560E-003  0.9118800E+02  0.7818608E-02  0.1130116E+00
         25   -1    0    0    0    0  0.00000000000E+00  0.00000000000E+00  0.99999998245E-14  0.12500000000E+03  0.12500000000E+03 0.  0.
        -13    1    3    3    0    0  0.88516272852E+01 -0.61104184227E+02 -0.42797079041E+01  0.61890222971E+02  0.10566000000E+00 0.  1.
         23    2    1    0    0    0 -0.18194959467E+01 -0.28975029654E+02 -0.35348124909E+01  0.95753499213E+02  0.91177710013E+02 0.  0.
         13    1    3    3    0    0 -0.10671123232E+02  0.32129154573E+02  0.74489541322E+00  0.33863276242E+02  0.10566000000E+00 0. -1.
         22    1    1    0    0    0  0.18194959467E+01  0.28975029654E+02  0.35348124909E+01  0.29246500787E+02  0.00000000000E+00 0.  1.
</event>
<event>
 5    1  0.3125560E-003  0.9118800E+02  0.7818608E-02  0.1130116E+00
         25   -1    0    0    0    0  0.00000000000E+00  0.00000000000E+00  0.99999998245E-14  0.12500000000E+03  0.12500000000E+03 0.  0.
        -13    1    3    3    0    0 -0.42196282419E+02  0.94547904344E+01 -0.43424448210E+02  0.61283057843E+02  0.10566000000E+00 0.  1.
         23    2    1    0    0    0 -0.22919386710E+02  0.10536872634E+02 -0.14978298075E+02  0.95662764526E+02  0.91053232405E+02 0.  0.
         13    1    3    3    0    0  0.19276895709E+02  0.10820821994E+01  0.28446150135E+02  0.34379706683E+02  0.10566000000E+00 0. -1.
         22    1    1    0    0    0  0.22919386710E+02 -0.10536872634E+02  0.14978298075E+02  0.29337235474E+02  0.00000000000E+00 0.  1.
</event>
<event>
 5    1  0.3125560E-003  0.9118800E+02  0.7818608E-02  0.1130116E+00
         25   -1    0    0    0    0  0.00000000000E+00  0.00000000000E+00  0.99999998245E-14  0.12500000000E+03  0.12500000000E+03 0.  0.
        -13    1    3    3    0    0  0.24327651142E+02  0.19798396496E+02  0.48666007245E+02  0.57898208427E+02  0.10566000000E+00 0.  1.
         23    2    1    0    0    0  0.25902372041E+02  0.10511192525E+02  0.14165221023E+02  0.93661979445E+02  0.88263780008E+02 0.  0.
         13    1    3    3    0    0  0.15747208990E+01 -0.92872039711E+01 -0.34500786222E+02  0.35763771018E+02  0.10566000000E+00 0. -1.
         22    1    1    0    0    0 -0.25902372041E+02 -0.10511192525E+02 -0.14165221023E+02  0.31338020555E+02  0.00000000000E+00 0.  1.
</event>
<event>
 5    1  0.3125560E-003  0.9118800E+02  0.7818608E-02  0.1130116E+00
         25   -1    0    0    0    0  0.00000000000E+00  0.00000000000E+00  0.99999998245E-14  0.12500000000E+03  0.12500000000E+03 0.  0.
        -13    1    3    3    0    0  0.12802444565E+02 -0.39408503528E+02  0.43430434995E+01  0.41663004309E+02  0.10566000000E+00 0. -1.
         23    2    1    0    0    0  0.23657578911E+02  0.70766093412E+01 -0.18072481075E+02  0.94399771048E+02  0.89302535026E+02 0.  0.
         13    1    3    3    0    0  0.10855134346E+02  0.46485112869E+02 -0.22415524575E+02  0.52736766739E+02  0.10566000000E+00 0.  1.
         22    1    1    0    0    0 -0.23657578911E+02 -0.70766093412E+01  0.18072481075E+02  0.30600228952E+02  0.00000000000E+00 0. -1.
</event>
<event>
 5    1  0.3125560E-003  0.9118800E+02  0.7818608E-02  0.1130116E+00
         25   -1    0    0    0    0  0.00000000000E+00  0.00000000000E+00  0.99999998245E-14  0.12500000000E+03  0.12500000000E+03 0.  0.
        -13    1    3    3    0    0  0.39776485850E+02 -0.77481254777E+01 -0.28840629384E+01  0.40626730831E+02  0.10566000000E+00 0.  1.
         23    2    1    0    0    0 -0.47551546635E+01 -0.46729666519E+01 -0.30940360490E+02  0.93349502050E+02  0.87820131590E+02 0.  0.
         13    1    3    3    0    0 -0.44531640513E+02  0.30751588257E+01 -0.28056297552E+02  0.52722771219E+02  0.10566000000E+00 0. -1.
         22    1    1    0    0    0  0.47551546635E+01  0.46729666519E+01  0.30940360490E+02  0.31650497950E+02  0.00000000000E+00 0. -1.
</event>
<event>
 5    1  0.3125560E-003  0.9118800E+02  0.7818608E-02  0.1130116E+00
         25   -1    0    0    0    0  0.00000000000E+00  0.00000000000E+00  0.99999998245E-14  0.12500000000E+03  0.12500000000E+03 0.  0.
        -13    1    3    3    0    0 -0.38518007663E+02  0.43384780596E+01  0.14872601185E+02  0.41517041516E+02  0.10566000000E+00 0.  1.
         23    2    1    0    0    0 -0.64749636992E+01  0.50504546172E+01 -0.28439602338E+02  0.95398594157E+02  0.90689848050E+02 0.  0.
         13    1    3    3    0    0  0.32043043963E+02  0.71197655764E+00 -0.43312203523E+02  0.53881552642E+02  0.10566000000E+00 0. -1.
         22    1    1    0    0    0  0.64749636992E+01 -0.50504546172E+01  0.28439602338E+02  0.29601405843E+02  0.00000000000E+00 0. -1.
</event>
<event>
 5    1  0.3125560E-003  0.9118800E+02  0.7818608E-02  0.1130116E+00
         25   -1    0    0    0    0  0.00000000000E+00  0.00000000000E+00  0.99999998245E-14  0.12500000000E+03  0.12500000000E+03 0.  0.
        -13    1    3    3    0    0 -0.17484195292E+02 -0.34441954910E+02  0.24142889668E+02  0.45550363649E+02  0.10566000000E+00 0. -1.
         23    2    1    0    0    0 -0.18021888445E+02 -0.17827442305E+02 -0.19994203736E+02  0.92714177333E+02  0.86911128938E+02 0.  0.
         13    1    3    3    0    0 -0.53769315236E+00  0.16614512604E+02 -0.44137093404E+02  0.47163813684E+02  0.10566000000E+00 0.  1.
         22    1    1    0    0    0  0.18021888445E+02  0.17827442305E+02  0.19994203736E+02  0.32285822667E+02  0.00000000000E+00 0.  1.
</event>
<event>
 5    1  0.3125560E-003  0.9118800E+02  0.7818608E-02  0.1130116E+00
         25   -1    0    0    0    0  0.00000000000E+00  0.00000000000E+00  0.99999998245E-14  0.12500000000E+03  0.12500000000E+03 0.  0.
        -13    1    3    3    0    0 -0.33560193727E+02 -0.11278420304E+02  0.72708758668E+01  0.36143687795E+02  0.10566000000E+00 0. -1.
         23    2    1    0    0    0  0.30702103425E+01  0.31520227368E+02  0.73985871522E+01  0.92477853442E+02  0.86570568674E+02 0.  0.
         13    1    3    3    0    0  0.36630404069E+02  0.42798647673E+02  0.12771128542E+00  0.56334165647E+02  0.10566000000E+00 0.  1.
         22    1    1    0    0    0 -0.30702103425E+01 -0.31520227368E+02 -0.73985871522E+01  0.32522146558E+02  0.00000000000E+00 0.  1.
</event>
<event>
 5    1  0.3125560E-003  0.9118800E+02  0.7818608E-02  0.1130116E+00
         25   -1    0    0    0    0  0.00000000000E+00  0.00000000000E+00  0.99999998245E-14  0.12500000000E+03  0.12500000000E+03 0.  0.
        -13    1    3    3    0    0  0.30223677172E+01  0.49557535770E+02  0.16300983799E+02  0.52257222420E+02  0.10566000000E+00 0. -1.
         23    2    1    0    0    0  0.25039415552E+02  0.13337449512E+02  0.87475640590E+01  0.95311959182E+02  0.90570358261E+02 0.  0.
         13    1    3    3    0    0  0.22017047835E+02 -0.36220086258E+02 -0.75534197398E+01  0.43054736762E+02  0.10566000000E+00 0.  1.
         22    1    1    0    0    0 -0.25039415552E+02 -0.13337449512E+02 -0.87475640590E+01  0.29688040818E+02  0.00000000000E+00 0. -1.
</event>
<event>
 5    1  0.3125560E-003  0.9118800E+02  0.7818608E-02  0.1130116E+00
         25   -1    0    0    0    0  0.00000000000E+00  0.00000000000E+00  0.99999998245E-14  0.12500000000E+03  0.12500000000E+03 0.  0.
        -13    1    3    3    0    0  0.21418070872E+02 -0.41773921478E+02  0.23081469685E+02  0.52312137047E+02  0.10566000000E+00 0.  1.
         23    2    1    0    0    0  0.28675313517E+02 -0.28282687197E+01  0.54501254815E+01  0.95674642764E+02  0.91069537668E+02 0.  0.
         13    1    3    3    0    0  0.72572426456E+01  0.38945652759E+02 -0.17631344204E+02  0.43362505717E+02  0.10566000000E+00 0. -1.
         22    1    1    0    0    0 -0.28675313517E+02  0.28282687197E+01 -0.54501254815E+01  0.29325357236E+02  0.00000000000E+00 0.  1.
</event>
<event>
 5    1  0.3125560E-003  0.9118800E+02  0.7818608E-02  0.1130116E+00
         25   -1    0    0    0    0  0.00000000000E+00  0.00000000000E+00  0.99999998245E-14  0.12500000000E+03  0.12500000000E+03 0.  0.
        -13    1    3    3    0    0 -0.18839489759E+02 -0.10885187020E+02  0.42474809166E+02  0.47723518820E+02  0.10566000000E+00 0.  1.
         23    2    1    0    0    0  0.17425841434E+02  0.10633416044E+02  0.23225225053E+02  0.94078477314E+02  0.88851670375E+02 0.  0.
         13    1    3    3    0    0  0.36265331193E+02  0.21518603064E+02 -0.19249584113E+02  0.46354958494E+02  0.10566000000E+00 0. -1.
         22    1    1    0    0    0 -0.17425841434E+02 -0.10633416044E+02 -0.23225225053E+02  0.30921522686E+02  0.00000000000E+00 0. -1.
</event>
<event>
 5    1  0.3125560E-003  0.9118800E+02  0.7818608E-02  0.1130116E+00
         25   -1    0    0    0    0  0.00000000000E+00  0.00000000000E+00  0.99999998245E-14  0.12500000000E+03  0.12500000000E+03 0.  0.
        -13    1    3    3    0    0  0.33000205135E+02  0.26344078077E+02 -0.52805059054E+01  0.42554892731E+02  0.10566000000E+00 0.  1.
         23    2    1    0    0    0 -0.18501307404E+02  0.23667571421E+02  0.30890413723E+01  0.94800753499E+02  0.89862051917E+02 0.  0.
         13    1    3    3    0    0 -0.51501512539E+02 -0.26765066553E+01  0.83695472776E+01  0.52245860768E+02  0.10566000000E+00 0. -1.
         22    1    1    0    0    0  0.18501307404E+02 -0.23667571421E+02 -0.30890413723E+01  0.30199246501E+02  0.00000000000E+00 0. -1.
</event>
<event>
 5    1  0.3125560E-003  0.9118800E+02  0.7818608E-02  0.1130116E+00
         25   -1    0    0    0    0  0.00000000000E+00  0.00000000000E+00  0.99999998245E-14  0.12500000000E+03  0.12500000000E+03 0.  0.
        -13    1    3    3    0    0 -0.15337783957E+02 -0.68228028538E+01  0.53749888947E+02  0.56310389640E+02  0.10566000000E+00 0.  1.
         23    2    1    0    0    0  0.11512996152E+02  0.24431411794E+01  0.27909705518E+02  0.94710238011E+02  0.89736054643E+02 0.  0.
         13    1    3    3    0    0  0.26850780109E+02  0.92659440332E+01 -0.25840183429E+02  0.38399848372E+02  0.10566000000E+00 0. -1.
         22    1    1    0    0    0 -0.11512996152E+02 -0.24431411794E+01 -0.27909705518E+02  0.30289761989E+02  0.00000000000E+00 0.  1.
</event>
<event>
 5    1  0.3125560E-003  0.9118800E+02  0.7818608E-02  0.1130116E+00
         25   -1    0    0    0    0  0.00000000000E+00  0.00000000000E+00  0.99999998245E-14  0.12500000000E+03  0.12500000000E+03 0.  0.
        -13    1    3    3    0    0  0.52837476294E+02  0.32008377118E+01 -0.23918114825E+02  0.58087276094E+02  0.10566000000E+00 0. -1.
         23    2    1    0    0    0  0.18032031493E+02 -0.90631430107E+01 -0.22152994248E+02  0.95032519707E+02  0.90183867330E+02 0.  0.
         13    1    3    3    0    0 -0.34805444801E+02 -0.12263980722E+02  0.17651205775E+01  0.36945243613E+02  0.10566000000E+00 0.  1.
         22    1    1    0    0    0 -0.18032031493E+02  0.90631430107E+01  0.22152994248E+02  0.29967480293E+02  0.00000000000E+00 0. -1.
</event>
<event>
 5    1  0.3125560E-003  0.9118800E+02  0.7818608E-02  0.1130116E+00
         25   -1    0    0    0    0  0.00000000000E+00  0.00000000000E+00  0.99999998245E-14  0.12500000000E+03  0.12500000000E+03 0.  0.
        -13    1    3    3    0    0 -0.60416051368E+01  0.28005664557E+02 -0.19955311288E+02  0.34914808500E+02  0.10566000000E+00 0.  1.
         23    2    1    0    0    0 -0.62225106153E+01 -0.94440443635E+01  0.27440129770E+02  0.95320540199E+02  0.90582200513E+02 0.  0.
         13    1    3    3    0    0 -0.18090547845E+00 -0.37449708921E+02  0.47395441058E+02  0.60405731699E+02  0.10566000000E+00 0. -1.
         22    1    1    0    0    0  0.62225106153E+01  0.94440443635E+01 -0.27440129770E+02  0.29679459801E+02  0.00000000000E+00 0. -1.
</event>
<event>
 5    1  0.3125560E-003  0.9118800E+02  0.7818608E-02  0.1130116E+00
         25   -1    0    0    0    0  0.00000000000E+00  0.00000000000E+00  0.99999998245E-14  0.12500000000E+03  0.12500000000E+03 0.  0.
        -13    1    3    3    0    0  0.29170407252E+02 -0.27355375658E+02  0.60072214522E+01  0.40439177912E+02  0.10566000000E+00 0.  1.
         23    2    1    0    0    0  0.13483961062E+02 -0.46904411080E+01  0.39022300757E+02  0.83448136022E+02  0.72367354556E+02 0.  0.
         13    1    3    3    0    0 -0.15686446189E+02  0.22664934550E+02  0.33015079304E+02  0.43008958110E+02  0.10566000000E+00 0. -1.
         22    1    1    0    0    0 -0.13483961062E+02  0.46904411080E+01 -0.39022300757E+02  0.41551863978E+02  0.00000000000E+00 0.  1.
</event>
<event>
 5    1  0.3125560E-003  0.9118800E+02  0.7818608E-02  0.1130116E+00
         25   -1    0    0    0    0  0.00000000000E+00  0.00000000000E+00  0.99999998245E-14  0.12500000000E+03  0.12500000000E+03 0.  0.
        -13    1    3    3    0    0 -0.16918350678E+02 -0.64023615823E+01  0.30446714412E+02  0.35415171975E+02  0.10566000000E+00 0.  1.
         23    2    1    0    0    0 -0.14183546712E+02  0.48740918847E+01 -0.27049677578E+02  0.94070809482E+02  0.88840882315E+02 0.  0.
         13    1    3    3    0    0  0.27348039651E+01  0.11276453467E+02 -0.57496391990E+02  0.58655637507E+02  0.10566000000E+00 0. -1.
         22    1    1    0    0    0  0.14183546712E+02 -0.48740918847E+01  0.27049677578E+02  0.30929190518E+02  0.00000000000E+00 0. -1.
</event>
<event>
 5    1  0.3125560E-003  0.9118800E+02  0.7818608E-02  0.1130116E+00
         25   -1    0    0    0    0  0.00000000000E+00  0.00000000000E+00  0.99999998245E-14  0.12500000000E+03  0.12500000000E+03 0.  0.
        -13    1    3    3    0    0  0.28155378116E+02 -0.48108765702E+02 -0.13326784945E+02  0.57313113816E+02  0.10566000000E+00 0.  1.
         23    2    1    0    0    0  0.12398663998E+02 -0.25228545545E+02  0.11554403122E+02  0.94607392170E+02  0.89592678509E+02 0.  0.
         13    1    3    3    0    0 -0.15756714118E+02  0.22880220158E+02  0.24881188067E+02  0.37294278354E+02  0.10566000000E+00 0. -1.
         22    1    1    0    0    0 -0.12398663998E+02  0.25228545545E+02 -0.11554403122E+02  0.30392607830E+02  0.00000000000E+00 0. -1.
</event>
<event>
 5    1  0.3125560E-003  0.9118800E+02  0.7818608E-02  0.1130116E+00
         25   -1    0    0    0    0  0.00000000000E+00  0.00000000000E+00  0.99999998245E-14  0.12500000000E+03  0.12500000000E+03 0.  0.
        -13    1    3    3    0    0  0.13168655412E+02 -0.24604715079E+02  0.34818107562E+02  0.44621937069E+02  0.10566000000E+00 0. -1.
         23    2    1    0    0    0 -0.27335358395E+02 -0.73313459253E+01  0.11469531560E+02  0.94462799639E+02  0.89390714897E+02 0.  0.
         13    1    3    3    0    0 -0.40504013807E+02  0.17273369154E+02 -0.23348576002E+02  0.49840862571E+02  0.10566000000E+00 0.  1.
         22    1    1    0    0    0  0.27335358395E+02  0.73313459253E+01 -0.11469531560E+02  0.30537200361E+02  0.00000000000E+00 0.  1.
</event>
<event>
 5    1  0.3125560E-003  0.9118800E+02  0.7818608E-02  0.1130116E+00
         25   -1    0    0    0    0  0.00000000000E+00  0.00000000000E+00  0.99999998245E-14  0.12500000000E+03  0.12500000000E+03 0.  0.
        -13    1    3    3    0    0  0.12635377715E+02  0.92651858463E+01  0.34906577475E+02  0.38261949164E+02  0.10566000000E+00 0.  1.
         23    2    1    0    0    0  0.10176290966E+02  0.13625866225E+02 -0.23006004016E+02  0.96390607329E+02  0.92047008817E+02 0.  0.
         13    1    3    3    0    0 -0.24590867489E+01  0.43606803790E+01 -0.57912581491E+02  0.58128658165E+02  0.10566000000E+00 0. -1.
         22    1    1    0    0    0 -0.10176290966E+02 -0.13625866225E+02  0.23006004016E+02  0.28609392671E+02  0.00000000000E+00 0. -1.
</event>
<event>
 5    1  0.3125560E-003  0.9118800E+02  0.7818608E-02  0.1130116E+00
         25   -1    0    0    0    0  0.00000000000E+00  0.00000000000E+00  0.99999998245E-14  0.12500000000E+03  0.12500000000E+03 0.  0.
        -13    1    3    3    0    0 -0.27512484319E+02  0.22257871568E+02 -0.11576696265E+02  0.37234133541E+02  0.10566000000E+00 0.  1.
         23    2    1    0    0    0  0.20255405399E+02  0.94775034215E+01  0.19240426678E+02  0.95499177338E+02  0.90828378464E+02 0.  0.
         13    1    3    3    0    0  0.47767889718E+02 -0.12780368146E+02  0.30817122943E+02  0.58265043796E+02  0.10566000000E+00 0. -1.
         22    1    1    0    0    0 -0.20255405399E+02 -0.94775034215E+01 -0.19240426678E+02  0.29500822662E+02  0.00000000000E+00 0. -1.
</event>
<event>
 5    1  0.3125560E-003  0.9118800E+02  0.7818608E-02  0.1130116E+00
         25   -1    0    0    0    0  0.00000000000E+00  0.00000000000E+00  0.99999998245E-14  0.12500000000E+03  0.12500000000E+03 0.  0.
        -13    1    3    3    0    0 -0.25578915378E+02 -0.24246842987E+02 -0.37805824449E+01  0.35447062987E+02  0.10566000000E+00 0. -1.
         23    2    1    0    0    0  0.29151552730E+02  0.10072904311E+01 -0.18185577560E+00  0.95830482827E+02  0.91283189618E+02 0.  0.
         13    1    3    3    0    0  0.54730468107E+02  0.25254133418E+02  0.35987266693E+01  0.60383419840E+02  0.10566000000E+00 0.  1.
         22    1    1    0    0    0 -0.29151552730E+02 -0.10072904311E+01  0.18185577560E+00  0.29169517173E+02  0.00000000000E+00 0.  1.
</event>
<event>
 5    1  0.3125560E-003  0.9118800E+02  0.7818608E-02  0.1130116E+00
         25   -1    0    0    0    0  0.00000000000E+00  0.00000000000E+00  0.99999998245E-14  0.12500000000E+03  0.12500000000E+03 0.  0.
        -13    1    3    3    0    0  0.11821145068E+02  0.20234996975E+02  0.46404878191E+02  0.51986714237E+02  0.10566000000E+00 0.  1.
         23    2    1    0    0    0  0.28181572772E+02  0.68160990831E+01  0.95689116862E+01  0.94467651229E+02  0.89397498886E+02 0.  0.
         13    1    3    3    0    0  0.16360427705E+02 -0.13418897892E+02 -0.36835966504E+02  0.42480936991E+02  0.10566000000E+00 0. -1.
         22    1    1    0    0    0 -0.28181572772E+02 -0.68160990831E+01 -0.95689116862E+01  0.30532348771E+02  0.00000000000E+00 0.  1.
</event>
<event>
 5    1  0.3125560E-003  0.9118800E+02  0.7818608E-02  0.1130116E+00
         25   -1    0    0    0    0  0.00000000000E+00  0.00000000000E+00  0.99999998245E-14  0.12500000000E+03  0.12500000000E+03 0.  0.
        -13    1    3    3    0    0  0.19298841857E+02  0.29424496410E+02  0.17014700485E+02  0.39086538381E+02  0.10566000000E+00 0. -1.
         23    2    1    0    0    0 -0.16646856815E+02 -0.13652292657E+02  0.20463824378E+02  0.95296952265E+02  0.90549644208E+02 0.  0.
         13    1    3    3    0    0 -0.35945698672E+02 -0.43076789067E+02  0.34491238922E+01  0.56210413883E+02  0.10566000000E+00 0.  1.
         22    1    1    0    0    0  0.16646856815E+02  0.13652292657E+02 -0.20463824378E+02  0.29703047735E+02  0.00000000000E+00 0.  1.
</event>
<event>
 5    1  0.3125560E-003  0.9118800E+02  0.7818608E-02  0.1130116E+00
         25   -1    0    0    0    0  0.00000000000E+00  0.00000000000E+00  0.99999998245E-14  0.12500000000E+03  0.12500000000E+03 0.  0.
        -13    1    3    3    0    0 -0.14007301112E+01  0.24727705168E+02 -0.13461488407E+02  0.28189435644E+02  0.10566000000E+00 0. -1.
         23    2    1    0    0    0 -0.32105749031E+02 -0.10149004497E+02  0.20350494596E+02  0.85656334139E+02  0.76086027197E+02 0.  0.
         13    1    3    3    0    0 -0.30705018919E+02 -0.34876709665E+02  0.33811983004E+02  0.57466898495E+02  0.10566000000E+00 0.  1.
         22    1    1    0    0    0  0.32105749031E+02  0.10149004497E+02 -0.20350494596E+02  0.39343665861E+02  0.00000000000E+00 0.  1.
</event>
<event>
 5    1  0.3125560E-003  0.9118800E+02  0.7818608E-02  0.1130116E+00
         25   -1    0    0    0    0  0.00000000000E+00  0.00000000000E+00  0.99999998245E-14  0.12500000000E+03  0.12500000000E+03 0.  0.
        -13    1    3    3    0    0  0.20057018806E+02 -0.17492178827E+02 -0.30905608864E+02  0.40785146154E+02  0.10566000000E+00 0.  1.
         23    2    1    0    0    0  0.21619808221E+02 -0.19416662691E+01  0.20881840555E+02  0.94879617526E+02  0.89971686554E+02 0.  0.
         13    1    3    3    0    0  0.15627894148E+01  0.15550512558E+02  0.51787449419E+02  0.54094471372E+02  0.10566000000E+00 0. -1.
         22    1    1    0    0    0 -0.21619808221E+02  0.19416662691E+01 -0.20881840555E+02  0.30120382474E+02  0.00000000000E+00 0. -1.
</event>
<event>
 5    1  0.3125560E-003  0.9118800E+02  0.7818608E-02  0.1130116E+00
         25   -1    0    0    0    0  0.00000000000E+00  0.00000000000E+00  0.99999998245E-14  0.12500000000E+03  0.12500000000E+03 0.  0.
        -13    1    3    3    0    0 -0.16238125943E+01  0.33985166848E+02  0.12572741512E+02  0.36272762869E+02  0.10566000000E+00 0. -1.
         23    2    1    0    0    0  0.77556619921E+01 -0.13073770803E+02 -0.23989658334E+02  0.96599692203E+02  0.92330509859E+02 0.  0.
         13    1    3    3    0    0  0.93794745864E+01 -0.47058937650E+02 -0.36562399847E+02  0.60326929334E+02  0.10566000000E+00 0.  1.
         22    1    1    0    0    0 -0.77556619921E+01  0.13073770803E+02  0.23989658334E+02  0.28400307797E+02  0.00000000000E+00 0.  1.
</event>
<event>
 5    1  0.3125560E-003  0.9118800E+02  0.7818608E-02  0.1130116E+00
         25   -1    0    0    0    0  0.00000000000E+00  0.00000000000E+00  0.99999998245E-14  0.12500000000E+03  0.12500000000E+03 0.  0.
        -13    1    3    3    0    0  0.38795514182E+02 -0.13738859080E+02 -0.32969933961E+02  0.52734010646E+02  0.10566000000E+00 0.  1.
         23    2    1    0    0    0  0.68264099919E+01 -0.27239732826E+02 -0.70558569183E+01  0.96045068906E+02  0.91576564833E+02 0.  0.
         13    1    3    3    0    0 -0.31969104190E+02 -0.13500873745E+02  0.25914077042E+02  0.43311058260E+02  0.10566000000E+00 0. -1.
         22    1    1    0    0    0 -0.68264099919E+01  0.27239732826E+02  0.70558569183E+01  0.28954931094E+02  0.00000000000E+00 0.  1.
</event>
<event>
 5    1  0.3125560E-003  0.9118800E+02  0.7818608E-02  0.1130116E+00
         25   -1    0    0    0    0  0.00000000000E+00  0.00000000000E+00  0.99999998245E-14  0.12500000000E+03  0.12500000000E+03 0.  0.
        -13    1    3    3    0    0 -0.65680142889E+01  0.10375708624E+02  0.15077560858E+02  0.19445774519E+02  0.10566000000E+00 0.  1.
         23    2    1    0    0    0  0.36246241882E+02  0.20644776794E+01 -0.26772843921E+02  0.79890829200E+02  0.65937146587E+02 0.  0.
         13    1    3    3    0    0  0.42814256171E+02 -0.83112309449E+01 -0.41850404779E+02  0.60445054682E+02  0.10566000000E+00 0. -1.
         22    1    1    0    0    0 -0.36246241882E+02 -0.20644776794E+01  0.26772843921E+02  0.45109170800E+02  0.00000000000E+00 0. -1.
</event>
<event>
 5    1  0.3125560E-003  0.9118800E+02  0.7818608E-02  0.1130116E+00
         25   -1    0    0    0    0  0.00000000000E+00  0.00000000000E+00  0.99999998245E-14  0.12500000000E+03  0.12500000000E+03 0.  0.
        -13    1    3    3    0    0 -0.16827794088E+02 -0.18343199813E+02 -0.38807336789E+02  0.46104969211E+02  0.10566000000E+00 0.  1.
         23    2    1    0    0    0 -0.24915830969E+02  0.15593523175E+02 -0.40889594389E+01  0.95323811107E+02  0.90586714130E+02 0.  0.
         13    1    3    3    0    0 -0.80880368814E+01  0.33936722989E+02  0.34718377350E+02  0.49218841897E+02  0.10566000000E+00 0. -1.
         22    1    1    0    0    0  0.24915830969E+02 -0.15593523175E+02  0.40889594389E+01  0.29676188893E+02  0.00000000000E+00 0. -1.
</event>
<event>
 5    1  0.3125560E-003  0.9118800E+02  0.7818608E-02  0.1130116E+00
         25   -1    0    0    0    0  0.00000000000E+00  0.00000000000E+00  0.99999998245E-14  0.12500000000E+03  0.12500000000E+03 0.  0.
        -13    1    3    3    0    0 -0.40730066785E+02  0.51776358263E+01  0.21420763695E+02  0.46309896721E+02  0.10566000000E+00 0. -1.
         23    2    1    0    0    0  0.39017496163E+01 -0.16179177603E+02  0.23929440999E+02  0.95851971173E+02  0.91312610264E+02 0.  0.
         13    1    3    3    0    0  0.44631816401E+02 -0.21356813429E+02  0.25086773044E+01  0.49542074451E+02  0.10566000000E+00 0.  1.
         22    1    1    0    0    0 -0.39017496163E+01  0.16179177603E+02 -0.23929440999E+02  0.29148028827E+02  0.00000000000E+00 0. -1.
</event>
<event>
 5    1  0.3125560E-003  0.9118800E+02  0.7818608E-02  0.1130116E+00
         25   -1    0    0    0    0  0.00000000000E+00  0.00000000000E+00  0.99999998245E-14  0.12500000000E+03  0.12500000000E+03 0.  0.
        -13    1    3    3    0    0  0.10631116099E+01 -0.42103982967E+02  0.32905523250E+02  0.53447733463E+02  0.10566000000E+00 0.  1.
         23    2    1    0    0    0  0.20942407614E+02 -0.20688744309E+02  0.27566932222E+01  0.95432992454E+02  0.90737247663E+02 0.  0.
         13    1    3    3    0    0  0.19879296004E+02  0.21415238659E+02 -0.30148830028E+02  0.41985258990E+02  0.10566000000E+00 0. -1.
         22    1    1    0    0    0 -0.20942407614E+02  0.20688744309E+02 -0.27566932222E+01  0.29567007546E+02  0.00000000000E+00 0.  1.
</event>
<event>
 5    1  0.3125560E-003  0.9118800E+02  0.7818608E-02  0.1130116E+00
         25   -1    0    0    0    0  0.00000000000E+00  0.00000000000E+00  0.99999998245E-14  0.12500000000E+03  0.12500000000E+03 0.  0.
        -13    1    3    3    0    0 -0.21737876305E+02  0.49946538102E+02 -0.14320368952E+02  0.56322962152E+02  0.10566000000E+00 0. -1.
         23    2    1    0    0    0 -0.27801624703E+02  0.25637431015E+02  0.34282881086E+01  0.87026833625E+02  0.78305225919E+02 0.  0.
         13    1    3    3    0    0 -0.60637483973E+01 -0.24309107086E+02  0.17748657060E+02  0.30703871473E+02  0.10566000000E+00 0.  1.
         22    1    1    0    0    0  0.27801624703E+02 -0.25637431015E+02 -0.34282881086E+01  0.37973166375E+02  0.00000000000E+00 0. -1.
</event>
<event>
 5    1  0.3125560E-003  0.9118800E+02  0.7818608E-02  0.1130116E+00
         25   -1    0    0    0    0  0.00000000000E+00  0.00000000000E+00  0.99999998245E-14  0.12500000000E+03  0.12500000000E+03 0.  0.
        -13    1    3    3    0    0  0.36025080120E+02 -0.54083775319E+01  0.43875604507E+02  0.57027508977E+02  0.10566000000E+00 0.  1.
         23    2    1    0    0    0  0.73364692469E+01  0.14193764526E+02  0.20938561393E+02  0.98661623329E+02  0.95081048755E+02 0.  0.
         13    1    3    3    0    0 -0.28688610873E+02  0.19602142058E+02 -0.22937043114E+02  0.41634114353E+02  0.10566000000E+00 0. -1.
         22    1    1    0    0    0 -0.73364692469E+01 -0.14193764526E+02 -0.20938561393E+02  0.26338376671E+02  0.00000000000E+00 0.  1.
</event>
<event>
 5    1  0.3125560E-003  0.9118800E+02  0.7818608E-02  0.1130116E+00
         25   -1    0    0    0    0  0.00000000000E+00  0.00000000000E+00  0.99999998245E-14  0.12500000000E+03  0.12500000000E+03 0.  0.
        -13    1    3    3    0    0 -0.49497287536E+02 -0.62093443966E+01  0.19145747044E+02  0.53433212754E+02  0.10566000000E+00 0. -1.
         23    2    1    0    0    0 -0.24674873017E+02  0.48792366977E+01 -0.13929494668E+02  0.96247832588E+02  0.91852915833E+02 0.  0.
         13    1    3    3    0    0  0.24822414519E+02  0.11088581094E+02 -0.33075241712E+02  0.42814619835E+02  0.10566000000E+00 0.  1.
         22    1    1    0    0    0  0.24674873017E+02 -0.48792366977E+01  0.13929494668E+02  0.28752167412E+02  0.00000000000E+00 0. -1.
</event>
<event>
 5    1  0.3125560E-003  0.9118800E+02  0.7818608E-02  0.1130116E+00
         25   -1    0    0    0    0  0.00000000000E+00  0.00000000000E+00  0.99999998245E-14  0.12500000000E+03  0.12500000000E+03 0.  0.
        -13    1    3    3    0    0 -0.16895077675E+02  0.27252276008E+02  0.23860593355E+02  0.39968353438E+02  0.10566000000E+00 0.  1.
         23    2    1    0    0    0  0.17808519665E+02  0.13559496341E+02 -0.18171573720E+02  0.96169297526E+02  0.91745977468E+02 0.  0.
         13    1    3    3    0    0  0.34703597341E+02 -0.13692779667E+02 -0.42032167074E+02  0.56200944088E+02  0.10566000000E+00 0. -1.
         22    1    1    0    0    0 -0.17808519665E+02 -0.13559496341E+02  0.18171573720E+02  0.28830702474E+02  0.00000000000E+00 0. -1.
</event>
<event>
 5    1  0.3125560E-003  0.9118800E+02  0.7818608E-02  0.1130116E+00
         25   -1    0    0    0    0  0.00000000000E+00  0.00000000000E+00  0.99999998245E-14  0.12500000000E+03  0.12500000000E+03 0.  0.
        -13    1    3    3    0    0  0.19124787607E+02 -0.26087649522E+02 -0.95046629203E+01  0.33714577557E+02  0.10566000000E+00 0.  1.
         23    2    1    0    0    0 -0.57447529219E+01  0.20864411451E+02  0.20886206768E+02  0.94924104594E+02  0.90033472378E+02 0.  0.
         13    1    3    3    0    0 -0.24869540529E+02  0.46952060973E+02  0.30390869688E+02  0.61209527037E+02  0.10566000000E+00 0. -1.
         22    1    1    0    0    0  0.57447529219E+01 -0.20864411451E+02 -0.20886206768E+02  0.30075895406E+02  0.00000000000E+00 0. -1.
</event>
<event>
 5    1  0.3125560E-003  0.9118800E+02  0.7818608E-02  0.1130116E+00
         25   -1    0    0    0    0  0.00000000000E+00  0.00000000000E+00  0.99999998245E-14  0.12500000000E+03  0.12500000000E+03 0.  0.
        -13    1    3    3    0    0 -0.77138533543E+01  0.44954948490E+02 -0.73116125691E+01  0.46194391106E+02  0.10566000000E+00 0. -1.
         23    2    1    0    0    0  0.11653852991E+02  0.99795530931E+01  0.23682890984E+02  0.96781511471E+02  0.92576335355E+02 0.  0.
         13    1    3    3    0    0  0.19367706346E+02 -0.34975395397E+02  0.30994503553E+02  0.50587120365E+02  0.10566000000E+00 0.  1.
         22    1    1    0    0    0 -0.11653852991E+02 -0.99795530931E+01 -0.23682890984E+02  0.28218488529E+02  0.00000000000E+00 0.  1.
</event>
<event>
 5    1  0.3125560E-003  0.9118800E+02  0.7818608E-02  0.1130116E+00
         25   -1    0    0    0    0  0.00000000000E+00  0.00000000000E+00  0.99999998245E-14  0.12500000000E+03  0.12500000000E+03 0.  0.
        -13    1    3    3    0    0 -0.28986522653E+02 -0.54053880691E+00  0.20196841225E+02  0.35333188891E+02  0.10566000000E+00 0. -1.
         23    2    1    0    0    0  0.21776620721E+02  0.20481794416E+02 -0.29617563505E+01  0.94958410275E+02  0.90081088852E+02 0.  0.
         13    1    3    3    0    0  0.50763143374E+02  0.21022333223E+02 -0.23158597575E+02  0.59625221384E+02  0.10566000000E+00 0.  1.
         22    1    1    0    0    0 -0.21776620721E+02 -0.20481794416E+02  0.29617563505E+01  0.30041589725E+02  0.00000000000E+00 0.  1.
</event>
<event>
 5    1  0.3125560E-003  0.9118800E+02  0.7818608E-02  0.1130116E+00
         25   -1    0    0    0    0  0.00000000000E+00  0.00000000000E+00  0.99999998245E-14  0.12500000000E+03  0.12500000000E+03 0.  0.
        -13    1    3    3    0    0 -0.52249957772E+02  0.22338127699E+02  0.21891046759E+02  0.60895641294E+02  0.10566000000E+00 0. -1.
         23    2    1    0    0    0 -0.23929846130E+02  0.19593882338E+02  0.59675960582E+01  0.93501270445E+02  0.88035888200E+02 0.  0.
         13    1    3    3    0    0  0.28320111643E+02 -0.27442453610E+01 -0.15923450701E+02  0.32605629151E+02  0.10566000000E+00 0.  1.
         22    1    1    0    0    0  0.23929846130E+02 -0.19593882338E+02 -0.59675960582E+01  0.31498729555E+02  0.00000000000E+00 0. -1.
</event>
<event>
 5    1  0.3125560E-003  0.9118800E+02  0.7818608E-02  0.1130116E+00
         25   -1    0    0    0    0  0.00000000000E+00  0.00000000000E+00  0.99999998245E-14  0.12500000000E+03  0.12500000000E+03 0.  0.
        -13    1    3    3    0    0 -0.20055704077E+01 -0.49310306139E+02  0.23442187679E+01  0.49406832826E+02  0.10566000000E+00 0.  1.
         23    2    1    0    0    0 -0.24359036296E+02 -0.10942350880E+02 -0.11507775978E+02  0.95922059908E+02  0.91408506043E+02 0.  0.
         13    1    3    3    0    0 -0.22353465888E+02  0.38367955260E+02 -0.13851994746E+02  0.46515227082E+02  0.10566000000E+00 0. -1.
         22    1    1    0    0    0  0.24359036296E+02  0.10942350880E+02  0.11507775978E+02  0.29077940092E+02  0.00000000000E+00 0.  1.
</event>
<event>
 5    1  0.3125560E-003  0.9118800E+02  0.7818608E-02  0.1130116E+00
         25   -1    0    0    0    0  0.00000000000E+00  0.00000000000E+00  0.99999998245E-14  0.12500000000E+03  0.12500000000E+03 0.  0.
        -13    1    3    3    0    0  0.21081637080E+02  0.51879945270E+02  0.23567123346E+02  0.60756765961E+02  0.10566000000E+00 0. -1.
         23    2    1    0    0    0  0.18346655012E+02  0.24254145428E+02  0.49353446757E+01  0.94190570475E+02  0.89009227717E+02 0.  0.
         13    1    3    3    0    0 -0.27349820680E+01 -0.27625799842E+02 -0.18631778670E+02  0.33433804514E+02  0.10566000000E+00 0.  1.
         22    1    1    0    0    0 -0.18346655012E+02 -0.24254145428E+02 -0.49353446757E+01  0.30809429525E+02  0.00000000000E+00 0. -1.
</event>
<event>
 5    1  0.3125560E-003  0.9118800E+02  0.7818608E-02  0.1130116E+00
         25   -1    0    0    0    0  0.00000000000E+00  0.00000000000E+00  0.99999998245E-14  0.12500000000E+03  0.12500000000E+03 0.  0.
        -13    1    3    3    0    0 -0.54088764079E+02  0.77743735032E+01 -0.20051072230E+02  0.58207318652E+02  0.10566000000E+00 0.  1.
         23    2    1    0    0    0 -0.17686253723E+02  0.16389697508E+02 -0.16496861533E+02  0.95784042107E+02  0.91219573156E+02 0.  0.
         13    1    3    3    0    0  0.36402510356E+02  0.86153240047E+01  0.35542106966E+01  0.37576723455E+02  0.10566000000E+00 0. -1.
         22    1    1    0    0    0  0.17686253723E+02 -0.16389697508E+02  0.16496861533E+02  0.29215957893E+02  0.00000000000E+00 0.  1.
</event>
<event>
 5    1  0.3125560E-003  0.9118800E+02  0.7818608E-02  0.1130116E+00
         25   -1    0    0    0    0  0.00000000000E+00  0.00000000000E+00  0.99999998245E-14  0.12500000000E+03  0.12500000000E+03 0.  0.
        -13    1    3    3    0    0  0.42578422520E+02  0.21501016313E+02  0.67629953108E+01  0.48176395013E+02  0.10566000000E+00 0.  1.
         23    2    1    0    0    0  0.10312080970E+02 -0.85616488739E+01  0.25577926758E+02  0.96123172220E+02  0.91683112158E+02 0.  0.
         13    1    3    3    0    0 -0.32266341550E+02 -0.30062665187E+02  0.18814931447E+02  0.47946777207E+02  0.10566000000E+00 0. -1.
         22    1    1    0    0    0 -0.10312080970E+02  0.85616488739E+01 -0.25577926758E+02  0.28876827780E+02  0.00000000000E+00 0. -1.
</event>
<event>
 5    1  0.3125560E-003  0.9118800E+02  0.7818608E-02  0.1130116E+00
         25   -1    0    0    0    0  0.00000000000E+00  0.00000000000E+00  0.99999998245E-14  0.12500000000E+03  0.12500000000E+03 0.  0.
        -13    1    3    3    0    0  0.90509210925E+01  0.55124507892E+02 -0.11737790793E+02  0.57082549345E+02  0.10566000000E+00 0. -1.
         23    2    1    0    0    0  0.12236289618E+02  0.15645690253E+02 -0.19186492691E+02  0.97384136644E+02  0.93386477399E+02 0.  0.
         13    1    3    3    0    0  0.31853685260E+01 -0.39478817639E+02 -0.74487018981E+01  0.40301587299E+02  0.10566000000E+00 0.  1.
         22    1    1    0    0    0 -0.12236289618E+02 -0.15645690253E+02  0.19186492691E+02  0.27615863356E+02  0.00000000000E+00 0. -1.
</event>
<event>
 5    1  0.3125560E-003  0.9118800E+02  0.7818608E-02  0.1130116E+00
         25   -1    0    0    0    0  0.00000000000E+00  0.00000000000E+00  0.99999998245E-14  0.12500000000E+03  0.12500000000E+03 0.  0.
        -13    1    3    3    0    0 -0.15408929947E+02 -0.25357146526E+02  0.53673008321E+02  0.61328810426E+02  0.10566000000E+00 0.  1.
         23    2    1    0    0    0 -0.14769353494E+02 -0.80096264866E+01  0.28723796302E+02  0.91723215403E+02  0.85473995173E+02 0.  0.
         13    1    3    3    0    0  0.63957645272E+00  0.17347520039E+02 -0.24949212019E+02  0.30394404978E+02  0.10566000000E+00 0. -1.
         22    1    1    0    0    0  0.14769353494E+02  0.80096264866E+01 -0.28723796302E+02  0.33276784597E+02  0.00000000000E+00 0.  1.
</event>
<event>
 5    1  0.3125560E-003  0.9118800E+02  0.7818608E-02  0.1130116E+00
         25   -1    0    0    0    0  0.00000000000E+00  0.00000000000E+00  0.99999998245E-14  0.12500000000E+03  0.12500000000E+03 0.  0.
        -13    1    3    3    0    0  0.10651198295E+02  0.53446744711E+02  0.34664346330E+01  0.54607965338E+02  0.10566000000E+00 0.  1.
         23    2    1    0    0    0  0.23179288162E+02  0.14338767482E+02  0.95449830676E+01  0.96121178099E+02  0.91680393350E+02 0.  0.
         13    1    3    3    0    0  0.12528089867E+02 -0.39107977229E+02  0.60785484346E+01  0.41513212761E+02  0.10566000000E+00 0. -1.
         22    1    1    0    0    0 -0.23179288162E+02 -0.14338767482E+02 -0.95449830676E+01  0.28878821901E+02  0.00000000000E+00 0. -1.
</event>
<event>
 5    1  0.3125560E-003  0.9118800E+02  0.7818608E-02  0.1130116E+00
         25   -1    0    0    0    0  0.00000000000E+00  0.00000000000E+00  0.99999998245E-14  0.12500000000E+03  0.12500000000E+03 0.  0.
        -13    1    3    3    0    0  0.17666155875E+02 -0.51397756194E+02  0.28936277107E+02  0.61572247823E+02  0.10566000000E+00 0.  1.
         23    2    1    0    0    0  0.22838045346E+01 -0.25014458898E+02  0.78548393128E+01  0.98681994419E+02  0.95107826202E+02 0.  0.
         13    1    3    3    0    0 -0.15382351340E+02  0.26383297296E+02 -0.21081437794E+02  0.37109746596E+02  0.10566000000E+00 0. -1.
         22    1    1    0    0    0 -0.22838045346E+01  0.25014458898E+02 -0.78548393128E+01  0.26318005581E+02  0.00000000000E+00 0.  1.
</event>
<event>
 5    1  0.3125560E-003  0.9118800E+02  0.7818608E-02  0.1130116E+00
         25   -1    0    0    0    0  0.00000000000E+00  0.00000000000E+00  0.99999998245E-14  0.12500000000E+03  0.12500000000E+03 0.  0.
        -13    1    3    3    0    0 -0.21563401407E+02  0.15860402707E+02 -0.29092862767E+02  0.39534016774E+02  0.10566000000E+00 0.  1.
         23    2    1    0    0    0 -0.24458358747E+02 -0.26627772721E+02 -0.48981550053E+01  0.88513817477E+02  0.80643997726E+02 0.  0.
         13    1    3    3    0    0 -0.28949573397E+01 -0.42488175428E+02  0.24194707761E+02  0.48979800703E+02  0.10566000000E+00 0. -1.
         22    1    1    0    0    0  0.24458358747E+02  0.26627772721E+02  0.48981550053E+01  0.36486182523E+02  0.00000000000E+00 0. -1.
</event>
<event>
 5    1  0.3125560E-003  0.9118800E+02  0.7818608E-02  0.1130116E+00
         25   -1    0    0    0    0  0.00000000000E+00  0.00000000000E+00  0.99999998245E-14  0.12500000000E+03  0.12500000000E+03 0.  0.
        -13    1    3    3    0    0  0.35523003265E+02  0.20577840217E+02  0.37096996223E+02  0.55331090372E+02  0.10566000000E+00 0.  1.
         23    2    1    0    0    0  0.29097578238E+02 -0.29738319444E+01  0.55365702992E+01  0.95231453740E+02  0.90459181043E+02 0.  0.
         13    1    3    3    0    0 -0.64254250269E+01 -0.23551672162E+02 -0.31560425924E+02  0.39900363368E+02  0.10566000000E+00 0. -1.
         22    1    1    0    0    0 -0.29097578238E+02  0.29738319444E+01 -0.55365702992E+01  0.29768546260E+02  0.00000000000E+00 0.  1.
</event>
<event>
 5    1  0.3125560E-003  0.9118800E+02  0.7818608E-02  0.1130116E+00
         25   -1    0    0    0    0  0.00000000000E+00  0.00000000000E+00  0.99999998245E-14  0.12500000000E+03  0.12500000000E+03 0.  0.
        -13    1    3    3    0    0 -0.47431515946E+01 -0.50796727691E+02 -0.35113337171E+02  0.61933534071E+02  0.10566000000E+00 0.  1.
         23    2    1    0    0    0 -0.70523604159E+01 -0.20981559298E+02 -0.18556569229E+02  0.96115611837E+02  0.91672803815E+02 0.  0.
         13    1    3    3    0    0 -0.23092088212E+01  0.29815168393E+02  0.16556767943E+02  0.34182077767E+02  0.10566000000E+00 0. -1.
         22    1    1    0    0    0  0.70523604159E+01  0.20981559298E+02  0.18556569229E+02  0.28884388163E+02  0.00000000000E+00 0.  1.
</event>
<event>
 5    1  0.3125560E-003  0.9118800E+02  0.7818608E-02  0.1130116E+00
         25   -1    0    0    0    0  0.00000000000E+00  0.00000000000E+00  0.99999998245E-14  0.12500000000E+03  0.12500000000E+03 0.  0.
        -13    1    3    3    0    0 -0.18444275812E+02  0.27050238919E+02 -0.16827067349E+02  0.36811249577E+02  0.10566000000E+00 0.  1.
         23    2    1    0    0    0 -0.35873123744E+02 -0.14634930783E+01  0.17793408423E+02  0.84929709229E+02  0.74882757076E+02 0.  0.
         13    1    3    3    0    0 -0.17428847932E+02 -0.28513731997E+02  0.34620475771E+02  0.48118459652E+02  0.10566000000E+00 0. -1.
         22    1    1    0    0    0  0.35873123744E+02  0.14634930783E+01 -0.17793408423E+02  0.40070290771E+02  0.00000000000E+00 0. -1.
</event>
<event>
 5    1  0.3125560E-003  0.9118800E+02  0.7818608E-02  0.1130116E+00
         25   -1    0    0    0    0  0.00000000000E+00  0.00000000000E+00  0.99999998245E-14  0.12500000000E+03  0.12500000000E+03 0.  0.
        -13    1    3    3    0    0 -0.28593595610E+02  0.26207950465E+02 -0.47630529457E+02  0.61425799774E+02  0.10566000000E+00 0.  1.
         23    2    1    0    0    0 -0.19951315366E+02  0.12314395928E+02 -0.17390645807E+02  0.95808667494E+02  0.91253311575E+02 0.  0.
         13    1    3    3    0    0  0.86422802436E+01 -0.13893554537E+02  0.30239883649E+02  0.34382867720E+02  0.10566000000E+00 0. -1.
         22    1    1    0    0    0  0.19951315366E+02 -0.12314395928E+02  0.17390645807E+02  0.29191332506E+02  0.00000000000E+00 0.  1.
</event>
<event>
 5    1  0.3125560E-003  0.9118800E+02  0.7818608E-02  0.1130116E+00
         25   -1    0    0    0    0  0.00000000000E+00  0.00000000000E+00  0.99999998245E-14  0.12500000000E+03  0.12500000000E+03 0.  0.
        -13    1    3    3    0    0  0.95160229158E+01 -0.42886764632E+02  0.14710584352E+02  0.46327548270E+02  0.10566000000E+00 0. -1.
         23    2    1    0    0    0  0.27811913560E+02  0.23653537508E+01  0.99382005632E+01  0.95371208856E+02  0.90652094372E+02 0.  0.
         13    1    3    3    0    0  0.18295890644E+02  0.45252118383E+02 -0.47723837884E+01  0.49043660586E+02  0.10566000000E+00 0.  1.
         22    1    1    0    0    0 -0.27811913560E+02 -0.23653537508E+01 -0.99382005632E+01  0.29628791144E+02  0.00000000000E+00 0. -1.
</event>
<event>
 5    1  0.3125560E-003  0.9118800E+02  0.7818608E-02  0.1130116E+00
         25   -1    0    0    0    0  0.00000000000E+00  0.00000000000E+00  0.99999998245E-14  0.12500000000E+03  0.12500000000E+03 0.  0.
        -13    1    3    3    0    0 -0.45850418947E+02  0.16685436511E+02 -0.27077349179E+01  0.48867245693E+02  0.10566000000E+00 0. -1.
         23    2    1    0    0    0 -0.19078726995E+02 -0.20085902171E+02  0.90666742371E+01  0.95851314413E+02  0.91311711205E+02 0.  0.
         13    1    3    3    0    0  0.26771691952E+02 -0.36771338682E+02  0.11774409155E+02  0.46984068720E+02  0.10566000000E+00 0.  1.
         22    1    1    0    0    0  0.19078726995E+02  0.20085902171E+02 -0.90666742371E+01  0.29148685587E+02  0.00000000000E+00 0.  1.
</event>
<event>
 5    1  0.3125560E-003  0.9118800E+02  0.7818608E-02  0.1130116E+00
         25   -1    0    0    0    0  0.00000000000E+00  0.00000000000E+00  0.99999998245E-14  0.12500000000E+03  0.12500000000E+03 0.  0.
        -13    1    3    3    0    0 -0.13650670270E+02 -0.29353042560E+02 -0.29127555290E+02  0.43547302414E+02  0.10566000000E+00 0.  1.
         23    2    1    0    0    0  0.15601150140E+02 -0.21200955487E+02  0.13130223972E+02  0.95584371827E+02  0.90945549406E+02 0.  0.
         13    1    3    3    0    0  0.29251820410E+02  0.81520870729E+01  0.42257779261E+02  0.52037069413E+02  0.10566000000E+00 0. -1.
         22    1    1    0    0    0 -0.15601150140E+02  0.21200955487E+02 -0.13130223972E+02  0.29415628173E+02  0.00000000000E+00 0. -1.
</event>
<event>
 5    1  0.3125560E-003  0.9118800E+02  0.7818608E-02  0.1130116E+00
         25   -1    0    0    0    0  0.00000000000E+00  0.00000000000E+00  0.99999998245E-14  0.12500000000E+03  0.12500000000E+03 0.  0.
        -13    1    3    3    0    0  0.92527824308E+01  0.36925627845E+02 -0.25206682330E+02  0.45656368368E+02  0.10566000000E+00 0.  1.
         23    2    1    0    0    0  0.23305844698E+02 -0.78439852963E+01 -0.20810889594E+02  0.92785350722E+02  0.87013433908E+02 0.  0.
         13    1    3    3    0    0  0.14053062267E+02 -0.44769613141E+02  0.43957927363E+01  0.47128982354E+02  0.10566000000E+00 0. -1.
         22    1    1    0    0    0 -0.23305844698E+02  0.78439852963E+01  0.20810889594E+02  0.32214649278E+02  0.00000000000E+00 0. -1.
</event>
<event>
 5    1  0.3125560E-003  0.9118800E+02  0.7818608E-02  0.1130116E+00
         25   -1    0    0    0    0  0.00000000000E+00  0.00000000000E+00  0.99999998245E-14  0.12500000000E+03  0.12500000000E+03 0.  0.
        -13    1    3    3    0    0  0.20969720596E+02  0.34922348343E+01  0.26459109831E+02  0.33941428124E+02  0.10566000000E+00 0. -1.
         23    2    1    0    0    0 -0.27565706889E+02 -0.31199704242E+00 -0.10948805810E+02  0.95337871164E+02  0.90606113430E+02 0.  0.
         13    1    3    3    0    0 -0.48535427485E+02 -0.38042318767E+01 -0.37407915640E+02  0.61396443040E+02  0.10566000000E+00 0.  1.
         22    1    1    0    0    0  0.27565706889E+02  0.31199704242E+00  0.10948805810E+02  0.29662128836E+02  0.00000000000E+00 0.  1.
</event>
<event>
 5    1  0.3125560E-003  0.9118800E+02  0.7818608E-02  0.1130116E+00
         25   -1    0    0    0    0  0.00000000000E+00  0.00000000000E+00  0.99999998245E-14  0.12500000000E+03  0.12500000000E+03 0.  0.
        -13    1    3    3    0    0  0.54328958866E+01  0.32542067072E+02 -0.38839108775E+02  0.50960671321E+02  0.10566000000E+00 0.  1.
         23    2    1    0    0    0  0.81776200486E+01  0.32125641357E+02  0.19010253969E+01  0.91795418994E+02  0.85579522950E+02 0.  0.
         13    1    3    3    0    0  0.27447241620E+01 -0.41642571542E+00  0.40740134172E+02  0.40834747672E+02  0.10566000000E+00 0. -1.
         22    1    1    0    0    0 -0.81776200486E+01 -0.32125641357E+02 -0.19010253969E+01  0.33204581006E+02  0.00000000000E+00 0.  1.
</event>
<event>
 5    1  0.3125560E-003  0.9118800E+02  0.7818608E-02  0.1130116E+00
         25   -1    0    0    0    0  0.00000000000E+00  0.00000000000E+00  0.99999998245E-14  0.12500000000E+03  0.12500000000E+03 0.  0.
        -13    1    3    3    0    0 -0.42896337499E+02 -0.28219071712E+02  0.47963839616E+01  0.51569644582E+02  0.10566000000E+00 0. -1.
         23    2    1    0    0    0 -0.23832336372E+02  0.12711958203E+02  0.79812762560E+01  0.96834863590E+02  0.92648345358E+02 0.  0.
         13    1    3    3    0    0  0.19064001127E+02  0.40931029916E+02  0.31848922945E+01  0.45265219008E+02  0.10566000000E+00 0.  1.
         22    1    1    0    0    0  0.23832336372E+02 -0.12711958203E+02 -0.79812762560E+01  0.28165136410E+02  0.00000000000E+00 0. -1.
</event>
<event>
 5    1  0.3125560E-003  0.9118800E+02  0.7818608E-02  0.1130116E+00
         25   -1    0    0    0    0  0.00000000000E+00  0.00000000000E+00  0.99999998245E-14  0.12500000000E+03  0.12500000000E+03 0.  0.
        -13    1    3    3    0    0 -0.46820284553E+02  0.35529038519E+02 -0.84640781122E+01  0.59381002064E+02  0.10566000000E+00 0. -1.
         23    2    1    0    0    0 -0.16675215207E+02  0.24056611479E+02  0.66223817573E+01  0.94989346921E+02  0.90124007514E+02 0.  0.
         13    1    3    3    0    0  0.30145069346E+02 -0.11472427040E+02  0.15086459869E+02  0.35608344858E+02  0.10566000000E+00 0.  1.
         22    1    1    0    0    0  0.16675215207E+02 -0.24056611479E+02 -0.66223817573E+01  0.30010653079E+02  0.00000000000E+00 0. -1.
</event>
<event>
 5    1  0.3125560E-003  0.9118800E+02  0.7818608E-02  0.1130116E+00
         25   -1    0    0    0    0  0.00000000000E+00  0.00000000000E+00  0.99999998245E-14  0.12500000000E+03  0.12500000000E+03 0.  0.
        -13    1    3    3    0    0  0.38003769533E+02 -0.23115423158E+02 -0.31679521724E+02  0.54609637860E+02  0.10566000000E+00 0. -1.
         23    2    1    0    0    0  0.33967017830E+00 -0.24786283193E+02 -0.16330493291E+02  0.95315656964E+02  0.90575461583E+02 0.  0.
         13    1    3    3    0    0 -0.37664099355E+02 -0.16708600349E+01  0.15349028432E+02  0.40706019104E+02  0.10566000000E+00 0.  1.
         22    1    1    0    0    0 -0.33967017830E+00  0.24786283193E+02  0.16330493291E+02  0.29684343036E+02  0.00000000000E+00 0. -1.
</event>
<event>
 5    1  0.3125560E-003  0.9118800E+02  0.7818608E-02  0.1130116E+00
         25   -1    0    0    0    0  0.00000000000E+00  0.00000000000E+00  0.99999998245E-14  0.12500000000E+03  0.12500000000E+03 0.  0.
        -13    1    3    3    0    0 -0.32878923696E+02 -0.31872220840E+02  0.40002897431E+02  0.60803824317E+02  0.10566000000E+00 0. -1.
         23    2    1    0    0    0 -0.22562977475E+02 -0.15178530456E+02  0.11349188385E+02  0.95533411865E+02  0.90875480556E+02 0.  0.
         13    1    3    3    0    0  0.10315946221E+02  0.16693690385E+02 -0.28653709046E+02  0.34729587547E+02  0.10566000000E+00 0.  1.
         22    1    1    0    0    0  0.22562977475E+02  0.15178530456E+02 -0.11349188385E+02  0.29466588135E+02  0.00000000000E+00 0. -1.
</event>
<event>
 5    1  0.3125560E-003  0.9118800E+02  0.7818608E-02  0.1130116E+00
         25   -1    0    0    0    0  0.00000000000E+00  0.00000000000E+00  0.99999998245E-14  0.12500000000E+03  0.12500000000E+03 0.  0.
        -13    1    3    3    0    0 -0.34481590093E+01  0.34112538438E+02 -0.99597369660E+00  0.34300994255E+02  0.10566000000E+00 0.  1.
         23    2    1    0    0    0 -0.20752703505E+02 -0.22833487944E+02  0.32758690825E+01  0.93971397184E+02  0.88700897944E+02 0.  0.
         13    1    3    3    0    0 -0.17304544495E+02 -0.56946026383E+02  0.42718427791E+01  0.59670402929E+02  0.10566000000E+00 0. -1.
         22    1    1    0    0    0  0.20752703505E+02  0.22833487944E+02 -0.32758690825E+01  0.31028602816E+02  0.00000000000E+00 0. -1.
</event>
<event>
 5    1  0.3125560E-003  0.9118800E+02  0.7818608E-02  0.1130116E+00
         25   -1    0    0    0    0  0.00000000000E+00  0.00000000000E+00  0.99999998245E-14  0.12500000000E+03  0.12500000000E+03 0.  0.
        -13    1    3    3    0    0  0.12503041969E+02 -0.56954210830E+02  0.31918826070E+01  0.58397837874E+02  0.10566000000E+00 0.  1.
         23    2    1    0    0    0 -0.78997970112E+01 -0.26286552987E+02  0.98669737755E+01  0.95832435271E+02  0.91285863187E+02 0.  0.
         13    1    3    3    0    0 -0.20402838981E+02  0.30667657844E+02  0.66750911684E+01  0.37434597396E+02  0.10566000000E+00 0. -1.
         22    1    1    0    0    0  0.78997970112E+01  0.26286552987E+02 -0.98669737755E+01  0.29167564729E+02  0.00000000000E+00 0.  1.
</event>
<event>
 5    1  0.3125560E-003  0.9118800E+02  0.7818608E-02  0.1130116E+00
         25   -1    0    0    0    0  0.00000000000E+00  0.00000000000E+00  0.99999998245E-14  0.12500000000E+03  0.12500000000E+03 0.  0.
        -13    1    3    3    0    0  0.48330403478E+02  0.20987831578E+02 -0.12174476097E+02  0.54079071802E+02  0.10566000000E+00 0.  1.
         23    2    1    0    0    0  0.84346011137E+01  0.28098526809E+02 -0.46415100940E+01  0.95297923966E+02  0.90550985591E+02 0.  0.
         13    1    3    3    0    0 -0.39895802364E+02  0.71106952309E+01  0.75329660029E+01  0.41218852165E+02  0.10566000000E+00 0. -1.
         22    1    1    0    0    0 -0.84346011137E+01 -0.28098526809E+02  0.46415100940E+01  0.29702076034E+02  0.00000000000E+00 0.  1.
</event>
<event>
 5    1  0.3125560E-003  0.9118800E+02  0.7818608E-02  0.1130116E+00
         25   -1    0    0    0    0  0.00000000000E+00  0.00000000000E+00  0.99999998245E-14  0.12500000000E+03  0.12500000000E+03 0.  0.
        -13    1    3    3    0    0  0.20651678822E+02  0.33054129219E+02  0.53487367260E+01  0.39340658932E+02  0.10566000000E+00 0. -1.
         23    2    1    0    0    0 -0.22892380224E+02 -0.90303665217E+01  0.49426233507E+01  0.99899439898E+02  0.96694673972E+02 0.  0.
         13    1    3    3    0    0 -0.43544059047E+02 -0.42084495740E+02 -0.40611337532E+00  0.60558780966E+02  0.10566000000E+00 0.  1.
         22    1    1    0    0    0  0.22892380224E+02  0.90303665217E+01 -0.49426233507E+01  0.25100560102E+02  0.00000000000E+00 0.  1.
</event>
<event>
 5    1  0.3125560E-003  0.9118800E+02  0.7818608E-02  0.1130116E+00
         25   -1    0    0    0    0  0.00000000000E+00  0.00000000000E+00  0.99999998245E-14  0.12500000000E+03  0.12500000000E+03 0.  0.
        -13    1    3    3    0    0 -0.18537232218E+02  0.45056479469E+02 -0.38216047112E+02  0.61920858694E+02  0.10566000000E+00 0.  1.
         23    2    1    0    0    0 -0.69892740691E+01  0.23330489471E+02 -0.12088499805E+02  0.97810047472E+02  0.93954839513E+02 0.  0.
         13    1    3    3    0    0  0.11547958148E+02 -0.21725989999E+02  0.26127547307E+02  0.35889188778E+02  0.10566000000E+00 0. -1.
         22    1    1    0    0    0  0.69892740691E+01 -0.23330489471E+02  0.12088499805E+02  0.27189952528E+02  0.00000000000E+00 0.  1.
</event>
<event>
 5    1  0.3125560E-003  0.9118800E+02  0.7818608E-02  0.1130116E+00
         25   -1    0    0    0    0  0.00000000000E+00  0.00000000000E+00  0.99999998245E-14  0.12500000000E+03  0.12500000000E+03 0.  0.
        -13    1    3    3    0    0 -0.11268814659E+02 -0.48463800599E+02 -0.11884895856E+02  0.51156505606E+02  0.10566000000E+00 0.  1.
         23    2    1    0    0    0 -0.21176170590E+02 -0.53871645370E+01 -0.19143107844E+02  0.95949865396E+02  0.91446521798E+02 0.  0.
         13    1    3    3    0    0 -0.99073559307E+01  0.43076636062E+02 -0.72582119876E+01  0.44793359789E+02  0.10566000000E+00 0. -1.
         22    1    1    0    0    0  0.21176170590E+02  0.53871645370E+01  0.19143107844E+02  0.29050134604E+02  0.00000000000E+00 0. -1.
</event>
<event>
 5    1  0.3125560E-003  0.9118800E+02  0.7818608E-02  0.1130116E+00
         25   -1    0    0    0    0  0.00000000000E+00  0.00000000000E+00  0.99999998245E-14  0.12500000000E+03  0.12500000000E+03 0.  0.
        -13    1    3    3    0    0  0.98554302302E+01 -0.10165535890E+02 -0.33528752250E+02  0.36395824162E+02  0.10566000000E+00 0. -1.
         23    2    1    0    0    0 -0.23148257488E+02 -0.79913159744E+01  0.15850635480E+02  0.95829028112E+02  0.91281197561E+02 0.  0.
         13    1    3    3    0    0 -0.33003687719E+02  0.21742199158E+01  0.49379387729E+02  0.59433203951E+02  0.10566000000E+00 0.  1.
         22    1    1    0    0    0  0.23148257488E+02  0.79913159744E+01 -0.15850635480E+02  0.29170971888E+02  0.00000000000E+00 0.  1.
</event>
<event>
 5    1  0.3125560E-003  0.9118800E+02  0.7818608E-02  0.1130116E+00
         25   -1    0    0    0    0  0.00000000000E+00  0.00000000000E+00  0.99999998245E-14  0.12500000000E+03  0.12500000000E+03 0.  0.
        -13    1    3    3    0    0  0.17535248424E+02  0.56103609114E+02  0.24978114695E-01  0.58780198034E+02  0.10566000000E+00 0. -1.
         23    2    1    0    0    0  0.23511437656E+02  0.25600421987E+02 -0.35130558239E+01  0.90064189321E+02  0.83012332399E+02 0.  0.
         13    1    3    3    0    0  0.59761892326E+01 -0.30503187127E+02 -0.35380339386E+01  0.31283991287E+02  0.10566000000E+00 0.  1.
         22    1    1    0    0    0 -0.23511437656E+02 -0.25600421987E+02  0.35130558239E+01  0.34935810679E+02  0.00000000000E+00 0. -1.
</event>
<event>
 5    1  0.3125560E-003  0.9118800E+02  0.7818608E-02  0.1130116E+00
         25   -1    0    0    0    0  0.00000000000E+00  0.00000000000E+00  0.99999998245E-14  0.12500000000E+03  0.12500000000E+03 0.  0.
        -13    1    3    3    0    0 -0.13206438707E+02 -0.51954848131E+02 -0.54766676416E+01  0.53886188584E+02  0.10566000000E+00 0. -1.
         23    2    1    0    0    0  0.15026213406E+02 -0.23904094802E+02  0.75689397007E+01  0.95768481294E+02  0.91198247371E+02 0.  0.
         13    1    3    3    0    0  0.28232652113E+02  0.28050753329E+02  0.13045607342E+02  0.41882292710E+02  0.10566000000E+00 0.  1.
         22    1    1    0    0    0 -0.15026213406E+02  0.23904094802E+02 -0.75689397007E+01  0.29231518706E+02  0.00000000000E+00 0. -1.
</event>
<event>
 5    1  0.3125560E-003  0.9118800E+02  0.7818608E-02  0.1130116E+00
         25   -1    0    0    0    0  0.00000000000E+00  0.00000000000E+00  0.99999998245E-14  0.12500000000E+03  0.12500000000E+03 0.  0.
        -13    1    3    3    0    0  0.12874688862E+02 -0.45501089071E+02  0.13584450142E+02  0.49200154163E+02  0.10566000000E+00 0.  1.
         23    2    1    0    0    0 -0.12765486639E+02 -0.24763053191E+02 -0.15454744921E+02  0.93140690638E+02  0.87522412327E+02 0.  0.
         13    1    3    3    0    0 -0.25640175500E+02  0.20738035880E+02 -0.29039195063E+02  0.43940536476E+02  0.10566000000E+00 0. -1.
         22    1    1    0    0    0  0.12765486639E+02  0.24763053191E+02  0.15454744921E+02  0.31859309362E+02  0.00000000000E+00 0. -1.
</event>
<event>
 5    1  0.3125560E-003  0.9118800E+02  0.7818608E-02  0.1130116E+00
         25   -1    0    0    0    0  0.00000000000E+00  0.00000000000E+00  0.99999998245E-14  0.12500000000E+03  0.12500000000E+03 0.  0.
        -13    1    3    3    0    0 -0.28560939757E+02 -0.38870494046E+02 -0.89510634472E+01  0.49058896115E+02  0.10566000000E+00 0.  1.
         23    2    1    0    0    0 -0.26192207532E+02  0.78430851494E+01  0.34323508392E+01  0.97444115831E+02  0.93466726474E+02 0.  0.
         13    1    3    3    0    0  0.23687322256E+01  0.46713579195E+02  0.12383414286E+02  0.48385219716E+02  0.10566000000E+00 0. -1.
         22    1    1    0    0    0  0.26192207532E+02 -0.78430851494E+01 -0.34323508392E+01  0.27555884169E+02  0.00000000000E+00 0.  1.
</event>
<event>
 5    1  0.3125560E-003  0.9118800E+02  0.7818608E-02  0.1130116E+00
         25   -1    0    0    0    0  0.00000000000E+00  0.00000000000E+00  0.99999998245E-14  0.12500000000E+03  0.12500000000E+03 0.  0.
        -13    1    3    3    0    0  0.25399425279E+02  0.89918721603E+01  0.21486956487E+02  0.34462806510E+02  0.10566000000E+00 0. -1.
         23    2    1    0    0    0 -0.20305397246E+02 -0.21716159329E+02 -0.37505506948E+01  0.95033896419E+02  0.90185775513E+02 0.  0.
         13    1    3    3    0    0 -0.45704822525E+02 -0.30708031489E+02 -0.25237507182E+02  0.60571089909E+02  0.10566000000E+00 0.  1.
         22    1    1    0    0    0  0.20305397246E+02  0.21716159329E+02  0.37505506948E+01  0.29966103581E+02  0.00000000000E+00 0.  1.
</event>
<event>
 5    1  0.3125560E-003  0.9118800E+02  0.7818608E-02  0.1130116E+00
         25   -1    0    0    0    0  0.00000000000E+00  0.00000000000E+00  0.99999998245E-14  0.12500000000E+03  0.12500000000E+03 0.  0.
        -13    1    3    3    0    0  0.56917123184E+02 -0.52795433822E+01  0.62154255673E+01  0.57498479709E+02  0.10566000000E+00 0. -1.
         23    2    1    0    0    0  0.23703660475E+02 -0.14334513541E+02  0.15637029598E+02  0.93190276753E+02  0.87593202866E+02 0.  0.
         13    1    3    3    0    0 -0.33213462709E+02 -0.90549701589E+01  0.94216040304E+01  0.35691797044E+02  0.10566000000E+00 0.  1.
         22    1    1    0    0    0 -0.23703660475E+02  0.14334513541E+02 -0.15637029598E+02  0.31809723247E+02  0.00000000000E+00 0. -1.
</event>
<event>
 5    1  0.3125560E-003  0.9118800E+02  0.7818608E-02  0.1130116E+00
         25   -1    0    0    0    0  0.00000000000E+00  0.00000000000E+00  0.99999998245E-14  0.12500000000E+03  0.12500000000E+03 0.  0.
        -13    1    3    3    0    0 -0.57533446511E+02  0.46532700892E+00  0.15397938734E+02  0.59560235711E+02  0.10566000000E+00 0.  1.
         23    2    1    0    0    0 -0.30737940128E+02  0.11827623812E+02  0.95685395374E+00  0.92051112039E+02  0.85952184439E+02 0.  0.
         13    1    3    3    0    0  0.26795506382E+02  0.11362296803E+02 -0.14441084780E+02  0.32490876328E+02  0.10566000000E+00 0. -1.
         22    1    1    0    0    0  0.30737940128E+02 -0.11827623812E+02 -0.95685395374E+00  0.32948887961E+02  0.00000000000E+00 0.  1.
</event>
<event>
 5    1  0.3125560E-003  0.9118800E+02  0.7818608E-02  0.1130116E+00
         25   -1    0    0    0    0  0.00000000000E+00  0.00000000000E+00  0.99999998245E-14  0.12500000000E+03  0.12500000000E+03 0.  0.
        -13    1    3    3    0    0  0.48308146576E+02 -0.15565789963E+02  0.33515350576E+02  0.60821548246E+02  0.10566000000E+00 0.  1.
         23    2    1    0    0    0  0.14778321115E+02 -0.11848552309E+02  0.20784414266E+02  0.96879209770E+02  0.92708157368E+02 0.  0.
         13    1    3    3    0    0 -0.33529825461E+02  0.37172376534E+01 -0.12730936310E+02  0.36057661524E+02  0.10566000000E+00 0. -1.
         22    1    1    0    0    0 -0.14778321115E+02  0.11848552309E+02 -0.20784414266E+02  0.28120790230E+02  0.00000000000E+00 0.  1.
</event>
<event>
 5    1  0.3125560E-003  0.9118800E+02  0.7818608E-02  0.1130116E+00
         25   -1    0    0    0    0  0.00000000000E+00  0.00000000000E+00  0.99999998245E-14  0.12500000000E+03  0.12500000000E+03 0.  0.
        -13    1    3    3    0    0 -0.16136859350E+02 -0.58476025947E+02  0.74433630052E+01  0.61116762489E+02  0.10566000000E+00 0.  1.
         23    2    1    0    0    0 -0.15813261253E+02 -0.25061260459E+02 -0.66506713216E-01  0.95366734395E+02  0.90645924336E+02 0.  0.
         13    1    3    3    0    0  0.32359809692E+00  0.33414765488E+02 -0.75098697185E+01  0.34249971906E+02  0.10566000000E+00 0. -1.
         22    1    1    0    0    0  0.15813261253E+02  0.25061260459E+02  0.66506713216E-01  0.29633265605E+02  0.00000000000E+00 0.  1.
</event>
<event>
 5    1  0.3125560E-003  0.9118800E+02  0.7818608E-02  0.1130116E+00
         25   -1    0    0    0    0  0.00000000000E+00  0.00000000000E+00  0.99999998245E-14  0.12500000000E+03  0.12500000000E+03 0.  0.
        -13    1    3    3    0    0 -0.53130996231E+01  0.48817057604E+02 -0.17404541611E+02  0.52098592816E+02  0.10566000000E+00 0.  1.
         23    2    1    0    0    0 -0.10023841402E+02  0.81968073713E+01 -0.27835094338E+02  0.94300528924E+02  0.89163514013E+02 0.  0.
         13    1    3    3    0    0 -0.47107417787E+01 -0.40620250233E+02 -0.10430552727E+02  0.42201936108E+02  0.10566000000E+00 0. -1.
         22    1    1    0    0    0  0.10023841402E+02 -0.81968073713E+01  0.27835094338E+02  0.30699471076E+02  0.00000000000E+00 0.  1.
</event>
<event>
 5    1  0.3125560E-003  0.9118800E+02  0.7818608E-02  0.1130116E+00
         25   -1    0    0    0    0  0.00000000000E+00  0.00000000000E+00  0.99999998245E-14  0.12500000000E+03  0.12500000000E+03 0.  0.
        -13    1    3    3    0    0  0.21370249218E+02  0.25361249491E+02 -0.48401467513E+01  0.33515947130E+02  0.10566000000E+00 0. -1.
         23    2    1    0    0    0  0.50368799143E+01 -0.24420274381E+02 -0.25035320742E+02  0.89666061007E+02  0.82410650111E+02 0.  0.
         13    1    3    3    0    0 -0.16333369304E+02 -0.49781523873E+02 -0.20195173990E+02  0.56150113877E+02  0.10566000000E+00 0.  1.
         22    1    1    0    0    0 -0.50368799143E+01  0.24420274381E+02  0.25035320742E+02  0.35333938993E+02  0.00000000000E+00 0.  1.
</event>
<event>
 5    1  0.3125560E-003  0.9118800E+02  0.7818608E-02  0.1130116E+00
         25   -1    0    0    0    0  0.00000000000E+00  0.00000000000E+00  0.99999998245E-14  0.12500000000E+03  0.12500000000E+03 0.  0.
        -13    1    3    3    0    0  0.97193241515E+01 -0.17802089355E+02  0.18149974736E+02  0.27217869026E+02  0.10566000000E+00 0.  1.
         23    2    1    0    0    0  0.23623782120E+00  0.37782070665E+02 -0.21702225736E+01  0.87154913951E+02  0.78509416554E+02 0.  0.
         13    1    3    3    0    0 -0.94830863303E+01  0.55584160020E+02 -0.20320197310E+02  0.59937044924E+02  0.10566000000E+00 0. -1.
         22    1    1    0    0    0 -0.23623782120E+00 -0.37782070665E+02  0.21702225736E+01  0.37845086049E+02  0.00000000000E+00 0. -1.
</event>
<event>
 5    1  0.3125560E-003  0.9118800E+02  0.7818608E-02  0.1130116E+00
         25   -1    0    0    0    0  0.00000000000E+00  0.00000000000E+00  0.99999998245E-14  0.12500000000E+03  0.12500000000E+03 0.  0.
        -13    1    3    3    0    0 -0.13059121227E+02  0.33552982373E+02 -0.25236610163E+01  0.36093258406E+02  0.10566000000E+00 0. -1.
         23    2    1    0    0    0  0.50722133886E+00 -0.23046633279E+02 -0.17342155175E+02  0.96152904390E+02  0.91723639797E+02 0.  0.
         13    1    3    3    0    0  0.13566342566E+02 -0.56599615653E+02 -0.14818494159E+02  0.60059645985E+02  0.10566000000E+00 0.  1.
         22    1    1    0    0    0 -0.50722133886E+00  0.23046633279E+02  0.17342155175E+02  0.28847095610E+02  0.00000000000E+00 0.  1.
</event>
<event>
 5    1  0.3125560E-003  0.9118800E+02  0.7818608E-02  0.1130116E+00
         25   -1    0    0    0    0  0.00000000000E+00  0.00000000000E+00  0.99999998245E-14  0.12500000000E+03  0.12500000000E+03 0.  0.
        -13    1    3    3    0    0  0.10864128916E+02  0.54212887556E+02 -0.87456103630E+01  0.55978239870E+02  0.10566000000E+00 0. -1.
         23    2    1    0    0    0  0.19473001464E+02  0.14868516036E+02  0.74560278516E+01  0.99390179492E+02  0.96034081830E+02 0.  0.
         13    1    3    3    0    0  0.86088725482E+01 -0.39344371520E+02  0.16201638215E+02  0.43411939622E+02  0.10566000000E+00 0.  1.
         22    1    1    0    0    0 -0.19473001464E+02 -0.14868516036E+02 -0.74560278516E+01  0.25609820508E+02  0.00000000000E+00 0. -1.
</event>
<event>
 5    1  0.3125560E-003  0.9118800E+02  0.7818608E-02  0.1130116E+00
         25   -1    0    0    0    0  0.00000000000E+00  0.00000000000E+00  0.99999998245E-14  0.12500000000E+03  0.12500000000E+03 0.  0.
        -13    1    3    3    0    0  0.95458040345E+01  0.41028372734E+02 -0.19987182766E+01  0.42171741518E+02  0.10566000000E+00 0. -1.
         23    2    1    0    0    0 -0.21824448459E+02  0.81424405676E+01  0.21468838498E+02  0.93321664889E+02  0.87780500240E+02 0.  0.
         13    1    3    3    0    0 -0.31370252494E+02 -0.32885932166E+02  0.23467556774E+02  0.51149923372E+02  0.10566000000E+00 0.  1.
         22    1    1    0    0    0  0.21824448459E+02 -0.81424405676E+01 -0.21468838498E+02  0.31678335111E+02  0.00000000000E+00 0.  1.
</event>
<event>
 5    1  0.3125560E-003  0.9118800E+02  0.7818608E-02  0.1130116E+00
         25   -1    0    0    0    0  0.00000000000E+00  0.00000000000E+00  0.99999998245E-14  0.12500000000E+03  0.12500000000E+03 0.  0.
        -13    1    3    3    0    0 -0.19717657367E+02  0.30898703906E+02  0.27071506492E+02  0.45567461449E+02  0.10566000000E+00 0.  1.
         23    2    1    0    0    0  0.14103167686E+02 -0.67972791465E+01  0.24051794774E+02  0.96301721752E+02  0.91926222798E+02 0.  0.
         13    1    3    3    0    0  0.33820825053E+02 -0.37695983053E+02 -0.30197117183E+01  0.50734260303E+02  0.10566000000E+00 0. -1.
         22    1    1    0    0    0 -0.14103167686E+02  0.67972791465E+01 -0.24051794774E+02  0.28698278248E+02  0.00000000000E+00 0. -1.
</event>
<event>
 5    1  0.3125560E-003  0.9118800E+02  0.7818608E-02  0.1130116E+00
         25   -1    0    0    0    0  0.00000000000E+00  0.00000000000E+00  0.99999998245E-14  0.12500000000E+03  0.12500000000E+03 0.  0.
        -13    1    3    3    0    0 -0.29314481913E+02 -0.45504166422E+01 -0.50437764456E+02  0.58515163751E+02  0.10566000000E+00 0. -1.
         23    2    1    0    0    0 -0.75027322479E+01  0.12206352635E+02 -0.26023284387E+02  0.95293142776E+02  0.90544385216E+02 0.  0.
         13    1    3    3    0    0  0.21811749665E+02  0.16756769277E+02  0.24414480069E+02  0.36777979025E+02  0.10566000000E+00 0.  1.
         22    1    1    0    0    0  0.75027322479E+01 -0.12206352635E+02  0.26023284387E+02  0.29706857224E+02  0.00000000000E+00 0. -1.
</event>
<event>
 5    1  0.3125560E-003  0.9118800E+02  0.7818608E-02  0.1130116E+00
         25   -1    0    0    0    0  0.00000000000E+00  0.00000000000E+00  0.99999998245E-14  0.12500000000E+03  0.12500000000E+03 0.  0.
        -13    1    3    3    0    0  0.29547277420E+02 -0.29803830417E+02  0.26160013376E+02  0.49453689188E+02  0.10566000000E+00 0.  1.
         23    2    1    0    0    0  0.55095904709E+00  0.40136052783E+01  0.30519039737E+02  0.94213243599E+02  0.89041062998E+02 0.  0.
         13    1    3    3    0    0 -0.28996318373E+02  0.33817435695E+02  0.43590263619E+01  0.44759554411E+02  0.10566000000E+00 0. -1.
         22    1    1    0    0    0 -0.55095904709E+00 -0.40136052783E+01 -0.30519039737E+02  0.30786756401E+02  0.00000000000E+00 0.  1.
</event>
<event>
 5    1  0.3125560E-003  0.9118800E+02  0.7818608E-02  0.1130116E+00
         25   -1    0    0    0    0  0.00000000000E+00  0.00000000000E+00  0.99999998245E-14  0.12500000000E+03  0.12500000000E+03 0.  0.
        -13    1    3    3    0    0 -0.45089633914E+01 -0.10388316862E+02 -0.33977124104E+02  0.35814857315E+02  0.10566000000E+00 0. -1.
         23    2    1    0    0    0 -0.12737811982E+01 -0.10564881932E+02  0.26533440118E+02  0.96412193276E+02  0.92076317905E+02 0.  0.
         13    1    3    3    0    0  0.32351821932E+01 -0.17656506994E+00  0.60510564222E+02  0.60597335961E+02  0.10566000000E+00 0.  1.
         22    1    1    0    0    0  0.12737811982E+01  0.10564881932E+02 -0.26533440118E+02  0.28587806724E+02  0.00000000000E+00 0.  1.
</event>
<event>
 5    1  0.3125560E-003  0.9118800E+02  0.7818608E-02  0.1130116E+00
         25   -1    0    0    0    0  0.00000000000E+00  0.00000000000E+00  0.99999998245E-14  0.12500000000E+03  0.12500000000E+03 0.  0.
        -13    1    3    3    0    0 -0.10891458726E+02 -0.17665838167E+02 -0.50255124412E+02  0.54371816275E+02  0.10566000000E+00 0. -1.
         23    2    1    0    0    0 -0.26147795586E+02 -0.76697750953E+01 -0.15427945472E+02  0.93686198481E+02  0.88298072574E+02 0.  0.
         13    1    3    3    0    0 -0.15256336860E+02  0.99960630720E+01  0.34827178940E+02  0.39314382206E+02  0.10566000000E+00 0.  1.
         22    1    1    0    0    0  0.26147795586E+02  0.76697750953E+01  0.15427945472E+02  0.31313801519E+02  0.00000000000E+00 0. -1.
</event>
<event>
 5    1  0.3125560E-003  0.9118800E+02  0.7818608E-02  0.1130116E+00
         25   -1    0    0    0    0  0.00000000000E+00  0.00000000000E+00  0.99999998245E-14  0.12500000000E+03  0.12500000000E+03 0.  0.
        -13    1    3    3    0    0  0.17561272488E+02  0.67745036790E+01  0.29944490029E+02  0.35369136809E+02  0.10566000000E+00 0.  1.
         23    2    1    0    0    0  0.97011411209E+01 -0.13988400314E+01 -0.28478233564E+02  0.94882253082E+02  0.89975348127E+02 0.  0.
         13    1    3    3    0    0 -0.78601313671E+01 -0.81733437104E+01 -0.58422723593E+02  0.59513116273E+02  0.10566000000E+00 0. -1.
         22    1    1    0    0    0 -0.97011411209E+01  0.13988400314E+01  0.28478233564E+02  0.30117746918E+02  0.00000000000E+00 0. -1.
</event>
<event>
 5    1  0.3125560E-003  0.9118800E+02  0.7818608E-02  0.1130116E+00
         25   -1    0    0    0    0  0.00000000000E+00  0.00000000000E+00  0.99999998245E-14  0.12500000000E+03  0.12500000000E+03 0.  0.
        -13    1    3    3    0    0 -0.48488261721E+02  0.31150527888E+01 -0.37972357189E+02  0.61666248087E+02  0.10566000000E+00 0.  1.
         23    2    1    0    0    0 -0.20382125853E+02 -0.44117053556E+01 -0.21252789184E+02  0.95224586543E+02  0.90449691186E+02 0.  0.
         13    1    3    3    0    0  0.28106135868E+02 -0.75267581444E+01  0.16719568005E+02  0.33558338456E+02  0.10566000000E+00 0. -1.
         22    1    1    0    0    0  0.20382125853E+02  0.44117053556E+01  0.21252789184E+02  0.29775413457E+02  0.00000000000E+00 0.  1.
</event>
<event>
 5    1  0.3125560E-003  0.9118800E+02  0.7818608E-02  0.1130116E+00
         25   -1    0    0    0    0  0.00000000000E+00  0.00000000000E+00  0.99999998245E-14  0.12500000000E+03  0.12500000000E+03 0.  0.
        -13    1    3    3    0    0 -0.25961485747E+02  0.10566762301E+02 -0.16299322348E+02  0.32424285355E+02  0.10566000000E+00 0. -1.
         23    2    1    0    0    0  0.24930068885E+02 -0.18638836054E+02 -0.13220338638E+02  0.91181485874E+02  0.84678045965E+02 0.  0.
         13    1    3    3    0    0  0.50891554632E+02 -0.29205598354E+02  0.30789837107E+01  0.58757200519E+02  0.10566000000E+00 0.  1.
         22    1    1    0    0    0 -0.24930068885E+02  0.18638836054E+02  0.13220338638E+02  0.33818514126E+02  0.00000000000E+00 0.  1.
</event>
<event>
 5    1  0.3125560E-003  0.9118800E+02  0.7818608E-02  0.1130116E+00
         25   -1    0    0    0    0  0.00000000000E+00  0.00000000000E+00  0.99999998245E-14  0.12500000000E+03  0.12500000000E+03 0.  0.
        -13    1    3    3    0    0  0.34337950148E+02 -0.27771081055E+02  0.18862562034E+02  0.48022236244E+02  0.10566000000E+00 0.  1.
         23    2    1    0    0    0  0.29980042042E+02  0.28771664180E+01 -0.12774235937E+02  0.92285139291E+02  0.86291858381E+02 0.  0.
         13    1    3    3    0    0 -0.43579081067E+01  0.30648247473E+02 -0.31636797971E+02  0.44262903047E+02  0.10566000000E+00 0. -1.
         22    1    1    0    0    0 -0.29980042042E+02 -0.28771664180E+01  0.12774235937E+02  0.32714860709E+02  0.00000000000E+00 0.  1.
</event>
<event>
 5    1  0.3125560E-003  0.9118800E+02  0.7818608E-02  0.1130116E+00
         25   -1    0    0    0    0  0.00000000000E+00  0.00000000000E+00  0.99999998245E-14  0.12500000000E+03  0.12500000000E+03 0.  0.
        -13    1    3    3    0    0 -0.39451217139E+02  0.11227562515E+02  0.45769328654E+02  0.61459737254E+02  0.10566000000E+00 0.  1.
         23    2    1    0    0    0 -0.26953534118E+02  0.50955528813E+00  0.22967596361E+02  0.89584422486E+02  0.82286728100E+02 0.  0.
         13    1    3    3    0    0  0.12497683021E+02 -0.10718007227E+02 -0.22801732293E+02  0.28124685232E+02  0.10566000000E+00 0. -1.
         22    1    1    0    0    0  0.26953534118E+02 -0.50955528813E+00 -0.22967596361E+02  0.35415577514E+02  0.00000000000E+00 0.  1.
</event>
<event>
 5    1  0.3125560E-003  0.9118800E+02  0.7818608E-02  0.1130116E+00
         25   -1    0    0    0    0  0.00000000000E+00  0.00000000000E+00  0.99999998245E-14  0.12500000000E+03  0.12500000000E+03 0.  0.
        -13    1    3    3    0    0 -0.36892983418E+02  0.17129735934E+02 -0.34932498623E+02  0.53617261239E+02  0.10566000000E+00 0. -1.
         23    2    1    0    0    0  0.88572950680E+01  0.13750896190E+02 -0.99755194023E+01  0.10584145597E+03  0.10409305449E+03 0.  0.
         13    1    3    3    0    0  0.45750278486E+02 -0.33788397437E+01  0.24956979221E+02  0.52224194732E+02  0.10566000000E+00 0.  1.
         22    1    1    0    0    0 -0.88572950680E+01 -0.13750896190E+02  0.99755194023E+01  0.19158544029E+02  0.00000000000E+00 0.  1.
</event>
<event>
 5    1  0.3125560E-003  0.9118800E+02  0.7818608E-02  0.1130116E+00
         25   -1    0    0    0    0  0.00000000000E+00  0.00000000000E+00  0.99999998245E-14  0.12500000000E+03  0.12500000000E+03 0.  0.
        -13    1    3    3    0    0  0.18960171007E+02 -0.20629147969E+02  0.15389744975E+02  0.31967252697E+02  0.10566000000E+00 0.  1.
         23    2    1    0    0    0  0.59208098728E+01  0.31459743712E+02  0.22127713135E+02  0.86084615477E+02  0.76786417219E+02 0.  0.
         13    1    3    3    0    0 -0.13039361134E+02  0.52088891681E+02  0.67379681599E+01  0.54117362780E+02  0.10566000000E+00 0. -1.
         22    1    1    0    0    0 -0.59208098728E+01 -0.31459743712E+02 -0.22127713135E+02  0.38915384523E+02  0.00000000000E+00 0. -1.
</event>
<event>
 5    1  0.3125560E-003  0.9118800E+02  0.7818608E-02  0.1130116E+00
         25   -1    0    0    0    0  0.00000000000E+00  0.00000000000E+00  0.99999998245E-14  0.12500000000E+03  0.12500000000E+03 0.  0.
        -13    1    3    3    0    0 -0.37397622090E+01 -0.45075314621E+02 -0.10368565806E+02  0.46403535754E+02  0.10566000000E+00 0.  1.
         23    2    1    0    0    0  0.28056335533E+02 -0.87488614686E+01 -0.69484577107E+01  0.94800966819E+02  0.89862348649E+02 0.  0.
         13    1    3    3    0    0  0.31796097742E+02  0.36326453153E+02  0.34201080949E+01  0.48397431065E+02  0.10566000000E+00 0. -1.
         22    1    1    0    0    0 -0.28056335533E+02  0.87488614686E+01  0.69484577107E+01  0.30199033181E+02  0.00000000000E+00 0.  1.
</event>
<event>
 5    1  0.3125560E-003  0.9118800E+02  0.7818608E-02  0.1130116E+00
         25   -1    0    0    0    0  0.00000000000E+00  0.00000000000E+00  0.99999998245E-14  0.12500000000E+03  0.12500000000E+03 0.  0.
        -13    1    3    3    0    0 -0.28044280783E+02  0.63741045345E+01 -0.51288197585E+02  0.58801371318E+02  0.10566000000E+00 0.  1.
         23    2    1    0    0    0 -0.23279868561E+02 -0.57708870224E+01 -0.16683763627E+02  0.95783508321E+02  0.91218841696E+02 0.  0.
         13    1    3    3    0    0  0.47644122219E+01 -0.12144991557E+02  0.34604433958E+02  0.36982137004E+02  0.10566000000E+00 0. -1.
         22    1    1    0    0    0  0.23279868561E+02  0.57708870224E+01  0.16683763627E+02  0.29216491679E+02  0.00000000000E+00 0.  1.
</event>
<event>
 5    1  0.3125560E-003  0.9118800E+02  0.7818608E-02  0.1130116E+00
         25   -1    0    0    0    0  0.00000000000E+00  0.00000000000E+00  0.99999998245E-14  0.12500000000E+03  0.12500000000E+03 0.  0.
        -13    1    3    3    0    0 -0.29559931116E+02 -0.30595053074E+02 -0.23797929489E+02  0.48746275881E+02  0.10566000000E+00 0.  1.
         23    2    1    0    0    0 -0.27114716056E+02  0.78716293305E+01  0.42935337755E+01  0.96441204377E+02  0.92115694072E+02 0.  0.
         13    1    3    3    0    0  0.24452150600E+01  0.38466682405E+02  0.28091463264E+02  0.47694928497E+02  0.10566000000E+00 0. -1.
         22    1    1    0    0    0  0.27114716056E+02 -0.78716293305E+01 -0.42935337755E+01  0.28558795623E+02  0.00000000000E+00 0.  1.
</event>
<event>
 5    1  0.3125560E-003  0.9118800E+02  0.7818608E-02  0.1130116E+00
         25   -1    0    0    0    0  0.00000000000E+00  0.00000000000E+00  0.99999998245E-14  0.12500000000E+03  0.12500000000E+03 0.  0.
        -13    1    3    3    0    0  0.44541044821E+02 -0.95547342525E+01  0.26691024410E+02  0.52797912539E+02  0.10566000000E+00 0.  1.
         23    2    1    0    0    0  0.26215153795E+02 -0.34450489248E+01 -0.11939064012E+02  0.95988900399E+02  0.91499863933E+02 0.  0.
         13    1    3    3    0    0 -0.18325891027E+02  0.61096853277E+01 -0.38630088422E+02  0.43190987860E+02  0.10566000000E+00 0. -1.
         22    1    1    0    0    0 -0.26215153795E+02  0.34450489248E+01  0.11939064012E+02  0.29011099601E+02  0.00000000000E+00 0.  1.
</event>
<event>
 5    1  0.3125560E-003  0.9118800E+02  0.7818608E-02  0.1130116E+00
         25   -1    0    0    0    0  0.00000000000E+00  0.00000000000E+00  0.99999998245E-14  0.12500000000E+03  0.12500000000E+03 0.  0.
        -13    1    3    3    0    0  0.21509750998E+02 -0.33953049144E+02  0.46709553791E+02  0.61622013222E+02  0.10566000000E+00 0.  1.
         23    2    1    0    0    0  0.16839601204E+02 -0.12793381170E+02  0.22115848006E+02  0.94400106152E+02  0.89303004082E+02 0.  0.
         13    1    3    3    0    0 -0.46701497944E+01  0.21159667974E+02 -0.24593705785E+02  0.32778092930E+02  0.10566000000E+00 0. -1.
         22    1    1    0    0    0 -0.16839601204E+02  0.12793381170E+02 -0.22115848006E+02  0.30599893848E+02  0.00000000000E+00 0.  1.
</event>
<event>
 5    1  0.3125560E-003  0.9118800E+02  0.7818608E-02  0.1130116E+00
         25   -1    0    0    0    0  0.00000000000E+00  0.00000000000E+00  0.99999998245E-14  0.12500000000E+03  0.12500000000E+03 0.  0.
        -13    1    3    3    0    0  0.32949404237E+02  0.32008984639E+02  0.21518338915E+02  0.50727590234E+02  0.10566000000E+00 0. -1.
         23    2    1    0    0    0  0.20031244933E+02  0.91643070057E+01 -0.16887145219E+02  0.97243721969E+02  0.93198339536E+02 0.  0.
         13    1    3    3    0    0 -0.12918159304E+02 -0.22844677633E+02 -0.38405484135E+02  0.46516131735E+02  0.10566000000E+00 0.  1.
         22    1    1    0    0    0 -0.20031244933E+02 -0.91643070057E+01  0.16887145219E+02  0.27756278031E+02  0.00000000000E+00 0.  1.
</event>
<event>
 5    1  0.3125560E-003  0.9118800E+02  0.7818608E-02  0.1130116E+00
         25   -1    0    0    0    0  0.00000000000E+00  0.00000000000E+00  0.99999998245E-14  0.12500000000E+03  0.12500000000E+03 0.  0.
        -13    1    3    3    0    0 -0.17253564931E+02  0.53585873976E+02 -0.89949660413E+01  0.57009227066E+02  0.10566000000E+00 0.  1.
         23    2    1    0    0    0  0.53998591339E+01  0.23365272806E+02 -0.16984202885E+02  0.95613649434E+02  0.90985781078E+02 0.  0.
         13    1    3    3    0    0  0.22653424065E+02 -0.30220601170E+02 -0.79892368439E+01  0.38604422367E+02  0.10566000000E+00 0. -1.
         22    1    1    0    0    0 -0.53998591339E+01 -0.23365272806E+02  0.16984202885E+02  0.29386350566E+02  0.00000000000E+00 0.  1.
</event>
<event>
 5    1  0.3125560E-003  0.9118800E+02  0.7818608E-02  0.1130116E+00
         25   -1    0    0    0    0  0.00000000000E+00  0.00000000000E+00  0.99999998245E-14  0.12500000000E+03  0.12500000000E+03 0.  0.
        -13    1    3    3    0    0  0.25221783233E+02  0.22871962781E+02  0.13239462787E+02  0.36531624243E+02  0.10566000000E+00 0.  1.
         23    2    1    0    0    0  0.38327649939E+01 -0.14469912699E+02 -0.26148755714E+02  0.94869850873E+02  0.89958116467E+02 0.  0.
         13    1    3    3    0    0 -0.21389018239E+02 -0.37341875480E+02 -0.39388218501E+02  0.58338226630E+02  0.10566000000E+00 0. -1.
         22    1    1    0    0    0 -0.38327649939E+01  0.14469912699E+02  0.26148755714E+02  0.30130149127E+02  0.00000000000E+00 0. -1.
</event>
<event>
 5    1  0.3125560E-003  0.9118800E+02  0.7818608E-02  0.1130116E+00
         25   -1    0    0    0    0  0.00000000000E+00  0.00000000000E+00  0.99999998245E-14  0.12500000000E+03  0.12500000000E+03 0.  0.
        -13    1    3    3    0    0 -0.38048085355E+02 -0.11436822990E+01  0.62440372534E+01  0.38574136071E+02  0.10566000000E+00 0. -1.
         23    2    1    0    0    0  0.69185901306E+01  0.24203986166E+02  0.20952552604E+02  0.92247758911E+02  0.86237693196E+02 0.  0.
         13    1    3    3    0    0  0.44966675486E+02  0.25347668465E+02  0.14708515351E+02  0.53673622840E+02  0.10566000000E+00 0.  1.
         22    1    1    0    0    0 -0.69185901306E+01 -0.24203986166E+02 -0.20952552604E+02  0.32752241089E+02  0.00000000000E+00 0.  1.
</event>
<event>
 5    1  0.3125560E-003  0.9118800E+02  0.7818608E-02  0.1130116E+00
         25   -1    0    0    0    0  0.00000000000E+00  0.00000000000E+00  0.99999998245E-14  0.12500000000E+03  0.12500000000E+03 0.  0.
        -13    1    3    3    0    0 -0.51418176904E+02  0.45099397176E+01  0.30921036888E+02  0.60168847078E+02  0.10566000000E+00 0. -1.
         23    2    1    0    0    0 -0.19358581324E+02 -0.99390892370E+01  0.10432932085E+02  0.10086732013E+03  0.97937888648E+02 0.  0.
         13    1    3    3    0    0  0.32059595579E+02 -0.14449028955E+02 -0.20488104803E+02  0.40698473054E+02  0.10566000000E+00 0.  1.
         22    1    1    0    0    0  0.19358581324E+02  0.99390892370E+01 -0.10432932085E+02  0.24132679869E+02  0.00000000000E+00 0. -1.
</event>
<event>
 5    1  0.3125560E-003  0.9118800E+02  0.7818608E-02  0.1130116E+00
         25   -1    0    0    0    0  0.00000000000E+00  0.00000000000E+00  0.99999998245E-14  0.12500000000E+03  0.12500000000E+03 0.  0.
        -13    1    3    3    0    0 -0.42436922911E+02  0.43127684710E+02  0.75204750068E+01  0.60970962949E+02  0.10566000000E+00 0. -1.
         23    2    1    0    0    0 -0.14002277504E+02  0.25446983191E+02  0.93018363510E+01  0.94501854346E+02  0.89445310590E+02 0.  0.
         13    1    3    3    0    0  0.28434645407E+02 -0.17680701519E+02  0.17813613442E+01  0.33530891397E+02  0.10566000000E+00 0.  1.
         22    1    1    0    0    0  0.14002277504E+02 -0.25446983191E+02 -0.93018363510E+01  0.30498145654E+02  0.00000000000E+00 0. -1.
</event>
<event>
 5    1  0.3125560E-003  0.9118800E+02  0.7818608E-02  0.1130116E+00
         25   -1    0    0    0    0  0.00000000000E+00  0.00000000000E+00  0.99999998245E-14  0.12500000000E+03  0.12500000000E+03 0.  0.
        -13    1    3    3    0    0  0.42464592945E+02 -0.18063275221E+02  0.60454633237E+00  0.46150841877E+02  0.10566000000E+00 0.  1.
         23    2    1    0    0    0 -0.26997265195E+01 -0.28540330077E+01 -0.24618030352E+02  0.10007047040E+03  0.96915517849E+02 0.  0.
         13    1    3    3    0    0 -0.45164319465E+02  0.15209242213E+02 -0.25222576684E+02  0.53919628523E+02  0.10566000000E+00 0. -1.
         22    1    1    0    0    0  0.26997265195E+01  0.28540330077E+01  0.24618030352E+02  0.24929529600E+02  0.00000000000E+00 0.  1.
</event>
<event>
 5    1  0.3125560E-003  0.9118800E+02  0.7818608E-02  0.1130116E+00
         25   -1    0    0    0    0  0.00000000000E+00  0.00000000000E+00  0.99999998245E-14  0.12500000000E+03  0.12500000000E+03 0.  0.
        -13    1    3    3    0    0 -0.32485710924E+02 -0.18961806581E+02 -0.32107285309E+02  0.49454630289E+02  0.10566000000E+00 0.  1.
         23    2    1    0    0    0 -0.31071683581E+02  0.42887448299E+01  0.49705332202E+01  0.93242338669E+02  0.87667466412E+02 0.  0.
         13    1    3    3    0    0  0.14140273434E+01  0.23250551411E+02  0.37077818529E+02  0.43787708380E+02  0.10566000000E+00 0. -1.
         22    1    1    0    0    0  0.31071683581E+02 -0.42887448299E+01 -0.49705332202E+01  0.31757661331E+02  0.00000000000E+00 0.  1.
</event>
<event>
 5    1  0.3125560E-003  0.9118800E+02  0.7818608E-02  0.1130116E+00
         25   -1    0    0    0    0  0.00000000000E+00  0.00000000000E+00  0.99999998245E-14  0.12500000000E+03  0.12500000000E+03 0.  0.
        -13    1    3    3    0    0  0.24402213198E+02 -0.17349110084E+02 -0.47343142909E+02  0.56016461636E+02  0.10566000000E+00 0. -1.
         23    2    1    0    0    0  0.31381969140E+02 -0.83962212955E+01 -0.17167469233E+02  0.88257020820E+02  0.80244969967E+02 0.  0.
         13    1    3    3    0    0  0.69797559416E+01  0.89528887885E+01  0.30175673676E+02  0.32240559184E+02  0.10566000000E+00 0.  1.
         22    1    1    0    0    0 -0.31381969140E+02  0.83962212955E+01  0.17167469233E+02  0.36742979180E+02  0.00000000000E+00 0. -1.
</event>
<event>
 5    1  0.3125560E-003  0.9118800E+02  0.7818608E-02  0.1130116E+00
         25   -1    0    0    0    0  0.00000000000E+00  0.00000000000E+00  0.99999998245E-14  0.12500000000E+03  0.12500000000E+03 0.  0.
        -13    1    3    3    0    0  0.35412709938E+02  0.22399565609E+02  0.45089042491E+02  0.61553500968E+02  0.10566000000E+00 0.  1.
         23    2    1    0    0    0  0.20912569650E+02  0.41418912476E+01  0.21873279247E+02  0.94456077897E+02  0.89381315017E+02 0.  0.
         13    1    3    3    0    0 -0.14500140288E+02 -0.18257674362E+02 -0.23215763245E+02  0.32902576928E+02  0.10566000000E+00 0. -1.
         22    1    1    0    0    0 -0.20912569650E+02 -0.41418912476E+01 -0.21873279247E+02  0.30543922103E+02  0.00000000000E+00 0.  1.
</event>
<event>
 5    1  0.3125560E-003  0.9118800E+02  0.7818608E-02  0.1130116E+00
         25   -1    0    0    0    0  0.00000000000E+00  0.00000000000E+00  0.99999998245E-14  0.12500000000E+03  0.12500000000E+03 0.  0.
        -13    1    3    3    0    0  0.50608104719E+02  0.35298893402E+02 -0.88287689363E+01  0.62330975154E+02  0.10566000000E+00 0.  1.
         23    2    1    0    0    0  0.24649723762E+02  0.13909694260E+02 -0.58512245811E+01  0.96098005172E+02  0.91648793189E+02 0.  0.
         13    1    3    3    0    0 -0.25958380957E+02 -0.21389199142E+02  0.29775443553E+01  0.33767030019E+02  0.10566000000E+00 0. -1.
         22    1    1    0    0    0 -0.24649723762E+02 -0.13909694260E+02  0.58512245811E+01  0.28901994828E+02  0.00000000000E+00 0.  1.
</event>
<event>
 5    1  0.3125560E-003  0.9118800E+02  0.7818608E-02  0.1130116E+00
         25   -1    0    0    0    0  0.00000000000E+00  0.00000000000E+00  0.99999998245E-14  0.12500000000E+03  0.12500000000E+03 0.  0.
        -13    1    3    3    0    0 -0.36645183486E+02  0.41669699391E+02 -0.17791625053E+02  0.58273376477E+02  0.10566000000E+00 0.  1.
         23    2    1    0    0    0 -0.24440705437E+01  0.25080978717E+02 -0.13172750415E+02  0.96564980610E+02  0.92283504227E+02 0.  0.
         13    1    3    3    0    0  0.34201112942E+02 -0.16588720673E+02  0.46188746381E+01  0.38291604132E+02  0.10566000000E+00 0. -1.
         22    1    1    0    0    0  0.24440705437E+01 -0.25080978717E+02  0.13172750415E+02  0.28435019390E+02  0.00000000000E+00 0.  1.
</event>
<event>
 5    1  0.3125560E-003  0.9118800E+02  0.7818608E-02  0.1130116E+00
         25   -1    0    0    0    0  0.00000000000E+00  0.00000000000E+00  0.99999998245E-14  0.12500000000E+03  0.12500000000E+03 0.  0.
        -13    1    3    3    0    0 -0.42473028893E+02 -0.42291250795E+02 -0.31995355624E+01  0.60022964513E+02  0.10566000000E+00 0.  1.
         23    2    1    0    0    0 -0.32089798681E+02 -0.14898994689E+02  0.93585610756E+00  0.89607754398E+02  0.82322163476E+02 0.  0.
         13    1    3    3    0    0  0.10383230212E+02  0.27392256106E+02  0.41353916700E+01  0.29584789884E+02  0.10566000000E+00 0. -1.
         22    1    1    0    0    0  0.32089798681E+02  0.14898994689E+02 -0.93585610756E+00  0.35392245602E+02  0.00000000000E+00 0.  1.
</event>
<event>
 5    1  0.3125560E-003  0.9118800E+02  0.7818608E-02  0.1130116E+00
         25   -1    0    0    0    0  0.00000000000E+00  0.00000000000E+00  0.99999998245E-14  0.12500000000E+03  0.12500000000E+03 0.  0.
        -13    1    3    3    0    0 -0.41818632714E+02  0.57196420440E+01 -0.46010561110E+02  0.62437931139E+02  0.10566000000E+00 0. -1.
         23    2    1    0    0    0 -0.18807066691E+02  0.20745283822E+01 -0.23436476782E+02  0.94878946408E+02  0.89970754148E+02 0.  0.
         13    1    3    3    0    0  0.23011566023E+02 -0.36451136618E+01  0.22574084327E+02  0.32441015270E+02  0.10566000000E+00 0.  1.
         22    1    1    0    0    0  0.18807066691E+02 -0.20745283822E+01  0.23436476782E+02  0.30121053592E+02  0.00000000000E+00 0. -1.
</event>
<event>
 5    1  0.3125560E-003  0.9118800E+02  0.7818608E-02  0.1130116E+00
         25   -1    0    0    0    0  0.00000000000E+00  0.00000000000E+00  0.99999998245E-14  0.12500000000E+03  0.12500000000E+03 0.  0.
        -13    1    3    3    0    0 -0.41193473238E+02 -0.25718395093E+02  0.15033781769E+02  0.50836638775E+02  0.10566000000E+00 0.  1.
         23    2    1    0    0    0 -0.45695890823E+01 -0.28247239383E+01  0.28437575429E+02  0.96059441851E+02  0.91596181486E+02 0.  0.
         13    1    3    3    0    0  0.36623884156E+02  0.22893671155E+02  0.13403793659E+02  0.45222803077E+02  0.10566000000E+00 0. -1.
         22    1    1    0    0    0  0.45695890823E+01  0.28247239383E+01 -0.28437575429E+02  0.28940558149E+02  0.00000000000E+00 0.  1.
</event>
<event>
 5    1  0.3125560E-003  0.9118800E+02  0.7818608E-02  0.1130116E+00
         25   -1    0    0    0    0  0.00000000000E+00  0.00000000000E+00  0.99999998245E-14  0.12500000000E+03  0.12500000000E+03 0.  0.
        -13    1    3    3    0    0 -0.41174127606E+02  0.21033469997E+02  0.37222947245E+02  0.59357178250E+02  0.10566000000E+00 0. -1.
         23    2    1    0    0    0 -0.11944838488E+02  0.26175589464E+01  0.26959779392E+02  0.95396613602E+02  0.90687118162E+02 0.  0.
         13    1    3    3    0    0  0.29229289117E+02 -0.18415911050E+02 -0.10263167853E+02  0.36039435352E+02  0.10566000000E+00 0.  1.
         22    1    1    0    0    0  0.11944838488E+02 -0.26175589464E+01 -0.26959779392E+02  0.29603386398E+02  0.00000000000E+00 0. -1.
</event>
<event>
 5    1  0.3125560E-003  0.9118800E+02  0.7818608E-02  0.1130116E+00
         25   -1    0    0    0    0  0.00000000000E+00  0.00000000000E+00  0.99999998245E-14  0.12500000000E+03  0.12500000000E+03 0.  0.
        -13    1    3    3    0    0  0.17612745938E+02  0.23515280162E+02 -0.17087843450E+02  0.33987979910E+02  0.10566000000E+00 0. -1.
         23    2    1    0    0    0  0.21236619164E+02 -0.22610164524E+02  0.15247987223E+02  0.90435355526E+02  0.83569365688E+02 0.  0.
         13    1    3    3    0    0  0.36238732261E+01 -0.46125444685E+02  0.32335830673E+02  0.56447375616E+02  0.10566000000E+00 0.  1.
         22    1    1    0    0    0 -0.21236619164E+02  0.22610164524E+02 -0.15247987223E+02  0.34564644474E+02  0.00000000000E+00 0.  1.
</event>
<event>
 5    1  0.3125560E-003  0.9118800E+02  0.7818608E-02  0.1130116E+00
         25   -1    0    0    0    0  0.00000000000E+00  0.00000000000E+00  0.99999998245E-14  0.12500000000E+03  0.12500000000E+03 0.  0.
        -13    1    3    3    0    0  0.15584019294E+02 -0.18176922890E+02 -0.34845903772E+02  0.42278958796E+02  0.10566000000E+00 0.  1.
         23    2    1    0    0    0 -0.33038359618E+01  0.26384617799E+02 -0.11176590400E+02  0.96155944089E+02  0.91727782172E+02 0.  0.
         13    1    3    3    0    0 -0.18887855256E+02  0.44561540689E+02  0.23669313372E+02  0.53876985293E+02  0.10566000000E+00 0. -1.
         22    1    1    0    0    0  0.33038359618E+01 -0.26384617799E+02  0.11176590400E+02  0.28844055911E+02  0.00000000000E+00 0. -1.
</event>
<event>
 5    1  0.3125560E-003  0.9118800E+02  0.7818608E-02  0.1130116E+00
         25   -1    0    0    0    0  0.00000000000E+00  0.00000000000E+00  0.99999998245E-14  0.12500000000E+03  0.12500000000E+03 0.  0.
        -13    1    3    3    0    0 -0.18939095160E+02 -0.66954067346E+00 -0.28920257547E+02  0.34576438088E+02  0.10566000000E+00 0.  1.
         23    2    1    0    0    0  0.33596979556E+01  0.85670870382E+01  0.27531343911E+02  0.95971437372E+02  0.91476004193E+02 0.  0.
         13    1    3    3    0    0  0.22298793116E+02  0.92366277117E+01  0.56451601458E+02  0.61394999285E+02  0.10566000000E+00 0. -1.
         22    1    1    0    0    0 -0.33596979556E+01 -0.85670870382E+01 -0.27531343911E+02  0.29028562628E+02  0.00000000000E+00 0. -1.
</event>
<event>
 5    1  0.3125560E-003  0.9118800E+02  0.7818608E-02  0.1130116E+00
         25   -1    0    0    0    0  0.00000000000E+00  0.00000000000E+00  0.99999998245E-14  0.12500000000E+03  0.12500000000E+03 0.  0.
        -13    1    3    3    0    0  0.47915709508E+00  0.40250909183E+02 -0.44512452508E+02  0.60014455541E+02  0.10566000000E+00 0.  1.
         23    2    1    0    0    0  0.91860832218E+00  0.27682671191E+02 -0.12112848938E+02  0.94769299795E+02  0.89818288498E+02 0.  0.
         13    1    3    3    0    0  0.43945122710E+00 -0.12568237992E+02  0.32399603569E+02  0.34754844254E+02  0.10566000000E+00 0. -1.
         22    1    1    0    0    0 -0.91860832218E+00 -0.27682671191E+02  0.12112848938E+02  0.30230700205E+02  0.00000000000E+00 0.  1.
</event>
<event>
 5    1  0.3125560E-003  0.9118800E+02  0.7818608E-02  0.1130116E+00
         25   -1    0    0    0    0  0.00000000000E+00  0.00000000000E+00  0.99999998245E-14  0.12500000000E+03  0.12500000000E+03 0.  0.
        -13    1    3    3    0    0  0.26956288346E+02  0.97269807857E+01 -0.24789142888E+02  0.37891534751E+02  0.10566000000E+00 0.  1.
         23    2    1    0    0    0 -0.23401143465E+02 -0.13267046893E+02 -0.15285123519E+02  0.94060332101E+02  0.88826139312E+02 0.  0.
         13    1    3    3    0    0 -0.50357431811E+02 -0.22994027679E+02  0.95040193686E+01  0.56168797350E+02  0.10566000000E+00 0. -1.
         22    1    1    0    0    0  0.23401143465E+02  0.13267046893E+02  0.15285123519E+02  0.30939667899E+02  0.00000000000E+00 0. -1.
</event>
<event>
 5    1  0.3125560E-003  0.9118800E+02  0.7818608E-02  0.1130116E+00
         25   -1    0    0    0    0  0.00000000000E+00  0.00000000000E+00  0.99999998245E-14  0.12500000000E+03  0.12500000000E+03 0.  0.
        -13    1    3    3    0    0 -0.67566515450E+00 -0.16241381176E+02 -0.34893220278E+02  0.38493986171E+02  0.10566000000E+00 0. -1.
         23    2    1    0    0    0 -0.12364926556E+02 -0.24187015890E+02  0.17451106860E+02  0.92713094341E+02  0.86909571310E+02 0.  0.
         13    1    3    3    0    0 -0.11689261401E+02 -0.79456347141E+01  0.52344327138E+02  0.54219108170E+02  0.10566000000E+00 0.  1.
         22    1    1    0    0    0  0.12364926556E+02  0.24187015890E+02 -0.17451106860E+02  0.32286905659E+02  0.00000000000E+00 0.  1.
</event>
<event>
 4    1  0.3125560E-003  0.9118800E+02  0.7818608E-02  0.1130116E+00
         25   -1    0    0    0    0  0.00000000000E+00  0.00000000000E+00  0.99999998245E-14  0.12500000000E+03  0.12500000000E+03 0.  0.
        -13    1    1    0    0    0  0.75561772572E+01 -0.15370655462E+02  0.40931938607E+01  0.17610175016E+02  0.10566000000E+00 0. -1.
         13    1    1    0    0    0  0.31582941453E+02  0.96299407495E+01 -0.41441124384E+02  0.52986752155E+02  0.10566000000E+00 0.  1.
         22    1    1    0    0    0 -0.39139118711E+02  0.57407147125E+01  0.37347930523E+02  0.54403072829E+02  0.00000000000E+00 0.  1.
</event>
<event>
 5    1  0.3125560E-003  0.9118800E+02  0.7818608E-02  0.1130116E+00
         25   -1    0    0    0    0  0.00000000000E+00  0.00000000000E+00  0.99999998245E-14  0.12500000000E+03  0.12500000000E+03 0.  0.
        -13    1    3    3    0    0  0.42856296722E+02  0.10078181639E+02  0.26531213163E+02  0.51401832164E+02  0.10566000000E+00 0.  1.
         23    2    1    0    0    0  0.23398994340E+02  0.27495328166E+01 -0.14454177378E+02  0.97359520437E+02  0.93353522211E+02 0.  0.
         13    1    3    3    0    0 -0.19457302383E+02 -0.73286488224E+01 -0.40985390541E+02  0.45957688273E+02  0.10566000000E+00 0. -1.
         22    1    1    0    0    0 -0.23398994340E+02 -0.27495328166E+01  0.14454177378E+02  0.27640479563E+02  0.00000000000E+00 0. -1.
</event>
<event>
 5    1  0.3125560E-003  0.9118800E+02  0.7818608E-02  0.1130116E+00
         25   -1    0    0    0    0  0.00000000000E+00  0.00000000000E+00  0.99999998245E-14  0.12500000000E+03  0.12500000000E+03 0.  0.
        -13    1    3    3    0    0  0.13350029123E+02  0.19871607072E+02 -0.44918831104E+02  0.50900064803E+02  0.10566000000E+00 0.  1.
         23    2    1    0    0    0  0.25421583635E+02 -0.59096609834E+01 -0.76403243883E+01  0.97805229102E+02  0.93948428808E+02 0.  0.
         13    1    3    3    0    0  0.12071554512E+02 -0.25781268056E+02  0.37278506715E+02  0.46905164298E+02  0.10566000000E+00 0. -1.
         22    1    1    0    0    0 -0.25421583635E+02  0.59096609834E+01  0.76403243883E+01  0.27194770898E+02  0.00000000000E+00 0.  1.
</event>
<event>
 5    1  0.3125560E-003  0.9118800E+02  0.7818608E-02  0.1130116E+00
         25   -1    0    0    0    0  0.00000000000E+00  0.00000000000E+00  0.99999998245E-14  0.12500000000E+03  0.12500000000E+03 0.  0.
        -13    1    3    3    0    0 -0.80789097956E+01  0.45130989326E+02 -0.29620559455E+02  0.54584463792E+02  0.10566000000E+00 0.  1.
         23    2    1    0    0    0 -0.11013097273E+02  0.25769824829E+02  0.70021752902E+01  0.96113971508E+02  0.91670567124E+02 0.  0.
         13    1    3    3    0    0 -0.29341874775E+01 -0.19361164497E+02  0.36622734745E+02  0.41529507715E+02  0.10566000000E+00 0. -1.
         22    1    1    0    0    0  0.11013097273E+02 -0.25769824829E+02 -0.70021752902E+01  0.28886028492E+02  0.00000000000E+00 0.  1.
</event>
<event>
 5    1  0.3125560E-003  0.9118800E+02  0.7818608E-02  0.1130116E+00
         25   -1    0    0    0    0  0.00000000000E+00  0.00000000000E+00  0.99999998245E-14  0.12500000000E+03  0.12500000000E+03 0.  0.
        -13    1    3    3    0    0 -0.25532247030E+01  0.40239384682E+02 -0.19109956573E+01  0.40365704557E+02  0.10566000000E+00 0. -1.
         23    2    1    0    0    0  0.23526005957E+02 -0.33922485437E+01  0.18232699187E+02  0.95043170627E+02  0.90198628907E+02 0.  0.
         13    1    3    3    0    0  0.26079230660E+02 -0.43631633226E+02  0.20143694844E+02  0.54677466069E+02  0.10566000000E+00 0.  1.
         22    1    1    0    0    0 -0.23526005957E+02  0.33922485437E+01 -0.18232699187E+02  0.29956829373E+02  0.00000000000E+00 0.  1.
</event>
<event>
 5    1  0.3125560E-003  0.9118800E+02  0.7818608E-02  0.1130116E+00
         25   -1    0    0    0    0  0.00000000000E+00  0.00000000000E+00  0.99999998245E-14  0.12500000000E+03  0.12500000000E+03 0.  0.
        -13    1    3    3    0    0  0.36308364507E+02  0.28325011503E+02 -0.31904563506E+02  0.56022459303E+02  0.10566000000E+00 0. -1.
         23    2    1    0    0    0  0.18760063031E+02  0.22844180628E+02  0.28120335000E+01  0.95306497581E+02  0.90562820160E+02 0.  0.
         13    1    3    3    0    0 -0.17548301476E+02 -0.54808308750E+01  0.34716597006E+02  0.39284038278E+02  0.10566000000E+00 0.  1.
         22    1    1    0    0    0 -0.18760063031E+02 -0.22844180628E+02 -0.28120335000E+01  0.29693502419E+02  0.00000000000E+00 0. -1.
</event>
<event>
 5    1  0.3125560E-003  0.9118800E+02  0.7818608E-02  0.1130116E+00
         25   -1    0    0    0    0  0.00000000000E+00  0.00000000000E+00  0.99999998245E-14  0.12500000000E+03  0.12500000000E+03 0.  0.
        -13    1    3    3    0    0  0.27242182605E+02 -0.19618651289E+02 -0.26322549725E+02  0.42660470925E+02  0.10566000000E+00 0. -1.
         23    2    1    0    0    0 -0.22627552762E+02 -0.16588494865E+02 -0.95290659967E+01  0.95369147757E+02  0.90649252281E+02 0.  0.
         13    1    3    3    0    0 -0.49869735367E+02  0.30301564233E+01  0.16793483728E+02  0.52708676832E+02  0.10566000000E+00 0.  1.
         22    1    1    0    0    0  0.22627552762E+02  0.16588494865E+02  0.95290659967E+01  0.29630852243E+02  0.00000000000E+00 0. -1.
</event>
<event>
 5    1  0.3125560E-003  0.9118800E+02  0.7818608E-02  0.1130116E+00
         25   -1    0    0    0    0  0.00000000000E+00  0.00000000000E+00  0.99999998245E-14  0.12500000000E+03  0.12500000000E+03 0.  0.
        -13    1    3    3    0    0  0.11120264068E+02  0.43386230675E+02 -0.30028025330E+02  0.53923267282E+02  0.10566000000E+00 0. -1.
         23    2    1    0    0    0  0.25603581063E+02  0.92154075936E+01 -0.10783168618E+02  0.95729813362E+02  0.91145232133E+02 0.  0.
         13    1    3    3    0    0  0.14483316995E+02 -0.34170823081E+02  0.19244856712E+02  0.41806546080E+02  0.10566000000E+00 0.  1.
         22    1    1    0    0    0 -0.25603581063E+02 -0.92154075936E+01  0.10783168618E+02  0.29270186638E+02  0.00000000000E+00 0. -1.
</event>
<event>
 5    1  0.3125560E-003  0.9118800E+02  0.7818608E-02  0.1130116E+00
         25   -1    0    0    0    0  0.00000000000E+00  0.00000000000E+00  0.99999998245E-14  0.12500000000E+03  0.12500000000E+03 0.  0.
        -13    1    3    3    0    0  0.34032918460E+02  0.17103825322E+01  0.38567284056E+02  0.51464662738E+02  0.10566000000E+00 0. -1.
         23    2    1    0    0    0  0.65052066269E+01 -0.23991466084E+02  0.17285264494E+02  0.94723135454E+02  0.89754018648E+02 0.  0.
         13    1    3    3    0    0 -0.27527711833E+02 -0.25701848616E+02 -0.21282019562E+02  0.43258472716E+02  0.10566000000E+00 0.  1.
         22    1    1    0    0    0 -0.65052066269E+01  0.23991466084E+02 -0.17285264494E+02  0.30276864546E+02  0.00000000000E+00 0. -1.
</event>
<event>
 5    1  0.3125560E-003  0.9118800E+02  0.7818608E-02  0.1130116E+00
         25   -1    0    0    0    0  0.00000000000E+00  0.00000000000E+00  0.99999998245E-14  0.12500000000E+03  0.12500000000E+03 0.  0.
        -13    1    3    3    0    0 -0.30051405630E+02 -0.34004104175E+02 -0.41391216048E+02  0.61421576103E+02  0.10566000000E+00 0.  1.
         23    2    1    0    0    0 -0.69051222049E+01 -0.13706187012E+01 -0.12079614428E+02  0.11101871276E+03  0.11013481824E+03 0.  0.
         13    1    3    3    0    0  0.23146283425E+02  0.32633485474E+02  0.29311601620E+02  0.49597136652E+02  0.10566000000E+00 0. -1.
         22    1    1    0    0    0  0.69051222049E+01  0.13706187012E+01  0.12079614428E+02  0.13981287245E+02  0.00000000000E+00 0.  1.
</event>
<event>
 5    1  0.3125560E-003  0.9118800E+02  0.7818608E-02  0.1130116E+00
         25   -1    0    0    0    0  0.00000000000E+00  0.00000000000E+00  0.99999998245E-14  0.12500000000E+03  0.12500000000E+03 0.  0.
        -13    1    3    3    0    0  0.14989215513E+02 -0.35778549315E+02 -0.40105105909E+02  0.55796163459E+02  0.10566000000E+00 0.  1.
         23    2    1    0    0    0  0.27162220354E+01  0.13620078166E+01 -0.28133185618E+02  0.96703196992E+02  0.92470531782E+02 0.  0.
         13    1    3    3    0    0 -0.12272993478E+02  0.37140557132E+02  0.11971920290E+02  0.40907033533E+02  0.10566000000E+00 0. -1.
         22    1    1    0    0    0 -0.27162220354E+01 -0.13620078166E+01  0.28133185618E+02  0.28296803008E+02  0.00000000000E+00 0.  1.
</event>
<event>
 5    1  0.3125560E-003  0.9118800E+02  0.7818608E-02  0.1130116E+00
         25   -1    0    0    0    0  0.00000000000E+00  0.00000000000E+00  0.99999998245E-14  0.12500000000E+03  0.12500000000E+03 0.  0.
        -13    1    3    3    0    0 -0.40955205715E+02 -0.31313181541E+02 -0.19641712642E+02  0.55169305351E+02  0.10566000000E+00 0.  1.
         23    2    1    0    0    0 -0.66119492935E+01 -0.26304621975E+02  0.45809501692E+01  0.97492980620E+02  0.93532054158E+02 0.  0.
         13    1    3    3    0    0  0.34343256422E+02  0.50085595664E+01  0.24222662811E+02  0.42323675269E+02  0.10566000000E+00 0. -1.
         22    1    1    0    0    0  0.66119492935E+01  0.26304621975E+02 -0.45809501692E+01  0.27507019380E+02  0.00000000000E+00 0.  1.
</event>
<event>
 5    1  0.3125560E-003  0.9118800E+02  0.7818608E-02  0.1130116E+00
         25   -1    0    0    0    0  0.00000000000E+00  0.00000000000E+00  0.99999998245E-14  0.12500000000E+03  0.12500000000E+03 0.  0.
        -13    1    3    3    0    0  0.79791191061E+01  0.34245632570E+02 -0.91402887551E+00  0.35174938588E+02  0.10566000000E+00 0. -1.
         23    2    1    0    0    0  0.11273176292E+02 -0.24341819888E+02  0.12556307809E+02  0.95381263279E+02  0.90665957336E+02 0.  0.
         13    1    3    3    0    0  0.32940571863E+01 -0.58587452458E+02  0.13470336684E+02  0.60206324691E+02  0.10566000000E+00 0.  1.
         22    1    1    0    0    0 -0.11273176292E+02  0.24341819888E+02 -0.12556307809E+02  0.29618736721E+02  0.00000000000E+00 0.  1.
</event>
<event>
 5    1  0.3125560E-003  0.9118800E+02  0.7818608E-02  0.1130116E+00
         25   -1    0    0    0    0  0.00000000000E+00  0.00000000000E+00  0.99999998245E-14  0.12500000000E+03  0.12500000000E+03 0.  0.
        -13    1    3    3    0    0 -0.19241547595E+02  0.55375547978E+02 -0.83400302602E+01  0.59213644851E+02  0.10566000000E+00 0. -1.
         23    2    1    0    0    0 -0.63491769422E+01  0.28080537580E+02  0.99861890475E+01  0.94527838765E+02  0.89481616499E+02 0.  0.
         13    1    3    3    0    0  0.12892370652E+02 -0.27295010398E+02  0.18326219308E+02  0.35314193914E+02  0.10566000000E+00 0.  1.
         22    1    1    0    0    0  0.63491769422E+01 -0.28080537580E+02 -0.99861890475E+01  0.30472161235E+02  0.00000000000E+00 0. -1.
</event>
<event>
 5    1  0.3125560E-003  0.9118800E+02  0.7818608E-02  0.1130116E+00
         25   -1    0    0    0    0  0.00000000000E+00  0.00000000000E+00  0.99999998245E-14  0.12500000000E+03  0.12500000000E+03 0.  0.
        -13    1    3    3    0    0  0.11666297598E+02 -0.37933697664E+02 -0.41221174408E+01  0.39900763581E+02  0.10566000000E+00 0.  1.
         23    2    1    0    0    0 -0.77980169439E+00  0.11973311112E+02 -0.26436347912E+02  0.95968142316E+02  0.91471501458E+02 0.  0.
         13    1    3    3    0    0 -0.12446099292E+02  0.49907008776E+02 -0.22314230471E+02  0.56067378735E+02  0.10566000000E+00 0. -1.
         22    1    1    0    0    0  0.77980169439E+00 -0.11973311112E+02  0.26436347912E+02  0.29031857684E+02  0.00000000000E+00 0. -1.
</event>
<event>
 5    1  0.3125560E-003  0.9118800E+02  0.7818608E-02  0.1130116E+00
         25   -1    0    0    0    0  0.00000000000E+00  0.00000000000E+00  0.99999998245E-14  0.12500000000E+03  0.12500000000E+03 0.  0.
        -13    1    3    3    0    0  0.15802195136E+02  0.31506311107E+02 -0.40744169045E+02  0.53874441862E+02  0.10566000000E+00 0.  1.
         23    2    1    0    0    0  0.14045179076E+02 -0.76748801592E+01 -0.23138240098E+02  0.96865519454E+02  0.92689696642E+02 0.  0.
         13    1    3    3    0    0 -0.17570160605E+01 -0.39181191266E+02  0.17605928947E+02  0.42991077593E+02  0.10566000000E+00 0. -1.
         22    1    1    0    0    0 -0.14045179076E+02  0.76748801592E+01  0.23138240098E+02  0.28134480546E+02  0.00000000000E+00 0.  1.
</event>
<event>
 5    1  0.3125560E-003  0.9118800E+02  0.7818608E-02  0.1130116E+00
         25   -1    0    0    0    0  0.00000000000E+00  0.00000000000E+00  0.99999998245E-14  0.12500000000E+03  0.12500000000E+03 0.  0.
        -13    1    3    3    0    0  0.49309902228E+02 -0.19329835939E+02  0.25274124250E+02  0.58684764086E+02  0.10566000000E+00 0. -1.
         23    2    1    0    0    0  0.22474528741E+02  0.54924108366E+01  0.17329782399E+02  0.96093385240E+02  0.91642491836E+02 0.  0.
         13    1    3    3    0    0 -0.26835373487E+02  0.24822246775E+02 -0.79443418516E+01  0.37408621154E+02  0.10566000000E+00 0.  1.
         22    1    1    0    0    0 -0.22474528741E+02 -0.54924108366E+01 -0.17329782399E+02  0.28906614760E+02  0.00000000000E+00 0. -1.
</event>
<event>
 5    1  0.3125560E-003  0.9118800E+02  0.7818608E-02  0.1130116E+00
         25   -1    0    0    0    0  0.00000000000E+00  0.00000000000E+00  0.99999998245E-14  0.12500000000E+03  0.12500000000E+03 0.  0.
        -13    1    3    3    0    0  0.53173440901E+02  0.13910748088E+02  0.12541254561E+02  0.56375685890E+02  0.10566000000E+00 0. -1.
         23    2    1    0    0    0  0.22401522746E+02  0.34017221844E+01 -0.14013771495E+02  0.98358195882E+02  0.94681302116E+02 0.  0.
         13    1    3    3    0    0 -0.30771918155E+02 -0.10509025903E+02 -0.26555026055E+02  0.41982509992E+02  0.10566000000E+00 0.  1.
         22    1    1    0    0    0 -0.22401522746E+02 -0.34017221844E+01  0.14013771495E+02  0.26641804118E+02  0.00000000000E+00 0. -1.
</event>
<event>
 5    1  0.3125560E-003  0.9118800E+02  0.7818608E-02  0.1130116E+00
         25   -1    0    0    0    0  0.00000000000E+00  0.00000000000E+00  0.99999998245E-14  0.12500000000E+03  0.12500000000E+03 0.  0.
        -13    1    3    3    0    0  0.24376296667E+02  0.25562466564E+02  0.14497795412E+02  0.38181681104E+02  0.10566000000E+00 0. -1.
         23    2    1    0    0    0  0.24759229618E+02 -0.15031920907E+02 -0.18614250982E+02  0.90569367751E+02  0.83769576445E+02 0.  0.
         13    1    3    3    0    0  0.38293295059E+00 -0.40594387471E+02 -0.33112046395E+02  0.52387686647E+02  0.10566000000E+00 0.  1.
         22    1    1    0    0    0 -0.24759229618E+02  0.15031920907E+02  0.18614250982E+02  0.34430632249E+02  0.00000000000E+00 0.  1.
</event>
<event>
 5    1  0.3125560E-003  0.9118800E+02  0.7818608E-02  0.1130116E+00
         25   -1    0    0    0    0  0.00000000000E+00  0.00000000000E+00  0.99999998245E-14  0.12500000000E+03  0.12500000000E+03 0.  0.
        -13    1    3    3    0    0  0.14991283768E+02 -0.48904627829E+02 -0.93172309287E+01  0.51992529928E+02  0.10566000000E+00 0.  1.
         23    2    1    0    0    0  0.16190337035E+02 -0.75285269425E+01 -0.23265236337E+02  0.95672931393E+02  0.91067188649E+02 0.  0.
         13    1    3    3    0    0  0.11990532675E+01  0.41376100886E+02 -0.13948005408E+02  0.43680401466E+02  0.10566000000E+00 0. -1.
         22    1    1    0    0    0 -0.16190337035E+02  0.75285269425E+01  0.23265236337E+02  0.29327068607E+02  0.00000000000E+00 0.  1.
</event>
<event>
 5    1  0.3125560E-003  0.9118800E+02  0.7818608E-02  0.1130116E+00
         25   -1    0    0    0    0  0.00000000000E+00  0.00000000000E+00  0.99999998245E-14  0.12500000000E+03  0.12500000000E+03 0.  0.
        -13    1    3    3    0    0 -0.67548184464E+01 -0.12721198245E+02  0.16474855460E+02  0.21883520820E+02  0.10566000000E+00 0.  1.
         23    2    1    0    0    0  0.25172608375E+02  0.20976320166E+02 -0.24725588942E+02  0.83950993086E+02  0.73230787729E+02 0.  0.
         13    1    3    3    0    0  0.31927426822E+02  0.33697518411E+02 -0.41200444402E+02  0.62067472266E+02  0.10566000000E+00 0. -1.
         22    1    1    0    0    0 -0.25172608375E+02 -0.20976320166E+02  0.24725588942E+02  0.41049006914E+02  0.00000000000E+00 0. -1.
</event>
<event>
 5    1  0.3125560E-003  0.9118800E+02  0.7818608E-02  0.1130116E+00
         25   -1    0    0    0    0  0.00000000000E+00  0.00000000000E+00  0.99999998245E-14  0.12500000000E+03  0.12500000000E+03 0.  0.
        -13    1    3    3    0    0  0.27084216735E+02  0.36615953941E+02  0.89175553045E+01  0.46409232226E+02  0.10566000000E+00 0.  1.
         23    2    1    0    0    0 -0.33086580616E+01  0.20650304579E+02 -0.23440232092E+02  0.93586200836E+02  0.88156396303E+02 0.  0.
         13    1    3    3    0    0 -0.30392874797E+02 -0.15965649363E+02 -0.32357787397E+02  0.47176968610E+02  0.10566000000E+00 0. -1.
         22    1    1    0    0    0  0.33086580616E+01 -0.20650304579E+02  0.23440232092E+02  0.31413799164E+02  0.00000000000E+00 0.  1.
</event>
<event>
 5    1  0.3125560E-003  0.9118800E+02  0.7818608E-02  0.1130116E+00
         25   -1    0    0    0    0  0.00000000000E+00  0.00000000000E+00  0.99999998245E-14  0.12500000000E+03  0.12500000000E+03 0.  0.
        -13    1    3    3    0    0 -0.32676814821E+02  0.28384749322E+02  0.32585206115E+02  0.54178178656E+02  0.10566000000E+00 0.  1.
         23    2    1    0    0    0 -0.12699211947E+02  0.25533234698E+02 -0.42392357812E+01  0.96169683001E+02  0.91746502660E+02 0.  0.
         13    1    3    3    0    0  0.19977602874E+02 -0.28515146236E+01 -0.36824441896E+02  0.41991504346E+02  0.10566000000E+00 0. -1.
         22    1    1    0    0    0  0.12699211947E+02 -0.25533234698E+02  0.42392357812E+01  0.28830316999E+02  0.00000000000E+00 0. -1.
</event>
<event>
 5    1  0.3125560E-003  0.9118800E+02  0.7818608E-02  0.1130116E+00
         25   -1    0    0    0    0  0.00000000000E+00  0.00000000000E+00  0.99999998245E-14  0.12500000000E+03  0.12500000000E+03 0.  0.
        -13    1    3    3    0    0 -0.24863663324E+02  0.23353933638E+02 -0.18830927456E+02  0.38964380697E+02  0.10566000000E+00 0. -1.
         23    2    1    0    0    0  0.23628598811E+02  0.13568452045E+02  0.97067403289E+01  0.96075367237E+02  0.91617912054E+02 0.  0.
         13    1    3    3    0    0  0.48492262135E+02 -0.97854815922E+01  0.28537667785E+02  0.57110986540E+02  0.10566000000E+00 0.  1.
         22    1    1    0    0    0 -0.23628598811E+02 -0.13568452045E+02 -0.97067403289E+01  0.28924632763E+02  0.00000000000E+00 0.  1.
</event>
<event>
 5    1  0.3125560E-003  0.9118800E+02  0.7818608E-02  0.1130116E+00
         25   -1    0    0    0    0  0.00000000000E+00  0.00000000000E+00  0.99999998245E-14  0.12500000000E+03  0.12500000000E+03 0.  0.
        -13    1    3    3    0    0  0.40215912740E+02 -0.11379252514E+02  0.17207875175E+02  0.45198773848E+02  0.10566000000E+00 0. -1.
         23    2    1    0    0    0  0.70748158495E+01  0.24533028810E+02  0.17462248481E+02  0.94066965168E+02  0.88835473162E+02 0.  0.
         13    1    3    3    0    0 -0.33141096891E+02  0.35912281324E+02  0.25437330625E+00  0.48868191320E+02  0.10566000000E+00 0.  1.
         22    1    1    0    0    0 -0.70748158495E+01 -0.24533028810E+02 -0.17462248481E+02  0.30933034832E+02  0.00000000000E+00 0.  1.
</event>
<event>
 5    1  0.3125560E-003  0.9118800E+02  0.7818608E-02  0.1130116E+00
         25   -1    0    0    0    0  0.00000000000E+00  0.00000000000E+00  0.99999998245E-14  0.12500000000E+03  0.12500000000E+03 0.  0.
        -13    1    3    3    0    0  0.28279711097E+02 -0.18759397869E+02  0.63654899310E+01  0.34528071105E+02  0.10566000000E+00 0. -1.
         23    2    1    0    0    0 -0.27976860552E+02  0.78195035178E+00 -0.81967769216E+01  0.95836609857E+02  0.91291579373E+02 0.  0.
         13    1    3    3    0    0 -0.56256571649E+02  0.19541348220E+02 -0.14562266853E+02  0.61308538752E+02  0.10566000000E+00 0.  1.
         22    1    1    0    0    0  0.27976860552E+02 -0.78195035178E+00  0.81967769216E+01  0.29163390143E+02  0.00000000000E+00 0.  1.
</event>
<event>
 5    1  0.3125560E-003  0.9118800E+02  0.7818608E-02  0.1130116E+00
         25   -1    0    0    0    0  0.00000000000E+00  0.00000000000E+00  0.99999998245E-14  0.12500000000E+03  0.12500000000E+03 0.  0.
        -13    1    3    3    0    0  0.53541865790E+01  0.38440441826E+01  0.61146109121E+02  0.61500421253E+02  0.10566000000E+00 0.  1.
         23    2    1    0    0    0  0.10102991694E+02  0.31654113565E+01  0.26726014007E+02  0.96253346369E+02  0.91860419073E+02 0.  0.
         13    1    3    3    0    0  0.47488051152E+01 -0.67863282610E+00 -0.34420095113E+02  0.34752925117E+02  0.10566000000E+00 0. -1.
         22    1    1    0    0    0 -0.10102991694E+02 -0.31654113565E+01 -0.26726014007E+02  0.28746653631E+02  0.00000000000E+00 0.  1.
</event>
<event>
 5    1  0.3125560E-003  0.9118800E+02  0.7818608E-02  0.1130116E+00
         25   -1    0    0    0    0  0.00000000000E+00  0.00000000000E+00  0.99999998245E-14  0.12500000000E+03  0.12500000000E+03 0.  0.
        -13    1    3    3    0    0 -0.16671608415E+02 -0.43702742383E+02 -0.20993041447E+02  0.51269788104E+02  0.10566000000E+00 0.  1.
         23    2    1    0    0    0 -0.13536774422E+02 -0.17727661278E+02  0.16687709211E+02  0.97143333386E+02  0.93063598397E+02 0.  0.
         13    1    3    3    0    0  0.31348339935E+01  0.25975081105E+02  0.37680750658E+02  0.45873545282E+02  0.10566000000E+00 0. -1.
         22    1    1    0    0    0  0.13536774422E+02  0.17727661278E+02 -0.16687709211E+02  0.27856666614E+02  0.00000000000E+00 0.  1.
</event>
<event>
 5    1  0.3125560E-003  0.9118800E+02  0.7818608E-02  0.1130116E+00
         25   -1    0    0    0    0  0.00000000000E+00  0.00000000000E+00  0.99999998245E-14  0.12500000000E+03  0.12500000000E+03 0.  0.
        -13    1    3    3    0    0  0.12695891902E+01  0.66024471189E+01  0.57319757767E+02  0.57712823178E+02  0.10566000000E+00 0.  1.
         23    2    1    0    0    0  0.15355492421E+02  0.11066685853E+02  0.22127731496E+02  0.95881291505E+02  0.91352738746E+02 0.  0.
         13    1    3    3    0    0  0.14085903230E+02  0.44642387341E+01 -0.35192026272E+02  0.38168468327E+02  0.10566000000E+00 0. -1.
         22    1    1    0    0    0 -0.15355492421E+02 -0.11066685853E+02 -0.22127731496E+02  0.29118708495E+02  0.00000000000E+00 0.  1.
</event>
<event>
 5    1  0.3125560E-003  0.9118800E+02  0.7818608E-02  0.1130116E+00
         25   -1    0    0    0    0  0.00000000000E+00  0.00000000000E+00  0.99999998245E-14  0.12500000000E+03  0.12500000000E+03 0.  0.
        -13    1    3    3    0    0  0.23628227035E+02 -0.17920779654E+02  0.19956753717E+02  0.35745358289E+02  0.10566000000E+00 0. -1.
         23    2    1    0    0    0  0.33158109231E+01  0.31505522859E+01 -0.30544614355E+02  0.94114824787E+02  0.88902790715E+02 0.  0.
         13    1    3    3    0    0 -0.20312416112E+02  0.21071331940E+02 -0.50501368073E+02  0.58369466498E+02  0.10566000000E+00 0.  1.
         22    1    1    0    0    0 -0.33158109231E+01 -0.31505522859E+01  0.30544614355E+02  0.30885175213E+02  0.00000000000E+00 0.  1.
</event>
<event>
 5    1  0.3125560E-003  0.9118800E+02  0.7818608E-02  0.1130116E+00
         25   -1    0    0    0    0  0.00000000000E+00  0.00000000000E+00  0.99999998245E-14  0.12500000000E+03  0.12500000000E+03 0.  0.
        -13    1    3    3    0    0  0.11818993004E+02  0.35903695024E+02 -0.12562354217E+02  0.39831994922E+02  0.10566000000E+00 0. -1.
         23    2    1    0    0    0 -0.21014986698E+02 -0.72229475491E+01 -0.20685651076E+02  0.94640540228E+02  0.89638914858E+02 0.  0.
         13    1    3    3    0    0 -0.32833979702E+02 -0.43126642573E+02 -0.81232968585E+01  0.54808545306E+02  0.10566000000E+00 0.  1.
         22    1    1    0    0    0  0.21014986698E+02  0.72229475491E+01  0.20685651076E+02  0.30359459772E+02  0.00000000000E+00 0.  1.
</event>
<event>
 5    1  0.3125560E-003  0.9118800E+02  0.7818608E-02  0.1130116E+00
         25   -1    0    0    0    0  0.00000000000E+00  0.00000000000E+00  0.99999998245E-14  0.12500000000E+03  0.12500000000E+03 0.  0.
        -13    1    3    3    0    0  0.47547378471E+02 -0.19862821414E+02  0.34425635107E+02  0.61971125458E+02  0.10566000000E+00 0.  1.
         23    2    1    0    0    0  0.25323568632E+02 -0.11143417954E+02  0.11603021688E+02  0.94998516633E+02  0.90136724803E+02 0.  0.
         13    1    3    3    0    0 -0.22223809840E+02  0.87194034603E+01 -0.22822613419E+02  0.33027391175E+02  0.10566000000E+00 0. -1.
         22    1    1    0    0    0 -0.25323568632E+02  0.11143417954E+02 -0.11603021688E+02  0.30001483367E+02  0.00000000000E+00 0.  1.
</event>
<event>
 5    1  0.3125560E-003  0.9118800E+02  0.7818608E-02  0.1130116E+00
         25   -1    0    0    0    0  0.00000000000E+00  0.00000000000E+00  0.99999998245E-14  0.12500000000E+03  0.12500000000E+03 0.  0.
        -13    1    3    3    0    0 -0.64947991052E+01  0.13933032909E+02  0.34944924803E+02  0.38176835319E+02  0.10566000000E+00 0. -1.
         23    2    1    0    0    0  0.19742636445E+02 -0.20931333247E+02 -0.30903758521E+01  0.96061395538E+02  0.91598847615E+02 0.  0.
         13    1    3    3    0    0  0.26237435550E+02 -0.34864366156E+02 -0.38035300655E+02  0.57884560219E+02  0.10566000000E+00 0.  1.
         22    1    1    0    0    0 -0.19742636445E+02  0.20931333247E+02  0.30903758521E+01  0.28938604462E+02  0.00000000000E+00 0.  1.
</event>
<event>
 5    1  0.3125560E-003  0.9118800E+02  0.7818608E-02  0.1130116E+00
         25   -1    0    0    0    0  0.00000000000E+00  0.00000000000E+00  0.99999998245E-14  0.12500000000E+03  0.12500000000E+03 0.  0.
        -13    1    3    3    0    0  0.41162771324E+02 -0.23433550959E+02 -0.17564478733E+02  0.50517592290E+02  0.10566000000E+00 0.  1.
         23    2    1    0    0    0  0.27796087921E+02  0.30637978838E+01  0.13900966314E+02  0.93771067491E+02  0.88418136560E+02 0.  0.
         13    1    3    3    0    0 -0.13366683403E+02  0.26497348843E+02  0.31465445047E+02  0.43253475200E+02  0.10566000000E+00 0. -1.
         22    1    1    0    0    0 -0.27796087921E+02 -0.30637978838E+01 -0.13900966314E+02  0.31228932509E+02  0.00000000000E+00 0.  1.
</event>
<event>
 5    1  0.3125560E-003  0.9118800E+02  0.7818608E-02  0.1130116E+00
         25   -1    0    0    0    0  0.00000000000E+00  0.00000000000E+00  0.99999998245E-14  0.12500000000E+03  0.12500000000E+03 0.  0.
        -13    1    3    3    0    0  0.24969323052E+02 -0.21343593986E+02 -0.34210593433E+02  0.47427755218E+02  0.10566000000E+00 0. -1.
         23    2    1    0    0    0  0.14846171305E+02  0.21186440408E+02 -0.13865209277E+02  0.95648371632E+02  0.91033471361E+02 0.  0.
         13    1    3    3    0    0 -0.10123151747E+02  0.42530034394E+02  0.20345384156E+02  0.48220616414E+02  0.10566000000E+00 0.  1.
         22    1    1    0    0    0 -0.14846171305E+02 -0.21186440408E+02  0.13865209277E+02  0.29351628368E+02  0.00000000000E+00 0. -1.
</event>
<event>
 5    1  0.3125560E-003  0.9118800E+02  0.7818608E-02  0.1130116E+00
         25   -1    0    0    0    0  0.00000000000E+00  0.00000000000E+00  0.99999998245E-14  0.12500000000E+03  0.12500000000E+03 0.  0.
        -13    1    3    3    0    0 -0.42428405904E+02 -0.42167482432E+02 -0.97375497845E+01  0.60606082550E+02  0.10566000000E+00 0.  1.
         23    2    1    0    0    0 -0.12122469187E+02 -0.27031188566E+02 -0.23208976811E+01  0.95284246930E+02  0.90532103325E+02 0.  0.
         13    1    3    3    0    0  0.30305936717E+02  0.15136293866E+02  0.74166521034E+01  0.34678164380E+02  0.10566000000E+00 0. -1.
         22    1    1    0    0    0  0.12122469187E+02  0.27031188566E+02  0.23208976811E+01  0.29715753070E+02  0.00000000000E+00 0.  1.
</event>
<event>
 5    1  0.3125560E-003  0.9118800E+02  0.7818608E-02  0.1130116E+00
         25   -1    0    0    0    0  0.00000000000E+00  0.00000000000E+00  0.99999998245E-14  0.12500000000E+03  0.12500000000E+03 0.  0.
        -13    1    3    3    0    0  0.21802919780E+02  0.15856694403E+02  0.44304963742E+02  0.51862732714E+02  0.10566000000E+00 0. -1.
         23    2    1    0    0    0  0.69359353883E+01  0.28120619756E+02  0.50417184456E+01  0.95601098999E+02  0.90968537142E+02 0.  0.
         13    1    3    3    0    0 -0.14866984392E+02  0.12263925354E+02 -0.39263245297E+02  0.43738366285E+02  0.10566000000E+00 0.  1.
         22    1    1    0    0    0 -0.69359353883E+01 -0.28120619756E+02 -0.50417184456E+01  0.29398901001E+02  0.00000000000E+00 0.  1.
</event>
<event>
 5    1  0.3125560E-003  0.9118800E+02  0.7818608E-02  0.1130116E+00
         25   -1    0    0    0    0  0.00000000000E+00  0.00000000000E+00  0.99999998245E-14  0.12500000000E+03  0.12500000000E+03 0.  0.
        -13    1    3    3    0    0 -0.53924132286E+01 -0.11791245906E+02 -0.35063566698E+02  0.37384174112E+02  0.10566000000E+00 0.  1.
         23    2    1    0    0    0  0.52933578266E+00  0.30493846951E+02  0.26952028704E+01  0.94382700695E+02  0.89278637836E+02 0.  0.
         13    1    3    3    0    0  0.59217490112E+01  0.42285092857E+02  0.37758769568E+02  0.56998526583E+02  0.10566000000E+00 0. -1.
         22    1    1    0    0    0 -0.52933578266E+00 -0.30493846951E+02 -0.26952028704E+01  0.30617299305E+02  0.00000000000E+00 0. -1.
</event>
<event>
 5    1  0.3125560E-003  0.9118800E+02  0.7818608E-02  0.1130116E+00
         25   -1    0    0    0    0  0.00000000000E+00  0.00000000000E+00  0.99999998245E-14  0.12500000000E+03  0.12500000000E+03 0.  0.
        -13    1    3    3    0    0  0.13455518416E+02  0.31029371481E+01 -0.52811880072E+02  0.54587407299E+02  0.10566000000E+00 0.  1.
         23    2    1    0    0    0 -0.15984173884E+02 -0.12610906766E+01 -0.24865173701E+02  0.95413499233E+02  0.90710389749E+02 0.  0.
         13    1    3    3    0    0 -0.29439692300E+02 -0.43640278247E+01  0.27946706372E+02  0.40826091935E+02  0.10566000000E+00 0. -1.
         22    1    1    0    0    0  0.15984173884E+02  0.12610906766E+01  0.24865173701E+02  0.29586500767E+02  0.00000000000E+00 0.  1.
</event>
<event>
 5    1  0.3125560E-003  0.9118800E+02  0.7818608E-02  0.1130116E+00
         25   -1    0    0    0    0  0.00000000000E+00  0.00000000000E+00  0.99999998245E-14  0.12500000000E+03  0.12500000000E+03 0.  0.
        -13    1    3    3    0    0  0.31098217447E+02  0.28570501654E+02 -0.43852850935E+02  0.60880673389E+02  0.10566000000E+00 0.  1.
         23    2    1    0    0    0  0.47246759727E+01  0.17122810210E+02 -0.20114783634E+02  0.98164990904E+02  0.94425884830E+02 0.  0.
         13    1    3    3    0    0 -0.26373541475E+02 -0.11447691444E+02  0.23738067301E+02  0.37284317515E+02  0.10566000000E+00 0. -1.
         22    1    1    0    0    0 -0.47246759727E+01 -0.17122810210E+02  0.20114783634E+02  0.26835009096E+02  0.00000000000E+00 0.  1.
</event>
<event>
 5    1  0.3125560E-003  0.9118800E+02  0.7818608E-02  0.1130116E+00
         25   -1    0    0    0    0  0.00000000000E+00  0.00000000000E+00  0.99999998245E-14  0.12500000000E+03  0.12500000000E+03 0.  0.
        -13    1    3    3    0    0 -0.28692617184E+02 -0.36372473352E+02 -0.10577801371E+02  0.47519723741E+02  0.10566000000E+00 0.  1.
         23    2    1    0    0    0  0.74722632238E+01 -0.22679640692E+02  0.17573388844E+02  0.95351647346E+02  0.90625117029E+02 0.  0.
         13    1    3    3    0    0  0.36164880408E+02  0.13692832659E+02  0.28151190216E+02  0.47831923605E+02  0.10566000000E+00 0. -1.
         22    1    1    0    0    0 -0.74722632238E+01  0.22679640692E+02 -0.17573388844E+02  0.29648352654E+02  0.00000000000E+00 0. -1.
</event>
<event>
 5    1  0.3125560E-003  0.9118800E+02  0.7818608E-02  0.1130116E+00
         25   -1    0    0    0    0  0.00000000000E+00  0.00000000000E+00  0.99999998245E-14  0.12500000000E+03  0.12500000000E+03 0.  0.
        -13    1    3    3    0    0 -0.15640541063E+02  0.34317264581E+02  0.16548410607E+02  0.41184490172E+02  0.10566000000E+00 0.  1.
         23    2    1    0    0    0 -0.14557414867E+02 -0.19978955857E+02  0.16110983127E+02  0.95493377319E+02  0.90820396000E+02 0.  0.
         13    1    3    3    0    0  0.10831261966E+01 -0.54296220438E+02 -0.43742747974E+00  0.54308887146E+02  0.10566000000E+00 0. -1.
         22    1    1    0    0    0  0.14557414867E+02  0.19978955857E+02 -0.16110983127E+02  0.29506622681E+02  0.00000000000E+00 0. -1.
</event>
<event>
 5    1  0.3125560E-003  0.9118800E+02  0.7818608E-02  0.1130116E+00
         25   -1    0    0    0    0  0.00000000000E+00  0.00000000000E+00  0.99999998245E-14  0.12500000000E+03  0.12500000000E+03 0.  0.
        -13    1    3    3    0    0 -0.17683437871E+02 -0.41766601130E+02  0.23831852134E+01  0.45418538954E+02  0.10566000000E+00 0. -1.
         23    2    1    0    0    0 -0.18984721062E+02  0.34100348726E+01 -0.21151250721E+02  0.96374427889E+02  0.92025034487E+02 0.  0.
         13    1    3    3    0    0 -0.13012831906E+01  0.45176636003E+02 -0.23534435934E+02  0.50955888936E+02  0.10566000000E+00 0.  1.
         22    1    1    0    0    0  0.18984721062E+02 -0.34100348726E+01  0.21151250721E+02  0.28625572111E+02  0.00000000000E+00 0. -1.
</event>
<event>
 5    1  0.3125560E-003  0.9118800E+02  0.7818608E-02  0.1130116E+00
         25   -1    0    0    0    0  0.00000000000E+00  0.00000000000E+00  0.99999998245E-14  0.12500000000E+03  0.12500000000E+03 0.  0.
        -13    1    3    3    0    0  0.13086609198E+02  0.17030215017E+02  0.34257335621E+02  0.40433448674E+02  0.10566000000E+00 0.  1.
         23    2    1    0    0    0 -0.17039073477E+02 -0.21648576990E+02  0.68075275928E+01  0.96621604299E+02  0.92360170392E+02 0.  0.
         13    1    3    3    0    0 -0.30125682675E+02 -0.38678792006E+02 -0.27449808028E+02  0.56188155625E+02  0.10566000000E+00 0. -1.
         22    1    1    0    0    0  0.17039073477E+02  0.21648576990E+02 -0.68075275928E+01  0.28378395701E+02  0.00000000000E+00 0. -1.
</event>
<event>
 5    1  0.3125560E-003  0.9118800E+02  0.7818608E-02  0.1130116E+00
         25   -1    0    0    0    0  0.00000000000E+00  0.00000000000E+00  0.99999998245E-14  0.12500000000E+03  0.12500000000E+03 0.  0.
        -13    1    3    3    0    0 -0.28419643064E+02 -0.29658662303E+02 -0.16347355406E+02  0.44210400974E+02  0.10566000000E+00 0. -1.
         23    2    1    0    0    0  0.19264694508E+02 -0.36267990620E+01 -0.17748539357E+02  0.98555855559E+02  0.94941897441E+02 0.  0.
         13    1    3    3    0    0  0.47684337572E+02  0.26031863241E+02 -0.14011839510E+01  0.54345454585E+02  0.10566000000E+00 0.  1.
         22    1    1    0    0    0 -0.19264694508E+02  0.36267990620E+01  0.17748539357E+02  0.26444144441E+02  0.00000000000E+00 0.  1.
</event>
<event>
 5    1  0.3125560E-003  0.9118800E+02  0.7818608E-02  0.1130116E+00
         25   -1    0    0    0    0  0.00000000000E+00  0.00000000000E+00  0.99999998245E-14  0.12500000000E+03  0.12500000000E+03 0.  0.
        -13    1    3    3    0    0  0.23710395550E+02  0.30854291018E+02 -0.38707680758E+02  0.54885934856E+02  0.10566000000E+00 0.  1.
         23    2    1    0    0    0 -0.16160851008E+01  0.27766422770E+02 -0.56941014806E+01  0.96609706656E+02  0.92344066750E+02 0.  0.
         13    1    3    3    0    0 -0.25326480650E+02 -0.30878682481E+01  0.33013579278E+02  0.41723771800E+02  0.10566000000E+00 0. -1.
         22    1    1    0    0    0  0.16160851008E+01 -0.27766422770E+02  0.56941014806E+01  0.28390293344E+02  0.00000000000E+00 0. -1.
</event>
<event>
 5    1  0.3125560E-003  0.9118800E+02  0.7818608E-02  0.1130116E+00
         25   -1    0    0    0    0  0.00000000000E+00  0.00000000000E+00  0.99999998245E-14  0.12500000000E+03  0.12500000000E+03 0.  0.
        -13    1    3    3    0    0 -0.14200813349E+02 -0.33860954799E+02 -0.38701824551E+02  0.53348568371E+02  0.10566000000E+00 0.  1.
         23    2    1    0    0    0 -0.26950966970E+02 -0.80912587649E+01 -0.72908702757E+01  0.95931462397E+02  0.91421362925E+02 0.  0.
         13    1    3    3    0    0 -0.12750153621E+02  0.25769696034E+02  0.31410954275E+02  0.42582894025E+02  0.10566000000E+00 0. -1.
         22    1    1    0    0    0  0.26950966970E+02  0.80912587649E+01  0.72908702757E+01  0.29068537603E+02  0.00000000000E+00 0.  1.
</event>
<event>
 5    1  0.3125560E-003  0.9118800E+02  0.7818608E-02  0.1130116E+00
         25   -1    0    0    0    0  0.00000000000E+00  0.00000000000E+00  0.99999998245E-14  0.12500000000E+03  0.12500000000E+03 0.  0.
        -13    1    3    3    0    0 -0.65638421054E+01  0.25745746569E+02  0.23282032332E+02  0.35326925752E+02  0.10566000000E+00 0.  1.
         23    2    1    0    0    0 -0.75788943158E+01 -0.52909054182E+01 -0.28130483724E+02  0.95389909934E+02  0.90677877586E+02 0.  0.
         13    1    3    3    0    0 -0.10150522104E+01 -0.31036651987E+02 -0.51412516056E+02  0.60062984181E+02  0.10566000000E+00 0. -1.
         22    1    1    0    0    0  0.75788943158E+01  0.52909054182E+01  0.28130483724E+02  0.29610090066E+02  0.00000000000E+00 0. -1.
</event>
<event>
 5    1  0.3125560E-003  0.9118800E+02  0.7818608E-02  0.1130116E+00
         25   -1    0    0    0    0  0.00000000000E+00  0.00000000000E+00  0.99999998245E-14  0.12500000000E+03  0.12500000000E+03 0.  0.
        -13    1    3    3    0    0  0.66864229244E+01  0.44386382760E+01 -0.39976530215E+02  0.40774304327E+02  0.10566000000E+00 0.  1.
         23    2    1    0    0    0 -0.24020736869E+02  0.15529514252E+02  0.46005689265E+01  0.96028861827E+02  0.91554439852E+02 0.  0.
         13    1    3    3    0    0 -0.30707159793E+02  0.11090875976E+02  0.44577099142E+02  0.55254557499E+02  0.10566000000E+00 0. -1.
         22    1    1    0    0    0  0.24020736869E+02 -0.15529514252E+02 -0.46005689265E+01  0.28971138173E+02  0.00000000000E+00 0. -1.
</event>
<event>
 5    1  0.3125560E-003  0.9118800E+02  0.7818608E-02  0.1130116E+00
         25   -1    0    0    0    0  0.00000000000E+00  0.00000000000E+00  0.99999998245E-14  0.12500000000E+03  0.12500000000E+03 0.  0.
        -13    1    3    3    0    0  0.11721720258E+01  0.41293353254E+02 -0.33183114889E+02  0.52987218157E+02  0.10566000000E+00 0. -1.
         23    2    1    0    0    0 -0.14126194998E+02  0.26970312997E+02  0.25870362647E+01  0.94444477996E+02  0.89365091054E+02 0.  0.
         13    1    3    3    0    0 -0.15298367024E+02 -0.14323040257E+02  0.35770151153E+02  0.41457259839E+02  0.10566000000E+00 0.  1.
         22    1    1    0    0    0  0.14126194998E+02 -0.26970312997E+02 -0.25870362647E+01  0.30555522004E+02  0.00000000000E+00 0. -1.
</event>
<event>
 5    1  0.3125560E-003  0.9118800E+02  0.7818608E-02  0.1130116E+00
         25   -1    0    0    0    0  0.00000000000E+00  0.00000000000E+00  0.99999998245E-14  0.12500000000E+03  0.12500000000E+03 0.  0.
        -13    1    3    3    0    0 -0.32673929414E+02 -0.12546656400E+02  0.12398192207E+02  0.37131261549E+02  0.10566000000E+00 0.  1.
         23    2    1    0    0    0  0.15802455753E+01  0.22236649359E+02 -0.19446127717E+02  0.95417612774E+02  0.90716058080E+02 0.  0.
         13    1    3    3    0    0  0.34254174989E+02  0.34783305759E+02 -0.31844319924E+02  0.58286351225E+02  0.10566000000E+00 0. -1.
         22    1    1    0    0    0 -0.15802455753E+01 -0.22236649359E+02  0.19446127717E+02  0.29582387226E+02  0.00000000000E+00 0. -1.
</event>
<event>
 5    1  0.3125560E-003  0.9118800E+02  0.7818608E-02  0.1130116E+00
         25   -1    0    0    0    0  0.00000000000E+00  0.00000000000E+00  0.99999998245E-14  0.12500000000E+03  0.12500000000E+03 0.  0.
        -13    1    3    3    0    0 -0.32524426956E+02 -0.47461294369E+01 -0.45308719828E+02  0.55975488832E+02  0.10566000000E+00 0. -1.
         23    2    1    0    0    0 -0.80031565745E+01 -0.21108219810E+02 -0.18741425638E+02  0.95659780272E+02  0.91049135460E+02 0.  0.
         13    1    3    3    0    0  0.24521270381E+02 -0.16362090373E+02  0.26567294190E+02  0.39684291440E+02  0.10566000000E+00 0.  1.
         22    1    1    0    0    0  0.80031565745E+01  0.21108219810E+02  0.18741425638E+02  0.29340219728E+02  0.00000000000E+00 0.  1.
</event>
<event>
 5    1  0.3125560E-003  0.9118800E+02  0.7818608E-02  0.1130116E+00
         25   -1    0    0    0    0  0.00000000000E+00  0.00000000000E+00  0.99999998245E-14  0.12500000000E+03  0.12500000000E+03 0.  0.
        -13    1    3    3    0    0  0.36757616236E+02 -0.29205379894E+02  0.20001583402E+02  0.51030883480E+02  0.10566000000E+00 0.  1.
         23    2    1    0    0    0  0.35024597304E+02  0.12993328707E+01 -0.37782857887E+01  0.89748246487E+02  0.82535214434E+02 0.  0.
         13    1    3    3    0    0 -0.17330189320E+01  0.30504712764E+02 -0.23779869191E+02  0.38717363007E+02  0.10566000000E+00 0. -1.
         22    1    1    0    0    0 -0.35024597304E+02 -0.12993328707E+01  0.37782857887E+01  0.35251753513E+02  0.00000000000E+00 0.  1.
</event>
<event>
 5    1  0.3125560E-003  0.9118800E+02  0.7818608E-02  0.1130116E+00
         25   -1    0    0    0    0  0.00000000000E+00  0.00000000000E+00  0.99999998245E-14  0.12500000000E+03  0.12500000000E+03 0.  0.
        -13    1    3    3    0    0 -0.42012536530E+02 -0.31896616416E+02 -0.28280232545E+02  0.59851734155E+02  0.10566000000E+00 0. -1.
         23    2    1    0    0    0 -0.20106980169E+02 -0.19624004298E+02 -0.10608184270E+01  0.96883856382E+02  0.92714422262E+02 0.  0.
         13    1    3    3    0    0  0.21905556361E+02  0.12272612118E+02  0.27219414118E+02  0.37032122227E+02  0.10566000000E+00 0.  1.
         22    1    1    0    0    0  0.20106980169E+02  0.19624004298E+02  0.10608184270E+01  0.28116143618E+02  0.00000000000E+00 0. -1.
</event>
<event>
 5    1  0.3125560E-003  0.9118800E+02  0.7818608E-02  0.1130116E+00
         25   -1    0    0    0    0  0.00000000000E+00  0.00000000000E+00  0.99999998245E-14  0.12500000000E+03  0.12500000000E+03 0.  0.
        -13    1    3    3    0    0  0.97701066638E+01 -0.28141519701E+02  0.51091377869E+02  0.59141695714E+02  0.10566000000E+00 0. -1.
         23    2    1    0    0    0 -0.89184690058E+01 -0.11389141278E+02  0.95823964758E+01  0.10764851733E+03  0.10624090236E+03 0.  0.
         13    1    3    3    0    0 -0.18688575670E+02  0.16752378423E+02 -0.41508981393E+02  0.48506821621E+02  0.10566000000E+00 0.  1.
         22    1    1    0    0    0  0.89184690058E+01  0.11389141278E+02 -0.95823964758E+01  0.17351482665E+02  0.00000000000E+00 0. -1.
</event>
<event>
 5    1  0.3125560E-003  0.9118800E+02  0.7818608E-02  0.1130116E+00
         25   -1    0    0    0    0  0.00000000000E+00  0.00000000000E+00  0.99999998245E-14  0.12500000000E+03  0.12500000000E+03 0.  0.
        -13    1    3    3    0    0  0.58149804214E+01  0.35274720161E+02 -0.93484195060E+01  0.36952997051E+02  0.10566000000E+00 0.  1.
         23    2    1    0    0    0 -0.94810331705E+01 -0.12148827546E+02  0.23688936347E+02  0.96739608885E+02  0.92519739631E+02 0.  0.
         13    1    3    3    0    0 -0.15296013592E+02 -0.47423547707E+02  0.33037355853E+02  0.59786611835E+02  0.10566000000E+00 0. -1.
         22    1    1    0    0    0  0.94810331705E+01  0.12148827546E+02 -0.23688936347E+02  0.28260391115E+02  0.00000000000E+00 0. -1.
</event>
<event>
 5    1  0.3125560E-003  0.9118800E+02  0.7818608E-02  0.1130116E+00
         25   -1    0    0    0    0  0.00000000000E+00  0.00000000000E+00  0.99999998245E-14  0.12500000000E+03  0.12500000000E+03 0.  0.
        -13    1    3    3    0    0  0.24189137584E+02 -0.48508517161E+01 -0.37002958020E+02  0.44473308913E+02  0.10566000000E+00 0. -1.
         23    2    1    0    0    0 -0.22905550249E+02 -0.24942329725E+01 -0.19647227408E+02  0.94719660254E+02  0.89749178623E+02 0.  0.
         13    1    3    3    0    0 -0.47094687832E+02  0.23566187435E+01  0.17355730613E+02  0.50246351341E+02  0.10566000000E+00 0.  1.
         22    1    1    0    0    0  0.22905550249E+02  0.24942329725E+01  0.19647227408E+02  0.30280339746E+02  0.00000000000E+00 0.  1.
</event>
<event>
 5    1  0.3125560E-003  0.9118800E+02  0.7818608E-02  0.1130116E+00
         25   -1    0    0    0    0  0.00000000000E+00  0.00000000000E+00  0.99999998245E-14  0.12500000000E+03  0.12500000000E+03 0.  0.
        -13    1    3    3    0    0  0.58034189590E+01 -0.24397309229E+02 -0.25710398894E+02  0.35915792411E+02  0.10566000000E+00 0. -1.
         23    2    1    0    0    0 -0.37611813356E+01  0.29512794648E+02 -0.33399659881E+01  0.95061614844E+02  0.90224185843E+02 0.  0.
         13    1    3    3    0    0 -0.95646002946E+01  0.53910103877E+02  0.22370432906E+02  0.59145822432E+02  0.10566000000E+00 0.  1.
         22    1    1    0    0    0  0.37611813356E+01 -0.29512794648E+02  0.33399659881E+01  0.29938385156E+02  0.00000000000E+00 0.  1.
</event>
<event>
 5    1  0.3125560E-003  0.9118800E+02  0.7818608E-02  0.1130116E+00
         25   -1    0    0    0    0  0.00000000000E+00  0.00000000000E+00  0.99999998245E-14  0.12500000000E+03  0.12500000000E+03 0.  0.
        -13    1    3    3    0    0  0.12568404140E+01  0.97536845848E+01  0.54907564444E+02  0.55781410954E+02  0.10566000000E+00 0. -1.
         23    2    1    0    0    0  0.19519600906E+02 -0.10537672222E+01  0.17629648614E+02  0.98676441062E+02  0.95100527157E+02 0.  0.
         13    1    3    3    0    0  0.18262760492E+02 -0.10807451807E+02 -0.37277915829E+02  0.42895030108E+02  0.10566000000E+00 0.  1.
         22    1    1    0    0    0 -0.19519600906E+02  0.10537672222E+01 -0.17629648614E+02  0.26323558938E+02  0.00000000000E+00 0. -1.
</event>
<event>
 5    1  0.3125560E-003  0.9118800E+02  0.7818608E-02  0.1130116E+00
         25   -1    0    0    0    0  0.00000000000E+00  0.00000000000E+00  0.99999998245E-14  0.12500000000E+03  0.12500000000E+03 0.  0.
        -13    1    3    3    0    0 -0.31353143952E+02 -0.11363013622E+02 -0.34787636269E+01  0.33529847519E+02  0.10566000000E+00 0.  1.
         23    2    1    0    0    0 -0.29680561642E+01  0.22092222222E+02  0.29219526282E+02  0.88248723066E+02  0.80232043266E+02 0.  0.
         13    1    3    3    0    0  0.28385087788E+02  0.33455235844E+02  0.32698289909E+02  0.54718875547E+02  0.10566000000E+00 0. -1.
         22    1    1    0    0    0  0.29680561642E+01 -0.22092222222E+02 -0.29219526282E+02  0.36751276934E+02  0.00000000000E+00 0. -1.
</event>
<event>
 5    1  0.3125560E-003  0.9118800E+02  0.7818608E-02  0.1130116E+00
         25   -1    0    0    0    0  0.00000000000E+00  0.00000000000E+00  0.99999998245E-14  0.12500000000E+03  0.12500000000E+03 0.  0.
        -13    1    3    3    0    0 -0.37152175175E+02  0.32340333695E+01 -0.10800673364E+01  0.37308454827E+02  0.10566000000E+00 0. -1.
         23    2    1    0    0    0  0.13150653384E+02  0.19745583192E+02 -0.20444496328E+02  0.93682190847E+02  0.88292398946E+02 0.  0.
         13    1    3    3    0    0  0.50302828559E+02  0.16511549823E+02 -0.19364428992E+02  0.56373736020E+02  0.10566000000E+00 0.  1.
         22    1    1    0    0    0 -0.13150653384E+02 -0.19745583192E+02  0.20444496328E+02  0.31317809153E+02  0.00000000000E+00 0.  1.
</event>
<event>
 5    1  0.3125560E-003  0.9118800E+02  0.7818608E-02  0.1130116E+00
         25   -1    0    0    0    0  0.00000000000E+00  0.00000000000E+00  0.99999998245E-14  0.12500000000E+03  0.12500000000E+03 0.  0.
        -13    1    3    3    0    0 -0.18320054460E+02 -0.36971660014E+02 -0.44139675308E+02  0.60422265267E+02  0.10566000000E+00 0. -1.
         23    2    1    0    0    0 -0.11417556845E+01 -0.11253416167E+02 -0.26872774979E+02  0.95843713945E+02  0.91301306049E+02 0.  0.
         13    1    3    3    0    0  0.17178298776E+02  0.25718243848E+02  0.17266900329E+02  0.35421448678E+02  0.10566000000E+00 0.  1.
         22    1    1    0    0    0  0.11417556845E+01  0.11253416167E+02  0.26872774979E+02  0.29156286055E+02  0.00000000000E+00 0. -1.
</event>
<event>
 5    1  0.3125560E-003  0.9118800E+02  0.7818608E-02  0.1130116E+00
         25   -1    0    0    0    0  0.00000000000E+00  0.00000000000E+00  0.99999998245E-14  0.12500000000E+03  0.12500000000E+03 0.  0.
        -13    1    3    3    0    0 -0.23770519184E+02 -0.27924403359E+02  0.14476120452E+02  0.39425614930E+02  0.10566000000E+00 0. -1.
         23    2    1    0    0    0 -0.29229464738E+00  0.23428130567E+02  0.17165607342E+02  0.95954848711E+02  0.91453333333E+02 0.  0.
         13    1    3    3    0    0  0.23478224537E+02  0.51352533926E+02  0.26894868899E+01  0.56529233780E+02  0.10566000000E+00 0.  1.
         22    1    1    0    0    0  0.29229464738E+00 -0.23428130567E+02 -0.17165607342E+02  0.29045151289E+02  0.00000000000E+00 0.  1.
</event>
<event>
 5    1  0.3125560E-003  0.9118800E+02  0.7818608E-02  0.1130116E+00
         25   -1    0    0    0    0  0.00000000000E+00  0.00000000000E+00  0.99999998245E-14  0.12500000000E+03  0.12500000000E+03 0.  0.
        -13    1    3    3    0    0  0.18194000220E+02  0.34023129906E+02  0.14151431349E+02  0.41095853634E+02  0.10566000000E+00 0. -1.
         23    2    1    0    0    0 -0.42217102395E+01 -0.18002274048E+02  0.19658315207E+02  0.98011964410E+02  0.94223092193E+02 0.  0.
         13    1    3    3    0    0 -0.22415710460E+02 -0.52025403954E+02  0.55068838583E+01  0.56916110776E+02  0.10566000000E+00 0.  1.
         22    1    1    0    0    0  0.42217102395E+01  0.18002274048E+02 -0.19658315207E+02  0.26988035590E+02  0.00000000000E+00 0.  1.
</event>
<event>
 5    1  0.3125560E-003  0.9118800E+02  0.7818608E-02  0.1130116E+00
         25   -1    0    0    0    0  0.00000000000E+00  0.00000000000E+00  0.99999998245E-14  0.12500000000E+03  0.12500000000E+03 0.  0.
        -13    1    3    3    0    0  0.48420563080E+02 -0.44070888983E+01 -0.38451720617E+02  0.61988058075E+02  0.10566000000E+00 0.  1.
         23    2    1    0    0    0  0.22252599533E+02 -0.76375579948E+01 -0.17117403237E+02  0.95905052471E+02  0.91385245624E+02 0.  0.
         13    1    3    3    0    0 -0.26167963546E+02 -0.32304690965E+01  0.21334317380E+02  0.33916994396E+02  0.10566000000E+00 0. -1.
         22    1    1    0    0    0 -0.22252599533E+02  0.76375579948E+01  0.17117403237E+02  0.29094947529E+02  0.00000000000E+00 0.  1.
</event>
<event>
 5    1  0.3125560E-003  0.9118800E+02  0.7818608E-02  0.1130116E+00
         25   -1    0    0    0    0  0.00000000000E+00  0.00000000000E+00  0.99999998245E-14  0.12500000000E+03  0.12500000000E+03 0.  0.
        -13    1    3    3    0    0 -0.18851936730E+02  0.14989559681E+02  0.38197155794E+02  0.45156575299E+02  0.10566000000E+00 0.  1.
         23    2    1    0    0    0 -0.21147549068E+02 -0.22019573035E+02  0.27904268909E+02  0.83639044358E+02  0.72696362285E+02 0.  0.
         13    1    3    3    0    0 -0.22956123381E+01 -0.37009132717E+02 -0.10292886884E+02  0.38482469059E+02  0.10566000000E+00 0. -1.
         22    1    1    0    0    0  0.21147549068E+02  0.22019573035E+02 -0.27904268909E+02  0.41360955642E+02  0.00000000000E+00 0. -1.
</event>
<event>
 5    1  0.3125560E-003  0.9118800E+02  0.7818608E-02  0.1130116E+00
         25   -1    0    0    0    0  0.00000000000E+00  0.00000000000E+00  0.99999998245E-14  0.12500000000E+03  0.12500000000E+03 0.  0.
        -13    1    3    3    0    0 -0.41247704298E+02 -0.58287900437E+01 -0.20311226480E+02  0.46345495880E+02  0.10566000000E+00 0. -1.
         23    2    1    0    0    0  0.10247525792E+02 -0.86118797848E+01 -0.23436141249E+02  0.98010576610E+02  0.94221251066E+02 0.  0.
         13    1    3    3    0    0  0.51495230090E+02 -0.27830897411E+01 -0.31249147690E+01  0.51665080730E+02  0.10566000000E+00 0.  1.
         22    1    1    0    0    0 -0.10247525792E+02  0.86118797848E+01  0.23436141249E+02  0.26989423390E+02  0.00000000000E+00 0.  1.
</event>
<event>
 5    1  0.3125560E-003  0.9118800E+02  0.7818608E-02  0.1130116E+00
         25   -1    0    0    0    0  0.00000000000E+00  0.00000000000E+00  0.99999998245E-14  0.12500000000E+03  0.12500000000E+03 0.  0.
        -13    1    3    3    0    0  0.36844466244E+02  0.80412770882E+01 -0.44872836121E+02  0.58615351365E+02  0.10566000000E+00 0. -1.
         23    2    1    0    0    0  0.64539030753E+01  0.12401969192E+02 -0.28133448231E+02  0.93584198019E+02  0.88153556394E+02 0.  0.
         13    1    3    3    0    0 -0.30390563169E+02  0.43606921040E+01  0.16739387890E+02  0.34968846654E+02  0.10566000000E+00 0.  1.
         22    1    1    0    0    0 -0.64539030753E+01 -0.12401969192E+02  0.28133448231E+02  0.31415801981E+02  0.00000000000E+00 0. -1.
</event>
<event>
 5    1  0.3125560E-003  0.9118800E+02  0.7818608E-02  0.1130116E+00
         25   -1    0    0    0    0  0.00000000000E+00  0.00000000000E+00  0.99999998245E-14  0.12500000000E+03  0.12500000000E+03 0.  0.
        -13    1    3    3    0    0 -0.32192457311E+02  0.53200138124E+01  0.18845944629E+02  0.37680733110E+02  0.10566000000E+00 0.  1.
         23    2    1    0    0    0  0.21562033102E+02  0.16367586121E+02  0.17861631895E+02  0.92567654404E+02  0.86700136107E+02 0.  0.
         13    1    3    3    0    0  0.53754490414E+02  0.11047572309E+02 -0.98431273436E+00  0.54886921294E+02  0.10566000000E+00 0. -1.
         22    1    1    0    0    0 -0.21562033102E+02 -0.16367586121E+02 -0.17861631895E+02  0.32432345596E+02  0.00000000000E+00 0. -1.
</event>
<event>
 5    1  0.3125560E-003  0.9118800E+02  0.7818608E-02  0.1130116E+00
         25   -1    0    0    0    0  0.00000000000E+00  0.00000000000E+00  0.99999998245E-14  0.12500000000E+03  0.12500000000E+03 0.  0.
        -13    1    3    3    0    0  0.48246518356E+01 -0.16710069678E+02  0.37616112439E+02  0.41442571989E+02  0.10566000000E+00 0.  1.
         23    2    1    0    0    0  0.13536104244E+02  0.25649294733E+02  0.50907000483E+01  0.95554666493E+02  0.90904711776E+02 0.  0.
         13    1    3    3    0    0  0.87114524079E+01  0.42359364411E+02 -0.32525412391E+02  0.54112094504E+02  0.10566000000E+00 0. -1.
         22    1    1    0    0    0 -0.13536104244E+02 -0.25649294733E+02 -0.50907000483E+01  0.29445333507E+02  0.00000000000E+00 0. -1.
</event>
<event>
 5    1  0.3125560E-003  0.9118800E+02  0.7818608E-02  0.1130116E+00
         25   -1    0    0    0    0  0.00000000000E+00  0.00000000000E+00  0.99999998245E-14  0.12500000000E+03  0.12500000000E+03 0.  0.
        -13    1    3    3    0    0 -0.20335539927E+02  0.27221770867E+02  0.20293639983E+02  0.39577796566E+02  0.10566000000E+00 0. -1.
         23    2    1    0    0    0  0.25358662100E+02 -0.54122050911E+01  0.12320008510E+02  0.96292225494E+02  0.91913309011E+02 0.  0.
         13    1    3    3    0    0  0.45694202026E+02 -0.32633975958E+02 -0.79736314738E+01  0.56714428927E+02  0.10566000000E+00 0.  1.
         22    1    1    0    0    0 -0.25358662100E+02  0.54122050911E+01 -0.12320008510E+02  0.28707774506E+02  0.00000000000E+00 0.  1.
</event>
<event>
 5    1  0.3125560E-003  0.9118800E+02  0.7818608E-02  0.1130116E+00
         25   -1    0    0    0    0  0.00000000000E+00  0.00000000000E+00  0.99999998245E-14  0.12500000000E+03  0.12500000000E+03 0.  0.
        -13    1    3    3    0    0  0.14355679099E+02 -0.30936806628E+02  0.33526241540E+02  0.47824591608E+02  0.10566000000E+00 0.  1.
         23    2    1    0    0    0 -0.18108919263E+02  0.53422360770E+01  0.17973278594E+02  0.98932564634E+02  0.95436581867E+02 0.  0.
         13    1    3    3    0    0 -0.32464598361E+02  0.36279042705E+02 -0.15552962946E+02  0.51107973025E+02  0.10566000000E+00 0. -1.
         22    1    1    0    0    0  0.18108919263E+02 -0.53422360770E+01 -0.17973278594E+02  0.26067435366E+02  0.00000000000E+00 0. -1.
</event>
<event>
 5    1  0.3125560E-003  0.9118800E+02  0.7818608E-02  0.1130116E+00
         25   -1    0    0    0    0  0.00000000000E+00  0.00000000000E+00  0.99999998245E-14  0.12500000000E+03  0.12500000000E+03 0.  0.
        -13    1    3    3    0    0  0.23318019240E+02  0.21967911953E+02  0.16825717329E+02  0.36186117566E+02  0.10566000000E+00 0.  1.
         23    2    1    0    0    0  0.91275119473E-01 -0.29286312300E+02 -0.23106228115E+01  0.95622535898E+02  0.90997988849E+02 0.  0.
         13    1    3    3    0    0 -0.23226744120E+02 -0.51254224253E+02 -0.19136340140E+02  0.59436418332E+02  0.10566000000E+00 0. -1.
         22    1    1    0    0    0 -0.91275119473E-01  0.29286312300E+02  0.23106228115E+01  0.29377464102E+02  0.00000000000E+00 0. -1.
</event>
<event>
 5    1  0.3125560E-003  0.9118800E+02  0.7818608E-02  0.1130116E+00
         25   -1    0    0    0    0  0.00000000000E+00  0.00000000000E+00  0.99999998245E-14  0.12500000000E+03  0.12500000000E+03 0.  0.
        -13    1    3    3    0    0 -0.43463701003E+02 -0.47612840015E+01 -0.22117887419E+02  0.48999747327E+02  0.10566000000E+00 0.  1.
         23    2    1    0    0    0 -0.76621372665E+01  0.23667458640E+02 -0.16704235032E+02  0.95035213767E+02  0.90187601375E+02 0.  0.
         13    1    3    3    0    0  0.35801563736E+02  0.28428742642E+02  0.54136523875E+01  0.46035466440E+02  0.10566000000E+00 0. -1.
         22    1    1    0    0    0  0.76621372665E+01 -0.23667458640E+02  0.16704235032E+02  0.29964786233E+02  0.00000000000E+00 0.  1.
</event>
<event>
 5    1  0.3125560E-003  0.9118800E+02  0.7818608E-02  0.1130116E+00
         25   -1    0    0    0    0  0.00000000000E+00  0.00000000000E+00  0.99999998245E-14  0.12500000000E+03  0.12500000000E+03 0.  0.
        -13    1    3    3    0    0  0.36935604224E+02 -0.57281696422E+01  0.19106579469E+02  0.41977652744E+02  0.10566000000E+00 0.  1.
         23    2    1    0    0    0  0.14304948087E+02  0.25632406853E+02 -0.13620202151E+02  0.92640121640E+02  0.86804552933E+02 0.  0.
         13    1    3    3    0    0 -0.22630656137E+02  0.31360576495E+02 -0.32726781620E+02  0.50662468895E+02  0.10566000000E+00 0. -1.
         22    1    1    0    0    0 -0.14304948087E+02 -0.25632406853E+02  0.13620202151E+02  0.32359878360E+02  0.00000000000E+00 0. -1.
</event>
<event>
 5    1  0.3125560E-003  0.9118800E+02  0.7818608E-02  0.1130116E+00
         25   -1    0    0    0    0  0.00000000000E+00  0.00000000000E+00  0.99999998245E-14  0.12500000000E+03  0.12500000000E+03 0.  0.
        -13    1    3    3    0    0 -0.34500874898E+02  0.22002349275E+01  0.32324806067E+02  0.47329226212E+02  0.10566000000E+00 0. -1.
         23    2    1    0    0    0 -0.32688686202E+01 -0.27399010617E+02  0.12886809322E+02  0.94545753344E+02  0.89506638503E+02 0.  0.
         13    1    3    3    0    0  0.31232006278E+02 -0.29599245545E+02 -0.19437996745E+02  0.47216527133E+02  0.10566000000E+00 0.  1.
         22    1    1    0    0    0  0.32688686202E+01  0.27399010617E+02 -0.12886809322E+02  0.30454246656E+02  0.00000000000E+00 0.  1.
</event>
<event>
 5    1  0.3125560E-003  0.9118800E+02  0.7818608E-02  0.1130116E+00
         25   -1    0    0    0    0  0.00000000000E+00  0.00000000000E+00  0.99999998245E-14  0.12500000000E+03  0.12500000000E+03 0.  0.
        -13    1    3    3    0    0 -0.27526701475E+02  0.19033718604E+02 -0.24847658487E+01  0.33558709202E+02  0.10566000000E+00 0.  1.
         23    2    1    0    0    0  0.28669312303E+02 -0.64790248323E+01  0.26512926419E+01  0.95488365288E+02  0.90813497466E+02 0.  0.
         13    1    3    3    0    0  0.56196013777E+02 -0.25512743436E+02  0.51360584905E+01  0.61929656086E+02  0.10566000000E+00 0. -1.
         22    1    1    0    0    0 -0.28669312303E+02  0.64790248323E+01 -0.26512926419E+01  0.29511634712E+02  0.00000000000E+00 0. -1.
</event>
<event>
 5    1  0.3125560E-003  0.9118800E+02  0.7818608E-02  0.1130116E+00
         25   -1    0    0    0    0  0.00000000000E+00  0.00000000000E+00  0.99999998245E-14  0.12500000000E+03  0.12500000000E+03 0.  0.
        -13    1    3    3    0    0 -0.19980663075E+01  0.43448919056E+02  0.10983923905E+02  0.44860434511E+02  0.10566000000E+00 0.  1.
         23    2    1    0    0    0  0.22321068717E+02  0.23237099730E+02 -0.18287843659E+02  0.87950868590E+02  0.79766641822E+02 0.  0.
         13    1    3    3    0    0  0.24319135024E+02 -0.20211819326E+02 -0.29271767564E+02  0.43090434079E+02  0.10566000000E+00 0. -1.
         22    1    1    0    0    0 -0.22321068717E+02 -0.23237099730E+02  0.18287843659E+02  0.37049131410E+02  0.00000000000E+00 0. -1.
</event>
<event>
 5    1  0.3125560E-003  0.9118800E+02  0.7818608E-02  0.1130116E+00
         25   -1    0    0    0    0  0.00000000000E+00  0.00000000000E+00  0.99999998245E-14  0.12500000000E+03  0.12500000000E+03 0.  0.
        -13    1    3    3    0    0  0.44703516355E+02  0.41598886583E+02  0.31102364316E+01  0.61143736180E+02  0.10566000000E+00 0.  1.
         23    2    1    0    0    0  0.17161038534E+02  0.20263047935E+02 -0.72190992304E+01  0.97482591894E+02  0.93518169216E+02 0.  0.
         13    1    3    3    0    0 -0.27542477821E+02 -0.21335838647E+02 -0.10329335662E+02  0.36338855713E+02  0.10566000000E+00 0. -1.
         22    1    1    0    0    0 -0.17161038534E+02 -0.20263047935E+02  0.72190992304E+01  0.27517408106E+02  0.00000000000E+00 0.  1.
</event>
<event>
 5    1  0.3125560E-003  0.9118800E+02  0.7818608E-02  0.1130116E+00
         25   -1    0    0    0    0  0.00000000000E+00  0.00000000000E+00  0.99999998245E-14  0.12500000000E+03  0.12500000000E+03 0.  0.
        -13    1    3    3    0    0 -0.30640216836E+02 -0.39177443763E+02  0.15722380892E+02  0.52162241252E+02  0.10566000000E+00 0. -1.
         23    2    1    0    0    0  0.45911900465E+01 -0.12587541976E+02  0.24415611580E+02  0.97149554261E+02  0.93071953699E+02 0.  0.
         13    1    3    3    0    0  0.35231406882E+02  0.26589901787E+02  0.86932306874E+01  0.44987313009E+02  0.10566000000E+00 0.  1.
         22    1    1    0    0    0 -0.45911900465E+01  0.12587541976E+02 -0.24415611580E+02  0.27850445739E+02  0.00000000000E+00 0. -1.
</event>
<event>
 5    1  0.3125560E-003  0.9118800E+02  0.7818608E-02  0.1130116E+00
         25   -1    0    0    0    0  0.00000000000E+00  0.00000000000E+00  0.99999998245E-14  0.12500000000E+03  0.12500000000E+03 0.  0.
        -13    1    3    3    0    0 -0.31518080942E+01  0.13346506435E+02 -0.44422663592E+02  0.46491368371E+02  0.10566000000E+00 0.  1.
         23    2    1    0    0    0  0.13809664649E+02 -0.21407409198E+02 -0.12570577687E+02  0.96592194212E+02  0.92320358281E+02 0.  0.
         13    1    3    3    0    0  0.16961472743E+02 -0.34753915633E+02  0.31852085906E+02  0.50100825842E+02  0.10566000000E+00 0. -1.
         22    1    1    0    0    0 -0.13809664649E+02  0.21407409198E+02  0.12570577687E+02  0.28407805788E+02  0.00000000000E+00 0. -1.
</event>
<event>
 5    1  0.3125560E-003  0.9118800E+02  0.7818608E-02  0.1130116E+00
         25   -1    0    0    0    0  0.00000000000E+00  0.00000000000E+00  0.99999998245E-14  0.12500000000E+03  0.12500000000E+03 0.  0.
        -13    1    3    3    0    0  0.37056352976E+02 -0.30157225177E+02  0.34810788654E+02  0.59113735265E+02  0.10566000000E+00 0. -1.
         23    2    1    0    0    0  0.27204155719E+02 -0.98733926970E+01  0.64454815067E+01  0.95350477178E+02  0.90623502991E+02 0.  0.
         13    1    3    3    0    0 -0.98521972569E+01  0.20283832480E+02 -0.28365307147E+02  0.36236741913E+02  0.10566000000E+00 0.  1.
         22    1    1    0    0    0 -0.27204155719E+02  0.98733926970E+01 -0.64454815067E+01  0.29649522822E+02  0.00000000000E+00 0. -1.
</event>
<event>
 5    1  0.3125560E-003  0.9118800E+02  0.7818608E-02  0.1130116E+00
         25   -1    0    0    0    0  0.00000000000E+00  0.00000000000E+00  0.99999998245E-14  0.12500000000E+03  0.12500000000E+03 0.  0.
        -13    1    3    3    0    0  0.32240882052E+02  0.35237156129E+01 -0.26981061596E+02  0.42188622828E+02  0.10566000000E+00 0.  1.
         23    2    1    0    0    0 -0.18105806170E+02  0.18309125909E+02 -0.10536786363E+02  0.97177919282E+02  0.93110041459E+02 0.  0.
         13    1    3    3    0    0 -0.50346688222E+02  0.14785410296E+02  0.16444275233E+02  0.54989296454E+02  0.10566000000E+00 0. -1.
         22    1    1    0    0    0  0.18105806170E+02 -0.18309125909E+02  0.10536786363E+02  0.27822080718E+02  0.00000000000E+00 0. -1.
</event>
<event>
 5    1  0.3125560E-003  0.9118800E+02  0.7818608E-02  0.1130116E+00
         25   -1    0    0    0    0  0.00000000000E+00  0.00000000000E+00  0.99999998245E-14  0.12500000000E+03  0.12500000000E+03 0.  0.
        -13    1    3    3    0    0 -0.14532452410E+02 -0.49051540789E+02 -0.17102150083E+02  0.53942010793E+02  0.10566000000E+00 0. -1.
         23    2    1    0    0    0 -0.39269264110E-01 -0.90376003555E+01 -0.26046826880E+02  0.97429781416E+02  0.93447554028E+02 0.  0.
         13    1    3    3    0    0  0.14493183146E+02  0.40013940434E+02 -0.89446767971E+01  0.43487770623E+02  0.10566000000E+00 0.  1.
         22    1    1    0    0    0  0.39269264110E-01  0.90376003555E+01  0.26046826880E+02  0.27570218584E+02  0.00000000000E+00 0. -1.
</event>
<event>
 5    1  0.3125560E-003  0.9118800E+02  0.7818608E-02  0.1130116E+00
         25   -1    0    0    0    0  0.00000000000E+00  0.00000000000E+00  0.99999998245E-14  0.12500000000E+03  0.12500000000E+03 0.  0.
        -13    1    3    3    0    0  0.98440485359E+01 -0.16090008425E+02  0.57778691796E+02  0.60779783254E+02  0.10566000000E+00 0.  1.
         23    2    1    0    0    0  0.40315686611E+01 -0.17080306987E+02  0.22925255210E+02  0.96128599634E+02  0.91690511551E+02 0.  0.
         13    1    3    3    0    0 -0.58124798748E+01 -0.99029856224E+00 -0.34853436587E+02  0.35348816380E+02  0.10566000000E+00 0. -1.
         22    1    1    0    0    0 -0.40315686611E+01  0.17080306987E+02 -0.22925255210E+02  0.28871400366E+02  0.00000000000E+00 0.  1.
</event>
<event>
 5    1  0.3125560E-003  0.9118800E+02  0.7818608E-02  0.1130116E+00
         25   -1    0    0    0    0  0.00000000000E+00  0.00000000000E+00  0.99999998245E-14  0.12500000000E+03  0.12500000000E+03 0.  0.
        -13    1    3    3    0    0  0.42863599148E+01  0.52093267540E+02 -0.58587363699E+01  0.52596742867E+02  0.10566000000E+00 0. -1.
         23    2    1    0    0    0  0.20312196403E+02  0.17292871525E+02  0.13028089730E+02  0.95312294627E+02  0.90570821221E+02 0.  0.
         13    1    3    3    0    0  0.16025836488E+02 -0.34800396015E+02  0.18886826100E+02  0.42715551759E+02  0.10566000000E+00 0.  1.
         22    1    1    0    0    0 -0.20312196403E+02 -0.17292871525E+02 -0.13028089730E+02  0.29687705373E+02  0.00000000000E+00 0. -1.
</event>
<event>
 5    1  0.3125560E-003  0.9118800E+02  0.7818608E-02  0.1130116E+00
         25   -1    0    0    0    0  0.00000000000E+00  0.00000000000E+00  0.99999998245E-14  0.12500000000E+03  0.12500000000E+03 0.  0.
        -13    1    3    3    0    0  0.77855301414E+01 -0.11578431264E+02  0.60697074429E+02  0.62280177893E+02  0.10566000000E+00 0. -1.
         23    2    1    0    0    0  0.66915884453E+01 -0.73727880176E+01  0.27649356970E+02  0.95612548597E+02  0.90984268691E+02 0.  0.
         13    1    3    3    0    0 -0.10939416962E+01  0.42056432462E+01 -0.33047717458E+02  0.33332370704E+02  0.10566000000E+00 0.  1.
         22    1    1    0    0    0 -0.66915884453E+01  0.73727880176E+01 -0.27649356970E+02  0.29387451403E+02  0.00000000000E+00 0. -1.
</event>
<event>
 5    1  0.3125560E-003  0.9118800E+02  0.7818608E-02  0.1130116E+00
         25   -1    0    0    0    0  0.00000000000E+00  0.00000000000E+00  0.99999998245E-14  0.12500000000E+03  0.12500000000E+03 0.  0.
        -13    1    3    3    0    0  0.29201797614E+02 -0.45749197014E+01  0.43401454923E+02  0.52510687747E+02  0.10566000000E+00 0. -1.
         23    2    1    0    0    0  0.11791466830E+02 -0.24335858680E+02  0.76854156504E+01  0.96887043531E+02  0.92718719160E+02 0.  0.
         13    1    3    3    0    0 -0.17410330784E+02 -0.19760938979E+02 -0.35716039273E+02  0.44376355784E+02  0.10566000000E+00 0.  1.
         22    1    1    0    0    0 -0.11791466830E+02  0.24335858680E+02 -0.76854156504E+01  0.28112956469E+02  0.00000000000E+00 0. -1.
</event>
<event>
 5    1  0.3125560E-003  0.9118800E+02  0.7818608E-02  0.1130116E+00
         25   -1    0    0    0    0  0.00000000000E+00  0.00000000000E+00  0.99999998245E-14  0.12500000000E+03  0.12500000000E+03 0.  0.
        -13    1    3    3    0    0  0.53633078549E+02 -0.86107800438E+01 -0.18411804794E+02  0.57355543476E+02  0.10566000000E+00 0. -1.
         23    2    1    0    0    0  0.20378503575E+02 -0.24436586100E+01 -0.25857221439E+02  0.91987111973E+02  0.85859058889E+02 0.  0.
         13    1    3    3    0    0 -0.33254574974E+02  0.61671214338E+01 -0.74454166446E+01  0.34631568497E+02  0.10566000000E+00 0.  1.
         22    1    1    0    0    0 -0.20378503575E+02  0.24436586100E+01  0.25857221439E+02  0.33012888027E+02  0.00000000000E+00 0. -1.
</event>
<event>
 5    1  0.3125560E-003  0.9118800E+02  0.7818608E-02  0.1130116E+00
         25   -1    0    0    0    0  0.00000000000E+00  0.00000000000E+00  0.99999998245E-14  0.12500000000E+03  0.12500000000E+03 0.  0.
        -13    1    3    3    0    0 -0.43890140132E+02 -0.81404192239E+01 -0.80136842199E+01  0.45352410352E+02  0.10566000000E+00 0. -1.
         23    2    1    0    0    0 -0.19195401311E+02  0.25828229992E+02  0.10361354293E+02  0.91192921469E+02  0.84694925275E+02 0.  0.
         13    1    3    3    0    0  0.24694738822E+02  0.33968649216E+02  0.18375038513E+02  0.45840511117E+02  0.10566000000E+00 0.  1.
         22    1    1    0    0    0  0.19195401311E+02 -0.25828229992E+02 -0.10361354293E+02  0.33807078531E+02  0.00000000000E+00 0.  1.
</event>
<event>
 5    1  0.3125560E-003  0.9118800E+02  0.7818608E-02  0.1130116E+00
         25   -1    0    0    0    0  0.00000000000E+00  0.00000000000E+00  0.99999998245E-14  0.12500000000E+03  0.12500000000E+03 0.  0.
        -13    1    3    3    0    0 -0.74167946856E+01  0.52590027606E+02  0.29514116932E+02  0.60760300438E+02  0.10566000000E+00 0.  1.
         23    2    1    0    0    0 -0.16042809483E+01  0.16272786759E+02  0.20771265854E+02  0.98564743402E+02  0.94953598407E+02 0.  0.
         13    1    3    3    0    0  0.58125137373E+01 -0.36317240848E+02 -0.87428510782E+01  0.37804442963E+02  0.10566000000E+00 0. -1.
         22    1    1    0    0    0  0.16042809483E+01 -0.16272786759E+02 -0.20771265854E+02  0.26435256598E+02  0.00000000000E+00 0.  1.
</event>
<event>
 5    1  0.3125560E-003  0.9118800E+02  0.7818608E-02  0.1130116E+00
         25   -1    0    0    0    0  0.00000000000E+00  0.00000000000E+00  0.99999998245E-14  0.12500000000E+03  0.12500000000E+03 0.  0.
        -13    1    3    3    0    0 -0.55640894269E+02  0.16540241259E+02 -0.21563804435E+02  0.61923319693E+02  0.10566000000E+00 0.  1.
         23    2    1    0    0    0 -0.23490944373E+02  0.13189131391E+02 -0.10425614370E+02  0.96112786749E+02  0.91668951599E+02 0.  0.
         13    1    3    3    0    0  0.32149949896E+02 -0.33511098676E+01  0.11138190065E+02  0.34189467057E+02  0.10566000000E+00 0. -1.
         22    1    1    0    0    0  0.23490944373E+02 -0.13189131391E+02  0.10425614370E+02  0.28887213251E+02  0.00000000000E+00 0.  1.
</event>
<event>
 5    1  0.3125560E-003  0.9118800E+02  0.7818608E-02  0.1130116E+00
         25   -1    0    0    0    0  0.00000000000E+00  0.00000000000E+00  0.99999998245E-14  0.12500000000E+03  0.12500000000E+03 0.  0.
        -13    1    3    3    0    0 -0.24952845224E+02  0.17197983228E+02 -0.24757827810E+02  0.39132803551E+02  0.10566000000E+00 0. -1.
         23    2    1    0    0    0 -0.30299681620E+01  0.17537312365E+02  0.25464524489E+02  0.93932653163E+02  0.88646281877E+02 0.  0.
         13    1    3    3    0    0  0.21922877062E+02  0.33932913735E+00  0.50222352299E+02  0.54799849611E+02  0.10566000000E+00 0.  1.
         22    1    1    0    0    0  0.30299681620E+01 -0.17537312365E+02 -0.25464524489E+02  0.31067346837E+02  0.00000000000E+00 0.  1.
</event>
<event>
 5    1  0.3125560E-003  0.9118800E+02  0.7818608E-02  0.1130116E+00
         25   -1    0    0    0    0  0.00000000000E+00  0.00000000000E+00  0.99999998245E-14  0.12500000000E+03  0.12500000000E+03 0.  0.
        -13    1    3    3    0    0 -0.60149416284E+02  0.94638381269E+01 -0.13962558493E+02  0.62469838443E+02  0.10566000000E+00 0. -1.
         23    2    1    0    0    0 -0.28881161384E+02  0.39208733165E+01 -0.54261160645E+01  0.95353120468E+02  0.90627148895E+02 0.  0.
         13    1    3    3    0    0  0.31268254900E+02 -0.55429648103E+01  0.85364424286E+01  0.32883282025E+02  0.10566000000E+00 0.  1.
         22    1    1    0    0    0  0.28881161384E+02 -0.39208733165E+01  0.54261160645E+01  0.29646879532E+02  0.00000000000E+00 0. -1.
</event>
<event>
 5    1  0.3125560E-003  0.9118800E+02  0.7818608E-02  0.1130116E+00
         25   -1    0    0    0    0  0.00000000000E+00  0.00000000000E+00  0.99999998245E-14  0.12500000000E+03  0.12500000000E+03 0.  0.
        -13    1    3    3    0    0 -0.11620771245E+02 -0.53880615808E+02 -0.35870138658E+01  0.55236228299E+02  0.10566000000E+00 0. -1.
         23    2    1    0    0    0  0.28708759979E+00 -0.20774555244E+02  0.18835384671E+02  0.96956528736E+02  0.92812349307E+02 0.  0.
         13    1    3    3    0    0  0.11907858845E+02  0.33106060564E+02  0.22422398537E+02  0.41720300437E+02  0.10566000000E+00 0.  1.
         22    1    1    0    0    0 -0.28708759979E+00  0.20774555244E+02 -0.18835384671E+02  0.28043471264E+02  0.00000000000E+00 0. -1.
</event>
<event>
 5    1  0.3125560E-003  0.9118800E+02  0.7818608E-02  0.1130116E+00
         25   -1    0    0    0    0  0.00000000000E+00  0.00000000000E+00  0.99999998245E-14  0.12500000000E+03  0.12500000000E+03 0.  0.
        -13    1    3    3    0    0 -0.18982527819E+02  0.19268758798E+02  0.45321518800E+02  0.52779471941E+02  0.10566000000E+00 0. -1.
         23    2    1    0    0    0 -0.70161683980E+00  0.24238705471E+02  0.12862081423E+01  0.10071705453E+03  0.97745913641E+02 0.  0.
         13    1    3    3    0    0  0.18280910979E+02  0.49699466730E+01 -0.44035310658E+02  0.47937582593E+02  0.10566000000E+00 0.  1.
         22    1    1    0    0    0  0.70161683980E+00 -0.24238705471E+02 -0.12862081423E+01  0.24282945466E+02  0.00000000000E+00 0.  1.
</event>
<event>
 5    1  0.3125560E-003  0.9118800E+02  0.7818608E-02  0.1130116E+00
         25   -1    0    0    0    0  0.00000000000E+00  0.00000000000E+00  0.99999998245E-14  0.12500000000E+03  0.12500000000E+03 0.  0.
        -13    1    3    3    0    0 -0.10571867746E+02  0.79571161465E+01  0.55392351049E+02  0.56950889403E+02  0.10566000000E+00 0.  1.
         23    2    1    0    0    0 -0.23399979778E+02  0.37888618838E+01  0.23306069212E+02  0.91757145278E+02  0.85523600950E+02 0.  0.
         13    1    3    3    0    0 -0.12828112031E+02 -0.41682542627E+01 -0.32086281837E+02  0.34806255875E+02  0.10566000000E+00 0. -1.
         22    1    1    0    0    0  0.23399979778E+02 -0.37888618838E+01 -0.23306069212E+02  0.33242854722E+02  0.00000000000E+00 0.  1.
</event>
<event>
 5    1  0.3125560E-003  0.9118800E+02  0.7818608E-02  0.1130116E+00
         25   -1    0    0    0    0  0.00000000000E+00  0.00000000000E+00  0.99999998245E-14  0.12500000000E+03  0.12500000000E+03 0.  0.
        -13    1    3    3    0    0  0.64709609111E+01  0.65891450832E+01  0.36431279831E+02  0.37583766206E+02  0.10566000000E+00 0.  1.
         23    2    1    0    0    0  0.18159283659E+02  0.52577234369E+01 -0.21310871235E+02  0.96512169764E+02  0.92211943050E+02 0.  0.
         13    1    3    3    0    0  0.11688322748E+02 -0.13314216463E+01 -0.57742151066E+02  0.58928403559E+02  0.10566000000E+00 0. -1.
         22    1    1    0    0    0 -0.18159283659E+02 -0.52577234369E+01  0.21310871235E+02  0.28487830236E+02  0.00000000000E+00 0. -1.
</event>
<event>
 5    1  0.3125560E-003  0.9118800E+02  0.7818608E-02  0.1130116E+00
         25   -1    0    0    0    0  0.00000000000E+00  0.00000000000E+00  0.99999998245E-14  0.12500000000E+03  0.12500000000E+03 0.  0.
        -13    1    3    3    0    0 -0.19580853247E+02  0.24277463527E+01  0.53794149364E+02  0.57298563996E+02  0.10566000000E+00 0.  1.
         23    2    1    0    0    0  0.88157118500E+01  0.99597302838E+00  0.27784973868E+02  0.95833006488E+02  0.91286645365E+02 0.  0.
         13    1    3    3    0    0  0.28396565097E+02 -0.14317733243E+01 -0.26009175495E+02  0.38534442492E+02  0.10566000000E+00 0. -1.
         22    1    1    0    0    0 -0.88157118500E+01 -0.99597302838E+00 -0.27784973868E+02  0.29166993512E+02  0.00000000000E+00 0.  1.
</event>
<event>
 5    1  0.3125560E-003  0.9118800E+02  0.7818608E-02  0.1130116E+00
         25   -1    0    0    0    0  0.00000000000E+00  0.00000000000E+00  0.99999998245E-14  0.12500000000E+03  0.12500000000E+03 0.  0.
        -13    1    3    3    0    0 -0.24341984442E+02  0.21381731362E+02 -0.17734927921E+02  0.36935747929E+02  0.10566000000E+00 0. -1.
         23    2    1    0    0    0  0.18338742025E+01 -0.25483085158E+01  0.29126367219E+02  0.95704911021E+02  0.91111073725E+02 0.  0.
         13    1    3    3    0    0  0.26175858645E+02 -0.23930039878E+02  0.46861295140E+02  0.58769163093E+02  0.10566000000E+00 0.  1.
         22    1    1    0    0    0 -0.18338742025E+01  0.25483085158E+01 -0.29126367219E+02  0.29295088979E+02  0.00000000000E+00 0.  1.
</event>
<event>
 5    1  0.3125560E-003  0.9118800E+02  0.7818608E-02  0.1130116E+00
         25   -1    0    0    0    0  0.00000000000E+00  0.00000000000E+00  0.99999998245E-14  0.12500000000E+03  0.12500000000E+03 0.  0.
        -13    1    3    3    0    0  0.50992753259E+02 -0.11005543711E+02 -0.24791022712E+02  0.57758019776E+02  0.10566000000E+00 0. -1.
         23    2    1    0    0    0  0.25005940125E+02 -0.15671091810E+02  0.20628287702E+01  0.95417312113E+02  0.90715643790E+02 0.  0.
         13    1    3    3    0    0 -0.25986813133E+02 -0.46655480997E+01  0.26853851482E+02  0.37659292338E+02  0.10566000000E+00 0.  1.
         22    1    1    0    0    0 -0.25005940125E+02  0.15671091810E+02 -0.20628287702E+01  0.29582687887E+02  0.00000000000E+00 0. -1.
</event>
<event>
 5    1  0.3125560E-003  0.9118800E+02  0.7818608E-02  0.1130116E+00
         25   -1    0    0    0    0  0.00000000000E+00  0.00000000000E+00  0.99999998245E-14  0.12500000000E+03  0.12500000000E+03 0.  0.
        -13    1    3    3    0    0 -0.29383226413E+02  0.11548007851E+02 -0.18293627290E+02  0.36488332974E+02  0.10566000000E+00 0. -1.
         23    2    1    0    0    0 -0.29107843712E+01 -0.61128227237E+01  0.29956559750E+02  0.94287873090E+02  0.89145769796E+02 0.  0.
         13    1    3    3    0    0  0.26472442042E+02 -0.17660830575E+02  0.48250187039E+02  0.57799540116E+02  0.10566000000E+00 0.  1.
         22    1    1    0    0    0  0.29107843712E+01  0.61128227237E+01 -0.29956559750E+02  0.30712126910E+02  0.00000000000E+00 0.  1.
</event>
<event>
 5    1  0.3125560E-003  0.9118800E+02  0.7818608E-02  0.1130116E+00
         25   -1    0    0    0    0  0.00000000000E+00  0.00000000000E+00  0.99999998245E-14  0.12500000000E+03  0.12500000000E+03 0.  0.
        -13    1    3    3    0    0  0.23540734008E+01  0.61584629293E+02 -0.58788956939E+01  0.61909456510E+02  0.10566000000E+00 0.  1.
         23    2    1    0    0    0 -0.44512055170E+00  0.27418679088E+02  0.32528065400E+01  0.97385459525E+02  0.93388248090E+02 0.  0.
         13    1    3    3    0    0 -0.27991939525E+01 -0.34165950205E+02  0.91317022339E+01  0.35476003015E+02  0.10566000000E+00 0. -1.
         22    1    1    0    0    0  0.44512055170E+00 -0.27418679088E+02 -0.32528065400E+01  0.27614540475E+02  0.00000000000E+00 0.  1.
</event>
<event>
 5    1  0.3125560E-003  0.9118800E+02  0.7818608E-02  0.1130116E+00
         25   -1    0    0    0    0  0.00000000000E+00  0.00000000000E+00  0.99999998245E-14  0.12500000000E+03  0.12500000000E+03 0.  0.
        -13    1    3    3    0    0  0.12085284079E+02 -0.36745845653E+02 -0.11261715393E+02  0.40288319171E+02  0.10566000000E+00 0. -1.
         23    2    1    0    0    0  0.34201888672E+02 -0.13101419720E+02  0.18234916831E+02  0.84086327723E+02  0.73461431586E+02 0.  0.
         13    1    3    3    0    0  0.22116604593E+02  0.23644425933E+02  0.29496632224E+02  0.43798008551E+02  0.10566000000E+00 0.  1.
         22    1    1    0    0    0 -0.34201888672E+02  0.13101419720E+02 -0.18234916831E+02  0.40913672277E+02  0.00000000000E+00 0. -1.
</event>
<event>
 5    1  0.3125560E-003  0.9118800E+02  0.7818608E-02  0.1130116E+00
         25   -1    0    0    0    0  0.00000000000E+00  0.00000000000E+00  0.99999998245E-14  0.12500000000E+03  0.12500000000E+03 0.  0.
        -13    1    3    3    0    0 -0.13667518654E+02 -0.47202202682E+02 -0.37971826079E+02  0.62102493863E+02  0.10566000000E+00 0.  1.
         23    2    1    0    0    0 -0.88310238756E+01 -0.19249141723E+02 -0.21077643042E+02  0.95120517475E+02  0.90305754903E+02 0.  0.
         13    1    3    3    0    0  0.48364947785E+01  0.27953060959E+02  0.16894183037E+02  0.33018023612E+02  0.10566000000E+00 0. -1.
         22    1    1    0    0    0  0.88310238756E+01  0.19249141723E+02  0.21077643042E+02  0.29879482525E+02  0.00000000000E+00 0.  1.
</event>
