<event>
 5    1  0.2295577E-004  0.9118800E+02  0.7818608E-02  0.1130116E+00
         25   -1    0    0    0    0  0.00000000000E+00  0.00000000000E+00  0.99999998245E-14  0.12500000000E+03  0.12500000000E+03 0.  0.
        -13    1    3    3    0    0  0.33383201351E+01  0.32385332875E+02 -0.19270865546E+02  0.37832943180E+02  0.10566000000E+00 0.  1.
         23    2    1    0    0    0  0.96965339875E+01 -0.24254512669E+02 -0.14736810550E+02  0.95008705574E+02  0.90150853537E+02 0.  0.
         13    1    3    3    0    0  0.63582138524E+01 -0.56639845544E+02  0.45340549964E+01  0.57175762394E+02  0.10566000000E+00 0. -1.
         22    1    1    0    0    0 -0.96965339875E+01  0.24254512669E+02  0.14736810550E+02  0.29991294426E+02  0.00000000000E+00 0. -1.
</event>
<event>
 5    1  0.2295577E-004  0.9118800E+02  0.7818608E-02  0.1130116E+00
         25   -1    0    0    0    0  0.00000000000E+00  0.00000000000E+00  0.99999998245E-14  0.12500000000E+03  0.12500000000E+03 0.  0.
        -13    1    3    3    0    0  0.12886382443E+02  0.83478504460E+00  0.44987205218E+02  0.46804011750E+02  0.10566000000E+00 0. -1.
         23    2    1    0    0    0 -0.23993831846E+02 -0.91912521943E+01  0.16635356260E+02  0.94390881074E+02  0.89290090539E+02 0.  0.
         13    1    3    3    0    0 -0.36880214289E+02 -0.10026037239E+02 -0.28351848958E+02  0.47586869324E+02  0.10566000000E+00 0.  1.
         22    1    1    0    0    0  0.23993831846E+02  0.91912521943E+01 -0.16635356260E+02  0.30609118926E+02  0.00000000000E+00 0.  1.
</event>
<event>
 5    1  0.2295577E-004  0.9118800E+02  0.7818608E-02  0.1130116E+00
         25   -1    0    0    0    0  0.00000000000E+00  0.00000000000E+00  0.99999998245E-14  0.12500000000E+03  0.12500000000E+03 0.  0.
        -13    1    3    3    0    0 -0.24593214203E+02  0.21924098156E+02 -0.58632113828E+01  0.33464618278E+02  0.10566000000E+00 0.  1.
         23    2    1    0    0    0  0.60004248035E+01 -0.17585462654E+02 -0.30583265992E+02  0.89214671256E+02  0.81723116766E+02 0.  0.
         13    1    3    3    0    0  0.30593639006E+02 -0.39509560810E+02 -0.24720054609E+02  0.55750052977E+02  0.10566000000E+00 0. -1.
         22    1    1    0    0    0 -0.60004248035E+01  0.17585462654E+02  0.30583265992E+02  0.35785328744E+02  0.00000000000E+00 0. -1.
</event>
<event>
 5    1  0.2295577E-004  0.9118800E+02  0.7818608E-02  0.1130116E+00
         25   -1    0    0    0    0  0.00000000000E+00  0.00000000000E+00  0.99999998245E-14  0.12500000000E+03  0.12500000000E+03 0.  0.
        -13    1    3    3    0    0  0.35445250713E+02  0.20387745591E+02  0.18372292892E+02  0.44828320050E+02  0.10566000000E+00 0. -1.
         23    2    1    0    0    0 -0.14042618502E+02  0.16959794100E+02  0.21091461950E+02  0.94509353607E+02  0.89455790208E+02 0.  0.
         13    1    3    3    0    0 -0.49487869215E+02 -0.34279514914E+01  0.27191690581E+01  0.49681033557E+02  0.10566000000E+00 0.  1.
         22    1    1    0    0    0  0.14042618502E+02 -0.16959794100E+02 -0.21091461950E+02  0.30490646393E+02  0.00000000000E+00 0.  1.
</event>
<event>
 5    1  0.2295577E-004  0.9118800E+02  0.7818608E-02  0.1130116E+00
         25   -1    0    0    0    0  0.00000000000E+00  0.00000000000E+00  0.99999998245E-14  0.12500000000E+03  0.12500000000E+03 0.  0.
        -13    1    3    3    0    0 -0.16655214268E+02 -0.16271991103E+02 -0.25038971466E+02  0.34192617813E+02  0.10566000000E+00 0. -1.
         23    2    1    0    0    0  0.22980834216E+02 -0.97922081749E+01  0.18866042666E+02  0.93696108100E+02  0.88312100105E+02 0.  0.
         13    1    3    3    0    0  0.39636048484E+02  0.64797829285E+01  0.43905014133E+02  0.59503490287E+02  0.10566000000E+00 0.  1.
         22    1    1    0    0    0 -0.22980834216E+02  0.97922081749E+01 -0.18866042666E+02  0.31303891900E+02  0.00000000000E+00 0.  1.
</event>
<event>
 5    1  0.2295577E-004  0.9118800E+02  0.7818608E-02  0.1130116E+00
         25   -1    0    0    0    0  0.00000000000E+00  0.00000000000E+00  0.99999998245E-14  0.12500000000E+03  0.12500000000E+03 0.  0.
        -13    1    3    3    0    0 -0.34213610458E+02  0.11661408703E+02 -0.67427363901E+01  0.36770031977E+02  0.10566000000E+00 0. -1.
         23    2    1    0    0    0  0.13517473763E+02 -0.21266910852E+02 -0.15500478005E+02  0.95415064433E+02  0.90712546587E+02 0.  0.
         13    1    3    3    0    0  0.47731084221E+02 -0.32928319554E+02 -0.87577416153E+01  0.58645032456E+02  0.10566000000E+00 0.  1.
         22    1    1    0    0    0 -0.13517473763E+02  0.21266910852E+02  0.15500478005E+02  0.29584935567E+02  0.00000000000E+00 0.  1.
</event>
<event>
 5    1  0.2295577E-004  0.9118800E+02  0.7818608E-02  0.1130116E+00
         25   -1    0    0    0    0  0.00000000000E+00  0.00000000000E+00  0.99999998245E-14  0.12500000000E+03  0.12500000000E+03 0.  0.
        -13    1    3    3    0    0  0.25668336747E+02 -0.23324880619E+02  0.26329609843E+02  0.43545069592E+02  0.10566000000E+00 0.  1.
         23    2    1    0    0    0 -0.11305939060E+02 -0.24835436165E+02 -0.10506973512E+02  0.95759281132E+02  0.91185636385E+02 0.  0.
         13    1    3    3    0    0 -0.36974275806E+02 -0.15105555464E+01 -0.36836583355E+02  0.52214211540E+02  0.10566000000E+00 0. -1.
         22    1    1    0    0    0  0.11305939060E+02  0.24835436165E+02  0.10506973512E+02  0.29240718868E+02  0.00000000000E+00 0. -1.
</event>
<event>
 5    1  0.2295577E-004  0.9118800E+02  0.7818608E-02  0.1130116E+00
         25   -1    0    0    0    0  0.00000000000E+00  0.00000000000E+00  0.99999998245E-14  0.12500000000E+03  0.12500000000E+03 0.  0.
        -13    1    3    3    0    0 -0.34930066367E+02  0.13238270216E+02  0.14388947809E+02  0.40030167596E+02  0.10566000000E+00 0. -1.
         23    2    1    0    0    0  0.82786447056E+01 -0.21725696153E+02  0.17801592529E+02  0.95717948705E+02  0.91128959043E+02 0.  0.
         13    1    3    3    0    0  0.43208711072E+02 -0.34963966369E+02  0.34126447199E+01  0.55687781109E+02  0.10566000000E+00 0.  1.
         22    1    1    0    0    0 -0.82786447056E+01  0.21725696153E+02 -0.17801592529E+02  0.29282051295E+02  0.00000000000E+00 0.  1.
</event>
<event>
 5    1  0.2295577E-004  0.9118800E+02  0.7818608E-02  0.1130116E+00
         25   -1    0    0    0    0  0.00000000000E+00  0.00000000000E+00  0.99999998245E-14  0.12500000000E+03  0.12500000000E+03 0.  0.
        -13    1    3    3    0    0  0.34888650329E+02  0.12348929993E+02  0.11792781531E+02  0.38843208596E+02  0.10566000000E+00 0. -1.
         23    2    1    0    0    0 -0.21698538782E+02  0.18375369058E+02  0.43609455023E+01  0.96233724277E+02  0.91833714230E+02 0.  0.
         13    1    3    3    0    0 -0.56587189111E+02  0.60264390650E+01 -0.74318360287E+01  0.57390515681E+02  0.10566000000E+00 0.  1.
         22    1    1    0    0    0  0.21698538782E+02 -0.18375369058E+02 -0.43609455023E+01  0.28766275723E+02  0.00000000000E+00 0.  1.
</event>
<event>
 5    1  0.2295577E-004  0.9118800E+02  0.7818608E-02  0.1130116E+00
         25   -1    0    0    0    0  0.00000000000E+00  0.00000000000E+00  0.99999998245E-14  0.12500000000E+03  0.12500000000E+03 0.  0.
        -13    1    3    3    0    0 -0.17272060320E+02  0.30414013887E+02  0.28664107539E+02  0.45221438870E+02  0.10566000000E+00 0. -1.
         23    2    1    0    0    0 -0.24588550758E+02 -0.14338702074E+02  0.60255434782E+01  0.95905286051E+02  0.91385565123E+02 0.  0.
         13    1    3    3    0    0 -0.73164904387E+01 -0.44752715961E+02 -0.22638564061E+02  0.50683847181E+02  0.10566000000E+00 0.  1.
         22    1    1    0    0    0  0.24588550758E+02  0.14338702074E+02 -0.60255434782E+01  0.29094713949E+02  0.00000000000E+00 0.  1.
</event>
<event>
 5    1  0.2295577E-004  0.9118800E+02  0.7818608E-02  0.1130116E+00
         25   -1    0    0    0    0  0.00000000000E+00  0.00000000000E+00  0.99999998245E-14  0.12500000000E+03  0.12500000000E+03 0.  0.
        -13    1    3    3    0    0 -0.31814391284E+02 -0.17353430372E+02  0.19658773272E+02  0.41228334541E+02  0.10566000000E+00 0. -1.
         23    2    1    0    0    0  0.70633332984E+01 -0.18423254467E+02 -0.20091249375E+02  0.96840360729E+02  0.92655761733E+02 0.  0.
         13    1    3    3    0    0  0.38877724583E+02 -0.10698240952E+01 -0.39750022646E+02  0.55612026188E+02  0.10566000000E+00 0.  1.
         22    1    1    0    0    0 -0.70633332984E+01  0.18423254467E+02  0.20091249375E+02  0.28159639271E+02  0.00000000000E+00 0.  1.
</event>
<event>
 5    1  0.2295577E-004  0.9118800E+02  0.7818608E-02  0.1130116E+00
         25   -1    0    0    0    0  0.00000000000E+00  0.00000000000E+00  0.99999998245E-14  0.12500000000E+03  0.12500000000E+03 0.  0.
        -13    1    3    3    0    0 -0.52655052208E+02  0.27193409534E+02 -0.63139612725E+01  0.59597930469E+02  0.10566000000E+00 0.  1.
         23    2    1    0    0    0 -0.31954011256E+02  0.19078805718E+01  0.52553683475E+00  0.92984768741E+02  0.87299439776E+02 0.  0.
         13    1    3    3    0    0  0.20701040952E+02 -0.25285528962E+02  0.68394981072E+01  0.33386838272E+02  0.10566000000E+00 0. -1.
         22    1    1    0    0    0  0.31954011256E+02 -0.19078805718E+01 -0.52553683475E+00  0.32015231259E+02  0.00000000000E+00 0.  1.
</event>
<event>
 5    1  0.2295577E-004  0.9118800E+02  0.7818608E-02  0.1130116E+00
         25   -1    0    0    0    0  0.00000000000E+00  0.00000000000E+00  0.99999998245E-14  0.12500000000E+03  0.12500000000E+03 0.  0.
        -13    1    3    3    0    0  0.46323767520E+02 -0.38045704577E+02 -0.11039285479E+02  0.60952801920E+02  0.10566000000E+00 0. -1.
         23    2    1    0    0    0  0.25892195128E+02 -0.13829182533E+02  0.27698862034E+01  0.95515693536E+02  0.90851105573E+02 0.  0.
         13    1    3    3    0    0 -0.20431572392E+02  0.24216522043E+02  0.13809171682E+02  0.34562891616E+02  0.10566000000E+00 0.  1.
         22    1    1    0    0    0 -0.25892195128E+02  0.13829182533E+02 -0.27698862034E+01  0.29484306464E+02  0.00000000000E+00 0. -1.
</event>
<event>
 5    1  0.2295577E-004  0.9118800E+02  0.7818608E-02  0.1130116E+00
         25   -1    0    0    0    0  0.00000000000E+00  0.00000000000E+00  0.99999998245E-14  0.12500000000E+03  0.12500000000E+03 0.  0.
        -13    1    3    3    0    0  0.27790891871E+02 -0.20247345982E+02 -0.81313582329E+01  0.35332971019E+02  0.10566000000E+00 0.  1.
         23    2    1    0    0    0 -0.66782141882E+01  0.28580832657E+02 -0.23392400418E-01  0.95649308571E+02  0.91034757883E+02 0.  0.
         13    1    3    3    0    0 -0.34469106059E+02  0.48828178639E+02  0.81079658325E+01  0.60316337552E+02  0.10566000000E+00 0. -1.
         22    1    1    0    0    0  0.66782141882E+01 -0.28580832657E+02  0.23392400418E-01  0.29350691429E+02  0.00000000000E+00 0. -1.
</event>
<event>
 5    1  0.2295577E-004  0.9118800E+02  0.7818608E-02  0.1130116E+00
         25   -1    0    0    0    0  0.00000000000E+00  0.00000000000E+00  0.99999998245E-14  0.12500000000E+03  0.12500000000E+03 0.  0.
        -13    1    3    3    0    0  0.17563548666E+02  0.10832577018E+01 -0.39583107811E+02  0.43318417296E+02  0.10566000000E+00 0.  1.
         23    2    1    0    0    0  0.19466112624E+02  0.20303920477E+02  0.88921798027E+01  0.95500006964E+02  0.90829520207E+02 0.  0.
         13    1    3    3    0    0  0.19025639582E+01  0.19220662775E+02  0.48475287613E+02  0.52181589669E+02  0.10566000000E+00 0. -1.
         22    1    1    0    0    0 -0.19466112624E+02 -0.20303920477E+02 -0.88921798027E+01  0.29499993036E+02  0.00000000000E+00 0. -1.
</event>
<event>
 5    1  0.2295577E-004  0.9118800E+02  0.7818608E-02  0.1130116E+00
         25   -1    0    0    0    0  0.00000000000E+00  0.00000000000E+00  0.99999998245E-14  0.12500000000E+03  0.12500000000E+03 0.  0.
        -13    1    3    3    0    0  0.80397473794E+01 -0.33261597085E+02  0.16341886954E+02  0.37921495380E+02  0.10566000000E+00 0. -1.
         23    2    1    0    0    0 -0.18741700352E+02 -0.21122123859E+00 -0.22631657055E+02  0.95614836268E+02  0.90987411585E+02 0.  0.
         13    1    3    3    0    0 -0.26781447732E+02  0.33050375847E+02 -0.38973544009E+02  0.57693340888E+02  0.10566000000E+00 0.  1.
         22    1    1    0    0    0  0.18741700352E+02  0.21122123859E+00  0.22631657055E+02  0.29385163732E+02  0.00000000000E+00 0.  1.
</event>
<event>
 5    1  0.2295577E-004  0.9118800E+02  0.7818608E-02  0.1130116E+00
         25   -1    0    0    0    0  0.00000000000E+00  0.00000000000E+00  0.99999998245E-14  0.12500000000E+03  0.12500000000E+03 0.  0.
        -13    1    3    3    0    0 -0.35307936539E+02  0.19554215234E+02 -0.50202962710E+01  0.40672254114E+02  0.10566000000E+00 0. -1.
         23    2    1    0    0    0 -0.23039288485E+01 -0.19727467260E+02  0.19170856896E+02  0.97395601677E+02  0.93401822356E+02 0.  0.
         13    1    3    3    0    0  0.33004007691E+02 -0.39281682493E+02  0.24191153167E+02  0.56723347563E+02  0.10566000000E+00 0.  1.
         22    1    1    0    0    0  0.23039288485E+01  0.19727467260E+02 -0.19170856896E+02  0.27604398323E+02  0.00000000000E+00 0.  1.
</event>
<event>
 5    1  0.2295577E-004  0.9118800E+02  0.7818608E-02  0.1130116E+00
         25   -1    0    0    0    0  0.00000000000E+00  0.00000000000E+00  0.99999998245E-14  0.12500000000E+03  0.12500000000E+03 0.  0.
        -13    1    3    3    0    0 -0.54704690213E+01  0.12089404276E+02  0.35451428585E+02  0.37853595335E+02  0.10566000000E+00 0. -1.
         23    2    1    0    0    0  0.27914168722E+02 -0.45004491382E+00 -0.97494750659E+01  0.95428804219E+02  0.90731477751E+02 0.  0.
         13    1    3    3    0    0  0.33384637743E+02 -0.12539449189E+02 -0.45200903651E+02  0.57575208884E+02  0.10566000000E+00 0.  1.
         22    1    1    0    0    0 -0.27914168722E+02  0.45004491382E+00  0.97494750659E+01  0.29571195781E+02  0.00000000000E+00 0.  1.
</event>
<event>
 5    1  0.2295577E-004  0.9118800E+02  0.7818608E-02  0.1130116E+00
         25   -1    0    0    0    0  0.00000000000E+00  0.00000000000E+00  0.99999998245E-14  0.12500000000E+03  0.12500000000E+03 0.  0.
        -13    1    3    3    0    0 -0.11744057546E+02 -0.55685966038E+00  0.23071998269E+02  0.25895197402E+02  0.10566000000E+00 0. -1.
         23    2    1    0    0    0  0.12760870683E+02 -0.42409036868E+02 -0.23454922805E+01  0.80650619365E+02  0.67362117257E+02 0.  0.
         13    1    3    3    0    0  0.24504928229E+02 -0.41852177207E+02 -0.25417490550E+02  0.54755421963E+02  0.10566000000E+00 0.  1.
         22    1    1    0    0    0 -0.12760870683E+02  0.42409036868E+02  0.23454922805E+01  0.44349380635E+02  0.00000000000E+00 0.  1.
</event>
<event>
 5    1  0.2295577E-004  0.9118800E+02  0.7818608E-02  0.1130116E+00
         25   -1    0    0    0    0  0.00000000000E+00  0.00000000000E+00  0.99999998245E-14  0.12500000000E+03  0.12500000000E+03 0.  0.
        -13    1    3    3    0    0  0.11622769415E+02  0.55840973461E+02 -0.69314758154E+01  0.57457459106E+02  0.10566000000E+00 0.  1.
         23    2    1    0    0    0 -0.12251249583E+02  0.25530083065E+02  0.12927420291E+00  0.96682249922E+02  0.92442211573E+02 0.  0.
         13    1    3    3    0    0 -0.23874018998E+02 -0.30310890395E+02  0.70607500183E+01  0.39224790816E+02  0.10566000000E+00 0. -1.
         22    1    1    0    0    0  0.12251249583E+02 -0.25530083065E+02 -0.12927420291E+00  0.28317750078E+02  0.00000000000E+00 0.  1.
</event>
<event>
 5    1  0.2295577E-004  0.9118800E+02  0.7818608E-02  0.1130116E+00
         25   -1    0    0    0    0  0.00000000000E+00  0.00000000000E+00  0.99999998245E-14  0.12500000000E+03  0.12500000000E+03 0.  0.
        -13    1    3    3    0    0 -0.39591943301E+02 -0.39305005329E+02  0.21411441783E+02  0.59756726998E+02  0.10566000000E+00 0. -1.
         23    2    1    0    0    0 -0.19729929902E+02 -0.21408349758E+02 -0.27035748692E+01  0.95761380156E+02  0.91188513745E+02 0.  0.
         13    1    3    3    0    0  0.19862013399E+02  0.17896655571E+02 -0.24115016652E+02  0.36004653158E+02  0.10566000000E+00 0.  1.
         22    1    1    0    0    0  0.19729929902E+02  0.21408349758E+02  0.27035748692E+01  0.29238619844E+02  0.00000000000E+00 0. -1.
</event>
<event>
 5    1  0.2295577E-004  0.9118800E+02  0.7818608E-02  0.1130116E+00
         25   -1    0    0    0    0  0.00000000000E+00  0.00000000000E+00  0.99999998245E-14  0.12500000000E+03  0.12500000000E+03 0.  0.
        -13    1    3    3    0    0  0.31198541129E+02 -0.35926080408E+02  0.48358674156E+01  0.47827073920E+02  0.10566000000E+00 0. -1.
         23    2    1    0    0    0  0.33308984993E+01 -0.12803005996E+02 -0.26284519006E+02  0.95574028703E+02  0.90931332201E+02 0.  0.
         13    1    3    3    0    0 -0.27867642630E+02  0.23123074412E+02 -0.31120386422E+02  0.47746954783E+02  0.10566000000E+00 0.  1.
         22    1    1    0    0    0 -0.33308984993E+01  0.12803005996E+02  0.26284519006E+02  0.29425971297E+02  0.00000000000E+00 0. -1.
</event>
<event>
 5    1  0.2295577E-004  0.9118800E+02  0.7818608E-02  0.1130116E+00
         25   -1    0    0    0    0  0.00000000000E+00  0.00000000000E+00  0.99999998245E-14  0.12500000000E+03  0.12500000000E+03 0.  0.
        -13    1    3    3    0    0 -0.27505880416E+02 -0.24231480294E+02 -0.35223948437E+01  0.36826030524E+02  0.10566000000E+00 0. -1.
         23    2    1    0    0    0  0.23124875605E+02 -0.15431414331E+01  0.17291847903E+02  0.96083756102E+02  0.91629356789E+02 0.  0.
         13    1    3    3    0    0  0.50630756021E+02  0.22688338861E+02  0.20814242747E+02  0.59257725578E+02  0.10566000000E+00 0.  1.
         22    1    1    0    0    0 -0.23124875605E+02  0.15431414331E+01 -0.17291847903E+02  0.28916243898E+02  0.00000000000E+00 0.  1.
</event>
<event>
 5    1  0.2295577E-004  0.9118800E+02  0.7818608E-02  0.1130116E+00
         25   -1    0    0    0    0  0.00000000000E+00  0.00000000000E+00  0.99999998245E-14  0.12500000000E+03  0.12500000000E+03 0.  0.
        -13    1    3    3    0    0 -0.52383898757E+02 -0.13583660446E+02 -0.52627671891E+01  0.54371836116E+02  0.10566000000E+00 0. -1.
         23    2    1    0    0    0 -0.14870434513E+02 -0.22237922764E+02  0.10882963685E+02  0.96119315624E+02  0.91677853957E+02 0.  0.
         13    1    3    3    0    0  0.37513464244E+02 -0.86542623175E+01  0.16145730874E+02  0.41747479509E+02  0.10566000000E+00 0.  1.
         22    1    1    0    0    0  0.14870434513E+02  0.22237922764E+02 -0.10882963685E+02  0.28880684376E+02  0.00000000000E+00 0. -1.
</event>
<event>
 5    1  0.2295577E-004  0.9118800E+02  0.7818608E-02  0.1130116E+00
         25   -1    0    0    0    0  0.00000000000E+00  0.00000000000E+00  0.99999998245E-14  0.12500000000E+03  0.12500000000E+03 0.  0.
        -13    1    3    3    0    0 -0.25106976051E+02 -0.47898692012E+02 -0.18135543097E+02  0.57039933646E+02  0.10566000000E+00 0.  1.
         23    2    1    0    0    0 -0.21959098407E+02 -0.15357827869E+02  0.58304572275E+01  0.97576303839E+02  0.93643344449E+02 0.  0.
         13    1    3    3    0    0  0.31478776445E+01  0.32540864143E+02  0.23966000324E+02  0.40536370193E+02  0.10566000000E+00 0. -1.
         22    1    1    0    0    0  0.21959098407E+02  0.15357827869E+02 -0.58304572275E+01  0.27423696161E+02  0.00000000000E+00 0.  1.
</event>
<event>
 5    1  0.2295577E-004  0.9118800E+02  0.7818608E-02  0.1130116E+00
         25   -1    0    0    0    0  0.00000000000E+00  0.00000000000E+00  0.99999998245E-14  0.12500000000E+03  0.12500000000E+03 0.  0.
        -13    1    3    3    0    0  0.47971384055E+02  0.28360385677E+02 -0.24918745752E+02  0.61045230918E+02  0.10566000000E+00 0. -1.
         23    2    1    0    0    0  0.33263787607E+02  0.10054950806E+02 -0.10102179494E+02  0.88811111758E+02  0.81103501401E+02 0.  0.
         13    1    3    3    0    0 -0.14707596448E+02 -0.18305434872E+02  0.14816566259E+02  0.27765880841E+02  0.10566000000E+00 0.  1.
         22    1    1    0    0    0 -0.33263787607E+02 -0.10054950806E+02  0.10102179494E+02  0.36188888242E+02  0.00000000000E+00 0. -1.
</event>
<event>
 5    1  0.2295577E-004  0.9118800E+02  0.7818608E-02  0.1130116E+00
         25   -1    0    0    0    0  0.00000000000E+00  0.00000000000E+00  0.99999998245E-14  0.12500000000E+03  0.12500000000E+03 0.  0.
        -13    1    3    3    0    0  0.31587821754E+01 -0.32111458067E+02  0.11765363819E+02  0.34344702559E+02  0.10566000000E+00 0.  1.
         23    2    1    0    0    0 -0.76222200275E+01  0.20672314960E+02 -0.18581791946E+02  0.96177685106E+02  0.91757404477E+02 0.  0.
         13    1    3    3    0    0 -0.10781002203E+02  0.52783773028E+02 -0.30347155765E+02  0.61832982546E+02  0.10566000000E+00 0. -1.
         22    1    1    0    0    0  0.76222200275E+01 -0.20672314960E+02  0.18581791946E+02  0.28822314894E+02  0.00000000000E+00 0. -1.
</event>
<event>
 5    1  0.2295577E-004  0.9118800E+02  0.7818608E-02  0.1130116E+00
         25   -1    0    0    0    0  0.00000000000E+00  0.00000000000E+00  0.99999998245E-14  0.12500000000E+03  0.12500000000E+03 0.  0.
        -13    1    3    3    0    0 -0.23802261139E+02 -0.42871683179E+02 -0.23141566645E+02  0.54222431933E+02  0.10566000000E+00 0.  1.
         23    2    1    0    0    0 -0.25844194184E+02 -0.27316412722E+01 -0.14155140544E+02  0.95406888625E+02  0.90701279793E+02 0.  0.
         13    1    3    3    0    0 -0.20419330457E+01  0.40140041907E+02  0.89864261017E+01  0.41184456691E+02  0.10566000000E+00 0. -1.
         22    1    1    0    0    0  0.25844194184E+02  0.27316412722E+01  0.14155140544E+02  0.29593111375E+02  0.00000000000E+00 0.  1.
</event>
<event>
 5    1  0.2295577E-004  0.9118800E+02  0.7818608E-02  0.1130116E+00
         25   -1    0    0    0    0  0.00000000000E+00  0.00000000000E+00  0.99999998245E-14  0.12500000000E+03  0.12500000000E+03 0.  0.
        -13    1    3    3    0    0  0.56246436991E+02 -0.14836804035E+02  0.88143263875E+01  0.58834479192E+02  0.10566000000E+00 0. -1.
         23    2    1    0    0    0  0.23404989401E+02 -0.16060529591E+02 -0.76632342141E+01  0.95598311304E+02  0.90964706485E+02 0.  0.
         13    1    3    3    0    0 -0.32841447590E+02 -0.12237255563E+01 -0.16477560602E+02  0.36763832111E+02  0.10566000000E+00 0.  1.
         22    1    1    0    0    0 -0.23404989401E+02  0.16060529591E+02  0.76632342141E+01  0.29401688696E+02  0.00000000000E+00 0. -1.
</event>
<event>
 5    1  0.2295577E-004  0.9118800E+02  0.7818608E-02  0.1130116E+00
         25   -1    0    0    0    0  0.00000000000E+00  0.00000000000E+00  0.99999998245E-14  0.12500000000E+03  0.12500000000E+03 0.  0.
        -13    1    3    3    0    0  0.26240061629E+02  0.16207771597E+02  0.10085475477E+02  0.32449355527E+02  0.10566000000E+00 0. -1.
         23    2    1    0    0    0 -0.18017528739E+02 -0.29693195140E+00 -0.27024556722E+02  0.92518525642E+02  0.86629275713E+02 0.  0.
         13    1    3    3    0    0 -0.44257590368E+02 -0.16504703549E+02 -0.37110032200E+02  0.60069170115E+02  0.10566000000E+00 0.  1.
         22    1    1    0    0    0  0.18017528739E+02  0.29693195140E+00  0.27024556722E+02  0.32481474358E+02  0.00000000000E+00 0.  1.
</event>
<event>
 5    1  0.2295577E-004  0.9118800E+02  0.7818608E-02  0.1130116E+00
         25   -1    0    0    0    0  0.00000000000E+00  0.00000000000E+00  0.99999998245E-14  0.12500000000E+03  0.12500000000E+03 0.  0.
        -13    1    3    3    0    0  0.12301916701E+02  0.12075453507E+02 -0.29086238741E+02  0.33810858907E+02  0.10566000000E+00 0.  1.
         23    2    1    0    0    0 -0.92282437937E+01  0.44858699815E+01  0.27939260868E+02  0.95236166059E+02  0.90465692474E+02 0.  0.
         13    1    3    3    0    0 -0.21530160495E+02 -0.75895835256E+01  0.57025499609E+02  0.61425307152E+02  0.10566000000E+00 0. -1.
         22    1    1    0    0    0  0.92282437937E+01 -0.44858699815E+01 -0.27939260868E+02  0.29763833941E+02  0.00000000000E+00 0. -1.
</event>
<event>
 5    1  0.2295577E-004  0.9118800E+02  0.7818608E-02  0.1130116E+00
         25   -1    0    0    0    0  0.00000000000E+00  0.00000000000E+00  0.99999998245E-14  0.12500000000E+03  0.12500000000E+03 0.  0.
        -13    1    3    3    0    0  0.23585514625E+02 -0.22281476602E+02  0.97443966392E+01  0.33877797000E+02  0.10566000000E+00 0. -1.
         23    2    1    0    0    0 -0.18274851689E+02  0.22564386194E+02  0.60771944060E+01  0.95334295552E+02  0.90601180389E+02 0.  0.
         13    1    3    3    0    0 -0.41860366315E+02  0.44845862796E+02 -0.36672022331E+01  0.61456498551E+02  0.10566000000E+00 0.  1.
         22    1    1    0    0    0  0.18274851689E+02 -0.22564386194E+02 -0.60771944060E+01  0.29665704448E+02  0.00000000000E+00 0.  1.
</event>
<event>
 5    1  0.2295577E-004  0.9118800E+02  0.7818608E-02  0.1130116E+00
         25   -1    0    0    0    0  0.00000000000E+00  0.00000000000E+00  0.99999998245E-14  0.12500000000E+03  0.12500000000E+03 0.  0.
        -13    1    3    3    0    0 -0.22279121847E+02 -0.37838065714E+02  0.10453968686E+02  0.45137291817E+02  0.10566000000E+00 0.  1.
         23    2    1    0    0    0 -0.20429158094E+02  0.13449167228E+02  0.14413013208E+02  0.96610467610E+02  0.92345096798E+02 0.  0.
         13    1    3    3    0    0  0.18499637534E+01  0.51287232942E+02  0.39590445216E+01  0.51473175793E+02  0.10566000000E+00 0. -1.
         22    1    1    0    0    0  0.20429158094E+02 -0.13449167228E+02 -0.14413013208E+02  0.28389532390E+02  0.00000000000E+00 0. -1.
</event>
<event>
 5    1  0.2295577E-004  0.9118800E+02  0.7818608E-02  0.1130116E+00
         25   -1    0    0    0    0  0.00000000000E+00  0.00000000000E+00  0.99999998245E-14  0.12500000000E+03  0.12500000000E+03 0.  0.
        -13    1    3    3    0    0 -0.32790858684E+01 -0.41105990729E+02 -0.28452830230E+02  0.50100195510E+02  0.10566000000E+00 0. -1.
         23    2    1    0    0    0  0.90442958796E+01  0.20448067460E+01 -0.28555780963E+02  0.94976456755E+02  0.90106127365E+02 0.  0.
         13    1    3    3    0    0  0.12323381748E+02  0.43150797475E+02 -0.10295073237E+00  0.44876261245E+02  0.10566000000E+00 0.  1.
         22    1    1    0    0    0 -0.90442958796E+01 -0.20448067460E+01  0.28555780963E+02  0.30023543245E+02  0.00000000000E+00 0. -1.
</event>
<event>
 5    1  0.2295577E-004  0.9118800E+02  0.7818608E-02  0.1130116E+00
         25   -1    0    0    0    0  0.00000000000E+00  0.00000000000E+00  0.99999998245E-14  0.12500000000E+03  0.12500000000E+03 0.  0.
        -13    1    3    3    0    0 -0.46030877736E+02 -0.27498893332E+02  0.18167628635E+02  0.56613644414E+02  0.10566000000E+00 0. -1.
         23    2    1    0    0    0 -0.21881600411E+02 -0.89904000318E+01  0.27770508432E+02  0.88519417935E+02  0.80652678093E+02 0.  0.
         13    1    3    3    0    0  0.24149277324E+02  0.18508493300E+02  0.96028797969E+01  0.31905773521E+02  0.10566000000E+00 0.  1.
         22    1    1    0    0    0  0.21881600411E+02  0.89904000318E+01 -0.27770508432E+02  0.36480582065E+02  0.00000000000E+00 0. -1.
</event>
<event>
 5    1  0.2295577E-004  0.9118800E+02  0.7818608E-02  0.1130116E+00
         25   -1    0    0    0    0  0.00000000000E+00  0.00000000000E+00  0.99999998245E-14  0.12500000000E+03  0.12500000000E+03 0.  0.
        -13    1    3    3    0    0 -0.13835108916E+02 -0.39996736073E+02 -0.22671941659E+02  0.48012261328E+02  0.10566000000E+00 0.  1.
         23    2    1    0    0    0  0.14298182688E+02 -0.88108905834E+01 -0.29972615252E+02  0.90642650188E+02  0.83878856376E+02 0.  0.
         13    1    3    3    0    0  0.28133291603E+02  0.31185845490E+02 -0.73006735935E+01  0.42630388860E+02  0.10566000000E+00 0. -1.
         22    1    1    0    0    0 -0.14298182688E+02  0.88108905834E+01  0.29972615252E+02  0.34357349812E+02  0.00000000000E+00 0.  1.
</event>
<event>
 5    1  0.2295577E-004  0.9118800E+02  0.7818608E-02  0.1130116E+00
         25   -1    0    0    0    0  0.00000000000E+00  0.00000000000E+00  0.99999998245E-14  0.12500000000E+03  0.12500000000E+03 0.  0.
        -13    1    3    3    0    0  0.33283519496E+02  0.12304886816E+02  0.54911839946E+01  0.35907759263E+02  0.10566000000E+00 0.  1.
         23    2    1    0    0    0 -0.66747158759E+01 -0.29326510112E+02 -0.48592415653E+01  0.94533489600E+02  0.89489509999E+02 0.  0.
         13    1    3    3    0    0 -0.39958235372E+02 -0.41631396928E+02 -0.10350425560E+02  0.58625730337E+02  0.10566000000E+00 0. -1.
         22    1    1    0    0    0  0.66747158759E+01  0.29326510112E+02  0.48592415653E+01  0.30466510400E+02  0.00000000000E+00 0. -1.
</event>
<event>
 5    1  0.2295577E-004  0.9118800E+02  0.7818608E-02  0.1130116E+00
         25   -1    0    0    0    0  0.00000000000E+00  0.00000000000E+00  0.99999998245E-14  0.12500000000E+03  0.12500000000E+03 0.  0.
        -13    1    3    3    0    0  0.27180007594E+02 -0.36155207109E+02 -0.67422329529E+01  0.45732053126E+02  0.10566000000E+00 0.  1.
         23    2    1    0    0    0  0.22833346866E+02  0.74304397545E+01 -0.22314991929E+02  0.92219944649E+02  0.86197367490E+02 0.  0.
         13    1    3    3    0    0 -0.43466607277E+01  0.43585646864E+02 -0.15572758976E+02  0.46487891522E+02  0.10566000000E+00 0. -1.
         22    1    1    0    0    0 -0.22833346866E+02 -0.74304397545E+01  0.22314991929E+02  0.32780055351E+02  0.00000000000E+00 0. -1.
</event>
<event>
 5    1  0.2295577E-004  0.9118800E+02  0.7818608E-02  0.1130116E+00
         25   -1    0    0    0    0  0.00000000000E+00  0.00000000000E+00  0.99999998245E-14  0.12500000000E+03  0.12500000000E+03 0.  0.
        -13    1    3    3    0    0  0.56522740396E+02 -0.11064425355E+02 -0.10841714078E+02  0.58607129417E+02  0.10566000000E+00 0.  1.
         23    2    1    0    0    0  0.27894890745E+02 -0.64778697164E+00  0.98231779885E+01  0.95418935390E+02  0.90717880528E+02 0.  0.
         13    1    3    3    0    0 -0.28627849651E+02  0.10416638383E+02  0.20664892067E+02  0.36811805973E+02  0.10566000000E+00 0. -1.
         22    1    1    0    0    0 -0.27894890745E+02  0.64778697164E+00 -0.98231779885E+01  0.29581064610E+02  0.00000000000E+00 0.  1.
</event>
<event>
 5    1  0.2295577E-004  0.9118800E+02  0.7818608E-02  0.1130116E+00
         25   -1    0    0    0    0  0.00000000000E+00  0.00000000000E+00  0.99999998245E-14  0.12500000000E+03  0.12500000000E+03 0.  0.
        -13    1    3    3    0    0  0.20298710602E+02 -0.50964437944E+02  0.26578100313E+02  0.60957511164E+02  0.10566000000E+00 0. -1.
         23    2    1    0    0    0  0.27537297093E+01 -0.22986594700E+02  0.19498198855E+02  0.94732090892E+02  0.89766489978E+02 0.  0.
         13    1    3    3    0    0 -0.17544980892E+02  0.27977843244E+02 -0.70799014581E+01  0.33774579728E+02  0.10566000000E+00 0.  1.
         22    1    1    0    0    0 -0.27537297093E+01  0.22986594700E+02 -0.19498198855E+02  0.30267909108E+02  0.00000000000E+00 0. -1.
</event>
<event>
 5    1  0.2295577E-004  0.9118800E+02  0.7818608E-02  0.1130116E+00
         25   -1    0    0    0    0  0.00000000000E+00  0.00000000000E+00  0.99999998245E-14  0.12500000000E+03  0.12500000000E+03 0.  0.
        -13    1    3    3    0    0 -0.54589660006E+00 -0.29337983811E+02  0.18231253981E+02  0.34545695578E+02  0.10566000000E+00 0.  1.
         23    2    1    0    0    0 -0.21314251226E+02  0.11291461716E+02 -0.19679896619E+02  0.93869745521E+02  0.88557531470E+02 0.  0.
         13    1    3    3    0    0 -0.20768354626E+02  0.40629445528E+02 -0.37911150600E+02  0.59324049943E+02  0.10566000000E+00 0. -1.
         22    1    1    0    0    0  0.21314251226E+02 -0.11291461716E+02  0.19679896619E+02  0.31130254479E+02  0.00000000000E+00 0.  1.
</event>
<event>
 5    1  0.2295577E-004  0.9118800E+02  0.7818608E-02  0.1130116E+00
         25   -1    0    0    0    0  0.00000000000E+00  0.00000000000E+00  0.99999998245E-14  0.12500000000E+03  0.12500000000E+03 0.  0.
        -13    1    3    3    0    0 -0.52719879710E+02 -0.54346046469E+01  0.23834649937E+02  0.58112153169E+02  0.10566000000E+00 0.  1.
         23    2    1    0    0    0 -0.23887625063E+02  0.13508173010E+02  0.15007646408E+02  0.93721911505E+02  0.88348615588E+02 0.  0.
         13    1    3    3    0    0  0.28832254647E+02  0.18942777657E+02 -0.88270035290E+01  0.35609758336E+02  0.10566000000E+00 0. -1.
         22    1    1    0    0    0  0.23887625063E+02 -0.13508173010E+02 -0.15007646408E+02  0.31278088495E+02  0.00000000000E+00 0.  1.
</event>
<event>
 5    1  0.2295577E-004  0.9118800E+02  0.7818608E-02  0.1130116E+00
         25   -1    0    0    0    0  0.00000000000E+00  0.00000000000E+00  0.99999998245E-14  0.12500000000E+03  0.12500000000E+03 0.  0.
        -13    1    3    3    0    0  0.32095736570E+02  0.24004625179E+02 -0.20508227147E+02  0.45021737869E+02  0.10566000000E+00 0. -1.
         23    2    1    0    0    0  0.20233496728E+02  0.14346417107E+01  0.22304054043E+02  0.94851643272E+02  0.89932812799E+02 0.  0.
         13    1    3    3    0    0 -0.11862239843E+02 -0.22569983468E+02  0.42812281189E+02  0.49829905403E+02  0.10566000000E+00 0.  1.
         22    1    1    0    0    0 -0.20233496728E+02 -0.14346417107E+01 -0.22304054043E+02  0.30148356728E+02  0.00000000000E+00 0.  1.
</event>
<event>
 5    1  0.2295577E-004  0.9118800E+02  0.7818608E-02  0.1130116E+00
         25   -1    0    0    0    0  0.00000000000E+00  0.00000000000E+00  0.99999998245E-14  0.12500000000E+03  0.12500000000E+03 0.  0.
        -13    1    3    3    0    0  0.33255583715E+02  0.42379494474E+02 -0.27306924027E+02  0.60395651035E+02  0.10566000000E+00 0.  1.
         23    2    1    0    0    0  0.22755174381E+02  0.11279856669E+02 -0.15315086648E+02  0.95342201588E+02  0.90612087478E+02 0.  0.
         13    1    3    3    0    0 -0.10500409334E+02 -0.31099637805E+02  0.11991837380E+02  0.34946550553E+02  0.10566000000E+00 0. -1.
         22    1    1    0    0    0 -0.22755174381E+02 -0.11279856669E+02  0.15315086648E+02  0.29657798412E+02  0.00000000000E+00 0.  1.
</event>
<event>
 5    1  0.2295577E-004  0.9118800E+02  0.7818608E-02  0.1130116E+00
         25   -1    0    0    0    0  0.00000000000E+00  0.00000000000E+00  0.99999998245E-14  0.12500000000E+03  0.12500000000E+03 0.  0.
        -13    1    3    3    0    0 -0.32457498453E+02 -0.69009916949E+01 -0.35959973628E+02  0.48931010204E+02  0.10566000000E+00 0. -1.
         23    2    1    0    0    0  0.13766975521E+02 -0.88407585838E+01 -0.22623767514E+02  0.97080052223E+02  0.92978562345E+02 0.  0.
         13    1    3    3    0    0  0.46224473974E+02 -0.19397668889E+01  0.13336206114E+02  0.48149042019E+02  0.10566000000E+00 0.  1.
         22    1    1    0    0    0 -0.13766975521E+02  0.88407585838E+01  0.22623767514E+02  0.27919947777E+02  0.00000000000E+00 0.  1.
</event>
<event>
 5    1  0.2295577E-004  0.9118800E+02  0.7818608E-02  0.1130116E+00
         25   -1    0    0    0    0  0.00000000000E+00  0.00000000000E+00  0.99999998245E-14  0.12500000000E+03  0.12500000000E+03 0.  0.
        -13    1    3    3    0    0  0.61643516363E+01 -0.57177650028E+01  0.22855290591E+02  0.24352978047E+02  0.10566000000E+00 0.  1.
         23    2    1    0    0    0  0.25808187168E+02 -0.21162045863E+02 -0.28271857917E+02  0.81259942157E+02  0.68483469095E+02 0.  0.
         13    1    3    3    0    0  0.19643835532E+02 -0.15444280860E+02 -0.51127148508E+02  0.56906964110E+02  0.10566000000E+00 0. -1.
         22    1    1    0    0    0 -0.25808187168E+02  0.21162045863E+02  0.28271857917E+02  0.43740057843E+02  0.00000000000E+00 0. -1.
</event>
<event>
 5    1  0.2295577E-004  0.9118800E+02  0.7818608E-02  0.1130116E+00
         25   -1    0    0    0    0  0.00000000000E+00  0.00000000000E+00  0.99999998245E-14  0.12500000000E+03  0.12500000000E+03 0.  0.
        -13    1    3    3    0    0  0.29082870945E+02 -0.25208879332E+02  0.29926186079E+02  0.48753346110E+02  0.10566000000E+00 0.  1.
         23    2    1    0    0    0  0.40389907370E+01  0.16436923732E+02  0.20773809917E+02  0.98203785968E+02  0.94477227373E+02 0.  0.
         13    1    3    3    0    0 -0.25043880208E+02  0.41645803065E+02 -0.91523761620E+01  0.49450439859E+02  0.10566000000E+00 0. -1.
         22    1    1    0    0    0 -0.40389907370E+01 -0.16436923732E+02 -0.20773809917E+02  0.26796214032E+02  0.00000000000E+00 0.  1.
</event>
<event>
 5    1  0.2295577E-004  0.9118800E+02  0.7818608E-02  0.1130116E+00
         25   -1    0    0    0    0  0.00000000000E+00  0.00000000000E+00  0.99999998245E-14  0.12500000000E+03  0.12500000000E+03 0.  0.
        -13    1    3    3    0    0  0.53899687499E+02 -0.50921643907E+01  0.56816183125E+01  0.54437105005E+02  0.10566000000E+00 0.  1.
         23    2    1    0    0    0  0.17881197611E+02  0.13797136120E+02  0.17089294425E+02  0.96677885371E+02  0.92436309656E+02 0.  0.
         13    1    3    3    0    0 -0.36018489888E+02  0.18889300510E+02  0.11407676113E+02  0.42240780366E+02  0.10566000000E+00 0. -1.
         22    1    1    0    0    0 -0.17881197611E+02 -0.13797136120E+02 -0.17089294425E+02  0.28322114629E+02  0.00000000000E+00 0.  1.
</event>
<event>
 5    1  0.2295577E-004  0.9118800E+02  0.7818608E-02  0.1130116E+00
         25   -1    0    0    0    0  0.00000000000E+00  0.00000000000E+00  0.99999998245E-14  0.12500000000E+03  0.12500000000E+03 0.  0.
        -13    1    3    3    0    0  0.16485486867E+02 -0.46430362510E+02  0.19203263216E+02  0.52880301835E+02  0.10566000000E+00 0. -1.
         23    2    1    0    0    0 -0.32780218577E+01 -0.25486129707E+02 -0.13101290318E+02  0.96156767817E+02  0.91728904682E+02 0.  0.
         13    1    3    3    0    0 -0.19763508725E+02  0.20944232802E+02 -0.32304553534E+02  0.43276465982E+02  0.10566000000E+00 0.  1.
         22    1    1    0    0    0  0.32780218577E+01  0.25486129707E+02  0.13101290318E+02  0.28843232183E+02  0.00000000000E+00 0. -1.
</event>
<event>
 5    1  0.2295577E-004  0.9118800E+02  0.7818608E-02  0.1130116E+00
         25   -1    0    0    0    0  0.00000000000E+00  0.00000000000E+00  0.99999998245E-14  0.12500000000E+03  0.12500000000E+03 0.  0.
        -13    1    3    3    0    0  0.11099128966E+02  0.31628131521E+02 -0.42430078217E+02  0.54072655463E+02  0.10566000000E+00 0.  1.
         23    2    1    0    0    0 -0.30854722608E+01  0.29589597863E+02 -0.41316714830E+01  0.94964435247E+02  0.90089448948E+02 0.  0.
         13    1    3    3    0    0 -0.14184601227E+02 -0.20385336572E+01  0.38298406734E+02  0.40891779784E+02  0.10566000000E+00 0. -1.
         22    1    1    0    0    0  0.30854722608E+01 -0.29589597863E+02  0.41316714830E+01  0.30035564753E+02  0.00000000000E+00 0.  1.
</event>
<event>
 5    1  0.2295577E-004  0.9118800E+02  0.7818608E-02  0.1130116E+00
         25   -1    0    0    0    0  0.00000000000E+00  0.00000000000E+00  0.99999998245E-14  0.12500000000E+03  0.12500000000E+03 0.  0.
        -13    1    3    3    0    0 -0.36613630049E+02  0.10074042784E+02  0.10448821781E+02  0.39385698978E+02  0.10566000000E+00 0.  1.
         23    2    1    0    0    0 -0.17256495530E+00 -0.27109517798E+02 -0.11064903079E+02  0.95718814675E+02  0.91130146871E+02 0.  0.
         13    1    3    3    0    0  0.36441065093E+02 -0.37183560581E+02 -0.21513724861E+02  0.56333115696E+02  0.10566000000E+00 0. -1.
         22    1    1    0    0    0  0.17256495530E+00  0.27109517798E+02  0.11064903079E+02  0.29281185325E+02  0.00000000000E+00 0. -1.
</event>
<event>
 5    1  0.2295577E-004  0.9118800E+02  0.7818608E-02  0.1130116E+00
         25   -1    0    0    0    0  0.00000000000E+00  0.00000000000E+00  0.99999998245E-14  0.12500000000E+03  0.12500000000E+03 0.  0.
        -13    1    3    3    0    0 -0.20598299854E+02  0.21145558397E+02  0.41305053819E+01  0.29807664040E+02  0.10566000000E+00 0.  1.
         23    2    1    0    0    0  0.13727361843E+02 -0.19316858761E+02 -0.25177038653E+02  0.90424506209E+02  0.83553136100E+02 0.  0.
         13    1    3    3    0    0  0.34325661697E+02 -0.40462417158E+02 -0.29307544035E+02  0.60616842169E+02  0.10566000000E+00 0. -1.
         22    1    1    0    0    0 -0.13727361843E+02  0.19316858761E+02  0.25177038653E+02  0.34575493791E+02  0.00000000000E+00 0. -1.
</event>
<event>
 5    1  0.2295577E-004  0.9118800E+02  0.7818608E-02  0.1130116E+00
         25   -1    0    0    0    0  0.00000000000E+00  0.00000000000E+00  0.99999998245E-14  0.12500000000E+03  0.12500000000E+03 0.  0.
        -13    1    3    3    0    0  0.52114097825E+02  0.79985605821E+01 -0.28770307168E+02  0.60063282479E+02  0.10566000000E+00 0.  1.
         23    2    1    0    0    0  0.22968069370E+02 -0.85305007544E+01 -0.14874125671E+02  0.96337458798E+02  0.91974804699E+02 0.  0.
         13    1    3    3    0    0 -0.29146028455E+02 -0.16529061337E+02  0.13896181497E+02  0.36274176319E+02  0.10566000000E+00 0. -1.
         22    1    1    0    0    0 -0.22968069370E+02  0.85305007544E+01  0.14874125671E+02  0.28662541202E+02  0.00000000000E+00 0.  1.
</event>
<event>
 5    1  0.2295577E-004  0.9118800E+02  0.7818608E-02  0.1130116E+00
         25   -1    0    0    0    0  0.00000000000E+00  0.00000000000E+00  0.99999998245E-14  0.12500000000E+03  0.12500000000E+03 0.  0.
        -13    1    3    3    0    0 -0.28548206237E+02  0.94975029955E+01 -0.24006524955E+02  0.38490609855E+02  0.10566000000E+00 0. -1.
         23    2    1    0    0    0  0.82787875964E+01 -0.27743055236E+02 -0.13764613300E+00  0.96047722295E+02  0.91580186578E+02 0.  0.
         13    1    3    3    0    0  0.36826993834E+02 -0.37240558231E+02  0.23868878822E+02  0.57557112440E+02  0.10566000000E+00 0.  1.
         22    1    1    0    0    0 -0.82787875964E+01  0.27743055236E+02  0.13764613300E+00  0.28952277705E+02  0.00000000000E+00 0.  1.
</event>
<event>
 5    1  0.2295577E-004  0.9118800E+02  0.7818608E-02  0.1130116E+00
         25   -1    0    0    0    0  0.00000000000E+00  0.00000000000E+00  0.99999998245E-14  0.12500000000E+03  0.12500000000E+03 0.  0.
        -13    1    3    3    0    0 -0.30806745325E+02  0.12547895656E+02  0.34817180299E+02  0.48153426160E+02  0.10566000000E+00 0. -1.
         23    2    1    0    0    0 -0.16832163509E+02 -0.23028253607E+02  0.64409336184E+01  0.95757773367E+02  0.91183569473E+02 0.  0.
         13    1    3    3    0    0  0.13974581817E+02 -0.35576149263E+02 -0.28376246681E+02  0.47604347207E+02  0.10566000000E+00 0.  1.
         22    1    1    0    0    0  0.16832163509E+02  0.23028253607E+02 -0.64409336184E+01  0.29242226633E+02  0.00000000000E+00 0.  1.
</event>
<event>
 5    1  0.2295577E-004  0.9118800E+02  0.7818608E-02  0.1130116E+00
         25   -1    0    0    0    0  0.00000000000E+00  0.00000000000E+00  0.99999998245E-14  0.12500000000E+03  0.12500000000E+03 0.  0.
        -13    1    3    3    0    0 -0.17862596489E+02 -0.56490366335E+01  0.38342528546E+02  0.42674871148E+02  0.10566000000E+00 0.  1.
         23    2    1    0    0    0 -0.55278563761E+01  0.27915843159E+02 -0.18616021798E+01  0.96481285827E+02  0.92170068117E+02 0.  0.
         13    1    3    3    0    0  0.12334740112E+02  0.33564879793E+02 -0.40204130726E+02  0.53806414679E+02  0.10566000000E+00 0. -1.
         22    1    1    0    0    0  0.55278563761E+01 -0.27915843159E+02  0.18616021798E+01  0.28518714173E+02  0.00000000000E+00 0.  1.
</event>
<event>
 5    1  0.2295577E-004  0.9118800E+02  0.7818608E-02  0.1130116E+00
         25   -1    0    0    0    0  0.00000000000E+00  0.00000000000E+00  0.99999998245E-14  0.12500000000E+03  0.12500000000E+03 0.  0.
        -13    1    3    3    0    0  0.16477221662E+02 -0.12872823968E+02 -0.27998744262E+02  0.34944946342E+02  0.10566000000E+00 0. -1.
         23    2    1    0    0    0 -0.26627995398E+02  0.21071513208E+01  0.12083682923E+02  0.95682673748E+02  0.91080560149E+02 0.  0.
         13    1    3    3    0    0 -0.43105217059E+02  0.14979975288E+02  0.40082427185E+02  0.60737727406E+02  0.10566000000E+00 0.  1.
         22    1    1    0    0    0  0.26627995398E+02 -0.21071513208E+01 -0.12083682923E+02  0.29317326252E+02  0.00000000000E+00 0.  1.
</event>
<event>
 5    1  0.2295577E-004  0.9118800E+02  0.7818608E-02  0.1130116E+00
         25   -1    0    0    0    0  0.00000000000E+00  0.00000000000E+00  0.99999998245E-14  0.12500000000E+03  0.12500000000E+03 0.  0.
        -13    1    3    3    0    0 -0.44400752915E+02 -0.39324428630E+02 -0.16709547916E+02  0.61620270221E+02  0.10566000000E+00 0. -1.
         23    2    1    0    0    0 -0.15243947652E+02 -0.21083687720E+02 -0.12051880649E+02  0.96326882712E+02  0.91960429957E+02 0.  0.
         13    1    3    3    0    0  0.29156805264E+02  0.18240740911E+02  0.46576672674E+01  0.34706612490E+02  0.10566000000E+00 0.  1.
         22    1    1    0    0    0  0.15243947652E+02  0.21083687720E+02  0.12051880649E+02  0.28673117288E+02  0.00000000000E+00 0. -1.
</event>
<event>
 5    1  0.2295577E-004  0.9118800E+02  0.7818608E-02  0.1130116E+00
         25   -1    0    0    0    0  0.00000000000E+00  0.00000000000E+00  0.99999998245E-14  0.12500000000E+03  0.12500000000E+03 0.  0.
        -13    1    3    3    0    0 -0.47560962342E+02 -0.38412156011E+02  0.30151648648E+01  0.61209813359E+02  0.10566000000E+00 0. -1.
         23    2    1    0    0    0 -0.12501487128E+02 -0.20277380753E+02 -0.24267841587E+01  0.10105530055E+03  0.98177518487E+02 0.  0.
         13    1    3    3    0    0  0.35059475214E+02  0.18134775257E+02 -0.54419490235E+01  0.39845487186E+02  0.10566000000E+00 0.  1.
         22    1    1    0    0    0  0.12501487128E+02  0.20277380753E+02  0.24267841587E+01  0.23944699455E+02  0.00000000000E+00 0. -1.
</event>
<event>
 5    1  0.2295577E-004  0.9118800E+02  0.7818608E-02  0.1130116E+00
         25   -1    0    0    0    0  0.00000000000E+00  0.00000000000E+00  0.99999998245E-14  0.12500000000E+03  0.12500000000E+03 0.  0.
        -13    1    3    3    0    0  0.48378154557E+01 -0.14339239123E+02 -0.27829966361E+02  0.31678643100E+02  0.10566000000E+00 0. -1.
         23    2    1    0    0    0 -0.89085192544E+01  0.10956944846E+02  0.27519943086E+02  0.94068404129E+02  0.88837497895E+02 0.  0.
         13    1    3    3    0    0 -0.13746334710E+02  0.25296183969E+02  0.55349909447E+02  0.62389761028E+02  0.10566000000E+00 0.  1.
         22    1    1    0    0    0  0.89085192544E+01 -0.10956944846E+02 -0.27519943086E+02  0.30931595871E+02  0.00000000000E+00 0.  1.
</event>
<event>
 5    1  0.2295577E-004  0.9118800E+02  0.7818608E-02  0.1130116E+00
         25   -1    0    0    0    0  0.00000000000E+00  0.00000000000E+00  0.99999998245E-14  0.12500000000E+03  0.12500000000E+03 0.  0.
        -13    1    3    3    0    0  0.20534087557E+02 -0.44891008273E+02  0.26125077574E+02  0.55851429864E+02  0.10566000000E+00 0.  1.
         23    2    1    0    0    0  0.16669140361E+02 -0.24941961919E+02 -0.65163295000E+01  0.94301070786E+02  0.89164273655E+02 0.  0.
         13    1    3    3    0    0 -0.38649471959E+01  0.19949046354E+02 -0.32641407074E+02  0.38449640922E+02  0.10566000000E+00 0. -1.
         22    1    1    0    0    0 -0.16669140361E+02  0.24941961919E+02  0.65163295000E+01  0.30698929214E+02  0.00000000000E+00 0.  1.
</event>
<event>
 4    1  0.2295577E-004  0.9118800E+02  0.7818608E-02  0.1130116E+00
         25   -1    0    0    0    0  0.00000000000E+00  0.00000000000E+00  0.99999998245E-14  0.12500000000E+03  0.12500000000E+03 0.  0.
        -13    1    1    0    0    0 -0.18663811857E+02  0.19410401547E+02 -0.92128632332E+01  0.28460315779E+02  0.10566000000E+00 0. -1.
         13    1    1    0    0    0  0.14061156324E+02  0.36907298505E+02  0.59407042355E+01  0.39939553465E+02  0.10566000000E+00 0.  1.
         22    1    1    0    0    0  0.46026555333E+01 -0.56317700052E+02  0.32721589977E+01  0.56600130756E+02  0.00000000000E+00 0. -1.
</event>
<event>
 5    1  0.2295577E-004  0.9118800E+02  0.7818608E-02  0.1130116E+00
         25   -1    0    0    0    0  0.00000000000E+00  0.00000000000E+00  0.99999998245E-14  0.12500000000E+03  0.12500000000E+03 0.  0.
        -13    1    3    3    0    0 -0.27726703399E+02 -0.38494132556E+02  0.51397226713E+01  0.47717881719E+02  0.10566000000E+00 0.  1.
         23    2    1    0    0    0 -0.69480582057E+01  0.84214995864E+01  0.20921402270E+02  0.10140122374E+03  0.98616965754E+02 0.  0.
         13    1    3    3    0    0  0.20778645194E+02  0.46915632142E+02  0.15781679598E+02  0.53683342019E+02  0.10566000000E+00 0. -1.
         22    1    1    0    0    0  0.69480582057E+01 -0.84214995864E+01 -0.20921402270E+02  0.23598776262E+02  0.00000000000E+00 0. -1.
</event>
<event>
 5    1  0.2295577E-004  0.9118800E+02  0.7818608E-02  0.1130116E+00
         25   -1    0    0    0    0  0.00000000000E+00  0.00000000000E+00  0.99999998245E-14  0.12500000000E+03  0.12500000000E+03 0.  0.
        -13    1    3    3    0    0  0.17816305842E+02  0.19062485395E+02  0.26389966371E+02  0.37111192279E+02  0.10566000000E+00 0. -1.
         23    2    1    0    0    0 -0.11569208673E+02 -0.26375015514E+02  0.30633635923E+01  0.96036708937E+02  0.91565152947E+02 0.  0.
         13    1    3    3    0    0 -0.29385514515E+02 -0.45437500909E+02 -0.23326602779E+02  0.58925516658E+02  0.10566000000E+00 0.  1.
         22    1    1    0    0    0  0.11569208673E+02  0.26375015514E+02 -0.30633635923E+01  0.28963291063E+02  0.00000000000E+00 0.  1.
</event>
<event>
 5    1  0.2295577E-004  0.9118800E+02  0.7818608E-02  0.1130116E+00
         25   -1    0    0    0    0  0.00000000000E+00  0.00000000000E+00  0.99999998245E-14  0.12500000000E+03  0.12500000000E+03 0.  0.
        -13    1    3    3    0    0  0.18479422643E+02 -0.79267198052E+01 -0.38925730592E+02  0.43812619349E+02  0.10566000000E+00 0.  1.
         23    2    1    0    0    0  0.22901509672E+02  0.17001441518E+02  0.64352348898E+01  0.95760636001E+02  0.91187493661E+02 0.  0.
         13    1    3    3    0    0  0.44220870294E+01  0.24928161323E+02  0.45360965481E+02  0.51948016652E+02  0.10566000000E+00 0. -1.
         22    1    1    0    0    0 -0.22901509672E+02 -0.17001441518E+02 -0.64352348898E+01  0.29239363999E+02  0.00000000000E+00 0. -1.
</event>
<event>
 5    1  0.2295577E-004  0.9118800E+02  0.7818608E-02  0.1130116E+00
         25   -1    0    0    0    0  0.00000000000E+00  0.00000000000E+00  0.99999998245E-14  0.12500000000E+03  0.12500000000E+03 0.  0.
        -13    1    3    3    0    0  0.19706585735E+02  0.25094949618E+02 -0.19858628689E+02  0.37583005669E+02  0.10566000000E+00 0. -1.
         23    2    1    0    0    0  0.12160194915E+02 -0.11685781822E+02  0.24220700116E+02  0.95486102405E+02  0.90810382673E+02 0.  0.
         13    1    3    3    0    0 -0.75463908202E+01 -0.36780731440E+02  0.44079328805E+02  0.57903096736E+02  0.10566000000E+00 0.  1.
         22    1    1    0    0    0 -0.12160194915E+02  0.11685781822E+02 -0.24220700116E+02  0.29513897595E+02  0.00000000000E+00 0.  1.
</event>
<event>
 5    1  0.2295577E-004  0.9118800E+02  0.7818608E-02  0.1130116E+00
         25   -1    0    0    0    0  0.00000000000E+00  0.00000000000E+00  0.99999998245E-14  0.12500000000E+03  0.12500000000E+03 0.  0.
        -13    1    3    3    0    0 -0.36239729352E+02  0.10098241542E+02  0.32979072412E+01  0.37764796067E+02  0.10566000000E+00 0. -1.
         23    2    1    0    0    0  0.15686691356E+02  0.16924089584E+02 -0.19407420660E+02  0.94847967389E+02  0.89927703446E+02 0.  0.
         13    1    3    3    0    0  0.51926420708E+02  0.68258480420E+01 -0.22705327901E+02  0.57083171322E+02  0.10566000000E+00 0.  1.
         22    1    1    0    0    0 -0.15686691356E+02 -0.16924089584E+02  0.19407420660E+02  0.30152032611E+02  0.00000000000E+00 0.  1.
</event>
<event>
 5    1  0.2295577E-004  0.9118800E+02  0.7818608E-02  0.1130116E+00
         25   -1    0    0    0    0  0.00000000000E+00  0.00000000000E+00  0.99999998245E-14  0.12500000000E+03  0.12500000000E+03 0.  0.
        -13    1    3    3    0    0  0.39709615392E+02  0.30780919497E+02 -0.56664564948E+01  0.50561234685E+02  0.10566000000E+00 0.  1.
         23    2    1    0    0    0  0.50677280340E+01  0.16709317102E+02  0.21882385074E+02  0.97004966119E+02  0.92877562037E+02 0.  0.
         13    1    3    3    0    0 -0.34641887358E+02 -0.14071602395E+02  0.27548841569E+02  0.46443731434E+02  0.10566000000E+00 0. -1.
         22    1    1    0    0    0 -0.50677280340E+01 -0.16709317102E+02 -0.21882385074E+02  0.27995033881E+02  0.00000000000E+00 0. -1.
</event>
<event>
 5    1  0.2295577E-004  0.9118800E+02  0.7818608E-02  0.1130116E+00
         25   -1    0    0    0    0  0.00000000000E+00  0.00000000000E+00  0.99999998245E-14  0.12500000000E+03  0.12500000000E+03 0.  0.
        -13    1    3    3    0    0  0.40523110900E+02  0.29466607705E+02  0.24385978056E+02  0.55723339602E+02  0.10566000000E+00 0.  1.
         23    2    1    0    0    0  0.11708667212E+02  0.62864467890E+01  0.29105142909E+02  0.93004349595E+02  0.87327472188E+02 0.  0.
         13    1    3    3    0    0 -0.28814443688E+02 -0.23180160916E+02  0.47191648522E+01  0.37281009993E+02  0.10566000000E+00 0. -1.
         22    1    1    0    0    0 -0.11708667212E+02 -0.62864467890E+01 -0.29105142909E+02  0.31995650405E+02  0.00000000000E+00 0.  1.
</event>
<event>
 5    1  0.2295577E-004  0.9118800E+02  0.7818608E-02  0.1130116E+00
         25   -1    0    0    0    0  0.00000000000E+00  0.00000000000E+00  0.99999998245E-14  0.12500000000E+03  0.12500000000E+03 0.  0.
        -13    1    3    3    0    0 -0.27639107015E+02 -0.10842892525E+00 -0.49030431684E+02  0.56284335197E+02  0.10566000000E+00 0. -1.
         23    2    1    0    0    0 -0.25198166396E+02  0.10247582624E+02 -0.11200593418E+02  0.95582083142E+02  0.90942403671E+02 0.  0.
         13    1    3    3    0    0  0.24409406195E+01  0.10356011549E+02  0.37829838266E+02  0.39297747945E+02  0.10566000000E+00 0.  1.
         22    1    1    0    0    0  0.25198166396E+02 -0.10247582624E+02  0.11200593418E+02  0.29417916858E+02  0.00000000000E+00 0. -1.
</event>
<event>
 5    1  0.2295577E-004  0.9118800E+02  0.7818608E-02  0.1130116E+00
         25   -1    0    0    0    0  0.00000000000E+00  0.00000000000E+00  0.99999998245E-14  0.12500000000E+03  0.12500000000E+03 0.  0.
        -13    1    3    3    0    0 -0.20770631533E+02 -0.33789426431E+02 -0.20792838439E+02  0.44782784273E+02  0.10566000000E+00 0. -1.
         23    2    1    0    0    0 -0.23321626639E+02  0.75962851981E+01  0.12044219649E+02  0.97674827634E+02  0.93774766907E+02 0.  0.
         13    1    3    3    0    0 -0.25509951056E+01  0.41385711629E+02  0.32837058088E+02  0.52892043362E+02  0.10566000000E+00 0.  1.
         22    1    1    0    0    0  0.23321626639E+02 -0.75962851981E+01 -0.12044219649E+02  0.27325172366E+02  0.00000000000E+00 0.  1.
</event>
<event>
 5    1  0.2295577E-004  0.9118800E+02  0.7818608E-02  0.1130116E+00
         25   -1    0    0    0    0  0.00000000000E+00  0.00000000000E+00  0.99999998245E-14  0.12500000000E+03  0.12500000000E+03 0.  0.
        -13    1    3    3    0    0 -0.55323814452E+01  0.29324802705E+01  0.45671005518E+02  0.46098357824E+02  0.10566000000E+00 0. -1.
         23    2    1    0    0    0  0.43605289540E+01 -0.27738551978E+02  0.77356039976E+01  0.95874735232E+02  0.91343767210E+02 0.  0.
         13    1    3    3    0    0  0.98929103992E+01 -0.30671032248E+02 -0.37935401521E+02  0.49776377408E+02  0.10566000000E+00 0.  1.
         22    1    1    0    0    0 -0.43605289540E+01  0.27738551978E+02 -0.77356039976E+01  0.29125264768E+02  0.00000000000E+00 0. -1.
</event>
<event>
 5    1  0.2295577E-004  0.9118800E+02  0.7818608E-02  0.1130116E+00
         25   -1    0    0    0    0  0.00000000000E+00  0.00000000000E+00  0.99999998245E-14  0.12500000000E+03  0.12500000000E+03 0.  0.
        -13    1    3    3    0    0  0.25284569359E+02  0.27830348803E+02  0.24446290163E+02  0.44849415034E+02  0.10566000000E+00 0.  1.
         23    2    1    0    0    0  0.25387990942E+02 -0.11888583492E+02 -0.76783901813E+01  0.95933762244E+02  0.91424507442E+02 0.  0.
         13    1    3    3    0    0  0.10342158295E+00 -0.39718932294E+02 -0.32124680344E+02  0.51084347210E+02  0.10566000000E+00 0. -1.
         22    1    1    0    0    0 -0.25387990942E+02  0.11888583492E+02  0.76783901813E+01  0.29066237756E+02  0.00000000000E+00 0. -1.
</event>
<event>
 5    1  0.2295577E-004  0.9118800E+02  0.7818608E-02  0.1130116E+00
         25   -1    0    0    0    0  0.00000000000E+00  0.00000000000E+00  0.99999998245E-14  0.12500000000E+03  0.12500000000E+03 0.  0.
        -13    1    3    3    0    0 -0.97517631091E+01  0.80162010281E+00 -0.35090140215E+02  0.36428952536E+02  0.10566000000E+00 0. -1.
         23    2    1    0    0    0  0.15128413479E+02  0.14188283029E+02  0.18626830709E+02  0.97122857177E+02  0.93036091354E+02 0.  0.
         13    1    3    3    0    0  0.24880176588E+02  0.13386662926E+02  0.53716970924E+02  0.60693904641E+02  0.10566000000E+00 0.  1.
         22    1    1    0    0    0 -0.15128413479E+02 -0.14188283029E+02 -0.18626830709E+02  0.27877142823E+02  0.00000000000E+00 0.  1.
</event>
<event>
 5    1  0.2295577E-004  0.9118800E+02  0.7818608E-02  0.1130116E+00
         25   -1    0    0    0    0  0.00000000000E+00  0.00000000000E+00  0.99999998245E-14  0.12500000000E+03  0.12500000000E+03 0.  0.
        -13    1    3    3    0    0 -0.59750962920E+01 -0.28460768562E+02  0.40910655642E+02  0.50193725025E+02  0.10566000000E+00 0.  1.
         23    2    1    0    0    0 -0.25079180264E+02 -0.13567619211E+02  0.15088272517E+01  0.96446153789E+02  0.92122410125E+02 0.  0.
         13    1    3    3    0    0 -0.19104083972E+02  0.14893149351E+02 -0.39401828390E+02  0.46252428764E+02  0.10566000000E+00 0. -1.
         22    1    1    0    0    0  0.25079180264E+02  0.13567619211E+02 -0.15088272517E+01  0.28553846211E+02  0.00000000000E+00 0.  1.
</event>
<event>
 5    1  0.2295577E-004  0.9118800E+02  0.7818608E-02  0.1130116E+00
         25   -1    0    0    0    0  0.00000000000E+00  0.00000000000E+00  0.99999998245E-14  0.12500000000E+03  0.12500000000E+03 0.  0.
        -13    1    3    3    0    0  0.32443045622E+02  0.48981101582E+02  0.14550273573E+01  0.58769275902E+02  0.10566000000E+00 0.  1.
         23    2    1    0    0    0  0.26933746291E+02  0.13171060253E+02  0.43652137837E+00  0.95015102662E+02  0.90159723078E+02 0.  0.
         13    1    3    3    0    0 -0.55092993307E+01 -0.35810041329E+02 -0.10185059789E+01  0.36245826760E+02  0.10566000000E+00 0. -1.
         22    1    1    0    0    0 -0.26933746291E+02 -0.13171060253E+02 -0.43652137837E+00  0.29984897338E+02  0.00000000000E+00 0.  1.
</event>
<event>
 5    1  0.2295577E-004  0.9118800E+02  0.7818608E-02  0.1130116E+00
         25   -1    0    0    0    0  0.00000000000E+00  0.00000000000E+00  0.99999998245E-14  0.12500000000E+03  0.12500000000E+03 0.  0.
        -13    1    3    3    0    0 -0.14598016843E+02 -0.11323998769E+02 -0.35697776398E+02  0.40195490389E+02  0.10566000000E+00 0.  1.
         23    2    1    0    0    0  0.19322615045E+02 -0.20689661905E+02  0.73067497447E+01  0.95762795042E+02  0.91190453232E+02 0.  0.
         13    1    3    3    0    0  0.33920631887E+02 -0.93656631359E+01  0.43004526143E+02  0.55567304653E+02  0.10566000000E+00 0. -1.
         22    1    1    0    0    0 -0.19322615045E+02  0.20689661905E+02 -0.73067497447E+01  0.29237204958E+02  0.00000000000E+00 0. -1.
</event>
<event>
 5    1  0.2295577E-004  0.9118800E+02  0.7818608E-02  0.1130116E+00
         25   -1    0    0    0    0  0.00000000000E+00  0.00000000000E+00  0.99999998245E-14  0.12500000000E+03  0.12500000000E+03 0.  0.
        -13    1    3    3    0    0  0.14334900010E+02 -0.33166341987E+02 -0.13644154662E+02  0.38622140277E+02  0.10566000000E+00 0. -1.
         23    2    1    0    0    0 -0.26921960457E+02  0.41065837558E+01 -0.14329434080E+02  0.94226819046E+02  0.89060118804E+02 0.  0.
         13    1    3    3    0    0 -0.41256860467E+02  0.37272925743E+02 -0.68527941731E+00  0.55604678769E+02  0.10566000000E+00 0.  1.
         22    1    1    0    0    0  0.26921960457E+02 -0.41065837558E+01  0.14329434080E+02  0.30773180954E+02  0.00000000000E+00 0.  1.
</event>
<event>
 5    1  0.2295577E-004  0.9118800E+02  0.7818608E-02  0.1130116E+00
         25   -1    0    0    0    0  0.00000000000E+00  0.00000000000E+00  0.99999998245E-14  0.12500000000E+03  0.12500000000E+03 0.  0.
        -13    1    3    3    0    0 -0.49836767427E+02 -0.81975616439E+01  0.28949946559E+02  0.58215238334E+02  0.10566000000E+00 0.  1.
         23    2    1    0    0    0 -0.19777291601E+02 -0.18392575637E+02  0.61388549819E+01  0.97303183538E+02  0.93278056822E+02 0.  0.
         13    1    3    3    0    0  0.30059475826E+02 -0.10195013993E+02 -0.22811091577E+02  0.39087945204E+02  0.10566000000E+00 0. -1.
         22    1    1    0    0    0  0.19777291601E+02  0.18392575637E+02 -0.61388549819E+01  0.27696816462E+02  0.00000000000E+00 0. -1.
</event>
<event>
 5    1  0.2295577E-004  0.9118800E+02  0.7818608E-02  0.1130116E+00
         25   -1    0    0    0    0  0.00000000000E+00  0.00000000000E+00  0.99999998245E-14  0.12500000000E+03  0.12500000000E+03 0.  0.
        -13    1    3    3    0    0  0.18800624668E+02 -0.63855372242E+01 -0.37102822033E+02  0.42081696025E+02  0.10566000000E+00 0. -1.
         23    2    1    0    0    0  0.29635510843E+02  0.12577977800E+02  0.76762735765E+01  0.91903259912E+02  0.85736893914E+02 0.  0.
         13    1    3    3    0    0  0.10834886175E+02  0.18963515024E+02  0.44779095609E+02  0.49821563887E+02  0.10566000000E+00 0.  1.
         22    1    1    0    0    0 -0.29635510843E+02 -0.12577977800E+02 -0.76762735765E+01  0.33096740088E+02  0.00000000000E+00 0.  1.
</event>
<event>
 5    1  0.2295577E-004  0.9118800E+02  0.7818608E-02  0.1130116E+00
         25   -1    0    0    0    0  0.00000000000E+00  0.00000000000E+00  0.99999998245E-14  0.12500000000E+03  0.12500000000E+03 0.  0.
        -13    1    3    3    0    0  0.40125533919E+02  0.45524766788E+02  0.37792355764E+01  0.60801781627E+02  0.10566000000E+00 0. -1.
         23    2    1    0    0    0  0.15019981096E+02  0.19208184913E+02 -0.84809102033E+01  0.99183725333E+02  0.95764979681E+02 0.  0.
         13    1    3    3    0    0 -0.25105552823E+02 -0.26316581875E+02 -0.12260145780E+02  0.38381943707E+02  0.10566000000E+00 0.  1.
         22    1    1    0    0    0 -0.15019981096E+02 -0.19208184913E+02  0.84809102033E+01  0.25816274667E+02  0.00000000000E+00 0. -1.
</event>
<event>
 5    1  0.2295577E-004  0.9118800E+02  0.7818608E-02  0.1130116E+00
         25   -1    0    0    0    0  0.00000000000E+00  0.00000000000E+00  0.99999998245E-14  0.12500000000E+03  0.12500000000E+03 0.  0.
        -13    1    3    3    0    0  0.41027731930E+02  0.39177429014E+01  0.22133958297E+02  0.46781906445E+02  0.10566000000E+00 0.  1.
         23    2    1    0    0    0  0.98596193806E+01  0.26066459624E+02 -0.85949388815E+01  0.95835888732E+02  0.91290591974E+02 0.  0.
         13    1    3    3    0    0 -0.31168112549E+02  0.22148716723E+02 -0.30728897178E+02  0.49053982287E+02  0.10566000000E+00 0. -1.
         22    1    1    0    0    0 -0.98596193806E+01 -0.26066459624E+02  0.85949388815E+01  0.29164111268E+02  0.00000000000E+00 0.  1.
</event>
<event>
 5    1  0.2295577E-004  0.9118800E+02  0.7818608E-02  0.1130116E+00
         25   -1    0    0    0    0  0.00000000000E+00  0.00000000000E+00  0.99999998245E-14  0.12500000000E+03  0.12500000000E+03 0.  0.
        -13    1    3    3    0    0 -0.31260421559E+02  0.22518323140E+02 -0.11003243117E+02  0.40067085697E+02  0.10566000000E+00 0. -1.
         23    2    1    0    0    0 -0.94459160987E+01 -0.19818230296E+02  0.18669698275E+02  0.96180818598E+02  0.91761673097E+02 0.  0.
         13    1    3    3    0    0  0.21814505460E+02 -0.42336553435E+02  0.29672941392E+02  0.56113732902E+02  0.10566000000E+00 0.  1.
         22    1    1    0    0    0  0.94459160987E+01  0.19818230296E+02 -0.18669698275E+02  0.28819181402E+02  0.00000000000E+00 0.  1.
</event>
<event>
 5    1  0.2295577E-004  0.9118800E+02  0.7818608E-02  0.1130116E+00
         25   -1    0    0    0    0  0.00000000000E+00  0.00000000000E+00  0.99999998245E-14  0.12500000000E+03  0.12500000000E+03 0.  0.
        -13    1    3    3    0    0  0.43191551429E+02 -0.10398791630E+02 -0.23798346873E+01  0.44489546631E+02  0.10566000000E+00 0. -1.
         23    2    1    0    0    0 -0.14616527606E+01 -0.20886628668E+02  0.20456122466E+02  0.95728159739E+02  0.91142964264E+02 0.  0.
         13    1    3    3    0    0 -0.44653204190E+02 -0.10487837038E+02  0.22835957153E+02  0.51238613109E+02  0.10566000000E+00 0.  1.
         22    1    1    0    0    0  0.14616527606E+01  0.20886628668E+02 -0.20456122466E+02  0.29271840261E+02  0.00000000000E+00 0. -1.
</event>
<event>
 5    1  0.2295577E-004  0.9118800E+02  0.7818608E-02  0.1130116E+00
         25   -1    0    0    0    0  0.00000000000E+00  0.00000000000E+00  0.99999998245E-14  0.12500000000E+03  0.12500000000E+03 0.  0.
        -13    1    3    3    0    0 -0.16371665315E+02  0.12035352426E+02 -0.28452747961E+02  0.34963569094E+02  0.10566000000E+00 0.  1.
         23    2    1    0    0    0 -0.44677688720E+01 -0.25618689013E+02  0.16033324433E+02  0.94449293334E+02  0.89371826285E+02 0.  0.
         13    1    3    3    0    0  0.11903896443E+02 -0.37654041439E+02  0.44486072394E+02  0.59485724240E+02  0.10566000000E+00 0. -1.
         22    1    1    0    0    0  0.44677688720E+01  0.25618689013E+02 -0.16033324433E+02  0.30550706666E+02  0.00000000000E+00 0. -1.
</event>
<event>
 5    1  0.2295577E-004  0.9118800E+02  0.7818608E-02  0.1130116E+00
         25   -1    0    0    0    0  0.00000000000E+00  0.00000000000E+00  0.99999998245E-14  0.12500000000E+03  0.12500000000E+03 0.  0.
        -13    1    3    3    0    0  0.21259160285E+02  0.17859830764E+02  0.21983071006E+02  0.35414573636E+02  0.10566000000E+00 0.  1.
         23    2    1    0    0    0  0.20047824241E+02 -0.12914420963E+02 -0.24264368118E+02  0.90978579016E+02  0.84377987378E+02 0.  0.
         13    1    3    3    0    0 -0.12113360436E+01 -0.30774251726E+02 -0.46247439124E+02  0.55564005380E+02  0.10566000000E+00 0. -1.
         22    1    1    0    0    0 -0.20047824241E+02  0.12914420963E+02  0.24264368118E+02  0.34021420984E+02  0.00000000000E+00 0. -1.
</event>
<event>
 5    1  0.2295577E-004  0.9118800E+02  0.7818608E-02  0.1130116E+00
         25   -1    0    0    0    0  0.00000000000E+00  0.00000000000E+00  0.99999998245E-14  0.12500000000E+03  0.12500000000E+03 0.  0.
        -13    1    3    3    0    0  0.33340310370E+02 -0.41499526429E+02  0.32226706623E+02  0.62228279529E+02  0.10566000000E+00 0.  1.
         23    2    1    0    0    0  0.18198831256E+02 -0.18160812148E+02  0.18989645088E+02  0.93037222000E+02  0.87374512873E+02 0.  0.
         13    1    3    3    0    0 -0.15141479114E+02  0.23338714281E+02 -0.13237061535E+02  0.30808942471E+02  0.10566000000E+00 0. -1.
         22    1    1    0    0    0 -0.18198831256E+02  0.18160812148E+02 -0.18989645088E+02  0.31962778000E+02  0.00000000000E+00 0.  1.
</event>
<event>
 5    1  0.2295577E-004  0.9118800E+02  0.7818608E-02  0.1130116E+00
         25   -1    0    0    0    0  0.00000000000E+00  0.00000000000E+00  0.99999998245E-14  0.12500000000E+03  0.12500000000E+03 0.  0.
        -13    1    3    3    0    0 -0.79262935946E+01  0.47319229755E+02  0.14988826954E+02  0.50265412883E+02  0.10566000000E+00 0.  1.
         23    2    1    0    0    0  0.21614020083E+02  0.23520063685E+02 -0.42082424078E+01  0.92780928567E+02  0.87007080986E+02 0.  0.
         13    1    3    3    0    0  0.29540313677E+02 -0.23799166071E+02 -0.19197069361E+02  0.42515515684E+02  0.10566000000E+00 0. -1.
         22    1    1    0    0    0 -0.21614020083E+02 -0.23520063685E+02  0.42082424078E+01  0.32219071433E+02  0.00000000000E+00 0.  1.
</event>
<event>
 5    1  0.2295577E-004  0.9118800E+02  0.7818608E-02  0.1130116E+00
         25   -1    0    0    0    0  0.00000000000E+00  0.00000000000E+00  0.99999998245E-14  0.12500000000E+03  0.12500000000E+03 0.  0.
        -13    1    3    3    0    0 -0.16613051917E+02 -0.32841756188E+02 -0.11413179780E+02  0.38533703173E+02  0.10566000000E+00 0. -1.
         23    2    1    0    0    0  0.13374832437E+02 -0.41780763963E+02  0.14112851961E+02  0.78916478319E+02  0.64063402811E+02 0.  0.
         13    1    3    3    0    0  0.29987884354E+02 -0.89390077756E+01  0.25526031741E+02  0.40382775146E+02  0.10566000000E+00 0.  1.
         22    1    1    0    0    0 -0.13374832437E+02  0.41780763963E+02 -0.14112851961E+02  0.46083521681E+02  0.00000000000E+00 0.  1.
</event>
<event>
 5    1  0.2295577E-004  0.9118800E+02  0.7818608E-02  0.1130116E+00
         25   -1    0    0    0    0  0.00000000000E+00  0.00000000000E+00  0.99999998245E-14  0.12500000000E+03  0.12500000000E+03 0.  0.
        -13    1    3    3    0    0 -0.33310322949E+02 -0.42123147798E+02 -0.45169202585E+01  0.53892030283E+02  0.10566000000E+00 0.  1.
         23    2    1    0    0    0  0.72129401218E+01 -0.26519353471E+02 -0.35332289472E+00  0.97514959509E+02  0.93561423019E+02 0.  0.
         13    1    3    3    0    0  0.40523263070E+02  0.15603794327E+02  0.41635973638E+01  0.43622929227E+02  0.10566000000E+00 0. -1.
         22    1    1    0    0    0 -0.72129401218E+01  0.26519353471E+02  0.35332289472E+00  0.27485040491E+02  0.00000000000E+00 0.  1.
</event>
<event>
 5    1  0.2295577E-004  0.9118800E+02  0.7818608E-02  0.1130116E+00
         25   -1    0    0    0    0  0.00000000000E+00  0.00000000000E+00  0.99999998245E-14  0.12500000000E+03  0.12500000000E+03 0.  0.
        -13    1    3    3    0    0  0.17602491383E+02 -0.24771838285E+02  0.24337768022E+02  0.38933658847E+02  0.10566000000E+00 0. -1.
         23    2    1    0    0    0 -0.18868284166E+01 -0.11847677856E+02 -0.27059112301E+02  0.95400622463E+02  0.90692643670E+02 0.  0.
         13    1    3    3    0    0 -0.19489319799E+02  0.12924160429E+02 -0.51396880323E+02  0.56466963616E+02  0.10566000000E+00 0.  1.
         22    1    1    0    0    0  0.18868284166E+01  0.11847677856E+02  0.27059112301E+02  0.29599377537E+02  0.00000000000E+00 0.  1.
</event>
<event>
 5    1  0.2295577E-004  0.9118800E+02  0.7818608E-02  0.1130116E+00
         25   -1    0    0    0    0  0.00000000000E+00  0.00000000000E+00  0.99999998245E-14  0.12500000000E+03  0.12500000000E+03 0.  0.
        -13    1    3    3    0    0  0.11171308569E+02  0.33760321382E+02 -0.17013858984E+02  0.39421313988E+02  0.10566000000E+00 0.  1.
         23    2    1    0    0    0 -0.18117228227E+02 -0.13913985841E+02 -0.18819153276E+02  0.95402812792E+02  0.90695662509E+02 0.  0.
         13    1    3    3    0    0 -0.29288536795E+02 -0.47674307223E+02 -0.18052942923E+01  0.55981498804E+02  0.10566000000E+00 0. -1.
         22    1    1    0    0    0  0.18117228227E+02  0.13913985841E+02  0.18819153276E+02  0.29597187208E+02  0.00000000000E+00 0.  1.
</event>
<event>
 5    1  0.2295577E-004  0.9118800E+02  0.7818608E-02  0.1130116E+00
         25   -1    0    0    0    0  0.00000000000E+00  0.00000000000E+00  0.99999998245E-14  0.12500000000E+03  0.12500000000E+03 0.  0.
        -13    1    3    3    0    0 -0.46286432951E+02  0.13096096426E+02  0.22234868058E+02  0.52993793396E+02  0.10566000000E+00 0. -1.
         23    2    1    0    0    0 -0.23289618601E+02 -0.17753669604E+02  0.44660375004E+01  0.95376620552E+02  0.90659556242E+02 0.  0.
         13    1    3    3    0    0  0.22996814350E+02 -0.30849766029E+02 -0.17768830558E+02  0.42382827156E+02  0.10566000000E+00 0.  1.
         22    1    1    0    0    0  0.23289618601E+02  0.17753669604E+02 -0.44660375004E+01  0.29623379448E+02  0.00000000000E+00 0.  1.
</event>
<event>
 5    1  0.2295577E-004  0.9118800E+02  0.7818608E-02  0.1130116E+00
         25   -1    0    0    0    0  0.00000000000E+00  0.00000000000E+00  0.99999998245E-14  0.12500000000E+03  0.12500000000E+03 0.  0.
        -13    1    3    3    0    0 -0.31194776006E+02  0.10192474128E+02 -0.41578535605E+02  0.52969674022E+02  0.10566000000E+00 0. -1.
         23    2    1    0    0    0  0.80764810596E+01  0.81543882548E+01 -0.28276895492E+02  0.94482686672E+02  0.89418519714E+02 0.  0.
         13    1    3    3    0    0  0.39271257065E+02 -0.20380858733E+01  0.13301640113E+02  0.41513012650E+02  0.10566000000E+00 0.  1.
         22    1    1    0    0    0 -0.80764810596E+01 -0.81543882548E+01  0.28276895492E+02  0.30517313328E+02  0.00000000000E+00 0. -1.
</event>
<event>
 5    1  0.2295577E-004  0.9118800E+02  0.7818608E-02  0.1130116E+00
         25   -1    0    0    0    0  0.00000000000E+00  0.00000000000E+00  0.99999998245E-14  0.12500000000E+03  0.12500000000E+03 0.  0.
        -13    1    3    3    0    0  0.50282749502E+01 -0.35334495129E+02  0.53230756282E+01  0.36085404157E+02  0.10566000000E+00 0. -1.
         23    2    1    0    0    0 -0.22571937205E+02  0.17270936221E+02  0.77485798177E+01  0.95541247882E+02  0.90886258425E+02 0.  0.
         13    1    3    3    0    0 -0.27600212156E+02  0.52605431350E+02  0.24255041896E+01  0.59455843725E+02  0.10566000000E+00 0.  1.
         22    1    1    0    0    0  0.22571937205E+02 -0.17270936221E+02 -0.77485798177E+01  0.29458752118E+02  0.00000000000E+00 0.  1.
</event>
<event>
 5    1  0.2295577E-004  0.9118800E+02  0.7818608E-02  0.1130116E+00
         25   -1    0    0    0    0  0.00000000000E+00  0.00000000000E+00  0.99999998245E-14  0.12500000000E+03  0.12500000000E+03 0.  0.
        -13    1    3    3    0    0 -0.24371360820E+02  0.15488104529E+02 -0.16940502247E+02  0.33478894704E+02  0.10566000000E+00 0.  1.
         23    2    1    0    0    0  0.29882808192E+02  0.13554694221E+02  0.45624791605E+01  0.91871037189E+02  0.85689901956E+02 0.  0.
         13    1    3    3    0    0  0.54254169012E+02 -0.19334103085E+01  0.21502981408E+02  0.58392142485E+02  0.10566000000E+00 0. -1.
         22    1    1    0    0    0 -0.29882808192E+02 -0.13554694221E+02 -0.45624791605E+01  0.33128962811E+02  0.00000000000E+00 0. -1.
</event>
<event>
 5    1  0.2295577E-004  0.9118800E+02  0.7818608E-02  0.1130116E+00
         25   -1    0    0    0    0  0.00000000000E+00  0.00000000000E+00  0.99999998245E-14  0.12500000000E+03  0.12500000000E+03 0.  0.
        -13    1    3    3    0    0  0.28313162633E+02  0.35239370627E+02  0.54128097580E+01  0.45527553130E+02  0.10566000000E+00 0.  1.
         23    2    1    0    0    0  0.97552888617E+01  0.12299713169E+01 -0.27141626572E+02  0.96132260511E+02  0.91695502222E+02 0.  0.
         13    1    3    3    0    0 -0.18557873771E+02 -0.34009399310E+02 -0.32554436330E+02  0.50604707381E+02  0.10566000000E+00 0. -1.
         22    1    1    0    0    0 -0.97552888617E+01 -0.12299713169E+01  0.27141626572E+02  0.28867739489E+02  0.00000000000E+00 0. -1.
</event>
<event>
 5    1  0.2295577E-004  0.9118800E+02  0.7818608E-02  0.1130116E+00
         25   -1    0    0    0    0  0.00000000000E+00  0.00000000000E+00  0.99999998245E-14  0.12500000000E+03  0.12500000000E+03 0.  0.
        -13    1    3    3    0    0 -0.22632166294E+02  0.24387199556E+02  0.50641625557E+02  0.60593199754E+02  0.10566000000E+00 0. -1.
         23    2    1    0    0    0 -0.27028040171E+01  0.18805515037E+02  0.21964063419E+02  0.95959121445E+02  0.91459173194E+02 0.  0.
         13    1    3    3    0    0  0.19929362277E+02 -0.55816845190E+01 -0.28677562138E+02  0.35365921691E+02  0.10566000000E+00 0.  1.
         22    1    1    0    0    0  0.27028040171E+01 -0.18805515037E+02 -0.21964063419E+02  0.29040878555E+02  0.00000000000E+00 0.  1.
</event>
<event>
 5    1  0.2295577E-004  0.9118800E+02  0.7818608E-02  0.1130116E+00
         25   -1    0    0    0    0  0.00000000000E+00  0.00000000000E+00  0.99999998245E-14  0.12500000000E+03  0.12500000000E+03 0.  0.
        -13    1    3    3    0    0  0.10151799799E+02  0.25831058036E+02 -0.22751909075E+02  0.35888203201E+02  0.10566000000E+00 0.  1.
         23    2    1    0    0    0  0.15007589873E+02 -0.26105214370E+02  0.41905354602E+01  0.94598181657E+02  0.89579827050E+02 0.  0.
         13    1    3    3    0    0  0.48557900735E+01 -0.51936272407E+02  0.26942444535E+02  0.58709978456E+02  0.10566000000E+00 0. -1.
         22    1    1    0    0    0 -0.15007589873E+02  0.26105214370E+02 -0.41905354602E+01  0.30401818343E+02  0.00000000000E+00 0. -1.
</event>
<event>
 5    1  0.2295577E-004  0.9118800E+02  0.7818608E-02  0.1130116E+00
         25   -1    0    0    0    0  0.00000000000E+00  0.00000000000E+00  0.99999998245E-14  0.12500000000E+03  0.12500000000E+03 0.  0.
        -13    1    3    3    0    0 -0.18034823682E+02  0.32573066735E+02 -0.41056479320E+02  0.55424770635E+02  0.10566000000E+00 0.  1.
         23    2    1    0    0    0  0.21939920673E+01 -0.45061474221E+00 -0.28897739530E+02  0.96015590315E+02  0.91536318359E+02 0.  0.
         13    1    3    3    0    0  0.20228815750E+02 -0.33023681477E+02  0.12158739790E+02  0.40590819680E+02  0.10566000000E+00 0. -1.
         22    1    1    0    0    0 -0.21939920673E+01  0.45061474221E+00  0.28897739530E+02  0.28984409685E+02  0.00000000000E+00 0.  1.
</event>
<event>
 5    1  0.2295577E-004  0.9118800E+02  0.7818608E-02  0.1130116E+00
         25   -1    0    0    0    0  0.00000000000E+00  0.00000000000E+00  0.99999998245E-14  0.12500000000E+03  0.12500000000E+03 0.  0.
        -13    1    3    3    0    0 -0.17293657224E+02 -0.16434728904E+02 -0.29642789902E+02  0.38050979640E+02  0.10566000000E+00 0.  1.
         23    2    1    0    0    0 -0.84402225974E+01  0.21954476521E+02  0.14618595158E+02  0.97306323444E+02  0.93282264451E+02 0.  0.
         13    1    3    3    0    0  0.88534346268E+01  0.38389205425E+02  0.44261385060E+02  0.59255343804E+02  0.10566000000E+00 0. -1.
         22    1    1    0    0    0  0.84402225974E+01 -0.21954476521E+02 -0.14618595158E+02  0.27693676556E+02  0.00000000000E+00 0. -1.
</event>
<event>
 5    1  0.2295577E-004  0.9118800E+02  0.7818608E-02  0.1130116E+00
         25   -1    0    0    0    0  0.00000000000E+00  0.00000000000E+00  0.99999998245E-14  0.12500000000E+03  0.12500000000E+03 0.  0.
        -13    1    3    3    0    0 -0.20198794335E+02 -0.30490251813E+02  0.64928503750E+00  0.36579768771E+02  0.10566000000E+00 0.  1.
         23    2    1    0    0    0  0.28752831043E+02  0.67893095913E-01  0.89632876357E+01  0.94882390073E+02  0.89975538444E+02 0.  0.
         13    1    3    3    0    0  0.48951625378E+02  0.30558144909E+02  0.83140025982E+01  0.58302621302E+02  0.10566000000E+00 0. -1.
         22    1    1    0    0    0 -0.28752831043E+02 -0.67893095913E-01 -0.89632876357E+01  0.30117609927E+02  0.00000000000E+00 0. -1.
</event>
<event>
 5    1  0.2295577E-004  0.9118800E+02  0.7818608E-02  0.1130116E+00
         25   -1    0    0    0    0  0.00000000000E+00  0.00000000000E+00  0.99999998245E-14  0.12500000000E+03  0.12500000000E+03 0.  0.
        -13    1    3    3    0    0 -0.94423028142E+01  0.34923471737E+02 -0.24974964717E+02  0.43960959808E+02  0.10566000000E+00 0.  1.
         23    2    1    0    0    0  0.22239730723E+02  0.13986053879E+02  0.11229206411E+02  0.96428853674E+02  0.92098932777E+02 0.  0.
         13    1    3    3    0    0  0.31682033537E+02 -0.20937417858E+02  0.36204171129E+02  0.52467893866E+02  0.10566000000E+00 0. -1.
         22    1    1    0    0    0 -0.22239730723E+02 -0.13986053879E+02 -0.11229206411E+02  0.28571146326E+02  0.00000000000E+00 0. -1.
</event>
<event>
 5    1  0.2295577E-004  0.9118800E+02  0.7818608E-02  0.1130116E+00
         25   -1    0    0    0    0  0.00000000000E+00  0.00000000000E+00  0.99999998245E-14  0.12500000000E+03  0.12500000000E+03 0.  0.
        -13    1    3    3    0    0  0.14868553868E+02  0.51202970745E+02  0.21775018496E+02  0.57593234861E+02  0.10566000000E+00 0.  1.
         23    2    1    0    0    0  0.20478148247E+02  0.18198228952E+02 -0.13522089242E+00  0.97603862000E+02  0.93680123291E+02 0.  0.
         13    1    3    3    0    0  0.56095943791E+01 -0.33004741792E+02 -0.21910239389E+02  0.40010627138E+02  0.10566000000E+00 0. -1.
         22    1    1    0    0    0 -0.20478148247E+02 -0.18198228952E+02  0.13522089242E+00  0.27396138000E+02  0.00000000000E+00 0.  1.
</event>
<event>
 5    1  0.2295577E-004  0.9118800E+02  0.7818608E-02  0.1130116E+00
         25   -1    0    0    0    0  0.00000000000E+00  0.00000000000E+00  0.99999998245E-14  0.12500000000E+03  0.12500000000E+03 0.  0.
        -13    1    3    3    0    0  0.26234671732E+02 -0.31795070081E+02 -0.22975183293E+02  0.47191680344E+02  0.10566000000E+00 0.  1.
         23    2    1    0    0    0  0.17365218191E+02  0.16173976976E+02  0.35689393694E+00  0.10126656984E+03  0.98446139889E+02 0.  0.
         13    1    3    3    0    0 -0.88694535411E+01  0.47969047057E+02  0.23332077230E+02  0.54074889492E+02  0.10566000000E+00 0. -1.
         22    1    1    0    0    0 -0.17365218191E+02 -0.16173976976E+02 -0.35689393694E+00  0.23733430163E+02  0.00000000000E+00 0. -1.
</event>
<event>
 5    1  0.2295577E-004  0.9118800E+02  0.7818608E-02  0.1130116E+00
         25   -1    0    0    0    0  0.00000000000E+00  0.00000000000E+00  0.99999998245E-14  0.12500000000E+03  0.12500000000E+03 0.  0.
        -13    1    3    3    0    0  0.47497657277E+02  0.24692954942E+02 -0.14132098413E+02  0.55366929120E+02  0.10566000000E+00 0.  1.
         23    2    1    0    0    0  0.10506133658E+02  0.28401487747E+02 -0.11394940245E+02  0.92644660195E+02  0.86811088282E+02 0.  0.
         13    1    3    3    0    0 -0.36991523619E+02  0.37085328057E+01  0.27371581678E+01  0.37277731075E+02  0.10566000000E+00 0. -1.
         22    1    1    0    0    0 -0.10506133658E+02 -0.28401487747E+02  0.11394940245E+02  0.32355339805E+02  0.00000000000E+00 0.  1.
</event>
<event>
 5    1  0.2295577E-004  0.9118800E+02  0.7818608E-02  0.1130116E+00
         25   -1    0    0    0    0  0.00000000000E+00  0.00000000000E+00  0.99999998245E-14  0.12500000000E+03  0.12500000000E+03 0.  0.
        -13    1    3    3    0    0 -0.39817351627E+02 -0.46200092555E+02  0.13576043925E+02  0.62483519230E+02  0.10566000000E+00 0.  1.
         23    2    1    0    0    0 -0.18702476302E+02 -0.20235083014E+02  0.64589313263E+01  0.96698780975E+02  0.92464562097E+02 0.  0.
         13    1    3    3    0    0  0.21114875325E+02  0.25965009542E+02 -0.71171125986E+01  0.34215261745E+02  0.10566000000E+00 0. -1.
         22    1    1    0    0    0  0.18702476302E+02  0.20235083014E+02 -0.64589313263E+01  0.28301219025E+02  0.00000000000E+00 0.  1.
</event>
<event>
 5    1  0.2295577E-004  0.9118800E+02  0.7818608E-02  0.1130116E+00
         25   -1    0    0    0    0  0.00000000000E+00  0.00000000000E+00  0.99999998245E-14  0.12500000000E+03  0.12500000000E+03 0.  0.
        -13    1    3    3    0    0 -0.75447568775E+01  0.25237918251E+02 -0.55379394362E+02  0.61325071202E+02  0.10566000000E+00 0.  1.
         23    2    1    0    0    0  0.26120854955E+01  0.64140754789E+01 -0.28469525009E+02  0.95700218275E+02  0.91104635277E+02 0.  0.
         13    1    3    3    0    0  0.10156842373E+02 -0.18823842772E+02  0.26909869353E+02  0.34375147074E+02  0.10566000000E+00 0. -1.
         22    1    1    0    0    0 -0.26120854955E+01 -0.64140754789E+01  0.28469525009E+02  0.29299781725E+02  0.00000000000E+00 0.  1.
</event>
<event>
 5    1  0.2295577E-004  0.9118800E+02  0.7818608E-02  0.1130116E+00
         25   -1    0    0    0    0  0.00000000000E+00  0.00000000000E+00  0.99999998245E-14  0.12500000000E+03  0.12500000000E+03 0.  0.
        -13    1    3    3    0    0  0.56978896077E+01  0.36791003647E+02  0.89395517001E+01  0.38287996082E+02  0.10566000000E+00 0.  1.
         23    2    1    0    0    0 -0.12532431127E+02 -0.16355347434E+02  0.20810520282E+02  0.95714560374E+02  0.91124311211E+02 0.  0.
         13    1    3    3    0    0 -0.18230320735E+02 -0.53146351081E+02  0.11870968582E+02  0.57426564292E+02  0.10566000000E+00 0. -1.
         22    1    1    0    0    0  0.12532431127E+02  0.16355347434E+02 -0.20810520282E+02  0.29285439626E+02  0.00000000000E+00 0. -1.
</event>
<event>
 5    1  0.2295577E-004  0.9118800E+02  0.7818608E-02  0.1130116E+00
         25   -1    0    0    0    0  0.00000000000E+00  0.00000000000E+00  0.99999998245E-14  0.12500000000E+03  0.12500000000E+03 0.  0.
        -13    1    3    3    0    0  0.27711238063E+02  0.43363088923E+02 -0.27215401579E+02  0.58214769973E+02  0.10566000000E+00 0.  1.
         23    2    1    0    0    0  0.25904994782E+02  0.11171170054E+02 -0.83138285799E+01  0.95589397478E+02  0.90952456644E+02 0.  0.
         13    1    3    3    0    0 -0.18062432807E+01 -0.32191918869E+02  0.18901572999E+02  0.37374627505E+02  0.10566000000E+00 0. -1.
         22    1    1    0    0    0 -0.25904994782E+02 -0.11171170054E+02  0.83138285799E+01  0.29410602522E+02  0.00000000000E+00 0.  1.
</event>
<event>
 5    1  0.2295577E-004  0.9118800E+02  0.7818608E-02  0.1130116E+00
         25   -1    0    0    0    0  0.00000000000E+00  0.00000000000E+00  0.99999998245E-14  0.12500000000E+03  0.12500000000E+03 0.  0.
        -13    1    3    3    0    0  0.23634614667E+02  0.56162748436E+02 -0.13147565157E+02  0.62335535259E+02  0.10566000000E+00 0. -1.
         23    2    1    0    0    0  0.14035589565E+02  0.25159809994E+02 -0.57983498697E+01  0.95612338056E+02  0.90983979436E+02 0.  0.
         13    1    3    3    0    0 -0.95990251025E+01 -0.31002938443E+02  0.73492152874E+01  0.33276802797E+02  0.10566000000E+00 0.  1.
         22    1    1    0    0    0 -0.14035589565E+02 -0.25159809994E+02  0.57983498697E+01  0.29387661944E+02  0.00000000000E+00 0. -1.
</event>
<event>
 5    1  0.2295577E-004  0.9118800E+02  0.7818608E-02  0.1130116E+00
         25   -1    0    0    0    0  0.00000000000E+00  0.00000000000E+00  0.99999998245E-14  0.12500000000E+03  0.12500000000E+03 0.  0.
        -13    1    3    3    0    0  0.14229451044E+02 -0.42885842573E+02  0.29731965650E+02  0.54089497277E+02  0.10566000000E+00 0.  1.
         23    2    1    0    0    0 -0.10692905018E+02 -0.10410176208E+02  0.25774426433E+02  0.95216933597E+02  0.90439114321E+02 0.  0.
         13    1    3    3    0    0 -0.24922356062E+02  0.32475666365E+02 -0.39575392161E+01  0.41127436320E+02  0.10566000000E+00 0. -1.
         22    1    1    0    0    0  0.10692905018E+02  0.10410176208E+02 -0.25774426433E+02  0.29783066403E+02  0.00000000000E+00 0.  1.
</event>
<event>
 5    1  0.2295577E-004  0.9118800E+02  0.7818608E-02  0.1130116E+00
         25   -1    0    0    0    0  0.00000000000E+00  0.00000000000E+00  0.99999998245E-14  0.12500000000E+03  0.12500000000E+03 0.  0.
        -13    1    3    3    0    0 -0.68747948075E+01  0.31025144900E+02 -0.92374112979E+00  0.31791301978E+02  0.10566000000E+00 0. -1.
         23    2    1    0    0    0 -0.33592914074E+01 -0.28464037982E+02  0.13819113122E+02  0.93180914777E+02  0.87579841826E+02 0.  0.
         13    1    3    3    0    0  0.35155034001E+01 -0.59489182882E+02  0.14742854251E+02  0.61389612799E+02  0.10566000000E+00 0.  1.
         22    1    1    0    0    0  0.33592914074E+01  0.28464037982E+02 -0.13819113122E+02  0.31819085223E+02  0.00000000000E+00 0.  1.
</event>
<event>
 5    1  0.2295577E-004  0.9118800E+02  0.7818608E-02  0.1130116E+00
         25   -1    0    0    0    0  0.00000000000E+00  0.00000000000E+00  0.99999998245E-14  0.12500000000E+03  0.12500000000E+03 0.  0.
        -13    1    3    3    0    0 -0.18335311173E+02 -0.29203174503E+02 -0.53331945526E+01  0.34892164809E+02  0.10566000000E+00 0.  1.
         23    2    1    0    0    0  0.22027838146E+02  0.17415075877E+02  0.11495272029E+01  0.96896051274E+02  0.92730862277E+02 0.  0.
         13    1    3    3    0    0  0.40363149319E+02  0.46618250380E+02  0.64827217555E+01  0.62003886466E+02  0.10566000000E+00 0. -1.
         22    1    1    0    0    0 -0.22027838146E+02 -0.17415075877E+02 -0.11495272029E+01  0.28103948726E+02  0.00000000000E+00 0. -1.
</event>
<event>
 5    1  0.2295577E-004  0.9118800E+02  0.7818608E-02  0.1130116E+00
         25   -1    0    0    0    0  0.00000000000E+00  0.00000000000E+00  0.99999998245E-14  0.12500000000E+03  0.12500000000E+03 0.  0.
        -13    1    3    3    0    0 -0.19526283833E+02 -0.36139437016E+02  0.11592072031E+02  0.42681634999E+02  0.10566000000E+00 0. -1.
         23    2    1    0    0    0  0.24711996890E+02 -0.44683786921E+01  0.12175203375E+02  0.97091492773E+02  0.92993941701E+02 0.  0.
         13    1    3    3    0    0  0.44238280724E+02  0.31671058324E+02  0.58313134371E+00  0.54409857774E+02  0.10566000000E+00 0.  1.
         22    1    1    0    0    0 -0.24711996890E+02  0.44683786921E+01 -0.12175203375E+02  0.27908507227E+02  0.00000000000E+00 0.  1.
</event>
<event>
 5    1  0.2295577E-004  0.9118800E+02  0.7818608E-02  0.1130116E+00
         25   -1    0    0    0    0  0.00000000000E+00  0.00000000000E+00  0.99999998245E-14  0.12500000000E+03  0.12500000000E+03 0.  0.
        -13    1    3    3    0    0 -0.65783542272E+01  0.26652131403E+02  0.27614835180E+02  0.38938427532E+02  0.10566000000E+00 0.  1.
         23    2    1    0    0    0  0.25751038688E+02  0.34120816987E+01 -0.13118730337E+02  0.95899151547E+02  0.91377173773E+02 0.  0.
         13    1    3    3    0    0  0.32329392915E+02 -0.23240049704E+02 -0.40733565517E+02  0.56960724015E+02  0.10566000000E+00 0. -1.
         22    1    1    0    0    0 -0.25751038688E+02 -0.34120816987E+01  0.13118730337E+02  0.29100848453E+02  0.00000000000E+00 0. -1.
</event>
<event>
 5    1  0.2295577E-004  0.9118800E+02  0.7818608E-02  0.1130116E+00
         25   -1    0    0    0    0  0.00000000000E+00  0.00000000000E+00  0.99999998245E-14  0.12500000000E+03  0.12500000000E+03 0.  0.
        -13    1    3    3    0    0  0.21336684170E+02  0.34568700805E+02 -0.11917339334E+02  0.42335367101E+02  0.10566000000E+00 0.  1.
         23    2    1    0    0    0  0.24593348953E+02 -0.17127118412E+02 -0.55037450673E+01  0.94529322167E+02  0.89483688691E+02 0.  0.
         13    1    3    3    0    0  0.32566647831E+01 -0.51695819217E+02  0.64135942663E+01  0.52193955067E+02  0.10566000000E+00 0. -1.
         22    1    1    0    0    0 -0.24593348953E+02  0.17127118412E+02  0.55037450673E+01  0.30470677833E+02  0.00000000000E+00 0. -1.
</event>
<event>
 5    1  0.2295577E-004  0.9118800E+02  0.7818608E-02  0.1130116E+00
         25   -1    0    0    0    0  0.00000000000E+00  0.00000000000E+00  0.99999998245E-14  0.12500000000E+03  0.12500000000E+03 0.  0.
        -13    1    3    3    0    0 -0.32269728997E+02  0.26483119102E+02 -0.12325631567E+02  0.43527271503E+02  0.10566000000E+00 0.  1.
         23    2    1    0    0    0  0.12074165370E+02  0.74060923111E+01 -0.27446913266E+02  0.94113615936E+02  0.88901091017E+02 0.  0.
         13    1    3    3    0    0  0.44343894367E+02 -0.19077026791E+02 -0.15121281699E+02  0.50586344433E+02  0.10566000000E+00 0. -1.
         22    1    1    0    0    0 -0.12074165370E+02 -0.74060923111E+01  0.27446913266E+02  0.30886384064E+02  0.00000000000E+00 0. -1.
</event>
<event>
 5    1  0.2295577E-004  0.9118800E+02  0.7818608E-02  0.1130116E+00
         25   -1    0    0    0    0  0.00000000000E+00  0.00000000000E+00  0.99999998245E-14  0.12500000000E+03  0.12500000000E+03 0.  0.
        -13    1    3    3    0    0  0.15857076124E+02 -0.12800308936E+02 -0.21333717462E+02  0.29503108935E+02  0.10566000000E+00 0.  1.
         23    2    1    0    0    0 -0.33145886452E+02  0.80747419360E+01  0.74988301266E+01  0.90070303476E+02  0.83021538584E+02 0.  0.
         13    1    3    3    0    0 -0.49002962576E+02  0.20875050872E+02  0.28832547588E+02  0.60567194541E+02  0.10566000000E+00 0. -1.
         22    1    1    0    0    0  0.33145886452E+02 -0.80747419360E+01 -0.74988301266E+01  0.34929696524E+02  0.00000000000E+00 0. -1.
</event>
<event>
 5    1  0.2295577E-004  0.9118800E+02  0.7818608E-02  0.1130116E+00
         25   -1    0    0    0    0  0.00000000000E+00  0.00000000000E+00  0.99999998245E-14  0.12500000000E+03  0.12500000000E+03 0.  0.
        -13    1    3    3    0    0  0.30752760932E+02  0.52234227009E+01  0.40810432561E+02  0.51366516521E+02  0.10566000000E+00 0.  1.
         23    2    1    0    0    0 -0.81470498988E+01 -0.89347001262E+01  0.27678185902E+02  0.94795939624E+02  0.89855355466E+02 0.  0.
         13    1    3    3    0    0 -0.38899810831E+02 -0.14158122827E+02 -0.13132246660E+02  0.43429423103E+02  0.10566000000E+00 0. -1.
         22    1    1    0    0    0  0.81470498988E+01  0.89347001262E+01 -0.27678185902E+02  0.30204060376E+02  0.00000000000E+00 0. -1.
</event>
<event>
 5    1  0.2295577E-004  0.9118800E+02  0.7818608E-02  0.1130116E+00
         25   -1    0    0    0    0  0.00000000000E+00  0.00000000000E+00  0.99999998245E-14  0.12500000000E+03  0.12500000000E+03 0.  0.
        -13    1    3    3    0    0  0.46407940255E+02  0.20129805612E+02  0.27190679624E+02  0.57430394524E+02  0.10566000000E+00 0. -1.
         23    2    1    0    0    0  0.28633859764E+02  0.49397138611E+01 -0.31923757723E+01  0.95768339748E+02  0.91198053362E+02 0.  0.
         13    1    3    3    0    0 -0.17774080492E+02 -0.15190091751E+02 -0.30383055397E+02  0.38337945224E+02  0.10566000000E+00 0.  1.
         22    1    1    0    0    0 -0.28633859764E+02 -0.49397138611E+01  0.31923757723E+01  0.29231660252E+02  0.00000000000E+00 0. -1.
</event>
<event>
 5    1  0.2295577E-004  0.9118800E+02  0.7818608E-02  0.1130116E+00
         25   -1    0    0    0    0  0.00000000000E+00  0.00000000000E+00  0.99999998245E-14  0.12500000000E+03  0.12500000000E+03 0.  0.
        -13    1    3    3    0    0 -0.81678412096E+01 -0.10698515451E+02  0.49692019805E+02  0.51482811299E+02  0.10566000000E+00 0. -1.
         23    2    1    0    0    0 -0.23581655410E+02  0.10391509823E+02  0.14122285319E+02  0.95614342088E+02  0.90986732670E+02 0.  0.
         13    1    3    3    0    0 -0.15413814201E+02  0.21090025275E+02 -0.35569734486E+02  0.44131530789E+02  0.10566000000E+00 0.  1.
         22    1    1    0    0    0  0.23581655410E+02 -0.10391509823E+02 -0.14122285319E+02  0.29385657912E+02  0.00000000000E+00 0. -1.
</event>
<event>
 5    1  0.2295577E-004  0.9118800E+02  0.7818608E-02  0.1130116E+00
         25   -1    0    0    0    0  0.00000000000E+00  0.00000000000E+00  0.99999998245E-14  0.12500000000E+03  0.12500000000E+03 0.  0.
        -13    1    3    3    0    0 -0.69786291658E+01 -0.50916727538E+02 -0.25043871541E+02  0.57170106472E+02  0.10566000000E+00 0.  1.
         23    2    1    0    0    0  0.14483541871E+02 -0.20623957715E+02 -0.15165637560E+02  0.95587125615E+02  0.90949334268E+02 0.  0.
         13    1    3    3    0    0  0.21462171037E+02  0.30292769824E+02  0.98782339811E+01  0.38417019143E+02  0.10566000000E+00 0. -1.
         22    1    1    0    0    0 -0.14483541871E+02  0.20623957715E+02  0.15165637560E+02  0.29412874385E+02  0.00000000000E+00 0.  1.
</event>
<event>
 5    1  0.2295577E-004  0.9118800E+02  0.7818608E-02  0.1130116E+00
         25   -1    0    0    0    0  0.00000000000E+00  0.00000000000E+00  0.99999998245E-14  0.12500000000E+03  0.12500000000E+03 0.  0.
        -13    1    3    3    0    0  0.84100192687E+01 -0.14953794657E+02 -0.53289576991E+02  0.55983341975E+02  0.10566000000E+00 0.  1.
         23    2    1    0    0    0 -0.85821050976E+01  0.93480354972E+01 -0.24985517196E+02  0.96976539023E+02  0.92839295321E+02 0.  0.
         13    1    3    3    0    0 -0.16992124366E+02  0.24301830155E+02  0.28304059795E+02  0.40993197048E+02  0.10566000000E+00 0. -1.
         22    1    1    0    0    0  0.85821050976E+01 -0.93480354972E+01  0.24985517196E+02  0.28023460977E+02  0.00000000000E+00 0.  1.
</event>
<event>
 5    1  0.2295577E-004  0.9118800E+02  0.7818608E-02  0.1130116E+00
         25   -1    0    0    0    0  0.00000000000E+00  0.00000000000E+00  0.99999998245E-14  0.12500000000E+03  0.12500000000E+03 0.  0.
        -13    1    3    3    0    0 -0.25794979281E+02 -0.28696563191E+02  0.11938600785E+02  0.40390779242E+02  0.10566000000E+00 0.  1.
         23    2    1    0    0    0 -0.15833085021E+02  0.24651239413E+02  0.14421968237E+01  0.95666569966E+02  0.91058456452E+02 0.  0.
         13    1    3    3    0    0  0.99618942601E+01  0.53347802604E+02 -0.10496403962E+02  0.55275790723E+02  0.10566000000E+00 0. -1.
         22    1    1    0    0    0  0.15833085021E+02 -0.24651239413E+02 -0.14421968237E+01  0.29333430034E+02  0.00000000000E+00 0. -1.
</event>
<event>
 5    1  0.2295577E-004  0.9118800E+02  0.7818608E-02  0.1130116E+00
         25   -1    0    0    0    0  0.00000000000E+00  0.00000000000E+00  0.99999998245E-14  0.12500000000E+03  0.12500000000E+03 0.  0.
        -13    1    3    3    0    0  0.10937724155E+02  0.21121221204E+02  0.22710170820E+02  0.32886210142E+02  0.10566000000E+00 0. -1.
         23    2    1    0    0    0 -0.18790604437E+01 -0.20261476840E+02 -0.21924335542E+02  0.95087882041E+02  0.90260570074E+02 0.  0.
         13    1    3    3    0    0 -0.12816784598E+02 -0.41382698043E+02 -0.44634506362E+02  0.62201671898E+02  0.10566000000E+00 0.  1.
         22    1    1    0    0    0  0.18790604437E+01  0.20261476840E+02  0.21924335542E+02  0.29912117959E+02  0.00000000000E+00 0.  1.
</event>
<event>
 5    1  0.2295577E-004  0.9118800E+02  0.7818608E-02  0.1130116E+00
         25   -1    0    0    0    0  0.00000000000E+00  0.00000000000E+00  0.99999998245E-14  0.12500000000E+03  0.12500000000E+03 0.  0.
        -13    1    3    3    0    0 -0.43943778447E+01  0.28733137772E+02 -0.41607745869E+02  0.50755486828E+02  0.10566000000E+00 0. -1.
         23    2    1    0    0    0  0.24614932153E+02  0.82068172494E+01 -0.17040959631E+02  0.93957431817E+02  0.88681215341E+02 0.  0.
         13    1    3    3    0    0  0.29009309997E+02 -0.20526320523E+02  0.24566786238E+02  0.43201944989E+02  0.10566000000E+00 0.  1.
         22    1    1    0    0    0 -0.24614932153E+02 -0.82068172494E+01  0.17040959631E+02  0.31042568183E+02  0.00000000000E+00 0.  1.
</event>
<event>
 5    1  0.2295577E-004  0.9118800E+02  0.7818608E-02  0.1130116E+00
         25   -1    0    0    0    0  0.00000000000E+00  0.00000000000E+00  0.99999998245E-14  0.12500000000E+03  0.12500000000E+03 0.  0.
        -13    1    3    3    0    0  0.34926050893E+02  0.94251162859E+01 -0.46312175551E+02  0.58766407209E+02  0.10566000000E+00 0.  1.
         23    2    1    0    0    0  0.31669499977E+01 -0.93648769126E+00 -0.27888347901E+02  0.96916792737E+02  0.92758817286E+02 0.  0.
         13    1    3    3    0    0 -0.31759100895E+02 -0.10361603977E+02  0.18423827650E+02  0.38150385528E+02  0.10566000000E+00 0. -1.
         22    1    1    0    0    0 -0.31669499977E+01  0.93648769126E+00  0.27888347901E+02  0.28083207263E+02  0.00000000000E+00 0.  1.
</event>
<event>
 5    1  0.2295577E-004  0.9118800E+02  0.7818608E-02  0.1130116E+00
         25   -1    0    0    0    0  0.00000000000E+00  0.00000000000E+00  0.99999998245E-14  0.12500000000E+03  0.12500000000E+03 0.  0.
        -13    1    3    3    0    0 -0.29905420455E+02  0.37958624149E+02 -0.92200023228E+01  0.49195639306E+02  0.10566000000E+00 0.  1.
         23    2    1    0    0    0  0.10385306751E+02  0.21969450899E+02 -0.19613518104E+02  0.93771784208E+02  0.88419149804E+02 0.  0.
         13    1    3    3    0    0  0.40290727206E+02 -0.15989173250E+02 -0.10393515781E+02  0.44576144902E+02  0.10566000000E+00 0. -1.
         22    1    1    0    0    0 -0.10385306751E+02 -0.21969450899E+02  0.19613518104E+02  0.31228215792E+02  0.00000000000E+00 0.  1.
</event>
<event>
 5    1  0.2295577E-004  0.9118800E+02  0.7818608E-02  0.1130116E+00
         25   -1    0    0    0    0  0.00000000000E+00  0.00000000000E+00  0.99999998245E-14  0.12500000000E+03  0.12500000000E+03 0.  0.
        -13    1    3    3    0    0 -0.17273670714E+02  0.17199210562E+02  0.31738528666E+02  0.40019219256E+02  0.10566000000E+00 0. -1.
         23    2    1    0    0    0 -0.14469501903E+02 -0.26131033200E+02 -0.20825127331E+01  0.95057818371E+02  0.90218925912E+02 0.  0.
         13    1    3    3    0    0  0.28041688118E+01 -0.43330243762E+02 -0.33821041399E+02  0.55038599115E+02  0.10566000000E+00 0.  1.
         22    1    1    0    0    0  0.14469501903E+02  0.26131033200E+02  0.20825127331E+01  0.29942181629E+02  0.00000000000E+00 0.  1.
</event>
<event>
 5    1  0.2295577E-004  0.9118800E+02  0.7818608E-02  0.1130116E+00
         25   -1    0    0    0    0  0.00000000000E+00  0.00000000000E+00  0.99999998245E-14  0.12500000000E+03  0.12500000000E+03 0.  0.
        -13    1    3    3    0    0  0.16570306131E+02  0.11848649700E+02 -0.43671008847E+02  0.48188522728E+02  0.10566000000E+00 0.  1.
         23    2    1    0    0    0  0.38780998522E+01 -0.24335978709E+02 -0.20093838857E+02  0.93203115275E+02  0.87611522180E+02 0.  0.
         13    1    3    3    0    0 -0.12692206279E+02 -0.36184628410E+02  0.23577169990E+02  0.45014592546E+02  0.10566000000E+00 0. -1.
         22    1    1    0    0    0 -0.38780998522E+01  0.24335978709E+02  0.20093838857E+02  0.31796884725E+02  0.00000000000E+00 0.  1.
</event>
<event>
 5    1  0.2295577E-004  0.9118800E+02  0.7818608E-02  0.1130116E+00
         25   -1    0    0    0    0  0.00000000000E+00  0.00000000000E+00  0.99999998245E-14  0.12500000000E+03  0.12500000000E+03 0.  0.
        -13    1    3    3    0    0 -0.20618078353E+02 -0.10094744261E+02  0.38544144051E+02  0.44862804430E+02  0.10566000000E+00 0. -1.
         23    2    1    0    0    0 -0.18211269394E+02 -0.13376004154E+02 -0.14557893018E+02  0.98120638602E+02  0.94367153451E+02 0.  0.
         13    1    3    3    0    0  0.24068089586E+01 -0.32812598929E+01 -0.53102037068E+02  0.53257834172E+02  0.10566000000E+00 0.  1.
         22    1    1    0    0    0  0.18211269394E+02  0.13376004154E+02  0.14557893018E+02  0.26879361398E+02  0.00000000000E+00 0. -1.
</event>
<event>
 5    1  0.2295577E-004  0.9118800E+02  0.7818608E-02  0.1130116E+00
         25   -1    0    0    0    0  0.00000000000E+00  0.00000000000E+00  0.99999998245E-14  0.12500000000E+03  0.12500000000E+03 0.  0.
        -13    1    3    3    0    0  0.32029969476E+02  0.13742806153E+02 -0.27897509657E+01  0.34965376304E+02  0.10566000000E+00 0. -1.
         23    2    1    0    0    0 -0.27505820482E+02  0.56938020040E+01  0.75217338507E+01  0.95921382052E+02  0.91407579079E+02 0.  0.
         13    1    3    3    0    0 -0.59535789958E+02 -0.80490041487E+01  0.10311484816E+02  0.60956005748E+02  0.10566000000E+00 0.  1.
         22    1    1    0    0    0  0.27505820482E+02 -0.56938020040E+01 -0.75217338507E+01  0.29078617948E+02  0.00000000000E+00 0.  1.
</event>
<event>
 5    1  0.2295577E-004  0.9118800E+02  0.7818608E-02  0.1130116E+00
         25   -1    0    0    0    0  0.00000000000E+00  0.00000000000E+00  0.99999998245E-14  0.12500000000E+03  0.12500000000E+03 0.  0.
        -13    1    3    3    0    0 -0.27937363101E+02 -0.26901651922E+02 -0.20223811771E+02  0.43740243024E+02  0.10566000000E+00 0.  1.
         23    2    1    0    0    0 -0.14903419333E+01  0.18475255787E+02 -0.21925803721E+02  0.96289425915E+02  0.91909501570E+02 0.  0.
         13    1    3    3    0    0  0.26447021168E+02  0.45376907709E+02 -0.17019919492E+01  0.52549182891E+02  0.10566000000E+00 0. -1.
         22    1    1    0    0    0  0.14903419333E+01 -0.18475255787E+02  0.21925803721E+02  0.28710574085E+02  0.00000000000E+00 0. -1.
</event>
<event>
 5    1  0.2295577E-004  0.9118800E+02  0.7818608E-02  0.1130116E+00
         25   -1    0    0    0    0  0.00000000000E+00  0.00000000000E+00  0.99999998245E-14  0.12500000000E+03  0.12500000000E+03 0.  0.
        -13    1    3    3    0    0 -0.31376306676E+02 -0.10397501974E+02 -0.31823455538E+02  0.45883811462E+02  0.10566000000E+00 0.  1.
         23    2    1    0    0    0 -0.25618544812E+01  0.25919347533E+02 -0.12518092552E+02  0.96102278359E+02  0.91654621213E+02 0.  0.
         13    1    3    3    0    0  0.28814452195E+02  0.36316849507E+02  0.19305362985E+02  0.50218466896E+02  0.10566000000E+00 0. -1.
         22    1    1    0    0    0  0.25618544812E+01 -0.25919347533E+02  0.12518092552E+02  0.28897721641E+02  0.00000000000E+00 0. -1.
</event>
<event>
 5    1  0.2295577E-004  0.9118800E+02  0.7818608E-02  0.1130116E+00
         25   -1    0    0    0    0  0.00000000000E+00  0.00000000000E+00  0.99999998245E-14  0.12500000000E+03  0.12500000000E+03 0.  0.
        -13    1    3    3    0    0  0.38715201638E+02 -0.23395502088E+02  0.33035388880E+02  0.56013966458E+02  0.10566000000E+00 0.  1.
         23    2    1    0    0    0  0.86014327480E+01  0.33674756581E+01  0.26637184817E+02  0.96806664749E+02  0.92610292015E+02 0.  0.
         13    1    3    3    0    0 -0.30113768890E+02  0.26762977746E+02 -0.63982040632E+01  0.40792698291E+02  0.10566000000E+00 0. -1.
         22    1    1    0    0    0 -0.86014327480E+01 -0.33674756581E+01 -0.26637184817E+02  0.28193335251E+02  0.00000000000E+00 0.  1.
</event>
<event>
 5    1  0.2295577E-004  0.9118800E+02  0.7818608E-02  0.1130116E+00
         25   -1    0    0    0    0  0.00000000000E+00  0.00000000000E+00  0.99999998245E-14  0.12500000000E+03  0.12500000000E+03 0.  0.
        -13    1    3    3    0    0 -0.63735817748E+00  0.18077891791E+02 -0.12621211452E+02  0.22057255940E+02  0.10566000000E+00 0.  1.
         23    2    1    0    0    0 -0.32829694477E+02 -0.24987195916E+02  0.13171550540E+02  0.81691357181E+02  0.69266437004E+02 0.  0.
         13    1    3    3    0    0 -0.32192336299E+02 -0.43065087707E+02  0.25792761992E+02  0.59634101241E+02  0.10566000000E+00 0. -1.
         22    1    1    0    0    0  0.32829694477E+02  0.24987195916E+02 -0.13171550540E+02  0.43308642819E+02  0.00000000000E+00 0. -1.
</event>
<event>
 5    1  0.2295577E-004  0.9118800E+02  0.7818608E-02  0.1130116E+00
         25   -1    0    0    0    0  0.00000000000E+00  0.00000000000E+00  0.99999998245E-14  0.12500000000E+03  0.12500000000E+03 0.  0.
        -13    1    3    3    0    0 -0.52758085555E+02 -0.60777131573E+01 -0.87713505683E+00  0.53114355109E+02  0.10566000000E+00 0.  1.
         23    2    1    0    0    0 -0.12189977124E+02 -0.23724069822E+02  0.53669251278E+01  0.97792814983E+02  0.93931910158E+02 0.  0.
         13    1    3    3    0    0  0.40568108431E+02 -0.17646356664E+02  0.62440601846E+01  0.44678459875E+02  0.10566000000E+00 0. -1.
         22    1    1    0    0    0  0.12189977124E+02  0.23724069822E+02 -0.53669251278E+01  0.27207185017E+02  0.00000000000E+00 0.  1.
</event>
<event>
 5    1  0.2295577E-004  0.9118800E+02  0.7818608E-02  0.1130116E+00
         25   -1    0    0    0    0  0.00000000000E+00  0.00000000000E+00  0.99999998245E-14  0.12500000000E+03  0.12500000000E+03 0.  0.
        -13    1    3    3    0    0 -0.29738187398E+02  0.75810394487E+01  0.39545378831E+02  0.50056768771E+02  0.10566000000E+00 0.  1.
         23    2    1    0    0    0 -0.24166290550E+02  0.13822804417E+02 -0.61304895912E+01  0.96492765418E+02  0.92185635293E+02 0.  0.
         13    1    3    3    0    0  0.55718968475E+01  0.62417649683E+01 -0.45675868423E+02  0.46435996647E+02  0.10566000000E+00 0. -1.
         22    1    1    0    0    0  0.24166290550E+02 -0.13822804417E+02  0.61304895912E+01  0.28507234582E+02  0.00000000000E+00 0.  1.
</event>
<event>
 5    1  0.2295577E-004  0.9118800E+02  0.7818608E-02  0.1130116E+00
         25   -1    0    0    0    0  0.00000000000E+00  0.00000000000E+00  0.99999998245E-14  0.12500000000E+03  0.12500000000E+03 0.  0.
        -13    1    3    3    0    0  0.99876130093E+01  0.23488083864E+02  0.25332637444E+02  0.35961036986E+02  0.10566000000E+00 0.  1.
         23    2    1    0    0    0 -0.17918206402E+02  0.14794459741E+01 -0.22907412973E+02  0.95879552714E+02  0.91350359487E+02 0.  0.
         13    1    3    3    0    0 -0.27905819411E+02 -0.22008637890E+02 -0.48240050416E+02  0.59918515728E+02  0.10566000000E+00 0. -1.
         22    1    1    0    0    0  0.17918206402E+02 -0.14794459741E+01  0.22907412973E+02  0.29120447286E+02  0.00000000000E+00 0. -1.
</event>
<event>
 5    1  0.2295577E-004  0.9118800E+02  0.7818608E-02  0.1130116E+00
         25   -1    0    0    0    0  0.00000000000E+00  0.00000000000E+00  0.99999998245E-14  0.12500000000E+03  0.12500000000E+03 0.  0.
        -13    1    3    3    0    0  0.17033434181E+02  0.39825676092E+01 -0.37521783168E+02  0.41399204110E+02  0.10566000000E+00 0. -1.
         23    2    1    0    0    0  0.35860534245E+02 -0.46928052071E+01  0.47915515270E+01  0.88517685064E+02  0.80649992349E+02 0.  0.
         13    1    3    3    0    0  0.18827100064E+02 -0.86753728163E+01  0.42313334695E+02  0.47118480954E+02  0.10566000000E+00 0.  1.
         22    1    1    0    0    0 -0.35860534245E+02  0.46928052071E+01 -0.47915515270E+01  0.36482314936E+02  0.00000000000E+00 0.  1.
</event>
<event>
 5    1  0.2295577E-004  0.9118800E+02  0.7818608E-02  0.1130116E+00
         25   -1    0    0    0    0  0.00000000000E+00  0.00000000000E+00  0.99999998245E-14  0.12500000000E+03  0.12500000000E+03 0.  0.
        -13    1    3    3    0    0 -0.11926189902E+02  0.32804047313E+02  0.43289747323E+02  0.55608928357E+02  0.10566000000E+00 0. -1.
         23    2    1    0    0    0  0.51601958055E+01  0.27534403838E+02  0.69082880274E+01  0.96147002601E+02  0.91715596548E+02 0.  0.
         13    1    3    3    0    0  0.17086385708E+02 -0.52696434752E+01 -0.36381459295E+02  0.40538074244E+02  0.10566000000E+00 0.  1.
         22    1    1    0    0    0 -0.51601958055E+01 -0.27534403838E+02 -0.69082880274E+01  0.28852997399E+02  0.00000000000E+00 0. -1.
</event>
<event>
 5    1  0.2295577E-004  0.9118800E+02  0.7818608E-02  0.1130116E+00
         25   -1    0    0    0    0  0.00000000000E+00  0.00000000000E+00  0.99999998245E-14  0.12500000000E+03  0.12500000000E+03 0.  0.
        -13    1    3    3    0    0  0.40712741130E+02  0.29118416803E+01 -0.31633278010E+02  0.51639922095E+02  0.10566000000E+00 0. -1.
         23    2    1    0    0    0  0.75429310070E+01 -0.89755665523E+01 -0.35994191116E+02  0.87144506380E+02  0.78492844228E+02 0.  0.
         13    1    3    3    0    0 -0.33169810123E+02 -0.11887408233E+02 -0.43609131061E+01  0.35504584285E+02  0.10566000000E+00 0.  1.
         22    1    1    0    0    0 -0.75429310070E+01  0.89755665523E+01  0.35994191116E+02  0.37855493620E+02  0.00000000000E+00 0.  1.
</event>
<event>
 5    1  0.2295577E-004  0.9118800E+02  0.7818608E-02  0.1130116E+00
         25   -1    0    0    0    0  0.00000000000E+00  0.00000000000E+00  0.99999998245E-14  0.12500000000E+03  0.12500000000E+03 0.  0.
        -13    1    3    3    0    0  0.83918973960E+01  0.48800706174E+02  0.20129845616E+02  0.53452359289E+02  0.10566000000E+00 0. -1.
         23    2    1    0    0    0  0.14207499278E+02  0.22233057401E+02 -0.12394132942E+02  0.95849075340E+02  0.91308646004E+02 0.  0.
         13    1    3    3    0    0  0.58156018818E+01 -0.26567648774E+02 -0.32523978558E+02  0.42396716051E+02  0.10566000000E+00 0.  1.
         22    1    1    0    0    0 -0.14207499278E+02 -0.22233057401E+02  0.12394132942E+02  0.29150924660E+02  0.00000000000E+00 0. -1.
</event>
<event>
 5    1  0.2295577E-004  0.9118800E+02  0.7818608E-02  0.1130116E+00
         25   -1    0    0    0    0  0.00000000000E+00  0.00000000000E+00  0.99999998245E-14  0.12500000000E+03  0.12500000000E+03 0.  0.
        -13    1    3    3    0    0  0.33354958264E+01  0.26055592389E+02 -0.32105779941E+02  0.41482667427E+02  0.10566000000E+00 0.  1.
         23    2    1    0    0    0 -0.75703138523E+01  0.23349200822E+02  0.19094679418E+02  0.93901742607E+02  0.88602684224E+02 0.  0.
         13    1    3    3    0    0 -0.10905809679E+02 -0.27063915678E+01  0.51200459359E+02  0.52419075180E+02  0.10566000000E+00 0. -1.
         22    1    1    0    0    0  0.75703138523E+01 -0.23349200822E+02 -0.19094679418E+02  0.31098257393E+02  0.00000000000E+00 0. -1.
</event>
<event>
 5    1  0.2295577E-004  0.9118800E+02  0.7818608E-02  0.1130116E+00
         25   -1    0    0    0    0  0.00000000000E+00  0.00000000000E+00  0.99999998245E-14  0.12500000000E+03  0.12500000000E+03 0.  0.
        -13    1    3    3    0    0 -0.53053228249E+02 -0.22708893243E+02  0.34983697615E+01  0.57815124448E+02  0.10566000000E+00 0.  1.
         23    2    1    0    0    0 -0.15629943044E+02 -0.22659827627E+02  0.98291780067E+01  0.95770295111E+02  0.91200733427E+02 0.  0.
         13    1    3    3    0    0  0.37423285205E+02  0.49065615942E-01  0.63308082452E+01  0.37955170663E+02  0.10566000000E+00 0. -1.
         22    1    1    0    0    0  0.15629943044E+02  0.22659827627E+02 -0.98291780067E+01  0.29229704889E+02  0.00000000000E+00 0.  1.
</event>
<event>
 5    1  0.2295577E-004  0.9118800E+02  0.7818608E-02  0.1130116E+00
         25   -1    0    0    0    0  0.00000000000E+00  0.00000000000E+00  0.99999998245E-14  0.12500000000E+03  0.12500000000E+03 0.  0.
        -13    1    3    3    0    0 -0.52683306513E+02  0.90992916301E+01 -0.88902215645E+01  0.54197556188E+02  0.10566000000E+00 0. -1.
         23    2    1    0    0    0 -0.26566871811E+02 -0.17564119682E+02 -0.10243319151E+02  0.91545216108E+02  0.85213285507E+02 0.  0.
         13    1    3    3    0    0  0.26116434702E+02 -0.26663411312E+02 -0.13530975869E+01  0.37347659919E+02  0.10566000000E+00 0.  1.
         22    1    1    0    0    0  0.26566871811E+02  0.17564119682E+02  0.10243319151E+02  0.33454783892E+02  0.00000000000E+00 0.  1.
</event>
<event>
 5    1  0.2295577E-004  0.9118800E+02  0.7818608E-02  0.1130116E+00
         25   -1    0    0    0    0  0.00000000000E+00  0.00000000000E+00  0.99999998245E-14  0.12500000000E+03  0.12500000000E+03 0.  0.
        -13    1    3    3    0    0 -0.38980904140E+02  0.91726095798E+01  0.22240270271E+02  0.45807078491E+02  0.10566000000E+00 0. -1.
         23    2    1    0    0    0 -0.18594917712E+02  0.15748171393E+02 -0.20201202079E+02  0.93347757862E+02  0.87817648941E+02 0.  0.
         13    1    3    3    0    0  0.20385986428E+02  0.65755618128E+01 -0.42441472350E+02  0.47540679371E+02  0.10566000000E+00 0.  1.
         22    1    1    0    0    0  0.18594917712E+02 -0.15748171393E+02  0.20201202079E+02  0.31652242138E+02  0.00000000000E+00 0. -1.
</event>
<event>
 5    1  0.2295577E-004  0.9118800E+02  0.7818608E-02  0.1130116E+00
         25   -1    0    0    0    0  0.00000000000E+00  0.00000000000E+00  0.99999998245E-14  0.12500000000E+03  0.12500000000E+03 0.  0.
        -13    1    3    3    0    0  0.35492207926E+02 -0.32887407684E+02 -0.24815991186E+02  0.54379435361E+02  0.10566000000E+00 0. -1.
         23    2    1    0    0    0  0.29349254652E+02  0.99935568947E-01 -0.80595125311E+00  0.95639511360E+02  0.91021304320E+02 0.  0.
         13    1    3    3    0    0 -0.61429532745E+01  0.32987343253E+02  0.24010039933E+02  0.41260075999E+02  0.10566000000E+00 0.  1.
         22    1    1    0    0    0 -0.29349254652E+02 -0.99935568947E-01  0.80595125311E+00  0.29360488640E+02  0.00000000000E+00 0. -1.
</event>
<event>
 4    1  0.2295577E-004  0.9118800E+02  0.7818608E-02  0.1130116E+00
         25   -1    0    0    0    0  0.00000000000E+00  0.00000000000E+00  0.99999998245E-14  0.12500000000E+03  0.12500000000E+03 0.  0.
        -13    1    1    0    0    0 -0.40510475979E+02  0.30490959096E+02 -0.23917233464E+02  0.56061060204E+02  0.10566000000E+00 0.  1.
         13    1    1    0    0    0  0.12608936522E+02  0.42603022261E+01 -0.66685491559E+01  0.14886778267E+02  0.10566000000E+00 0. -1.
         22    1    1    0    0    0  0.27901539456E+02 -0.34751261322E+02  0.30585782620E+02  0.54052161529E+02  0.00000000000E+00 0.  1.
</event>
<event>
 5    1  0.2295577E-004  0.9118800E+02  0.7818608E-02  0.1130116E+00
         25   -1    0    0    0    0  0.00000000000E+00  0.00000000000E+00  0.99999998245E-14  0.12500000000E+03  0.12500000000E+03 0.  0.
        -13    1    3    3    0    0  0.10648861314E+02  0.43018687046E+02  0.53230062948E+01  0.44635761923E+02  0.10566000000E+00 0. -1.
         23    2    1    0    0    0  0.26910256051E+02 -0.22744259902E+01 -0.11544038646E+02  0.95629951948E+02  0.91008175386E+02 0.  0.
         13    1    3    3    0    0  0.16261394737E+02 -0.45293113036E+02 -0.16867044941E+02  0.50994190025E+02  0.10566000000E+00 0.  1.
         22    1    1    0    0    0 -0.26910256051E+02  0.22744259902E+01  0.11544038646E+02  0.29370048052E+02  0.00000000000E+00 0. -1.
</event>
<event>
 5    1  0.2295577E-004  0.9118800E+02  0.7818608E-02  0.1130116E+00
         25   -1    0    0    0    0  0.00000000000E+00  0.00000000000E+00  0.99999998245E-14  0.12500000000E+03  0.12500000000E+03 0.  0.
        -13    1    3    3    0    0  0.31314164813E+01 -0.19820946790E+02 -0.43820982835E+02  0.48197151384E+02  0.10566000000E+00 0.  1.
         23    2    1    0    0    0 -0.22086173354E+02 -0.27512268929E+02 -0.16890503939E+02  0.85884617880E+02  0.76460149556E+02 0.  0.
         13    1    3    3    0    0 -0.25217589835E+02 -0.76913221397E+01  0.26930478896E+02  0.37687466497E+02  0.10566000000E+00 0. -1.
         22    1    1    0    0    0  0.22086173354E+02  0.27512268929E+02  0.16890503939E+02  0.39115382120E+02  0.00000000000E+00 0. -1.
</event>
<event>
 5    1  0.2295577E-004  0.9118800E+02  0.7818608E-02  0.1130116E+00
         25   -1    0    0    0    0  0.00000000000E+00  0.00000000000E+00  0.99999998245E-14  0.12500000000E+03  0.12500000000E+03 0.  0.
        -13    1    3    3    0    0  0.94020679534E+01  0.11163922091E+02  0.34979780625E+02  0.37902879243E+02  0.10566000000E+00 0. -1.
         23    2    1    0    0    0 -0.10627100999E+02 -0.28370495091E+02 -0.54093347598E+00  0.94699622505E+02  0.89721266298E+02 0.  0.
         13    1    3    3    0    0 -0.20029168952E+02 -0.39534417182E+02 -0.35520714101E+02  0.56796743262E+02  0.10566000000E+00 0.  1.
         22    1    1    0    0    0  0.10627100999E+02  0.28370495091E+02  0.54093347598E+00  0.30300377495E+02  0.00000000000E+00 0.  1.
</event>
<event>
 5    1  0.2295577E-004  0.9118800E+02  0.7818608E-02  0.1130116E+00
         25   -1    0    0    0    0  0.00000000000E+00  0.00000000000E+00  0.99999998245E-14  0.12500000000E+03  0.12500000000E+03 0.  0.
        -13    1    3    3    0    0 -0.28762800979E+02  0.13156367504E+02 -0.14855103638E+02  0.34943869193E+02  0.10566000000E+00 0.  1.
         23    2    1    0    0    0  0.10150343870E+02 -0.53930869616E+01  0.27386965942E+02  0.95298808590E+02  0.90552206751E+02 0.  0.
         13    1    3    3    0    0  0.38913144849E+02 -0.18549454465E+02  0.42242069581E+02  0.60354939396E+02  0.10566000000E+00 0. -1.
         22    1    1    0    0    0 -0.10150343870E+02  0.53930869616E+01 -0.27386965942E+02  0.29701191410E+02  0.00000000000E+00 0. -1.
</event>
<event>
 5    1  0.2295577E-004  0.9118800E+02  0.7818608E-02  0.1130116E+00
         25   -1    0    0    0    0  0.00000000000E+00  0.00000000000E+00  0.99999998245E-14  0.12500000000E+03  0.12500000000E+03 0.  0.
        -13    1    3    3    0    0 -0.59242872348E+02 -0.11805515014E+02 -0.13228673351E+02  0.61839284209E+02  0.10566000000E+00 0. -1.
         23    2    1    0    0    0 -0.24431703310E+02 -0.64475398878E+01 -0.11859557327E+02  0.97087135632E+02  0.92988084763E+02 0.  0.
         13    1    3    3    0    0  0.34811169038E+02  0.53579751258E+01  0.13691160237E+01  0.35247851423E+02  0.10566000000E+00 0.  1.
         22    1    1    0    0    0  0.24431703310E+02  0.64475398878E+01  0.11859557327E+02  0.27912864368E+02  0.00000000000E+00 0. -1.
</event>
<event>
 5    1  0.2295577E-004  0.9118800E+02  0.7818608E-02  0.1130116E+00
         25   -1    0    0    0    0  0.00000000000E+00  0.00000000000E+00  0.99999998245E-14  0.12500000000E+03  0.12500000000E+03 0.  0.
        -13    1    3    3    0    0  0.29893200169E+02 -0.18453552948E+02 -0.35830873037E+02  0.50179673767E+02  0.10566000000E+00 0.  1.
         23    2    1    0    0    0  0.16403694768E+02  0.19447684264E+02 -0.14533313536E+02  0.95699644582E+02  0.91103848138E+02 0.  0.
         13    1    3    3    0    0 -0.13489505401E+02  0.37901237213E+02  0.21297559502E+02  0.45519970815E+02  0.10566000000E+00 0. -1.
         22    1    1    0    0    0 -0.16403694768E+02 -0.19447684264E+02  0.14533313536E+02  0.29300355418E+02  0.00000000000E+00 0. -1.
</event>
<event>
 5    1  0.2295577E-004  0.9118800E+02  0.7818608E-02  0.1130116E+00
         25   -1    0    0    0    0  0.00000000000E+00  0.00000000000E+00  0.99999998245E-14  0.12500000000E+03  0.12500000000E+03 0.  0.
        -13    1    3    3    0    0  0.12208015299E+02 -0.30669091962E+02  0.74057005582E+01  0.33830229147E+02  0.10566000000E+00 0. -1.
         23    2    1    0    0    0 -0.16217412756E+02  0.24142252864E+02  0.36521334986E+01  0.95688041196E+02  0.91087926198E+02 0.  0.
         13    1    3    3    0    0 -0.28425428055E+02  0.54811344826E+02 -0.37535670596E+01  0.61857812049E+02  0.10566000000E+00 0.  1.
         22    1    1    0    0    0  0.16217412756E+02 -0.24142252864E+02 -0.36521334986E+01  0.29311958804E+02  0.00000000000E+00 0.  1.
</event>
<event>
 5    1  0.2295577E-004  0.9118800E+02  0.7818608E-02  0.1130116E+00
         25   -1    0    0    0    0  0.00000000000E+00  0.00000000000E+00  0.99999998245E-14  0.12500000000E+03  0.12500000000E+03 0.  0.
        -13    1    3    3    0    0 -0.26332301550E+02 -0.19042168152E+02  0.23861962533E+02  0.40316233614E+02  0.10566000000E+00 0.  1.
         23    2    1    0    0    0  0.16763088710E+02  0.14092534444E+02  0.20852338082E+02  0.94760610561E+02  0.89806194888E+02 0.  0.
         13    1    3    3    0    0  0.43095390260E+02  0.33134702597E+02 -0.30096244507E+01  0.54444376947E+02  0.10566000000E+00 0. -1.
         22    1    1    0    0    0 -0.16763088710E+02 -0.14092534444E+02 -0.20852338082E+02  0.30239389439E+02  0.00000000000E+00 0. -1.
</event>
<event>
 5    1  0.2295577E-004  0.9118800E+02  0.7818608E-02  0.1130116E+00
         25   -1    0    0    0    0  0.00000000000E+00  0.00000000000E+00  0.99999998245E-14  0.12500000000E+03  0.12500000000E+03 0.  0.
        -13    1    3    3    0    0  0.15568663453E+02  0.34139468333E+02 -0.32614266105E+02  0.49715069118E+02  0.10566000000E+00 0. -1.
         23    2    1    0    0    0  0.97314835579E+01 -0.10954739263E+02 -0.25289985982E+02  0.95771734989E+02  0.91202706908E+02 0.  0.
         13    1    3    3    0    0 -0.58371798954E+01 -0.45094207596E+02  0.73242801223E+01  0.46056665872E+02  0.10566000000E+00 0.  1.
         22    1    1    0    0    0 -0.97314835579E+01  0.10954739263E+02  0.25289985982E+02  0.29228265011E+02  0.00000000000E+00 0.  1.
</event>
<event>
 5    1  0.2295577E-004  0.9118800E+02  0.7818608E-02  0.1130116E+00
         25   -1    0    0    0    0  0.00000000000E+00  0.00000000000E+00  0.99999998245E-14  0.12500000000E+03  0.12500000000E+03 0.  0.
        -13    1    3    3    0    0  0.47261997661E+02  0.20055289840E+02 -0.19794071079E+02  0.55024789754E+02  0.10566000000E+00 0.  1.
         23    2    1    0    0    0  0.22369013417E+02 -0.25462567514E+00 -0.28933687862E+02  0.88426841964E+02  0.80509070861E+02 0.  0.
         13    1    3    3    0    0 -0.24892984245E+02 -0.20309915515E+02 -0.91396167828E+01  0.33402052210E+02  0.10566000000E+00 0. -1.
         22    1    1    0    0    0 -0.22369013417E+02  0.25462567514E+00  0.28933687862E+02  0.36573158036E+02  0.00000000000E+00 0.  1.
</event>
<event>
 5    1  0.2295577E-004  0.9118800E+02  0.7818608E-02  0.1130116E+00
         25   -1    0    0    0    0  0.00000000000E+00  0.00000000000E+00  0.99999998245E-14  0.12500000000E+03  0.12500000000E+03 0.  0.
        -13    1    3    3    0    0  0.61502916840E+01 -0.37268358659E+02  0.15203622197E+01  0.37803165347E+02  0.10566000000E+00 0. -1.
         23    2    1    0    0    0  0.26911890565E+02  0.14316169323E+02 -0.60516596710E+01  0.93922272563E+02  0.88631642999E+02 0.  0.
         13    1    3    3    0    0  0.20761598881E+02  0.51584527981E+02 -0.75720218907E+01  0.56119107216E+02  0.10566000000E+00 0.  1.
         22    1    1    0    0    0 -0.26911890565E+02 -0.14316169323E+02  0.60516596710E+01  0.31077727437E+02  0.00000000000E+00 0.  1.
</event>
<event>
 5    1  0.2295577E-004  0.9118800E+02  0.7818608E-02  0.1130116E+00
         25   -1    0    0    0    0  0.00000000000E+00  0.00000000000E+00  0.99999998245E-14  0.12500000000E+03  0.12500000000E+03 0.  0.
        -13    1    3    3    0    0 -0.18109729428E+02  0.30129425955E+02  0.32486481477E+01  0.35303108746E+02  0.10566000000E+00 0.  1.
         23    2    1    0    0    0  0.59463495299E+01 -0.16783191531E+02 -0.24368516221E+02  0.94819556439E+02  0.89888203397E+02 0.  0.
         13    1    3    3    0    0  0.24056078958E+02 -0.46912617486E+02 -0.27617164368E+02  0.59516447693E+02  0.10566000000E+00 0. -1.
         22    1    1    0    0    0 -0.59463495299E+01  0.16783191531E+02  0.24368516221E+02  0.30180443561E+02  0.00000000000E+00 0.  1.
</event>
<event>
 5    1  0.2295577E-004  0.9118800E+02  0.7818608E-02  0.1130116E+00
         25   -1    0    0    0    0  0.00000000000E+00  0.00000000000E+00  0.99999998245E-14  0.12500000000E+03  0.12500000000E+03 0.  0.
        -13    1    3    3    0    0 -0.11625088351E+02  0.22218981249E+02  0.22243500210E+02  0.33520296427E+02  0.10566000000E+00 0.  1.
         23    2    1    0    0    0  0.11405765968E+02 -0.80292581423E+01 -0.26330240001E+02  0.95203321961E+02  0.90420299105E+02 0.  0.
         13    1    3    3    0    0  0.23030854319E+02 -0.30248239392E+02 -0.48573740211E+02  0.61683025534E+02  0.10566000000E+00 0. -1.
         22    1    1    0    0    0 -0.11405765968E+02  0.80292581423E+01  0.26330240001E+02  0.29796678039E+02  0.00000000000E+00 0. -1.
</event>
<event>
 5    1  0.2295577E-004  0.9118800E+02  0.7818608E-02  0.1130116E+00
         25   -1    0    0    0    0  0.00000000000E+00  0.00000000000E+00  0.99999998245E-14  0.12500000000E+03  0.12500000000E+03 0.  0.
        -13    1    3    3    0    0  0.25209500882E+01  0.22423431834E+02  0.36517054535E+02  0.42926354614E+02  0.10566000000E+00 0.  1.
         23    2    1    0    0    0 -0.22171794703E+02  0.14035075812E+02 -0.10536000379E+02  0.96723169602E+02  0.92497526456E+02 0.  0.
         13    1    3    3    0    0 -0.24692744791E+02 -0.83883560216E+01 -0.47053054914E+02  0.53796814987E+02  0.10566000000E+00 0. -1.
         22    1    1    0    0    0  0.22171794703E+02 -0.14035075812E+02  0.10536000379E+02  0.28276830398E+02  0.00000000000E+00 0. -1.
</event>
<event>
 5    1  0.2295577E-004  0.9118800E+02  0.7818608E-02  0.1130116E+00
         25   -1    0    0    0    0  0.00000000000E+00  0.00000000000E+00  0.99999998245E-14  0.12500000000E+03  0.12500000000E+03 0.  0.
        -13    1    3    3    0    0 -0.49998386992E+02  0.12962481726E+02  0.18269638148E+02  0.54787366029E+02  0.10566000000E+00 0.  1.
         23    2    1    0    0    0 -0.22408659808E+02  0.15279382938E+02 -0.11587625186E+02  0.95506261092E+02  0.90838126758E+02 0.  0.
         13    1    3    3    0    0  0.27589727184E+02  0.23169012114E+01 -0.29857263334E+02  0.40718895063E+02  0.10566000000E+00 0. -1.
         22    1    1    0    0    0  0.22408659808E+02 -0.15279382938E+02  0.11587625186E+02  0.29493738908E+02  0.00000000000E+00 0.  1.
</event>
<event>
 5    1  0.2295577E-004  0.9118800E+02  0.7818608E-02  0.1130116E+00
         25   -1    0    0    0    0  0.00000000000E+00  0.00000000000E+00  0.99999998245E-14  0.12500000000E+03  0.12500000000E+03 0.  0.
        -13    1    3    3    0    0  0.21093658098E+02 -0.26024323183E+02  0.33548635559E+01  0.33667106834E+02  0.10566000000E+00 0. -1.
         23    2    1    0    0    0 -0.29071107251E+01  0.29210264390E+02  0.93592641369E+01  0.94189504001E+02  0.89007730003E+02 0.  0.
         13    1    3    3    0    0 -0.24000768823E+02  0.55234587573E+02  0.60044005811E+01  0.60522397167E+02  0.10566000000E+00 0.  1.
         22    1    1    0    0    0  0.29071107251E+01 -0.29210264390E+02 -0.93592641369E+01  0.30810495999E+02  0.00000000000E+00 0.  1.
</event>
<event>
 5    1  0.2295577E-004  0.9118800E+02  0.7818608E-02  0.1130116E+00
         25   -1    0    0    0    0  0.00000000000E+00  0.00000000000E+00  0.99999998245E-14  0.12500000000E+03  0.12500000000E+03 0.  0.
        -13    1    3    3    0    0 -0.74030947264E+01  0.39196617927E+02 -0.82263071928E+01  0.40729153717E+02  0.10566000000E+00 0. -1.
         23    2    1    0    0    0  0.29648019119E+02  0.22458111543E+01  0.53511264258E+01  0.94789351886E+02  0.89846190634E+02 0.  0.
         13    1    3    3    0    0  0.37051113846E+02 -0.36950806773E+02  0.13577433619E+02  0.54060198169E+02  0.10566000000E+00 0.  1.
         22    1    1    0    0    0 -0.29648019119E+02 -0.22458111543E+01 -0.53511264258E+01  0.30210648114E+02  0.00000000000E+00 0.  1.
</event>
<event>
 5    1  0.2295577E-004  0.9118800E+02  0.7818608E-02  0.1130116E+00
         25   -1    0    0    0    0  0.00000000000E+00  0.00000000000E+00  0.99999998245E-14  0.12500000000E+03  0.12500000000E+03 0.  0.
        -13    1    3    3    0    0  0.22183508200E+02 -0.99983388545E+01 -0.15168427100E+02  0.28673457424E+02  0.10566000000E+00 0.  1.
         23    2    1    0    0    0 -0.26879222936E+02  0.65046926917E+01  0.19664646459E+02  0.91066211926E+02  0.84507709599E+02 0.  0.
         13    1    3    3    0    0 -0.49062731137E+02  0.16503031546E+02  0.34833073559E+02  0.62392754502E+02  0.10566000000E+00 0. -1.
         22    1    1    0    0    0  0.26879222936E+02 -0.65046926917E+01 -0.19664646459E+02  0.33933788074E+02  0.00000000000E+00 0. -1.
</event>
<event>
 5    1  0.2295577E-004  0.9118800E+02  0.7818608E-02  0.1130116E+00
         25   -1    0    0    0    0  0.00000000000E+00  0.00000000000E+00  0.99999998245E-14  0.12500000000E+03  0.12500000000E+03 0.  0.
        -13    1    3    3    0    0  0.21637206444E+02  0.55946801214E+02  0.73726141210E+01  0.60436577268E+02  0.10566000000E+00 0. -1.
         23    2    1    0    0    0  0.27129615989E+01  0.27484209122E+02  0.11923986963E+02  0.94918055634E+02  0.90025073777E+02 0.  0.
         13    1    3    3    0    0 -0.18924244845E+02 -0.28462592092E+02  0.45513728425E+01  0.34481478367E+02  0.10566000000E+00 0.  1.
         22    1    1    0    0    0 -0.27129615989E+01 -0.27484209122E+02 -0.11923986963E+02  0.30081944366E+02  0.00000000000E+00 0. -1.
</event>
<event>
 5    1  0.2295577E-004  0.9118800E+02  0.7818608E-02  0.1130116E+00
         25   -1    0    0    0    0  0.00000000000E+00  0.00000000000E+00  0.99999998245E-14  0.12500000000E+03  0.12500000000E+03 0.  0.
        -13    1    3    3    0    0  0.24412622228E+02  0.42618796088E+02 -0.23544042381E+02  0.54467155238E+02  0.10566000000E+00 0. -1.
         23    2    1    0    0    0 -0.53238663848E+00  0.31045841507E+02  0.43610257519E+01  0.93644836853E+02  0.88239499166E+02 0.  0.
         13    1    3    3    0    0 -0.24945008867E+02 -0.11572954581E+02  0.27905068133E+02  0.39177681614E+02  0.10566000000E+00 0.  1.
         22    1    1    0    0    0  0.53238663848E+00 -0.31045841507E+02 -0.43610257519E+01  0.31355163147E+02  0.00000000000E+00 0. -1.
</event>
<event>
 5    1  0.2295577E-004  0.9118800E+02  0.7818608E-02  0.1130116E+00
         25   -1    0    0    0    0  0.00000000000E+00  0.00000000000E+00  0.99999998245E-14  0.12500000000E+03  0.12500000000E+03 0.  0.
        -13    1    3    3    0    0 -0.25412212534E+01 -0.51330476664E+02  0.71576586031E+01  0.51889487189E+02  0.10566000000E+00 0. -1.
         23    2    1    0    0    0  0.22740439410E+02 -0.11513407874E+02  0.64032024988E+00  0.99503016738E+02  0.96180841047E+02 0.  0.
         13    1    3    3    0    0  0.25281660663E+02  0.39817068790E+02 -0.65173383532E+01  0.47613529550E+02  0.10566000000E+00 0.  1.
         22    1    1    0    0    0 -0.22740439410E+02  0.11513407874E+02 -0.64032024988E+00  0.25496983262E+02  0.00000000000E+00 0. -1.
</event>
<event>
 5    1  0.2295577E-004  0.9118800E+02  0.7818608E-02  0.1130116E+00
         25   -1    0    0    0    0  0.00000000000E+00  0.00000000000E+00  0.99999998245E-14  0.12500000000E+03  0.12500000000E+03 0.  0.
        -13    1    3    3    0    0 -0.90557540004E+01  0.33976554645E+02 -0.28572160136E+02  0.45307752592E+02  0.10566000000E+00 0. -1.
         23    2    1    0    0    0  0.25076983057E+02 -0.68984264202E+00 -0.14815800556E+02  0.95865159891E+02  0.91330662828E+02 0.  0.
         13    1    3    3    0    0  0.34132737057E+02 -0.34666397287E+02  0.13756359580E+02  0.50557407299E+02  0.10566000000E+00 0.  1.
         22    1    1    0    0    0 -0.25076983057E+02  0.68984264202E+00  0.14815800556E+02  0.29134840109E+02  0.00000000000E+00 0.  1.
</event>
<event>
 5    1  0.2295577E-004  0.9118800E+02  0.7818608E-02  0.1130116E+00
         25   -1    0    0    0    0  0.00000000000E+00  0.00000000000E+00  0.99999998245E-14  0.12500000000E+03  0.12500000000E+03 0.  0.
        -13    1    3    3    0    0  0.32271681550E+02  0.98111708201E+01  0.88828401181E+01  0.34880317021E+02  0.10566000000E+00 0.  1.
         23    2    1    0    0    0 -0.28348114495E+02  0.53856686245E+00  0.31298223000E+01  0.96474547552E+02  0.92160929293E+02 0.  0.
         13    1    3    3    0    0 -0.60619796045E+02 -0.92726039576E+01 -0.57530178181E+01  0.61594230531E+02  0.10566000000E+00 0. -1.
         22    1    1    0    0    0  0.28348114495E+02 -0.53856686245E+00 -0.31298223000E+01  0.28525452448E+02  0.00000000000E+00 0. -1.
</event>
<event>
 5    1  0.2295577E-004  0.9118800E+02  0.7818608E-02  0.1130116E+00
         25   -1    0    0    0    0  0.00000000000E+00  0.00000000000E+00  0.99999998245E-14  0.12500000000E+03  0.12500000000E+03 0.  0.
        -13    1    3    3    0    0  0.49364227256E+02 -0.24932037188E+02 -0.18128511116E+02  0.58198689765E+02  0.10566000000E+00 0.  1.
         23    2    1    0    0    0  0.12182456528E+02 -0.24102782115E+02 -0.94382121498E+01  0.96391676014E+02  0.92048460082E+02 0.  0.
         13    1    3    3    0    0 -0.37181770728E+02  0.82925507375E+00  0.86902989666E+01  0.38192986249E+02  0.10566000000E+00 0. -1.
         22    1    1    0    0    0 -0.12182456528E+02  0.24102782115E+02  0.94382121498E+01  0.28608323986E+02  0.00000000000E+00 0.  1.
</event>
<event>
 5    1  0.2295577E-004  0.9118800E+02  0.7818608E-02  0.1130116E+00
         25   -1    0    0    0    0  0.00000000000E+00  0.00000000000E+00  0.99999998245E-14  0.12500000000E+03  0.12500000000E+03 0.  0.
        -13    1    3    3    0    0 -0.37058967770E+02 -0.38781540200E+00  0.75672517333E+01  0.37825810709E+02  0.10566000000E+00 0.  1.
         23    2    1    0    0    0  0.14775131748E+02 -0.25298472986E+02  0.13242006010E+01  0.95673036965E+02  0.91067333558E+02 0.  0.
         13    1    3    3    0    0  0.51834099518E+02 -0.24910657584E+02 -0.62430511323E+01  0.57847226257E+02  0.10566000000E+00 0. -1.
         22    1    1    0    0    0 -0.14775131748E+02  0.25298472986E+02 -0.13242006010E+01  0.29326963035E+02  0.00000000000E+00 0. -1.
</event>
<event>
 5    1  0.2295577E-004  0.9118800E+02  0.7818608E-02  0.1130116E+00
         25   -1    0    0    0    0  0.00000000000E+00  0.00000000000E+00  0.99999998245E-14  0.12500000000E+03  0.12500000000E+03 0.  0.
        -13    1    3    3    0    0  0.81660044281E+01 -0.23481294677E+02  0.25222068391E+02  0.35414950600E+02  0.10566000000E+00 0.  1.
         23    2    1    0    0    0 -0.83591911699E+00  0.10319800160E+02 -0.25756566104E+02  0.97240357827E+02  0.93193827353E+02 0.  0.
         13    1    3    3    0    0 -0.90019235451E+01  0.33801094837E+02 -0.50978634495E+02  0.61825407227E+02  0.10566000000E+00 0. -1.
         22    1    1    0    0    0  0.83591911699E+00 -0.10319800160E+02  0.25756566104E+02  0.27759642173E+02  0.00000000000E+00 0. -1.
</event>
<event>
 5    1  0.2295577E-004  0.9118800E+02  0.7818608E-02  0.1130116E+00
         25   -1    0    0    0    0  0.00000000000E+00  0.00000000000E+00  0.99999998245E-14  0.12500000000E+03  0.12500000000E+03 0.  0.
        -13    1    3    3    0    0 -0.18600053901E+02 -0.25636196367E+02 -0.16975423224E+02  0.35935396575E+02  0.10566000000E+00 0. -1.
         23    2    1    0    0    0 -0.42409751738E+01  0.15625071477E+02  0.24143263492E+02  0.95930670783E+02  0.91420280549E+02 0.  0.
         13    1    3    3    0    0  0.14359078728E+02  0.41261267845E+02  0.41118686716E+02  0.59995274208E+02  0.10566000000E+00 0.  1.
         22    1    1    0    0    0  0.42409751738E+01 -0.15625071477E+02 -0.24143263492E+02  0.29069329217E+02  0.00000000000E+00 0.  1.
</event>
<event>
 5    1  0.2295577E-004  0.9118800E+02  0.7818608E-02  0.1130116E+00
         25   -1    0    0    0    0  0.00000000000E+00  0.00000000000E+00  0.99999998245E-14  0.12500000000E+03  0.12500000000E+03 0.  0.
        -13    1    3    3    0    0 -0.50614833018E+02 -0.29141335264E+02  0.10251916933E+02  0.59297484830E+02  0.10566000000E+00 0.  1.
         23    2    1    0    0    0 -0.14525884717E+02 -0.23932852143E+02  0.82420732381E+01  0.95815851738E+02  0.91263152118E+02 0.  0.
         13    1    3    3    0    0  0.36088948301E+02  0.52084831207E+01 -0.20098436951E+01  0.36518366908E+02  0.10566000000E+00 0. -1.
         22    1    1    0    0    0  0.14525884717E+02  0.23932852143E+02 -0.82420732381E+01  0.29184148262E+02  0.00000000000E+00 0.  1.
</event>
<event>
 5    1  0.2295577E-004  0.9118800E+02  0.7818608E-02  0.1130116E+00
         25   -1    0    0    0    0  0.00000000000E+00  0.00000000000E+00  0.99999998245E-14  0.12500000000E+03  0.12500000000E+03 0.  0.
        -13    1    3    3    0    0 -0.69996825528E+01  0.58378787489E+02 -0.94789783879E+01  0.59556196822E+02  0.10566000000E+00 0.  1.
         23    2    1    0    0    0  0.73006088577E+01  0.23716266818E+02 -0.12576209987E+02  0.97180559691E+02  0.93113586134E+02 0.  0.
         13    1    3    3    0    0  0.14300291410E+02 -0.34662520671E+02 -0.30972315987E+01  0.37624362869E+02  0.10566000000E+00 0. -1.
         22    1    1    0    0    0 -0.73006088577E+01 -0.23716266818E+02  0.12576209987E+02  0.27819440309E+02  0.00000000000E+00 0.  1.
</event>
<event>
 5    1  0.2295577E-004  0.9118800E+02  0.7818608E-02  0.1130116E+00
         25   -1    0    0    0    0  0.00000000000E+00  0.00000000000E+00  0.99999998245E-14  0.12500000000E+03  0.12500000000E+03 0.  0.
        -13    1    3    3    0    0  0.45779028387E+02 -0.12300823661E+02  0.40237840904E+02  0.62178169058E+02  0.10566000000E+00 0. -1.
         23    2    1    0    0    0  0.22743684191E+02 -0.18342453394E+01  0.16831570467E+02  0.96646139753E+02  0.92393370640E+02 0.  0.
         13    1    3    3    0    0 -0.23035344196E+02  0.10466578321E+02 -0.23406270437E+02  0.34467970695E+02  0.10566000000E+00 0.  1.
         22    1    1    0    0    0 -0.22743684191E+02  0.18342453394E+01 -0.16831570467E+02  0.28353860247E+02  0.00000000000E+00 0. -1.
</event>
<event>
 5    1  0.2295577E-004  0.9118800E+02  0.7818608E-02  0.1130116E+00
         25   -1    0    0    0    0  0.00000000000E+00  0.00000000000E+00  0.99999998245E-14  0.12500000000E+03  0.12500000000E+03 0.  0.
        -13    1    3    3    0    0  0.22578133610E+02  0.93415057424E+01 -0.51185601219E+02  0.56718716338E+02  0.10566000000E+00 0.  1.
         23    2    1    0    0    0  0.65957218939E+01  0.21825897455E+02 -0.16656518916E+02  0.96763269144E+02  0.92551700611E+02 0.  0.
         13    1    3    3    0    0 -0.15982411716E+02  0.12484391713E+02  0.34529082303E+02  0.40044552806E+02  0.10566000000E+00 0. -1.
         22    1    1    0    0    0 -0.65957218939E+01 -0.21825897455E+02  0.16656518916E+02  0.28236730856E+02  0.00000000000E+00 0.  1.
</event>
<event>
 5    1  0.2295577E-004  0.9118800E+02  0.7818608E-02  0.1130116E+00
         25   -1    0    0    0    0  0.00000000000E+00  0.00000000000E+00  0.99999998245E-14  0.12500000000E+03  0.12500000000E+03 0.  0.
        -13    1    3    3    0    0  0.93197168283E+01  0.39798500264E+02 -0.67263705035E+01  0.41425028295E+02  0.10566000000E+00 0.  1.
         23    2    1    0    0    0 -0.22150984446E+02 -0.10035045065E+02 -0.32407663821E+01  0.10046694458E+03  0.97425541547E+02 0.  0.
         13    1    3    3    0    0 -0.31470701274E+02 -0.49833545330E+02  0.34856041214E+01  0.59041916288E+02  0.10566000000E+00 0. -1.
         22    1    1    0    0    0  0.22150984446E+02  0.10035045065E+02  0.32407663821E+01  0.24533055417E+02  0.00000000000E+00 0. -1.
</event>
<event>
 5    1  0.2295577E-004  0.9118800E+02  0.7818608E-02  0.1130116E+00
         25   -1    0    0    0    0  0.00000000000E+00  0.00000000000E+00  0.99999998245E-14  0.12500000000E+03  0.12500000000E+03 0.  0.
        -13    1    3    3    0    0 -0.14174527946E+02  0.31985826760E+02 -0.42769224826E+02  0.55256023312E+02  0.10566000000E+00 0.  1.
         23    2    1    0    0    0 -0.19224524896E+02  0.23319536765E+02 -0.49597075247E+01  0.94373510630E+02  0.89265769798E+02 0.  0.
         13    1    3    3    0    0 -0.50499969495E+01 -0.86662899957E+01  0.37809517301E+02  0.39117487318E+02  0.10566000000E+00 0. -1.
         22    1    1    0    0    0  0.19224524896E+02 -0.23319536765E+02  0.49597075247E+01  0.30626489370E+02  0.00000000000E+00 0.  1.
</event>
<event>
 5    1  0.2295577E-004  0.9118800E+02  0.7818608E-02  0.1130116E+00
         25   -1    0    0    0    0  0.00000000000E+00  0.00000000000E+00  0.99999998245E-14  0.12500000000E+03  0.12500000000E+03 0.  0.
        -13    1    3    3    0    0  0.23030903403E+02 -0.37253596568E+02 -0.11034215135E+02  0.45166558829E+02  0.10566000000E+00 0.  1.
         23    2    1    0    0    0  0.12358464663E+02 -0.14143711015E+02  0.27709676185E+02  0.91524600609E+02  0.85183039111E+02 0.  0.
         13    1    3    3    0    0 -0.10672438740E+02  0.23109885553E+02  0.38743891320E+02  0.46358041779E+02  0.10566000000E+00 0. -1.
         22    1    1    0    0    0 -0.12358464663E+02  0.14143711015E+02 -0.27709676185E+02  0.33475399391E+02  0.00000000000E+00 0.  1.
</event>
<event>
 5    1  0.2295577E-004  0.9118800E+02  0.7818608E-02  0.1130116E+00
         25   -1    0    0    0    0  0.00000000000E+00  0.00000000000E+00  0.99999998245E-14  0.12500000000E+03  0.12500000000E+03 0.  0.
        -13    1    3    3    0    0 -0.46507956141E+02  0.16601274925E+02  0.28848144204E+02  0.57191073618E+02  0.10566000000E+00 0. -1.
         23    2    1    0    0    0 -0.20648261204E+02  0.19722899136E+02 -0.51323238708E+00  0.96441168641E+02  0.92115645578E+02 0.  0.
         13    1    3    3    0    0  0.25859694937E+02  0.31216242115E+01 -0.29361376591E+02  0.39250095023E+02  0.10566000000E+00 0.  1.
         22    1    1    0    0    0  0.20648261204E+02 -0.19722899136E+02  0.51323238708E+00  0.28558831359E+02  0.00000000000E+00 0. -1.
</event>
<event>
 5    1  0.2295577E-004  0.9118800E+02  0.7818608E-02  0.1130116E+00
         25   -1    0    0    0    0  0.00000000000E+00  0.00000000000E+00  0.99999998245E-14  0.12500000000E+03  0.12500000000E+03 0.  0.
        -13    1    3    3    0    0 -0.17978792364E+02  0.17266502720E+02 -0.51247130947E+02  0.56988145131E+02  0.10566000000E+00 0. -1.
         23    2    1    0    0    0 -0.14775487910E+02 -0.91935080416E+01 -0.26088696310E+02  0.93639902611E+02  0.88232509047E+02 0.  0.
         13    1    3    3    0    0  0.32033044544E+01 -0.26460010762E+02  0.25158434637E+02  0.36651757480E+02  0.10566000000E+00 0.  1.
         22    1    1    0    0    0  0.14775487910E+02  0.91935080416E+01  0.26088696310E+02  0.31360097389E+02  0.00000000000E+00 0. -1.
</event>
<event>
 5    1  0.2295577E-004  0.9118800E+02  0.7818608E-02  0.1130116E+00
         25   -1    0    0    0    0  0.00000000000E+00  0.00000000000E+00  0.99999998245E-14  0.12500000000E+03  0.12500000000E+03 0.  0.
        -13    1    3    3    0    0 -0.75193987932E+01  0.25353939160E+02  0.49300975756E+02  0.55946054049E+02  0.10566000000E+00 0.  1.
         23    2    1    0    0    0  0.40547789406E+01 -0.75789086752E+01  0.25223807791E+02  0.98351893717E+02  0.94672981517E+02 0.  0.
         13    1    3    3    0    0  0.11574177734E+02 -0.32932847835E+02 -0.24077167964E+02  0.42405839668E+02  0.10566000000E+00 0. -1.
         22    1    1    0    0    0 -0.40547789406E+01  0.75789086752E+01 -0.25223807791E+02  0.26648106283E+02  0.00000000000E+00 0.  1.
</event>
<event>
 5    1  0.2295577E-004  0.9118800E+02  0.7818608E-02  0.1130116E+00
         25   -1    0    0    0    0  0.00000000000E+00  0.00000000000E+00  0.99999998245E-14  0.12500000000E+03  0.12500000000E+03 0.  0.
        -13    1    3    3    0    0 -0.84161911375E+01  0.24214189558E+02 -0.26420816870E+02  0.36813448322E+02  0.10566000000E+00 0.  1.
         23    2    1    0    0    0  0.28640228793E+01 -0.29208557679E+02 -0.12051322696E+02  0.93273404729E+02  0.87711750537E+02 0.  0.
         13    1    3    3    0    0  0.11280214017E+02 -0.53422747238E+02  0.14369494173E+02  0.56459956407E+02  0.10566000000E+00 0. -1.
         22    1    1    0    0    0 -0.28640228793E+01  0.29208557679E+02  0.12051322696E+02  0.31726595271E+02  0.00000000000E+00 0. -1.
</event>
<event>
 5    1  0.2295577E-004  0.9118800E+02  0.7818608E-02  0.1130116E+00
         25   -1    0    0    0    0  0.00000000000E+00  0.00000000000E+00  0.99999998245E-14  0.12500000000E+03  0.12500000000E+03 0.  0.
        -13    1    3    3    0    0  0.13520364836E+02  0.43413866525E+02 -0.41087838875E+02  0.61284465727E+02  0.10566000000E+00 0. -1.
         23    2    1    0    0    0  0.90047633515E+01  0.26071572600E+02 -0.13230764083E+02  0.94408076571E+02  0.89314159811E+02 0.  0.
         13    1    3    3    0    0 -0.45156014845E+01 -0.17342293924E+02  0.27857074793E+02  0.33123610844E+02  0.10566000000E+00 0.  1.
         22    1    1    0    0    0 -0.90047633515E+01 -0.26071572600E+02  0.13230764083E+02  0.30591923429E+02  0.00000000000E+00 0. -1.
</event>
<event>
 5    1  0.2295577E-004  0.9118800E+02  0.7818608E-02  0.1130116E+00
         25   -1    0    0    0    0  0.00000000000E+00  0.00000000000E+00  0.99999998245E-14  0.12500000000E+03  0.12500000000E+03 0.  0.
        -13    1    3    3    0    0 -0.16385473727E+02 -0.38292102984E+02  0.86391607599E+01  0.42537220911E+02  0.10566000000E+00 0.  1.
         23    2    1    0    0    0  0.19013599262E+02 -0.12757573139E+02 -0.19880730772E+02  0.94676476371E+02  0.89689013222E+02 0.  0.
         13    1    3    3    0    0  0.35399072989E+02  0.25534529845E+02 -0.28519891532E+02  0.52139255460E+02  0.10566000000E+00 0. -1.
         22    1    1    0    0    0 -0.19013599262E+02  0.12757573139E+02  0.19880730772E+02  0.30323523629E+02  0.00000000000E+00 0. -1.
</event>
<event>
 5    1  0.2295577E-004  0.9118800E+02  0.7818608E-02  0.1130116E+00
         25   -1    0    0    0    0  0.00000000000E+00  0.00000000000E+00  0.99999998245E-14  0.12500000000E+03  0.12500000000E+03 0.  0.
        -13    1    3    3    0    0  0.22018709299E+02  0.64455709077E+01  0.26412507413E+02  0.34985720736E+02  0.10566000000E+00 0.  1.
         23    2    1    0    0    0 -0.22640700200E+02 -0.18526949646E+02 -0.54205106102E+01  0.95247166454E+02  0.90480890875E+02 0.  0.
         13    1    3    3    0    0 -0.44659409499E+02 -0.24972520553E+02 -0.31833018023E+02  0.60261445719E+02  0.10566000000E+00 0. -1.
         22    1    1    0    0    0  0.22640700200E+02  0.18526949646E+02  0.54205106102E+01  0.29752833546E+02  0.00000000000E+00 0. -1.
</event>
<event>
 5    1  0.2295577E-004  0.9118800E+02  0.7818608E-02  0.1130116E+00
         25   -1    0    0    0    0  0.00000000000E+00  0.00000000000E+00  0.99999998245E-14  0.12500000000E+03  0.12500000000E+03 0.  0.
        -13    1    3    3    0    0  0.17235077155E+02  0.22014204115E+02 -0.40988588298E+02  0.49616011549E+02  0.10566000000E+00 0. -1.
         23    2    1    0    0    0 -0.20555115270E+02  0.13296082468E+02 -0.15489649393E+02  0.96030571095E+02  0.91556773500E+02 0.  0.
         13    1    3    3    0    0 -0.37790192425E+02 -0.87181216470E+01  0.25498938905E+02  0.46414559546E+02  0.10566000000E+00 0.  1.
         22    1    1    0    0    0  0.20555115270E+02 -0.13296082468E+02  0.15489649393E+02  0.28969428905E+02  0.00000000000E+00 0.  1.
</event>
<event>
 5    1  0.2295577E-004  0.9118800E+02  0.7818608E-02  0.1130116E+00
         25   -1    0    0    0    0  0.00000000000E+00  0.00000000000E+00  0.99999998245E-14  0.12500000000E+03  0.12500000000E+03 0.  0.
        -13    1    3    3    0    0 -0.22915400933E+02 -0.10855374972E+01  0.32428170536E+02  0.39722681177E+02  0.10566000000E+00 0.  1.
         23    2    1    0    0    0 -0.13552253413E+02  0.90182674804E+01 -0.22991657733E+02  0.96828932462E+02  0.92640342808E+02 0.  0.
         13    1    3    3    0    0  0.93631475202E+01  0.10103804978E+02 -0.55419828268E+02  0.57106251285E+02  0.10566000000E+00 0. -1.
         22    1    1    0    0    0  0.13552253413E+02 -0.90182674804E+01  0.22991657733E+02  0.28171067538E+02  0.00000000000E+00 0. -1.
</event>
<event>
 5    1  0.2295577E-004  0.9118800E+02  0.7818608E-02  0.1130116E+00
         25   -1    0    0    0    0  0.00000000000E+00  0.00000000000E+00  0.99999998245E-14  0.12500000000E+03  0.12500000000E+03 0.  0.
        -13    1    3    3    0    0  0.34500205069E+02  0.37499471888E+02 -0.29599121231E+02  0.58928716967E+02  0.10566000000E+00 0.  1.
         23    2    1    0    0    0  0.14706902253E+02  0.63861714792E+01 -0.23867123335E+02  0.96247335143E+02  0.91852238872E+02 0.  0.
         13    1    3    3    0    0 -0.19793302816E+02 -0.31113300409E+02  0.57319978954E+01  0.37318618177E+02  0.10566000000E+00 0. -1.
         22    1    1    0    0    0 -0.14706902253E+02 -0.63861714792E+01  0.23867123335E+02  0.28752664857E+02  0.00000000000E+00 0.  1.
</event>
<event>
 5    1  0.2295577E-004  0.9118800E+02  0.7818608E-02  0.1130116E+00
         25   -1    0    0    0    0  0.00000000000E+00  0.00000000000E+00  0.99999998245E-14  0.12500000000E+03  0.12500000000E+03 0.  0.
        -13    1    3    3    0    0  0.66900600219E+00 -0.19620874074E+02 -0.27448233290E+02  0.33746747150E+02  0.10566000000E+00 0.  1.
         23    2    1    0    0    0 -0.12135812430E+02  0.27805294770E+02  0.71480271173E+01  0.93830998536E+02  0.88502822745E+02 0.  0.
         13    1    3    3    0    0 -0.12804818433E+02  0.47426168844E+02  0.34596260407E+02  0.60084251385E+02  0.10566000000E+00 0. -1.
         22    1    1    0    0    0  0.12135812430E+02 -0.27805294770E+02 -0.71480271173E+01  0.31169001464E+02  0.00000000000E+00 0. -1.
</event>
<event>
 5    1  0.2295577E-004  0.9118800E+02  0.7818608E-02  0.1130116E+00
         25   -1    0    0    0    0  0.00000000000E+00  0.00000000000E+00  0.99999998245E-14  0.12500000000E+03  0.12500000000E+03 0.  0.
        -13    1    3    3    0    0 -0.73151334339E+01 -0.31990106964E+02 -0.77292369651E+01  0.33713949469E+02  0.10566000000E+00 0. -1.
         23    2    1    0    0    0 -0.37840555358E+01  0.29275752967E+02 -0.81974008546E+00  0.95469325068E+02  0.90787285823E+02 0.  0.
         13    1    3    3    0    0  0.35310778982E+01  0.61265859931E+02  0.69094968796E+01  0.61755375599E+02  0.10566000000E+00 0.  1.
         22    1    1    0    0    0  0.37840555358E+01 -0.29275752967E+02  0.81974008546E+00  0.29530674932E+02  0.00000000000E+00 0.  1.
</event>
<event>
 5    1  0.2295577E-004  0.9118800E+02  0.7818608E-02  0.1130116E+00
         25   -1    0    0    0    0  0.00000000000E+00  0.00000000000E+00  0.99999998245E-14  0.12500000000E+03  0.12500000000E+03 0.  0.
        -13    1    3    3    0    0  0.13471076459E+02  0.18406312135E+02  0.25311734177E+02  0.34072823165E+02  0.10566000000E+00 0. -1.
         23    2    1    0    0    0 -0.23717691755E+02 -0.10476729216E+02 -0.14107247523E+02  0.95482120843E+02  0.90804901910E+02 0.  0.
         13    1    3    3    0    0 -0.37188768214E+02 -0.28883041351E+02 -0.39418981700E+02  0.61409297678E+02  0.10566000000E+00 0.  1.
         22    1    1    0    0    0  0.23717691755E+02  0.10476729216E+02  0.14107247523E+02  0.29517879157E+02  0.00000000000E+00 0.  1.
</event>
<event>
 5    1  0.2295577E-004  0.9118800E+02  0.7818608E-02  0.1130116E+00
         25   -1    0    0    0    0  0.00000000000E+00  0.00000000000E+00  0.99999998245E-14  0.12500000000E+03  0.12500000000E+03 0.  0.
        -13    1    3    3    0    0 -0.13722283591E+02  0.94064775992E+01  0.35693807202E+02  0.39380730369E+02  0.10566000000E+00 0. -1.
         23    2    1    0    0    0  0.11416836427E+02  0.13379441426E+02 -0.18634886901E+02  0.99375546510E+02  0.96015033341E+02 0.  0.
         13    1    3    3    0    0  0.25139120018E+02  0.39729638272E+01 -0.54328694103E+02  0.59994816141E+02  0.10566000000E+00 0.  1.
         22    1    1    0    0    0 -0.11416836427E+02 -0.13379441426E+02  0.18634886901E+02  0.25624453490E+02  0.00000000000E+00 0.  1.
</event>
<event>
 5    1  0.2295577E-004  0.9118800E+02  0.7818608E-02  0.1130116E+00
         25   -1    0    0    0    0  0.00000000000E+00  0.00000000000E+00  0.99999998245E-14  0.12500000000E+03  0.12500000000E+03 0.  0.
        -13    1    3    3    0    0  0.36313571338E+02 -0.10832824977E+02  0.14864978223E+02  0.40706317715E+02  0.10566000000E+00 0.  1.
         23    2    1    0    0    0 -0.45720741500E+00  0.28812224641E+02  0.33629438267E+01  0.95988576068E+02  0.91499420855E+02 0.  0.
         13    1    3    3    0    0 -0.36770778753E+02  0.39645049618E+02 -0.11502034396E+02  0.55282258353E+02  0.10566000000E+00 0. -1.
         22    1    1    0    0    0  0.45720741500E+00 -0.28812224641E+02 -0.33629438267E+01  0.29011423932E+02  0.00000000000E+00 0. -1.
</event>
<event>
 5    1  0.2295577E-004  0.9118800E+02  0.7818608E-02  0.1130116E+00
         25   -1    0    0    0    0  0.00000000000E+00  0.00000000000E+00  0.99999998245E-14  0.12500000000E+03  0.12500000000E+03 0.  0.
        -13    1    3    3    0    0  0.27309136915E+02  0.42169094376E+02 -0.22200701959E+02  0.54926348969E+02  0.10566000000E+00 0. -1.
         23    2    1    0    0    0 -0.35190407370E+01  0.22392647015E+02  0.64558478995E+01  0.10143111670E+03  0.98654848711E+02 0.  0.
         13    1    3    3    0    0 -0.30828177652E+02 -0.19776447361E+02  0.28656549858E+02  0.46504767728E+02  0.10566000000E+00 0.  1.
         22    1    1    0    0    0  0.35190407370E+01 -0.22392647015E+02 -0.64558478995E+01  0.23568883303E+02  0.00000000000E+00 0. -1.
</event>
<event>
 5    1  0.2295577E-004  0.9118800E+02  0.7818608E-02  0.1130116E+00
         25   -1    0    0    0    0  0.00000000000E+00  0.00000000000E+00  0.99999998245E-14  0.12500000000E+03  0.12500000000E+03 0.  0.
        -13    1    3    3    0    0  0.36947822704E+02  0.20484894559E+02  0.37264513010E+02  0.56333183840E+02  0.10566000000E+00 0.  1.
         23    2    1    0    0    0  0.23178701492E+02  0.17954453066E+02  0.49628477897E+00  0.95676615367E+02  0.91072245178E+02 0.  0.
         13    1    3    3    0    0 -0.13769121211E+02 -0.25304414929E+01 -0.36768228231E+02  0.39343431527E+02  0.10566000000E+00 0. -1.
         22    1    1    0    0    0 -0.23178701492E+02 -0.17954453066E+02 -0.49628477897E+00  0.29323384633E+02  0.00000000000E+00 0.  1.
</event>
<event>
 5    1  0.2295577E-004  0.9118800E+02  0.7818608E-02  0.1130116E+00
         25   -1    0    0    0    0  0.00000000000E+00  0.00000000000E+00  0.99999998245E-14  0.12500000000E+03  0.12500000000E+03 0.  0.
        -13    1    3    3    0    0 -0.10229920477E+02 -0.48973541572E+02  0.35937749214E+02  0.61600259981E+02  0.10566000000E+00 0.  1.
         23    2    1    0    0    0 -0.12138928007E+02 -0.21498671166E+02  0.16980980356E+02  0.95035018290E+02  0.90187330443E+02 0.  0.
         13    1    3    3    0    0 -0.19090075299E+01  0.27474870406E+02 -0.18956768858E+02  0.33434758309E+02  0.10566000000E+00 0. -1.
         22    1    1    0    0    0  0.12138928007E+02  0.21498671166E+02 -0.16980980356E+02  0.29964981710E+02  0.00000000000E+00 0.  1.
</event>
<event>
 5    1  0.2295577E-004  0.9118800E+02  0.7818608E-02  0.1130116E+00
         25   -1    0    0    0    0  0.00000000000E+00  0.00000000000E+00  0.99999998245E-14  0.12500000000E+03  0.12500000000E+03 0.  0.
        -13    1    3    3    0    0 -0.18468542618E+02 -0.12237376197E+02  0.49707683446E+02  0.54421552718E+02  0.10566000000E+00 0. -1.
         23    2    1    0    0    0  0.85066588977E+01 -0.17716811004E+02  0.32909805603E+02  0.86668499344E+02  0.77731105974E+02 0.  0.
         13    1    3    3    0    0  0.26975201515E+02 -0.54794348064E+01 -0.16797877843E+02  0.32246946626E+02  0.10566000000E+00 0.  1.
         22    1    1    0    0    0 -0.85066588977E+01  0.17716811004E+02 -0.32909805603E+02  0.38331500656E+02  0.00000000000E+00 0. -1.
</event>
<event>
 5    1  0.2295577E-004  0.9118800E+02  0.7818608E-02  0.1130116E+00
         25   -1    0    0    0    0  0.00000000000E+00  0.00000000000E+00  0.99999998245E-14  0.12500000000E+03  0.12500000000E+03 0.  0.
        -13    1    3    3    0    0 -0.25018442418E+02 -0.20394460961E+02  0.24264186385E+02  0.40380916333E+02  0.10566000000E+00 0.  1.
         23    2    1    0    0    0 -0.49138137171E+01  0.21526867816E+02  0.30559323651E+02  0.87298224641E+02  0.78737260304E+02 0.  0.
         13    1    3    3    0    0  0.20104628701E+02  0.41921328777E+02  0.62951372660E+01  0.46917308308E+02  0.10566000000E+00 0. -1.
         22    1    1    0    0    0  0.49138137171E+01 -0.21526867816E+02 -0.30559323651E+02  0.37701775359E+02  0.00000000000E+00 0. -1.
</event>
<event>
 5    1  0.2295577E-004  0.9118800E+02  0.7818608E-02  0.1130116E+00
         25   -1    0    0    0    0  0.00000000000E+00  0.00000000000E+00  0.99999998245E-14  0.12500000000E+03  0.12500000000E+03 0.  0.
        -13    1    3    3    0    0 -0.57967767201E+02 -0.78650060683E+01  0.13997349297E+02  0.60150289327E+02  0.10566000000E+00 0.  1.
         23    2    1    0    0    0 -0.28569555025E+02 -0.57384849786E+01 -0.53015865779E+01  0.95381483757E+02  0.90666261307E+02 0.  0.
         13    1    3    3    0    0  0.29398212176E+02  0.21265210898E+01 -0.19298935875E+02  0.35231194431E+02  0.10566000000E+00 0. -1.
         22    1    1    0    0    0  0.28569555025E+02  0.57384849786E+01  0.53015865779E+01  0.29618516243E+02  0.00000000000E+00 0.  1.
</event>
<event>
 5    1  0.2295577E-004  0.9118800E+02  0.7818608E-02  0.1130116E+00
         25   -1    0    0    0    0  0.00000000000E+00  0.00000000000E+00  0.99999998245E-14  0.12500000000E+03  0.12500000000E+03 0.  0.
        -13    1    3    3    0    0  0.28201179705E+02  0.18879817091E+02 -0.63318509872E+01  0.34523289692E+02  0.10566000000E+00 0. -1.
         23    2    1    0    0    0 -0.15523150932E+02 -0.23254032841E+02 -0.98753514084E+01  0.95348004727E+02  0.90620092594E+02 0.  0.
         13    1    3    3    0    0 -0.43724330638E+02 -0.42133849932E+02 -0.35435004213E+01  0.60824715035E+02  0.10566000000E+00 0.  1.
         22    1    1    0    0    0  0.15523150932E+02  0.23254032841E+02  0.98753514084E+01  0.29651995273E+02  0.00000000000E+00 0.  1.
</event>
<event>
 5    1  0.2295577E-004  0.9118800E+02  0.7818608E-02  0.1130116E+00
         25   -1    0    0    0    0  0.00000000000E+00  0.00000000000E+00  0.99999998245E-14  0.12500000000E+03  0.12500000000E+03 0.  0.
        -13    1    3    3    0    0 -0.32148558548E+02 -0.82018279638E+01  0.25356852066E+02  0.41758602819E+02  0.10566000000E+00 0.  1.
         23    2    1    0    0    0 -0.24675586482E+00 -0.30514749877E+02 -0.84680146126E+01  0.93331117481E+02  0.87793959760E+02 0.  0.
         13    1    3    3    0    0  0.31901802683E+02 -0.22312921913E+02 -0.33824866679E+02  0.51572514662E+02  0.10566000000E+00 0. -1.
         22    1    1    0    0    0  0.24675586482E+00  0.30514749877E+02  0.84680146126E+01  0.31668882519E+02  0.00000000000E+00 0. -1.
</event>
<event>
 5    1  0.2295577E-004  0.9118800E+02  0.7818608E-02  0.1130116E+00
         25   -1    0    0    0    0  0.00000000000E+00  0.00000000000E+00  0.99999998245E-14  0.12500000000E+03  0.12500000000E+03 0.  0.
        -13    1    3    3    0    0  0.36581853551E+02  0.37198887154E+02 -0.72704497093E+01  0.52676938196E+02  0.10566000000E+00 0.  1.
         23    2    1    0    0    0  0.19170994150E+02  0.96423302461E+01  0.20368197912E+02  0.95413431502E+02  0.90710296414E+02 0.  0.
         13    1    3    3    0    0 -0.17410859401E+02 -0.27556556908E+02  0.27638647622E+02  0.42736493306E+02  0.10566000000E+00 0. -1.
         22    1    1    0    0    0 -0.19170994150E+02 -0.96423302461E+01 -0.20368197912E+02  0.29586568498E+02  0.00000000000E+00 0.  1.
</event>
<event>
 5    1  0.2295577E-004  0.9118800E+02  0.7818608E-02  0.1130116E+00
         25   -1    0    0    0    0  0.00000000000E+00  0.00000000000E+00  0.99999998245E-14  0.12500000000E+03  0.12500000000E+03 0.  0.
        -13    1    3    3    0    0  0.14908442356E+02  0.17353073918E+02  0.23888451888E+02  0.33076579713E+02  0.10566000000E+00 0. -1.
         23    2    1    0    0    0 -0.20147575511E+02 -0.16753526817E+02 -0.14317692092E+02  0.95140298618E+02  0.90333131544E+02 0.  0.
         13    1    3    3    0    0 -0.35056017867E+02 -0.34106600735E+02 -0.38206143980E+02  0.62063718905E+02  0.10566000000E+00 0.  1.
         22    1    1    0    0    0  0.20147575511E+02  0.16753526817E+02  0.14317692092E+02  0.29859701382E+02  0.00000000000E+00 0.  1.
</event>
<event>
 5    1  0.2295577E-004  0.9118800E+02  0.7818608E-02  0.1130116E+00
         25   -1    0    0    0    0  0.00000000000E+00  0.00000000000E+00  0.99999998245E-14  0.12500000000E+03  0.12500000000E+03 0.  0.
        -13    1    3    3    0    0 -0.36550417387E+02 -0.18557836258E+01  0.89681261305E+01  0.37680437821E+02  0.10566000000E+00 0. -1.
         23    2    1    0    0    0  0.99412817046E+01  0.13039963511E+02 -0.23524551156E+02  0.96324675462E+02  0.91957429637E+02 0.  0.
         13    1    3    3    0    0  0.46491699092E+02  0.14895747137E+02 -0.32492677286E+02  0.58644237641E+02  0.10566000000E+00 0.  1.
         22    1    1    0    0    0 -0.99412817046E+01 -0.13039963511E+02  0.23524551156E+02  0.28675324538E+02  0.00000000000E+00 0.  1.
</event>
<event>
 5    1  0.2295577E-004  0.9118800E+02  0.7818608E-02  0.1130116E+00
         25   -1    0    0    0    0  0.00000000000E+00  0.00000000000E+00  0.99999998245E-14  0.12500000000E+03  0.12500000000E+03 0.  0.
        -13    1    3    3    0    0 -0.43921514805E+02 -0.38080419907E+01 -0.43936227106E+02  0.62241496310E+02  0.10566000000E+00 0.  1.
         23    2    1    0    0    0 -0.20992852988E+02 -0.39549248573E+01 -0.16436897119E+02  0.98046096867E+02  0.94268362756E+02 0.  0.
         13    1    3    3    0    0  0.22928661817E+02 -0.14688286667E+00  0.27499329987E+02  0.35804600557E+02  0.10566000000E+00 0. -1.
         22    1    1    0    0    0  0.20992852988E+02  0.39549248573E+01  0.16436897119E+02  0.26953903133E+02  0.00000000000E+00 0.  1.
</event>
<event>
 5    1  0.2295577E-004  0.9118800E+02  0.7818608E-02  0.1130116E+00
         25   -1    0    0    0    0  0.00000000000E+00  0.00000000000E+00  0.99999998245E-14  0.12500000000E+03  0.12500000000E+03 0.  0.
        -13    1    3    3    0    0 -0.82838496615E+01 -0.27179401431E+02 -0.48342524026E+02  0.56074529161E+02  0.10566000000E+00 0.  1.
         23    2    1    0    0    0 -0.19076128466E+02  0.62451403289E+00 -0.22076503441E+02  0.95816773667E+02  0.91264414844E+02 0.  0.
         13    1    3    3    0    0 -0.10792278804E+02  0.27803915464E+02  0.26266020585E+02  0.39742244506E+02  0.10566000000E+00 0. -1.
         22    1    1    0    0    0  0.19076128466E+02 -0.62451403289E+00  0.22076503441E+02  0.29183226333E+02  0.00000000000E+00 0.  1.
</event>
<event>
 5    1  0.2295577E-004  0.9118800E+02  0.7818608E-02  0.1130116E+00
         25   -1    0    0    0    0  0.00000000000E+00  0.00000000000E+00  0.99999998245E-14  0.12500000000E+03  0.12500000000E+03 0.  0.
        -13    1    3    3    0    0 -0.76235674722E+00  0.29079134576E+02 -0.49532570430E+02  0.57442701476E+02  0.10566000000E+00 0.  1.
         23    2    1    0    0    0 -0.12447764093E+02  0.20753031957E+02 -0.11275214548E+02  0.98302329138E+02  0.94607517062E+02 0.  0.
         13    1    3    3    0    0 -0.11685407346E+02 -0.83261026184E+01  0.38257355881E+02  0.40859627662E+02  0.10566000000E+00 0. -1.
         22    1    1    0    0    0  0.12447764093E+02 -0.20753031957E+02  0.11275214548E+02  0.26697670862E+02  0.00000000000E+00 0.  1.
</event>
<event>
 5    1  0.2295577E-004  0.9118800E+02  0.7818608E-02  0.1130116E+00
         25   -1    0    0    0    0  0.00000000000E+00  0.00000000000E+00  0.99999998245E-14  0.12500000000E+03  0.12500000000E+03 0.  0.
        -13    1    3    3    0    0  0.29587593517E+02 -0.33909775199E+02 -0.16543812644E+02  0.47947966016E+02  0.10566000000E+00 0.  1.
         23    2    1    0    0    0  0.24921835839E+02  0.90361307462E+00  0.15619657817E+02  0.95574022897E+02  0.90931324218E+02 0.  0.
         13    1    3    3    0    0 -0.46657576785E+01  0.34813388274E+02  0.32163470462E+02  0.47626056881E+02  0.10566000000E+00 0. -1.
         22    1    1    0    0    0 -0.24921835839E+02 -0.90361307462E+00 -0.15619657817E+02  0.29425977103E+02  0.00000000000E+00 0. -1.
</event>
<event>
 5    1  0.2295577E-004  0.9118800E+02  0.7818608E-02  0.1130116E+00
         25   -1    0    0    0    0  0.00000000000E+00  0.00000000000E+00  0.99999998245E-14  0.12500000000E+03  0.12500000000E+03 0.  0.
        -13    1    3    3    0    0 -0.25525941379E+01  0.29567007749E+02 -0.35635869672E+02  0.46375101675E+02  0.10566000000E+00 0.  1.
         23    2    1    0    0    0  0.30454906252E+01  0.23929242345E+02  0.14312334709E+02  0.96951353381E+02  0.92805378860E+02 0.  0.
         13    1    3    3    0    0  0.55980847631E+01 -0.56377654043E+01  0.49948204381E+02  0.50576251706E+02  0.10566000000E+00 0. -1.
         22    1    1    0    0    0 -0.30454906252E+01 -0.23929242345E+02 -0.14312334709E+02  0.28048646619E+02  0.00000000000E+00 0. -1.
</event>
<event>
 5    1  0.2295577E-004  0.9118800E+02  0.7818608E-02  0.1130116E+00
         25   -1    0    0    0    0  0.00000000000E+00  0.00000000000E+00  0.99999998245E-14  0.12500000000E+03  0.12500000000E+03 0.  0.
        -13    1    3    3    0    0  0.17587693784E+02  0.23483988400E+02  0.27174249991E+02  0.39990945356E+02  0.10566000000E+00 0. -1.
         23    2    1    0    0    0  0.25740281887E+02  0.47624641438E+01 -0.20432747205E+02  0.91792465694E+02  0.85575209164E+02 0.  0.
         13    1    3    3    0    0  0.81525881037E+01 -0.18721524257E+02 -0.47606997196E+02  0.51801520338E+02  0.10566000000E+00 0.  1.
         22    1    1    0    0    0 -0.25740281887E+02 -0.47624641438E+01  0.20432747205E+02  0.33207534306E+02  0.00000000000E+00 0.  1.
</event>
<event>
 5    1  0.2295577E-004  0.9118800E+02  0.7818608E-02  0.1130116E+00
         25   -1    0    0    0    0  0.00000000000E+00  0.00000000000E+00  0.99999998245E-14  0.12500000000E+03  0.12500000000E+03 0.  0.
        -13    1    3    3    0    0  0.46500382903E+02 -0.28669177353E+02  0.30055363845E+02  0.62350167603E+02  0.10566000000E+00 0. -1.
         23    2    1    0    0    0  0.23320432278E+02 -0.10820506436E+02  0.13612104896E+02  0.95910219649E+02  0.91392313201E+02 0.  0.
         13    1    3    3    0    0 -0.23179950624E+02  0.17848670917E+02 -0.16443258949E+02  0.33560052046E+02  0.10566000000E+00 0.  1.
         22    1    1    0    0    0 -0.23320432278E+02  0.10820506436E+02 -0.13612104896E+02  0.29089780351E+02  0.00000000000E+00 0. -1.
</event>
<event>
 5    1  0.2295577E-004  0.9118800E+02  0.7818608E-02  0.1130116E+00
         25   -1    0    0    0    0  0.00000000000E+00  0.00000000000E+00  0.99999998245E-14  0.12500000000E+03  0.12500000000E+03 0.  0.
        -13    1    3    3    0    0  0.18545178879E+02  0.38842911253E+02 -0.11323512490E+02  0.44507623093E+02  0.10566000000E+00 0.  1.
         23    2    1    0    0    0 -0.25507211531E+02  0.14028651266E+02 -0.50246486466E+01  0.95459045540E+02  0.90773131404E+02 0.  0.
         13    1    3    3    0    0 -0.44052390410E+02 -0.24814259987E+02  0.62988638438E+01  0.50951422446E+02  0.10566000000E+00 0. -1.
         22    1    1    0    0    0  0.25507211531E+02 -0.14028651266E+02  0.50246486466E+01  0.29540954460E+02  0.00000000000E+00 0.  1.
</event>
<event>
 5    1  0.2295577E-004  0.9118800E+02  0.7818608E-02  0.1130116E+00
         25   -1    0    0    0    0  0.00000000000E+00  0.00000000000E+00  0.99999998245E-14  0.12500000000E+03  0.12500000000E+03 0.  0.
        -13    1    3    3    0    0 -0.45710249016E+02 -0.71969730631E+01 -0.12133699641E+02  0.47837862801E+02  0.10566000000E+00 0.  1.
         23    2    1    0    0    0 -0.18286131379E+02  0.15179398521E+02  0.18684368379E+02  0.94769181917E+02  0.89818124447E+02 0.  0.
         13    1    3    3    0    0  0.27424117637E+02  0.22376371584E+02  0.30818068020E+02  0.46931319116E+02  0.10566000000E+00 0. -1.
         22    1    1    0    0    0  0.18286131379E+02 -0.15179398521E+02 -0.18684368379E+02  0.30230818083E+02  0.00000000000E+00 0.  1.
</event>
<event>
 5    1  0.2295577E-004  0.9118800E+02  0.7818608E-02  0.1130116E+00
         25   -1    0    0    0    0  0.00000000000E+00  0.00000000000E+00  0.99999998245E-14  0.12500000000E+03  0.12500000000E+03 0.  0.
        -13    1    3    3    0    0  0.72546108343E+00  0.30286909057E+02  0.16011253423E+02  0.34266522354E+02  0.10566000000E+00 0. -1.
         23    2    1    0    0    0 -0.11619771708E+02 -0.24191579041E+02 -0.10604704975E+02  0.96143261470E+02  0.91710497586E+02 0.  0.
         13    1    3    3    0    0 -0.12345232791E+02 -0.54478488098E+02 -0.26615958398E+02  0.61876739115E+02  0.10566000000E+00 0.  1.
         22    1    1    0    0    0  0.11619771708E+02  0.24191579041E+02  0.10604704975E+02  0.28856738530E+02  0.00000000000E+00 0.  1.
</event>
<event>
 5    1  0.2295577E-004  0.9118800E+02  0.7818608E-02  0.1130116E+00
         25   -1    0    0    0    0  0.00000000000E+00  0.00000000000E+00  0.99999998245E-14  0.12500000000E+03  0.12500000000E+03 0.  0.
        -13    1    3    3    0    0 -0.34415862875E+02 -0.22633508732E+02  0.29308228937E+02  0.50554038240E+02  0.10566000000E+00 0.  1.
         23    2    1    0    0    0  0.92633870168E+00 -0.28757190991E+02  0.10642530806E+01  0.96208216941E+02  0.91798988204E+02 0.  0.
         13    1    3    3    0    0  0.35342201577E+02 -0.61236822591E+01 -0.28243975856E+02  0.45654178701E+02  0.10566000000E+00 0. -1.
         22    1    1    0    0    0 -0.92633870168E+00  0.28757190991E+02 -0.10642530806E+01  0.28791783059E+02  0.00000000000E+00 0.  1.
</event>
<event>
 5    1  0.2295577E-004  0.9118800E+02  0.7818608E-02  0.1130116E+00
         25   -1    0    0    0    0  0.00000000000E+00  0.00000000000E+00  0.99999998245E-14  0.12500000000E+03  0.12500000000E+03 0.  0.
        -13    1    3    3    0    0  0.64386616775E+01  0.37462320528E+02  0.27789185806E+02  0.47086429417E+02  0.10566000000E+00 0.  1.
         23    2    1    0    0    0  0.70994749944E+01  0.23229709389E+02 -0.17822987630E+02  0.94872258108E+02  0.89961461343E+02 0.  0.
         13    1    3    3    0    0  0.66081331694E+00 -0.14232611139E+02 -0.45612173436E+02  0.47785828690E+02  0.10566000000E+00 0. -1.
         22    1    1    0    0    0 -0.70994749944E+01 -0.23229709389E+02  0.17822987630E+02  0.30127741892E+02  0.00000000000E+00 0. -1.
</event>
<event>
 5    1  0.2295577E-004  0.9118800E+02  0.7818608E-02  0.1130116E+00
         25   -1    0    0    0    0  0.00000000000E+00  0.00000000000E+00  0.99999998245E-14  0.12500000000E+03  0.12500000000E+03 0.  0.
        -13    1    3    3    0    0 -0.59057869006E+02 -0.59313682652E+01 -0.19537532111E+02  0.62487913600E+02  0.10566000000E+00 0. -1.
         23    2    1    0    0    0 -0.27387605481E+02 -0.19391107035E+01 -0.87068079950E+01  0.96196361519E+02  0.91782843602E+02 0.  0.
         13    1    3    3    0    0  0.31670263525E+02  0.39922575618E+01  0.10830724116E+02  0.33708447919E+02  0.10566000000E+00 0.  1.
         22    1    1    0    0    0  0.27387605481E+02  0.19391107035E+01  0.87068079950E+01  0.28803638481E+02  0.00000000000E+00 0. -1.
</event>
<event>
 5    1  0.2295577E-004  0.9118800E+02  0.7818608E-02  0.1130116E+00
         25   -1    0    0    0    0  0.00000000000E+00  0.00000000000E+00  0.99999998245E-14  0.12500000000E+03  0.12500000000E+03 0.  0.
        -13    1    3    3    0    0 -0.45194654330E+02 -0.35917227175E+01 -0.37154243869E+02  0.58616603907E+02  0.10566000000E+00 0.  1.
         23    2    1    0    0    0 -0.10506577471E+02  0.41513338730E+01 -0.27232295203E+02  0.95517468815E+02  0.90853548107E+02 0.  0.
         13    1    3    3    0    0  0.34688076859E+02  0.77430565905E+01  0.99219486660E+01  0.36900864908E+02  0.10566000000E+00 0. -1.
         22    1    1    0    0    0  0.10506577471E+02 -0.41513338730E+01  0.27232295203E+02  0.29482531185E+02  0.00000000000E+00 0.  1.
</event>
<event>
 5    1  0.2295577E-004  0.9118800E+02  0.7818608E-02  0.1130116E+00
         25   -1    0    0    0    0  0.00000000000E+00  0.00000000000E+00  0.99999998245E-14  0.12500000000E+03  0.12500000000E+03 0.  0.
        -13    1    3    3    0    0  0.31698981758E+02 -0.44203608145E+02  0.83869945082E+00  0.54401277543E+02  0.10566000000E+00 0. -1.
         23    2    1    0    0    0 -0.38543558167E+01 -0.28181243913E+02 -0.99552425771E+01  0.94864548751E+02  0.89950748678E+02 0.  0.
         13    1    3    3    0    0 -0.35553337574E+02  0.16022364233E+02 -0.10793942028E+02  0.40463271208E+02  0.10566000000E+00 0.  1.
         22    1    1    0    0    0  0.38543558167E+01  0.28181243913E+02  0.99552425771E+01  0.30135451249E+02  0.00000000000E+00 0. -1.
</event>
<event>
 5    1  0.2295577E-004  0.9118800E+02  0.7818608E-02  0.1130116E+00
         25   -1    0    0    0    0  0.00000000000E+00  0.00000000000E+00  0.99999998245E-14  0.12500000000E+03  0.12500000000E+03 0.  0.
        -13    1    3    3    0    0 -0.50808078120E+02 -0.15791476799E+02 -0.19667904672E+02  0.56724502466E+02  0.10566000000E+00 0.  1.
         23    2    1    0    0    0 -0.23094652737E+02 -0.17375753496E+02  0.70488333057E+01  0.95251624489E+02  0.90487049472E+02 0.  0.
         13    1    3    3    0    0  0.27713425383E+02 -0.15842766972E+01  0.26716737978E+02  0.38527122023E+02  0.10566000000E+00 0. -1.
         22    1    1    0    0    0  0.23094652737E+02  0.17375753496E+02 -0.70488333057E+01  0.29748375511E+02  0.00000000000E+00 0.  1.
</event>
<event>
 5    1  0.2295577E-004  0.9118800E+02  0.7818608E-02  0.1130116E+00
         25   -1    0    0    0    0  0.00000000000E+00  0.00000000000E+00  0.99999998245E-14  0.12500000000E+03  0.12500000000E+03 0.  0.
        -13    1    3    3    0    0 -0.19922016248E+01 -0.26210180646E+02  0.30029723129E+02  0.39909120161E+02  0.10566000000E+00 0.  1.
         23    2    1    0    0    0  0.12713182779E+02  0.24073510591E+02  0.10014491401E+02  0.95992260230E+02  0.91504453758E+02 0.  0.
         13    1    3    3    0    0  0.14705384404E+02  0.50283691236E+02 -0.20015231728E+02  0.56083140069E+02  0.10566000000E+00 0. -1.
         22    1    1    0    0    0 -0.12713182779E+02 -0.24073510591E+02 -0.10014491401E+02  0.29007739770E+02  0.00000000000E+00 0. -1.
</event>
<event>
 5    1  0.2295577E-004  0.9118800E+02  0.7818608E-02  0.1130116E+00
         25   -1    0    0    0    0  0.00000000000E+00  0.00000000000E+00  0.99999998245E-14  0.12500000000E+03  0.12500000000E+03 0.  0.
        -13    1    3    3    0    0 -0.24812474347E+02  0.21042758653E+02 -0.14545571471E+02  0.35637640051E+02  0.10566000000E+00 0. -1.
         23    2    1    0    0    0  0.22720690846E+02  0.88935414799E+01  0.18145610439E+02  0.94592960506E+02  0.89572541141E+02 0.  0.
         13    1    3    3    0    0  0.47533165194E+02 -0.12149217173E+02  0.32691181910E+02  0.58955320455E+02  0.10566000000E+00 0.  1.
         22    1    1    0    0    0 -0.22720690846E+02 -0.88935414799E+01 -0.18145610439E+02  0.30407039494E+02  0.00000000000E+00 0.  1.
</event>
<event>
 5    1  0.2295577E-004  0.9118800E+02  0.7818608E-02  0.1130116E+00
         25   -1    0    0    0    0  0.00000000000E+00  0.00000000000E+00  0.99999998245E-14  0.12500000000E+03  0.12500000000E+03 0.  0.
        -13    1    3    3    0    0 -0.32532938067E+02 -0.79455969878E+01 -0.30844222071E+02  0.45529131004E+02  0.10566000000E+00 0.  1.
         23    2    1    0    0    0  0.76035214169E+01  0.20408030950E+02 -0.19048808492E+02  0.96066310810E+02  0.91605554976E+02 0.  0.
         13    1    3    3    0    0  0.40136459484E+02  0.28353627938E+02  0.11795413579E+02  0.50537179806E+02  0.10566000000E+00 0. -1.
         22    1    1    0    0    0 -0.76035214169E+01 -0.20408030950E+02  0.19048808492E+02  0.28933689190E+02  0.00000000000E+00 0. -1.
</event>
<event>
 5    1  0.2295577E-004  0.9118800E+02  0.7818608E-02  0.1130116E+00
         25   -1    0    0    0    0  0.00000000000E+00  0.00000000000E+00  0.99999998245E-14  0.12500000000E+03  0.12500000000E+03 0.  0.
        -13    1    3    3    0    0  0.59739938071E+02 -0.14843489967E+02  0.10468126022E+01  0.61565382934E+02  0.10566000000E+00 0.  1.
         23    2    1    0    0    0  0.25257835431E+02 -0.52994904356E+00 -0.45884510888E+01  0.99323298887E+02  0.95946989123E+02 0.  0.
         13    1    3    3    0    0 -0.34482102640E+02  0.14313540924E+02 -0.56352636911E+01  0.37757915953E+02  0.10566000000E+00 0. -1.
         22    1    1    0    0    0 -0.25257835431E+02  0.52994904356E+00  0.45884510888E+01  0.25676701113E+02  0.00000000000E+00 0.  1.
</event>
<event>
 5    1  0.2295577E-004  0.9118800E+02  0.7818608E-02  0.1130116E+00
         25   -1    0    0    0    0  0.00000000000E+00  0.00000000000E+00  0.99999998245E-14  0.12500000000E+03  0.12500000000E+03 0.  0.
        -13    1    3    3    0    0 -0.54519547626E+02 -0.51266705006E+01  0.21973369476E+02  0.59004270641E+02  0.10566000000E+00 0.  1.
         23    2    1    0    0    0 -0.27032802472E+02 -0.99209479367E+01 -0.24697065048E+01  0.96098493678E+02  0.91649459461E+02 0.  0.
         13    1    3    3    0    0  0.27486745154E+02 -0.47942774361E+01 -0.24443075981E+02  0.37094223037E+02  0.10566000000E+00 0. -1.
         22    1    1    0    0    0  0.27032802472E+02  0.99209479367E+01  0.24697065048E+01  0.28901506322E+02  0.00000000000E+00 0.  1.
</event>
<event>
 5    1  0.2295577E-004  0.9118800E+02  0.7818608E-02  0.1130116E+00
         25   -1    0    0    0    0  0.00000000000E+00  0.00000000000E+00  0.99999998245E-14  0.12500000000E+03  0.12500000000E+03 0.  0.
        -13    1    3    3    0    0 -0.32425809915E+01 -0.39576903727E+02 -0.91277650101E+01  0.40745219330E+02  0.10566000000E+00 0.  1.
         23    2    1    0    0    0 -0.24857183234E+02 -0.89635389892E+00  0.19409630537E+02  0.93449773912E+02  0.87962739146E+02 0.  0.
         13    1    3    3    0    0 -0.21614602242E+02  0.38680549828E+02  0.28537395547E+02  0.52704554582E+02  0.10566000000E+00 0. -1.
         22    1    1    0    0    0  0.24857183234E+02  0.89635389892E+00 -0.19409630537E+02  0.31550226088E+02  0.00000000000E+00 0. -1.
</event>
<event>
 5    1  0.2295577E-004  0.9118800E+02  0.7818608E-02  0.1130116E+00
         25   -1    0    0    0    0  0.00000000000E+00  0.00000000000E+00  0.99999998245E-14  0.12500000000E+03  0.12500000000E+03 0.  0.
        -13    1    3    3    0    0  0.57700102939E+02  0.17060319413E+02 -0.12790150106E+02  0.61513864140E+02  0.10566000000E+00 0.  1.
         23    2    1    0    0    0  0.24148056136E+02  0.91606161392E+01 -0.13219536172E+02  0.95986181916E+02  0.91496150078E+02 0.  0.
         13    1    3    3    0    0 -0.33552046803E+02 -0.78997032743E+01 -0.42938606637E+00  0.34472317777E+02  0.10566000000E+00 0. -1.
         22    1    1    0    0    0 -0.24148056136E+02 -0.91606161392E+01  0.13219536172E+02  0.29013818084E+02  0.00000000000E+00 0.  1.
</event>
<event>
 5    1  0.2295577E-004  0.9118800E+02  0.7818608E-02  0.1130116E+00
         25   -1    0    0    0    0  0.00000000000E+00  0.00000000000E+00  0.99999998245E-14  0.12500000000E+03  0.12500000000E+03 0.  0.
        -13    1    3    3    0    0 -0.10667938334E+02  0.31754750014E+02 -0.42645512194E+02  0.54229327224E+02  0.10566000000E+00 0. -1.
         23    2    1    0    0    0  0.17444128902E+02  0.17413194938E+02 -0.15285157407E+02  0.95997361705E+02  0.91511422381E+02 0.  0.
         13    1    3    3    0    0  0.28112067236E+02 -0.14341555076E+02  0.27360354787E+02  0.41768034481E+02  0.10566000000E+00 0.  1.
         22    1    1    0    0    0 -0.17444128902E+02 -0.17413194938E+02  0.15285157407E+02  0.29002638295E+02  0.00000000000E+00 0.  1.
</event>
<event>
 5    1  0.2295577E-004  0.9118800E+02  0.7818608E-02  0.1130116E+00
         25   -1    0    0    0    0  0.00000000000E+00  0.00000000000E+00  0.99999998245E-14  0.12500000000E+03  0.12500000000E+03 0.  0.
        -13    1    3    3    0    0 -0.25614153534E+02 -0.38197499004E+02  0.55486718522E+01  0.46324213051E+02  0.10566000000E+00 0.  1.
         23    2    1    0    0    0  0.19864819982E+02 -0.23042804560E+02  0.46066456995E-01  0.94576587354E+02  0.89549689216E+02 0.  0.
         13    1    3    3    0    0  0.45478973516E+02  0.15154694444E+02 -0.55026053952E+01  0.48252374304E+02  0.10566000000E+00 0. -1.
         22    1    1    0    0    0 -0.19864819982E+02  0.23042804560E+02 -0.46066456995E-01  0.30423412646E+02  0.00000000000E+00 0. -1.
</event>
<event>
 5    1  0.2295577E-004  0.9118800E+02  0.7818608E-02  0.1130116E+00
         25   -1    0    0    0    0  0.00000000000E+00  0.00000000000E+00  0.99999998245E-14  0.12500000000E+03  0.12500000000E+03 0.  0.
        -13    1    3    3    0    0  0.48776715027E+01 -0.37281317475E+02 -0.16486254211E+02  0.41054793312E+02  0.10566000000E+00 0.  1.
         23    2    1    0    0    0  0.62758057904E+01  0.18771163589E+02  0.97232818801E+01  0.10294813996E+03  0.10055861470E+03 0.  0.
         13    1    3    3    0    0  0.13981342877E+01  0.56052481064E+02  0.26209536091E+02  0.61893346646E+02  0.10566000000E+00 0. -1.
         22    1    1    0    0    0 -0.62758057904E+01 -0.18771163589E+02 -0.97232818801E+01  0.22051860042E+02  0.00000000000E+00 0. -1.
</event>
<event>
 5    1  0.2295577E-004  0.9118800E+02  0.7818608E-02  0.1130116E+00
         25   -1    0    0    0    0  0.00000000000E+00  0.00000000000E+00  0.99999998245E-14  0.12500000000E+03  0.12500000000E+03 0.  0.
        -13    1    3    3    0    0  0.27273959835E+02 -0.74299262237E+01  0.32003576969E+02  0.42700266880E+02  0.10566000000E+00 0. -1.
         23    2    1    0    0    0  0.16951630106E+01  0.26557600147E+02 -0.35671033077E+01  0.98150345827E+02  0.94406495840E+02 0.  0.
         13    1    3    3    0    0 -0.25578796825E+02  0.33987526371E+02 -0.35570680277E+02  0.55450078947E+02  0.10566000000E+00 0.  1.
         22    1    1    0    0    0 -0.16951630106E+01 -0.26557600147E+02  0.35671033077E+01  0.26849654173E+02  0.00000000000E+00 0. -1.
</event>
<event>
 5    1  0.2295577E-004  0.9118800E+02  0.7818608E-02  0.1130116E+00
         25   -1    0    0    0    0  0.00000000000E+00  0.00000000000E+00  0.99999998245E-14  0.12500000000E+03  0.12500000000E+03 0.  0.
        -13    1    3    3    0    0  0.27132191701E+02  0.35810271887E+02 -0.68533084736E+01  0.45447886642E+02  0.10566000000E+00 0. -1.
         23    2    1    0    0    0 -0.16944709545E+02  0.12362328280E+02 -0.18855058654E+02  0.96796036114E+02  0.92595944989E+02 0.  0.
         13    1    3    3    0    0 -0.44076901245E+02 -0.23447943607E+02 -0.12001750180E+02  0.51348149472E+02  0.10566000000E+00 0.  1.
         22    1    1    0    0    0  0.16944709545E+02 -0.12362328280E+02  0.18855058654E+02  0.28203963886E+02  0.00000000000E+00 0. -1.
</event>
<event>
 5    1  0.2295577E-004  0.9118800E+02  0.7818608E-02  0.1130116E+00
         25   -1    0    0    0    0  0.00000000000E+00  0.00000000000E+00  0.99999998245E-14  0.12500000000E+03  0.12500000000E+03 0.  0.
        -13    1    3    3    0    0 -0.41213968811E+02 -0.35897568377E+01 -0.28789854960E+02  0.50401830244E+02  0.10566000000E+00 0.  1.
         23    2    1    0    0    0  0.52474667578E+01 -0.12545160481E+02 -0.23281426701E+02  0.98038141976E+02  0.94257813968E+02 0.  0.
         13    1    3    3    0    0  0.46461435569E+02 -0.89554036432E+01  0.55084282594E+01  0.47636311732E+02  0.10566000000E+00 0. -1.
         22    1    1    0    0    0 -0.52474667578E+01  0.12545160481E+02  0.23281426701E+02  0.26961858024E+02  0.00000000000E+00 0.  1.
</event>
<event>
 5    1  0.2295577E-004  0.9118800E+02  0.7818608E-02  0.1130116E+00
         25   -1    0    0    0    0  0.00000000000E+00  0.00000000000E+00  0.99999998245E-14  0.12500000000E+03  0.12500000000E+03 0.  0.
        -13    1    3    3    0    0  0.36719845736E+02 -0.14716146943E+02  0.28261832251E+02  0.48617428747E+02  0.10566000000E+00 0.  1.
         23    2    1    0    0    0 -0.10988567663E+02 -0.14076194919E+02  0.21884098696E+02  0.96754617043E+02  0.92540014376E+02 0.  0.
         13    1    3    3    0    0 -0.47708413399E+02  0.63995202386E+00 -0.63777335554E+01  0.48137188296E+02  0.10566000000E+00 0. -1.
         22    1    1    0    0    0  0.10988567663E+02  0.14076194919E+02 -0.21884098696E+02  0.28245382957E+02  0.00000000000E+00 0.  1.
</event>
<event>
 5    1  0.2295577E-004  0.9118800E+02  0.7818608E-02  0.1130116E+00
         25   -1    0    0    0    0  0.00000000000E+00  0.00000000000E+00  0.99999998245E-14  0.12500000000E+03  0.12500000000E+03 0.  0.
        -13    1    3    3    0    0 -0.42836073460E+02  0.85094139704E+01  0.43381859138E+02  0.61557584276E+02  0.10566000000E+00 0. -1.
         23    2    1    0    0    0 -0.24543657006E+02  0.82271072651E+01  0.15743120344E+02  0.94702768586E+02  0.89725649323E+02 0.  0.
         13    1    3    3    0    0  0.18292416453E+02 -0.28230670535E+00 -0.27638738794E+02  0.33145184310E+02  0.10566000000E+00 0.  1.
         22    1    1    0    0    0  0.24543657006E+02 -0.82271072651E+01 -0.15743120344E+02  0.30297231414E+02  0.00000000000E+00 0. -1.
</event>
<event>
 5    1  0.2295577E-004  0.9118800E+02  0.7818608E-02  0.1130116E+00
         25   -1    0    0    0    0  0.00000000000E+00  0.00000000000E+00  0.99999998245E-14  0.12500000000E+03  0.12500000000E+03 0.  0.
        -13    1    3    3    0    0  0.35905748984E+01 -0.47638705299E+02  0.32779689486E+02  0.57938395537E+02  0.10566000000E+00 0.  1.
         23    2    1    0    0    0  0.17859363095E+02 -0.20921905939E+02  0.10425972160E+02  0.95582591995E+02  0.90943103085E+02 0.  0.
         13    1    3    3    0    0  0.14268788196E+02  0.26716799360E+02 -0.22353717326E+02  0.37644196458E+02  0.10566000000E+00 0. -1.
         22    1    1    0    0    0 -0.17859363095E+02  0.20921905939E+02 -0.10425972160E+02  0.29417408005E+02  0.00000000000E+00 0.  1.
</event>
<event>
 5    1  0.2295577E-004  0.9118800E+02  0.7818608E-02  0.1130116E+00
         25   -1    0    0    0    0  0.00000000000E+00  0.00000000000E+00  0.99999998245E-14  0.12500000000E+03  0.12500000000E+03 0.  0.
        -13    1    3    3    0    0 -0.23026885705E+02 -0.25825439660E+01 -0.31866977669E+02  0.39400792231E+02  0.10566000000E+00 0.  1.
         23    2    1    0    0    0 -0.78910920470E+00  0.23855249474E+02  0.14386074196E+02  0.97131473818E+02  0.93047667646E+02 0.  0.
         13    1    3    3    0    0  0.22237776501E+02  0.26437793440E+02  0.46253051865E+02  0.57730681587E+02  0.10566000000E+00 0. -1.
         22    1    1    0    0    0  0.78910920470E+00 -0.23855249474E+02 -0.14386074196E+02  0.27868526182E+02  0.00000000000E+00 0. -1.
</event>
<event>
 5    1  0.2295577E-004  0.9118800E+02  0.7818608E-02  0.1130116E+00
         25   -1    0    0    0    0  0.00000000000E+00  0.00000000000E+00  0.99999998245E-14  0.12500000000E+03  0.12500000000E+03 0.  0.
        -13    1    3    3    0    0  0.25444365596E+02  0.28090051987E+02  0.11247318086E+02  0.39534542989E+02  0.10566000000E+00 0.  1.
         23    2    1    0    0    0 -0.21036576693E+02 -0.24618424678E+01  0.20032524827E+02  0.95846950790E+02  0.91305737484E+02 0.  0.
         13    1    3    3    0    0 -0.46480942289E+02 -0.30551894455E+02  0.87852067413E+01  0.56312407801E+02  0.10566000000E+00 0. -1.
         22    1    1    0    0    0  0.21036576693E+02  0.24618424678E+01 -0.20032524827E+02  0.29153049210E+02  0.00000000000E+00 0. -1.
</event>
<event>
 5    1  0.2295577E-004  0.9118800E+02  0.7818608E-02  0.1130116E+00
         25   -1    0    0    0    0  0.00000000000E+00  0.00000000000E+00  0.99999998245E-14  0.12500000000E+03  0.12500000000E+03 0.  0.
        -13    1    3    3    0    0  0.23657449988E+02 -0.38362793940E+02  0.28039884655E+02  0.53081307391E+02  0.10566000000E+00 0. -1.
         23    2    1    0    0    0 -0.30034853606E+01 -0.28784261588E+02 -0.39263189207E+01  0.95794339252E+02  0.91233682448E+02 0.  0.
         13    1    3    3    0    0 -0.26660935349E+02  0.95785323527E+01 -0.31966203576E+02  0.42713031861E+02  0.10566000000E+00 0.  1.
         22    1    1    0    0    0  0.30034853606E+01  0.28784261588E+02  0.39263189207E+01  0.29205660748E+02  0.00000000000E+00 0. -1.
</event>
<event>
 5    1  0.2295577E-004  0.9118800E+02  0.7818608E-02  0.1130116E+00
         25   -1    0    0    0    0  0.00000000000E+00  0.00000000000E+00  0.99999998245E-14  0.12500000000E+03  0.12500000000E+03 0.  0.
        -13    1    3    3    0    0  0.32559536737E+02  0.91702177005E+01  0.96613729305E+01  0.35179107666E+02  0.10566000000E+00 0. -1.
         23    2    1    0    0    0 -0.15435821037E+02 -0.13606998015E+02 -0.20235910741E+02  0.96139870936E+02  0.91705876224E+02 0.  0.
         13    1    3    3    0    0 -0.47995357774E+02 -0.22777215715E+02 -0.29897283671E+02  0.60960763271E+02  0.10566000000E+00 0.  1.
         22    1    1    0    0    0  0.15435821037E+02  0.13606998015E+02  0.20235910741E+02  0.28860129064E+02  0.00000000000E+00 0.  1.
</event>
<event>
 5    1  0.2295577E-004  0.9118800E+02  0.7818608E-02  0.1130116E+00
         25   -1    0    0    0    0  0.00000000000E+00  0.00000000000E+00  0.99999998245E-14  0.12500000000E+03  0.12500000000E+03 0.  0.
        -13    1    3    3    0    0 -0.32779194309E+02 -0.50095002960E+02 -0.72029147852E+01  0.60298242483E+02  0.10566000000E+00 0. -1.
         23    2    1    0    0    0 -0.81007598397E+01 -0.23337296841E+02 -0.12882618117E+02  0.97139390111E+02  0.93058301767E+02 0.  0.
         13    1    3    3    0    0  0.24678434469E+02  0.26757706119E+02 -0.56797033315E+01  0.36841147628E+02  0.10566000000E+00 0.  1.
         22    1    1    0    0    0  0.81007598397E+01  0.23337296841E+02  0.12882618117E+02  0.27860609889E+02  0.00000000000E+00 0. -1.
</event>
<event>
 5    1  0.2295577E-004  0.9118800E+02  0.7818608E-02  0.1130116E+00
         25   -1    0    0    0    0  0.00000000000E+00  0.00000000000E+00  0.99999998245E-14  0.12500000000E+03  0.12500000000E+03 0.  0.
        -13    1    3    3    0    0 -0.53203296454E+02 -0.19055860798E+02  0.10033368714E+02  0.57396831238E+02  0.10566000000E+00 0.  1.
         23    2    1    0    0    0 -0.36365352312E+02 -0.19736377561E+01  0.20091886415E+02  0.83406515000E+02  0.72295426895E+02 0.  0.
         13    1    3    3    0    0  0.16837944143E+02  0.17082223042E+02  0.10058517701E+02  0.26009683762E+02  0.10566000000E+00 0. -1.
         22    1    1    0    0    0  0.36365352312E+02  0.19736377561E+01 -0.20091886415E+02  0.41593485000E+02  0.00000000000E+00 0.  1.
</event>
<event>
 5    1  0.2295577E-004  0.9118800E+02  0.7818608E-02  0.1130116E+00
         25   -1    0    0    0    0  0.00000000000E+00  0.00000000000E+00  0.99999998245E-14  0.12500000000E+03  0.12500000000E+03 0.  0.
        -13    1    3    3    0    0 -0.31726805207E+02 -0.24066558115E+02  0.46718042039E+02  0.61387099656E+02  0.10566000000E+00 0.  1.
         23    2    1    0    0    0 -0.12139017181E+02 -0.18402320122E+02  0.18386277690E+02  0.96293618631E+02  0.91915203627E+02 0.  0.
         13    1    3    3    0    0  0.19587788026E+02  0.56642379939E+01 -0.28331764349E+02  0.34906518975E+02  0.10566000000E+00 0. -1.
         22    1    1    0    0    0  0.12139017181E+02  0.18402320122E+02 -0.18386277690E+02  0.28706381369E+02  0.00000000000E+00 0.  1.
</event>
<event>
 5    1  0.2295577E-004  0.9118800E+02  0.7818608E-02  0.1130116E+00
         25   -1    0    0    0    0  0.00000000000E+00  0.00000000000E+00  0.99999998245E-14  0.12500000000E+03  0.12500000000E+03 0.  0.
        -13    1    3    3    0    0 -0.30104696103E+02 -0.39501661477E+02  0.29268616540E+02  0.57648391696E+02  0.10566000000E+00 0. -1.
         23    2    1    0    0    0 -0.11369523102E+02 -0.26305767034E+02 -0.18365122147E+01  0.96283589850E+02  0.91901563983E+02 0.  0.
         13    1    3    3    0    0  0.18735173001E+02  0.13195894444E+02 -0.31105128755E+02  0.38635198154E+02  0.10566000000E+00 0.  1.
         22    1    1    0    0    0  0.11369523102E+02  0.26305767034E+02  0.18365122147E+01  0.28716410150E+02  0.00000000000E+00 0. -1.
</event>
<event>
 5    1  0.2295577E-004  0.9118800E+02  0.7818608E-02  0.1130116E+00
         25   -1    0    0    0    0  0.00000000000E+00  0.00000000000E+00  0.99999998245E-14  0.12500000000E+03  0.12500000000E+03 0.  0.
        -13    1    3    3    0    0  0.36682265278E+02  0.23118647859E+02  0.19605626171E+02  0.47586260689E+02  0.10566000000E+00 0.  1.
         23    2    1    0    0    0 -0.10993333884E+02  0.24248824054E+02  0.11666523319E+02  0.95931690379E+02  0.91421674644E+02 0.  0.
         13    1    3    3    0    0 -0.47675599163E+02  0.11301761945E+01 -0.79391028520E+01  0.48345429690E+02  0.10566000000E+00 0. -1.
         22    1    1    0    0    0  0.10993333884E+02 -0.24248824054E+02 -0.11666523319E+02  0.29068309621E+02  0.00000000000E+00 0.  1.
</event>
<event>
 5    1  0.2295577E-004  0.9118800E+02  0.7818608E-02  0.1130116E+00
         25   -1    0    0    0    0  0.00000000000E+00  0.00000000000E+00  0.99999998245E-14  0.12500000000E+03  0.12500000000E+03 0.  0.
        -13    1    3    3    0    0  0.31849609821E+02 -0.51465675311E+01 -0.45904889973E+02  0.56108420853E+02  0.10566000000E+00 0.  1.
         23    2    1    0    0    0  0.29002303021E+02 -0.26703285210E+01 -0.71982770437E+01  0.94998676241E+02  0.90136946144E+02 0.  0.
         13    1    3    3    0    0 -0.28473068009E+01  0.24762390101E+01  0.38706612929E+02  0.38890255388E+02  0.10566000000E+00 0. -1.
         22    1    1    0    0    0 -0.29002303021E+02  0.26703285210E+01  0.71982770437E+01  0.30001323759E+02  0.00000000000E+00 0.  1.
</event>
<event>
 5    1  0.2295577E-004  0.9118800E+02  0.7818608E-02  0.1130116E+00
         25   -1    0    0    0    0  0.00000000000E+00  0.00000000000E+00  0.99999998245E-14  0.12500000000E+03  0.12500000000E+03 0.  0.
        -13    1    3    3    0    0 -0.54070769238E+02 -0.24798719199E+02  0.12127896893E+01  0.59498794801E+02  0.10566000000E+00 0.  1.
         23    2    1    0    0    0 -0.28845643310E+02  0.69988553725E+00 -0.44301853620E+01  0.95807748972E+02  0.91252053364E+02 0.  0.
         13    1    3    3    0    0  0.25225125928E+02  0.25498604736E+02 -0.56429750513E+01  0.36308954172E+02  0.10566000000E+00 0. -1.
         22    1    1    0    0    0  0.28845643310E+02 -0.69988553725E+00  0.44301853620E+01  0.29192251028E+02  0.00000000000E+00 0.  1.
</event>
<event>
 5    1  0.2295577E-004  0.9118800E+02  0.7818608E-02  0.1130116E+00
         25   -1    0    0    0    0  0.00000000000E+00  0.00000000000E+00  0.99999998245E-14  0.12500000000E+03  0.12500000000E+03 0.  0.
        -13    1    3    3    0    0 -0.59377976776E+01 -0.12565075006E+02 -0.31137015174E+02  0.34097850799E+02  0.10566000000E+00 0. -1.
         23    2    1    0    0    0 -0.20131583789E+02  0.18453639427E+02  0.16802622971E+02  0.92935290230E+02  0.87228565031E+02 0.  0.
         13    1    3    3    0    0 -0.14193786112E+02  0.31018714433E+02  0.47939638145E+02  0.58837439430E+02  0.10566000000E+00 0.  1.
         22    1    1    0    0    0  0.20131583789E+02 -0.18453639427E+02 -0.16802622971E+02  0.32064709770E+02  0.00000000000E+00 0.  1.
</event>
<event>
 5    1  0.2295577E-004  0.9118800E+02  0.7818608E-02  0.1130116E+00
         25   -1    0    0    0    0  0.00000000000E+00  0.00000000000E+00  0.99999998245E-14  0.12500000000E+03  0.12500000000E+03 0.  0.
        -13    1    3    3    0    0  0.97079722569E+01  0.23738988709E+02  0.30024064258E+02  0.39487211966E+02  0.10566000000E+00 0.  1.
         23    2    1    0    0    0  0.24227940324E+02 -0.19859428412E+02  0.13676803758E+01  0.93643014513E+02  0.88236917604E+02 0.  0.
         13    1    3    3    0    0  0.14519968068E+02 -0.43598417122E+02 -0.28656383882E+02  0.54155802546E+02  0.10566000000E+00 0. -1.
         22    1    1    0    0    0 -0.24227940324E+02  0.19859428412E+02 -0.13676803758E+01  0.31356985487E+02  0.00000000000E+00 0. -1.
</event>
<event>
 5    1  0.2295577E-004  0.9118800E+02  0.7818608E-02  0.1130116E+00
         25   -1    0    0    0    0  0.00000000000E+00  0.00000000000E+00  0.99999998245E-14  0.12500000000E+03  0.12500000000E+03 0.  0.
        -13    1    3    3    0    0 -0.39407167078E+02  0.88083769192E+01  0.88579798861E+00  0.40389455594E+02  0.10566000000E+00 0.  1.
         23    2    1    0    0    0  0.86059751537E+01 -0.71416798203E+01 -0.25286104682E+02  0.97351247967E+02  0.93342444749E+02 0.  0.
         13    1    3    3    0    0  0.48013142231E+02 -0.15950056739E+02 -0.26171902671E+02  0.56961792373E+02  0.10566000000E+00 0. -1.
         22    1    1    0    0    0 -0.86059751537E+01  0.71416798203E+01  0.25286104682E+02  0.27648752033E+02  0.00000000000E+00 0. -1.
</event>
<event>
 5    1  0.2295577E-004  0.9118800E+02  0.7818608E-02  0.1130116E+00
         25   -1    0    0    0    0  0.00000000000E+00  0.00000000000E+00  0.99999998245E-14  0.12500000000E+03  0.12500000000E+03 0.  0.
        -13    1    3    3    0    0 -0.29960881707E+02 -0.25574426291E+02  0.72077791941E+01  0.40045835710E+02  0.10566000000E+00 0.  1.
         23    2    1    0    0    0 -0.13876318630E+02  0.24892421459E+02 -0.84411579390E+01  0.95277314856E+02  0.90522531526E+02 0.  0.
         13    1    3    3    0    0  0.16084563077E+02  0.50466847750E+02 -0.15648937133E+02  0.55231479146E+02  0.10566000000E+00 0. -1.
         22    1    1    0    0    0  0.13876318630E+02 -0.24892421459E+02  0.84411579390E+01  0.29722685144E+02  0.00000000000E+00 0. -1.
</event>
<event>
 5    1  0.2295577E-004  0.9118800E+02  0.7818608E-02  0.1130116E+00
         25   -1    0    0    0    0  0.00000000000E+00  0.00000000000E+00  0.99999998245E-14  0.12500000000E+03  0.12500000000E+03 0.  0.
        -13    1    3    3    0    0 -0.54714075217E+02  0.11241386944E+02 -0.11897001732E+02  0.57109969546E+02  0.10566000000E+00 0. -1.
         23    2    1    0    0    0 -0.19829448823E+02  0.20966773015E+02 -0.13015267168E+02  0.93342302820E+02  0.87809883868E+02 0.  0.
         13    1    3    3    0    0  0.34884626394E+02  0.97253860714E+01 -0.11182654357E+01  0.36232333274E+02  0.10566000000E+00 0.  1.
         22    1    1    0    0    0  0.19829448823E+02 -0.20966773015E+02  0.13015267168E+02  0.31657697180E+02  0.00000000000E+00 0. -1.
</event>
<event>
 5    1  0.2295577E-004  0.9118800E+02  0.7818608E-02  0.1130116E+00
         25   -1    0    0    0    0  0.00000000000E+00  0.00000000000E+00  0.99999998245E-14  0.12500000000E+03  0.12500000000E+03 0.  0.
        -13    1    3    3    0    0  0.35628363456E+01  0.17114007533E+02  0.33991370651E+02  0.38223127808E+02  0.10566000000E+00 0. -1.
         23    2    1    0    0    0  0.18632286180E+02  0.10129663488E+02 -0.20690016415E+02  0.95371484176E+02  0.90652474009E+02 0.  0.
         13    1    3    3    0    0  0.15069449835E+02 -0.69843440447E+01 -0.54681387066E+02  0.57148356368E+02  0.10566000000E+00 0.  1.
         22    1    1    0    0    0 -0.18632286180E+02 -0.10129663488E+02  0.20690016415E+02  0.29628515824E+02  0.00000000000E+00 0.  1.
</event>
<event>
 5    1  0.2295577E-004  0.9118800E+02  0.7818608E-02  0.1130116E+00
         25   -1    0    0    0    0  0.00000000000E+00  0.00000000000E+00  0.99999998245E-14  0.12500000000E+03  0.12500000000E+03 0.  0.
        -13    1    3    3    0    0  0.13181404255E+02 -0.17425429041E+02  0.24991688437E+02  0.33196244522E+02  0.10566000000E+00 0.  1.
         23    2    1    0    0    0 -0.24700481754E+01  0.23125040898E+02 -0.18947420421E+02  0.95002110156E+02  0.90141708098E+02 0.  0.
         13    1    3    3    0    0 -0.15651452430E+02  0.40550469939E+02 -0.43939108858E+02  0.61805865634E+02  0.10566000000E+00 0. -1.
         22    1    1    0    0    0  0.24700481754E+01 -0.23125040898E+02  0.18947420421E+02  0.29997889844E+02  0.00000000000E+00 0. -1.
</event>
<event>
 5    1  0.2295577E-004  0.9118800E+02  0.7818608E-02  0.1130116E+00
         25   -1    0    0    0    0  0.00000000000E+00  0.00000000000E+00  0.99999998245E-14  0.12500000000E+03  0.12500000000E+03 0.  0.
        -13    1    3    3    0    0  0.42728875151E+02  0.26115290574E+02  0.45764050794E+01  0.50286378085E+02  0.10566000000E+00 0. -1.
         23    2    1    0    0    0  0.13422308806E+01  0.23238459113E+02 -0.16156515744E+02  0.96665205724E+02  0.92419161600E+02 0.  0.
         13    1    3    3    0    0 -0.41386644270E+02 -0.28768314605E+01 -0.20732920823E+02  0.46378827638E+02  0.10566000000E+00 0.  1.
         22    1    1    0    0    0 -0.13422308806E+01 -0.23238459113E+02  0.16156515744E+02  0.28334794276E+02  0.00000000000E+00 0. -1.
</event>
<event>
 5    1  0.2295577E-004  0.9118800E+02  0.7818608E-02  0.1130116E+00
         25   -1    0    0    0    0  0.00000000000E+00  0.00000000000E+00  0.99999998245E-14  0.12500000000E+03  0.12500000000E+03 0.  0.
        -13    1    3    3    0    0  0.15897356444E+02  0.41401647933E+02 -0.31150108763E+02  0.54195597916E+02  0.10566000000E+00 0.  1.
         23    2    1    0    0    0  0.24354906180E+02  0.11092243777E+02 -0.33855210283E+00  0.98235957993E+02  0.94519783634E+02 0.  0.
         13    1    3    3    0    0  0.84575497361E+01 -0.30309404156E+02  0.30811556660E+02  0.44040360077E+02  0.10566000000E+00 0. -1.
         22    1    1    0    0    0 -0.24354906180E+02 -0.11092243777E+02  0.33855210283E+00  0.26764042007E+02  0.00000000000E+00 0.  1.
</event>
<event>
 5    1  0.2295577E-004  0.9118800E+02  0.7818608E-02  0.1130116E+00
         25   -1    0    0    0    0  0.00000000000E+00  0.00000000000E+00  0.99999998245E-14  0.12500000000E+03  0.12500000000E+03 0.  0.
        -13    1    3    3    0    0 -0.14575482846E+02 -0.40163033188E+02  0.19782028326E+02  0.47083476335E+02  0.10566000000E+00 0. -1.
         23    2    1    0    0    0 -0.19033749535E+02  0.94808681627E+01  0.18293732687E+02  0.96949489521E+02  0.92802868384E+02 0.  0.
         13    1    3    3    0    0 -0.44582666886E+01  0.49643901351E+02 -0.14882956386E+01  0.49866013186E+02  0.10566000000E+00 0.  1.
         22    1    1    0    0    0  0.19033749535E+02 -0.94808681627E+01 -0.18293732687E+02  0.28050510479E+02  0.00000000000E+00 0.  1.
</event>
<event>
 5    1  0.2295577E-004  0.9118800E+02  0.7818608E-02  0.1130116E+00
         25   -1    0    0    0    0  0.00000000000E+00  0.00000000000E+00  0.99999998245E-14  0.12500000000E+03  0.12500000000E+03 0.  0.
        -13    1    3    3    0    0 -0.33439814508E+02 -0.24094939110E+02 -0.18308209777E+02  0.45099767120E+02  0.10566000000E+00 0. -1.
         23    2    1    0    0    0 -0.14771740530E+02  0.22844153827E+02 -0.49772935974E+01  0.97344383321E+02  0.93333251472E+02 0.  0.
         13    1    3    3    0    0  0.18668073978E+02  0.46939092937E+02  0.13330916180E+02  0.52244616201E+02  0.10566000000E+00 0.  1.
         22    1    1    0    0    0  0.14771740530E+02 -0.22844153827E+02  0.49772935974E+01  0.27655616679E+02  0.00000000000E+00 0. -1.
</event>
<event>
 5    1  0.2295577E-004  0.9118800E+02  0.7818608E-02  0.1130116E+00
         25   -1    0    0    0    0  0.00000000000E+00  0.00000000000E+00  0.99999998245E-14  0.12500000000E+03  0.12500000000E+03 0.  0.
        -13    1    3    3    0    0 -0.74891690814E+01 -0.11033434261E+02 -0.59341895127E+02  0.60821838236E+02  0.10566000000E+00 0.  1.
         23    2    1    0    0    0  0.48726175605E+00 -0.14233199452E+02 -0.24949106733E+02  0.96272324886E+02  0.91886240654E+02 0.  0.
         13    1    3    3    0    0  0.79764308375E+01 -0.31997651918E+01  0.34392788393E+02  0.35450486650E+02  0.10566000000E+00 0. -1.
         22    1    1    0    0    0 -0.48726175605E+00  0.14233199452E+02  0.24949106733E+02  0.28727675114E+02  0.00000000000E+00 0.  1.
</event>
<event>
 5    1  0.2295577E-004  0.9118800E+02  0.7818608E-02  0.1130116E+00
         25   -1    0    0    0    0  0.00000000000E+00  0.00000000000E+00  0.99999998245E-14  0.12500000000E+03  0.12500000000E+03 0.  0.
        -13    1    3    3    0    0  0.24902400899E+02  0.68059901327E+01  0.28274690029E+02  0.38287339063E+02  0.10566000000E+00 0.  1.
         23    2    1    0    0    0  0.56955491154E+01  0.87533172912E+01 -0.26581043858E+02  0.96441083076E+02  0.92115529467E+02 0.  0.
         13    1    3    3    0    0 -0.19206851784E+02  0.19473271584E+01 -0.54855733886E+02  0.58153744013E+02  0.10566000000E+00 0. -1.
         22    1    1    0    0    0 -0.56955491154E+01 -0.87533172912E+01  0.26581043858E+02  0.28558916924E+02  0.00000000000E+00 0. -1.
</event>
<event>
 5    1  0.2295577E-004  0.9118800E+02  0.7818608E-02  0.1130116E+00
         25   -1    0    0    0    0  0.00000000000E+00  0.00000000000E+00  0.99999998245E-14  0.12500000000E+03  0.12500000000E+03 0.  0.
        -13    1    3    3    0    0 -0.26845195884E+02 -0.70164537172E+01  0.31971749932E+02  0.42333191736E+02  0.10566000000E+00 0. -1.
         23    2    1    0    0    0  0.18122221184E+02 -0.16021589212E+02  0.27445508679E+02  0.88416367483E+02  0.80492806329E+02 0.  0.
         13    1    3    3    0    0  0.44967417068E+02 -0.90051354946E+01 -0.45262412531E+01  0.46083175747E+02  0.10566000000E+00 0.  1.
         22    1    1    0    0    0 -0.18122221184E+02  0.16021589212E+02 -0.27445508679E+02  0.36583632517E+02  0.00000000000E+00 0. -1.
</event>
<event>
 5    1  0.2295577E-004  0.9118800E+02  0.7818608E-02  0.1130116E+00
         25   -1    0    0    0    0  0.00000000000E+00  0.00000000000E+00  0.99999998245E-14  0.12500000000E+03  0.12500000000E+03 0.  0.
        -13    1    3    3    0    0 -0.48598693673E+02  0.33834209212E+02  0.36755802049E+01  0.59330496320E+02  0.10566000000E+00 0.  1.
         23    2    1    0    0    0 -0.29128024537E+02  0.36551838517E+01 -0.14409830016E+01  0.95608187969E+02  0.90978277585E+02 0.  0.
         13    1    3    3    0    0  0.19470669136E+02 -0.30179025361E+02 -0.51165632065E+01  0.36277691649E+02  0.10566000000E+00 0. -1.
         22    1    1    0    0    0  0.29128024537E+02 -0.36551838517E+01  0.14409830016E+01  0.29391812031E+02  0.00000000000E+00 0.  1.
</event>
<event>
 5    1  0.2295577E-004  0.9118800E+02  0.7818608E-02  0.1130116E+00
         25   -1    0    0    0    0  0.00000000000E+00  0.00000000000E+00  0.99999998245E-14  0.12500000000E+03  0.12500000000E+03 0.  0.
        -13    1    3    3    0    0  0.42696999945E+01 -0.98070662926E+01  0.53603587350E+02  0.54660448481E+02  0.10566000000E+00 0.  1.
         23    2    1    0    0    0  0.19620198171E+02 -0.14315741189E+02  0.14986196748E+02  0.96460926522E+02  0.92142452921E+02 0.  0.
         13    1    3    3    0    0  0.15350498176E+02 -0.45086748959E+01 -0.38617390601E+02  0.41800478041E+02  0.10566000000E+00 0. -1.
         22    1    1    0    0    0 -0.19620198171E+02  0.14315741189E+02 -0.14986196748E+02  0.28539073478E+02  0.00000000000E+00 0.  1.
</event>
<event>
 5    1  0.2295577E-004  0.9118800E+02  0.7818608E-02  0.1130116E+00
         25   -1    0    0    0    0  0.00000000000E+00  0.00000000000E+00  0.99999998245E-14  0.12500000000E+03  0.12500000000E+03 0.  0.
        -13    1    3    3    0    0  0.41588712863E+02  0.34888444440E+02  0.26208013249E+02  0.60280143626E+02  0.10566000000E+00 0.  1.
         23    2    1    0    0    0  0.22827798506E+02  0.24519070620E+02  0.38093716471E+01  0.91283468134E+02  0.84828456508E+02 0.  0.
         13    1    3    3    0    0 -0.18760914357E+02 -0.10369373819E+02 -0.22398641602E+02  0.31003324509E+02  0.10566000000E+00 0. -1.
         22    1    1    0    0    0 -0.22827798506E+02 -0.24519070620E+02 -0.38093716471E+01  0.33716531866E+02  0.00000000000E+00 0.  1.
</event>
<event>
 5    1  0.2295577E-004  0.9118800E+02  0.7818608E-02  0.1130116E+00
         25   -1    0    0    0    0  0.00000000000E+00  0.00000000000E+00  0.99999998245E-14  0.12500000000E+03  0.12500000000E+03 0.  0.
        -13    1    3    3    0    0 -0.55561997257E+02 -0.38048097792E+01 -0.23074044583E+02  0.60282956249E+02  0.10566000000E+00 0.  1.
         23    2    1    0    0    0 -0.21914300998E+02  0.68260276551E+01 -0.17782294142E+02  0.95964827765E+02  0.91466971860E+02 0.  0.
         13    1    3    3    0    0  0.33647696260E+02  0.10630837434E+02  0.52917504405E+01  0.35681871516E+02  0.10566000000E+00 0. -1.
         22    1    1    0    0    0  0.21914300998E+02 -0.68260276551E+01  0.17782294142E+02  0.29035172235E+02  0.00000000000E+00 0.  1.
</event>
<event>
 5    1  0.2295577E-004  0.9118800E+02  0.7818608E-02  0.1130116E+00
         25   -1    0    0    0    0  0.00000000000E+00  0.00000000000E+00  0.99999998245E-14  0.12500000000E+03  0.12500000000E+03 0.  0.
        -13    1    3    3    0    0  0.42518468848E+02  0.14000345199E+02  0.34269465064E+02  0.56375857055E+02  0.10566000000E+00 0. -1.
         23    2    1    0    0    0  0.27187276988E+02 -0.82809389541E+01  0.51527266336E+01  0.96116223035E+02  0.91673637207E+02 0.  0.
         13    1    3    3    0    0 -0.15331191860E+02 -0.22281284153E+02 -0.29116738430E+02  0.39740365980E+02  0.10566000000E+00 0.  1.
         22    1    1    0    0    0 -0.27187276988E+02  0.82809389541E+01 -0.51527266336E+01  0.28883776965E+02  0.00000000000E+00 0. -1.
</event>
<event>
 5    1  0.2295577E-004  0.9118800E+02  0.7818608E-02  0.1130116E+00
         25   -1    0    0    0    0  0.00000000000E+00  0.00000000000E+00  0.99999998245E-14  0.12500000000E+03  0.12500000000E+03 0.  0.
        -13    1    3    3    0    0 -0.45278756291E+01 -0.54065522454E+02 -0.20538311473E+02  0.58012203700E+02  0.10566000000E+00 0. -1.
         23    2    1    0    0    0 -0.42662355057E+01 -0.28812196456E+02  0.66539881292E+01  0.95123270125E+02  0.90309565004E+02 0.  0.
         13    1    3    3    0    0  0.26164012341E+00  0.25253325998E+02  0.27192299603E+02  0.37111066425E+02  0.10566000000E+00 0.  1.
         22    1    1    0    0    0  0.42662355057E+01  0.28812196456E+02 -0.66539881292E+01  0.29876729875E+02  0.00000000000E+00 0. -1.
</event>
<event>
 5    1  0.2295577E-004  0.9118800E+02  0.7818608E-02  0.1130116E+00
         25   -1    0    0    0    0  0.00000000000E+00  0.00000000000E+00  0.99999998245E-14  0.12500000000E+03  0.12500000000E+03 0.  0.
        -13    1    3    3    0    0 -0.38243596063E+02 -0.10132501762E+02  0.10731166256E+02  0.40992796014E+02  0.10566000000E+00 0. -1.
         23    2    1    0    0    0  0.15655784600E+02 -0.22711045249E+02  0.73980689907E+01  0.96440822972E+02  0.92115176507E+02 0.  0.
         13    1    3    3    0    0  0.53899380663E+02 -0.12578543487E+02 -0.33330972656E+01  0.55448026958E+02  0.10566000000E+00 0.  1.
         22    1    1    0    0    0 -0.15655784600E+02  0.22711045249E+02 -0.73980689907E+01  0.28559177028E+02  0.00000000000E+00 0.  1.
</event>
<event>
 5    1  0.2295577E-004  0.9118800E+02  0.7818608E-02  0.1130116E+00
         25   -1    0    0    0    0  0.00000000000E+00  0.00000000000E+00  0.99999998245E-14  0.12500000000E+03  0.12500000000E+03 0.  0.
        -13    1    3    3    0    0  0.55828231350E+01  0.68990667660E+00  0.59770851581E+02  0.60035070984E+02  0.10566000000E+00 0.  1.
         23    2    1    0    0    0  0.87609763186E+01  0.10826634951E+02  0.25126245147E+02  0.96271983612E+02  0.91885776391E+02 0.  0.
         13    1    3    3    0    0  0.31781531836E+01  0.10136728275E+02 -0.34644606434E+02  0.36236912627E+02  0.10566000000E+00 0. -1.
         22    1    1    0    0    0 -0.87609763186E+01 -0.10826634951E+02 -0.25126245147E+02  0.28728016388E+02  0.00000000000E+00 0.  1.
</event>
<event>
 5    1  0.2295577E-004  0.9118800E+02  0.7818608E-02  0.1130116E+00
         25   -1    0    0    0    0  0.00000000000E+00  0.00000000000E+00  0.99999998245E-14  0.12500000000E+03  0.12500000000E+03 0.  0.
        -13    1    3    3    0    0  0.17525981563E+01  0.28199243068E+02 -0.45310023343E+02  0.53397362194E+02  0.10566000000E+00 0.  1.
         23    2    1    0    0    0 -0.21095388553E+02  0.19149588020E+02 -0.13841293242E+02  0.93325032942E+02  0.87785296237E+02 0.  0.
         13    1    3    3    0    0 -0.22847986709E+02 -0.90496550484E+01  0.31468730101E+02  0.39927670748E+02  0.10566000000E+00 0. -1.
         22    1    1    0    0    0  0.21095388553E+02 -0.19149588020E+02  0.13841293242E+02  0.31674967058E+02  0.00000000000E+00 0.  1.
</event>
<event>
 5    1  0.2295577E-004  0.9118800E+02  0.7818608E-02  0.1130116E+00
         25   -1    0    0    0    0  0.00000000000E+00  0.00000000000E+00  0.99999998245E-14  0.12500000000E+03  0.12500000000E+03 0.  0.
        -13    1    3    3    0    0  0.38964292637E+02 -0.67875622429E+01  0.13101129888E+02  0.41664587725E+02  0.10566000000E+00 0.  1.
         23    2    1    0    0    0  0.46925703503E+01  0.30959475871E+02  0.47209993307E+01  0.93333026710E+02  0.87796678054E+02 0.  0.
         13    1    3    3    0    0 -0.34271722287E+02  0.37747038114E+02 -0.83801305576E+01  0.51668438984E+02  0.10566000000E+00 0. -1.
         22    1    1    0    0    0 -0.46925703503E+01 -0.30959475871E+02 -0.47209993307E+01  0.31666973290E+02  0.00000000000E+00 0. -1.
</event>
<event>
 5    1  0.2295577E-004  0.9118800E+02  0.7818608E-02  0.1130116E+00
         25   -1    0    0    0    0  0.00000000000E+00  0.00000000000E+00  0.99999998245E-14  0.12500000000E+03  0.12500000000E+03 0.  0.
        -13    1    3    3    0    0  0.31812100941E+02  0.52952235454E+01 -0.13753150831E+02  0.35060083863E+02  0.10566000000E+00 0.  1.
         23    2    1    0    0    0 -0.91602604523E+01  0.26604487339E+02  0.18442343002E+02  0.91357331653E+02  0.84937229253E+02 0.  0.
         13    1    3    3    0    0 -0.40972361393E+02  0.21309263793E+02  0.32195493833E+02  0.56297247790E+02  0.10566000000E+00 0. -1.
         22    1    1    0    0    0  0.91602604523E+01 -0.26604487339E+02 -0.18442343002E+02  0.33642668347E+02  0.00000000000E+00 0.  1.
</event>
<event>
 5    1  0.2295577E-004  0.9118800E+02  0.7818608E-02  0.1130116E+00
         25   -1    0    0    0    0  0.00000000000E+00  0.00000000000E+00  0.99999998245E-14  0.12500000000E+03  0.12500000000E+03 0.  0.
        -13    1    3    3    0    0 -0.12862346821E+02 -0.25125225794E+02 -0.17863223806E+02  0.33403934884E+02  0.10566000000E+00 0. -1.
         23    2    1    0    0    0  0.69702545618E+01  0.15393711261E+02  0.24465849794E+02  0.95265699921E+02  0.90506491371E+02 0.  0.
         13    1    3    3    0    0  0.19832601383E+02  0.40518937055E+02  0.42329073600E+02  0.61861765037E+02  0.10566000000E+00 0.  1.
         22    1    1    0    0    0 -0.69702545618E+01 -0.15393711261E+02 -0.24465849794E+02  0.29734300079E+02  0.00000000000E+00 0.  1.
</event>
<event>
 5    1  0.2295577E-004  0.9118800E+02  0.7818608E-02  0.1130116E+00
         25   -1    0    0    0    0  0.00000000000E+00  0.00000000000E+00  0.99999998245E-14  0.12500000000E+03  0.12500000000E+03 0.  0.
        -13    1    3    3    0    0 -0.20923848252E+02 -0.24729302964E+02 -0.85680097059E+01  0.33507727543E+02  0.10566000000E+00 0.  1.
         23    2    1    0    0    0  0.20620930486E+02  0.99342201799E+01  0.19920629178E+02  0.94656253172E+02  0.89660823625E+02 0.  0.
         13    1    3    3    0    0  0.41544778738E+02  0.34663523144E+02  0.28488638884E+02  0.61148525629E+02  0.10566000000E+00 0. -1.
         22    1    1    0    0    0 -0.20620930486E+02 -0.99342201799E+01 -0.19920629178E+02  0.30343746828E+02  0.00000000000E+00 0. -1.
</event>
<event>
 5    1  0.2295577E-004  0.9118800E+02  0.7818608E-02  0.1130116E+00
         25   -1    0    0    0    0  0.00000000000E+00  0.00000000000E+00  0.99999998245E-14  0.12500000000E+03  0.12500000000E+03 0.  0.
        -13    1    3    3    0    0  0.27377204004E+02 -0.17189297351E+02 -0.47377129182E+02  0.57354919371E+02  0.10566000000E+00 0.  1.
         23    2    1    0    0    0  0.24975138507E+02  0.43262890440E+01 -0.17721250907E+02  0.94072390102E+02  0.88843106234E+02 0.  0.
         13    1    3    3    0    0 -0.24020654974E+01  0.21515586395E+02  0.29655878275E+02  0.36717470731E+02  0.10566000000E+00 0. -1.
         22    1    1    0    0    0 -0.24975138507E+02 -0.43262890440E+01  0.17721250907E+02  0.30927609898E+02  0.00000000000E+00 0.  1.
</event>
<event>
 5    1  0.2295577E-004  0.9118800E+02  0.7818608E-02  0.1130116E+00
         25   -1    0    0    0    0  0.00000000000E+00  0.00000000000E+00  0.99999998245E-14  0.12500000000E+03  0.12500000000E+03 0.  0.
        -13    1    3    3    0    0 -0.14014804239E+02 -0.18655353865E+02 -0.33243539414E+02  0.40615034685E+02  0.10566000000E+00 0.  1.
         23    2    1    0    0    0 -0.36347496903E+02  0.27847140260E+01  0.31678367136E+01  0.88408602750E+02  0.80480747309E+02 0.  0.
         13    1    3    3    0    0 -0.22332692663E+02  0.21440067891E+02  0.36411376128E+02  0.47793568064E+02  0.10566000000E+00 0. -1.
         22    1    1    0    0    0  0.36347496903E+02 -0.27847140260E+01 -0.31678367136E+01  0.36591397250E+02  0.00000000000E+00 0.  1.
</event>
<event>
 5    1  0.2295577E-004  0.9118800E+02  0.7818608E-02  0.1130116E+00
         25   -1    0    0    0    0  0.00000000000E+00  0.00000000000E+00  0.99999998245E-14  0.12500000000E+03  0.12500000000E+03 0.  0.
        -13    1    3    3    0    0  0.29469432769E+02  0.43199467018E+02  0.97110717329E+01  0.53187945031E+02  0.10566000000E+00 0.  1.
         23    2    1    0    0    0  0.19271815224E+02 -0.65392961701E+01  0.18717708396E+01  0.10456305349E+03  0.10254639620E+03 0.  0.
         13    1    3    3    0    0 -0.10197617546E+02 -0.49738763188E+02 -0.78393008933E+01  0.51375108463E+02  0.10566000000E+00 0. -1.
         22    1    1    0    0    0 -0.19271815224E+02  0.65392961701E+01 -0.18717708396E+01  0.20436946506E+02  0.00000000000E+00 0.  1.
</event>
<event>
 5    1  0.2295577E-004  0.9118800E+02  0.7818608E-02  0.1130116E+00
         25   -1    0    0    0    0  0.00000000000E+00  0.00000000000E+00  0.99999998245E-14  0.12500000000E+03  0.12500000000E+03 0.  0.
        -13    1    3    3    0    0 -0.93918936176E+01 -0.40272900571E+02 -0.42412731386E+02  0.59236518583E+02  0.10566000000E+00 0.  1.
         23    2    1    0    0    0  0.64199381476E+01 -0.12124501294E+02 -0.26339240245E+02  0.95301940903E+02  0.90556530553E+02 0.  0.
         13    1    3    3    0    0  0.15811831765E+02  0.28148399277E+02  0.16073491142E+02  0.36065422321E+02  0.10566000000E+00 0. -1.
         22    1    1    0    0    0 -0.64199381476E+01  0.12124501294E+02  0.26339240245E+02  0.29698059097E+02  0.00000000000E+00 0.  1.
</event>
<event>
 5    1  0.2295577E-004  0.9118800E+02  0.7818608E-02  0.1130116E+00
         25   -1    0    0    0    0  0.00000000000E+00  0.00000000000E+00  0.99999998245E-14  0.12500000000E+03  0.12500000000E+03 0.  0.
        -13    1    3    3    0    0 -0.39628705588E+02 -0.15554764473E+02 -0.13132615098E+02  0.44551787257E+02  0.10566000000E+00 0.  1.
         23    2    1    0    0    0 -0.11650682205E+01 -0.15968269581E+02  0.22766608790E+02  0.97167258612E+02  0.93095728435E+02 0.  0.
         13    1    3    3    0    0  0.38463637368E+02 -0.41350510830E+00  0.35899223889E+02  0.52615471355E+02  0.10566000000E+00 0. -1.
         22    1    1    0    0    0  0.11650682205E+01  0.15968269581E+02 -0.22766608790E+02  0.27832741388E+02  0.00000000000E+00 0. -1.
</event>
<event>
 5    1  0.2295577E-004  0.9118800E+02  0.7818608E-02  0.1130116E+00
         25   -1    0    0    0    0  0.00000000000E+00  0.00000000000E+00  0.99999998245E-14  0.12500000000E+03  0.12500000000E+03 0.  0.
        -13    1    3    3    0    0  0.26860404916E+02 -0.42035172611E+02 -0.11182895352E+02  0.51122454961E+02  0.10566000000E+00 0.  1.
         23    2    1    0    0    0  0.12638269932E+02 -0.70859191641E+01 -0.28796768547E+02  0.92763530031E+02  0.86982081533E+02 0.  0.
         13    1    3    3    0    0 -0.14222134985E+02  0.34949253447E+02 -0.17613873196E+02  0.41641075071E+02  0.10566000000E+00 0. -1.
         22    1    1    0    0    0 -0.12638269932E+02  0.70859191641E+01  0.28796768547E+02  0.32236469969E+02  0.00000000000E+00 0. -1.
</event>
<event>
 5    1  0.2295577E-004  0.9118800E+02  0.7818608E-02  0.1130116E+00
         25   -1    0    0    0    0  0.00000000000E+00  0.00000000000E+00  0.99999998245E-14  0.12500000000E+03  0.12500000000E+03 0.  0.
        -13    1    3    3    0    0  0.37705160924E+02 -0.76156994424E+01 -0.24016780854E-01  0.38466736009E+02  0.10566000000E+00 0.  1.
         23    2    1    0    0    0 -0.46739629932E+01 -0.29447539325E+02  0.18834325075E+02  0.89733368415E+02  0.82512678442E+02 0.  0.
         13    1    3    3    0    0 -0.42379123917E+02 -0.21831839883E+02  0.18858341855E+02  0.51266632406E+02  0.10566000000E+00 0. -1.
         22    1    1    0    0    0  0.46739629932E+01  0.29447539325E+02 -0.18834325075E+02  0.35266631585E+02  0.00000000000E+00 0. -1.
</event>
<event>
 5    1  0.2295577E-004  0.9118800E+02  0.7818608E-02  0.1130116E+00
         25   -1    0    0    0    0  0.00000000000E+00  0.00000000000E+00  0.99999998245E-14  0.12500000000E+03  0.12500000000E+03 0.  0.
        -13    1    3    3    0    0 -0.30854973283E+02  0.35857859953E+02  0.33217602601E+02  0.57803423629E+02  0.10566000000E+00 0.  1.
         23    2    1    0    0    0 -0.49409791026E+01  0.17748149877E+02  0.30281623894E+02  0.89554452406E+02  0.82241188595E+02 0.  0.
         13    1    3    3    0    0  0.25913994180E+02 -0.18109710075E+02 -0.29359787061E+01  0.31751028777E+02  0.10566000000E+00 0. -1.
         22    1    1    0    0    0  0.49409791026E+01 -0.17748149877E+02 -0.30281623894E+02  0.35445547594E+02  0.00000000000E+00 0.  1.
</event>
<event>
 5    1  0.2295577E-004  0.9118800E+02  0.7818608E-02  0.1130116E+00
         25   -1    0    0    0    0  0.00000000000E+00  0.00000000000E+00  0.99999998245E-14  0.12500000000E+03  0.12500000000E+03 0.  0.
        -13    1    3    3    0    0  0.40048439090E+02 -0.60305763116E+01 -0.43204830204E+02  0.59219201626E+02  0.10566000000E+00 0. -1.
         23    2    1    0    0    0  0.18139454001E+02  0.11537195292E+02 -0.19720407579E+02  0.95827390557E+02  0.91278955073E+02 0.  0.
         13    1    3    3    0    0 -0.21908985090E+02  0.17567771604E+02  0.23484422625E+02  0.36608188931E+02  0.10566000000E+00 0.  1.
         22    1    1    0    0    0 -0.18139454001E+02 -0.11537195292E+02  0.19720407579E+02  0.29172609443E+02  0.00000000000E+00 0. -1.
</event>
<event>
 5    1  0.2295577E-004  0.9118800E+02  0.7818608E-02  0.1130116E+00
         25   -1    0    0    0    0  0.00000000000E+00  0.00000000000E+00  0.99999998245E-14  0.12500000000E+03  0.12500000000E+03 0.  0.
        -13    1    3    3    0    0  0.23154572421E+02  0.50683680736E+02  0.23412824391E+02  0.60441221257E+02  0.10566000000E+00 0. -1.
         23    2    1    0    0    0  0.29267703760E+01  0.21963562562E+02  0.18934534641E+02  0.95854148368E+02  0.91315590630E+02 0.  0.
         13    1    3    3    0    0 -0.20227802045E+02 -0.28720118174E+02 -0.44782897498E+01  0.35412927112E+02  0.10566000000E+00 0.  1.
         22    1    1    0    0    0 -0.29267703760E+01 -0.21963562562E+02 -0.18934534641E+02  0.29145851632E+02  0.00000000000E+00 0. -1.
</event>
<event>
 5    1  0.2295577E-004  0.9118800E+02  0.7818608E-02  0.1130116E+00
         25   -1    0    0    0    0  0.00000000000E+00  0.00000000000E+00  0.99999998245E-14  0.12500000000E+03  0.12500000000E+03 0.  0.
        -13    1    3    3    0    0 -0.18829698233E+02 -0.33958336304E+02 -0.23167981405E+02  0.45216066464E+02  0.10566000000E+00 0. -1.
         23    2    1    0    0    0 -0.24771017124E+02 -0.10023647816E+01  0.15025163002E+02  0.96010975392E+02  0.91530016103E+02 0.  0.
         13    1    3    3    0    0 -0.59413188909E+01  0.32955971523E+02  0.38193144407E+02  0.50794908927E+02  0.10566000000E+00 0.  1.
         22    1    1    0    0    0  0.24771017124E+02  0.10023647816E+01 -0.15025163002E+02  0.28989024608E+02  0.00000000000E+00 0.  1.
</event>
<event>
 5    1  0.2295577E-004  0.9118800E+02  0.7818608E-02  0.1130116E+00
         25   -1    0    0    0    0  0.00000000000E+00  0.00000000000E+00  0.99999998245E-14  0.12500000000E+03  0.12500000000E+03 0.  0.
        -13    1    3    3    0    0  0.41195910593E+02 -0.38430271936E+01  0.78170504550E+01  0.42106880073E+02  0.10566000000E+00 0. -1.
         23    2    1    0    0    0 -0.94082218072E+01 -0.10292072903E+02  0.25365523852E+02  0.96054340524E+02  0.91589219513E+02 0.  0.
         13    1    3    3    0    0 -0.50604132401E+02 -0.64490457095E+01  0.17548473397E+02  0.53947460451E+02  0.10566000000E+00 0.  1.
         22    1    1    0    0    0  0.94082218072E+01  0.10292072903E+02 -0.25365523852E+02  0.28945659476E+02  0.00000000000E+00 0.  1.
</event>
<event>
 5    1  0.2295577E-004  0.9118800E+02  0.7818608E-02  0.1130116E+00
         25   -1    0    0    0    0  0.00000000000E+00  0.00000000000E+00  0.99999998245E-14  0.12500000000E+03  0.12500000000E+03 0.  0.
        -13    1    3    3    0    0 -0.26174259214E+02 -0.36305831879E+02  0.13829564788E+00  0.44757519631E+02  0.10566000000E+00 0.  1.
         23    2    1    0    0    0  0.15261910454E+02 -0.13831264842E+02  0.20349018226E+02  0.96046376037E+02  0.91578349021E+02 0.  0.
         13    1    3    3    0    0  0.41436169668E+02  0.22474567037E+02  0.20210722578E+02  0.51288856406E+02  0.10566000000E+00 0. -1.
         22    1    1    0    0    0 -0.15261910454E+02  0.13831264842E+02 -0.20349018226E+02  0.28953623963E+02  0.00000000000E+00 0.  1.
</event>
<event>
 5    1  0.2295577E-004  0.9118800E+02  0.7818608E-02  0.1130116E+00
         25   -1    0    0    0    0  0.00000000000E+00  0.00000000000E+00  0.99999998245E-14  0.12500000000E+03  0.12500000000E+03 0.  0.
        -13    1    3    3    0    0  0.17600740654E+02 -0.27616477631E+02 -0.39142238658E+02  0.51035104776E+02  0.10566000000E+00 0.  1.
         23    2    1    0    0    0  0.28118900168E+02  0.22081982270E+01 -0.74061369389E+01  0.95838389098E+02  0.91294015545E+02 0.  0.
         13    1    3    3    0    0  0.10518159514E+02  0.29824675858E+02  0.31736101719E+02  0.44803284321E+02  0.10566000000E+00 0. -1.
         22    1    1    0    0    0 -0.28118900168E+02 -0.22081982270E+01  0.74061369389E+01  0.29161610902E+02  0.00000000000E+00 0.  1.
</event>
<event>
 5    1  0.2295577E-004  0.9118800E+02  0.7818608E-02  0.1130116E+00
         25   -1    0    0    0    0  0.00000000000E+00  0.00000000000E+00  0.99999998245E-14  0.12500000000E+03  0.12500000000E+03 0.  0.
        -13    1    3    3    0    0  0.22363808193E+02 -0.26841042653E+02 -0.14742471959E+02  0.37920088754E+02  0.10566000000E+00 0.  1.
         23    2    1    0    0    0  0.74637325044E+01  0.27337151043E+02  0.21130070154E+01  0.96583597541E+02  0.92308717818E+02 0.  0.
         13    1    3    3    0    0 -0.14900075689E+02  0.54178193696E+02  0.16855478975E+02  0.58663508787E+02  0.10566000000E+00 0. -1.
         22    1    1    0    0    0 -0.74637325044E+01 -0.27337151043E+02 -0.21130070154E+01  0.28416402459E+02  0.00000000000E+00 0. -1.
</event>
<event>
 5    1  0.2295577E-004  0.9118800E+02  0.7818608E-02  0.1130116E+00
         25   -1    0    0    0    0  0.00000000000E+00  0.00000000000E+00  0.99999998245E-14  0.12500000000E+03  0.12500000000E+03 0.  0.
        -13    1    3    3    0    0  0.36369035080E+01  0.28847388560E+02 -0.26756121373E+02  0.39513290028E+02  0.10566000000E+00 0.  1.
         23    2    1    0    0    0 -0.17557803688E+02  0.98103377460E+01  0.21504700888E+02  0.95555622654E+02  0.90906026552E+02 0.  0.
         13    1    3    3    0    0 -0.21194707196E+02 -0.19037050814E+02  0.48260822261E+02  0.56042332626E+02  0.10566000000E+00 0. -1.
         22    1    1    0    0    0  0.17557803688E+02 -0.98103377460E+01 -0.21504700888E+02  0.29444377346E+02  0.00000000000E+00 0. -1.
</event>
<event>
 5    1  0.2295577E-004  0.9118800E+02  0.7818608E-02  0.1130116E+00
         25   -1    0    0    0    0  0.00000000000E+00  0.00000000000E+00  0.99999998245E-14  0.12500000000E+03  0.12500000000E+03 0.  0.
        -13    1    3    3    0    0 -0.56362428118E+02 -0.10974645905E+02  0.11743553629E+02  0.58609626956E+02  0.10566000000E+00 0.  1.
         23    2    1    0    0    0 -0.19466882449E+02 -0.83612401690E+01  0.19275810319E+02  0.96356908112E+02  0.92001233840E+02 0.  0.
         13    1    3    3    0    0  0.36895545669E+02  0.26134057365E+01  0.75322566904E+01  0.37747281156E+02  0.10566000000E+00 0. -1.
         22    1    1    0    0    0  0.19466882449E+02  0.83612401690E+01 -0.19275810319E+02  0.28643091888E+02  0.00000000000E+00 0.  1.
</event>
<event>
 5    1  0.2295577E-004  0.9118800E+02  0.7818608E-02  0.1130116E+00
         25   -1    0    0    0    0  0.00000000000E+00  0.00000000000E+00  0.99999998245E-14  0.12500000000E+03  0.12500000000E+03 0.  0.
        -13    1    3    3    0    0 -0.37620822456E+02 -0.64391835380E+01  0.23164563886E+02  0.44647480902E+02  0.10566000000E+00 0.  1.
         23    2    1    0    0    0 -0.15478342572E+02  0.23053723508E+02 -0.11202026625E+02  0.95057744627E+02  0.90218823738E+02 0.  0.
         13    1    3    3    0    0  0.22142479884E+02  0.29492907046E+02 -0.34366590510E+02  0.50410263724E+02  0.10566000000E+00 0. -1.
         22    1    1    0    0    0  0.15478342572E+02 -0.23053723508E+02  0.11202026625E+02  0.29942255373E+02  0.00000000000E+00 0. -1.
</event>
<event>
 5    1  0.2295577E-004  0.9118800E+02  0.7818608E-02  0.1130116E+00
         25   -1    0    0    0    0  0.00000000000E+00  0.00000000000E+00  0.99999998245E-14  0.12500000000E+03  0.12500000000E+03 0.  0.
        -13    1    3    3    0    0  0.41417524345E+01 -0.36894766725E+02 -0.67987941280E+01  0.37744041788E+02  0.10566000000E+00 0.  1.
         23    2    1    0    0    0 -0.23809619360E+02  0.63269821947E+01 -0.22580319643E+02  0.91581449568E+02  0.85266420073E+02 0.  0.
         13    1    3    3    0    0 -0.27951371794E+02  0.43221748919E+02 -0.15781525515E+02  0.53837407780E+02  0.10566000000E+00 0. -1.
         22    1    1    0    0    0  0.23809619360E+02 -0.63269821947E+01  0.22580319643E+02  0.33418550432E+02  0.00000000000E+00 0. -1.
</event>
<event>
 5    1  0.2295577E-004  0.9118800E+02  0.7818608E-02  0.1130116E+00
         25   -1    0    0    0    0  0.00000000000E+00  0.00000000000E+00  0.99999998245E-14  0.12500000000E+03  0.12500000000E+03 0.  0.
        -13    1    3    3    0    0 -0.13349568677E+02 -0.12778875576E+02 -0.35820697771E+02  0.40306875315E+02  0.10566000000E+00 0.  1.
         23    2    1    0    0    0  0.88955502198E+01 -0.23341942009E+02  0.14347538031E+02  0.96193248742E+02  0.91778604182E+02 0.  0.
         13    1    3    3    0    0  0.22245118897E+02 -0.10563066434E+02  0.50168235803E+02  0.55886373427E+02  0.10566000000E+00 0. -1.
         22    1    1    0    0    0 -0.88955502198E+01  0.23341942009E+02 -0.14347538031E+02  0.28806751258E+02  0.00000000000E+00 0. -1.
</event>
<event>
 5    1  0.2295577E-004  0.9118800E+02  0.7818608E-02  0.1130116E+00
         25   -1    0    0    0    0  0.00000000000E+00  0.00000000000E+00  0.99999998245E-14  0.12500000000E+03  0.12500000000E+03 0.  0.
        -13    1    3    3    0    0 -0.23968706141E+01  0.51965040582E+02 -0.14684418186E+02  0.54053249051E+02  0.10566000000E+00 0.  1.
         23    2    1    0    0    0  0.13782020302E+02  0.16414298902E+02 -0.22542112477E+02  0.93895014435E+02  0.88593191662E+02 0.  0.
         13    1    3    3    0    0  0.16178890916E+02 -0.35550741681E+02 -0.78576942909E+01  0.39841765384E+02  0.10566000000E+00 0. -1.
         22    1    1    0    0    0 -0.13782020302E+02 -0.16414298902E+02  0.22542112477E+02  0.31104985565E+02  0.00000000000E+00 0.  1.
</event>
<event>
 5    1  0.2295577E-004  0.9118800E+02  0.7818608E-02  0.1130116E+00
         25   -1    0    0    0    0  0.00000000000E+00  0.00000000000E+00  0.99999998245E-14  0.12500000000E+03  0.12500000000E+03 0.  0.
        -13    1    3    3    0    0 -0.44861586213E+02  0.26575188793E+02  0.31303420183E+02  0.60817085232E+02  0.10566000000E+00 0.  1.
         23    2    1    0    0    0 -0.13414528317E+02  0.11778853268E+02  0.21752721884E+02  0.96859782097E+02  0.92681959001E+02 0.  0.
         13    1    3    3    0    0  0.31447057896E+02 -0.14796335525E+02 -0.95506982995E+01  0.36042696865E+02  0.10566000000E+00 0. -1.
         22    1    1    0    0    0  0.13414528317E+02 -0.11778853268E+02 -0.21752721884E+02  0.28140217903E+02  0.00000000000E+00 0.  1.
</event>
<event>
 5    1  0.2295577E-004  0.9118800E+02  0.7818608E-02  0.1130116E+00
         25   -1    0    0    0    0  0.00000000000E+00  0.00000000000E+00  0.99999998245E-14  0.12500000000E+03  0.12500000000E+03 0.  0.
        -13    1    3    3    0    0 -0.49265957187E+02  0.31231578799E+02 -0.17307692665E+02  0.60844995203E+02  0.10566000000E+00 0.  1.
         23    2    1    0    0    0 -0.25292453801E+02  0.76656898721E+01 -0.15163872734E+02  0.94530112294E+02  0.89484792415E+02 0.  0.
         13    1    3    3    0    0  0.23973503386E+02 -0.23565888927E+02  0.21438199308E+01  0.33685117091E+02  0.10566000000E+00 0. -1.
         22    1    1    0    0    0  0.25292453801E+02 -0.76656898721E+01  0.15163872734E+02  0.30469887706E+02  0.00000000000E+00 0.  1.
</event>
<event>
 5    1  0.2295577E-004  0.9118800E+02  0.7818608E-02  0.1130116E+00
         25   -1    0    0    0    0  0.00000000000E+00  0.00000000000E+00  0.99999998245E-14  0.12500000000E+03  0.12500000000E+03 0.  0.
        -13    1    3    3    0    0 -0.17584504048E+02 -0.16495328833E+02 -0.57544594276E+02  0.62391523065E+02  0.10566000000E+00 0.  1.
         23    2    1    0    0    0 -0.66255480372E+01 -0.59826302804E+01 -0.28011991095E+02  0.95599976242E+02  0.90966994346E+02 0.  0.
         13    1    3    3    0    0  0.10958956011E+02  0.10512698552E+02  0.29532603181E+02  0.33208453177E+02  0.10566000000E+00 0. -1.
         22    1    1    0    0    0  0.66255480372E+01  0.59826302804E+01  0.28011991095E+02  0.29400023758E+02  0.00000000000E+00 0.  1.
</event>
<event>
 5    1  0.2295577E-004  0.9118800E+02  0.7818608E-02  0.1130116E+00
         25   -1    0    0    0    0  0.00000000000E+00  0.00000000000E+00  0.99999998245E-14  0.12500000000E+03  0.12500000000E+03 0.  0.
        -13    1    3    3    0    0  0.36648536354E+02 -0.19469441682E+02 -0.12832481401E+02  0.43437980147E+02  0.10566000000E+00 0.  1.
         23    2    1    0    0    0  0.56324991704E+01  0.19314973256E+02 -0.23326113279E+02  0.94195766533E+02  0.89016524495E+02 0.  0.
         13    1    3    3    0    0 -0.31016037184E+02  0.38784414939E+02 -0.10493631878E+02  0.50757786385E+02  0.10566000000E+00 0. -1.
         22    1    1    0    0    0 -0.56324991704E+01 -0.19314973256E+02  0.23326113279E+02  0.30804233467E+02  0.00000000000E+00 0. -1.
</event>
<event>
 5    1  0.2295577E-004  0.9118800E+02  0.7818608E-02  0.1130116E+00
         25   -1    0    0    0    0  0.00000000000E+00  0.00000000000E+00  0.99999998245E-14  0.12500000000E+03  0.12500000000E+03 0.  0.
        -13    1    3    3    0    0 -0.33343848472E+02 -0.22586257884E+02 -0.35340726806E+01  0.40428357744E+02  0.10566000000E+00 0.  1.
         23    2    1    0    0    0  0.89753352168E+01  0.58821485398E+00 -0.28754563679E+02  0.94871482424E+02  0.89960383537E+02 0.  0.
         13    1    3    3    0    0  0.42319183689E+02  0.23174472738E+02 -0.25220490998E+02  0.54443124680E+02  0.10566000000E+00 0. -1.
         22    1    1    0    0    0 -0.89753352168E+01 -0.58821485398E+00  0.28754563679E+02  0.30128517576E+02  0.00000000000E+00 0. -1.
</event>
<event>
 5    1  0.2295577E-004  0.9118800E+02  0.7818608E-02  0.1130116E+00
         25   -1    0    0    0    0  0.00000000000E+00  0.00000000000E+00  0.99999998245E-14  0.12500000000E+03  0.12500000000E+03 0.  0.
        -13    1    3    3    0    0 -0.11906171174E+02  0.58902061515E+00 -0.61272728414E+02  0.62421649038E+02  0.10566000000E+00 0.  1.
         23    2    1    0    0    0 -0.42587677773E+01 -0.16635491433E+01 -0.27483059407E+02  0.97139220164E+02  0.93058073486E+02 0.  0.
         13    1    3    3    0    0  0.76474033964E+01 -0.22525697584E+01  0.33789669007E+02  0.34717571126E+02  0.10566000000E+00 0. -1.
         22    1    1    0    0    0  0.42587677773E+01  0.16635491433E+01  0.27483059407E+02  0.27860779836E+02  0.00000000000E+00 0.  1.
</event>
<event>
 5    1  0.2295577E-004  0.9118800E+02  0.7818608E-02  0.1130116E+00
         25   -1    0    0    0    0  0.00000000000E+00  0.00000000000E+00  0.99999998245E-14  0.12500000000E+03  0.12500000000E+03 0.  0.
        -13    1    3    3    0    0 -0.26049462230E+02 -0.42958515103E+02  0.92502332818E+01  0.51084111837E+02  0.10566000000E+00 0. -1.
         23    2    1    0    0    0  0.14213198044E+02 -0.24668373461E+02 -0.11265465659E+01  0.96507671997E+02  0.92205845798E+02 0.  0.
         13    1    3    3    0    0  0.40262660274E+02  0.18290141642E+02 -0.10376779848E+02  0.45423560161E+02  0.10566000000E+00 0.  1.
         22    1    1    0    0    0 -0.14213198044E+02  0.24668373461E+02  0.11265465659E+01  0.28492328003E+02  0.00000000000E+00 0.  1.
</event>
<event>
 5    1  0.2295577E-004  0.9118800E+02  0.7818608E-02  0.1130116E+00
         25   -1    0    0    0    0  0.00000000000E+00  0.00000000000E+00  0.99999998245E-14  0.12500000000E+03  0.12500000000E+03 0.  0.
        -13    1    3    3    0    0  0.18995660498E+02 -0.50916797753E+02 -0.16738814855E+02  0.56864351733E+02  0.10566000000E+00 0.  1.
         23    2    1    0    0    0  0.15608333295E+02 -0.23543450010E+02  0.97608301618E+01  0.95113750452E+02  0.90296387596E+02 0.  0.
         13    1    3    3    0    0 -0.33873272028E+01  0.27373347744E+02  0.26499645017E+02  0.38249398719E+02  0.10566000000E+00 0. -1.
         22    1    1    0    0    0 -0.15608333295E+02  0.23543450010E+02 -0.97608301618E+01  0.29886249548E+02  0.00000000000E+00 0.  1.
</event>
<event>
 5    1  0.2295577E-004  0.9118800E+02  0.7818608E-02  0.1130116E+00
         25   -1    0    0    0    0  0.00000000000E+00  0.00000000000E+00  0.99999998245E-14  0.12500000000E+03  0.12500000000E+03 0.  0.
        -13    1    3    3    0    0 -0.47604790401E+02 -0.34331974671E+02 -0.75080904449E+01  0.59171641350E+02  0.10566000000E+00 0.  1.
         23    2    1    0    0    0 -0.14640277910E+02 -0.20968680890E+02 -0.14758126907E+02  0.95473306563E+02  0.90792767557E+02 0.  0.
         13    1    3    3    0    0  0.32964512491E+02  0.13363293781E+02 -0.72500364624E+01  0.36301665212E+02  0.10566000000E+00 0. -1.
         22    1    1    0    0    0  0.14640277910E+02  0.20968680890E+02  0.14758126907E+02  0.29526693437E+02  0.00000000000E+00 0.  1.
</event>
<event>
 5    1  0.2295577E-004  0.9118800E+02  0.7818608E-02  0.1130116E+00
         25   -1    0    0    0    0  0.00000000000E+00  0.00000000000E+00  0.99999998245E-14  0.12500000000E+03  0.12500000000E+03 0.  0.
        -13    1    3    3    0    0 -0.82245982599E+01  0.57619103155E+02  0.21418226680E+02  0.62019002435E+02  0.10566000000E+00 0.  1.
         23    2    1    0    0    0 -0.12260163654E-01  0.27886818189E+02  0.61223214820E+01  0.96449035054E+02  0.92126319603E+02 0.  0.
         13    1    3    3    0    0  0.82123380963E+01 -0.29732284966E+02 -0.15295905198E+02  0.34430032619E+02  0.10566000000E+00 0. -1.
         22    1    1    0    0    0  0.12260163654E-01 -0.27886818189E+02 -0.61223214820E+01  0.28550964946E+02  0.00000000000E+00 0.  1.
</event>
<event>
 5    1  0.2295577E-004  0.9118800E+02  0.7818608E-02  0.1130116E+00
         25   -1    0    0    0    0  0.00000000000E+00  0.00000000000E+00  0.99999998245E-14  0.12500000000E+03  0.12500000000E+03 0.  0.
        -13    1    3    3    0    0  0.15087640905E+02  0.34100710498E+02 -0.32081482458E+01  0.37427246008E+02  0.10566000000E+00 0.  1.
         23    2    1    0    0    0  0.18810748457E+02 -0.19194344887E+02  0.15430460386E+02  0.94010223607E+02  0.88755596454E+02 0.  0.
         13    1    3    3    0    0  0.37231075527E+01 -0.53295055384E+02  0.18638608631E+02  0.56582977600E+02  0.10566000000E+00 0. -1.
         22    1    1    0    0    0 -0.18810748457E+02  0.19194344887E+02 -0.15430460386E+02  0.30989776393E+02  0.00000000000E+00 0. -1.
</event>
<event>
 5    1  0.2295577E-004  0.9118800E+02  0.7818608E-02  0.1130116E+00
         25   -1    0    0    0    0  0.00000000000E+00  0.00000000000E+00  0.99999998245E-14  0.12500000000E+03  0.12500000000E+03 0.  0.
        -13    1    3    3    0    0  0.24621367315E+02  0.31932947020E+02  0.14701708953E+01  0.40349688975E+02  0.10566000000E+00 0.  1.
         23    2    1    0    0    0 -0.21858944101E+02  0.11874440685E+02 -0.17687081261E+02  0.94477080377E+02  0.89410682215E+02 0.  0.
         13    1    3    3    0    0 -0.46480311416E+02 -0.20058506335E+02 -0.19157252156E+02  0.54127391402E+02  0.10566000000E+00 0. -1.
         22    1    1    0    0    0  0.21858944101E+02 -0.11874440685E+02  0.17687081261E+02  0.30522919623E+02  0.00000000000E+00 0. -1.
</event>
<event>
 5    1  0.2295577E-004  0.9118800E+02  0.7818608E-02  0.1130116E+00
         25   -1    0    0    0    0  0.00000000000E+00  0.00000000000E+00  0.99999998245E-14  0.12500000000E+03  0.12500000000E+03 0.  0.
        -13    1    3    3    0    0 -0.17376899474E+02  0.44274910260E+02 -0.10866747102E+02  0.48788540360E+02  0.10566000000E+00 0.  1.
         23    2    1    0    0    0  0.63198151980E+01  0.11948610805E+02  0.21021576697E+02  0.10000768016E+03  0.96834498187E+02 0.  0.
         13    1    3    3    0    0  0.23696714672E+02 -0.32326299455E+02  0.31888323800E+02  0.51219139796E+02  0.10566000000E+00 0. -1.
         22    1    1    0    0    0 -0.63198151980E+01 -0.11948610805E+02 -0.21021576697E+02  0.24992319843E+02  0.00000000000E+00 0. -1.
</event>
<event>
 5    1  0.2295577E-004  0.9118800E+02  0.7818608E-02  0.1130116E+00
         25   -1    0    0    0    0  0.00000000000E+00  0.00000000000E+00  0.99999998245E-14  0.12500000000E+03  0.12500000000E+03 0.  0.
        -13    1    3    3    0    0 -0.11574358542E+01  0.20921045300E+02  0.25998785221E+02  0.33391283162E+02  0.10566000000E+00 0.  1.
         23    2    1    0    0    0  0.39220835179E+02  0.26552116624E+01  0.26287437153E+02  0.77709901531E+02  0.61664214766E+02 0.  0.
         13    1    3    3    0    0  0.40378271034E+02 -0.18265833638E+02  0.28865193162E+00  0.44318618369E+02  0.10566000000E+00 0. -1.
         22    1    1    0    0    0 -0.39220835179E+02 -0.26552116624E+01 -0.26287437153E+02  0.47290098469E+02  0.00000000000E+00 0. -1.
</event>
<event>
 5    1  0.2295577E-004  0.9118800E+02  0.7818608E-02  0.1130116E+00
         25   -1    0    0    0    0  0.00000000000E+00  0.00000000000E+00  0.99999998245E-14  0.12500000000E+03  0.12500000000E+03 0.  0.
        -13    1    3    3    0    0 -0.54226034290E+01 -0.14749988560E+02 -0.58657969508E+02  0.60726726746E+02  0.10566000000E+00 0.  1.
         23    2    1    0    0    0  0.48831250890E+01 -0.42079485422E+01 -0.39888534016E+02  0.84593974613E+02  0.74320210262E+02 0.  0.
         13    1    3    3    0    0  0.10305728518E+02  0.10542040018E+02  0.18769435492E+02  0.23867247867E+02  0.10566000000E+00 0. -1.
         22    1    1    0    0    0 -0.48831250890E+01  0.42079485422E+01  0.39888534016E+02  0.40406025387E+02  0.00000000000E+00 0.  1.
</event>
<event>
 5    1  0.2295577E-004  0.9118800E+02  0.7818608E-02  0.1130116E+00
         25   -1    0    0    0    0  0.00000000000E+00  0.00000000000E+00  0.99999998245E-14  0.12500000000E+03  0.12500000000E+03 0.  0.
        -13    1    3    3    0    0 -0.21281526234E+00 -0.60117021065E+02 -0.37438457554E+01  0.60233952694E+02  0.10566000000E+00 0.  1.
         23    2    1    0    0    0  0.58421655250E+01 -0.26170171995E+02 -0.11892923577E+02  0.95666564615E+02  0.91058449107E+02 0.  0.
         13    1    3    3    0    0  0.60549807873E+01  0.33946849071E+02 -0.81490778219E+01  0.35432611921E+02  0.10566000000E+00 0. -1.
         22    1    1    0    0    0 -0.58421655250E+01  0.26170171995E+02  0.11892923577E+02  0.29333435385E+02  0.00000000000E+00 0.  1.
</event>
<event>
 5    1  0.2295577E-004  0.9118800E+02  0.7818608E-02  0.1130116E+00
         25   -1    0    0    0    0  0.00000000000E+00  0.00000000000E+00  0.99999998245E-14  0.12500000000E+03  0.12500000000E+03 0.  0.
        -13    1    3    3    0    0  0.40507298572E+02  0.15660676423E+02 -0.30553707600E+02  0.53100265873E+02  0.10566000000E+00 0.  1.
         23    2    1    0    0    0  0.20612018865E+02  0.21062352057E+02  0.58677185046E+01  0.94951570485E+02  0.90071597195E+02 0.  0.
         13    1    3    3    0    0 -0.19895279706E+02  0.54016756338E+01  0.36421426105E+02  0.41851304612E+02  0.10566000000E+00 0. -1.
         22    1    1    0    0    0 -0.20612018865E+02 -0.21062352057E+02 -0.58677185046E+01  0.30048429515E+02  0.00000000000E+00 0.  1.
</event>
<event>
 5    1  0.2295577E-004  0.9118800E+02  0.7818608E-02  0.1130116E+00
         25   -1    0    0    0    0  0.00000000000E+00  0.00000000000E+00  0.99999998245E-14  0.12500000000E+03  0.12500000000E+03 0.  0.
        -13    1    3    3    0    0  0.35104989924E+02  0.25733193678E+02  0.11496964703E+02  0.45019428427E+02  0.10566000000E+00 0.  1.
         23    2    1    0    0    0  0.22948115806E+02  0.10922321175E+02 -0.26937560260E+02  0.87965620409E+02  0.79789755623E+02 0.  0.
         13    1    3    3    0    0 -0.12156874118E+02 -0.14810872503E+02 -0.38434524963E+02  0.42946191982E+02  0.10566000000E+00 0. -1.
         22    1    1    0    0    0 -0.22948115806E+02 -0.10922321175E+02  0.26937560260E+02  0.37034379591E+02  0.00000000000E+00 0.  1.
</event>
<event>
 5    1  0.2295577E-004  0.9118800E+02  0.7818608E-02  0.1130116E+00
         25   -1    0    0    0    0  0.00000000000E+00  0.00000000000E+00  0.99999998245E-14  0.12500000000E+03  0.12500000000E+03 0.  0.
        -13    1    3    3    0    0 -0.29337468451E+02 -0.32256017952E+01  0.26806309278E+02  0.39870803142E+02  0.10566000000E+00 0. -1.
         23    2    1    0    0    0  0.75462079859E+01 -0.25732728053E+02 -0.97471476439E+01  0.96467116599E+02  0.92150849967E+02 0.  0.
         13    1    3    3    0    0  0.36883676437E+02 -0.22507126257E+02 -0.36553456922E+02  0.56596313456E+02  0.10566000000E+00 0.  1.
         22    1    1    0    0    0 -0.75462079859E+01  0.25732728053E+02  0.97471476439E+01  0.28532883401E+02  0.00000000000E+00 0.  1.
</event>
<event>
 5    1  0.2295577E-004  0.9118800E+02  0.7818608E-02  0.1130116E+00
         25   -1    0    0    0    0  0.00000000000E+00  0.00000000000E+00  0.99999998245E-14  0.12500000000E+03  0.12500000000E+03 0.  0.
        -13    1    3    3    0    0  0.10584251130E+01 -0.19787372978E+02  0.28130076880E+02  0.34408905568E+02  0.10566000000E+00 0.  1.
         23    2    1    0    0    0 -0.12988437536E+02  0.54169679897E+01 -0.25821928150E+02  0.95592262494E+02  0.90956394077E+02 0.  0.
         13    1    3    3    0    0 -0.14046862649E+02  0.25204340968E+02 -0.53952005030E+02  0.61183356926E+02  0.10566000000E+00 0. -1.
         22    1    1    0    0    0  0.12988437536E+02 -0.54169679897E+01  0.25821928150E+02  0.29407737506E+02  0.00000000000E+00 0. -1.
</event>
<event>
 5    1  0.2295577E-004  0.9118800E+02  0.7818608E-02  0.1130116E+00
         25   -1    0    0    0    0  0.00000000000E+00  0.00000000000E+00  0.99999998245E-14  0.12500000000E+03  0.12500000000E+03 0.  0.
        -13    1    3    3    0    0  0.55125395156E+02 -0.22909960530E+02 -0.83611388949E+01  0.60279310632E+02  0.10566000000E+00 0.  1.
         23    2    1    0    0    0  0.26569027786E+02 -0.58931284636E+01  0.70003774489E+01  0.96899333015E+02  0.92735285915E+02 0.  0.
         13    1    3    3    0    0 -0.28556367370E+02  0.17016832066E+02  0.15361516344E+02  0.36620022383E+02  0.10566000000E+00 0. -1.
         22    1    1    0    0    0 -0.26569027786E+02  0.58931284636E+01 -0.70003774489E+01  0.28100666985E+02  0.00000000000E+00 0.  1.
</event>
<event>
 5    1  0.2295577E-004  0.9118800E+02  0.7818608E-02  0.1130116E+00
         25   -1    0    0    0    0  0.00000000000E+00  0.00000000000E+00  0.99999998245E-14  0.12500000000E+03  0.12500000000E+03 0.  0.
        -13    1    3    3    0    0  0.26721899152E+02 -0.83349604180E+01  0.20753243125E+02  0.34845942715E+02  0.10566000000E+00 0.  1.
         23    2    1    0    0    0 -0.20416364984E+02 -0.68746119442E+01 -0.18807575244E+02  0.96402567684E+02  0.92063249567E+02 0.  0.
         13    1    3    3    0    0 -0.47138264136E+02  0.14603484738E+01 -0.39560818369E+02  0.61556624968E+02  0.10566000000E+00 0. -1.
         22    1    1    0    0    0  0.20416364984E+02  0.68746119442E+01  0.18807575244E+02  0.28597432316E+02  0.00000000000E+00 0. -1.
</event>
<event>
 5    1  0.2295577E-004  0.9118800E+02  0.7818608E-02  0.1130116E+00
         25   -1    0    0    0    0  0.00000000000E+00  0.00000000000E+00  0.99999998245E-14  0.12500000000E+03  0.12500000000E+03 0.  0.
        -13    1    3    3    0    0 -0.18482357894E+02  0.14217186663E+02 -0.34544490630E+02  0.41678039144E+02  0.10566000000E+00 0. -1.
         23    2    1    0    0    0 -0.25618971116E+01 -0.26779348914E+02  0.77962288571E+00  0.98087091259E+02  0.94322705722E+02 0.  0.
         13    1    3    3    0    0  0.15920460783E+02 -0.40996535577E+02  0.35324113516E+02  0.56409052115E+02  0.10566000000E+00 0.  1.
         22    1    1    0    0    0  0.25618971116E+01  0.26779348914E+02 -0.77962288571E+00  0.26912908741E+02  0.00000000000E+00 0. -1.
</event>
<event>
 5    1  0.2295577E-004  0.9118800E+02  0.7818608E-02  0.1130116E+00
         25   -1    0    0    0    0  0.00000000000E+00  0.00000000000E+00  0.99999998245E-14  0.12500000000E+03  0.12500000000E+03 0.  0.
        -13    1    3    3    0    0 -0.11325583289E+02  0.51607024999E+02  0.19747898954E+02  0.56405181883E+02  0.10566000000E+00 0. -1.
         23    2    1    0    0    0 -0.56121379548E+01  0.13371492439E+02  0.25670747225E+02  0.95516442454E+02  0.90852135987E+02 0.  0.
         13    1    3    3    0    0  0.57134453341E+01 -0.38235532561E+02  0.59228482712E+01  0.39111260571E+02  0.10566000000E+00 0.  1.
         22    1    1    0    0    0  0.56121379548E+01 -0.13371492439E+02 -0.25670747225E+02  0.29483557546E+02  0.00000000000E+00 0. -1.
</event>
<event>
 5    1  0.2295577E-004  0.9118800E+02  0.7818608E-02  0.1130116E+00
         25   -1    0    0    0    0  0.00000000000E+00  0.00000000000E+00  0.99999998245E-14  0.12500000000E+03  0.12500000000E+03 0.  0.
        -13    1    3    3    0    0 -0.29228144450E+02 -0.22760821974E+02  0.61194772559E+00  0.37050304844E+02  0.10566000000E+00 0. -1.
         23    2    1    0    0    0 -0.12998875231E+01  0.27920697263E+02  0.92490158543E+01  0.95558543896E+02  0.90910043307E+02 0.  0.
         13    1    3    3    0    0  0.27928256927E+02  0.50681519237E+02  0.86370681288E+01  0.58508239053E+02  0.10566000000E+00 0.  1.
         22    1    1    0    0    0  0.12998875231E+01 -0.27920697263E+02 -0.92490158543E+01  0.29441456104E+02  0.00000000000E+00 0.  1.
</event>
<event>
 5    1  0.2295577E-004  0.9118800E+02  0.7818608E-02  0.1130116E+00
         25   -1    0    0    0    0  0.00000000000E+00  0.00000000000E+00  0.99999998245E-14  0.12500000000E+03  0.12500000000E+03 0.  0.
        -13    1    3    3    0    0 -0.24372272376E+02 -0.22686740735E+02 -0.39849249346E+02  0.51929468546E+02  0.10566000000E+00 0.  1.
         23    2    1    0    0    0  0.13463709628E+02 -0.18629222398E+02 -0.17969048395E+02  0.95824563340E+02  0.91275083319E+02 0.  0.
         13    1    3    3    0    0  0.37835982004E+02  0.40575183371E+01  0.21880200952E+02  0.43895094794E+02  0.10566000000E+00 0. -1.
         22    1    1    0    0    0 -0.13463709628E+02  0.18629222398E+02  0.17969048395E+02  0.29175436660E+02  0.00000000000E+00 0.  1.
</event>
<event>
 5    1  0.2295577E-004  0.9118800E+02  0.7818608E-02  0.1130116E+00
         25   -1    0    0    0    0  0.00000000000E+00  0.00000000000E+00  0.99999998245E-14  0.12500000000E+03  0.12500000000E+03 0.  0.
        -13    1    3    3    0    0  0.31089498315E+02  0.36948600228E+02 -0.20959599477E+02  0.52640972052E+02  0.10566000000E+00 0.  1.
         23    2    1    0    0    0  0.26009003169E+02 -0.54054275191E+01 -0.91547219944E+01  0.96902031616E+02  0.92738923349E+02 0.  0.
         13    1    3    3    0    0 -0.50804951457E+01 -0.42354027747E+02  0.11804877482E+02  0.44261059564E+02  0.10566000000E+00 0. -1.
         22    1    1    0    0    0 -0.26009003169E+02  0.54054275191E+01  0.91547219944E+01  0.28097968384E+02  0.00000000000E+00 0.  1.
</event>
<event>
 5    1  0.2295577E-004  0.9118800E+02  0.7818608E-02  0.1130116E+00
         25   -1    0    0    0    0  0.00000000000E+00  0.00000000000E+00  0.99999998245E-14  0.12500000000E+03  0.12500000000E+03 0.  0.
        -13    1    3    3    0    0 -0.27300293432E+02  0.50102380677E+02 -0.22215868595E+02  0.61229980830E+02  0.10566000000E+00 0. -1.
         23    2    1    0    0    0 -0.22100209025E+02  0.22585806936E+02 -0.14184812751E+02  0.90362638284E+02  0.83460527023E+02 0.  0.
         13    1    3    3    0    0  0.52000844074E+01 -0.27516573741E+02  0.80310558439E+01  0.29132657454E+02  0.10566000000E+00 0.  1.
         22    1    1    0    0    0  0.22100209025E+02 -0.22585806936E+02  0.14184812751E+02  0.34637361716E+02  0.00000000000E+00 0. -1.
</event>
<event>
 5    1  0.2295577E-004  0.9118800E+02  0.7818608E-02  0.1130116E+00
         25   -1    0    0    0    0  0.00000000000E+00  0.00000000000E+00  0.99999998245E-14  0.12500000000E+03  0.12500000000E+03 0.  0.
        -13    1    3    3    0    0 -0.40852340105E+01  0.12353241453E+02  0.40597736169E+02  0.42631901874E+02  0.10566000000E+00 0.  1.
         23    2    1    0    0    0 -0.29150424486E+02 -0.72428510093E+01 -0.93265835809E+00  0.94948777229E+02  0.90067720673E+02 0.  0.
         13    1    3    3    0    0 -0.25065190475E+02 -0.19596092462E+02 -0.41530394527E+02  0.52316875355E+02  0.10566000000E+00 0. -1.
         22    1    1    0    0    0  0.29150424486E+02  0.72428510093E+01  0.93265835809E+00  0.30051222771E+02  0.00000000000E+00 0.  1.
</event>
<event>
 5    1  0.2295577E-004  0.9118800E+02  0.7818608E-02  0.1130116E+00
         25   -1    0    0    0    0  0.00000000000E+00  0.00000000000E+00  0.99999998245E-14  0.12500000000E+03  0.12500000000E+03 0.  0.
        -13    1    3    3    0    0  0.47031431877E+02  0.22635765857E+02  0.18053912036E+02  0.55229415932E+02  0.10566000000E+00 0.  1.
         23    2    1    0    0    0  0.20151287692E+02 -0.83735655585E+01  0.18683750485E+02  0.96272425651E+02  0.91886377732E+02 0.  0.
         13    1    3    3    0    0 -0.26880144186E+02 -0.31009331416E+02  0.62983844912E+00  0.41043009719E+02  0.10566000000E+00 0. -1.
         22    1    1    0    0    0 -0.20151287692E+02  0.83735655585E+01 -0.18683750485E+02  0.28727574349E+02  0.00000000000E+00 0.  1.
</event>
<event>
 5    1  0.2295577E-004  0.9118800E+02  0.7818608E-02  0.1130116E+00
         25   -1    0    0    0    0  0.00000000000E+00  0.00000000000E+00  0.99999998245E-14  0.12500000000E+03  0.12500000000E+03 0.  0.
        -13    1    3    3    0    0  0.22399317747E+02  0.24926088443E+02  0.13728440497E+02  0.36214921829E+02  0.10566000000E+00 0. -1.
         23    2    1    0    0    0 -0.30385439000E+02  0.29841259833E+01  0.38349934690E+01  0.94228469553E+02  0.89062435338E+02 0.  0.
         13    1    3    3    0    0 -0.52784756747E+02 -0.21941962460E+02 -0.98934470276E+01  0.58013547724E+02  0.10566000000E+00 0.  1.
         22    1    1    0    0    0  0.30385439000E+02 -0.29841259833E+01 -0.38349934690E+01  0.30771530447E+02  0.00000000000E+00 0.  1.
</event>
<event>
 5    1  0.2295577E-004  0.9118800E+02  0.7818608E-02  0.1130116E+00
         25   -1    0    0    0    0  0.00000000000E+00  0.00000000000E+00  0.99999998245E-14  0.12500000000E+03  0.12500000000E+03 0.  0.
        -13    1    3    3    0    0  0.22479354293E+01 -0.29697615398E+02  0.10767847051E+02  0.31669532175E+02  0.10566000000E+00 0.  1.
         23    2    1    0    0    0 -0.66060189053E+01  0.19459594133E+02 -0.24654925451E+02  0.92903572806E+02  0.87183101583E+02 0.  0.
         13    1    3    3    0    0 -0.88539543346E+01  0.49157209531E+02 -0.35422772503E+02  0.61234040631E+02  0.10566000000E+00 0. -1.
         22    1    1    0    0    0  0.66060189053E+01 -0.19459594133E+02  0.24654925451E+02  0.32096427194E+02  0.00000000000E+00 0. -1.
</event>
<event>
 5    1  0.2295577E-004  0.9118800E+02  0.7818608E-02  0.1130116E+00
         25   -1    0    0    0    0  0.00000000000E+00  0.00000000000E+00  0.99999998245E-14  0.12500000000E+03  0.12500000000E+03 0.  0.
        -13    1    3    3    0    0  0.30131767889E+02 -0.11184587516E+02  0.21826418261E+02  0.38851282246E+02  0.10566000000E+00 0.  1.
         23    2    1    0    0    0  0.81721802384E+01 -0.91971654737E+01 -0.28588112472E+02  0.93876816402E+02  0.88567511540E+02 0.  0.
         13    1    3    3    0    0 -0.21959587650E+02  0.19874220428E+01 -0.50414530732E+02  0.55025534156E+02  0.10566000000E+00 0. -1.
         22    1    1    0    0    0 -0.81721802384E+01  0.91971654737E+01  0.28588112472E+02  0.31123183598E+02  0.00000000000E+00 0. -1.
</event>
<event>
 5    1  0.2295577E-004  0.9118800E+02  0.7818608E-02  0.1130116E+00
         25   -1    0    0    0    0  0.00000000000E+00  0.00000000000E+00  0.99999998245E-14  0.12500000000E+03  0.12500000000E+03 0.  0.
        -13    1    3    3    0    0  0.39294133339E+02  0.77948482817E+01 -0.17738657601E+02  0.43811639003E+02  0.10566000000E+00 0. -1.
         23    2    1    0    0    0 -0.16498779962E+02 -0.10856409114E+02 -0.90398428694E+01  0.10327926985E+03  0.10096938874E+03 0.  0.
         13    1    3    3    0    0 -0.55792913301E+02 -0.18651257395E+02  0.86988147316E+01  0.59467630849E+02  0.10566000000E+00 0.  1.
         22    1    1    0    0    0  0.16498779962E+02  0.10856409114E+02  0.90398428694E+01  0.21720730148E+02  0.00000000000E+00 0.  1.
</event>
<event>
 5    1  0.2295577E-004  0.9118800E+02  0.7818608E-02  0.1130116E+00
         25   -1    0    0    0    0  0.00000000000E+00  0.00000000000E+00  0.99999998245E-14  0.12500000000E+03  0.12500000000E+03 0.  0.
        -13    1    3    3    0    0 -0.33355721756E+02 -0.87272028127E+01  0.12563328193E+02  0.36696275317E+02  0.10566000000E+00 0.  1.
         23    2    1    0    0    0  0.93995681852E+01  0.21832313392E+00 -0.27481074571E+02  0.95955051960E+02  0.91453611137E+02 0.  0.
         13    1    3    3    0    0  0.42755289941E+02  0.89455259466E+01 -0.40044402764E+02  0.59258776643E+02  0.10566000000E+00 0. -1.
         22    1    1    0    0    0 -0.93995681852E+01 -0.21832313392E+00  0.27481074571E+02  0.29044948040E+02  0.00000000000E+00 0. -1.
</event>
<event>
 5    1  0.2295577E-004  0.9118800E+02  0.7818608E-02  0.1130116E+00
         25   -1    0    0    0    0  0.00000000000E+00  0.00000000000E+00  0.99999998245E-14  0.12500000000E+03  0.12500000000E+03 0.  0.
        -13    1    3    3    0    0 -0.27776572297E+02 -0.42804927812E+02  0.82563459031E+01  0.51691181310E+02  0.10566000000E+00 0. -1.
         23    2    1    0    0    0 -0.28386450678E+02 -0.29108096647E+00  0.11583952435E+02  0.94339548858E+02  0.89218200018E+02 0.  0.
         13    1    3    3    0    0 -0.60987838072E+00  0.42513846845E+02  0.33276065318E+01  0.42648367548E+02  0.10566000000E+00 0.  1.
         22    1    1    0    0    0  0.28386450678E+02  0.29108096647E+00 -0.11583952435E+02  0.30660451142E+02  0.00000000000E+00 0. -1.
</event>
<event>
 4    1  0.2295577E-004  0.9118800E+02  0.7818608E-02  0.1130116E+00
         25   -1    0    0    0    0  0.00000000000E+00  0.00000000000E+00  0.99999998245E-14  0.12500000000E+03  0.12500000000E+03 0.  0.
        -13    1    1    0    0    0  0.35803703406E+02 -0.37330459262E+01 -0.26278120251E+02  0.44568953066E+02  0.10566000000E+00 0. -1.
         13    1    1    0    0    0  0.15689776656E+01 -0.20924645754E+02 -0.95808476042E+01  0.23067429325E+02  0.10566000000E+00 0.  1.
         22    1    1    0    0    0 -0.37372681072E+02  0.24657691680E+02  0.35858967855E+02  0.57363617608E+02  0.00000000000E+00 0.  1.
</event>
<event>
 5    1  0.2295577E-004  0.9118800E+02  0.7818608E-02  0.1130116E+00
         25   -1    0    0    0    0  0.00000000000E+00  0.00000000000E+00  0.99999998245E-14  0.12500000000E+03  0.12500000000E+03 0.  0.
        -13    1    3    3    0    0  0.11428636484E+02 -0.40449087438E+02 -0.32298325565E+02  0.53008823839E+02  0.10566000000E+00 0.  1.
         23    2    1    0    0    0 -0.16588244509E+02 -0.24877141291E+02 -0.59243583457E+01  0.94518201554E+02  0.89468152929E+02 0.  0.
         13    1    3    3    0    0 -0.28016880993E+02  0.15571946147E+02  0.26373967219E+02  0.41509377715E+02  0.10566000000E+00 0. -1.
         22    1    1    0    0    0  0.16588244509E+02  0.24877141291E+02  0.59243583457E+01  0.30481798446E+02  0.00000000000E+00 0.  1.
</event>
<event>
 5    1  0.2295577E-004  0.9118800E+02  0.7818608E-02  0.1130116E+00
         25   -1    0    0    0    0  0.00000000000E+00  0.00000000000E+00  0.99999998245E-14  0.12500000000E+03  0.12500000000E+03 0.  0.
        -13    1    3    3    0    0  0.15397255251E+02 -0.35225839100E+02 -0.34231666330E+02  0.51475755005E+02  0.10566000000E+00 0. -1.
         23    2    1    0    0    0 -0.14304033499E+01 -0.28250637512E+02  0.63948547864E+01  0.95999332054E+02  0.91514113740E+02 0.  0.
         13    1    3    3    0    0 -0.16827658601E+02  0.69752015883E+01  0.40626521116E+02  0.44523577049E+02  0.10566000000E+00 0.  1.
         22    1    1    0    0    0  0.14304033499E+01  0.28250637512E+02 -0.63948547864E+01  0.29000667946E+02  0.00000000000E+00 0.  1.
</event>
<event>
 5    1  0.2295577E-004  0.9118800E+02  0.7818608E-02  0.1130116E+00
         25   -1    0    0    0    0  0.00000000000E+00  0.00000000000E+00  0.99999998245E-14  0.12500000000E+03  0.12500000000E+03 0.  0.
        -13    1    3    3    0    0 -0.32921438246E+02 -0.45369550354E+02  0.17601216535E+02  0.58753988657E+02  0.10566000000E+00 0.  1.
         23    2    1    0    0    0 -0.11602437413E+02 -0.23550399314E+02 -0.68709031328E+01  0.97862439837E+02  0.94024517862E+02 0.  0.
         13    1    3    3    0    0  0.21319000833E+02  0.21819151040E+02 -0.24472119668E+02  0.39108451180E+02  0.10566000000E+00 0. -1.
         22    1    1    0    0    0  0.11602437413E+02  0.23550399314E+02  0.68709031328E+01  0.27137560163E+02  0.00000000000E+00 0.  1.
</event>
<event>
 5    1  0.2295577E-004  0.9118800E+02  0.7818608E-02  0.1130116E+00
         25   -1    0    0    0    0  0.00000000000E+00  0.00000000000E+00  0.99999998245E-14  0.12500000000E+03  0.12500000000E+03 0.  0.
        -13    1    3    3    0    0 -0.16755587819E+02 -0.40343665933E+02  0.40617673695E+02  0.59650378745E+02  0.10566000000E+00 0.  1.
         23    2    1    0    0    0 -0.16232910339E+02 -0.22839011859E+02  0.93993237732E+01  0.95445387362E+02  0.90754321332E+02 0.  0.
         13    1    3    3    0    0  0.52267747921E+00  0.17504654074E+02 -0.31218349921E+02  0.35795008616E+02  0.10566000000E+00 0. -1.
         22    1    1    0    0    0  0.16232910339E+02  0.22839011859E+02 -0.93993237732E+01  0.29554612638E+02  0.00000000000E+00 0.  1.
</event>
<event>
 5    1  0.2295577E-004  0.9118800E+02  0.7818608E-02  0.1130116E+00
         25   -1    0    0    0    0  0.00000000000E+00  0.00000000000E+00  0.99999998245E-14  0.12500000000E+03  0.12500000000E+03 0.  0.
        -13    1    3    3    0    0 -0.16468718303E+02 -0.17498403360E+02  0.26651887460E+02  0.35885192934E+02  0.10566000000E+00 0. -1.
         23    2    1    0    0    0  0.26540543308E+02 -0.14890358689E+02 -0.10529128801E+02  0.92797736504E+02  0.87031225005E+02 0.  0.
         13    1    3    3    0    0  0.43009261611E+02  0.26080446702E+01 -0.37181016261E+02  0.56912543570E+02  0.10566000000E+00 0.  1.
         22    1    1    0    0    0 -0.26540543308E+02  0.14890358689E+02  0.10529128801E+02  0.32202263496E+02  0.00000000000E+00 0.  1.
</event>
<event>
 5    1  0.2295577E-004  0.9118800E+02  0.7818608E-02  0.1130116E+00
         25   -1    0    0    0    0  0.00000000000E+00  0.00000000000E+00  0.99999998245E-14  0.12500000000E+03  0.12500000000E+03 0.  0.
        -13    1    3    3    0    0 -0.27614264836E+02 -0.24058261218E+02  0.49526801990E+02  0.61597587897E+02  0.10566000000E+00 0. -1.
         23    2    1    0    0    0 -0.19182122563E+02 -0.72024100499E+01  0.22247485598E+02  0.94754683800E+02  0.89797945133E+02 0.  0.
         13    1    3    3    0    0  0.84321422731E+01  0.16855851168E+02 -0.27279316392E+02  0.33157095904E+02  0.10566000000E+00 0.  1.
         22    1    1    0    0    0  0.19182122563E+02  0.72024100499E+01 -0.22247485598E+02  0.30245316200E+02  0.00000000000E+00 0. -1.
</event>
<event>
 5    1  0.2295577E-004  0.9118800E+02  0.7818608E-02  0.1130116E+00
         25   -1    0    0    0    0  0.00000000000E+00  0.00000000000E+00  0.99999998245E-14  0.12500000000E+03  0.12500000000E+03 0.  0.
        -13    1    3    3    0    0  0.86418163605E+01 -0.64215341691E+00 -0.37547339244E+02  0.38534493631E+02  0.10566000000E+00 0. -1.
         23    2    1    0    0    0  0.19991280877E+02 -0.10362939189E+02  0.18072506712E+02  0.96126875497E+02  0.91688161036E+02 0.  0.
         13    1    3    3    0    0  0.11349464517E+02 -0.97207857718E+01  0.55619845956E+02  0.57592381866E+02  0.10566000000E+00 0.  1.
         22    1    1    0    0    0 -0.19991280877E+02  0.10362939189E+02 -0.18072506712E+02  0.28873124503E+02  0.00000000000E+00 0.  1.
</event>
<event>
 5    1  0.2295577E-004  0.9118800E+02  0.7818608E-02  0.1130116E+00
         25   -1    0    0    0    0  0.00000000000E+00  0.00000000000E+00  0.99999998245E-14  0.12500000000E+03  0.12500000000E+03 0.  0.
        -13    1    3    3    0    0  0.19476212415E+02  0.54115751099E+02  0.11261312658E+02  0.58606020969E+02  0.10566000000E+00 0.  1.
         23    2    1    0    0    0  0.22708463104E+02  0.17639261338E+02  0.63413222155E+01  0.95554623376E+02  0.90904652488E+02 0.  0.
         13    1    3    3    0    0  0.32322506891E+01 -0.36476489761E+02 -0.49199904422E+01  0.36948602406E+02  0.10566000000E+00 0. -1.
         22    1    1    0    0    0 -0.22708463104E+02 -0.17639261338E+02 -0.63413222155E+01  0.29445376624E+02  0.00000000000E+00 0.  1.
</event>
<event>
 5    1  0.2295577E-004  0.9118800E+02  0.7818608E-02  0.1130116E+00
         25   -1    0    0    0    0  0.00000000000E+00  0.00000000000E+00  0.99999998245E-14  0.12500000000E+03  0.12500000000E+03 0.  0.
        -13    1    3    3    0    0 -0.24278200539E+02  0.18005130450E+02 -0.49549653247E+02  0.58041321874E+02  0.10566000000E+00 0. -1.
         23    2    1    0    0    0 -0.18108932269E+02 -0.61646372913E+01 -0.14818055362E+02  0.10080266656E+03  0.97855335267E+02 0.  0.
         13    1    3    3    0    0  0.61692682697E+01 -0.24169767742E+02  0.34731597886E+02  0.42761344686E+02  0.10566000000E+00 0.  1.
         22    1    1    0    0    0  0.18108932269E+02  0.61646372913E+01  0.14818055362E+02  0.24197333439E+02  0.00000000000E+00 0. -1.
</event>
<event>
 5    1  0.2295577E-004  0.9118800E+02  0.7818608E-02  0.1130116E+00
         25   -1    0    0    0    0  0.00000000000E+00  0.00000000000E+00  0.99999998245E-14  0.12500000000E+03  0.12500000000E+03 0.  0.
        -13    1    3    3    0    0  0.72244313101E+01 -0.48392313018E+02  0.13195125473E+02  0.50676729051E+02  0.10566000000E+00 0.  1.
         23    2    1    0    0    0 -0.11757630394E+02 -0.18458550623E+02 -0.17038222689E+02  0.97264445274E+02  0.93226130019E+02 0.  0.
         13    1    3    3    0    0 -0.18982061704E+02  0.29933762395E+02 -0.30233348162E+02  0.46587716222E+02  0.10566000000E+00 0. -1.
         22    1    1    0    0    0  0.11757630394E+02  0.18458550623E+02  0.17038222689E+02  0.27735554726E+02  0.00000000000E+00 0.  1.
</event>
<event>
 5    1  0.2295577E-004  0.9118800E+02  0.7818608E-02  0.1130116E+00
         25   -1    0    0    0    0  0.00000000000E+00  0.00000000000E+00  0.99999998245E-14  0.12500000000E+03  0.12500000000E+03 0.  0.
        -13    1    3    3    0    0  0.23624792990E+02  0.11902339446E+02 -0.42783892129E+02  0.50301780465E+02  0.10566000000E+00 0. -1.
         23    2    1    0    0    0  0.19108606007E+02 -0.17382663181E+02 -0.43944424938E+01  0.98796814552E+02  0.95258614508E+02 0.  0.
         13    1    3    3    0    0 -0.45161869834E+01 -0.29285002627E+02  0.38389449636E+02  0.48495034087E+02  0.10566000000E+00 0.  1.
         22    1    1    0    0    0 -0.19108606007E+02  0.17382663181E+02  0.43944424938E+01  0.26203185448E+02  0.00000000000E+00 0. -1.
</event>
<event>
 5    1  0.2295577E-004  0.9118800E+02  0.7818608E-02  0.1130116E+00
         25   -1    0    0    0    0  0.00000000000E+00  0.00000000000E+00  0.99999998245E-14  0.12500000000E+03  0.12500000000E+03 0.  0.
        -13    1    3    3    0    0  0.37726152416E+02 -0.92500993310E+01 -0.30140892156E+02  0.49166161714E+02  0.10566000000E+00 0. -1.
         23    2    1    0    0    0  0.12030952301E+02 -0.25911899536E+02  0.52342044946E+01  0.95955770839E+02  0.91454593706E+02 0.  0.
         13    1    3    3    0    0 -0.25695200115E+02 -0.16661800205E+02  0.35375096651E+02  0.46789609125E+02  0.10566000000E+00 0.  1.
         22    1    1    0    0    0 -0.12030952301E+02  0.25911899536E+02 -0.52342044946E+01  0.29044229161E+02  0.00000000000E+00 0.  1.
</event>
<event>
 5    1  0.2295577E-004  0.9118800E+02  0.7818608E-02  0.1130116E+00
         25   -1    0    0    0    0  0.00000000000E+00  0.00000000000E+00  0.99999998245E-14  0.12500000000E+03  0.12500000000E+03 0.  0.
        -13    1    3    3    0    0  0.23883949471E+01 -0.15022845966E+02  0.14500910678E+02  0.21016134418E+02  0.10566000000E+00 0. -1.
         23    2    1    0    0    0  0.24597276823E+02 -0.16525890988E+02 -0.37278978791E+02  0.77378016004E+02  0.60987736480E+02 0.  0.
         13    1    3    3    0    0  0.22208881875E+02 -0.15030450224E+01 -0.51779889469E+02  0.56361881586E+02  0.10566000000E+00 0.  1.
         22    1    1    0    0    0 -0.24597276823E+02  0.16525890988E+02  0.37278978791E+02  0.47621983996E+02  0.00000000000E+00 0.  1.
</event>
<event>
 5    1  0.2295577E-004  0.9118800E+02  0.7818608E-02  0.1130116E+00
         25   -1    0    0    0    0  0.00000000000E+00  0.00000000000E+00  0.99999998245E-14  0.12500000000E+03  0.12500000000E+03 0.  0.
        -13    1    3    3    0    0  0.47759173827E+02  0.34079109833E+01  0.24232493823E+02  0.53663558053E+02  0.10566000000E+00 0.  1.
         23    2    1    0    0    0  0.19256595111E+02 -0.18994935509E+02 -0.11625904744E+01  0.97926477014E+02  0.94109612970E+02 0.  0.
         13    1    3    3    0    0 -0.28502578716E+02 -0.22402846493E+02 -0.25395084298E+02  0.44262918961E+02  0.10566000000E+00 0. -1.
         22    1    1    0    0    0 -0.19256595111E+02  0.18994935509E+02  0.11625904744E+01  0.27073522986E+02  0.00000000000E+00 0.  1.
</event>
<event>
 5    1  0.2295577E-004  0.9118800E+02  0.7818608E-02  0.1130116E+00
         25   -1    0    0    0    0  0.00000000000E+00  0.00000000000E+00  0.99999998245E-14  0.12500000000E+03  0.12500000000E+03 0.  0.
        -13    1    3    3    0    0  0.14840855194E+02  0.47562827581E+02  0.73760180807E+01  0.50367552622E+02  0.10566000000E+00 0.  1.
         23    2    1    0    0    0  0.97106918939E+01  0.28808972298E+02 -0.23307109671E+02  0.86692353464E+02  0.77769456510E+02 0.  0.
         13    1    3    3    0    0 -0.51301632998E+01 -0.18753855283E+02 -0.30683127752E+02  0.36324800841E+02  0.10566000000E+00 0. -1.
         22    1    1    0    0    0 -0.97106918939E+01 -0.28808972298E+02  0.23307109671E+02  0.38307646536E+02  0.00000000000E+00 0.  1.
</event>
<event>
 5    1  0.2295577E-004  0.9118800E+02  0.7818608E-02  0.1130116E+00
         25   -1    0    0    0    0  0.00000000000E+00  0.00000000000E+00  0.99999998245E-14  0.12500000000E+03  0.12500000000E+03 0.  0.
        -13    1    3    3    0    0 -0.98328602656E+01  0.37912870213E+02  0.55766534260E+01  0.39562369700E+02  0.10566000000E+00 0.  1.
         23    2    1    0    0    0  0.20864443556E+02 -0.62522925716E+01  0.20192924527E+02  0.95298647030E+02  0.90551983730E+02 0.  0.
         13    1    3    3    0    0  0.30697303822E+02 -0.44165162784E+02  0.14616271101E+02  0.55736277330E+02  0.10566000000E+00 0. -1.
         22    1    1    0    0    0 -0.20864443556E+02  0.62522925716E+01 -0.20192924527E+02  0.29701352970E+02  0.00000000000E+00 0. -1.
</event>
<event>
 5    1  0.2295577E-004  0.9118800E+02  0.7818608E-02  0.1130116E+00
         25   -1    0    0    0    0  0.00000000000E+00  0.00000000000E+00  0.99999998245E-14  0.12500000000E+03  0.12500000000E+03 0.  0.
        -13    1    3    3    0    0 -0.25366818150E+01  0.16616238183E+02  0.31868327088E+02  0.36029648366E+02  0.10566000000E+00 0.  1.
         23    2    1    0    0    0 -0.16144343574E+02  0.10647778642E+02 -0.24193186741E+02  0.94027023002E+02  0.88779252928E+02 0.  0.
         13    1    3    3    0    0 -0.13607661759E+02 -0.59684595403E+01 -0.56061513829E+02  0.57997374636E+02  0.10566000000E+00 0. -1.
         22    1    1    0    0    0  0.16144343574E+02 -0.10647778642E+02  0.24193186741E+02  0.30972976998E+02  0.00000000000E+00 0. -1.
</event>
<event>
 5    1  0.2295577E-004  0.9118800E+02  0.7818608E-02  0.1130116E+00
         25   -1    0    0    0    0  0.00000000000E+00  0.00000000000E+00  0.99999998245E-14  0.12500000000E+03  0.12500000000E+03 0.  0.
        -13    1    3    3    0    0 -0.22789489503E+02  0.22479376969E+02  0.14317167338E+02  0.35066731603E+02  0.10566000000E+00 0.  1.
         23    2    1    0    0    0  0.27706792035E+02 -0.91557039072E+01  0.38446053300E+01  0.95567463088E+02  0.90922306241E+02 0.  0.
         13    1    3    3    0    0  0.50496281538E+02 -0.31635080876E+02 -0.10472562008E+02  0.60500731485E+02  0.10566000000E+00 0. -1.
         22    1    1    0    0    0 -0.27706792035E+02  0.91557039072E+01 -0.38446053300E+01  0.29432536912E+02  0.00000000000E+00 0. -1.
</event>
<event>
 5    1  0.2295577E-004  0.9118800E+02  0.7818608E-02  0.1130116E+00
         25   -1    0    0    0    0  0.00000000000E+00  0.00000000000E+00  0.99999998245E-14  0.12500000000E+03  0.12500000000E+03 0.  0.
        -13    1    3    3    0    0 -0.15772693772E+02 -0.43636668079E+02 -0.32092825883E+02  0.56417172093E+02  0.10566000000E+00 0. -1.
         23    2    1    0    0    0 -0.18907288573E+02 -0.54199560493E+01 -0.20760246088E+02  0.96401935338E+02  0.92062390989E+02 0.  0.
         13    1    3    3    0    0 -0.31345948015E+01  0.38216712029E+02  0.11332579795E+02  0.39984763245E+02  0.10566000000E+00 0.  1.
         22    1    1    0    0    0  0.18907288573E+02  0.54199560493E+01  0.20760246088E+02  0.28598064662E+02  0.00000000000E+00 0. -1.
</event>
<event>
 5    1  0.2295577E-004  0.9118800E+02  0.7818608E-02  0.1130116E+00
         25   -1    0    0    0    0  0.00000000000E+00  0.00000000000E+00  0.99999998245E-14  0.12500000000E+03  0.12500000000E+03 0.  0.
        -13    1    3    3    0    0  0.25183388712E+02 -0.30733301683E+02 -0.39788455142E+02  0.56230518635E+02  0.10566000000E+00 0.  1.
         23    2    1    0    0    0 -0.81673880804E+01 -0.18679207785E+02 -0.17637518563E+02  0.98042605975E+02  0.94263733715E+02 0.  0.
         13    1    3    3    0    0 -0.33350776793E+02  0.12054093898E+02  0.22150936579E+02  0.41812087340E+02  0.10566000000E+00 0. -1.
         22    1    1    0    0    0  0.81673880804E+01  0.18679207785E+02  0.17637518563E+02  0.26957394025E+02  0.00000000000E+00 0.  1.
</event>
<event>
 5    1  0.2295577E-004  0.9118800E+02  0.7818608E-02  0.1130116E+00
         25   -1    0    0    0    0  0.00000000000E+00  0.00000000000E+00  0.99999998245E-14  0.12500000000E+03  0.12500000000E+03 0.  0.
        -13    1    3    3    0    0  0.83482594321E+01  0.12532195501E+01  0.27622342348E+02  0.28883714366E+02  0.10566000000E+00 0.  1.
         23    2    1    0    0    0  0.32766354823E+02  0.27036354868E+02 -0.10764425954E+02  0.81176817105E+02  0.68331575982E+02 0.  0.
         13    1    3    3    0    0  0.24418095391E+02  0.25783135318E+02 -0.38386768302E+02  0.52293102739E+02  0.10566000000E+00 0. -1.
         22    1    1    0    0    0 -0.32766354823E+02 -0.27036354868E+02  0.10764425954E+02  0.43823182895E+02  0.00000000000E+00 0. -1.
</event>
<event>
 5    1  0.2295577E-004  0.9118800E+02  0.7818608E-02  0.1130116E+00
         25   -1    0    0    0    0  0.00000000000E+00  0.00000000000E+00  0.99999998245E-14  0.12500000000E+03  0.12500000000E+03 0.  0.
        -13    1    3    3    0    0 -0.28033968262E+02  0.30068979703E+02 -0.45793105213E+02  0.61539146614E+02  0.10566000000E+00 0. -1.
         23    2    1    0    0    0 -0.20144681400E+02  0.17332840723E+02 -0.38543336625E+02  0.78183076197E+02  0.62616044663E+02 0.  0.
         13    1    3    3    0    0  0.78892868625E+01 -0.12736138980E+02  0.72497685886E+01  0.16643929582E+02  0.10566000000E+00 0.  1.
         22    1    1    0    0    0  0.20144681400E+02 -0.17332840723E+02  0.38543336625E+02  0.46816923803E+02  0.00000000000E+00 0. -1.
</event>
<event>
 5    1  0.2295577E-004  0.9118800E+02  0.7818608E-02  0.1130116E+00
         25   -1    0    0    0    0  0.00000000000E+00  0.00000000000E+00  0.99999998245E-14  0.12500000000E+03  0.12500000000E+03 0.  0.
        -13    1    3    3    0    0 -0.36387699398E+02 -0.39744806274E+02 -0.19670198498E+02  0.57364119154E+02  0.10566000000E+00 0.  1.
         23    2    1    0    0    0 -0.21616460220E+02 -0.88981855757E+00 -0.13784843934E+02  0.99346831545E+02  0.95977642637E+02 0.  0.
         13    1    3    3    0    0  0.14771239178E+02  0.38854987717E+02  0.58853545648E+01  0.41982712391E+02  0.10566000000E+00 0. -1.
         22    1    1    0    0    0  0.21616460220E+02  0.88981855757E+00  0.13784843934E+02  0.25653168455E+02  0.00000000000E+00 0.  1.
</event>
<event>
 5    1  0.2295577E-004  0.9118800E+02  0.7818608E-02  0.1130116E+00
         25   -1    0    0    0    0  0.00000000000E+00  0.00000000000E+00  0.99999998245E-14  0.12500000000E+03  0.12500000000E+03 0.  0.
        -13    1    3    3    0    0 -0.32385369089E+02  0.34039688353E+02  0.26911917008E+02  0.54145867388E+02  0.10566000000E+00 0. -1.
         23    2    1    0    0    0 -0.13154101992E+02 -0.62020316360E+01  0.21456702392E+02  0.99079242427E+02  0.95628503108E+02 0.  0.
         13    1    3    3    0    0  0.19231267097E+02 -0.40241719989E+02 -0.54552146158E+01  0.44933375038E+02  0.10566000000E+00 0.  1.
         22    1    1    0    0    0  0.13154101992E+02  0.62020316360E+01 -0.21456702392E+02  0.25920757573E+02  0.00000000000E+00 0. -1.
</event>
<event>
 5    1  0.2295577E-004  0.9118800E+02  0.7818608E-02  0.1130116E+00
         25   -1    0    0    0    0  0.00000000000E+00  0.00000000000E+00  0.99999998245E-14  0.12500000000E+03  0.12500000000E+03 0.  0.
        -13    1    3    3    0    0  0.41933132340E+02 -0.39134275539E+02  0.24804877412E+02  0.62491377144E+02  0.10566000000E+00 0.  1.
         23    2    1    0    0    0  0.19982436490E+02 -0.19337143887E+02  0.11444608963E+02  0.94930048618E+02  0.90041724520E+02 0.  0.
         13    1    3    3    0    0 -0.21950695850E+02  0.19797131652E+02 -0.13360268449E+02  0.32438671475E+02  0.10566000000E+00 0. -1.
         22    1    1    0    0    0 -0.19982436490E+02  0.19337143887E+02 -0.11444608963E+02  0.30069951382E+02  0.00000000000E+00 0.  1.
</event>
<event>
 5    1  0.2295577E-004  0.9118800E+02  0.7818608E-02  0.1130116E+00
         25   -1    0    0    0    0  0.00000000000E+00  0.00000000000E+00  0.99999998245E-14  0.12500000000E+03  0.12500000000E+03 0.  0.
        -13    1    3    3    0    0  0.45638352550E+02 -0.35478278406E+01 -0.37952008395E+02  0.59462697645E+02  0.10566000000E+00 0. -1.
         23    2    1    0    0    0  0.27175400161E+02 -0.11615783367E+02 -0.10246362834E+02  0.93720346094E+02  0.88346400739E+02 0.  0.
         13    1    3    3    0    0 -0.18462952390E+02 -0.80679555262E+01  0.27705645561E+02  0.34257648450E+02  0.10566000000E+00 0.  1.
         22    1    1    0    0    0 -0.27175400161E+02  0.11615783367E+02  0.10246362834E+02  0.31279653906E+02  0.00000000000E+00 0. -1.
</event>
<event>
 5    1  0.2295577E-004  0.9118800E+02  0.7818608E-02  0.1130116E+00
         25   -1    0    0    0    0  0.00000000000E+00  0.00000000000E+00  0.99999998245E-14  0.12500000000E+03  0.12500000000E+03 0.  0.
        -13    1    3    3    0    0  0.25028056512E+02 -0.26872678744E+02 -0.12874215175E+01  0.36745245867E+02  0.10566000000E+00 0.  1.
         23    2    1    0    0    0  0.22709532267E+02  0.37407691910E+01 -0.35486493475E+02  0.82703340213E+02  0.71069227189E+02 0.  0.
         13    1    3    3    0    0 -0.23185242445E+01  0.30613447935E+02 -0.34199071958E+02  0.45958094346E+02  0.10566000000E+00 0. -1.
         22    1    1    0    0    0 -0.22709532267E+02 -0.37407691910E+01  0.35486493475E+02  0.42296659787E+02  0.00000000000E+00 0. -1.
</event>
<event>
 5    1  0.2295577E-004  0.9118800E+02  0.7818608E-02  0.1130116E+00
         25   -1    0    0    0    0  0.00000000000E+00  0.00000000000E+00  0.99999998245E-14  0.12500000000E+03  0.12500000000E+03 0.  0.
        -13    1    3    3    0    0 -0.43892162267E+02 -0.11507625581E+02  0.22089387841E+02  0.50466816565E+02  0.10566000000E+00 0.  1.
         23    2    1    0    0    0 -0.11457422958E+01 -0.25344123663E+02  0.13678643646E+02  0.96177393913E+02  0.91757007788E+02 0.  0.
         13    1    3    3    0    0  0.42746419971E+02 -0.13836498082E+02 -0.84107441946E+01  0.45710577348E+02  0.10566000000E+00 0. -1.
         22    1    1    0    0    0  0.11457422958E+01  0.25344123663E+02 -0.13678643646E+02  0.28822606087E+02  0.00000000000E+00 0.  1.
</event>
<event>
 5    1  0.2295577E-004  0.9118800E+02  0.7818608E-02  0.1130116E+00
         25   -1    0    0    0    0  0.00000000000E+00  0.00000000000E+00  0.99999998245E-14  0.12500000000E+03  0.12500000000E+03 0.  0.
        -13    1    3    3    0    0 -0.40173462115E+02  0.44883554654E+02  0.33112666561E+01  0.60327574024E+02  0.10566000000E+00 0.  1.
         23    2    1    0    0    0 -0.28498013077E+02  0.14745386337E+02 -0.76252705902E+00  0.92904133988E+02  0.87183906181E+02 0.  0.
         13    1    3    3    0    0  0.11675449038E+02 -0.30138168318E+02 -0.40737937151E+01  0.32576559964E+02  0.10566000000E+00 0. -1.
         22    1    1    0    0    0  0.28498013077E+02 -0.14745386337E+02  0.76252705902E+00  0.32095866012E+02  0.00000000000E+00 0.  1.
</event>
<event>
 5    1  0.2295577E-004  0.9118800E+02  0.7818608E-02  0.1130116E+00
         25   -1    0    0    0    0  0.00000000000E+00  0.00000000000E+00  0.99999998245E-14  0.12500000000E+03  0.12500000000E+03 0.  0.
        -13    1    3    3    0    0  0.21910240919E+02  0.27492952656E+02 -0.19689291422E+02  0.40293925889E+02  0.10566000000E+00 0. -1.
         23    2    1    0    0    0 -0.80304722667E+01  0.12217596950E+02  0.24895174638E+02  0.96129117085E+02  0.91691216979E+02 0.  0.
         13    1    3    3    0    0 -0.29940713185E+02 -0.15275355705E+02  0.44584466060E+02  0.55835191195E+02  0.10566000000E+00 0.  1.
         22    1    1    0    0    0  0.80304722667E+01 -0.12217596950E+02 -0.24895174638E+02  0.28870882915E+02  0.00000000000E+00 0.  1.
</event>
<event>
 5    1  0.2295577E-004  0.9118800E+02  0.7818608E-02  0.1130116E+00
         25   -1    0    0    0    0  0.00000000000E+00  0.00000000000E+00  0.99999998245E-14  0.12500000000E+03  0.12500000000E+03 0.  0.
        -13    1    3    3    0    0 -0.68636020734E+01  0.40459984207E+01  0.38252275657E+02  0.39073352730E+02  0.10566000000E+00 0.  1.
         23    2    1    0    0    0 -0.24494468024E+01  0.25788134311E+02 -0.13794749685E+02  0.95651698861E+02  0.91038039935E+02 0.  0.
         13    1    3    3    0    0  0.44141552710E+01  0.21742135890E+02 -0.52047025342E+02  0.56578346130E+02  0.10566000000E+00 0. -1.
         22    1    1    0    0    0  0.24494468024E+01 -0.25788134311E+02  0.13794749685E+02  0.29348301139E+02  0.00000000000E+00 0. -1.
</event>
<event>
 5    1  0.2295577E-004  0.9118800E+02  0.7818608E-02  0.1130116E+00
         25   -1    0    0    0    0  0.00000000000E+00  0.00000000000E+00  0.99999998245E-14  0.12500000000E+03  0.12500000000E+03 0.  0.
        -13    1    3    3    0    0 -0.52508749713E+02 -0.29662539980E+02  0.59704014211E+01  0.60602738648E+02  0.10566000000E+00 0.  1.
         23    2    1    0    0    0 -0.22745196953E+02 -0.20666374567E+02 -0.55674360559E+01  0.93767975307E+02  0.88413764917E+02 0.  0.
         13    1    3    3    0    0  0.29763552760E+02  0.89961654123E+01 -0.11537837477E+02  0.33165236660E+02  0.10566000000E+00 0. -1.
         22    1    1    0    0    0  0.22745196953E+02  0.20666374567E+02  0.55674360559E+01  0.31232024693E+02  0.00000000000E+00 0.  1.
</event>
<event>
 5    1  0.2295577E-004  0.9118800E+02  0.7818608E-02  0.1130116E+00
         25   -1    0    0    0    0  0.00000000000E+00  0.00000000000E+00  0.99999998245E-14  0.12500000000E+03  0.12500000000E+03 0.  0.
        -13    1    3    3    0    0 -0.29600216923E+02  0.43688486057E+02 -0.21429874086E+02  0.56957065613E+02  0.10566000000E+00 0.  1.
         23    2    1    0    0    0 -0.61032424752E+01  0.28273041763E+02  0.51296056024E+01  0.95624375532E+02  0.91000515839E+02 0.  0.
         13    1    3    3    0    0  0.23496974448E+02 -0.15415444294E+02  0.26559479688E+02  0.38667309919E+02  0.10566000000E+00 0. -1.
         22    1    1    0    0    0  0.61032424752E+01 -0.28273041763E+02 -0.51296056024E+01  0.29375624468E+02  0.00000000000E+00 0.  1.
</event>
<event>
 5    1  0.2295577E-004  0.9118800E+02  0.7818608E-02  0.1130116E+00
         25   -1    0    0    0    0  0.00000000000E+00  0.00000000000E+00  0.99999998245E-14  0.12500000000E+03  0.12500000000E+03 0.  0.
        -13    1    3    3    0    0  0.99738042834E+01 -0.74695185748E+01  0.55979923054E+02  0.57350095282E+02  0.10566000000E+00 0.  1.
         23    2    1    0    0    0  0.76005834923E+01  0.14058263940E+02  0.28334359576E+02  0.92469405369E+02  0.86558369568E+02 0.  0.
         13    1    3    3    0    0 -0.23732207911E+01  0.21527782515E+02 -0.27645563478E+02  0.35119310087E+02  0.10566000000E+00 0. -1.
         22    1    1    0    0    0 -0.76005834923E+01 -0.14058263940E+02 -0.28334359576E+02  0.32530594631E+02  0.00000000000E+00 0.  1.
</event>
<event>
 5    1  0.2295577E-004  0.9118800E+02  0.7818608E-02  0.1130116E+00
         25   -1    0    0    0    0  0.00000000000E+00  0.00000000000E+00  0.99999998245E-14  0.12500000000E+03  0.12500000000E+03 0.  0.
        -13    1    3    3    0    0  0.21023887536E+02 -0.32271165763E+01  0.42130249884E+02  0.47195203653E+02  0.10566000000E+00 0.  1.
         23    2    1    0    0    0 -0.13954119364E+02  0.19221615858E+02  0.17369334256E+02  0.95574131518E+02  0.90931473537E+02 0.  0.
         13    1    3    3    0    0 -0.34978006900E+02  0.22448732435E+02 -0.24760915628E+02  0.48378927865E+02  0.10566000000E+00 0. -1.
         22    1    1    0    0    0  0.13954119364E+02 -0.19221615858E+02 -0.17369334256E+02  0.29425868482E+02  0.00000000000E+00 0.  1.
</event>
<event>
 5    1  0.2295577E-004  0.9118800E+02  0.7818608E-02  0.1130116E+00
         25   -1    0    0    0    0  0.00000000000E+00  0.00000000000E+00  0.99999998245E-14  0.12500000000E+03  0.12500000000E+03 0.  0.
        -13    1    3    3    0    0  0.19383226617E+01  0.18829807872E+02  0.37690917582E+02  0.42177425140E+02  0.10566000000E+00 0. -1.
         23    2    1    0    0    0 -0.19662209996E+02 -0.19630069133E+02  0.57782539422E+01  0.96621657294E+02  0.92360242115E+02 0.  0.
         13    1    3    3    0    0 -0.21600532657E+02 -0.38459877005E+02 -0.31912663639E+02  0.54444232155E+02  0.10566000000E+00 0.  1.
         22    1    1    0    0    0  0.19662209996E+02  0.19630069133E+02 -0.57782539422E+01  0.28378342706E+02  0.00000000000E+00 0.  1.
</event>
<event>
 5    1  0.2295577E-004  0.9118800E+02  0.7818608E-02  0.1130116E+00
         25   -1    0    0    0    0  0.00000000000E+00  0.00000000000E+00  0.99999998245E-14  0.12500000000E+03  0.12500000000E+03 0.  0.
        -13    1    3    3    0    0  0.29500879912E+02  0.11940096989E+02 -0.25216233942E+02  0.40604648133E+02  0.10566000000E+00 0. -1.
         23    2    1    0    0    0 -0.23104948081E+02  0.15451073056E+02 -0.77697179790E+01  0.96139251536E+02  0.91705031945E+02 0.  0.
         13    1    3    3    0    0 -0.52605827994E+02  0.35109760672E+01  0.17446515963E+02  0.55534603403E+02  0.10566000000E+00 0.  1.
         22    1    1    0    0    0  0.23104948081E+02 -0.15451073056E+02  0.77697179790E+01  0.28860748464E+02  0.00000000000E+00 0.  1.
</event>
<event>
 5    1  0.2295577E-004  0.9118800E+02  0.7818608E-02  0.1130116E+00
         25   -1    0    0    0    0  0.00000000000E+00  0.00000000000E+00  0.99999998245E-14  0.12500000000E+03  0.12500000000E+03 0.  0.
        -13    1    3    3    0    0 -0.74225898770E+01 -0.17087527470E+02 -0.48582143254E+02  0.52031857959E+02  0.10566000000E+00 0.  1.
         23    2    1    0    0    0  0.21794425068E+02 -0.34811758540E+01 -0.17173966962E+02  0.97034651968E+02  0.92917506380E+02 0.  0.
         13    1    3    3    0    0  0.29217014945E+02  0.13606351616E+02  0.31408176292E+02  0.45002794009E+02  0.10566000000E+00 0. -1.
         22    1    1    0    0    0 -0.21794425068E+02  0.34811758540E+01  0.17173966962E+02  0.27965348032E+02  0.00000000000E+00 0.  1.
</event>
<event>
 5    1  0.2295577E-004  0.9118800E+02  0.7818608E-02  0.1130116E+00
         25   -1    0    0    0    0  0.00000000000E+00  0.00000000000E+00  0.99999998245E-14  0.12500000000E+03  0.12500000000E+03 0.  0.
        -13    1    3    3    0    0 -0.34120067735E+02 -0.34732979143E+02  0.85275605015E+01  0.49429640041E+02  0.10566000000E+00 0. -1.
         23    2    1    0    0    0 -0.24540949884E+01 -0.53321850892E+01  0.27687199262E+02  0.96697424446E+02  0.92462728228E+02 0.  0.
         13    1    3    3    0    0  0.31665972747E+02  0.29400794054E+02  0.19159638761E+02  0.47267784404E+02  0.10566000000E+00 0.  1.
         22    1    1    0    0    0  0.24540949884E+01  0.53321850892E+01 -0.27687199262E+02  0.28302575554E+02  0.00000000000E+00 0.  1.
</event>
<event>
 5    1  0.2295577E-004  0.9118800E+02  0.7818608E-02  0.1130116E+00
         25   -1    0    0    0    0  0.00000000000E+00  0.00000000000E+00  0.99999998245E-14  0.12500000000E+03  0.12500000000E+03 0.  0.
        -13    1    3    3    0    0  0.14285542337E+02 -0.64708446039E+01 -0.29150561323E+02  0.33101585147E+02  0.10566000000E+00 0.  1.
         23    2    1    0    0    0 -0.19367411673E+02  0.72467700017E+01  0.21322756060E+02  0.95296932206E+02  0.90549616518E+02 0.  0.
         13    1    3    3    0    0 -0.33652954010E+02  0.13717614606E+02  0.50473317383E+02  0.62195347059E+02  0.10566000000E+00 0. -1.
         22    1    1    0    0    0  0.19367411673E+02 -0.72467700017E+01 -0.21322756060E+02  0.29703067794E+02  0.00000000000E+00 0. -1.
</event>
<event>
 5    1  0.2295577E-004  0.9118800E+02  0.7818608E-02  0.1130116E+00
         25   -1    0    0    0    0  0.00000000000E+00  0.00000000000E+00  0.99999998245E-14  0.12500000000E+03  0.12500000000E+03 0.  0.
        -13    1    3    3    0    0  0.29836203808E+02 -0.83997202381E+01 -0.17165414825E+02  0.35431864020E+02  0.10566000000E+00 0.  1.
         23    2    1    0    0    0 -0.64363525050E-01  0.25078247177E+02  0.19373212974E+02  0.93310190832E+02  0.87764159588E+02 0.  0.
         13    1    3    3    0    0 -0.29900567334E+02  0.33477967415E+02  0.36538627799E+02  0.57878326812E+02  0.10566000000E+00 0. -1.
         22    1    1    0    0    0  0.64363525050E-01 -0.25078247177E+02 -0.19373212974E+02  0.31689809168E+02  0.00000000000E+00 0. -1.
</event>
<event>
 5    1  0.2295577E-004  0.9118800E+02  0.7818608E-02  0.1130116E+00
         25   -1    0    0    0    0  0.00000000000E+00  0.00000000000E+00  0.99999998245E-14  0.12500000000E+03  0.12500000000E+03 0.  0.
        -13    1    3    3    0    0  0.32967408185E+02 -0.16962271274E+02  0.28003665040E+02  0.46462727738E+02  0.10566000000E+00 0.  1.
         23    2    1    0    0    0  0.28380751213E+02  0.20615791019E+02  0.17764609217E+02  0.85680040446E+02  0.76124963786E+02 0.  0.
         13    1    3    3    0    0 -0.45866569717E+01  0.37578062292E+02 -0.10239055823E+02  0.39217312708E+02  0.10566000000E+00 0. -1.
         22    1    1    0    0    0 -0.28380751213E+02 -0.20615791019E+02 -0.17764609217E+02  0.39319959554E+02  0.00000000000E+00 0.  1.
</event>
<event>
 5    1  0.2295577E-004  0.9118800E+02  0.7818608E-02  0.1130116E+00
         25   -1    0    0    0    0  0.00000000000E+00  0.00000000000E+00  0.99999998245E-14  0.12500000000E+03  0.12500000000E+03 0.  0.
        -13    1    3    3    0    0  0.10863768260E+02  0.15146323175E+02  0.11713466146E+02  0.22014745507E+02  0.10566000000E+00 0.  1.
         23    2    1    0    0    0 -0.17419197516E+02 -0.35478120509E+02 -0.10487268174E+02  0.84108579498E+02  0.73499284857E+02 0.  0.
         13    1    3    3    0    0 -0.28282965776E+02 -0.50624443684E+02 -0.22200734320E+02  0.62093833991E+02  0.10566000000E+00 0. -1.
         22    1    1    0    0    0  0.17419197516E+02  0.35478120509E+02  0.10487268174E+02  0.40891420502E+02  0.00000000000E+00 0. -1.
</event>
<event>
 5    1  0.2295577E-004  0.9118800E+02  0.7818608E-02  0.1130116E+00
         25   -1    0    0    0    0  0.00000000000E+00  0.00000000000E+00  0.99999998245E-14  0.12500000000E+03  0.12500000000E+03 0.  0.
        -13    1    3    3    0    0  0.15148201164E+02 -0.25369515036E+02  0.15092136503E+02  0.33179271239E+02  0.10566000000E+00 0. -1.
         23    2    1    0    0    0 -0.29120961619E+01  0.26263269512E+02  0.24830710183E+02  0.88739776646E+02  0.80993482216E+02 0.  0.
         13    1    3    3    0    0 -0.18060297326E+02  0.51632784548E+02  0.97385736802E+01  0.55560505407E+02  0.10566000000E+00 0.  1.
         22    1    1    0    0    0  0.29120961619E+01 -0.26263269512E+02 -0.24830710183E+02  0.36260223354E+02  0.00000000000E+00 0.  1.
</event>
<event>
 5    1  0.2295577E-004  0.9118800E+02  0.7818608E-02  0.1130116E+00
         25   -1    0    0    0    0  0.00000000000E+00  0.00000000000E+00  0.99999998245E-14  0.12500000000E+03  0.12500000000E+03 0.  0.
        -13    1    3    3    0    0  0.15587225324E+01 -0.32948421560E+02  0.20911231228E+02  0.39055330683E+02  0.10566000000E+00 0.  1.
         23    2    1    0    0    0  0.47026354544E+01  0.24526433209E+02  0.11969208328E+02  0.97306631585E+02  0.93282677364E+02 0.  0.
         13    1    3    3    0    0  0.31439129220E+01  0.57474854769E+02 -0.89420228994E+01  0.58251300902E+02  0.10566000000E+00 0. -1.
         22    1    1    0    0    0 -0.47026354544E+01 -0.24526433209E+02 -0.11969208328E+02  0.27693368415E+02  0.00000000000E+00 0. -1.
</event>
<event>
 5    1  0.2295577E-004  0.9118800E+02  0.7818608E-02  0.1130116E+00
         25   -1    0    0    0    0  0.00000000000E+00  0.00000000000E+00  0.99999998245E-14  0.12500000000E+03  0.12500000000E+03 0.  0.
        -13    1    3    3    0    0  0.32271280384E+02 -0.37609327765E+01  0.24823821141E+02  0.40887814970E+02  0.10566000000E+00 0. -1.
         23    2    1    0    0    0 -0.53111037151E+01 -0.27084409527E+02 -0.83353537494E+01  0.96168572977E+02  0.91744990295E+02 0.  0.
         13    1    3    3    0    0 -0.37582384099E+02 -0.23323476750E+02 -0.33159174891E+02  0.55280758006E+02  0.10566000000E+00 0.  1.
         22    1    1    0    0    0  0.53111037151E+01  0.27084409527E+02  0.83353537494E+01  0.28831427023E+02  0.00000000000E+00 0.  1.
</event>
<event>
 5    1  0.2295577E-004  0.9118800E+02  0.7818608E-02  0.1130116E+00
         25   -1    0    0    0    0  0.00000000000E+00  0.00000000000E+00  0.99999998245E-14  0.12500000000E+03  0.12500000000E+03 0.  0.
        -13    1    3    3    0    0  0.31680492471E+02  0.30743965436E+02 -0.18965884800E+02  0.48047486555E+02  0.10566000000E+00 0.  1.
         23    2    1    0    0    0 -0.14257135660E+02  0.22027199226E+02 -0.14509590448E+02  0.95016810745E+02  0.90162091181E+02 0.  0.
         13    1    3    3    0    0 -0.45937628131E+02 -0.87167662108E+01  0.44562943518E+01  0.46969324190E+02  0.10566000000E+00 0. -1.
         22    1    1    0    0    0  0.14257135660E+02 -0.22027199226E+02  0.14509590448E+02  0.29983189255E+02  0.00000000000E+00 0. -1.
</event>
<event>
 5    1  0.2295577E-004  0.9118800E+02  0.7818608E-02  0.1130116E+00
         25   -1    0    0    0    0  0.00000000000E+00  0.00000000000E+00  0.99999998245E-14  0.12500000000E+03  0.12500000000E+03 0.  0.
        -13    1    3    3    0    0  0.34213936879E+02 -0.19754304685E+02  0.24585809793E+02  0.46532775950E+02  0.10566000000E+00 0. -1.
         23    2    1    0    0    0  0.59757069977E+01 -0.24334189593E+02 -0.15317971346E+02  0.95631613877E+02  0.91010458022E+02 0.  0.
         13    1    3    3    0    0 -0.28238229882E+02 -0.45798849085E+01 -0.39903781139E+02  0.49098837928E+02  0.10566000000E+00 0.  1.
         22    1    1    0    0    0 -0.59757069977E+01  0.24334189593E+02  0.15317971346E+02  0.29368386123E+02  0.00000000000E+00 0.  1.
</event>
<event>
 5    1  0.2295577E-004  0.9118800E+02  0.7818608E-02  0.1130116E+00
         25   -1    0    0    0    0  0.00000000000E+00  0.00000000000E+00  0.99999998245E-14  0.12500000000E+03  0.12500000000E+03 0.  0.
        -13    1    3    3    0    0 -0.45101698583E+02  0.26027860801E+02  0.16438065484E+02  0.54606171024E+02  0.10566000000E+00 0.  1.
         23    2    1    0    0    0 -0.29896805140E+02 -0.14869713749E+01 -0.75253622590E+01  0.94134791130E+02  0.88930859563E+02 0.  0.
         13    1    3    3    0    0  0.15204893443E+02 -0.27514832176E+02 -0.23963427743E+02  0.39528620107E+02  0.10566000000E+00 0. -1.
         22    1    1    0    0    0  0.29896805140E+02  0.14869713749E+01  0.75253622590E+01  0.30865208870E+02  0.00000000000E+00 0.  1.
</event>
<event>
 5    1  0.2295577E-004  0.9118800E+02  0.7818608E-02  0.1130116E+00
         25   -1    0    0    0    0  0.00000000000E+00  0.00000000000E+00  0.99999998245E-14  0.12500000000E+03  0.12500000000E+03 0.  0.
        -13    1    3    3    0    0 -0.41833917858E+01 -0.20422998538E+02 -0.44485859892E+02  0.49128428944E+02  0.10566000000E+00 0.  1.
         23    2    1    0    0    0  0.37064265775E+00 -0.28732746743E+02  0.16404092680E+01  0.96218077653E+02  0.91812414266E+02 0.  0.
         13    1    3    3    0    0  0.45540344435E+01 -0.83097482050E+01  0.46126269160E+02  0.47089648710E+02  0.10566000000E+00 0. -1.
         22    1    1    0    0    0 -0.37064265775E+00  0.28732746743E+02 -0.16404092680E+01  0.28781922347E+02  0.00000000000E+00 0.  1.
</event>
<event>
 5    1  0.2295577E-004  0.9118800E+02  0.7818608E-02  0.1130116E+00
         25   -1    0    0    0    0  0.00000000000E+00  0.00000000000E+00  0.99999998245E-14  0.12500000000E+03  0.12500000000E+03 0.  0.
        -13    1    3    3    0    0  0.17427856306E+02  0.48954072994E+02 -0.26124115222E+01  0.52029484873E+02  0.10566000000E+00 0.  1.
         23    2    1    0    0    0 -0.17406786174E+02  0.24043297434E+02 -0.48975120349E+01  0.94915751953E+02  0.90021875054E+02 0.  0.
         13    1    3    3    0    0 -0.34834642480E+02 -0.24910775560E+02 -0.22851005127E+01  0.42886267080E+02  0.10566000000E+00 0. -1.
         22    1    1    0    0    0  0.17406786174E+02 -0.24043297434E+02  0.48975120349E+01  0.30084248047E+02  0.00000000000E+00 0.  1.
</event>
<event>
 5    1  0.2295577E-004  0.9118800E+02  0.7818608E-02  0.1130116E+00
         25   -1    0    0    0    0  0.00000000000E+00  0.00000000000E+00  0.99999998245E-14  0.12500000000E+03  0.12500000000E+03 0.  0.
        -13    1    3    3    0    0 -0.29271455888E+02 -0.44040343986E+01  0.27370604379E+02  0.40315937257E+02  0.10566000000E+00 0.  1.
         23    2    1    0    0    0  0.10555655215E+02 -0.26277041513E+02 -0.51824930461E+01  0.96211755839E+02  0.91803806892E+02 0.  0.
         13    1    3    3    0    0  0.39827111102E+02 -0.21873007114E+02 -0.32553097425E+02  0.55895818583E+02  0.10566000000E+00 0. -1.
         22    1    1    0    0    0 -0.10555655215E+02  0.26277041513E+02  0.51824930461E+01  0.28788244161E+02  0.00000000000E+00 0. -1.
</event>
<event>
 5    1  0.2295577E-004  0.9118800E+02  0.7818608E-02  0.1130116E+00
         25   -1    0    0    0    0  0.00000000000E+00  0.00000000000E+00  0.99999998245E-14  0.12500000000E+03  0.12500000000E+03 0.  0.
        -13    1    3    3    0    0 -0.42016009391E+02 -0.16677294914E+02  0.26932378388E+02  0.52619781266E+02  0.10566000000E+00 0.  1.
         23    2    1    0    0    0 -0.34585039557E+01 -0.24716371370E+02  0.20862394105E+02  0.92471554739E+02  0.86561473444E+02 0.  0.
         13    1    3    3    0    0  0.38557505436E+02 -0.80390764569E+01 -0.60699842834E+01  0.39851773473E+02  0.10566000000E+00 0. -1.
         22    1    1    0    0    0  0.34585039557E+01  0.24716371370E+02 -0.20862394105E+02  0.32528445261E+02  0.00000000000E+00 0. -1.
</event>
<event>
 5    1  0.2295577E-004  0.9118800E+02  0.7818608E-02  0.1130116E+00
         25   -1    0    0    0    0  0.00000000000E+00  0.00000000000E+00  0.99999998245E-14  0.12500000000E+03  0.12500000000E+03 0.  0.
        -13    1    3    3    0    0 -0.31213901008E+02 -0.23836151066E+02  0.16720373448E+02  0.42685498311E+02  0.10566000000E+00 0. -1.
         23    2    1    0    0    0 -0.35544296906E+02  0.17092874698E+02  0.82708192166E+01  0.84701490617E+02  0.74500823178E+02 0.  0.
         13    1    3    3    0    0 -0.43303958986E+01  0.40929025765E+02 -0.84495542317E+01  0.42015992306E+02  0.10566000000E+00 0.  1.
         22    1    1    0    0    0  0.35544296906E+02 -0.17092874698E+02 -0.82708192166E+01  0.40298509383E+02  0.00000000000E+00 0.  1.
</event>
<event>
 5    1  0.2295577E-004  0.9118800E+02  0.7818608E-02  0.1130116E+00
         25   -1    0    0    0    0  0.00000000000E+00  0.00000000000E+00  0.99999998245E-14  0.12500000000E+03  0.12500000000E+03 0.  0.
        -13    1    3    3    0    0  0.38286821244E+02 -0.21933024986E+02 -0.97465767524E+00  0.44135013171E+02  0.10566000000E+00 0.  1.
         23    2    1    0    0    0 -0.13630839396E+01 -0.18499267747E+02 -0.27402944321E+02  0.91909181599E+02  0.85745526995E+02 0.  0.
         13    1    3    3    0    0 -0.39649905183E+02  0.34337572398E+01 -0.26428286646E+02  0.47774168427E+02  0.10566000000E+00 0. -1.
         22    1    1    0    0    0  0.13630839396E+01  0.18499267747E+02  0.27402944321E+02  0.33090818401E+02  0.00000000000E+00 0.  1.
</event>
<event>
 5    1  0.2295577E-004  0.9118800E+02  0.7818608E-02  0.1130116E+00
         25   -1    0    0    0    0  0.00000000000E+00  0.00000000000E+00  0.99999998245E-14  0.12500000000E+03  0.12500000000E+03 0.  0.
        -13    1    3    3    0    0  0.16909215084E+02 -0.19021891087E+02  0.54925963538E+02  0.60536158863E+02  0.10566000000E+00 0.  1.
         23    2    1    0    0    0 -0.99372838649E+00 -0.43453907188E+01  0.30448300620E+02  0.94227139762E+02  0.89060568943E+02 0.  0.
         13    1    3    3    0    0 -0.17902943470E+02  0.14676500368E+02 -0.24477662918E+02  0.33690980899E+02  0.10566000000E+00 0. -1.
         22    1    1    0    0    0  0.99372838649E+00  0.43453907188E+01 -0.30448300620E+02  0.30772860238E+02  0.00000000000E+00 0.  1.
</event>
<event>
 5    1  0.2295577E-004  0.9118800E+02  0.7818608E-02  0.1130116E+00
         25   -1    0    0    0    0  0.00000000000E+00  0.00000000000E+00  0.99999998245E-14  0.12500000000E+03  0.12500000000E+03 0.  0.
        -13    1    3    3    0    0 -0.46521996303E+02 -0.13557454994E+01 -0.32836429184E+02  0.56959427942E+02  0.10566000000E+00 0. -1.
         23    2    1    0    0    0 -0.10539830947E+02  0.12102960770E+02 -0.23581256214E+02  0.96475530848E+02  0.92162262949E+02 0.  0.
         13    1    3    3    0    0  0.35982165356E+02  0.13458706269E+02  0.92551729701E+01  0.39516102906E+02  0.10566000000E+00 0.  1.
         22    1    1    0    0    0  0.10539830947E+02 -0.12102960770E+02  0.23581256214E+02  0.28524469152E+02  0.00000000000E+00 0. -1.
</event>
<event>
 5    1  0.2295577E-004  0.9118800E+02  0.7818608E-02  0.1130116E+00
         25   -1    0    0    0    0  0.00000000000E+00  0.00000000000E+00  0.99999998245E-14  0.12500000000E+03  0.12500000000E+03 0.  0.
        -13    1    3    3    0    0  0.61719473610E+01  0.29202678111E+02  0.23904399978E+02  0.38240303940E+02  0.10566000000E+00 0. -1.
         23    2    1    0    0    0 -0.39827763828E+00 -0.22134940120E+02 -0.10610923953E+02  0.10044993062E+03  0.97403709663E+02 0.  0.
         13    1    3    3    0    0 -0.65702249993E+01 -0.51337618231E+02 -0.34515323931E+02  0.62209626685E+02  0.10566000000E+00 0.  1.
         22    1    1    0    0    0  0.39827763828E+00  0.22134940120E+02  0.10610923953E+02  0.24550069375E+02  0.00000000000E+00 0.  1.
</event>
<event>
 5    1  0.2295577E-004  0.9118800E+02  0.7818608E-02  0.1130116E+00
         25   -1    0    0    0    0  0.00000000000E+00  0.00000000000E+00  0.99999998245E-14  0.12500000000E+03  0.12500000000E+03 0.  0.
        -13    1    3    3    0    0  0.26566065300E+02  0.22018901869E+02  0.24443156101E+01  0.34591526533E+02  0.10566000000E+00 0.  1.
         23    2    1    0    0    0 -0.28747326001E+02 -0.43811399615E+01  0.32014098966E+00  0.95918981623E+02  0.91404296429E+02 0.  0.
         13    1    3    3    0    0 -0.55313391301E+02 -0.26400041831E+02 -0.21241746204E+01  0.61327455090E+02  0.10566000000E+00 0. -1.
         22    1    1    0    0    0  0.28747326001E+02  0.43811399615E+01 -0.32014098966E+00  0.29081018377E+02  0.00000000000E+00 0. -1.
</event>
<event>
 5    1  0.2295577E-004  0.9118800E+02  0.7818608E-02  0.1130116E+00
         25   -1    0    0    0    0  0.00000000000E+00  0.00000000000E+00  0.99999998245E-14  0.12500000000E+03  0.12500000000E+03 0.  0.
        -13    1    3    3    0    0  0.55713933167E+01  0.46198397532E+02 -0.22789016883E+02  0.51813924890E+02  0.10566000000E+00 0.  1.
         23    2    1    0    0    0 -0.18304979136E+02  0.22552193835E+02  0.51321193110E+01  0.95504028130E+02  0.90835053986E+02 0.  0.
         13    1    3    3    0    0 -0.23876372452E+02 -0.23646203697E+02  0.27921136193E+02  0.43690103240E+02  0.10566000000E+00 0. -1.
         22    1    1    0    0    0  0.18304979136E+02 -0.22552193835E+02 -0.51321193110E+01  0.29495971870E+02  0.00000000000E+00 0. -1.
</event>
<event>
 5    1  0.2295577E-004  0.9118800E+02  0.7818608E-02  0.1130116E+00
         25   -1    0    0    0    0  0.00000000000E+00  0.00000000000E+00  0.99999998245E-14  0.12500000000E+03  0.12500000000E+03 0.  0.
        -13    1    3    3    0    0 -0.82059567035E+01  0.16420114911E+02  0.13933245973E+02  0.23045702560E+02  0.10566000000E+00 0. -1.
         23    2    1    0    0    0  0.42863691453E+02  0.12152072427E+02 -0.95776100844E+01  0.79429181222E+02  0.65056093530E+02 0.  0.
         13    1    3    3    0    0  0.51069648156E+02 -0.42680424844E+01 -0.23510856057E+02  0.56383478662E+02  0.10566000000E+00 0.  1.
         22    1    1    0    0    0 -0.42863691453E+02 -0.12152072427E+02  0.95776100844E+01  0.45570818778E+02  0.00000000000E+00 0.  1.
</event>
<event>
 5    1  0.2295577E-004  0.9118800E+02  0.7818608E-02  0.1130116E+00
         25   -1    0    0    0    0  0.00000000000E+00  0.00000000000E+00  0.99999998245E-14  0.12500000000E+03  0.12500000000E+03 0.  0.
        -13    1    3    3    0    0  0.22065996680E+02 -0.20391334076E+02  0.29313270368E+02  0.41976108665E+02  0.10566000000E+00 0. -1.
         23    2    1    0    0    0  0.19442510829E+02 -0.13161233752E+01 -0.21301462333E+02  0.96129674307E+02  0.91691976622E+02 0.  0.
         13    1    3    3    0    0 -0.26234858514E+01  0.19075210701E+02 -0.50614732702E+02  0.54153565642E+02  0.10566000000E+00 0.  1.
         22    1    1    0    0    0 -0.19442510829E+02  0.13161233752E+01  0.21301462333E+02  0.28870325693E+02  0.00000000000E+00 0.  1.
</event>
<event>
 5    1  0.2295577E-004  0.9118800E+02  0.7818608E-02  0.1130116E+00
         25   -1    0    0    0    0  0.00000000000E+00  0.00000000000E+00  0.99999998245E-14  0.12500000000E+03  0.12500000000E+03 0.  0.
        -13    1    3    3    0    0 -0.36138930815E+02  0.33492093158E+02  0.30322243149E+02  0.57854923889E+02  0.10566000000E+00 0.  1.
         23    2    1    0    0    0 -0.24546873447E+02  0.10765553907E+02 -0.90744722856E+00  0.98180797785E+02  0.94446807497E+02 0.  0.
         13    1    3    3    0    0  0.11592057368E+02 -0.22726539251E+02 -0.31229690378E+02  0.40325873896E+02  0.10566000000E+00 0. -1.
         22    1    1    0    0    0  0.24546873447E+02 -0.10765553907E+02  0.90744722856E+00  0.26819202215E+02  0.00000000000E+00 0.  1.
</event>
<event>
 5    1  0.2295577E-004  0.9118800E+02  0.7818608E-02  0.1130116E+00
         25   -1    0    0    0    0  0.00000000000E+00  0.00000000000E+00  0.99999998245E-14  0.12500000000E+03  0.12500000000E+03 0.  0.
        -13    1    3    3    0    0 -0.56349055354E+02  0.41218171023E+01 -0.84762273944E+01  0.57131978876E+02  0.10566000000E+00 0.  1.
         23    2    1    0    0    0 -0.17057170947E+02  0.12698981038E+02 -0.16428504819E+02  0.98127951870E+02  0.94376840207E+02 0.  0.
         13    1    3    3    0    0  0.39291884407E+02  0.85771639361E+01 -0.79522774243E+01  0.40995972994E+02  0.10566000000E+00 0. -1.
         22    1    1    0    0    0  0.17057170947E+02 -0.12698981038E+02  0.16428504819E+02  0.26872048130E+02  0.00000000000E+00 0.  1.
</event>
<event>
 5    1  0.2295577E-004  0.9118800E+02  0.7818608E-02  0.1130116E+00
         25   -1    0    0    0    0  0.00000000000E+00  0.00000000000E+00  0.99999998245E-14  0.12500000000E+03  0.12500000000E+03 0.  0.
        -13    1    3    3    0    0 -0.30452532594E+02 -0.17625813562E+01 -0.26486737851E+02  0.40398290563E+02  0.10566000000E+00 0. -1.
         23    2    1    0    0    0  0.50608406980E+01  0.62862276252E+01  0.22304745308E+02  0.10128016801E+03  0.98463404383E+02 0.  0.
         13    1    3    3    0    0  0.35513373292E+02  0.80488089814E+01  0.48791483160E+02  0.60881877447E+02  0.10566000000E+00 0.  1.
         22    1    1    0    0    0 -0.50608406980E+01 -0.62862276252E+01 -0.22304745308E+02  0.23719831989E+02  0.00000000000E+00 0.  1.
</event>
<event>
 5    1  0.2295577E-004  0.9118800E+02  0.7818608E-02  0.1130116E+00
         25   -1    0    0    0    0  0.00000000000E+00  0.00000000000E+00  0.99999998245E-14  0.12500000000E+03  0.12500000000E+03 0.  0.
        -13    1    3    3    0    0 -0.72960925824E+01 -0.14037504185E+01  0.46866724693E+02  0.47452128822E+02  0.10566000000E+00 0. -1.
         23    2    1    0    0    0 -0.27019110128E+01  0.26717318230E+02  0.56513879951E+01  0.97558177852E+02  0.93619145814E+02 0.  0.
         13    1    3    3    0    0  0.45941815697E+01  0.28121068649E+02 -0.41215336698E+02  0.50106049030E+02  0.10566000000E+00 0.  1.
         22    1    1    0    0    0  0.27019110128E+01 -0.26717318230E+02 -0.56513879951E+01  0.27441822148E+02  0.00000000000E+00 0. -1.
</event>
<event>
 5    1  0.2295577E-004  0.9118800E+02  0.7818608E-02  0.1130116E+00
         25   -1    0    0    0    0  0.00000000000E+00  0.00000000000E+00  0.99999998245E-14  0.12500000000E+03  0.12500000000E+03 0.  0.
        -13    1    3    3    0    0  0.27177611793E+02 -0.18120031210E+02  0.26210239288E+02  0.41880137552E+02  0.10566000000E+00 0.  1.
         23    2    1    0    0    0  0.13426776125E+02  0.27376562450E+02  0.43362508033E+01  0.94201338346E+02  0.89024348278E+02 0.  0.
         13    1    3    3    0    0 -0.13750835667E+02  0.45496593659E+02 -0.21873988485E+02  0.52321200793E+02  0.10566000000E+00 0. -1.
         22    1    1    0    0    0 -0.13426776125E+02 -0.27376562450E+02 -0.43362508033E+01  0.30798661654E+02  0.00000000000E+00 0. -1.
</event>
<event>
 5    1  0.2295577E-004  0.9118800E+02  0.7818608E-02  0.1130116E+00
         25   -1    0    0    0    0  0.00000000000E+00  0.00000000000E+00  0.99999998245E-14  0.12500000000E+03  0.12500000000E+03 0.  0.
        -13    1    3    3    0    0 -0.35215393118E+02  0.24659766751E+01  0.34614513319E+02  0.49440678088E+02  0.10566000000E+00 0. -1.
         23    2    1    0    0    0  0.10390434607E+02  0.71728715675E+01  0.26007496296E+02  0.96089775486E+02  0.91637568014E+02 0.  0.
         13    1    3    3    0    0  0.45605827725E+02  0.47068948924E+01 -0.86070170228E+01  0.46649097398E+02  0.10566000000E+00 0.  1.
         22    1    1    0    0    0 -0.10390434607E+02 -0.71728715675E+01 -0.26007496296E+02  0.28910224514E+02  0.00000000000E+00 0. -1.
</event>
<event>
 5    1  0.2295577E-004  0.9118800E+02  0.7818608E-02  0.1130116E+00
         25   -1    0    0    0    0  0.00000000000E+00  0.00000000000E+00  0.99999998245E-14  0.12500000000E+03  0.12500000000E+03 0.  0.
        -13    1    3    3    0    0  0.25985122181E+02 -0.26488247648E+02  0.42181086241E+01  0.37345112701E+02  0.10566000000E+00 0.  1.
         23    2    1    0    0    0  0.95288913085E+01  0.27353784427E+02 -0.79855884773E+01  0.94953387622E+02  0.90074118955E+02 0.  0.
         13    1    3    3    0    0 -0.16456230872E+02  0.53842032075E+02 -0.12203697101E+02  0.57608274922E+02  0.10566000000E+00 0. -1.
         22    1    1    0    0    0 -0.95288913085E+01 -0.27353784427E+02  0.79855884773E+01  0.30046612378E+02  0.00000000000E+00 0. -1.
</event>
<event>
 5    1  0.2295577E-004  0.9118800E+02  0.7818608E-02  0.1130116E+00
         25   -1    0    0    0    0  0.00000000000E+00  0.00000000000E+00  0.99999998245E-14  0.12500000000E+03  0.12500000000E+03 0.  0.
        -13    1    3    3    0    0  0.56491599698E+01 -0.24796923696E+02  0.38956413536E+02  0.46523260341E+02  0.10566000000E+00 0.  1.
         23    2    1    0    0    0 -0.12954988562E+02  0.17576682406E+02  0.11808524843E+02  0.10017636707E+03  0.97052005474E+02 0.  0.
         13    1    3    3    0    0 -0.18604148532E+02  0.42373606102E+02 -0.27147888693E+02  0.53653106725E+02  0.10566000000E+00 0. -1.
         22    1    1    0    0    0  0.12954988562E+02 -0.17576682406E+02 -0.11808524843E+02  0.24823632934E+02  0.00000000000E+00 0. -1.
</event>
<event>
 5    1  0.2295577E-004  0.9118800E+02  0.7818608E-02  0.1130116E+00
         25   -1    0    0    0    0  0.00000000000E+00  0.00000000000E+00  0.99999998245E-14  0.12500000000E+03  0.12500000000E+03 0.  0.
        -13    1    3    3    0    0 -0.57147879336E+02 -0.11737940170E+02  0.39623900515E+01  0.58475388421E+02  0.10566000000E+00 0.  1.
         23    2    1    0    0    0 -0.20946859867E+02 -0.20219630021E+02  0.36520899428E+01  0.95658184490E+02  0.91046944608E+02 0.  0.
         13    1    3    3    0    0  0.36201019469E+02 -0.84816898504E+01 -0.31030010876E+00  0.37182796069E+02  0.10566000000E+00 0. -1.
         22    1    1    0    0    0  0.20946859867E+02  0.20219630021E+02 -0.36520899428E+01  0.29341815510E+02  0.00000000000E+00 0.  1.
</event>
<event>
 5    1  0.2295577E-004  0.9118800E+02  0.7818608E-02  0.1130116E+00
         25   -1    0    0    0    0  0.00000000000E+00  0.00000000000E+00  0.99999998245E-14  0.12500000000E+03  0.12500000000E+03 0.  0.
        -13    1    3    3    0    0  0.19102493059E+02  0.54769023410E+02 -0.19371125484E+01  0.58037184076E+02  0.10566000000E+00 0.  1.
         23    2    1    0    0    0  0.23010173119E+02  0.17185381971E+02 -0.45878479500E+01  0.95916434722E+02  0.91400813347E+02 0.  0.
         13    1    3    3    0    0  0.39076800605E+01 -0.37583641439E+02 -0.26507354016E+01  0.37879250646E+02  0.10566000000E+00 0. -1.
         22    1    1    0    0    0 -0.23010173119E+02 -0.17185381971E+02  0.45878479500E+01  0.29083565278E+02  0.00000000000E+00 0.  1.
</event>
<event>
 5    1  0.2295577E-004  0.9118800E+02  0.7818608E-02  0.1130116E+00
         25   -1    0    0    0    0  0.00000000000E+00  0.00000000000E+00  0.99999998245E-14  0.12500000000E+03  0.12500000000E+03 0.  0.
        -13    1    3    3    0    0  0.40975476853E+02  0.43179137334E+02  0.55807470524E+01  0.59787820716E+02  0.10566000000E+00 0. -1.
         23    2    1    0    0    0  0.75111000824E+01  0.26536461767E+02  0.31583666270E+01  0.97240754561E+02  0.93194359487E+02 0.  0.
         13    1    3    3    0    0 -0.33464376771E+02 -0.16642675566E+02 -0.24223804254E+01  0.37452933845E+02  0.10566000000E+00 0.  1.
         22    1    1    0    0    0 -0.75111000824E+01 -0.26536461767E+02 -0.31583666270E+01  0.27759245439E+02  0.00000000000E+00 0. -1.
</event>
<event>
 5    1  0.2295577E-004  0.9118800E+02  0.7818608E-02  0.1130116E+00
         25   -1    0    0    0    0  0.00000000000E+00  0.00000000000E+00  0.99999998245E-14  0.12500000000E+03  0.12500000000E+03 0.  0.
        -13    1    3    3    0    0 -0.28018988552E+02 -0.45206298117E+02  0.26517655527E+02  0.59429540866E+02  0.10566000000E+00 0. -1.
         23    2    1    0    0    0 -0.27514059280E+02 -0.18475260713E+02  0.16474302876E+02  0.87989712623E+02  0.79827489975E+02 0.  0.
         13    1    3    3    0    0  0.50492927181E+00  0.26731037404E+02 -0.10043352651E+02  0.28560171757E+02  0.10566000000E+00 0.  1.
         22    1    1    0    0    0  0.27514059280E+02  0.18475260713E+02 -0.16474302876E+02  0.37010287377E+02  0.00000000000E+00 0. -1.
</event>
<event>
 5    1  0.2295577E-004  0.9118800E+02  0.7818608E-02  0.1130116E+00
         25   -1    0    0    0    0  0.00000000000E+00  0.00000000000E+00  0.99999998245E-14  0.12500000000E+03  0.12500000000E+03 0.  0.
        -13    1    3    3    0    0 -0.82544643277E+01  0.13760292367E+02 -0.32158291479E+02  0.35939514496E+02  0.10566000000E+00 0. -1.
         23    2    1    0    0    0  0.58698561081E+01  0.14163939373E+02  0.25468040239E+02  0.95273017932E+02  0.90516597831E+02 0.  0.
         13    1    3    3    0    0  0.14124320436E+02  0.40364700639E+00  0.57626331718E+02  0.59333503436E+02  0.10566000000E+00 0.  1.
         22    1    1    0    0    0 -0.58698561081E+01 -0.14163939373E+02 -0.25468040239E+02  0.29726982068E+02  0.00000000000E+00 0.  1.
</event>
<event>
 5    1  0.2295577E-004  0.9118800E+02  0.7818608E-02  0.1130116E+00
         25   -1    0    0    0    0  0.00000000000E+00  0.00000000000E+00  0.99999998245E-14  0.12500000000E+03  0.12500000000E+03 0.  0.
        -13    1    3    3    0    0 -0.21973578655E+02  0.31904930121E+02 -0.45919035364E+01  0.39011017252E+02  0.10566000000E+00 0.  1.
         23    2    1    0    0    0 -0.20483585433E+00 -0.72697386321E+01  0.29052482187E+02  0.95051080508E+02  0.90209589995E+02 0.  0.
         13    1    3    3    0    0  0.21768742801E+02 -0.39174668753E+02  0.33644385723E+02  0.56040063256E+02  0.10566000000E+00 0. -1.
         22    1    1    0    0    0  0.20483585433E+00  0.72697386321E+01 -0.29052482187E+02  0.29948919492E+02  0.00000000000E+00 0. -1.
</event>
<event>
 5    1  0.2295577E-004  0.9118800E+02  0.7818608E-02  0.1130116E+00
         25   -1    0    0    0    0  0.00000000000E+00  0.00000000000E+00  0.99999998245E-14  0.12500000000E+03  0.12500000000E+03 0.  0.
        -13    1    3    3    0    0  0.27170692173E+02  0.10640743306E+02 -0.47260667696E+02  0.55543260674E+02  0.10566000000E+00 0. -1.
         23    2    1    0    0    0  0.68608758579E+00  0.21977609662E+02 -0.22637878334E+02  0.93441172739E+02  0.87950515546E+02 0.  0.
         13    1    3    3    0    0 -0.26484604587E+02  0.11336866356E+02  0.24622789362E+02  0.37897912065E+02  0.10566000000E+00 0.  1.
         22    1    1    0    0    0 -0.68608758579E+00 -0.21977609662E+02  0.22637878334E+02  0.31558827261E+02  0.00000000000E+00 0. -1.
</event>
<event>
 5    1  0.2295577E-004  0.9118800E+02  0.7818608E-02  0.1130116E+00
         25   -1    0    0    0    0  0.00000000000E+00  0.00000000000E+00  0.99999998245E-14  0.12500000000E+03  0.12500000000E+03 0.  0.
        -13    1    3    3    0    0 -0.41902189194E+02 -0.14164287945E+02 -0.34675593181E+02  0.56203455754E+02  0.10566000000E+00 0.  1.
         23    2    1    0    0    0 -0.71062364353E+01 -0.22531113936E+02 -0.14247104464E+02  0.97411421257E+02  0.93422991357E+02 0.  0.
         13    1    3    3    0    0  0.34795952759E+02 -0.83668259907E+01  0.20428488717E+02  0.41207965502E+02  0.10566000000E+00 0. -1.
         22    1    1    0    0    0  0.71062364353E+01  0.22531113936E+02  0.14247104464E+02  0.27588578743E+02  0.00000000000E+00 0.  1.
</event>
<event>
 5    1  0.2295577E-004  0.9118800E+02  0.7818608E-02  0.1130116E+00
         25   -1    0    0    0    0  0.00000000000E+00  0.00000000000E+00  0.99999998245E-14  0.12500000000E+03  0.12500000000E+03 0.  0.
        -13    1    3    3    0    0  0.31875690417E+01  0.43851755402E+02 -0.98138385509E+01  0.45049524297E+02  0.10566000000E+00 0.  1.
         23    2    1    0    0    0 -0.27855811456E+02  0.40215168158E+01 -0.86284724436E+01  0.95562449726E+02  0.90915413609E+02 0.  0.
         13    1    3    3    0    0 -0.31043380498E+02 -0.39830238586E+02  0.11853661074E+01  0.50512925429E+02  0.10566000000E+00 0. -1.
         22    1    1    0    0    0  0.27855811456E+02 -0.40215168158E+01  0.86284724436E+01  0.29437550274E+02  0.00000000000E+00 0.  1.
</event>
<event>
 5    1  0.2295577E-004  0.9118800E+02  0.7818608E-02  0.1130116E+00
         25   -1    0    0    0    0  0.00000000000E+00  0.00000000000E+00  0.99999998245E-14  0.12500000000E+03  0.12500000000E+03 0.  0.
        -13    1    3    3    0    0  0.11236556817E+02 -0.49720310650E+02 -0.16236131024E+02  0.53497594478E+02  0.10566000000E+00 0.  1.
         23    2    1    0    0    0 -0.17412241360E+02 -0.22525420340E+02  0.80559210763E+00  0.96517905812E+02  0.92219718352E+02 0.  0.
         13    1    3    3    0    0 -0.28648798178E+02  0.27194890310E+02  0.17041723131E+02  0.43020311334E+02  0.10566000000E+00 0. -1.
         22    1    1    0    0    0  0.17412241360E+02  0.22525420340E+02 -0.80559210763E+00  0.28482094188E+02  0.00000000000E+00 0.  1.
</event>
<event>
 5    1  0.2295577E-004  0.9118800E+02  0.7818608E-02  0.1130116E+00
         25   -1    0    0    0    0  0.00000000000E+00  0.00000000000E+00  0.99999998245E-14  0.12500000000E+03  0.12500000000E+03 0.  0.
        -13    1    3    3    0    0  0.16859519995E+02  0.33150554509E+02  0.20301320877E+02  0.42371658832E+02  0.10566000000E+00 0. -1.
         23    2    1    0    0    0  0.10211416324E+02 -0.20736702732E+02  0.16102252110E+02  0.96829689626E+02  0.92641364446E+02 0.  0.
         13    1    3    3    0    0 -0.66481036709E+01 -0.53887257242E+02 -0.41990687672E+01  0.54458030794E+02  0.10566000000E+00 0.  1.
         22    1    1    0    0    0 -0.10211416324E+02  0.20736702732E+02 -0.16102252110E+02  0.28170310374E+02  0.00000000000E+00 0.  1.
</event>
<event>
 5    1  0.2295577E-004  0.9118800E+02  0.7818608E-02  0.1130116E+00
         25   -1    0    0    0    0  0.00000000000E+00  0.00000000000E+00  0.99999998245E-14  0.12500000000E+03  0.12500000000E+03 0.  0.
        -13    1    3    3    0    0 -0.40747731076E+02 -0.20571884607E+02 -0.13622735542E+02  0.47635807034E+02  0.10566000000E+00 0.  1.
         23    2    1    0    0    0 -0.63407349571E+01  0.94956524005E+01 -0.27362709231E+02  0.95350544849E+02  0.90623596332E+02 0.  0.
         13    1    3    3    0    0  0.34406996119E+02  0.30067537008E+02 -0.13739973689E+02  0.47714737814E+02  0.10566000000E+00 0. -1.
         22    1    1    0    0    0  0.63407349571E+01 -0.94956524005E+01  0.27362709231E+02  0.29649455151E+02  0.00000000000E+00 0. -1.
</event>
<event>
 5    1  0.2295577E-004  0.9118800E+02  0.7818608E-02  0.1130116E+00
         25   -1    0    0    0    0  0.00000000000E+00  0.00000000000E+00  0.99999998245E-14  0.12500000000E+03  0.12500000000E+03 0.  0.
        -13    1    3    3    0    0 -0.35924897676E+02  0.24558294765E+02  0.13243549178E+02  0.45487480405E+02  0.10566000000E+00 0.  1.
         23    2    1    0    0    0  0.14444510348E+02  0.65698184943E+01  0.20078782512E+02  0.99407737470E+02  0.96056932949E+02 0.  0.
         13    1    3    3    0    0  0.50369408023E+02 -0.17988476271E+02  0.68352333340E+01  0.53920257065E+02  0.10566000000E+00 0. -1.
         22    1    1    0    0    0 -0.14444510348E+02 -0.65698184943E+01 -0.20078782512E+02  0.25592262530E+02  0.00000000000E+00 0. -1.
</event>
<event>
 5    1  0.2295577E-004  0.9118800E+02  0.7818608E-02  0.1130116E+00
         25   -1    0    0    0    0  0.00000000000E+00  0.00000000000E+00  0.99999998245E-14  0.12500000000E+03  0.12500000000E+03 0.  0.
        -13    1    3    3    0    0 -0.12742091952E+01  0.38345774145E+02 -0.17627584462E+01  0.38407557658E+02  0.10566000000E+00 0.  1.
         23    2    1    0    0    0 -0.23375391011E+02 -0.15715249349E+02 -0.92161216377E+00  0.96817960755E+02  0.92625537454E+02 0.  0.
         13    1    3    3    0    0 -0.22101181816E+02 -0.54061023494E+02  0.84114628238E+00  0.58410403097E+02  0.10566000000E+00 0. -1.
         22    1    1    0    0    0  0.23375391011E+02  0.15715249349E+02  0.92161216377E+00  0.28182039245E+02  0.00000000000E+00 0. -1.
</event>
<event>
 5    1  0.2295577E-004  0.9118800E+02  0.7818608E-02  0.1130116E+00
         25   -1    0    0    0    0  0.00000000000E+00  0.00000000000E+00  0.99999998245E-14  0.12500000000E+03  0.12500000000E+03 0.  0.
        -13    1    3    3    0    0 -0.42204081678E+02 -0.19182968067E+02 -0.17205011709E+02  0.49448906622E+02  0.10566000000E+00 0. -1.
         23    2    1    0    0    0 -0.24796478540E+02  0.12560077855E+02  0.10759028519E+02  0.95194336136E+02  0.90407875951E+02 0.  0.
         13    1    3    3    0    0  0.17407603138E+02  0.31743045922E+02  0.27964040228E+02  0.45745429514E+02  0.10566000000E+00 0.  1.
         22    1    1    0    0    0  0.24796478540E+02 -0.12560077855E+02 -0.10759028519E+02  0.29805663864E+02  0.00000000000E+00 0. -1.
</event>
<event>
 5    1  0.2295577E-004  0.9118800E+02  0.7818608E-02  0.1130116E+00
         25   -1    0    0    0    0  0.00000000000E+00  0.00000000000E+00  0.99999998245E-14  0.12500000000E+03  0.12500000000E+03 0.  0.
        -13    1    3    3    0    0 -0.23518610692E+02 -0.36496096874E+01  0.30419002512E+02  0.38623458903E+02  0.10566000000E+00 0.  1.
         23    2    1    0    0    0  0.27901092253E+02  0.59489292854E+01  0.11268994405E+02  0.94326706348E+02  0.89200205084E+02 0.  0.
         13    1    3    3    0    0  0.51419702945E+02  0.95985389728E+01 -0.19150008107E+02  0.55703247445E+02  0.10566000000E+00 0. -1.
         22    1    1    0    0    0 -0.27901092253E+02 -0.59489292854E+01 -0.11268994405E+02  0.30673293652E+02  0.00000000000E+00 0. -1.
</event>
<event>
 5    1  0.2295577E-004  0.9118800E+02  0.7818608E-02  0.1130116E+00
         25   -1    0    0    0    0  0.00000000000E+00  0.00000000000E+00  0.99999998245E-14  0.12500000000E+03  0.12500000000E+03 0.  0.
        -13    1    3    3    0    0  0.23208214236E+01 -0.34070028964E+02 -0.24733830107E+02  0.42165466930E+02  0.10566000000E+00 0. -1.
         23    2    1    0    0    0  0.29405195734E+02  0.24070190020E+01  0.29193334888E+01  0.95352373035E+02  0.90626117972E+02 0.  0.
         13    1    3    3    0    0  0.27084374311E+02  0.36477047966E+02  0.27653163596E+02  0.53186906105E+02  0.10566000000E+00 0.  1.
         22    1    1    0    0    0 -0.29405195734E+02 -0.24070190020E+01 -0.29193334888E+01  0.29647626965E+02  0.00000000000E+00 0.  1.
</event>
<event>
 5    1  0.2295577E-004  0.9118800E+02  0.7818608E-02  0.1130116E+00
         25   -1    0    0    0    0  0.00000000000E+00  0.00000000000E+00  0.99999998245E-14  0.12500000000E+03  0.12500000000E+03 0.  0.
        -13    1    3    3    0    0 -0.27782719571E+02  0.16998705839E+02  0.27492705031E+02  0.42622711093E+02  0.10566000000E+00 0.  1.
         23    2    1    0    0    0 -0.11932903223E+02  0.24376547004E+01 -0.23809110184E+02  0.98256588334E+02  0.94547062797E+02 0.  0.
         13    1    3    3    0    0  0.15849816348E+02 -0.14561051139E+02 -0.51301815215E+02  0.55633877241E+02  0.10566000000E+00 0. -1.
         22    1    1    0    0    0  0.11932903223E+02 -0.24376547004E+01  0.23809110184E+02  0.26743411666E+02  0.00000000000E+00 0. -1.
</event>
<event>
 5    1  0.2295577E-004  0.9118800E+02  0.7818608E-02  0.1130116E+00
         25   -1    0    0    0    0  0.00000000000E+00  0.00000000000E+00  0.99999998245E-14  0.12500000000E+03  0.12500000000E+03 0.  0.
        -13    1    3    3    0    0  0.78627465656E+01 -0.38698829428E+02  0.34014343107E+02  0.52119179614E+02  0.10566000000E+00 0. -1.
         23    2    1    0    0    0 -0.12931488056E+01 -0.29935789532E+02 -0.63019971407E+01  0.94380743041E+02  0.89275896860E+02 0.  0.
         13    1    3    3    0    0 -0.91558953712E+01  0.87630398952E+01 -0.40316340248E+02  0.42261563427E+02  0.10566000000E+00 0.  1.
         22    1    1    0    0    0  0.12931488056E+01  0.29935789532E+02  0.63019971407E+01  0.30619256959E+02  0.00000000000E+00 0. -1.
</event>
<event>
 5    1  0.2295577E-004  0.9118800E+02  0.7818608E-02  0.1130116E+00
         25   -1    0    0    0    0  0.00000000000E+00  0.00000000000E+00  0.99999998245E-14  0.12500000000E+03  0.12500000000E+03 0.  0.
        -13    1    3    3    0    0 -0.38585031350E+02  0.27169004062E+01 -0.34012319076E+02  0.51507622787E+02  0.10566000000E+00 0. -1.
         23    2    1    0    0    0  0.59162492765E+01 -0.73599584836E+01 -0.25346904188E+02  0.97951219135E+02  0.94142470669E+02 0.  0.
         13    1    3    3    0    0  0.44501280627E+02 -0.10076858890E+02  0.86654148884E+01  0.46443596348E+02  0.10566000000E+00 0.  1.
         22    1    1    0    0    0 -0.59162492765E+01  0.73599584836E+01  0.25346904188E+02  0.27048780865E+02  0.00000000000E+00 0. -1.
</event>
<event>
 5    1  0.2295577E-004  0.9118800E+02  0.7818608E-02  0.1130116E+00
         25   -1    0    0    0    0  0.00000000000E+00  0.00000000000E+00  0.99999998245E-14  0.12500000000E+03  0.12500000000E+03 0.  0.
        -13    1    3    3    0    0 -0.15072277198E+02  0.33180755793E+02 -0.10612259782E+01  0.36459202673E+02  0.10566000000E+00 0.  1.
         23    2    1    0    0    0 -0.10939906168E+02 -0.26316952951E+02 -0.42455103533E+01  0.96185282966E+02  0.91767754366E+02 0.  0.
         13    1    3    3    0    0  0.41323710302E+01 -0.59497708744E+02 -0.31842843751E+01  0.59726080293E+02  0.10566000000E+00 0. -1.
         22    1    1    0    0    0  0.10939906168E+02  0.26316952951E+02  0.42455103533E+01  0.28814717034E+02  0.00000000000E+00 0. -1.
</event>
<event>
 5    1  0.2295577E-004  0.9118800E+02  0.7818608E-02  0.1130116E+00
         25   -1    0    0    0    0  0.00000000000E+00  0.00000000000E+00  0.99999998245E-14  0.12500000000E+03  0.12500000000E+03 0.  0.
        -13    1    3    3    0    0 -0.31336459412E+02 -0.23143449285E+02  0.18727643218E+02  0.43224168214E+02  0.10566000000E+00 0.  1.
         23    2    1    0    0    0  0.21380531666E+02 -0.14142935899E+02  0.10341963940E+02  0.97357532884E+02  0.93350860847E+02 0.  0.
         13    1    3    3    0    0  0.52716991077E+02  0.90005133857E+01 -0.83856792785E+01  0.54133364670E+02  0.10566000000E+00 0. -1.
         22    1    1    0    0    0 -0.21380531666E+02  0.14142935899E+02 -0.10341963940E+02  0.27642467116E+02  0.00000000000E+00 0. -1.
</event>
<event>
 5    1  0.2295577E-004  0.9118800E+02  0.7818608E-02  0.1130116E+00
         25   -1    0    0    0    0  0.00000000000E+00  0.00000000000E+00  0.99999998245E-14  0.12500000000E+03  0.12500000000E+03 0.  0.
        -13    1    3    3    0    0  0.37574450379E+02  0.11500146341E+02  0.11043814361E+02  0.40817516912E+02  0.10566000000E+00 0.  1.
         23    2    1    0    0    0 -0.11287928795E+02 -0.68685859266E+01  0.26609895427E+02  0.95290046386E+02  0.90540110430E+02 0.  0.
         13    1    3    3    0    0 -0.48862379174E+02 -0.18368732268E+02  0.15566081065E+02  0.54472529475E+02  0.10566000000E+00 0. -1.
         22    1    1    0    0    0  0.11287928795E+02  0.68685859266E+01 -0.26609895427E+02  0.29709953614E+02  0.00000000000E+00 0. -1.
</event>
<event>
 5    1  0.2295577E-004  0.9118800E+02  0.7818608E-02  0.1130116E+00
         25   -1    0    0    0    0  0.00000000000E+00  0.00000000000E+00  0.99999998245E-14  0.12500000000E+03  0.12500000000E+03 0.  0.
        -13    1    3    3    0    0  0.56525455692E+02 -0.10351141926E+02 -0.40864793939E+01  0.57610621922E+02  0.10566000000E+00 0.  1.
         23    2    1    0    0    0  0.26297863834E+02  0.40483820686E+01 -0.16920046681E+02  0.93468190358E+02  0.87988906059E+02 0.  0.
         13    1    3    3    0    0 -0.30227591858E+02  0.14399523995E+02 -0.12833567287E+02  0.35857568436E+02  0.10566000000E+00 0. -1.
         22    1    1    0    0    0 -0.26297863834E+02 -0.40483820686E+01  0.16920046681E+02  0.31531809642E+02  0.00000000000E+00 0.  1.
</event>
<event>
 5    1  0.2295577E-004  0.9118800E+02  0.7818608E-02  0.1130116E+00
         25   -1    0    0    0    0  0.00000000000E+00  0.00000000000E+00  0.99999998245E-14  0.12500000000E+03  0.12500000000E+03 0.  0.
        -13    1    3    3    0    0 -0.33711130026E+02  0.41696157645E+02 -0.30558566686E+02  0.61715857054E+02  0.10566000000E+00 0. -1.
         23    2    1    0    0    0 -0.93933525940E+01  0.14890136051E+02 -0.31519803073E+01  0.10711463715E+03  0.10561088621E+03 0.  0.
         13    1    3    3    0    0  0.24317777432E+02 -0.26806021594E+02  0.27406586378E+02  0.45398780092E+02  0.10566000000E+00 0.  1.
         22    1    1    0    0    0  0.93933525940E+01 -0.14890136051E+02  0.31519803073E+01  0.17885362854E+02  0.00000000000E+00 0. -1.
</event>
<event>
 5    1  0.2295577E-004  0.9118800E+02  0.7818608E-02  0.1130116E+00
         25   -1    0    0    0    0  0.00000000000E+00  0.00000000000E+00  0.99999998245E-14  0.12500000000E+03  0.12500000000E+03 0.  0.
        -13    1    3    3    0    0  0.32530155702E+02  0.13287110943E+02  0.10381376827E+02  0.36640721828E+02  0.10566000000E+00 0. -1.
         23    2    1    0    0    0 -0.24220084198E+02  0.17713338647E+02 -0.21162567505E+01  0.94919218973E+02  0.90026689060E+02 0.  0.
         13    1    3    3    0    0 -0.56750239900E+02  0.44262277048E+01 -0.12497633577E+02  0.58278497145E+02  0.10566000000E+00 0.  1.
         22    1    1    0    0    0  0.24220084198E+02 -0.17713338647E+02  0.21162567505E+01  0.30080781027E+02  0.00000000000E+00 0.  1.
</event>
<event>
 5    1  0.2295577E-004  0.9118800E+02  0.7818608E-02  0.1130116E+00
         25   -1    0    0    0    0  0.00000000000E+00  0.00000000000E+00  0.99999998245E-14  0.12500000000E+03  0.12500000000E+03 0.  0.
        -13    1    3    3    0    0 -0.47415360572E+02 -0.22189374739E+02 -0.84778949776E+01  0.53032731749E+02  0.10566000000E+00 0. -1.
         23    2    1    0    0    0 -0.25063022377E+02 -0.11657988691E+02  0.20108392964E+02  0.90817968777E+02  0.84139718291E+02 0.  0.
         13    1    3    3    0    0  0.22352338195E+02  0.10531386048E+02  0.28586287941E+02  0.37785237027E+02  0.10566000000E+00 0.  1.
         22    1    1    0    0    0  0.25063022377E+02  0.11657988691E+02 -0.20108392964E+02  0.34182031223E+02  0.00000000000E+00 0. -1.
</event>
<event>
 5    1  0.2295577E-004  0.9118800E+02  0.7818608E-02  0.1130116E+00
         25   -1    0    0    0    0  0.00000000000E+00  0.00000000000E+00  0.99999998245E-14  0.12500000000E+03  0.12500000000E+03 0.  0.
        -13    1    3    3    0    0 -0.41474803934E+02 -0.21058314010E+01  0.42208510809E+02  0.59212865460E+02  0.10566000000E+00 0.  1.
         23    2    1    0    0    0 -0.11774138755E+02  0.10173616907E+02  0.24687649147E+02  0.95817593574E+02  0.91265537819E+02 0.  0.
         13    1    3    3    0    0  0.29700665180E+02  0.12279448308E+02 -0.17520861661E+02  0.36604728114E+02  0.10566000000E+00 0. -1.
         22    1    1    0    0    0  0.11774138755E+02 -0.10173616907E+02 -0.24687649147E+02  0.29182406426E+02  0.00000000000E+00 0.  1.
</event>
<event>
 5    1  0.2295577E-004  0.9118800E+02  0.7818608E-02  0.1130116E+00
         25   -1    0    0    0    0  0.00000000000E+00  0.00000000000E+00  0.99999998245E-14  0.12500000000E+03  0.12500000000E+03 0.  0.
        -13    1    3    3    0    0  0.57016055695E+02  0.14929556726E+02 -0.20562050573E+02  0.62422202451E+02  0.10566000000E+00 0.  1.
         23    2    1    0    0    0  0.26824768357E+02  0.47593177132E+01 -0.96628796004E+01  0.96093416932E+02  0.91642535064E+02 0.  0.
         13    1    3    3    0    0 -0.30191287338E+02 -0.10170239013E+02  0.10899170973E+02  0.33671214481E+02  0.10566000000E+00 0. -1.
         22    1    1    0    0    0 -0.26824768357E+02 -0.47593177132E+01  0.96628796004E+01  0.28906583068E+02  0.00000000000E+00 0.  1.
</event>
<event>
 5    1  0.2295577E-004  0.9118800E+02  0.7818608E-02  0.1130116E+00
         25   -1    0    0    0    0  0.00000000000E+00  0.00000000000E+00  0.99999998245E-14  0.12500000000E+03  0.12500000000E+03 0.  0.
        -13    1    3    3    0    0 -0.10833419144E+02  0.12740016238E+02  0.47232101595E+02  0.50105424549E+02  0.10566000000E+00 0.  1.
         23    2    1    0    0    0 -0.24327798878E+02 -0.10770372486E+02  0.91197693658E+01  0.96875048177E+02  0.92702546051E+02 0.  0.
         13    1    3    3    0    0 -0.13494379734E+02 -0.23510388724E+02 -0.38112332229E+02  0.46769623629E+02  0.10566000000E+00 0. -1.
         22    1    1    0    0    0  0.24327798878E+02  0.10770372486E+02 -0.91197693658E+01  0.28124951823E+02  0.00000000000E+00 0. -1.
</event>
<event>
 5    1  0.2295577E-004  0.9118800E+02  0.7818608E-02  0.1130116E+00
         25   -1    0    0    0    0  0.00000000000E+00  0.00000000000E+00  0.99999998245E-14  0.12500000000E+03  0.12500000000E+03 0.  0.
        -13    1    3    3    0    0 -0.39604047940E+02  0.34709776167E+02  0.25494121458E+02  0.58508209405E+02  0.10566000000E+00 0.  1.
         23    2    1    0    0    0 -0.28415744138E+02  0.55712284591E+01  0.56440664259E+01  0.95498329076E+02  0.90827211061E+02 0.  0.
         13    1    3    3    0    0  0.11188303802E+02 -0.29138547708E+02 -0.19850055032E+02  0.36990119672E+02  0.10566000000E+00 0. -1.
         22    1    1    0    0    0  0.28415744138E+02 -0.55712284591E+01 -0.56440664259E+01  0.29501670924E+02  0.00000000000E+00 0.  1.
</event>
<event>
 5    1  0.2295577E-004  0.9118800E+02  0.7818608E-02  0.1130116E+00
         25   -1    0    0    0    0  0.00000000000E+00  0.00000000000E+00  0.99999998245E-14  0.12500000000E+03  0.12500000000E+03 0.  0.
        -13    1    3    3    0    0  0.19913835139E+02 -0.10814197016E+02  0.24153900255E+02  0.33119929780E+02  0.10566000000E+00 0. -1.
         23    2    1    0    0    0 -0.24001562630E+02  0.29103726071E+01 -0.17475752608E+02  0.95168017052E+02  0.90371479256E+02 0.  0.
         13    1    3    3    0    0 -0.43915397770E+02  0.13724569623E+02 -0.41629652863E+02  0.62048087272E+02  0.10566000000E+00 0.  1.
         22    1    1    0    0    0  0.24001562630E+02 -0.29103726071E+01  0.17475752608E+02  0.29831982948E+02  0.00000000000E+00 0.  1.
</event>
<event>
 5    1  0.2295577E-004  0.9118800E+02  0.7818608E-02  0.1130116E+00
         25   -1    0    0    0    0  0.00000000000E+00  0.00000000000E+00  0.99999998245E-14  0.12500000000E+03  0.12500000000E+03 0.  0.
        -13    1    3    3    0    0  0.37849326165E+02  0.67956793469E+01 -0.44739900618E+02  0.58995106749E+02  0.10566000000E+00 0.  1.
         23    2    1    0    0    0  0.27741983159E+02 -0.10394163859E+01 -0.10892364473E+02  0.95178168738E+02  0.90385519772E+02 0.  0.
         13    1    3    3    0    0 -0.10107343006E+02 -0.78350957328E+01  0.33847536145E+02  0.36183061989E+02  0.10566000000E+00 0. -1.
         22    1    1    0    0    0 -0.27741983159E+02  0.10394163859E+01  0.10892364473E+02  0.29821831262E+02  0.00000000000E+00 0.  1.
</event>
<event>
 5    1  0.2295577E-004  0.9118800E+02  0.7818608E-02  0.1130116E+00
         25   -1    0    0    0    0  0.00000000000E+00  0.00000000000E+00  0.99999998245E-14  0.12500000000E+03  0.12500000000E+03 0.  0.
        -13    1    3    3    0    0  0.50650335289E+02 -0.11041472848E+02 -0.12339953539E+02  0.53288424680E+02  0.10566000000E+00 0.  1.
         23    2    1    0    0    0  0.23300059045E+02  0.13608889879E+02  0.98469557233E+01  0.96276191543E+02  0.91891500618E+02 0.  0.
         13    1    3    3    0    0 -0.27350276244E+02  0.24650362728E+02  0.22186909262E+02  0.42987766863E+02  0.10566000000E+00 0. -1.
         22    1    1    0    0    0 -0.23300059045E+02 -0.13608889879E+02 -0.98469557233E+01  0.28723808457E+02  0.00000000000E+00 0. -1.
</event>
<event>
 5    1  0.2295577E-004  0.9118800E+02  0.7818608E-02  0.1130116E+00
         25   -1    0    0    0    0  0.00000000000E+00  0.00000000000E+00  0.99999998245E-14  0.12500000000E+03  0.12500000000E+03 0.  0.
        -13    1    3    3    0    0  0.37879569540E+01 -0.52600677230E+02  0.58663414174E+00  0.52740261343E+02  0.10566000000E+00 0. -1.
         23    2    1    0    0    0  0.78349371381E+01 -0.20934301051E+02 -0.23375914043E+02  0.92657078706E+02  0.86828967958E+02 0.  0.
         13    1    3    3    0    0  0.40469801841E+01  0.31666376178E+02 -0.23962548185E+02  0.39916817363E+02  0.10566000000E+00 0.  1.
         22    1    1    0    0    0 -0.78349371381E+01  0.20934301051E+02  0.23375914043E+02  0.32342921294E+02  0.00000000000E+00 0. -1.
</event>
<event>
 5    1  0.2295577E-004  0.9118800E+02  0.7818608E-02  0.1130116E+00
         25   -1    0    0    0    0  0.00000000000E+00  0.00000000000E+00  0.99999998245E-14  0.12500000000E+03  0.12500000000E+03 0.  0.
        -13    1    3    3    0    0 -0.57052907639E+01  0.61637765229E+01  0.31261532253E+02  0.32370311191E+02  0.10566000000E+00 0.  1.
         23    2    1    0    0    0 -0.91842800357E+01 -0.32293085109E+02 -0.11051494338E+02  0.89654139242E+02  0.82392565263E+02 0.  0.
         13    1    3    3    0    0 -0.34789892719E+01 -0.38456861631E+02 -0.42313026591E+02  0.57283828052E+02  0.10566000000E+00 0. -1.
         22    1    1    0    0    0  0.91842800357E+01  0.32293085109E+02  0.11051494338E+02  0.35345860758E+02  0.00000000000E+00 0. -1.
</event>
<event>
 5    1  0.2295577E-004  0.9118800E+02  0.7818608E-02  0.1130116E+00
         25   -1    0    0    0    0  0.00000000000E+00  0.00000000000E+00  0.99999998245E-14  0.12500000000E+03  0.12500000000E+03 0.  0.
        -13    1    3    3    0    0 -0.30922394221E+02  0.35459488534E+02  0.13070412062E+02  0.48830488702E+02  0.10566000000E+00 0.  1.
         23    2    1    0    0    0 -0.27414110847E+02 -0.93957472720E+01 -0.10941240024E+01  0.95999816420E+02  0.91514775338E+02 0.  0.
         13    1    3    3    0    0  0.35082833738E+01 -0.44855235806E+02 -0.14164536065E+02  0.47169327718E+02  0.10566000000E+00 0. -1.
         22    1    1    0    0    0  0.27414110847E+02  0.93957472720E+01  0.10941240024E+01  0.29000183580E+02  0.00000000000E+00 0. -1.
</event>
<event>
 5    1  0.2295577E-004  0.9118800E+02  0.7818608E-02  0.1130116E+00
         25   -1    0    0    0    0  0.00000000000E+00  0.00000000000E+00  0.99999998245E-14  0.12500000000E+03  0.12500000000E+03 0.  0.
        -13    1    3    3    0    0 -0.89459374479E+01  0.36191858594E+02 -0.12631894398E+02  0.39363134345E+02  0.10566000000E+00 0.  1.
         23    2    1    0    0    0 -0.14127561057E+02 -0.19337109591E+02 -0.17490724321E+02  0.95344693122E+02  0.90615524501E+02 0.  0.
         13    1    3    3    0    0 -0.51816236091E+01 -0.55528968185E+02 -0.48588299229E+01  0.55981558778E+02  0.10566000000E+00 0. -1.
         22    1    1    0    0    0  0.14127561057E+02  0.19337109591E+02  0.17490724321E+02  0.29655306878E+02  0.00000000000E+00 0. -1.
</event>
<event>
 5    1  0.2295577E-004  0.9118800E+02  0.7818608E-02  0.1130116E+00
         25   -1    0    0    0    0  0.00000000000E+00  0.00000000000E+00  0.99999998245E-14  0.12500000000E+03  0.12500000000E+03 0.  0.
        -13    1    3    3    0    0  0.22713587197E+02  0.17629534366E+02 -0.18892849623E+02  0.34404337753E+02  0.10566000000E+00 0. -1.
         23    2    1    0    0    0 -0.25312786541E+02 -0.43774851896E+01  0.13098936519E+02  0.96164576004E+02  0.91739544369E+02 0.  0.
         13    1    3    3    0    0 -0.48026373739E+02 -0.22007019555E+02  0.31991786143E+02  0.61760238251E+02  0.10566000000E+00 0.  1.
         22    1    1    0    0    0  0.25312786541E+02  0.43774851896E+01 -0.13098936519E+02  0.28835423996E+02  0.00000000000E+00 0.  1.
</event>
<event>
 5    1  0.2295577E-004  0.9118800E+02  0.7818608E-02  0.1130116E+00
         25   -1    0    0    0    0  0.00000000000E+00  0.00000000000E+00  0.99999998245E-14  0.12500000000E+03  0.12500000000E+03 0.  0.
        -13    1    3    3    0    0  0.17311132191E+02 -0.82989459811E+01  0.32300281215E+02  0.37574820461E+02  0.10566000000E+00 0.  1.
         23    2    1    0    0    0 -0.16095295866E+02  0.27450946025E+02  0.80890151288E+01  0.92166402079E+02  0.86119687178E+02 0.  0.
         13    1    3    3    0    0 -0.33406428057E+02  0.35749892006E+02 -0.24211266086E+02  0.54591581617E+02  0.10566000000E+00 0. -1.
         22    1    1    0    0    0  0.16095295866E+02 -0.27450946025E+02 -0.80890151288E+01  0.32833597921E+02  0.00000000000E+00 0. -1.
</event>
<event>
 5    1  0.2295577E-004  0.9118800E+02  0.7818608E-02  0.1130116E+00
         25   -1    0    0    0    0  0.00000000000E+00  0.00000000000E+00  0.99999998245E-14  0.12500000000E+03  0.12500000000E+03 0.  0.
        -13    1    3    3    0    0 -0.30021289347E+02 -0.27576163424E+02 -0.89064021395E+01  0.41725984307E+02  0.10566000000E+00 0.  1.
         23    2    1    0    0    0 -0.72692347605E+01 -0.32994536359E+01  0.30599580339E+02  0.93376235436E+02  0.87858174685E+02 0.  0.
         13    1    3    3    0    0  0.22752054587E+02  0.24276709788E+02  0.39505982478E+02  0.51650251129E+02  0.10566000000E+00 0. -1.
         22    1    1    0    0    0  0.72692347605E+01  0.32994536359E+01 -0.30599580339E+02  0.31623764564E+02  0.00000000000E+00 0. -1.
</event>
<event>
 5    1  0.2295577E-004  0.9118800E+02  0.7818608E-02  0.1130116E+00
         25   -1    0    0    0    0  0.00000000000E+00  0.00000000000E+00  0.99999998245E-14  0.12500000000E+03  0.12500000000E+03 0.  0.
        -13    1    3    3    0    0  0.36649574823E+02  0.37439914714E+01 -0.49974479100E+02  0.62085976937E+02  0.10566000000E+00 0.  1.
         23    2    1    0    0    0  0.14971654582E+02 -0.22904997361E+01 -0.25566316522E+02  0.95284122587E+02  0.90531931641E+02 0.  0.
         13    1    3    3    0    0 -0.21677920241E+02 -0.60344912075E+01  0.24408162578E+02  0.33198145650E+02  0.10566000000E+00 0. -1.
         22    1    1    0    0    0 -0.14971654582E+02  0.22904997361E+01  0.25566316522E+02  0.29715877413E+02  0.00000000000E+00 0.  1.
</event>
<event>
 5    1  0.2295577E-004  0.9118800E+02  0.7818608E-02  0.1130116E+00
         25   -1    0    0    0    0  0.00000000000E+00  0.00000000000E+00  0.99999998245E-14  0.12500000000E+03  0.12500000000E+03 0.  0.
        -13    1    3    3    0    0  0.21055531155E+02  0.18341862472E+02 -0.54485603186E+02  0.61224598241E+02  0.10566000000E+00 0.  1.
         23    2    1    0    0    0  0.20403432090E+02  0.12624511833E+02 -0.28955053031E+02  0.87395832198E+02  0.78892065820E+02 0.  0.
         13    1    3    3    0    0 -0.65209906512E+00 -0.57173506391E+01  0.25530550156E+02  0.26171233956E+02  0.10566000000E+00 0. -1.
         22    1    1    0    0    0 -0.20403432090E+02 -0.12624511833E+02  0.28955053031E+02  0.37604167802E+02  0.00000000000E+00 0.  1.
</event>
<event>
 5    1  0.2295577E-004  0.9118800E+02  0.7818608E-02  0.1130116E+00
         25   -1    0    0    0    0  0.00000000000E+00  0.00000000000E+00  0.99999998245E-14  0.12500000000E+03  0.12500000000E+03 0.  0.
        -13    1    3    3    0    0  0.58895436138E+01 -0.33488252697E+02 -0.31439243793E+02  0.46309685887E+02  0.10566000000E+00 0.  1.
         23    2    1    0    0    0  0.51027380708E+01  0.21061966662E+01  0.17398106552E+02  0.10674710676E+03  0.10517498129E+03 0.  0.
         13    1    3    3    0    0 -0.78680554293E+00  0.35594449363E+02  0.48837350345E+02  0.60437420868E+02  0.10566000000E+00 0. -1.
         22    1    1    0    0    0 -0.51027380708E+01 -0.21061966662E+01 -0.17398106552E+02  0.18252893245E+02  0.00000000000E+00 0.  1.
</event>
<event>
 5    1  0.2295577E-004  0.9118800E+02  0.7818608E-02  0.1130116E+00
         25   -1    0    0    0    0  0.00000000000E+00  0.00000000000E+00  0.99999998245E-14  0.12500000000E+03  0.12500000000E+03 0.  0.
        -13    1    3    3    0    0 -0.22558145401E+02 -0.15813775328E+02 -0.48350839210E+02  0.55648542033E+02  0.10566000000E+00 0. -1.
         23    2    1    0    0    0 -0.22061298354E+02 -0.17249477958E+02 -0.82118023463E+01  0.95816458874E+02  0.91263983688E+02 0.  0.
         13    1    3    3    0    0  0.49684704734E+00 -0.14357026298E+01  0.40139036863E+02  0.40167916841E+02  0.10566000000E+00 0.  1.
         22    1    1    0    0    0  0.22061298354E+02  0.17249477958E+02  0.82118023463E+01  0.29183541126E+02  0.00000000000E+00 0. -1.
</event>
<event>
 5    1  0.2295577E-004  0.9118800E+02  0.7818608E-02  0.1130116E+00
         25   -1    0    0    0    0  0.00000000000E+00  0.00000000000E+00  0.99999998245E-14  0.12500000000E+03  0.12500000000E+03 0.  0.
        -13    1    3    3    0    0  0.13366762590E+02 -0.26338801773E+02 -0.15294314496E+02  0.33261539966E+02  0.10566000000E+00 0.  1.
         23    2    1    0    0    0 -0.10683585189E+02  0.20932793128E+02  0.17570471814E+02  0.95656477709E+02  0.91044601308E+02 0.  0.
         13    1    3    3    0    0 -0.24050347779E+02  0.47271594901E+02  0.32864786311E+02  0.62394937744E+02  0.10566000000E+00 0. -1.
         22    1    1    0    0    0  0.10683585189E+02 -0.20932793128E+02 -0.17570471814E+02  0.29343522291E+02  0.00000000000E+00 0. -1.
</event>
<event>
 5    1  0.2295577E-004  0.9118800E+02  0.7818608E-02  0.1130116E+00
         25   -1    0    0    0    0  0.00000000000E+00  0.00000000000E+00  0.99999998245E-14  0.12500000000E+03  0.12500000000E+03 0.  0.
        -13    1    3    3    0    0 -0.33261179462E+02 -0.32408111418E+01  0.28073586774E+02  0.43645691133E+02  0.10566000000E+00 0. -1.
         23    2    1    0    0    0  0.16228647860E+02  0.94626968222E+01  0.23456251336E+02  0.94948255138E+02  0.90066996089E+02 0.  0.
         13    1    3    3    0    0  0.49489827322E+02  0.12703507964E+02 -0.46173354379E+01  0.51302564005E+02  0.10566000000E+00 0.  1.
         22    1    1    0    0    0 -0.16228647860E+02 -0.94626968222E+01 -0.23456251336E+02  0.30051744862E+02  0.00000000000E+00 0.  1.
</event>
<event>
 5    1  0.2295577E-004  0.9118800E+02  0.7818608E-02  0.1130116E+00
         25   -1    0    0    0    0  0.00000000000E+00  0.00000000000E+00  0.99999998245E-14  0.12500000000E+03  0.12500000000E+03 0.  0.
        -13    1    3    3    0    0 -0.36076857840E+02 -0.55737973316E+01  0.14272831974E+02  0.39196068487E+02  0.10566000000E+00 0.  1.
         23    2    1    0    0    0  0.15846819532E+02 -0.19765886418E+02 -0.93711171104E+01  0.97988339720E+02  0.94191745552E+02 0.  0.
         13    1    3    3    0    0  0.51923677371E+02 -0.14192089087E+02 -0.23643949084E+02  0.58792271233E+02  0.10566000000E+00 0. -1.
         22    1    1    0    0    0 -0.15846819532E+02  0.19765886418E+02  0.93711171104E+01  0.27011660280E+02  0.00000000000E+00 0. -1.
</event>
<event>
 5    1  0.2295577E-004  0.9118800E+02  0.7818608E-02  0.1130116E+00
         25   -1    0    0    0    0  0.00000000000E+00  0.00000000000E+00  0.99999998245E-14  0.12500000000E+03  0.12500000000E+03 0.  0.
        -13    1    3    3    0    0  0.47088290216E+02  0.38633715268E+02  0.50183673930E+01  0.61115188016E+02  0.10566000000E+00 0.  1.
         23    2    1    0    0    0  0.22089108782E+02  0.17966315842E+02 -0.69532390159E+01  0.95690193373E+02  0.91090879583E+02 0.  0.
         13    1    3    3    0    0 -0.24999181434E+02 -0.20667399426E+02 -0.11971606409E+02  0.34575005357E+02  0.10566000000E+00 0. -1.
         22    1    1    0    0    0 -0.22089108782E+02 -0.17966315842E+02  0.69532390159E+01  0.29309806627E+02  0.00000000000E+00 0.  1.
</event>
<event>
 5    1  0.2295577E-004  0.9118800E+02  0.7818608E-02  0.1130116E+00
         25   -1    0    0    0    0  0.00000000000E+00  0.00000000000E+00  0.99999998245E-14  0.12500000000E+03  0.12500000000E+03 0.  0.
        -13    1    3    3    0    0  0.13683939397E+02  0.59039753293E+02 -0.12141154592E+02  0.61809072677E+02  0.10566000000E+00 0.  1.
         23    2    1    0    0    0  0.10306584156E+02  0.24501588593E+02 -0.10075105419E+02  0.96573581482E+02  0.92295153559E+02 0.  0.
         13    1    3    3    0    0 -0.33773552405E+01 -0.34538164700E+02  0.20660491739E+01  0.34764508805E+02  0.10566000000E+00 0. -1.
         22    1    1    0    0    0 -0.10306584156E+02 -0.24501588593E+02  0.10075105419E+02  0.28426418518E+02  0.00000000000E+00 0.  1.
</event>
<event>
 5    1  0.2295577E-004  0.9118800E+02  0.7818608E-02  0.1130116E+00
         25   -1    0    0    0    0  0.00000000000E+00  0.00000000000E+00  0.99999998245E-14  0.12500000000E+03  0.12500000000E+03 0.  0.
        -13    1    3    3    0    0 -0.12821335782E+02  0.47654272666E+02 -0.70201569866E+01  0.49845863647E+02  0.10566000000E+00 0.  1.
         23    2    1    0    0    0  0.11592697230E+02  0.91200783043E+01 -0.22567360098E+02  0.98039803429E+02  0.94260017278E+02 0.  0.
         13    1    3    3    0    0  0.24414033012E+02 -0.38534194362E+02 -0.15547203112E+02  0.48193939782E+02  0.10566000000E+00 0. -1.
         22    1    1    0    0    0 -0.11592697230E+02 -0.91200783043E+01  0.22567360098E+02  0.26960196571E+02  0.00000000000E+00 0. -1.
</event>
<event>
 5    1  0.2295577E-004  0.9118800E+02  0.7818608E-02  0.1130116E+00
         25   -1    0    0    0    0  0.00000000000E+00  0.00000000000E+00  0.99999998245E-14  0.12500000000E+03  0.12500000000E+03 0.  0.
        -13    1    3    3    0    0 -0.59855028992E+02 -0.12113011501E+02  0.74823534976E+01  0.61525168193E+02  0.10566000000E+00 0. -1.
         23    2    1    0    0    0 -0.25380812351E+02  0.25178758755E+01  0.45659638568E+01  0.99089126598E+02  0.95641422247E+02 0.  0.
         13    1    3    3    0    0  0.34474216642E+02  0.14630887376E+02 -0.29163896408E+01  0.37563958405E+02  0.10566000000E+00 0.  1.
         22    1    1    0    0    0  0.25380812351E+02 -0.25178758755E+01 -0.45659638568E+01  0.25910873402E+02  0.00000000000E+00 0. -1.
</event>
<event>
 4    1  0.2295577E-004  0.9118800E+02  0.7818608E-02  0.1130116E+00
         25   -1    0    0    0    0  0.00000000000E+00  0.00000000000E+00  0.99999998245E-14  0.12500000000E+03  0.12500000000E+03 0.  0.
        -13    1    1    0    0    0 -0.66976374269E+01 -0.10813339749E+02  0.23759061034E+01  0.12939967445E+02  0.10566000000E+00 0. -1.
         13    1    1    0    0    0 -0.77475876464E+01  0.54215904018E+02  0.23397745126E+02  0.59555478369E+02  0.10566000000E+00 0.  1.
         22    1    1    0    0    0  0.14445225073E+02 -0.43402564269E+02 -0.25773651230E+02  0.52504554186E+02  0.00000000000E+00 0.  1.
</event>
<event>
 5    1  0.2295577E-004  0.9118800E+02  0.7818608E-02  0.1130116E+00
         25   -1    0    0    0    0  0.00000000000E+00  0.00000000000E+00  0.99999998245E-14  0.12500000000E+03  0.12500000000E+03 0.  0.
        -13    1    3    3    0    0  0.40579011148E+02  0.35012919630E+02  0.26036065570E+02  0.59585640562E+02  0.10566000000E+00 0. -1.
         23    2    1    0    0    0  0.27664142162E+02  0.88696541309E+01  0.50469285381E+01  0.95513613079E+02  0.90848243075E+02 0.  0.
         13    1    3    3    0    0 -0.12914868986E+02 -0.26143265499E+02 -0.20989137032E+02  0.35927972518E+02  0.10566000000E+00 0.  1.
         22    1    1    0    0    0 -0.27664142162E+02 -0.88696541309E+01 -0.50469285381E+01  0.29486386921E+02  0.00000000000E+00 0. -1.
</event>
<event>
 5    1  0.2295577E-004  0.9118800E+02  0.7818608E-02  0.1130116E+00
         25   -1    0    0    0    0  0.00000000000E+00  0.00000000000E+00  0.99999998245E-14  0.12500000000E+03  0.12500000000E+03 0.  0.
        -13    1    3    3    0    0  0.36500776653E+02 -0.39099722817E+02 -0.31759989262E+02  0.62207741500E+02  0.10566000000E+00 0.  1.
         23    2    1    0    0    0  0.13682751663E+02 -0.19148639412E+02 -0.17300970655E+02  0.95790212771E+02  0.91228028548E+02 0.  0.
         13    1    3    3    0    0 -0.22818024990E+02  0.19951083405E+02  0.14459018607E+02  0.33582471270E+02  0.10566000000E+00 0. -1.
         22    1    1    0    0    0 -0.13682751663E+02  0.19148639412E+02  0.17300970655E+02  0.29209787229E+02  0.00000000000E+00 0.  1.
</event>
<event>
 5    1  0.2295577E-004  0.9118800E+02  0.7818608E-02  0.1130116E+00
         25   -1    0    0    0    0  0.00000000000E+00  0.00000000000E+00  0.99999998245E-14  0.12500000000E+03  0.12500000000E+03 0.  0.
        -13    1    3    3    0    0  0.53758549960E+02  0.21320500494E+01 -0.88546763706E+01  0.54524708058E+02  0.10566000000E+00 0. -1.
         23    2    1    0    0    0  0.23826523023E+02 -0.14578057783E+02  0.11943516077E+02  0.94621215555E+02  0.89611962866E+02 0.  0.
         13    1    3    3    0    0 -0.29932026937E+02 -0.16710107832E+02  0.20798192448E+02  0.40096507497E+02  0.10566000000E+00 0.  1.
         22    1    1    0    0    0 -0.23826523023E+02  0.14578057783E+02 -0.11943516077E+02  0.30378784445E+02  0.00000000000E+00 0. -1.
</event>
<event>
 5    1  0.2295577E-004  0.9118800E+02  0.7818608E-02  0.1130116E+00
         25   -1    0    0    0    0  0.00000000000E+00  0.00000000000E+00  0.99999998245E-14  0.12500000000E+03  0.12500000000E+03 0.  0.
        -13    1    3    3    0    0  0.56143427370E+01  0.54220754346E+02  0.15807717253E+02  0.56756551473E+02  0.10566000000E+00 0. -1.
         23    2    1    0    0    0 -0.13247013781E+02  0.36037856237E+02  0.17059472086E+02  0.82985287766E+02  0.71563412030E+02 0.  0.
         13    1    3    3    0    0 -0.18861356518E+02 -0.18182898109E+02  0.12517548323E+01  0.26228736293E+02  0.10566000000E+00 0.  1.
         22    1    1    0    0    0  0.13247013781E+02 -0.36037856237E+02 -0.17059472086E+02  0.42014712234E+02  0.00000000000E+00 0. -1.
</event>
<event>
 5    1  0.2295577E-004  0.9118800E+02  0.7818608E-02  0.1130116E+00
         25   -1    0    0    0    0  0.00000000000E+00  0.00000000000E+00  0.99999998245E-14  0.12500000000E+03  0.12500000000E+03 0.  0.
        -13    1    3    3    0    0  0.28457562552E+02  0.43929370856E+02 -0.27535349632E+02  0.59142447815E+02  0.10566000000E+00 0.  1.
         23    2    1    0    0    0  0.26369023738E+02  0.14165667093E+02 -0.15197946589E+02  0.91429639299E+02  0.85043576035E+02 0.  0.
         13    1    3    3    0    0 -0.20885388146E+01 -0.29763703763E+02  0.12337403043E+02  0.32287191484E+02  0.10566000000E+00 0. -1.
         22    1    1    0    0    0 -0.26369023738E+02 -0.14165667093E+02  0.15197946589E+02  0.33570360701E+02  0.00000000000E+00 0.  1.
</event>
<event>
 5    1  0.2295577E-004  0.9118800E+02  0.7818608E-02  0.1130116E+00
         25   -1    0    0    0    0  0.00000000000E+00  0.00000000000E+00  0.99999998245E-14  0.12500000000E+03  0.12500000000E+03 0.  0.
        -13    1    3    3    0    0  0.28445080191E+02  0.44167551312E+02  0.45621647198E+01  0.52732529684E+02  0.10566000000E+00 0. -1.
         23    2    1    0    0    0  0.19695928304E+01  0.20320158541E+02 -0.20322340726E+02  0.96193999381E+02  0.91779626527E+02 0.  0.
         13    1    3    3    0    0 -0.26475487360E+02 -0.23847392771E+02 -0.24884505446E+02  0.43461469697E+02  0.10566000000E+00 0.  1.
         22    1    1    0    0    0 -0.19695928304E+01 -0.20320158541E+02  0.20322340726E+02  0.28806000619E+02  0.00000000000E+00 0. -1.
</event>
<event>
 5    1  0.2295577E-004  0.9118800E+02  0.7818608E-02  0.1130116E+00
         25   -1    0    0    0    0  0.00000000000E+00  0.00000000000E+00  0.99999998245E-14  0.12500000000E+03  0.12500000000E+03 0.  0.
        -13    1    3    3    0    0  0.16586575632E+02 -0.31670320490E+02 -0.84690319254E+01  0.36740432182E+02  0.10566000000E+00 0. -1.
         23    2    1    0    0    0  0.29769178634E+02  0.18643656517E+00  0.25987090809E+02  0.85483324484E+02  0.75801260682E+02 0.  0.
         13    1    3    3    0    0  0.13182603002E+02  0.31856757055E+02  0.34456122735E+02  0.48742892302E+02  0.10566000000E+00 0.  1.
         22    1    1    0    0    0 -0.29769178634E+02 -0.18643656517E+00 -0.25987090809E+02  0.39516675516E+02  0.00000000000E+00 0.  1.
</event>
<event>
 5    1  0.2295577E-004  0.9118800E+02  0.7818608E-02  0.1130116E+00
         25   -1    0    0    0    0  0.00000000000E+00  0.00000000000E+00  0.99999998245E-14  0.12500000000E+03  0.12500000000E+03 0.  0.
        -13    1    3    3    0    0  0.24109183899E+02  0.74260718984E+01  0.29607833847E+02  0.38897741339E+02  0.10566000000E+00 0.  1.
         23    2    1    0    0    0 -0.14881224100E+02 -0.23704997380E+02 -0.18621832872E+00  0.97010494667E+02  0.92885002378E+02 0.  0.
         13    1    3    3    0    0 -0.38990407999E+02 -0.31131069279E+02 -0.29794052176E+02  0.58112753329E+02  0.10566000000E+00 0. -1.
         22    1    1    0    0    0  0.14881224100E+02  0.23704997380E+02  0.18621832872E+00  0.27989505333E+02  0.00000000000E+00 0. -1.
</event>
<event>
 5    1  0.2295577E-004  0.9118800E+02  0.7818608E-02  0.1130116E+00
         25   -1    0    0    0    0  0.00000000000E+00  0.00000000000E+00  0.99999998245E-14  0.12500000000E+03  0.12500000000E+03 0.  0.
        -13    1    3    3    0    0 -0.43567206822E+02 -0.12651372382E+00 -0.36529460391E+02  0.56855344134E+02  0.10566000000E+00 0.  1.
         23    2    1    0    0    0 -0.22883765494E+02 -0.16373514201E+02 -0.78115081874E+01  0.95797631079E+02  0.91238192495E+02 0.  0.
         13    1    3    3    0    0  0.20683441329E+02 -0.16247000477E+02  0.28717952204E+02  0.38942286945E+02  0.10566000000E+00 0. -1.
         22    1    1    0    0    0  0.22883765494E+02  0.16373514201E+02  0.78115081874E+01  0.29202368921E+02  0.00000000000E+00 0. -1.
</event>
<event>
 5    1  0.2295577E-004  0.9118800E+02  0.7818608E-02  0.1130116E+00
         25   -1    0    0    0    0  0.00000000000E+00  0.00000000000E+00  0.99999998245E-14  0.12500000000E+03  0.12500000000E+03 0.  0.
        -13    1    3    3    0    0 -0.20898868208E+02 -0.39459004838E+01  0.28695611494E+02  0.35718092139E+02  0.10566000000E+00 0. -1.
         23    2    1    0    0    0  0.29579052790E+02 -0.11148061822E+02  0.18668501760E+01  0.93334801818E+02  0.87799205318E+02 0.  0.
         13    1    3    3    0    0  0.50477920998E+02 -0.72021613384E+01 -0.26828761318E+02  0.57616709678E+02  0.10566000000E+00 0.  1.
         22    1    1    0    0    0 -0.29579052790E+02  0.11148061822E+02 -0.18668501760E+01  0.31665198182E+02  0.00000000000E+00 0.  1.
</event>
<event>
 5    1  0.2295577E-004  0.9118800E+02  0.7818608E-02  0.1130116E+00
         25   -1    0    0    0    0  0.00000000000E+00  0.00000000000E+00  0.99999998245E-14  0.12500000000E+03  0.12500000000E+03 0.  0.
        -13    1    3    3    0    0  0.40055880380E+01  0.57499332962E+02 -0.18140257148E+02  0.60425972231E+02  0.10566000000E+00 0. -1.
         23    2    1    0    0    0  0.10894426644E+02  0.27992019970E+02 -0.16644129175E+01  0.94916582902E+02  0.90023028862E+02 0.  0.
         13    1    3    3    0    0  0.68888386061E+01 -0.29507312992E+02  0.16475844230E+02  0.34490610671E+02  0.10566000000E+00 0.  1.
         22    1    1    0    0    0 -0.10894426644E+02 -0.27992019970E+02  0.16644129175E+01  0.30083417098E+02  0.00000000000E+00 0. -1.
</event>
<event>
 5    1  0.2295577E-004  0.9118800E+02  0.7818608E-02  0.1130116E+00
         25   -1    0    0    0    0  0.00000000000E+00  0.00000000000E+00  0.99999998245E-14  0.12500000000E+03  0.12500000000E+03 0.  0.
        -13    1    3    3    0    0 -0.18536844122E+02  0.51371530471E+02 -0.18221380035E+02  0.57573245413E+02  0.10566000000E+00 0. -1.
         23    2    1    0    0    0  0.85253721291E+01  0.27595466227E+02 -0.74546770904E+01  0.95171088911E+02  0.90375728089E+02 0.  0.
         13    1    3    3    0    0  0.27062216251E+02 -0.23776064244E+02  0.10766702945E+02  0.37597843498E+02  0.10566000000E+00 0.  1.
         22    1    1    0    0    0 -0.85253721291E+01 -0.27595466227E+02  0.74546770904E+01  0.29828911089E+02  0.00000000000E+00 0. -1.
</event>
<event>
 5    1  0.2295577E-004  0.9118800E+02  0.7818608E-02  0.1130116E+00
         25   -1    0    0    0    0  0.00000000000E+00  0.00000000000E+00  0.99999998245E-14  0.12500000000E+03  0.12500000000E+03 0.  0.
        -13    1    3    3    0    0 -0.31072141082E+02  0.27272069426E+02  0.51007805235E+01  0.41656606297E+02  0.10566000000E+00 0.  1.
         23    2    1    0    0    0  0.21081439086E+02  0.11397183656E+02  0.14518322337E+02  0.96980282787E+02  0.92844335836E+02 0.  0.
         13    1    3    3    0    0  0.52153580168E+02 -0.15874885770E+02  0.94175418132E+01  0.55323676490E+02  0.10566000000E+00 0. -1.
         22    1    1    0    0    0 -0.21081439086E+02 -0.11397183656E+02 -0.14518322337E+02  0.28019717213E+02  0.00000000000E+00 0. -1.
</event>
<event>
 5    1  0.2295577E-004  0.9118800E+02  0.7818608E-02  0.1130116E+00
         25   -1    0    0    0    0  0.00000000000E+00  0.00000000000E+00  0.99999998245E-14  0.12500000000E+03  0.12500000000E+03 0.  0.
        -13    1    3    3    0    0 -0.35932629995E+02 -0.20808770434E+02 -0.43041063105E+02  0.59805544079E+02  0.10566000000E+00 0. -1.
         23    2    1    0    0    0 -0.14961237060E+02 -0.20905887407E+02 -0.13704338505E+02  0.95867481460E+02  0.91333840196E+02 0.  0.
         13    1    3    3    0    0  0.20971392935E+02 -0.97116972527E-01  0.29336724600E+02  0.36061937380E+02  0.10566000000E+00 0.  1.
         22    1    1    0    0    0  0.14961237060E+02  0.20905887407E+02  0.13704338505E+02  0.29132518540E+02  0.00000000000E+00 0. -1.
</event>
<event>
 5    1  0.2295577E-004  0.9118800E+02  0.7818608E-02  0.1130116E+00
         25   -1    0    0    0    0  0.00000000000E+00  0.00000000000E+00  0.99999998245E-14  0.12500000000E+03  0.12500000000E+03 0.  0.
        -13    1    3    3    0    0 -0.35887500868E+02 -0.61898617635E+01  0.77622374205E+01  0.37235609314E+02  0.10566000000E+00 0.  1.
         23    2    1    0    0    0  0.20919790077E+02  0.10378493497E+02  0.15584493194E+02  0.96924616258E+02  0.92769359513E+02 0.  0.
         13    1    3    3    0    0  0.56807290945E+02  0.16568355260E+02  0.78222557736E+01  0.59689006944E+02  0.10566000000E+00 0. -1.
         22    1    1    0    0    0 -0.20919790077E+02 -0.10378493497E+02 -0.15584493194E+02  0.28075383742E+02  0.00000000000E+00 0. -1.
</event>
<event>
 5    1  0.2295577E-004  0.9118800E+02  0.7818608E-02  0.1130116E+00
         25   -1    0    0    0    0  0.00000000000E+00  0.00000000000E+00  0.99999998245E-14  0.12500000000E+03  0.12500000000E+03 0.  0.
        -13    1    3    3    0    0  0.14610778621E+02  0.39805807190E+02 -0.97384742291E+00  0.42413873683E+02  0.10566000000E+00 0.  1.
         23    2    1    0    0    0 -0.37219527521E+01 -0.16066388632E+01 -0.29029548782E+02  0.95688757733E+02  0.91088909497E+02 0.  0.
         13    1    3    3    0    0 -0.18332731374E+02 -0.41412446054E+02 -0.28055701359E+02  0.53274884050E+02  0.10566000000E+00 0. -1.
         22    1    1    0    0    0  0.37219527521E+01  0.16066388632E+01  0.29029548782E+02  0.29311242267E+02  0.00000000000E+00 0. -1.
</event>
<event>
 5    1  0.2295577E-004  0.9118800E+02  0.7818608E-02  0.1130116E+00
         25   -1    0    0    0    0  0.00000000000E+00  0.00000000000E+00  0.99999998245E-14  0.12500000000E+03  0.12500000000E+03 0.  0.
        -13    1    3    3    0    0 -0.44913833701E+02 -0.33550947654E+02  0.26435288394E+02  0.61981885924E+02  0.10566000000E+00 0. -1.
         23    2    1    0    0    0 -0.18563921466E+02 -0.20691688115E+02  0.14595913505E+02  0.93602455059E+02  0.88179440715E+02 0.  0.
         13    1    3    3    0    0  0.26349912234E+02  0.12859259539E+02 -0.11839374888E+02  0.31620569135E+02  0.10566000000E+00 0.  1.
         22    1    1    0    0    0  0.18563921466E+02  0.20691688115E+02 -0.14595913505E+02  0.31397544941E+02  0.00000000000E+00 0. -1.
</event>
<event>
 5    1  0.2295577E-004  0.9118800E+02  0.7818608E-02  0.1130116E+00
         25   -1    0    0    0    0  0.00000000000E+00  0.00000000000E+00  0.99999998245E-14  0.12500000000E+03  0.12500000000E+03 0.  0.
        -13    1    3    3    0    0  0.34469589164E+02 -0.24888359384E+02  0.44638927598E+02  0.61645989578E+02  0.10566000000E+00 0.  1.
         23    2    1    0    0    0  0.21353626862E+02 -0.68202327152E+01  0.19282162612E+02  0.95431524398E+02  0.90735225241E+02 0.  0.
         13    1    3    3    0    0 -0.13115962302E+02  0.18068126669E+02 -0.25356764986E+02  0.33785534819E+02  0.10566000000E+00 0. -1.
         22    1    1    0    0    0 -0.21353626862E+02  0.68202327152E+01 -0.19282162612E+02  0.29568475602E+02  0.00000000000E+00 0.  1.
</event>
<event>
 5    1  0.2295577E-004  0.9118800E+02  0.7818608E-02  0.1130116E+00
         25   -1    0    0    0    0  0.00000000000E+00  0.00000000000E+00  0.99999998245E-14  0.12500000000E+03  0.12500000000E+03 0.  0.
        -13    1    3    3    0    0  0.41129106650E+02  0.41881212949E+01  0.23206618187E+02  0.47409936358E+02  0.10566000000E+00 0.  1.
         23    2    1    0    0    0  0.20582618055E+02  0.11348835521E+02 -0.18921989651E+02  0.94825806953E+02  0.89896895043E+02 0.  0.
         13    1    3    3    0    0 -0.20546488595E+02  0.71607142257E+01 -0.42128607839E+02  0.47415870595E+02  0.10566000000E+00 0. -1.
         22    1    1    0    0    0 -0.20582618055E+02 -0.11348835521E+02  0.18921989651E+02  0.30174193047E+02  0.00000000000E+00 0.  1.
</event>
<event>
 5    1  0.2295577E-004  0.9118800E+02  0.7818608E-02  0.1130116E+00
         25   -1    0    0    0    0  0.00000000000E+00  0.00000000000E+00  0.99999998245E-14  0.12500000000E+03  0.12500000000E+03 0.  0.
        -13    1    3    3    0    0 -0.24339211956E+02 -0.17437701309E+02 -0.36217291636E+02  0.46991212403E+02  0.10566000000E+00 0. -1.
         23    2    1    0    0    0  0.14655632332E+02  0.67951212347E+01 -0.26569237824E+02  0.93905215386E+02  0.88607583459E+02 0.  0.
         13    1    3    3    0    0  0.38994844288E+02  0.24232822544E+02  0.96480538118E+01  0.46914002983E+02  0.10566000000E+00 0.  1.
         22    1    1    0    0    0 -0.14655632332E+02 -0.67951212347E+01  0.26569237824E+02  0.31094784614E+02  0.00000000000E+00 0.  1.
</event>
<event>
 5    1  0.2295577E-004  0.9118800E+02  0.7818608E-02  0.1130116E+00
         25   -1    0    0    0    0  0.00000000000E+00  0.00000000000E+00  0.99999998245E-14  0.12500000000E+03  0.12500000000E+03 0.  0.
        -13    1    3    3    0    0 -0.51598386230E+02  0.14581186630E+02 -0.23288597808E+02  0.58458313497E+02  0.10566000000E+00 0.  1.
         23    2    1    0    0    0 -0.14769808844E+02  0.95684459826E+00 -0.22906070214E+02  0.97728203991E+02  0.93845889616E+02 0.  0.
         13    1    3    3    0    0  0.36828577385E+02 -0.13624342032E+02  0.38252759368E+00  0.39269890494E+02  0.10566000000E+00 0. -1.
         22    1    1    0    0    0  0.14769808844E+02 -0.95684459826E+00  0.22906070214E+02  0.27271796009E+02  0.00000000000E+00 0.  1.
</event>
<event>
 5    1  0.2295577E-004  0.9118800E+02  0.7818608E-02  0.1130116E+00
         25   -1    0    0    0    0  0.00000000000E+00  0.00000000000E+00  0.99999998245E-14  0.12500000000E+03  0.12500000000E+03 0.  0.
        -13    1    3    3    0    0 -0.28015749027E+02  0.31303067005E+02  0.29522396478E+02  0.51345372287E+02  0.10566000000E+00 0.  1.
         23    2    1    0    0    0 -0.26181139586E+02 -0.76900736917E+01  0.55525062455E+01  0.97153642447E+02  0.93077444162E+02 0.  0.
         13    1    3    3    0    0  0.18346094413E+01 -0.38993140697E+02 -0.23969890233E+02  0.45808270159E+02  0.10566000000E+00 0. -1.
         22    1    1    0    0    0  0.26181139586E+02  0.76900736917E+01 -0.55525062455E+01  0.27846357553E+02  0.00000000000E+00 0.  1.
</event>
<event>
 5    1  0.2295577E-004  0.9118800E+02  0.7818608E-02  0.1130116E+00
         25   -1    0    0    0    0  0.00000000000E+00  0.00000000000E+00  0.99999998245E-14  0.12500000000E+03  0.12500000000E+03 0.  0.
        -13    1    3    3    0    0 -0.14213508401E+01 -0.29491527962E+02  0.46438814053E+02  0.55030401365E+02  0.10566000000E+00 0.  1.
         23    2    1    0    0    0  0.20234601855E+02 -0.18245410219E+02  0.18813909924E+02  0.91889619257E+02  0.85717004230E+02 0.  0.
         13    1    3    3    0    0  0.21655952695E+02  0.11246117743E+02 -0.27624904129E+02  0.36859217892E+02  0.10566000000E+00 0. -1.
         22    1    1    0    0    0 -0.20234601855E+02  0.18245410219E+02 -0.18813909924E+02  0.33110380743E+02  0.00000000000E+00 0.  1.
</event>
<event>
 5    1  0.2295577E-004  0.9118800E+02  0.7818608E-02  0.1130116E+00
         25   -1    0    0    0    0  0.00000000000E+00  0.00000000000E+00  0.99999998245E-14  0.12500000000E+03  0.12500000000E+03 0.  0.
        -13    1    3    3    0    0  0.23734004332E+02  0.22215621091E+02  0.15739558576E+02  0.36118992930E+02  0.10566000000E+00 0.  1.
         23    2    1    0    0    0 -0.18774598548E+02 -0.19790465337E+02  0.90725996948E+01  0.96251780331E+02  0.91858288046E+02 0.  0.
         13    1    3    3    0    0 -0.42508602880E+02 -0.42006086428E+02 -0.66669588815E+01  0.60132787401E+02  0.10566000000E+00 0. -1.
         22    1    1    0    0    0  0.18774598548E+02  0.19790465337E+02 -0.90725996948E+01  0.28748219669E+02  0.00000000000E+00 0. -1.
</event>
<event>
 5    1  0.2295577E-004  0.9118800E+02  0.7818608E-02  0.1130116E+00
         25   -1    0    0    0    0  0.00000000000E+00  0.00000000000E+00  0.99999998245E-14  0.12500000000E+03  0.12500000000E+03 0.  0.
        -13    1    3    3    0    0 -0.59375883000E+01 -0.49912269595E+02 -0.23125806682E+02  0.55329049419E+02  0.10566000000E+00 0.  1.
         23    2    1    0    0    0 -0.15748947490E+02 -0.23990681831E+02  0.61569973671E+01  0.95648836849E+02  0.91034110158E+02 0.  0.
         13    1    3    3    0    0 -0.98113591897E+01  0.25921587764E+02  0.29282804049E+02  0.40319787430E+02  0.10566000000E+00 0. -1.
         22    1    1    0    0    0  0.15748947490E+02  0.23990681831E+02 -0.61569973671E+01  0.29351163151E+02  0.00000000000E+00 0.  1.
</event>
<event>
 5    1  0.2295577E-004  0.9118800E+02  0.7818608E-02  0.1130116E+00
         25   -1    0    0    0    0  0.00000000000E+00  0.00000000000E+00  0.99999998245E-14  0.12500000000E+03  0.12500000000E+03 0.  0.
        -13    1    3    3    0    0 -0.29470082674E+02  0.12434198843E+02 -0.35693304859E+02  0.47928261491E+02  0.10566000000E+00 0.  1.
         23    2    1    0    0    0  0.82696563713E+01 -0.13007247156E+02 -0.26472253234E+02  0.94367404838E+02  0.89257219370E+02 0.  0.
         13    1    3    3    0    0  0.37739739046E+02 -0.25441445999E+02  0.92210516255E+01  0.46439143348E+02  0.10566000000E+00 0. -1.
         22    1    1    0    0    0 -0.82696563713E+01  0.13007247156E+02  0.26472253234E+02  0.30632595162E+02  0.00000000000E+00 0. -1.
</event>
<event>
 5    1  0.2295577E-004  0.9118800E+02  0.7818608E-02  0.1130116E+00
         25   -1    0    0    0    0  0.00000000000E+00  0.00000000000E+00  0.99999998245E-14  0.12500000000E+03  0.12500000000E+03 0.  0.
        -13    1    3    3    0    0 -0.28651321399E+02 -0.15736139565E+02 -0.36239275960E+02  0.48803899357E+02  0.10566000000E+00 0.  1.
         23    2    1    0    0    0 -0.10022842090E+02 -0.27284093062E+02  0.50004933994E+01  0.95506203499E+02  0.90838047507E+02 0.  0.
         13    1    3    3    0    0  0.18628479309E+02 -0.11547953497E+02  0.41239769360E+02  0.46702304142E+02  0.10566000000E+00 0. -1.
         22    1    1    0    0    0  0.10022842090E+02  0.27284093062E+02 -0.50004933994E+01  0.29493796501E+02  0.00000000000E+00 0. -1.
</event>
<event>
 5    1  0.2295577E-004  0.9118800E+02  0.7818608E-02  0.1130116E+00
         25   -1    0    0    0    0  0.00000000000E+00  0.00000000000E+00  0.99999998245E-14  0.12500000000E+03  0.12500000000E+03 0.  0.
        -13    1    3    3    0    0 -0.15141149691E+02 -0.48212508609E+01 -0.37103715975E+02  0.40363297400E+02  0.10566000000E+00 0.  1.
         23    2    1    0    0    0  0.18282806831E+02  0.22467103383E+02 -0.20408284156E+01  0.95962149862E+02  0.91463312128E+02 0.  0.
         13    1    3    3    0    0  0.33423956523E+02  0.27288354243E+02  0.35062887559E+02  0.55598852461E+02  0.10566000000E+00 0. -1.
         22    1    1    0    0    0 -0.18282806831E+02 -0.22467103383E+02  0.20408284156E+01  0.29037850138E+02  0.00000000000E+00 0. -1.
</event>
<event>
 5    1  0.2295577E-004  0.9118800E+02  0.7818608E-02  0.1130116E+00
         25   -1    0    0    0    0  0.00000000000E+00  0.00000000000E+00  0.99999998245E-14  0.12500000000E+03  0.12500000000E+03 0.  0.
        -13    1    3    3    0    0  0.53245089301E+01  0.71418168055E+01 -0.58591770689E+02  0.59265189607E+02  0.10566000000E+00 0. -1.
         23    2    1    0    0    0  0.24951480279E+01  0.16914138469E+02 -0.22635961446E+02  0.96632754903E+02  0.92375260356E+02 0.  0.
         13    1    3    3    0    0 -0.28293609022E+01  0.97723216630E+01  0.35955809243E+02  0.37367565296E+02  0.10566000000E+00 0.  1.
         22    1    1    0    0    0 -0.24951480279E+01 -0.16914138469E+02  0.22635961446E+02  0.28367245097E+02  0.00000000000E+00 0. -1.
</event>
<event>
 5    1  0.2295577E-004  0.9118800E+02  0.7818608E-02  0.1130116E+00
         25   -1    0    0    0    0  0.00000000000E+00  0.00000000000E+00  0.99999998245E-14  0.12500000000E+03  0.12500000000E+03 0.  0.
        -13    1    3    3    0    0  0.11823343114E+02 -0.15123591446E+02 -0.49499942549E+02  0.53092089213E+02  0.10566000000E+00 0.  1.
         23    2    1    0    0    0  0.19124516159E+02 -0.20628211567E+02 -0.77631305596E+01  0.95818902919E+02  0.91267331120E+02 0.  0.
         13    1    3    3    0    0  0.73011730452E+01 -0.55046201204E+01  0.41736811989E+02  0.42726813707E+02  0.10566000000E+00 0. -1.
         22    1    1    0    0    0 -0.19124516159E+02  0.20628211567E+02  0.77631305596E+01  0.29181097081E+02  0.00000000000E+00 0.  1.
</event>
<event>
 5    1  0.2295577E-004  0.9118800E+02  0.7818608E-02  0.1130116E+00
         25   -1    0    0    0    0  0.00000000000E+00  0.00000000000E+00  0.99999998245E-14  0.12500000000E+03  0.12500000000E+03 0.  0.
        -13    1    3    3    0    0 -0.86878053754E+01 -0.32447133113E+02 -0.29241996109E+02  0.44535378184E+02  0.10566000000E+00 0.  1.
         23    2    1    0    0    0  0.17953554776E+02 -0.93596052916E+01  0.14042806108E+02  0.10035993621E+03  0.97288149597E+02 0.  0.
         13    1    3    3    0    0  0.26641360151E+02  0.23087527821E+02  0.43284802217E+02  0.55824558024E+02  0.10566000000E+00 0. -1.
         22    1    1    0    0    0 -0.17953554776E+02  0.93596052916E+01 -0.14042806108E+02  0.24640063792E+02  0.00000000000E+00 0. -1.
</event>
<event>
 5    1  0.2295577E-004  0.9118800E+02  0.7818608E-02  0.1130116E+00
         25   -1    0    0    0    0  0.00000000000E+00  0.00000000000E+00  0.99999998245E-14  0.12500000000E+03  0.12500000000E+03 0.  0.
        -13    1    3    3    0    0 -0.30920614422E+02 -0.16050551226E+02 -0.17894794442E+02  0.39165538717E+02  0.10566000000E+00 0. -1.
         23    2    1    0    0    0  0.18283604412E+02 -0.13221788157E+02  0.14532020249E+02  0.98161865100E+02  0.94421746833E+02 0.  0.
         13    1    3    3    0    0  0.49204218834E+02  0.28287630687E+01  0.32426814691E+02  0.58996326382E+02  0.10566000000E+00 0.  1.
         22    1    1    0    0    0 -0.18283604412E+02  0.13221788157E+02 -0.14532020249E+02  0.26838134900E+02  0.00000000000E+00 0.  1.
</event>
<event>
 5    1  0.2295577E-004  0.9118800E+02  0.7818608E-02  0.1130116E+00
         25   -1    0    0    0    0  0.00000000000E+00  0.00000000000E+00  0.99999998245E-14  0.12500000000E+03  0.12500000000E+03 0.  0.
        -13    1    3    3    0    0  0.45945005420E+02 -0.86561656777E+00  0.28112481091E+02  0.53870358939E+02  0.10566000000E+00 0.  1.
         23    2    1    0    0    0  0.13609021127E+02 -0.22486948282E+02  0.89438028954E+01  0.97235635983E+02  0.93187493773E+02 0.  0.
         13    1    3    3    0    0 -0.32335984293E+02 -0.21621331714E+02 -0.19168678195E+02  0.43365277044E+02  0.10566000000E+00 0. -1.
         22    1    1    0    0    0 -0.13609021127E+02  0.22486948282E+02 -0.89438028954E+01  0.27764364017E+02  0.00000000000E+00 0.  1.
</event>
<event>
 5    1  0.2295577E-004  0.9118800E+02  0.7818608E-02  0.1130116E+00
         25   -1    0    0    0    0  0.00000000000E+00  0.00000000000E+00  0.99999998245E-14  0.12500000000E+03  0.12500000000E+03 0.  0.
        -13    1    3    3    0    0 -0.14932555422E+02  0.48793994126E+02  0.35155823572E+02  0.61965943624E+02  0.10566000000E+00 0.  1.
         23    2    1    0    0    0 -0.31908790781E+01  0.28709844027E+02  0.16948838479E+02  0.91508210272E+02  0.85158984071E+02 0.  0.
         13    1    3    3    0    0  0.11741676344E+02 -0.20084150098E+02 -0.18206985092E+02  0.29542266648E+02  0.10566000000E+00 0. -1.
         22    1    1    0    0    0  0.31908790781E+01 -0.28709844027E+02 -0.16948838479E+02  0.33491789728E+02  0.00000000000E+00 0.  1.
</event>
<event>
 5    1  0.2295577E-004  0.9118800E+02  0.7818608E-02  0.1130116E+00
         25   -1    0    0    0    0  0.00000000000E+00  0.00000000000E+00  0.99999998245E-14  0.12500000000E+03  0.12500000000E+03 0.  0.
        -13    1    3    3    0    0 -0.92928641806E+01 -0.52419577934E+02 -0.27515178378E+02  0.59927169804E+02  0.10566000000E+00 0.  1.
         23    2    1    0    0    0 -0.14390059431E+02 -0.19633499799E+02 -0.18828824021E+02  0.94225453069E+02  0.89058201572E+02 0.  0.
         13    1    3    3    0    0 -0.50971952499E+01  0.32786078135E+02  0.86863543569E+01  0.34298283265E+02  0.10566000000E+00 0. -1.
         22    1    1    0    0    0  0.14390059431E+02  0.19633499799E+02  0.18828824021E+02  0.30774546931E+02  0.00000000000E+00 0.  1.
</event>
<event>
 5    1  0.2295577E-004  0.9118800E+02  0.7818608E-02  0.1130116E+00
         25   -1    0    0    0    0  0.00000000000E+00  0.00000000000E+00  0.99999998245E-14  0.12500000000E+03  0.12500000000E+03 0.  0.
        -13    1    3    3    0    0  0.38672208372E+02 -0.13044719385E+02 -0.43444114573E+02  0.59607941243E+02  0.10566000000E+00 0.  1.
         23    2    1    0    0    0  0.12319951016E+02  0.38003999941E+01 -0.27307991413E+02  0.94801479702E+02  0.89863062076E+02 0.  0.
         13    1    3    3    0    0 -0.26352257356E+02  0.16845119379E+02  0.16136123160E+02  0.35193538460E+02  0.10566000000E+00 0. -1.
         22    1    1    0    0    0 -0.12319951016E+02 -0.38003999941E+01  0.27307991413E+02  0.30198520298E+02  0.00000000000E+00 0.  1.
</event>
<event>
 5    1  0.2295577E-004  0.9118800E+02  0.7818608E-02  0.1130116E+00
         25   -1    0    0    0    0  0.00000000000E+00  0.00000000000E+00  0.99999998245E-14  0.12500000000E+03  0.12500000000E+03 0.  0.
        -13    1    3    3    0    0 -0.41138915957E+02 -0.25938815066E+02  0.26966992994E+02  0.55609912860E+02  0.10566000000E+00 0.  1.
         23    2    1    0    0    0 -0.28462960386E+02 -0.18866744870E+01 -0.32874154102E+01  0.96285774351E+02  0.91904535186E+02 0.  0.
         13    1    3    3    0    0  0.12675955571E+02  0.24052140579E+02 -0.30254408405E+02  0.40675861491E+02  0.10566000000E+00 0. -1.
         22    1    1    0    0    0  0.28462960386E+02  0.18866744870E+01  0.32874154102E+01  0.28714225649E+02  0.00000000000E+00 0.  1.
</event>
<event>
 5    1  0.2295577E-004  0.9118800E+02  0.7818608E-02  0.1130116E+00
         25   -1    0    0    0    0  0.00000000000E+00  0.00000000000E+00  0.99999998245E-14  0.12500000000E+03  0.12500000000E+03 0.  0.
        -13    1    3    3    0    0 -0.30197699896E+02 -0.47489229285E+02 -0.19236168286E+02  0.59474106227E+02  0.10566000000E+00 0.  1.
         23    2    1    0    0    0 -0.24891034805E+02 -0.13660066845E+02 -0.84138517972E+01  0.95386591855E+02  0.90673303479E+02 0.  0.
         13    1    3    3    0    0  0.53066650906E+01  0.33829162440E+02  0.10822316489E+02  0.35912485628E+02  0.10566000000E+00 0. -1.
         22    1    1    0    0    0  0.24891034805E+02  0.13660066845E+02  0.84138517972E+01  0.29613408145E+02  0.00000000000E+00 0.  1.
</event>
<event>
 5    1  0.2295577E-004  0.9118800E+02  0.7818608E-02  0.1130116E+00
         25   -1    0    0    0    0  0.00000000000E+00  0.00000000000E+00  0.99999998245E-14  0.12500000000E+03  0.12500000000E+03 0.  0.
        -13    1    3    3    0    0  0.42940957142E+02  0.26807562638E+02 -0.23408950620E+02  0.55772406690E+02  0.10566000000E+00 0. -1.
         23    2    1    0    0    0  0.25430484283E+02  0.12558664383E+02  0.89773748302E+01  0.95250666549E+02  0.90485726152E+02 0.  0.
         13    1    3    3    0    0 -0.17510472859E+02 -0.14248898255E+02  0.32386325450E+02  0.39478259858E+02  0.10566000000E+00 0.  1.
         22    1    1    0    0    0 -0.25430484283E+02 -0.12558664383E+02 -0.89773748302E+01  0.29749333451E+02  0.00000000000E+00 0. -1.
</event>
<event>
 5    1  0.2295577E-004  0.9118800E+02  0.7818608E-02  0.1130116E+00
         25   -1    0    0    0    0  0.00000000000E+00  0.00000000000E+00  0.99999998245E-14  0.12500000000E+03  0.12500000000E+03 0.  0.
        -13    1    3    3    0    0 -0.26904237196E+02  0.46736058157E+02  0.31140674572E+02  0.62272384634E+02  0.10566000000E+00 0. -1.
         23    2    1    0    0    0 -0.15111449019E+02  0.18924704890E+02  0.12900961797E+02  0.97560335973E+02  0.93622027286E+02 0.  0.
         13    1    3    3    0    0  0.11792788177E+02 -0.27811353267E+02 -0.18239712775E+02  0.35287951339E+02  0.10566000000E+00 0.  1.
         22    1    1    0    0    0  0.15111449019E+02 -0.18924704890E+02 -0.12900961797E+02  0.27439664027E+02  0.00000000000E+00 0. -1.
</event>
<event>
 5    1  0.2295577E-004  0.9118800E+02  0.7818608E-02  0.1130116E+00
         25   -1    0    0    0    0  0.00000000000E+00  0.00000000000E+00  0.99999998245E-14  0.12500000000E+03  0.12500000000E+03 0.  0.
        -13    1    3    3    0    0 -0.51008197233E+02  0.24428812768E+02  0.43225686355E+01  0.56721238014E+02  0.10566000000E+00 0.  1.
         23    2    1    0    0    0 -0.27049170450E+02 -0.26267495665E+01 -0.10612426417E+02  0.95824993063E+02  0.91275671817E+02 0.  0.
         13    1    3    3    0    0  0.23959026783E+02 -0.27055562335E+02 -0.14934995052E+02  0.39103755048E+02  0.10566000000E+00 0. -1.
         22    1    1    0    0    0  0.27049170450E+02  0.26267495665E+01  0.10612426417E+02  0.29175006937E+02  0.00000000000E+00 0.  1.
</event>
<event>
 5    1  0.2295577E-004  0.9118800E+02  0.7818608E-02  0.1130116E+00
         25   -1    0    0    0    0  0.00000000000E+00  0.00000000000E+00  0.99999998245E-14  0.12500000000E+03  0.12500000000E+03 0.  0.
        -13    1    3    3    0    0 -0.21058621332E+02  0.41604589069E+02  0.16055952071E+02  0.49317462677E+02  0.10566000000E+00 0. -1.
         23    2    1    0    0    0 -0.16328467452E+02  0.11872028561E+02 -0.20198158936E+02  0.96442522242E+02  0.92117482383E+02 0.  0.
         13    1    3    3    0    0  0.47301538797E+01 -0.29732560508E+02 -0.36254111007E+02  0.47125059565E+02  0.10566000000E+00 0.  1.
         22    1    1    0    0    0  0.16328467452E+02 -0.11872028561E+02  0.20198158936E+02  0.28557477758E+02  0.00000000000E+00 0. -1.
</event>
<event>
 5    1  0.2295577E-004  0.9118800E+02  0.7818608E-02  0.1130116E+00
         25   -1    0    0    0    0  0.00000000000E+00  0.00000000000E+00  0.99999998245E-14  0.12500000000E+03  0.12500000000E+03 0.  0.
        -13    1    3    3    0    0  0.19825074120E+02  0.34835317117E+02 -0.14725755926E+02  0.42701193591E+02  0.10566000000E+00 0. -1.
         23    2    1    0    0    0 -0.25077482887E+02  0.50491153204E+01 -0.12238417593E+02  0.96642415854E+02  0.92388332399E+02 0.  0.
         13    1    3    3    0    0 -0.44902557006E+02 -0.29786201796E+02  0.24873383333E+01  0.53941222263E+02  0.10566000000E+00 0.  1.
         22    1    1    0    0    0  0.25077482887E+02 -0.50491153204E+01  0.12238417593E+02  0.28357584146E+02  0.00000000000E+00 0.  1.
</event>
<event>
 5    1  0.2295577E-004  0.9118800E+02  0.7818608E-02  0.1130116E+00
         25   -1    0    0    0    0  0.00000000000E+00  0.00000000000E+00  0.99999998245E-14  0.12500000000E+03  0.12500000000E+03 0.  0.
        -13    1    3    3    0    0 -0.10484555637E+02  0.29855416885E+01  0.34216002797E+02  0.35910797506E+02  0.10566000000E+00 0.  1.
         23    2    1    0    0    0  0.36050153271E+01  0.15335596447E+02 -0.23565288230E+02  0.96653933902E+02  0.92403914827E+02 0.  0.
         13    1    3    3    0    0  0.14089570964E+02  0.12350054759E+02 -0.57781291026E+02  0.60743136396E+02  0.10566000000E+00 0. -1.
         22    1    1    0    0    0 -0.36050153271E+01 -0.15335596447E+02  0.23565288230E+02  0.28346066098E+02  0.00000000000E+00 0. -1.
</event>
<event>
 5    1  0.2295577E-004  0.9118800E+02  0.7818608E-02  0.1130116E+00
         25   -1    0    0    0    0  0.00000000000E+00  0.00000000000E+00  0.99999998245E-14  0.12500000000E+03  0.12500000000E+03 0.  0.
        -13    1    3    3    0    0 -0.29733595897E+02  0.25753339177E+02 -0.34169026646E+02  0.52104268057E+02  0.10566000000E+00 0. -1.
         23    2    1    0    0    0 -0.27816944269E+02  0.88782245024E+01  0.55280192030E+01  0.95281920400E+02  0.90528890969E+02 0.  0.
         13    1    3    3    0    0  0.19166516284E+01 -0.16875114675E+02  0.39697045849E+02  0.43177652344E+02  0.10566000000E+00 0.  1.
         22    1    1    0    0    0  0.27816944269E+02 -0.88782245024E+01 -0.55280192030E+01  0.29718079600E+02  0.00000000000E+00 0. -1.
</event>
<event>
 5    1  0.2295577E-004  0.9118800E+02  0.7818608E-02  0.1130116E+00
         25   -1    0    0    0    0  0.00000000000E+00  0.00000000000E+00  0.99999998245E-14  0.12500000000E+03  0.12500000000E+03 0.  0.
        -13    1    3    3    0    0  0.33110871380E+02  0.32777408816E+02 -0.39800781938E+02  0.61276437063E+02  0.10566000000E+00 0.  1.
         23    2    1    0    0    0  0.14039827720E+02  0.21627315487E+02 -0.12650287179E+02  0.96279148632E+02  0.91895523057E+02 0.  0.
         13    1    3    3    0    0 -0.19071043659E+02 -0.11150093329E+02  0.27150494759E+02  0.35002711569E+02  0.10566000000E+00 0. -1.
         22    1    1    0    0    0 -0.14039827720E+02 -0.21627315487E+02  0.12650287179E+02  0.28720851368E+02  0.00000000000E+00 0.  1.
</event>
<event>
 5    1  0.2295577E-004  0.9118800E+02  0.7818608E-02  0.1130116E+00
         25   -1    0    0    0    0  0.00000000000E+00  0.00000000000E+00  0.99999998245E-14  0.12500000000E+03  0.12500000000E+03 0.  0.
        -13    1    3    3    0    0 -0.12536710972E+02  0.14091731554E+02 -0.17212515059E+02  0.25534836183E+02  0.10566000000E+00 0.  1.
         23    2    1    0    0    0  0.28060986226E+02 -0.27811937258E+02 -0.46272922375E+01  0.85221429947E+02  0.75368146367E+02 0.  0.
         13    1    3    3    0    0  0.40597697198E+02 -0.41903668812E+02  0.12585222821E+02  0.59686593764E+02  0.10566000000E+00 0. -1.
         22    1    1    0    0    0 -0.28060986226E+02  0.27811937258E+02  0.46272922375E+01  0.39778570053E+02  0.00000000000E+00 0. -1.
</event>
<event>
 5    1  0.2295577E-004  0.9118800E+02  0.7818608E-02  0.1130116E+00
         25   -1    0    0    0    0  0.00000000000E+00  0.00000000000E+00  0.99999998245E-14  0.12500000000E+03  0.12500000000E+03 0.  0.
        -13    1    3    3    0    0 -0.17064959913E+02  0.18304044839E+02  0.26458949350E+02  0.36418924738E+02  0.10566000000E+00 0.  1.
         23    2    1    0    0    0 -0.11299868031E+02 -0.11495155958E+02 -0.24465083330E+02  0.95702117306E+02  0.91107240801E+02 0.  0.
         13    1    3    3    0    0  0.57650918815E+01 -0.29799200797E+02 -0.50924032681E+02  0.59283192568E+02  0.10566000000E+00 0. -1.
         22    1    1    0    0    0  0.11299868031E+02  0.11495155958E+02  0.24465083330E+02  0.29297882694E+02  0.00000000000E+00 0. -1.
</event>
<event>
 5    1  0.2295577E-004  0.9118800E+02  0.7818608E-02  0.1130116E+00
         25   -1    0    0    0    0  0.00000000000E+00  0.00000000000E+00  0.99999998245E-14  0.12500000000E+03  0.12500000000E+03 0.  0.
        -13    1    3    3    0    0 -0.34716885116E+02 -0.28425619657E+02  0.28961478409E+02  0.53404647370E+02  0.10566000000E+00 0. -1.
         23    2    1    0    0    0 -0.25932032985E+02  0.38705929477E+01 -0.16049189961E+01  0.98731623775E+02  0.95173031599E+02 0.  0.
         13    1    3    3    0    0  0.87848521310E+01  0.32296212605E+02 -0.30566397406E+02  0.45326976405E+02  0.10566000000E+00 0.  1.
         22    1    1    0    0    0  0.25932032985E+02 -0.38705929477E+01  0.16049189961E+01  0.26268376225E+02  0.00000000000E+00 0. -1.
</event>
<event>
 5    1  0.2295577E-004  0.9118800E+02  0.7818608E-02  0.1130116E+00
         25   -1    0    0    0    0  0.00000000000E+00  0.00000000000E+00  0.99999998245E-14  0.12500000000E+03  0.12500000000E+03 0.  0.
        -13    1    3    3    0    0  0.31149908245E+02  0.20246779333E+02 -0.55777191257E+01  0.37568217575E+02  0.10566000000E+00 0. -1.
         23    2    1    0    0    0 -0.19882250126E+02  0.74578052018E+00 -0.22695099376E+02  0.94818422932E+02  0.89886627108E+02 0.  0.
         13    1    3    3    0    0 -0.51032158371E+02 -0.19500998813E+02 -0.17117380250E+02  0.57250205357E+02  0.10566000000E+00 0.  1.
         22    1    1    0    0    0  0.19882250126E+02 -0.74578052018E+00  0.22695099376E+02  0.30181577068E+02  0.00000000000E+00 0.  1.
</event>
<event>
 5    1  0.2295577E-004  0.9118800E+02  0.7818608E-02  0.1130116E+00
         25   -1    0    0    0    0  0.00000000000E+00  0.00000000000E+00  0.99999998245E-14  0.12500000000E+03  0.12500000000E+03 0.  0.
        -13    1    3    3    0    0  0.11805404378E+02 -0.13591960263E+02 -0.34869569686E+02  0.39242923062E+02  0.10566000000E+00 0. -1.
         23    2    1    0    0    0 -0.25293573603E+02  0.12172371699E+02  0.98626700503E+00  0.96912561153E+02  0.92753114709E+02 0.  0.
         13    1    3    3    0    0 -0.37098977981E+02  0.25764331962E+02  0.35855836691E+02  0.57669638091E+02  0.10566000000E+00 0.  1.
         22    1    1    0    0    0  0.25293573603E+02 -0.12172371699E+02 -0.98626700503E+00  0.28087438847E+02  0.00000000000E+00 0.  1.
</event>
<event>
 5    1  0.2295577E-004  0.9118800E+02  0.7818608E-02  0.1130116E+00
         25   -1    0    0    0    0  0.00000000000E+00  0.00000000000E+00  0.99999998245E-14  0.12500000000E+03  0.12500000000E+03 0.  0.
        -13    1    3    3    0    0 -0.48990851165E+01  0.24069350725E+02 -0.27025780193E+02  0.36520386613E+02  0.10566000000E+00 0.  1.
         23    2    1    0    0    0  0.59336111912E+01  0.80742703966E+01  0.28223952607E+02  0.95050157180E+02  0.90208310565E+02 0.  0.
         13    1    3    3    0    0  0.10832696308E+02 -0.15995080328E+02  0.55249732800E+02  0.58529770566E+02  0.10566000000E+00 0. -1.
         22    1    1    0    0    0 -0.59336111912E+01 -0.80742703966E+01 -0.28223952607E+02  0.29949842820E+02  0.00000000000E+00 0. -1.
</event>
<event>
 5    1  0.2295577E-004  0.9118800E+02  0.7818608E-02  0.1130116E+00
         25   -1    0    0    0    0  0.00000000000E+00  0.00000000000E+00  0.99999998245E-14  0.12500000000E+03  0.12500000000E+03 0.  0.
        -13    1    3    3    0    0 -0.40083526255E+02  0.38080166476E+02  0.25988373823E+02  0.61091692511E+02  0.10566000000E+00 0.  1.
         23    2    1    0    0    0 -0.22992363116E+02  0.14744718703E+02  0.40674463865E+01  0.97384793837E+02  0.93387357063E+02 0.  0.
         13    1    3    3    0    0  0.17091163139E+02 -0.23335447773E+02 -0.21920927436E+02  0.36293101326E+02  0.10566000000E+00 0. -1.
         22    1    1    0    0    0  0.22992363116E+02 -0.14744718703E+02 -0.40674463865E+01  0.27615206163E+02  0.00000000000E+00 0.  1.
</event>
<event>
 5    1  0.2295577E-004  0.9118800E+02  0.7818608E-02  0.1130116E+00
         25   -1    0    0    0    0  0.00000000000E+00  0.00000000000E+00  0.99999998245E-14  0.12500000000E+03  0.12500000000E+03 0.  0.
        -13    1    3    3    0    0  0.15549511903E+02  0.12002725862E+02  0.38335843466E+02  0.43075524452E+02  0.10566000000E+00 0. -1.
         23    2    1    0    0    0 -0.23635437779E+02 -0.97294932302E+01  0.23508945415E+02  0.90272957625E+02  0.83326102791E+02 0.  0.
         13    1    3    3    0    0 -0.39184949682E+02 -0.21732219092E+02 -0.14826898051E+02  0.47197433173E+02  0.10566000000E+00 0.  1.
         22    1    1    0    0    0  0.23635437779E+02  0.97294932302E+01 -0.23508945415E+02  0.34727042375E+02  0.00000000000E+00 0.  1.
</event>
<event>
 5    1  0.2295577E-004  0.9118800E+02  0.7818608E-02  0.1130116E+00
         25   -1    0    0    0    0  0.00000000000E+00  0.00000000000E+00  0.99999998245E-14  0.12500000000E+03  0.12500000000E+03 0.  0.
        -13    1    3    3    0    0  0.15732933461E+02 -0.46653923931E+02 -0.14292645769E+02  0.51267969538E+02  0.10566000000E+00 0.  1.
         23    2    1    0    0    0 -0.18260047684E+02 -0.23984059361E+02  0.85336638613E+00  0.94843861669E+02  0.89921996292E+02 0.  0.
         13    1    3    3    0    0 -0.33992981145E+02  0.22669864570E+02  0.15146012155E+02  0.43575892131E+02  0.10566000000E+00 0. -1.
         22    1    1    0    0    0  0.18260047684E+02  0.23984059361E+02 -0.85336638613E+00  0.30156138331E+02  0.00000000000E+00 0.  1.
</event>
<event>
 5    1  0.2295577E-004  0.9118800E+02  0.7818608E-02  0.1130116E+00
         25   -1    0    0    0    0  0.00000000000E+00  0.00000000000E+00  0.99999998245E-14  0.12500000000E+03  0.12500000000E+03 0.  0.
        -13    1    3    3    0    0 -0.30311415620E+02  0.25230952453E+02 -0.46524169422E+02  0.60990920497E+02  0.10566000000E+00 0.  1.
         23    2    1    0    0    0 -0.15151875079E+02  0.20794912270E+01 -0.23355985468E+02  0.97082162345E+02  0.92981399141E+02 0.  0.
         13    1    3    3    0    0  0.15159540541E+02 -0.23151461226E+02  0.23168183954E+02  0.36091241848E+02  0.10566000000E+00 0. -1.
         22    1    1    0    0    0  0.15151875079E+02 -0.20794912270E+01  0.23355985468E+02  0.27917837655E+02  0.00000000000E+00 0.  1.
</event>
<event>
 5    1  0.2295577E-004  0.9118800E+02  0.7818608E-02  0.1130116E+00
         25   -1    0    0    0    0  0.00000000000E+00  0.00000000000E+00  0.99999998245E-14  0.12500000000E+03  0.12500000000E+03 0.  0.
        -13    1    3    3    0    0  0.21349865458E+02  0.36651904434E+02  0.30812938356E+02  0.52427351525E+02  0.10566000000E+00 0. -1.
         23    2    1    0    0    0  0.14990476987E+02 -0.63892092390E+01  0.23280593465E+02  0.96583060913E+02  0.92307991140E+02 0.  0.
         13    1    3    3    0    0 -0.63593884708E+01 -0.43041113673E+02 -0.75323448912E+01  0.44155709388E+02  0.10566000000E+00 0.  1.
         22    1    1    0    0    0 -0.14990476987E+02  0.63892092390E+01 -0.23280593465E+02  0.28416939087E+02  0.00000000000E+00 0.  1.
</event>
<event>
 5    1  0.2295577E-004  0.9118800E+02  0.7818608E-02  0.1130116E+00
         25   -1    0    0    0    0  0.00000000000E+00  0.00000000000E+00  0.99999998245E-14  0.12500000000E+03  0.12500000000E+03 0.  0.
        -13    1    3    3    0    0 -0.29238225467E+02 -0.15164610718E+02  0.46120476899E+02  0.56674057558E+02  0.10566000000E+00 0. -1.
         23    2    1    0    0    0 -0.19223711832E+02  0.11056074260E+02  0.17613428265E+02  0.96680029487E+02  0.92439209060E+02 0.  0.
         13    1    3    3    0    0  0.10014513635E+02  0.26220684979E+02 -0.28507048634E+02  0.40005971929E+02  0.10566000000E+00 0.  1.
         22    1    1    0    0    0  0.19223711832E+02 -0.11056074260E+02 -0.17613428265E+02  0.28319970513E+02  0.00000000000E+00 0. -1.
</event>
<event>
 5    1  0.2295577E-004  0.9118800E+02  0.7818608E-02  0.1130116E+00
         25   -1    0    0    0    0  0.00000000000E+00  0.00000000000E+00  0.99999998245E-14  0.12500000000E+03  0.12500000000E+03 0.  0.
        -13    1    3    3    0    0  0.55865179540E+02 -0.29412169160E+01  0.16768282637E+01  0.55967776077E+02  0.10566000000E+00 0. -1.
         23    2    1    0    0    0  0.20804209351E+02 -0.15874831582E+02  0.14004497649E+02  0.95319175232E+02  0.90580316891E+02 0.  0.
         13    1    3    3    0    0 -0.35060970189E+02 -0.12933614666E+02  0.12327669385E+02  0.39351399154E+02  0.10566000000E+00 0.  1.
         22    1    1    0    0    0 -0.20804209351E+02  0.15874831582E+02 -0.14004497649E+02  0.29680824768E+02  0.00000000000E+00 0. -1.
</event>
<event>
 5    1  0.2295577E-004  0.9118800E+02  0.7818608E-02  0.1130116E+00
         25   -1    0    0    0    0  0.00000000000E+00  0.00000000000E+00  0.99999998245E-14  0.12500000000E+03  0.12500000000E+03 0.  0.
        -13    1    3    3    0    0  0.13110743258E+02 -0.32893691793E+02  0.38438279505E+02  0.52262788329E+02  0.10566000000E+00 0.  1.
         23    2    1    0    0    0  0.22984086544E+02 -0.21352190827E+02 -0.37718282483E-01  0.93628265746E+02  0.88216021428E+02 0.  0.
         13    1    3    3    0    0  0.98733432868E+01  0.11541500965E+02 -0.38475997788E+02  0.41365477418E+02  0.10566000000E+00 0. -1.
         22    1    1    0    0    0 -0.22984086544E+02  0.21352190827E+02  0.37718282483E-01  0.31371734254E+02  0.00000000000E+00 0.  1.
</event>
<event>
 5    1  0.2295577E-004  0.9118800E+02  0.7818608E-02  0.1130116E+00
         25   -1    0    0    0    0  0.00000000000E+00  0.00000000000E+00  0.99999998245E-14  0.12500000000E+03  0.12500000000E+03 0.  0.
        -13    1    3    3    0    0  0.90670828772E+01  0.33032234418E+02 -0.14787499511E+01  0.34286125007E+02  0.10566000000E+00 0. -1.
         23    2    1    0    0    0 -0.68487825276E+00 -0.15609057521E+02  0.28677862700E+02  0.92342205464E+02  0.86374483304E+02 0.  0.
         13    1    3    3    0    0 -0.97519611299E+01 -0.48641291940E+02  0.30156612651E+02  0.58056080457E+02  0.10566000000E+00 0.  1.
         22    1    1    0    0    0  0.68487825276E+00  0.15609057521E+02 -0.28677862700E+02  0.32657794536E+02  0.00000000000E+00 0.  1.
</event>
<event>
 5    1  0.2295577E-004  0.9118800E+02  0.7818608E-02  0.1130116E+00
         25   -1    0    0    0    0  0.00000000000E+00  0.00000000000E+00  0.99999998245E-14  0.12500000000E+03  0.12500000000E+03 0.  0.
        -13    1    3    3    0    0  0.30167365071E+02 -0.19241396104E+02  0.34080337257E+02  0.49414388501E+02  0.10566000000E+00 0. -1.
         23    2    1    0    0    0 -0.20876701333E+01 -0.29143673616E+02  0.24231521946E+01  0.95681341351E+02  0.91078731534E+02 0.  0.
         13    1    3    3    0    0 -0.32255035205E+02 -0.99022775117E+01 -0.31657185062E+02  0.46266952850E+02  0.10566000000E+00 0.  1.
         22    1    1    0    0    0  0.20876701333E+01  0.29143673616E+02 -0.24231521946E+01  0.29318658649E+02  0.00000000000E+00 0. -1.
</event>
<event>
 5    1  0.2295577E-004  0.9118800E+02  0.7818608E-02  0.1130116E+00
         25   -1    0    0    0    0  0.00000000000E+00  0.00000000000E+00  0.99999998245E-14  0.12500000000E+03  0.12500000000E+03 0.  0.
        -13    1    3    3    0    0 -0.44953693145E+02  0.19470850406E+02 -0.20264557278E+02  0.53015205258E+02  0.10566000000E+00 0. -1.
         23    2    1    0    0    0 -0.82366576854E+01 -0.96020225523E+00 -0.28050647902E+02  0.95749301446E+02  0.91171954907E+02 0.  0.
         13    1    3    3    0    0  0.36717035459E+02 -0.20431052661E+02 -0.77860906233E+01  0.42734096188E+02  0.10566000000E+00 0.  1.
         22    1    1    0    0    0  0.82366576854E+01  0.96020225523E+00  0.28050647902E+02  0.29250698554E+02  0.00000000000E+00 0. -1.
</event>
<event>
 5    1  0.2295577E-004  0.9118800E+02  0.7818608E-02  0.1130116E+00
         25   -1    0    0    0    0  0.00000000000E+00  0.00000000000E+00  0.99999998245E-14  0.12500000000E+03  0.12500000000E+03 0.  0.
        -13    1    3    3    0    0  0.32164295289E+02  0.15342731653E+02 -0.21321199867E+01  0.35700117727E+02  0.10566000000E+00 0.  1.
         23    2    1    0    0    0 -0.55522281146E+01 -0.95101180415E+01 -0.32869224042E+02  0.90335097413E+02  0.83419268478E+02 0.  0.
         13    1    3    3    0    0 -0.37716523404E+02 -0.24852849695E+02 -0.30737104056E+02  0.54634979687E+02  0.10566000000E+00 0. -1.
         22    1    1    0    0    0  0.55522281146E+01  0.95101180415E+01  0.32869224042E+02  0.34664902587E+02  0.00000000000E+00 0. -1.
</event>
<event>
 5    1  0.2295577E-004  0.9118800E+02  0.7818608E-02  0.1130116E+00
         25   -1    0    0    0    0  0.00000000000E+00  0.00000000000E+00  0.99999998245E-14  0.12500000000E+03  0.12500000000E+03 0.  0.
        -13    1    3    3    0    0  0.40307236376E+02 -0.51619330332E+01  0.77513314376E+01  0.41369229628E+02  0.10566000000E+00 0.  1.
         23    2    1    0    0    0 -0.38611573202E+01  0.20642150587E+02  0.22116425501E+02  0.94501750974E+02  0.89445166127E+02 0.  0.
         13    1    3    3    0    0 -0.44168393696E+02  0.25804083620E+02  0.14365094063E+02  0.53132521347E+02  0.10566000000E+00 0. -1.
         22    1    1    0    0    0  0.38611573202E+01 -0.20642150587E+02 -0.22116425501E+02  0.30498249026E+02  0.00000000000E+00 0. -1.
</event>
<event>
 5    1  0.2295577E-004  0.9118800E+02  0.7818608E-02  0.1130116E+00
         25   -1    0    0    0    0  0.00000000000E+00  0.00000000000E+00  0.99999998245E-14  0.12500000000E+03  0.12500000000E+03 0.  0.
        -13    1    3    3    0    0  0.13959541445E+02  0.20277959575E+02  0.22814890022E+02  0.33564785306E+02  0.10566000000E+00 0.  1.
         23    2    1    0    0    0 -0.21226552292E+02 -0.16220917785E+02 -0.12655844986E+02  0.95438959620E+02  0.90745467684E+02 0.  0.
         13    1    3    3    0    0 -0.35186093737E+02 -0.36498877361E+02 -0.35470735008E+02  0.61874174314E+02  0.10566000000E+00 0. -1.
         22    1    1    0    0    0  0.21226552292E+02  0.16220917785E+02  0.12655844986E+02  0.29561040380E+02  0.00000000000E+00 0. -1.
</event>
<event>
 5    1  0.2295577E-004  0.9118800E+02  0.7818608E-02  0.1130116E+00
         25   -1    0    0    0    0  0.00000000000E+00  0.00000000000E+00  0.99999998245E-14  0.12500000000E+03  0.12500000000E+03 0.  0.
        -13    1    3    3    0    0 -0.12318934371E+01  0.45750756589E+02  0.72081808163E+01  0.46331612584E+02  0.10566000000E+00 0. -1.
         23    2    1    0    0    0 -0.28296776039E+02  0.40929987876E+01  0.10525885557E+01  0.96389370578E+02  0.92045329292E+02 0.  0.
         13    1    3    3    0    0 -0.27064882602E+02 -0.41657757801E+02 -0.61555922606E+01  0.50057757994E+02  0.10566000000E+00 0.  1.
         22    1    1    0    0    0  0.28296776039E+02 -0.40929987876E+01 -0.10525885557E+01  0.28610629422E+02  0.00000000000E+00 0. -1.
</event>
<event>
 5    1  0.2295577E-004  0.9118800E+02  0.7818608E-02  0.1130116E+00
         25   -1    0    0    0    0  0.00000000000E+00  0.00000000000E+00  0.99999998245E-14  0.12500000000E+03  0.12500000000E+03 0.  0.
        -13    1    3    3    0    0 -0.56055262059E+02  0.22233907813E+01  0.12579317371E+02  0.57492488732E+02  0.10566000000E+00 0. -1.
         23    2    1    0    0    0 -0.14342211983E+02 -0.15397919966E+02  0.39942515534E+01  0.10358157267E+03  0.10134294829E+03 0.  0.
         13    1    3    3    0    0  0.41713050075E+02 -0.17621310748E+02 -0.85850658175E+01  0.46089083937E+02  0.10566000000E+00 0.  1.
         22    1    1    0    0    0  0.14342211983E+02  0.15397919966E+02 -0.39942515534E+01  0.21418427331E+02  0.00000000000E+00 0.  1.
</event>
<event>
 5    1  0.2295577E-004  0.9118800E+02  0.7818608E-02  0.1130116E+00
         25   -1    0    0    0    0  0.00000000000E+00  0.00000000000E+00  0.99999998245E-14  0.12500000000E+03  0.12500000000E+03 0.  0.
        -13    1    3    3    0    0 -0.25543351388E+02 -0.18018461776E+02 -0.34913272688E+02  0.46862304027E+02  0.10566000000E+00 0. -1.
         23    2    1    0    0    0  0.36162702773E+01  0.19748866796E+02 -0.19518596376E+02  0.96998736548E+02  0.92869177540E+02 0.  0.
         13    1    3    3    0    0  0.29159621665E+02  0.37767328572E+02  0.15394676312E+02  0.50136432521E+02  0.10566000000E+00 0.  1.
         22    1    1    0    0    0 -0.36162702773E+01 -0.19748866796E+02  0.19518596376E+02  0.28001263452E+02  0.00000000000E+00 0.  1.
</event>
<event>
 5    1  0.2295577E-004  0.9118800E+02  0.7818608E-02  0.1130116E+00
         25   -1    0    0    0    0  0.00000000000E+00  0.00000000000E+00  0.99999998245E-14  0.12500000000E+03  0.12500000000E+03 0.  0.
        -13    1    3    3    0    0  0.19461292695E+02 -0.22458327028E+02 -0.20194989115E+02  0.35930030832E+02  0.10566000000E+00 0.  1.
         23    2    1    0    0    0  0.48654026187E+01  0.15920272293E+02  0.23701014182E+02  0.96036828803E+02  0.91565316582E+02 0.  0.
         13    1    3    3    0    0 -0.14595890076E+02  0.38378599320E+02  0.43896003297E+02  0.60106797971E+02  0.10566000000E+00 0. -1.
         22    1    1    0    0    0 -0.48654026187E+01 -0.15920272293E+02 -0.23701014182E+02  0.28963171197E+02  0.00000000000E+00 0. -1.
</event>
<event>
 5    1  0.2295577E-004  0.9118800E+02  0.7818608E-02  0.1130116E+00
         25   -1    0    0    0    0  0.00000000000E+00  0.00000000000E+00  0.99999998245E-14  0.12500000000E+03  0.12500000000E+03 0.  0.
        -13    1    3    3    0    0 -0.59133228404E+02  0.14201749532E+02 -0.74265432152E+00  0.60819331554E+02  0.10566000000E+00 0.  1.
         23    2    1    0    0    0 -0.24957755373E+02  0.16495601439E+02  0.13940421385E+00  0.95083217860E+02  0.90254110516E+02 0.  0.
         13    1    3    3    0    0  0.34175473031E+02  0.22938519066E+01  0.88205853537E+00  0.34263886306E+02  0.10566000000E+00 0. -1.
         22    1    1    0    0    0  0.24957755373E+02 -0.16495601439E+02 -0.13940421385E+00  0.29916782140E+02  0.00000000000E+00 0.  1.
</event>
<event>
 5    1  0.2295577E-004  0.9118800E+02  0.7818608E-02  0.1130116E+00
         25   -1    0    0    0    0  0.00000000000E+00  0.00000000000E+00  0.99999998245E-14  0.12500000000E+03  0.12500000000E+03 0.  0.
        -13    1    3    3    0    0  0.79609927200E+01  0.48900802816E+02 -0.33519193918E+02  0.59818169865E+02  0.10566000000E+00 0.  1.
         23    2    1    0    0    0  0.15967543451E+02  0.18769635729E+02 -0.16569404488E+02  0.95304767481E+02  0.90560432145E+02 0.  0.
         13    1    3    3    0    0  0.80065507313E+01 -0.30131167087E+02  0.16949789429E+02  0.35486597616E+02  0.10566000000E+00 0. -1.
         22    1    1    0    0    0 -0.15967543451E+02 -0.18769635729E+02  0.16569404488E+02  0.29695232519E+02  0.00000000000E+00 0.  1.
</event>
<event>
 5    1  0.2295577E-004  0.9118800E+02  0.7818608E-02  0.1130116E+00
         25   -1    0    0    0    0  0.00000000000E+00  0.00000000000E+00  0.99999998245E-14  0.12500000000E+03  0.12500000000E+03 0.  0.
        -13    1    3    3    0    0 -0.13106302469E+02  0.22793492245E+01 -0.11704933300E+02  0.17719684672E+02  0.10566000000E+00 0. -1.
         23    2    1    0    0    0  0.33622893647E+02 -0.64514750220E+01  0.28867655865E+02  0.80217614375E+02  0.66553764685E+02 0.  0.
         13    1    3    3    0    0  0.46729196116E+02 -0.87308242465E+01  0.40572589164E+02  0.62497929703E+02  0.10566000000E+00 0.  1.
         22    1    1    0    0    0 -0.33622893647E+02  0.64514750220E+01 -0.28867655865E+02  0.44782385625E+02  0.00000000000E+00 0.  1.
</event>
<event>
 5    1  0.2295577E-004  0.9118800E+02  0.7818608E-02  0.1130116E+00
         25   -1    0    0    0    0  0.00000000000E+00  0.00000000000E+00  0.99999998245E-14  0.12500000000E+03  0.12500000000E+03 0.  0.
        -13    1    3    3    0    0 -0.10019566416E+02  0.44686813245E+02 -0.29700001972E+01  0.45892647062E+02  0.10566000000E+00 0.  1.
         23    2    1    0    0    0 -0.22165832106E+02  0.86298881729E+00  0.18437443327E+02  0.96155448018E+02  0.91727106160E+02 0.  0.
         13    1    3    3    0    0 -0.12146265690E+02 -0.43823824427E+02  0.21407443524E+02  0.50262800956E+02  0.10566000000E+00 0. -1.
         22    1    1    0    0    0  0.22165832106E+02 -0.86298881729E+00 -0.18437443327E+02  0.28844551982E+02  0.00000000000E+00 0. -1.
</event>
<event>
 5    1  0.2295577E-004  0.9118800E+02  0.7818608E-02  0.1130116E+00
         25   -1    0    0    0    0  0.00000000000E+00  0.00000000000E+00  0.99999998245E-14  0.12500000000E+03  0.12500000000E+03 0.  0.
        -13    1    3    3    0    0 -0.37711795037E+02 -0.33708916077E+02 -0.16599806751E+02  0.53235657751E+02  0.10566000000E+00 0. -1.
         23    2    1    0    0    0 -0.17723107407E+02  0.69079128675E+01 -0.18392768866E+02  0.98540186265E+02  0.94921265090E+02 0.  0.
         13    1    3    3    0    0  0.19988687630E+02  0.40616828945E+02 -0.17929621146E+01  0.45304528514E+02  0.10566000000E+00 0.  1.
         22    1    1    0    0    0  0.17723107407E+02 -0.69079128675E+01  0.18392768866E+02  0.26459813735E+02  0.00000000000E+00 0.  1.
</event>
<event>
 5    1  0.2295577E-004  0.9118800E+02  0.7818608E-02  0.1130116E+00
         25   -1    0    0    0    0  0.00000000000E+00  0.00000000000E+00  0.99999998245E-14  0.12500000000E+03  0.12500000000E+03 0.  0.
        -13    1    3    3    0    0  0.18444016182E+02 -0.21831230822E+02 -0.21464743667E+02  0.35742562259E+02  0.10566000000E+00 0.  1.
         23    2    1    0    0    0 -0.20255391988E+02  0.16353635606E+02  0.82385982673E+01  0.97694381466E+02  0.93800828175E+02 0.  0.
         13    1    3    3    0    0 -0.38699408171E+02  0.38184866428E+02  0.29703341934E+02  0.61951819206E+02  0.10566000000E+00 0. -1.
         22    1    1    0    0    0  0.20255391988E+02 -0.16353635606E+02 -0.82385982673E+01  0.27305618534E+02  0.00000000000E+00 0. -1.
</event>
<event>
 5    1  0.2295577E-004  0.9118800E+02  0.7818608E-02  0.1130116E+00
         25   -1    0    0    0    0  0.00000000000E+00  0.00000000000E+00  0.99999998245E-14  0.12500000000E+03  0.12500000000E+03 0.  0.
        -13    1    3    3    0    0 -0.13385514518E+02  0.12201887191E+02 -0.49760415230E+02  0.52954396776E+02  0.10566000000E+00 0.  1.
         23    2    1    0    0    0  0.18066186527E+02  0.13346657294E+01 -0.23404130708E+02  0.95404024557E+02  0.90697332591E+02 0.  0.
         13    1    3    3    0    0  0.31451701045E+02 -0.10867221461E+02  0.26356284522E+02  0.42449627781E+02  0.10566000000E+00 0. -1.
         22    1    1    0    0    0 -0.18066186527E+02 -0.13346657294E+01  0.23404130708E+02  0.29595975443E+02  0.00000000000E+00 0. -1.
</event>
<event>
 5    1  0.2295577E-004  0.9118800E+02  0.7818608E-02  0.1130116E+00
         25   -1    0    0    0    0  0.00000000000E+00  0.00000000000E+00  0.99999998245E-14  0.12500000000E+03  0.12500000000E+03 0.  0.
        -13    1    3    3    0    0 -0.37010584842E+02 -0.23762661450E+02  0.11091097724E+02  0.45359354959E+02  0.10566000000E+00 0. -1.
         23    2    1    0    0    0  0.73485055208E+01 -0.24586634217E+02 -0.13414358786E+02  0.96044031062E+02  0.91575148187E+02 0.  0.
         13    1    3    3    0    0  0.44359090362E+02 -0.82397276635E+00 -0.24505456510E+02  0.50684676103E+02  0.10566000000E+00 0.  1.
         22    1    1    0    0    0 -0.73485055208E+01  0.24586634217E+02  0.13414358786E+02  0.28955968938E+02  0.00000000000E+00 0.  1.
</event>
<event>
 5    1  0.2295577E-004  0.9118800E+02  0.7818608E-02  0.1130116E+00
         25   -1    0    0    0    0  0.00000000000E+00  0.00000000000E+00  0.99999998245E-14  0.12500000000E+03  0.12500000000E+03 0.  0.
        -13    1    3    3    0    0  0.18376266737E+02  0.36827840428E+02 -0.28262351436E+02  0.49927434167E+02  0.10566000000E+00 0. -1.
         23    2    1    0    0    0  0.27834670535E+02  0.17743925279E+02  0.71250845084E+01  0.91230448665E+02  0.84750293016E+02 0.  0.
         13    1    3    3    0    0  0.94584037978E+01 -0.19083915148E+02  0.35387435945E+02  0.41303014498E+02  0.10566000000E+00 0.  1.
         22    1    1    0    0    0 -0.27834670535E+02 -0.17743925279E+02 -0.71250845084E+01  0.33769551335E+02  0.00000000000E+00 0. -1.
</event>
<event>
 5    1  0.2295577E-004  0.9118800E+02  0.7818608E-02  0.1130116E+00
         25   -1    0    0    0    0  0.00000000000E+00  0.00000000000E+00  0.99999998245E-14  0.12500000000E+03  0.12500000000E+03 0.  0.
        -13    1    3    3    0    0  0.11150002978E+02  0.46333277729E+02 -0.18777618793E+02  0.51222117519E+02  0.10566000000E+00 0.  1.
         23    2    1    0    0    0  0.54867809205E+01  0.30350034330E+02  0.16250371689E+02  0.90138790487E+02  0.83124590957E+02 0.  0.
         13    1    3    3    0    0 -0.56632220573E+01 -0.15983243400E+02  0.35027990482E+02  0.38916672968E+02  0.10566000000E+00 0. -1.
         22    1    1    0    0    0 -0.54867809205E+01 -0.30350034330E+02 -0.16250371689E+02  0.34861209513E+02  0.00000000000E+00 0.  1.
</event>
<event>
 5    1  0.2295577E-004  0.9118800E+02  0.7818608E-02  0.1130116E+00
         25   -1    0    0    0    0  0.00000000000E+00  0.00000000000E+00  0.99999998245E-14  0.12500000000E+03  0.12500000000E+03 0.  0.
        -13    1    3    3    0    0 -0.42064634374E+02 -0.92773408993E+01 -0.26691479267E+02  0.50674932153E+02  0.10566000000E+00 0. -1.
         23    2    1    0    0    0  0.10036916296E+01 -0.18772457918E+02 -0.23518058882E+02  0.94891667818E+02  0.89988426781E+02 0.  0.
         13    1    3    3    0    0  0.43068326004E+02 -0.94951170185E+01  0.31734203848E+01  0.44216735666E+02  0.10566000000E+00 0.  1.
         22    1    1    0    0    0 -0.10036916296E+01  0.18772457918E+02  0.23518058882E+02  0.30108332182E+02  0.00000000000E+00 0.  1.
</event>
<event>
 5    1  0.2295577E-004  0.9118800E+02  0.7818608E-02  0.1130116E+00
         25   -1    0    0    0    0  0.00000000000E+00  0.00000000000E+00  0.99999998245E-14  0.12500000000E+03  0.12500000000E+03 0.  0.
        -13    1    3    3    0    0 -0.29500696707E+02 -0.37379833518E+02  0.16798590265E+02  0.50495018159E+02  0.10566000000E+00 0. -1.
         23    2    1    0    0    0 -0.19066984155E+02  0.88771845809E+01  0.17065808139E+02  0.97915020800E+02  0.94094395157E+02 0.  0.
         13    1    3    3    0    0  0.10433712552E+02  0.46257018099E+02  0.26721787408E+00  0.47420002641E+02  0.10566000000E+00 0.  1.
         22    1    1    0    0    0  0.19066984155E+02 -0.88771845809E+01 -0.17065808139E+02  0.27084979200E+02  0.00000000000E+00 0. -1.
</event>
<event>
 5    1  0.2295577E-004  0.9118800E+02  0.7818608E-02  0.1130116E+00
         25   -1    0    0    0    0  0.00000000000E+00  0.00000000000E+00  0.99999998245E-14  0.12500000000E+03  0.12500000000E+03 0.  0.
        -13    1    3    3    0    0  0.38396588041E+02 -0.43071715523E+02 -0.83082832061E+01  0.58296735630E+02  0.10566000000E+00 0.  1.
         23    2    1    0    0    0  0.27329726181E+02 -0.66802752545E+01 -0.41700908677E+01  0.96558311083E+02  0.92274469766E+02 0.  0.
         13    1    3    3    0    0 -0.11066861860E+02  0.36391440268E+02  0.41381923384E+01  0.38261575452E+02  0.10566000000E+00 0. -1.
         22    1    1    0    0    0 -0.27329726181E+02  0.66802752545E+01  0.41700908677E+01  0.28441688917E+02  0.00000000000E+00 0.  1.
</event>
<event>
 5    1  0.2295577E-004  0.9118800E+02  0.7818608E-02  0.1130116E+00
         25   -1    0    0    0    0  0.00000000000E+00  0.00000000000E+00  0.99999998245E-14  0.12500000000E+03  0.12500000000E+03 0.  0.
        -13    1    3    3    0    0  0.73623924900E+01 -0.13129545586E+02 -0.31316782261E+02  0.34746824397E+02  0.10566000000E+00 0. -1.
         23    2    1    0    0    0  0.92269579769E+01  0.12534589354E+02  0.24365646164E+02  0.96087418020E+02  0.91634352210E+02 0.  0.
         13    1    3    3    0    0  0.18645654869E+01  0.25664134940E+02  0.55682428425E+02  0.61340593623E+02  0.10566000000E+00 0.  1.
         22    1    1    0    0    0 -0.92269579769E+01 -0.12534589354E+02 -0.24365646164E+02  0.28912581980E+02  0.00000000000E+00 0.  1.
</event>
<event>
 5    1  0.2295577E-004  0.9118800E+02  0.7818608E-02  0.1130116E+00
         25   -1    0    0    0    0  0.00000000000E+00  0.00000000000E+00  0.99999998245E-14  0.12500000000E+03  0.12500000000E+03 0.  0.
        -13    1    3    3    0    0  0.16012631007E+02  0.33333572927E+02 -0.88800197273E+01  0.38031531000E+02  0.10566000000E+00 0. -1.
         23    2    1    0    0    0 -0.24149616281E+02 -0.82997536893E+01 -0.13594122734E+02  0.96070947981E+02  0.91611882392E+02 0.  0.
         13    1    3    3    0    0 -0.40162247288E+02 -0.41633326616E+02 -0.47141030063E+01  0.58039416981E+02  0.10566000000E+00 0.  1.
         22    1    1    0    0    0  0.24149616281E+02  0.82997536893E+01  0.13594122734E+02  0.28929052019E+02  0.00000000000E+00 0.  1.
</event>
<event>
 5    1  0.2295577E-004  0.9118800E+02  0.7818608E-02  0.1130116E+00
         25   -1    0    0    0    0  0.00000000000E+00  0.00000000000E+00  0.99999998245E-14  0.12500000000E+03  0.12500000000E+03 0.  0.
        -13    1    3    3    0    0  0.71400848748E+01 -0.20678966470E+02 -0.25332940535E+02  0.33471921165E+02  0.10566000000E+00 0. -1.
         23    2    1    0    0    0 -0.10441999325E+02  0.19288438561E+02  0.19207676694E+02  0.95844999468E+02  0.91303066033E+02 0.  0.
         13    1    3    3    0    0 -0.17582084200E+02  0.39967405031E+02  0.44540617229E+02  0.62373078303E+02  0.10566000000E+00 0.  1.
         22    1    1    0    0    0  0.10441999325E+02 -0.19288438561E+02 -0.19207676694E+02  0.29155000532E+02  0.00000000000E+00 0.  1.
</event>
<event>
 5    1  0.2295577E-004  0.9118800E+02  0.7818608E-02  0.1130116E+00
         25   -1    0    0    0    0  0.00000000000E+00  0.00000000000E+00  0.99999998245E-14  0.12500000000E+03  0.12500000000E+03 0.  0.
        -13    1    3    3    0    0 -0.72338787896E+01  0.14106161292E+02 -0.31420540315E+02  0.35193384414E+02  0.10566000000E+00 0.  1.
         23    2    1    0    0    0  0.21574631430E+02 -0.10330161376E+02  0.16298155871E+02  0.96055106838E+02  0.91590265364E+02 0.  0.
         13    1    3    3    0    0  0.28808510220E+02 -0.24436322668E+02  0.47718696186E+02  0.60861722424E+02  0.10566000000E+00 0. -1.
         22    1    1    0    0    0 -0.21574631430E+02  0.10330161376E+02 -0.16298155871E+02  0.28944893162E+02  0.00000000000E+00 0. -1.
</event>
<event>
 5    1  0.2295577E-004  0.9118800E+02  0.7818608E-02  0.1130116E+00
         25   -1    0    0    0    0  0.00000000000E+00  0.00000000000E+00  0.99999998245E-14  0.12500000000E+03  0.12500000000E+03 0.  0.
        -13    1    3    3    0    0 -0.26235709158E+02 -0.27315625751E+02  0.32397861751E+02  0.49840630566E+02  0.10566000000E+00 0. -1.
         23    2    1    0    0    0 -0.22416930664E+02 -0.14457511596E+02 -0.11654901136E+02  0.95890291268E+02  0.91365052493E+02 0.  0.
         13    1    3    3    0    0  0.38187784942E+01  0.12858114155E+02 -0.44052762886E+02  0.46049660702E+02  0.10566000000E+00 0.  1.
         22    1    1    0    0    0  0.22416930664E+02  0.14457511596E+02  0.11654901136E+02  0.29109708732E+02  0.00000000000E+00 0. -1.
</event>
<event>
 5    1  0.2295577E-004  0.9118800E+02  0.7818608E-02  0.1130116E+00
         25   -1    0    0    0    0  0.00000000000E+00  0.00000000000E+00  0.99999998245E-14  0.12500000000E+03  0.12500000000E+03 0.  0.
        -13    1    3    3    0    0  0.23491817667E+02  0.34095720993E+02 -0.32346574523E+02  0.52542323271E+02  0.10566000000E+00 0.  1.
         23    2    1    0    0    0 -0.13448601735E+02  0.19754095946E+02 -0.19365093488E+02  0.94241325759E+02  0.89080477321E+02 0.  0.
         13    1    3    3    0    0 -0.36940419402E+02 -0.14341625047E+02  0.12981481035E+02  0.41699002488E+02  0.10566000000E+00 0. -1.
         22    1    1    0    0    0  0.13448601735E+02 -0.19754095946E+02  0.19365093488E+02  0.30758674241E+02  0.00000000000E+00 0.  1.
</event>
<event>
 5    1  0.2295577E-004  0.9118800E+02  0.7818608E-02  0.1130116E+00
         25   -1    0    0    0    0  0.00000000000E+00  0.00000000000E+00  0.99999998245E-14  0.12500000000E+03  0.12500000000E+03 0.  0.
        -13    1    3    3    0    0 -0.30381354125E+02  0.19193057807E+02 -0.40153792751E+01  0.36159847639E+02  0.10566000000E+00 0.  1.
         23    2    1    0    0    0  0.25407511929E+02  0.25637647801E+01 -0.14974140380E+02  0.95396969203E+02  0.90687608308E+02 0.  0.
         13    1    3    3    0    0  0.55788866054E+02 -0.16629293027E+02 -0.10958761105E+02  0.59237121564E+02  0.10566000000E+00 0. -1.
         22    1    1    0    0    0 -0.25407511929E+02 -0.25637647801E+01  0.14974140380E+02  0.29603030797E+02  0.00000000000E+00 0. -1.
</event>
<event>
 5    1  0.2295577E-004  0.9118800E+02  0.7818608E-02  0.1130116E+00
         25   -1    0    0    0    0  0.00000000000E+00  0.00000000000E+00  0.99999998245E-14  0.12500000000E+03  0.12500000000E+03 0.  0.
        -13    1    3    3    0    0 -0.31026734012E+01  0.31559432511E+02  0.25829553676E+02  0.40899894496E+02  0.10566000000E+00 0.  1.
         23    2    1    0    0    0 -0.22171107027E+02  0.46482711184E+01 -0.18219960828E+02  0.95928856511E+02  0.91417799841E+02 0.  0.
         13    1    3    3    0    0 -0.19068433626E+02 -0.26911161392E+02 -0.44049514504E+02  0.55028962015E+02  0.10566000000E+00 0. -1.
         22    1    1    0    0    0  0.22171107027E+02 -0.46482711184E+01  0.18219960828E+02  0.29071143489E+02  0.00000000000E+00 0. -1.
</event>
<event>
 5    1  0.2295577E-004  0.9118800E+02  0.7818608E-02  0.1130116E+00
         25   -1    0    0    0    0  0.00000000000E+00  0.00000000000E+00  0.99999998245E-14  0.12500000000E+03  0.12500000000E+03 0.  0.
        -13    1    3    3    0    0  0.11870954668E+01 -0.37542851646E+02 -0.40658436318E+02  0.55353360451E+02  0.10566000000E+00 0.  1.
         23    2    1    0    0    0  0.19537261028E+02 -0.77897283459E+01 -0.20098105464E+02  0.95908450034E+02  0.91389892814E+02 0.  0.
         13    1    3    3    0    0  0.18350165562E+02  0.29753123300E+02  0.20560330854E+02  0.40555089583E+02  0.10566000000E+00 0. -1.
         22    1    1    0    0    0 -0.19537261028E+02  0.77897283459E+01  0.20098105464E+02  0.29091549966E+02  0.00000000000E+00 0.  1.
</event>
<event>
 5    1  0.2295577E-004  0.9118800E+02  0.7818608E-02  0.1130116E+00
         25   -1    0    0    0    0  0.00000000000E+00  0.00000000000E+00  0.99999998245E-14  0.12500000000E+03  0.12500000000E+03 0.  0.
        -13    1    3    3    0    0  0.25421903637E+02 -0.24180390507E+02  0.22098867324E+02  0.41464871526E+02  0.10566000000E+00 0.  1.
         23    2    1    0    0    0  0.18865445803E+02  0.10325618305E+02 -0.19542299020E+02  0.95941010174E+02  0.91434416625E+02 0.  0.
         13    1    3    3    0    0 -0.65564578348E+01  0.34506008813E+02 -0.41641166344E+02  0.54476138648E+02  0.10566000000E+00 0. -1.
         22    1    1    0    0    0 -0.18865445803E+02 -0.10325618305E+02  0.19542299020E+02  0.29058989826E+02  0.00000000000E+00 0. -1.
</event>
<event>
 5    1  0.2295577E-004  0.9118800E+02  0.7818608E-02  0.1130116E+00
         25   -1    0    0    0    0  0.00000000000E+00  0.00000000000E+00  0.99999998245E-14  0.12500000000E+03  0.12500000000E+03 0.  0.
        -13    1    3    3    0    0  0.10340185048E+02  0.68798725230E+01  0.54900972898E+02  0.56288365245E+02  0.10566000000E+00 0. -1.
         23    2    1    0    0    0 -0.14926461186E+02  0.31421927405E+01  0.25976613085E+02  0.94875972279E+02  0.89966621976E+02 0.  0.
         13    1    3    3    0    0 -0.25266646233E+02 -0.37376797825E+01 -0.28924359813E+02  0.38587607034E+02  0.10566000000E+00 0.  1.
         22    1    1    0    0    0  0.14926461186E+02 -0.31421927405E+01 -0.25976613085E+02  0.30124027721E+02  0.00000000000E+00 0. -1.
</event>
<event>
 5    1  0.2295577E-004  0.9118800E+02  0.7818608E-02  0.1130116E+00
         25   -1    0    0    0    0  0.00000000000E+00  0.00000000000E+00  0.99999998245E-14  0.12500000000E+03  0.12500000000E+03 0.  0.
        -13    1    3    3    0    0 -0.28685424400E+02 -0.49150459212E+02 -0.22375739169E+02  0.61149865750E+02  0.10566000000E+00 0.  1.
         23    2    1    0    0    0 -0.70720735500E+01 -0.26937759188E+02 -0.49267801416E+01  0.96716961674E+02  0.92489136760E+02 0.  0.
         13    1    3    3    0    0  0.21613350850E+02  0.22212700024E+02  0.17448959027E+02  0.35567095925E+02  0.10566000000E+00 0. -1.
         22    1    1    0    0    0  0.70720735500E+01  0.26937759188E+02  0.49267801416E+01  0.28283038326E+02  0.00000000000E+00 0.  1.
</event>
<event>
 5    1  0.2295577E-004  0.9118800E+02  0.7818608E-02  0.1130116E+00
         25   -1    0    0    0    0  0.00000000000E+00  0.00000000000E+00  0.99999998245E-14  0.12500000000E+03  0.12500000000E+03 0.  0.
        -13    1    3    3    0    0 -0.14603703817E+02  0.56614234152E+02  0.83148033074E+01  0.59055793889E+02  0.10566000000E+00 0. -1.
         23    2    1    0    0    0 -0.47577056375E+01  0.21582562442E+02  0.17756315880E+02  0.96649876224E+02  0.92398425614E+02 0.  0.
         13    1    3    3    0    0  0.98459981796E+01 -0.35031671710E+02  0.94415125727E+01  0.37594082335E+02  0.10566000000E+00 0.  1.
         22    1    1    0    0    0  0.47577056375E+01 -0.21582562442E+02 -0.17756315880E+02  0.28350123776E+02  0.00000000000E+00 0. -1.
</event>
<event>
 5    1  0.2295577E-004  0.9118800E+02  0.7818608E-02  0.1130116E+00
         25   -1    0    0    0    0  0.00000000000E+00  0.00000000000E+00  0.99999998245E-14  0.12500000000E+03  0.12500000000E+03 0.  0.
        -13    1    3    3    0    0  0.27965888778E+00 -0.28390338811E+01 -0.53507244870E+02  0.53583343868E+02  0.10566000000E+00 0. -1.
         23    2    1    0    0    0 -0.13579936293E+01  0.19934306946E+02 -0.10140396450E+02  0.10259356386E+03  0.10011688652E+03 0.  0.
         13    1    3    3    0    0 -0.16376525170E+01  0.22773340827E+02  0.43366848420E+02  0.49010219997E+02  0.10566000000E+00 0.  1.
         22    1    1    0    0    0  0.13579936293E+01 -0.19934306946E+02  0.10140396450E+02  0.22406436135E+02  0.00000000000E+00 0.  1.
</event>
<event>
 5    1  0.2295577E-004  0.9118800E+02  0.7818608E-02  0.1130116E+00
         25   -1    0    0    0    0  0.00000000000E+00  0.00000000000E+00  0.99999998245E-14  0.12500000000E+03  0.12500000000E+03 0.  0.
        -13    1    3    3    0    0  0.80764520437E+01  0.35209199828E+02  0.26911347601E+02  0.45046072236E+02  0.10566000000E+00 0. -1.
         23    2    1    0    0    0 -0.20535664986E+02 -0.71180126991E+01  0.17721378631E+02  0.96956695955E+02  0.92812574518E+02 0.  0.
         13    1    3    3    0    0 -0.28612117029E+02 -0.42327212527E+02 -0.91899689697E+01  0.51910623719E+02  0.10566000000E+00 0.  1.
         22    1    1    0    0    0  0.20535664986E+02  0.71180126991E+01 -0.17721378631E+02  0.28043304045E+02  0.00000000000E+00 0.  1.
</event>
<event>
 5    1  0.2295577E-004  0.9118800E+02  0.7818608E-02  0.1130116E+00
         25   -1    0    0    0    0  0.00000000000E+00  0.00000000000E+00  0.99999998245E-14  0.12500000000E+03  0.12500000000E+03 0.  0.
        -13    1    3    3    0    0 -0.37847053714E+02  0.26626016811E+02  0.22274204457E+02  0.51356553567E+02  0.10566000000E+00 0.  1.
         23    2    1    0    0    0  0.53767349639E+01  0.25807525739E+02  0.13149810379E+02  0.95540618190E+02  0.90885392377E+02 0.  0.
         13    1    3    3    0    0  0.43223788678E+02 -0.81849107263E+00 -0.91243940784E+01  0.44184064623E+02  0.10566000000E+00 0. -1.
         22    1    1    0    0    0 -0.53767349639E+01 -0.25807525739E+02 -0.13149810379E+02  0.29459381810E+02  0.00000000000E+00 0.  1.
</event>
<event>
 5    1  0.2295577E-004  0.9118800E+02  0.7818608E-02  0.1130116E+00
         25   -1    0    0    0    0  0.00000000000E+00  0.00000000000E+00  0.99999998245E-14  0.12500000000E+03  0.12500000000E+03 0.  0.
        -13    1    3    3    0    0  0.10236249619E+02  0.22404805070E+01 -0.57600426638E+02  0.58545886893E+02  0.10566000000E+00 0.  1.
         23    2    1    0    0    0  0.43193777921E+00  0.16089740471E+02 -0.25781014785E+02  0.94607121854E+02  0.89592301363E+02 0.  0.
         13    1    3    3    0    0 -0.98043118401E+01  0.13849259964E+02  0.31819411853E+02  0.36061234961E+02  0.10566000000E+00 0. -1.
         22    1    1    0    0    0 -0.43193777921E+00 -0.16089740471E+02  0.25781014785E+02  0.30392878146E+02  0.00000000000E+00 0.  1.
</event>
<event>
 5    1  0.2295577E-004  0.9118800E+02  0.7818608E-02  0.1130116E+00
         25   -1    0    0    0    0  0.00000000000E+00  0.00000000000E+00  0.99999998245E-14  0.12500000000E+03  0.12500000000E+03 0.  0.
        -13    1    3    3    0    0 -0.11003900187E+01  0.28921774963E+02  0.14833433690E+02  0.32522635875E+02  0.10566000000E+00 0. -1.
         23    2    1    0    0    0  0.16779206644E+02 -0.27273534174E+02  0.87348662240E+01  0.91808354517E+02  0.85598414876E+02 0.  0.
         13    1    3    3    0    0  0.17879596662E+02 -0.56195309136E+02 -0.60985674661E+01  0.59285718642E+02  0.10566000000E+00 0.  1.
         22    1    1    0    0    0 -0.16779206644E+02  0.27273534174E+02 -0.87348662240E+01  0.33191645483E+02  0.00000000000E+00 0.  1.
</event>
<event>
 5    1  0.2295577E-004  0.9118800E+02  0.7818608E-02  0.1130116E+00
         25   -1    0    0    0    0  0.00000000000E+00  0.00000000000E+00  0.99999998245E-14  0.12500000000E+03  0.12500000000E+03 0.  0.
        -13    1    3    3    0    0 -0.42344963269E+02  0.38948263122E+02 -0.24214998223E+02  0.62421474009E+02  0.10566000000E+00 0.  1.
         23    2    1    0    0    0 -0.23011205713E+02  0.23995128873E+02 -0.14682969946E+02  0.88656205421E+02  0.80864401038E+02 0.  0.
         13    1    3    3    0    0  0.19333757557E+02 -0.14953134250E+02  0.95320282770E+01  0.26234731412E+02  0.10566000000E+00 0. -1.
         22    1    1    0    0    0  0.23011205713E+02 -0.23995128873E+02  0.14682969946E+02  0.36343794579E+02  0.00000000000E+00 0.  1.
</event>
<event>
 5    1  0.2295577E-004  0.9118800E+02  0.7818608E-02  0.1130116E+00
         25   -1    0    0    0    0  0.00000000000E+00  0.00000000000E+00  0.99999998245E-14  0.12500000000E+03  0.12500000000E+03 0.  0.
        -13    1    3    3    0    0 -0.11463074010E+02  0.29915897042E+02  0.10212858549E+02  0.33625535020E+02  0.10566000000E+00 0.  1.
         23    2    1    0    0    0 -0.41739068186E+01  0.48276019119E-01 -0.35796148373E+02  0.88961297650E+02  0.81334644602E+02 0.  0.
         13    1    3    3    0    0  0.72891671913E+01 -0.29867621023E+02 -0.46009006922E+02  0.55335762631E+02  0.10566000000E+00 0. -1.
         22    1    1    0    0    0  0.41739068186E+01 -0.48276019119E-01  0.35796148373E+02  0.36038702350E+02  0.00000000000E+00 0. -1.
</event>
<event>
 5    1  0.2295577E-004  0.9118800E+02  0.7818608E-02  0.1130116E+00
         25   -1    0    0    0    0  0.00000000000E+00  0.00000000000E+00  0.99999998245E-14  0.12500000000E+03  0.12500000000E+03 0.  0.
        -13    1    3    3    0    0 -0.31064786790E+02 -0.24585034521E+02  0.21894745573E+01  0.39676817710E+02  0.10566000000E+00 0.  1.
         23    2    1    0    0    0 -0.11943467060E+02  0.27138820863E+02 -0.36287818175E+01  0.95128105840E+02  0.90316258004E+02 0.  0.
         13    1    3    3    0    0  0.19121319730E+02  0.51723855384E+02 -0.58182563748E+01  0.55451288130E+02  0.10566000000E+00 0. -1.
         22    1    1    0    0    0  0.11943467060E+02 -0.27138820863E+02  0.36287818175E+01  0.29871894160E+02  0.00000000000E+00 0. -1.
</event>
<event>
 5    1  0.2295577E-004  0.9118800E+02  0.7818608E-02  0.1130116E+00
         25   -1    0    0    0    0  0.00000000000E+00  0.00000000000E+00  0.99999998245E-14  0.12500000000E+03  0.12500000000E+03 0.  0.
        -13    1    3    3    0    0 -0.10648271262E+02 -0.21212144912E+02  0.31179556697E+02  0.39185669479E+02  0.10566000000E+00 0. -1.
         23    2    1    0    0    0  0.12966496720E+02 -0.16045783484E+02 -0.20299252977E+02  0.96057697461E+02  0.91593800910E+02 0.  0.
         13    1    3    3    0    0  0.23614767982E+02  0.51663614275E+01 -0.51478809675E+02  0.56872027982E+02  0.10566000000E+00 0.  1.
         22    1    1    0    0    0 -0.12966496720E+02  0.16045783484E+02  0.20299252977E+02  0.28942302539E+02  0.00000000000E+00 0.  1.
</event>
<event>
 5    1  0.2295577E-004  0.9118800E+02  0.7818608E-02  0.1130116E+00
         25   -1    0    0    0    0  0.00000000000E+00  0.00000000000E+00  0.99999998245E-14  0.12500000000E+03  0.12500000000E+03 0.  0.
        -13    1    3    3    0    0 -0.19788427974E+01  0.16216601172E+01 -0.31227310257E+02  0.31332118828E+02  0.10566000000E+00 0. -1.
         23    2    1    0    0    0  0.27620710769E+01  0.42037521314E+01  0.30899827824E+02  0.93693452311E+02  0.88308340930E+02 0.  0.
         13    1    3    3    0    0  0.47409138743E+01  0.25820920142E+01  0.62127138081E+02  0.62361333483E+02  0.10566000000E+00 0.  1.
         22    1    1    0    0    0 -0.27620710769E+01 -0.42037521314E+01 -0.30899827824E+02  0.31306547689E+02  0.00000000000E+00 0.  1.
</event>
<event>
 5    1  0.2295577E-004  0.9118800E+02  0.7818608E-02  0.1130116E+00
         25   -1    0    0    0    0  0.00000000000E+00  0.00000000000E+00  0.99999998245E-14  0.12500000000E+03  0.12500000000E+03 0.  0.
        -13    1    3    3    0    0  0.80862836121E+01 -0.12486976737E+02 -0.33855719043E+02  0.36980176401E+02  0.10566000000E+00 0.  1.
         23    2    1    0    0    0 -0.19842072434E+02 -0.34531101304E+01  0.18918103738E+02  0.97368017497E+02  0.93364899047E+02 0.  0.
         13    1    3    3    0    0 -0.27928356046E+02  0.90338666065E+01  0.52773822781E+02  0.60387841096E+02  0.10566000000E+00 0. -1.
         22    1    1    0    0    0  0.19842072434E+02  0.34531101304E+01 -0.18918103738E+02  0.27631982503E+02  0.00000000000E+00 0. -1.
</event>
<event>
 5    1  0.2295577E-004  0.9118800E+02  0.7818608E-02  0.1130116E+00
         25   -1    0    0    0    0  0.00000000000E+00  0.00000000000E+00  0.99999998245E-14  0.12500000000E+03  0.12500000000E+03 0.  0.
        -13    1    3    3    0    0  0.30362124477E+02 -0.95998593746E+01  0.21987972316E+02  0.38697519215E+02  0.10566000000E+00 0. -1.
         23    2    1    0    0    0  0.32162550931E+01  0.21184968030E+01 -0.27978985414E+02  0.96757196486E+02  0.92543498538E+02 0.  0.
         13    1    3    3    0    0 -0.27145869384E+02  0.11718356178E+02 -0.49966957730E+02  0.58059677272E+02  0.10566000000E+00 0.  1.
         22    1    1    0    0    0 -0.32162550931E+01 -0.21184968030E+01  0.27978985414E+02  0.28242803514E+02  0.00000000000E+00 0. -1.
</event>
<event>
 5    1  0.2295577E-004  0.9118800E+02  0.7818608E-02  0.1130116E+00
         25   -1    0    0    0    0  0.00000000000E+00  0.00000000000E+00  0.99999998245E-14  0.12500000000E+03  0.12500000000E+03 0.  0.
        -13    1    3    3    0    0  0.72376249656E+01  0.22568561617E+00 -0.34549829034E+02  0.35300651544E+02  0.10566000000E+00 0.  1.
         23    2    1    0    0    0 -0.54093613477E+01  0.22780009989E+02  0.19052430826E+02  0.94814156204E+02  0.89880693427E+02 0.  0.
         13    1    3    3    0    0 -0.12646986313E+02  0.22554324373E+02  0.53602259860E+02  0.59513504660E+02  0.10566000000E+00 0. -1.
         22    1    1    0    0    0  0.54093613477E+01 -0.22780009989E+02 -0.19052430826E+02  0.30185843796E+02  0.00000000000E+00 0. -1.
</event>
<event>
 5    1  0.2295577E-004  0.9118800E+02  0.7818608E-02  0.1130116E+00
         25   -1    0    0    0    0  0.00000000000E+00  0.00000000000E+00  0.99999998245E-14  0.12500000000E+03  0.12500000000E+03 0.  0.
        -13    1    3    3    0    0  0.60840569227E+01  0.21302621408E+02  0.25935793922E+02  0.34110027820E+02  0.10566000000E+00 0.  1.
         23    2    1    0    0    0  0.17405840630E+02  0.14996789630E+01 -0.27618342130E+02  0.92319957971E+02  0.86342281025E+02 0.  0.
         13    1    3    3    0    0  0.11321783707E+02 -0.19802942445E+02 -0.53554136052E+02  0.58209930150E+02  0.10566000000E+00 0. -1.
         22    1    1    0    0    0 -0.17405840630E+02 -0.14996789630E+01  0.27618342130E+02  0.32680042029E+02  0.00000000000E+00 0. -1.
</event>
<event>
 5    1  0.2295577E-004  0.9118800E+02  0.7818608E-02  0.1130116E+00
         25   -1    0    0    0    0  0.00000000000E+00  0.00000000000E+00  0.99999998245E-14  0.12500000000E+03  0.12500000000E+03 0.  0.
        -13    1    3    3    0    0  0.45913523835E+02 -0.31102306242E+02  0.46068364113E+01  0.55647454841E+02  0.10566000000E+00 0. -1.
         23    2    1    0    0    0  0.27766448459E+02  0.43550315398E+01  0.84170403787E+01  0.95660802185E+02  0.91050538418E+02 0.  0.
         13    1    3    3    0    0 -0.18147075377E+02  0.35457337782E+02  0.38102039673E+01  0.40013347343E+02  0.10566000000E+00 0.  1.
         22    1    1    0    0    0 -0.27766448459E+02 -0.43550315398E+01 -0.84170403787E+01  0.29339197815E+02  0.00000000000E+00 0. -1.
</event>
<event>
 5    1  0.2295577E-004  0.9118800E+02  0.7818608E-02  0.1130116E+00
         25   -1    0    0    0    0  0.00000000000E+00  0.00000000000E+00  0.99999998245E-14  0.12500000000E+03  0.12500000000E+03 0.  0.
        -13    1    3    3    0    0  0.36929303491E+02 -0.23421457594E+00  0.80018118520E+01  0.37787146886E+02  0.10566000000E+00 0.  1.
         23    2    1    0    0    0 -0.75253811735E+01 -0.89359109801E+01 -0.27357695163E+02  0.95252305106E+02  0.90487989681E+02 0.  0.
         13    1    3    3    0    0 -0.44454684665E+02 -0.87016964042E+01 -0.35359507015E+02  0.57465158221E+02  0.10566000000E+00 0. -1.
         22    1    1    0    0    0  0.75253811735E+01  0.89359109801E+01  0.27357695163E+02  0.29747694894E+02  0.00000000000E+00 0. -1.
</event>
<event>
 5    1  0.2295577E-004  0.9118800E+02  0.7818608E-02  0.1130116E+00
         25   -1    0    0    0    0  0.00000000000E+00  0.00000000000E+00  0.99999998245E-14  0.12500000000E+03  0.12500000000E+03 0.  0.
        -13    1    3    3    0    0 -0.15869776008E+02  0.17974740892E+02 -0.19491676366E+02  0.30901095649E+02  0.10566000000E+00 0.  1.
         23    2    1    0    0    0  0.32398679671E+02  0.77598634128E+01  0.12178590231E+02  0.89528772440E+02  0.82202147843E+02 0.  0.
         13    1    3    3    0    0  0.48268455679E+02 -0.10214877479E+02  0.31670266597E+02  0.58627676791E+02  0.10566000000E+00 0. -1.
         22    1    1    0    0    0 -0.32398679671E+02 -0.77598634128E+01 -0.12178590231E+02  0.35471227560E+02  0.00000000000E+00 0. -1.
</event>
<event>
 5    1  0.2295577E-004  0.9118800E+02  0.7818608E-02  0.1130116E+00
         25   -1    0    0    0    0  0.00000000000E+00  0.00000000000E+00  0.99999998245E-14  0.12500000000E+03  0.12500000000E+03 0.  0.
        -13    1    3    3    0    0  0.82968966665E+01 -0.27277212890E+02  0.23539674548E+02  0.36973129150E+02  0.10566000000E+00 0.  1.
         23    2    1    0    0    0 -0.25485285432E+02  0.37649719974E+01 -0.13479553996E+02  0.95924698391E+02  0.91412114065E+02 0.  0.
         13    1    3    3    0    0 -0.33782182099E+02  0.31042184887E+02 -0.37019228544E+02  0.58951569241E+02  0.10566000000E+00 0. -1.
         22    1    1    0    0    0  0.25485285432E+02 -0.37649719974E+01  0.13479553996E+02  0.29075301609E+02  0.00000000000E+00 0. -1.
</event>
<event>
 5    1  0.2295577E-004  0.9118800E+02  0.7818608E-02  0.1130116E+00
         25   -1    0    0    0    0  0.00000000000E+00  0.00000000000E+00  0.99999998245E-14  0.12500000000E+03  0.12500000000E+03 0.  0.
        -13    1    3    3    0    0 -0.19234015821E+02  0.31879861218E+02 -0.37889664987E+02  0.53121660297E+02  0.10566000000E+00 0.  1.
         23    2    1    0    0    0 -0.25484849604E+02 -0.23382823268E+01 -0.10746229474E+02  0.97243440929E+02  0.93197962597E+02 0.  0.
         13    1    3    3    0    0 -0.62508337832E+01 -0.34218143545E+02  0.27143435513E+02  0.44121780632E+02  0.10566000000E+00 0. -1.
         22    1    1    0    0    0  0.25484849604E+02  0.23382823268E+01  0.10746229474E+02  0.27756559071E+02  0.00000000000E+00 0.  1.
</event>
<event>
 5    1  0.2295577E-004  0.9118800E+02  0.7818608E-02  0.1130116E+00
         25   -1    0    0    0    0  0.00000000000E+00  0.00000000000E+00  0.99999998245E-14  0.12500000000E+03  0.12500000000E+03 0.  0.
        -13    1    3    3    0    0  0.13915045737E+02 -0.59191188494E+02  0.76394420436E+01  0.61282930184E+02  0.10566000000E+00 0. -1.
         23    2    1    0    0    0  0.14874352339E+02 -0.25744295015E+02  0.50276856721E+01  0.94845519296E+02  0.89924300520E+02 0.  0.
         13    1    3    3    0    0  0.95930660144E+00  0.33446893478E+02 -0.26117563715E+01  0.33562589112E+02  0.10566000000E+00 0.  1.
         22    1    1    0    0    0 -0.14874352339E+02  0.25744295015E+02 -0.50276856721E+01  0.30154480704E+02  0.00000000000E+00 0. -1.
</event>
<event>
 5    1  0.2295577E-004  0.9118800E+02  0.7818608E-02  0.1130116E+00
         25   -1    0    0    0    0  0.00000000000E+00  0.00000000000E+00  0.99999998245E-14  0.12500000000E+03  0.12500000000E+03 0.  0.
        -13    1    3    3    0    0  0.77775326399E+01  0.22542084270E+01 -0.53902786628E+02  0.54507733762E+02  0.10566000000E+00 0.  1.
         23    2    1    0    0    0 -0.10348052556E+02  0.17287687358E+02 -0.34618660293E+02  0.84945063146E+02  0.74908382619E+02 0.  0.
         13    1    3    3    0    0 -0.18125585196E+02  0.15033478931E+02  0.19284126335E+02  0.30437329384E+02  0.10566000000E+00 0. -1.
         22    1    1    0    0    0  0.10348052556E+02 -0.17287687358E+02  0.34618660293E+02  0.40054936854E+02  0.00000000000E+00 0.  1.
</event>
<event>
 5    1  0.2295577E-004  0.9118800E+02  0.7818608E-02  0.1130116E+00
         25   -1    0    0    0    0  0.00000000000E+00  0.00000000000E+00  0.99999998245E-14  0.12500000000E+03  0.12500000000E+03 0.  0.
        -13    1    3    3    0    0  0.20112983350E+02 -0.31666585259E+02  0.18357153906E+02  0.41764829519E+02  0.10566000000E+00 0.  1.
         23    2    1    0    0    0  0.23543154687E+02  0.68686188464E+01 -0.17782819912E+02  0.94706655162E+02  0.89731063687E+02 0.  0.
         13    1    3    3    0    0  0.34301713366E+01  0.38535204105E+02 -0.36139973818E+02  0.52941825643E+02  0.10566000000E+00 0. -1.
         22    1    1    0    0    0 -0.23543154687E+02 -0.68686188464E+01  0.17782819912E+02  0.30293344838E+02  0.00000000000E+00 0. -1.
</event>
<event>
 5    1  0.2295577E-004  0.9118800E+02  0.7818608E-02  0.1130116E+00
         25   -1    0    0    0    0  0.00000000000E+00  0.00000000000E+00  0.99999998245E-14  0.12500000000E+03  0.12500000000E+03 0.  0.
        -13    1    3    3    0    0 -0.20558909117E+02  0.13802653433E+02  0.54424851678E+02  0.59793458088E+02  0.10566000000E+00 0.  1.
         23    2    1    0    0    0 -0.53242263665E+01 -0.49744331484E+01  0.29864992303E+02  0.94258982827E+02  0.89105250725E+02 0.  0.
         13    1    3    3    0    0  0.15234682751E+02 -0.18777086581E+02 -0.24559859375E+02  0.34465524739E+02  0.10566000000E+00 0. -1.
         22    1    1    0    0    0  0.53242263665E+01  0.49744331484E+01 -0.29864992303E+02  0.30741017173E+02  0.00000000000E+00 0.  1.
</event>
<event>
 5    1  0.2295577E-004  0.9118800E+02  0.7818608E-02  0.1130116E+00
         25   -1    0    0    0    0  0.00000000000E+00  0.00000000000E+00  0.99999998245E-14  0.12500000000E+03  0.12500000000E+03 0.  0.
        -13    1    3    3    0    0 -0.53807356329E+01 -0.26089331616E+02 -0.33476581917E+02  0.42781985005E+02  0.10566000000E+00 0.  1.
         23    2    1    0    0    0  0.63346272593E+01 -0.21306416323E+02  0.18377998106E+02  0.96158334073E+02  0.91731039012E+02 0.  0.
         13    1    3    3    0    0  0.11715362892E+02  0.47829152933E+01  0.51854580023E+02  0.53376349068E+02  0.10566000000E+00 0. -1.
         22    1    1    0    0    0 -0.63346272593E+01  0.21306416323E+02 -0.18377998106E+02  0.28841665927E+02  0.00000000000E+00 0. -1.
</event>
<event>
 5    1  0.2295577E-004  0.9118800E+02  0.7818608E-02  0.1130116E+00
         25   -1    0    0    0    0  0.00000000000E+00  0.00000000000E+00  0.99999998245E-14  0.12500000000E+03  0.12500000000E+03 0.  0.
        -13    1    3    3    0    0 -0.24320420318E+02  0.77746945419E+01  0.16373489286E+02  0.30332013370E+02  0.10566000000E+00 0. -1.
         23    2    1    0    0    0  0.32939435051E+02  0.34541099316E+01 -0.47998224940E+01  0.91533964189E+02  0.85196778386E+02 0.  0.
         13    1    3    3    0    0  0.57259855369E+02 -0.43205846104E+01 -0.21173311780E+02  0.61201950819E+02  0.10566000000E+00 0.  1.
         22    1    1    0    0    0 -0.32939435051E+02 -0.34541099316E+01  0.47998224940E+01  0.33466035811E+02  0.00000000000E+00 0.  1.
</event>
<event>
 5    1  0.2295577E-004  0.9118800E+02  0.7818608E-02  0.1130116E+00
         25   -1    0    0    0    0  0.00000000000E+00  0.00000000000E+00  0.99999998245E-14  0.12500000000E+03  0.12500000000E+03 0.  0.
        -13    1    3    3    0    0  0.36816161036E+02 -0.85546678980E+01 -0.37813566213E+02  0.53464839008E+02  0.10566000000E+00 0. -1.
         23    2    1    0    0    0  0.35387647698E+01  0.14677309842E+02 -0.24581519165E+02  0.96152168803E+02  0.91722637341E+02 0.  0.
         13    1    3    3    0    0 -0.33277396266E+02  0.23231977740E+02  0.13232047048E+02  0.42687329796E+02  0.10566000000E+00 0.  1.
         22    1    1    0    0    0 -0.35387647698E+01 -0.14677309842E+02  0.24581519165E+02  0.28847831197E+02  0.00000000000E+00 0. -1.
</event>
<event>
 5    1  0.2295577E-004  0.9118800E+02  0.7818608E-02  0.1130116E+00
         25   -1    0    0    0    0  0.00000000000E+00  0.00000000000E+00  0.99999998245E-14  0.12500000000E+03  0.12500000000E+03 0.  0.
        -13    1    3    3    0    0  0.43914416027E+02 -0.60940811212E+01  0.42705690012E+02  0.61558109808E+02  0.10566000000E+00 0. -1.
         23    2    1    0    0    0  0.33246366211E+02 -0.41072665962E+01  0.22037389871E+02  0.84902156449E+02  0.74836749744E+02 0.  0.
         13    1    3    3    0    0 -0.10668049816E+02  0.19868145250E+01 -0.20668300141E+02  0.23344046641E+02  0.10566000000E+00 0.  1.
         22    1    1    0    0    0 -0.33246366211E+02  0.41072665962E+01 -0.22037389871E+02  0.40097843551E+02  0.00000000000E+00 0. -1.
</event>
<event>
 5    1  0.2295577E-004  0.9118800E+02  0.7818608E-02  0.1130116E+00
         25   -1    0    0    0    0  0.00000000000E+00  0.00000000000E+00  0.99999998245E-14  0.12500000000E+03  0.12500000000E+03 0.  0.
        -13    1    3    3    0    0  0.87898741687E+01 -0.26714176194E+02  0.25315102554E+02  0.37838798593E+02  0.10566000000E+00 0.  1.
         23    2    1    0    0    0 -0.27244416569E+02  0.87169386185E+01 -0.37718760484E+01  0.96147438554E+02  0.91716190711E+02 0.  0.
         13    1    3    3    0    0 -0.36034290738E+02  0.35431114812E+02 -0.29086978603E+02  0.58308639961E+02  0.10566000000E+00 0. -1.
         22    1    1    0    0    0  0.27244416569E+02 -0.87169386185E+01  0.37718760484E+01  0.28852561446E+02  0.00000000000E+00 0. -1.
</event>
<event>
 5    1  0.2295577E-004  0.9118800E+02  0.7818608E-02  0.1130116E+00
         25   -1    0    0    0    0  0.00000000000E+00  0.00000000000E+00  0.99999998245E-14  0.12500000000E+03  0.12500000000E+03 0.  0.
        -13    1    3    3    0    0  0.54768714999E+01 -0.75360907357E+01 -0.34295050749E+02  0.35538014223E+02  0.10566000000E+00 0. -1.
         23    2    1    0    0    0  0.29754962827E+01  0.25927083490E+02  0.14794511233E+02  0.95000920030E+02  0.90140057729E+02 0.  0.
         13    1    3    3    0    0 -0.25013752172E+01  0.33463174226E+02  0.49089561982E+02  0.59462905806E+02  0.10566000000E+00 0.  1.
         22    1    1    0    0    0 -0.29754962827E+01 -0.25927083490E+02 -0.14794511233E+02  0.29999079970E+02  0.00000000000E+00 0.  1.
</event>
<event>
 5    1  0.2295577E-004  0.9118800E+02  0.7818608E-02  0.1130116E+00
         25   -1    0    0    0    0  0.00000000000E+00  0.00000000000E+00  0.99999998245E-14  0.12500000000E+03  0.12500000000E+03 0.  0.
        -13    1    3    3    0    0  0.18571216978E+01 -0.13232664677E+02 -0.49432600633E+02  0.51206889037E+02  0.10566000000E+00 0.  1.
         23    2    1    0    0    0  0.26439596157E+00  0.20728527660E+02 -0.20414400806E+02  0.95905506974E+02  0.91385867307E+02 0.  0.
         13    1    3    3    0    0 -0.15927257362E+01  0.33961192338E+02  0.29018199827E+02  0.44698617937E+02  0.10566000000E+00 0. -1.
         22    1    1    0    0    0 -0.26439596157E+00 -0.20728527660E+02  0.20414400806E+02  0.29094493026E+02  0.00000000000E+00 0.  1.
</event>
<event>
 5    1  0.2295577E-004  0.9118800E+02  0.7818608E-02  0.1130116E+00
         25   -1    0    0    0    0  0.00000000000E+00  0.00000000000E+00  0.99999998245E-14  0.12500000000E+03  0.12500000000E+03 0.  0.
        -13    1    3    3    0    0  0.24874453341E+02 -0.10744479301E+01 -0.39967972815E+02  0.47088670424E+02  0.10566000000E+00 0.  1.
         23    2    1    0    0    0 -0.62061783003E+01 -0.26051137405E+02 -0.12951242962E+02  0.95252510972E+02  0.90488274064E+02 0.  0.
         13    1    3    3    0    0 -0.31080631641E+02 -0.24976689475E+02  0.27016729853E+02  0.48163840548E+02  0.10566000000E+00 0. -1.
         22    1    1    0    0    0  0.62061783003E+01  0.26051137405E+02  0.12951242962E+02  0.29747489028E+02  0.00000000000E+00 0. -1.
</event>
<event>
 5    1  0.2295577E-004  0.9118800E+02  0.7818608E-02  0.1130116E+00
         25   -1    0    0    0    0  0.00000000000E+00  0.00000000000E+00  0.99999998245E-14  0.12500000000E+03  0.12500000000E+03 0.  0.
        -13    1    3    3    0    0 -0.21327630311E+02 -0.49117376052E+02 -0.27402956138E+02  0.60152453101E+02  0.10566000000E+00 0. -1.
         23    2    1    0    0    0 -0.31019239141E+01 -0.17803030436E+02 -0.21585177576E+02  0.96848806141E+02  0.92667154566E+02 0.  0.
         13    1    3    3    0    0  0.18225706397E+02  0.31314345617E+02  0.58177785617E+01  0.36696353041E+02  0.10566000000E+00 0.  1.
         22    1    1    0    0    0  0.31019239141E+01  0.17803030436E+02  0.21585177576E+02  0.28151193859E+02  0.00000000000E+00 0. -1.
</event>
<event>
 5    1  0.2295577E-004  0.9118800E+02  0.7818608E-02  0.1130116E+00
         25   -1    0    0    0    0  0.00000000000E+00  0.00000000000E+00  0.99999998245E-14  0.12500000000E+03  0.12500000000E+03 0.  0.
        -13    1    3    3    0    0  0.15690971210E+02  0.45367996975E+02  0.27008104970E+02  0.55080946117E+02  0.10566000000E+00 0. -1.
         23    2    1    0    0    0  0.31679549164E+01  0.87777703543E+01  0.29719398469E+02  0.93849914348E+02  0.88529535111E+02 0.  0.
         13    1    3    3    0    0 -0.12523016294E+02 -0.36590226621E+02  0.27112934997E+01  0.38768968231E+02  0.10566000000E+00 0.  1.
         22    1    1    0    0    0 -0.31679549164E+01 -0.87777703543E+01 -0.29719398469E+02  0.31150085652E+02  0.00000000000E+00 0. -1.
</event>
<event>
 5    1  0.2295577E-004  0.9118800E+02  0.7818608E-02  0.1130116E+00
         25   -1    0    0    0    0  0.00000000000E+00  0.00000000000E+00  0.99999998245E-14  0.12500000000E+03  0.12500000000E+03 0.  0.
        -13    1    3    3    0    0  0.21991784947E+02  0.46380190211E+02  0.66066746342E+01  0.51753453633E+02  0.10566000000E+00 0. -1.
         23    2    1    0    0    0  0.16340795716E+02  0.12591118311E+02 -0.20859378947E+02  0.95662795720E+02  0.91053275229E+02 0.  0.
         13    1    3    3    0    0 -0.56509892317E+01 -0.33789071900E+02 -0.27466053581E+02  0.43909342087E+02  0.10566000000E+00 0.  1.
         22    1    1    0    0    0 -0.16340795716E+02 -0.12591118311E+02  0.20859378947E+02  0.29337204280E+02  0.00000000000E+00 0. -1.
</event>
<event>
 5    1  0.2295577E-004  0.9118800E+02  0.7818608E-02  0.1130116E+00
         25   -1    0    0    0    0  0.00000000000E+00  0.00000000000E+00  0.99999998245E-14  0.12500000000E+03  0.12500000000E+03 0.  0.
        -13    1    3    3    0    0  0.83219808734E+01  0.12889551499E+02 -0.50757033918E+02  0.53025310558E+02  0.10566000000E+00 0. -1.
         23    2    1    0    0    0  0.72584486656E+01  0.26469452544E+02 -0.10349840734E+02  0.95666807227E+02  0.91058782151E+02 0.  0.
         13    1    3    3    0    0 -0.10635322077E+01  0.13579901045E+02  0.40407193184E+02  0.42641496669E+02  0.10566000000E+00 0.  1.
         22    1    1    0    0    0 -0.72584486656E+01 -0.26469452544E+02  0.10349840734E+02  0.29333192773E+02  0.00000000000E+00 0. -1.
</event>
<event>
 5    1  0.2295577E-004  0.9118800E+02  0.7818608E-02  0.1130116E+00
         25   -1    0    0    0    0  0.00000000000E+00  0.00000000000E+00  0.99999998245E-14  0.12500000000E+03  0.12500000000E+03 0.  0.
        -13    1    3    3    0    0  0.70633649877E+01 -0.53504976775E+02  0.11219775201E+02  0.55123209125E+02  0.10566000000E+00 0.  1.
         23    2    1    0    0    0  0.22820854743E+02 -0.15186642487E+02  0.65392323342E+01  0.96818674965E+02  0.92626501290E+02 0.  0.
         13    1    3    3    0    0  0.15757489755E+02  0.38318334288E+02 -0.46805428671E+01  0.41695465840E+02  0.10566000000E+00 0. -1.
         22    1    1    0    0    0 -0.22820854743E+02  0.15186642487E+02 -0.65392323342E+01  0.28181325035E+02  0.00000000000E+00 0. -1.
</event>
<event>
 5    1  0.2295577E-004  0.9118800E+02  0.7818608E-02  0.1130116E+00
         25   -1    0    0    0    0  0.00000000000E+00  0.00000000000E+00  0.99999998245E-14  0.12500000000E+03  0.12500000000E+03 0.  0.
        -13    1    3    3    0    0 -0.22185589121E+02  0.17026390072E+02  0.22576589667E+02  0.35941784715E+02  0.10566000000E+00 0.  1.
         23    2    1    0    0    0  0.58244519406E+01 -0.26014145386E+02 -0.97419000673E+01  0.96617529750E+02  0.92354655743E+02 0.  0.
         13    1    3    3    0    0  0.28010041061E+02 -0.43040535458E+02 -0.32318489734E+02  0.60675745034E+02  0.10566000000E+00 0. -1.
         22    1    1    0    0    0 -0.58244519406E+01  0.26014145386E+02  0.97419000673E+01  0.28382470250E+02  0.00000000000E+00 0. -1.
</event>
<event>
 5    1  0.2295577E-004  0.9118800E+02  0.7818608E-02  0.1130116E+00
         25   -1    0    0    0    0  0.00000000000E+00  0.00000000000E+00  0.99999998245E-14  0.12500000000E+03  0.12500000000E+03 0.  0.
        -13    1    3    3    0    0 -0.52753239680E+02  0.24830178557E+02  0.47124963429E+01  0.58494964311E+02  0.10566000000E+00 0.  1.
         23    2    1    0    0    0 -0.17911503120E+02  0.22784549772E+02 -0.67710939474E+01  0.95237517483E+02  0.90467559770E+02 0.  0.
         13    1    3    3    0    0  0.34841736560E+02 -0.20456287854E+01 -0.11483590290E+02  0.36742553172E+02  0.10566000000E+00 0. -1.
         22    1    1    0    0    0  0.17911503120E+02 -0.22784549772E+02  0.67710939474E+01  0.29762482517E+02  0.00000000000E+00 0.  1.
</event>
<event>
 5    1  0.2295577E-004  0.9118800E+02  0.7818608E-02  0.1130116E+00
         25   -1    0    0    0    0  0.00000000000E+00  0.00000000000E+00  0.99999998245E-14  0.12500000000E+03  0.12500000000E+03 0.  0.
        -13    1    3    3    0    0 -0.34707257373E+02  0.42877402071E+02  0.16392337615E+02  0.57548112213E+02  0.10566000000E+00 0.  1.
         23    2    1    0    0    0  0.75861652259E+00  0.26138935717E+02  0.51197572612E+01  0.98353586097E+02  0.94675215998E+02 0.  0.
         13    1    3    3    0    0  0.35465873896E+02 -0.16738466354E+02 -0.11272580354E+02  0.40805473884E+02  0.10566000000E+00 0. -1.
         22    1    1    0    0    0 -0.75861652259E+00 -0.26138935717E+02 -0.51197572612E+01  0.26646413903E+02  0.00000000000E+00 0.  1.
</event>
<event>
 5    1  0.2295577E-004  0.9118800E+02  0.7818608E-02  0.1130116E+00
         25   -1    0    0    0    0  0.00000000000E+00  0.00000000000E+00  0.99999998245E-14  0.12500000000E+03  0.12500000000E+03 0.  0.
        -13    1    3    3    0    0 -0.25212126781E+02 -0.18574076317E+02  0.14465939123E+02  0.34495249044E+02  0.10566000000E+00 0.  1.
         23    2    1    0    0    0  0.23940206829E+02  0.15279456891E+02 -0.23517366819E+01  0.96502176025E+02  0.92198394813E+02 0.  0.
         13    1    3    3    0    0  0.49152333610E+02  0.33853533209E+02 -0.16817675805E+02  0.62006926980E+02  0.10566000000E+00 0. -1.
         22    1    1    0    0    0 -0.23940206829E+02 -0.15279456891E+02  0.23517366819E+01  0.28497823975E+02  0.00000000000E+00 0. -1.
</event>
<event>
 5    1  0.2295577E-004  0.9118800E+02  0.7818608E-02  0.1130116E+00
         25   -1    0    0    0    0  0.00000000000E+00  0.00000000000E+00  0.99999998245E-14  0.12500000000E+03  0.12500000000E+03 0.  0.
        -13    1    3    3    0    0 -0.37666516587E+02 -0.14969351494E+02 -0.14273024199E+02  0.42971831934E+02  0.10566000000E+00 0. -1.
         23    2    1    0    0    0 -0.12584113297E+02  0.27664464905E+02  0.52654943125E+00  0.94603293266E+02  0.89586959522E+02 0.  0.
         13    1    3    3    0    0  0.25082403290E+02  0.42633816400E+02  0.14799573630E+02  0.51631461332E+02  0.10566000000E+00 0.  1.
         22    1    1    0    0    0  0.12584113297E+02 -0.27664464905E+02 -0.52654943125E+00  0.30396706734E+02  0.00000000000E+00 0.  1.
</event>
<event>
 5    1  0.2295577E-004  0.9118800E+02  0.7818608E-02  0.1130116E+00
         25   -1    0    0    0    0  0.00000000000E+00  0.00000000000E+00  0.99999998245E-14  0.12500000000E+03  0.12500000000E+03 0.  0.
        -13    1    3    3    0    0 -0.36353920856E+02  0.33038058995E+02 -0.71871792484E+01  0.49646627412E+02  0.10566000000E+00 0. -1.
         23    2    1    0    0    0  0.45254927062E+01  0.16997120084E+02 -0.22755762262E+02  0.96238795375E+02  0.91840616525E+02 0.  0.
         13    1    3    3    0    0  0.40879413563E+02 -0.16040938911E+02 -0.15568583014E+02  0.46592167963E+02  0.10566000000E+00 0.  1.
         22    1    1    0    0    0 -0.45254927062E+01 -0.16997120084E+02  0.22755762262E+02  0.28761204625E+02  0.00000000000E+00 0. -1.
</event>
<event>
 5    1  0.2295577E-004  0.9118800E+02  0.7818608E-02  0.1130116E+00
         25   -1    0    0    0    0  0.00000000000E+00  0.00000000000E+00  0.99999998245E-14  0.12500000000E+03  0.12500000000E+03 0.  0.
        -13    1    3    3    0    0  0.34568957636E+02 -0.10242671463E+01 -0.24228101543E+02  0.42226461178E+02  0.10566000000E+00 0. -1.
         23    2    1    0    0    0  0.13004365223E+02  0.23770089644E+02  0.15501152456E+02  0.93784356421E+02  0.88436921619E+02 0.  0.
         13    1    3    3    0    0 -0.21564592412E+02  0.24794356790E+02  0.39729253999E+02  0.51557895243E+02  0.10566000000E+00 0.  1.
         22    1    1    0    0    0 -0.13004365223E+02 -0.23770089644E+02 -0.15501152456E+02  0.31215643579E+02  0.00000000000E+00 0.  1.
</event>
<event>
 5    1  0.2295577E-004  0.9118800E+02  0.7818608E-02  0.1130116E+00
         25   -1    0    0    0    0  0.00000000000E+00  0.00000000000E+00  0.99999998245E-14  0.12500000000E+03  0.12500000000E+03 0.  0.
        -13    1    3    3    0    0 -0.32193644539E+02  0.39935318700E+02  0.26478559720E+02  0.57726819740E+02  0.10566000000E+00 0. -1.
         23    2    1    0    0    0 -0.22987835943E+02  0.38665656547E+01  0.36206167870E+01  0.10140975207E+03  0.98627775087E+02 0.  0.
         13    1    3    3    0    0  0.92058085968E+01 -0.36068753045E+02 -0.22857942933E+02  0.43682932334E+02  0.10566000000E+00 0.  1.
         22    1    1    0    0    0  0.22987835943E+02 -0.38665656547E+01 -0.36206167870E+01  0.23590247926E+02  0.00000000000E+00 0. -1.
</event>
<event>
 5    1  0.2295577E-004  0.9118800E+02  0.7818608E-02  0.1130116E+00
         25   -1    0    0    0    0  0.00000000000E+00  0.00000000000E+00  0.99999998245E-14  0.12500000000E+03  0.12500000000E+03 0.  0.
        -13    1    3    3    0    0 -0.26238894692E+02  0.27632078219E+02 -0.43149363003E+02  0.57566396734E+02  0.10566000000E+00 0.  1.
         23    2    1    0    0    0 -0.19482829411E+01  0.35515299022E+01 -0.30804919081E+02  0.93929882352E+02  0.88642374674E+02 0.  0.
         13    1    3    3    0    0  0.24290611751E+02 -0.24080548317E+02  0.12344443921E+02  0.36363485618E+02  0.10566000000E+00 0. -1.
         22    1    1    0    0    0  0.19482829411E+01 -0.35515299022E+01  0.30804919081E+02  0.31070117648E+02  0.00000000000E+00 0.  1.
</event>
<event>
 5    1  0.2295577E-004  0.9118800E+02  0.7818608E-02  0.1130116E+00
         25   -1    0    0    0    0  0.00000000000E+00  0.00000000000E+00  0.99999998245E-14  0.12500000000E+03  0.12500000000E+03 0.  0.
        -13    1    3    3    0    0  0.64601683533E+01 -0.11792242495E+02  0.28027711564E+02  0.31086243546E+02  0.10566000000E+00 0. -1.
         23    2    1    0    0    0  0.19761261473E+01  0.72873410049E+01 -0.30901516850E+02  0.93189401812E+02  0.87591954270E+02 0.  0.
         13    1    3    3    0    0 -0.44840422060E+01  0.19079583500E+02 -0.58929228414E+02  0.62103158266E+02  0.10566000000E+00 0.  1.
         22    1    1    0    0    0 -0.19761261473E+01 -0.72873410049E+01  0.30901516850E+02  0.31810598188E+02  0.00000000000E+00 0.  1.
</event>
<event>
 5    1  0.2295577E-004  0.9118800E+02  0.7818608E-02  0.1130116E+00
         25   -1    0    0    0    0  0.00000000000E+00  0.00000000000E+00  0.99999998245E-14  0.12500000000E+03  0.12500000000E+03 0.  0.
        -13    1    3    3    0    0 -0.45083873183E-02 -0.17105602977E+02  0.31250977319E+02  0.35626344479E+02  0.10566000000E+00 0. -1.
         23    2    1    0    0    0 -0.63978921671E+01  0.28001515561E+02 -0.73640968022E+01  0.95347886760E+02  0.90619929872E+02 0.  0.
         13    1    3    3    0    0 -0.63933837797E+01  0.45107118538E+02 -0.38615074121E+02  0.59721542281E+02  0.10566000000E+00 0.  1.
         22    1    1    0    0    0  0.63978921671E+01 -0.28001515561E+02  0.73640968022E+01  0.29652113240E+02  0.00000000000E+00 0.  1.
</event>
<event>
 5    1  0.2295577E-004  0.9118800E+02  0.7818608E-02  0.1130116E+00
         25   -1    0    0    0    0  0.00000000000E+00  0.00000000000E+00  0.99999998245E-14  0.12500000000E+03  0.12500000000E+03 0.  0.
        -13    1    3    3    0    0 -0.18645496051E+02 -0.24060809941E+02  0.33337988025E+02  0.45144320879E+02  0.10566000000E+00 0.  1.
         23    2    1    0    0    0 -0.15074296326E+02  0.21832660940E+02  0.12063633679E+02  0.95855004702E+02  0.91316762839E+02 0.  0.
         13    1    3    3    0    0  0.35711997254E+01  0.45893470880E+02 -0.21274354347E+02  0.50710683823E+02  0.10566000000E+00 0. -1.
         22    1    1    0    0    0  0.15074296326E+02 -0.21832660940E+02 -0.12063633679E+02  0.29144995298E+02  0.00000000000E+00 0. -1.
</event>
<event>
 5    1  0.2295577E-004  0.9118800E+02  0.7818608E-02  0.1130116E+00
         25   -1    0    0    0    0  0.00000000000E+00  0.00000000000E+00  0.99999998245E-14  0.12500000000E+03  0.12500000000E+03 0.  0.
        -13    1    3    3    0    0  0.22486073877E+01  0.23764043516E+01 -0.34028108967E+02  0.34185185340E+02  0.10566000000E+00 0. -1.
         23    2    1    0    0    0  0.64070594923E+00 -0.11065097600E+02  0.26535158975E+02  0.96243060823E+02  0.91846421845E+02 0.  0.
         13    1    3    3    0    0 -0.16079014385E+01 -0.13441501951E+02  0.60563267941E+02  0.62057875483E+02  0.10566000000E+00 0.  1.
         22    1    1    0    0    0 -0.64070594923E+00  0.11065097600E+02 -0.26535158975E+02  0.28756939177E+02  0.00000000000E+00 0.  1.
</event>
<event>
 5    1  0.2295577E-004  0.9118800E+02  0.7818608E-02  0.1130116E+00
         25   -1    0    0    0    0  0.00000000000E+00  0.00000000000E+00  0.99999998245E-14  0.12500000000E+03  0.12500000000E+03 0.  0.
        -13    1    3    3    0    0  0.15038700574E+02  0.30370948385E+02  0.13224424279E+02  0.36379301565E+02  0.10566000000E+00 0. -1.
         23    2    1    0    0    0 -0.13949580423E+02 -0.20103190980E+02  0.17764692665E+02  0.94762384568E+02  0.89808664069E+02 0.  0.
         13    1    3    3    0    0 -0.28988280997E+02 -0.50474139366E+02  0.45402683863E+01  0.58383083003E+02  0.10566000000E+00 0.  1.
         22    1    1    0    0    0  0.13949580423E+02  0.20103190980E+02 -0.17764692665E+02  0.30237615432E+02  0.00000000000E+00 0.  1.
</event>
<event>
 5    1  0.2295577E-004  0.9118800E+02  0.7818608E-02  0.1130116E+00
         25   -1    0    0    0    0  0.00000000000E+00  0.00000000000E+00  0.99999998245E-14  0.12500000000E+03  0.12500000000E+03 0.  0.
        -13    1    3    3    0    0 -0.27088124080E+01 -0.39733908019E+02  0.15400820879E+01  0.39856042553E+02  0.10566000000E+00 0.  1.
         23    2    1    0    0    0  0.23770468875E+02  0.49960311859E+01 -0.17336905002E+02  0.95157684520E+02  0.90357186377E+02 0.  0.
         13    1    3    3    0    0  0.26479281283E+02  0.44729939205E+02 -0.18876987090E+02  0.55301641967E+02  0.10566000000E+00 0. -1.
         22    1    1    0    0    0 -0.23770468875E+02 -0.49960311859E+01  0.17336905002E+02  0.29842315480E+02  0.00000000000E+00 0. -1.
</event>
<event>
 5    1  0.2295577E-004  0.9118800E+02  0.7818608E-02  0.1130116E+00
         25   -1    0    0    0    0  0.00000000000E+00  0.00000000000E+00  0.99999998245E-14  0.12500000000E+03  0.12500000000E+03 0.  0.
        -13    1    3    3    0    0 -0.36018882571E+02 -0.41119265790E+01  0.29026646227E+02  0.46441632153E+02  0.10566000000E+00 0.  1.
         23    2    1    0    0    0  0.33167213366E+01  0.23876967227E+02  0.14552272189E+02  0.96841895834E+02  0.92657832688E+02 0.  0.
         13    1    3    3    0    0  0.39335603908E+02  0.27988893806E+02 -0.14474374037E+02  0.50400263680E+02  0.10566000000E+00 0. -1.
         22    1    1    0    0    0 -0.33167213366E+01 -0.23876967227E+02 -0.14552272189E+02  0.28158104166E+02  0.00000000000E+00 0.  1.
</event>
<event>
 5    1  0.2295577E-004  0.9118800E+02  0.7818608E-02  0.1130116E+00
         25   -1    0    0    0    0  0.00000000000E+00  0.00000000000E+00  0.99999998245E-14  0.12500000000E+03  0.12500000000E+03 0.  0.
        -13    1    3    3    0    0  0.14757341914E+02 -0.30584600565E+02 -0.16436688647E+02  0.37727613624E+02  0.10566000000E+00 0. -1.
         23    2    1    0    0    0 -0.24101940340E+02 -0.25885037356E+00  0.15390682397E+02  0.96402034402E+02  0.92062525495E+02 0.  0.
         13    1    3    3    0    0 -0.38859282254E+02  0.30325750191E+02  0.31827371045E+02  0.58674420778E+02  0.10566000000E+00 0.  1.
         22    1    1    0    0    0  0.24101940340E+02  0.25885037356E+00 -0.15390682397E+02  0.28597965598E+02  0.00000000000E+00 0.  1.
</event>
<event>
 5    1  0.2295577E-004  0.9118800E+02  0.7818608E-02  0.1130116E+00
         25   -1    0    0    0    0  0.00000000000E+00  0.00000000000E+00  0.99999998245E-14  0.12500000000E+03  0.12500000000E+03 0.  0.
        -13    1    3    3    0    0  0.44030512539E+01 -0.31634479509E+02 -0.14527885666E+02  0.35088428009E+02  0.10566000000E+00 0. -1.
         23    2    1    0    0    0  0.15384064737E+02  0.25642517443E+02 -0.40658280221E+00  0.95093922721E+02  0.90268935300E+02 0.  0.
         13    1    3    3    0    0  0.10981013483E+02  0.57276996953E+02  0.14121302864E+02  0.60005494712E+02  0.10566000000E+00 0.  1.
         22    1    1    0    0    0 -0.15384064737E+02 -0.25642517443E+02  0.40658280221E+00  0.29906077279E+02  0.00000000000E+00 0.  1.
</event>
<event>
 5    1  0.2295577E-004  0.9118800E+02  0.7818608E-02  0.1130116E+00
         25   -1    0    0    0    0  0.00000000000E+00  0.00000000000E+00  0.99999998245E-14  0.12500000000E+03  0.12500000000E+03 0.  0.
        -13    1    3    3    0    0 -0.13524204009E+02  0.10363912515E+02  0.23720877732E+01  0.17203277047E+02  0.10566000000E+00 0. -1.
         23    2    1    0    0    0 -0.12300993072E+02 -0.47021837287E+02 -0.85983277233E+01  0.75641121852E+02  0.57317366156E+02 0.  0.
         13    1    3    3    0    0  0.12232109371E+01 -0.57385749802E+02 -0.10970415497E+02  0.58437844805E+02  0.10566000000E+00 0.  1.
         22    1    1    0    0    0  0.12300993072E+02  0.47021837287E+02  0.85983277233E+01  0.49358878148E+02  0.00000000000E+00 0.  1.
</event>
<event>
 5    1  0.2295577E-004  0.9118800E+02  0.7818608E-02  0.1130116E+00
         25   -1    0    0    0    0  0.00000000000E+00  0.00000000000E+00  0.99999998245E-14  0.12500000000E+03  0.12500000000E+03 0.  0.
        -13    1    3    3    0    0  0.27792971905E+01 -0.10474825909E+02 -0.59879884559E+02  0.60852758438E+02  0.10566000000E+00 0. -1.
         23    2    1    0    0    0  0.10325854024E+02 -0.91138695780E+01 -0.26135279145E+02  0.95457848826E+02  0.90771483443E+02 0.  0.
         13    1    3    3    0    0  0.75465568337E+01  0.13609563310E+01  0.33744605414E+02  0.34605090388E+02  0.10566000000E+00 0.  1.
         22    1    1    0    0    0 -0.10325854024E+02  0.91138695780E+01  0.26135279145E+02  0.29542151174E+02  0.00000000000E+00 0. -1.
</event>
<event>
 5    1  0.2295577E-004  0.9118800E+02  0.7818608E-02  0.1130116E+00
         25   -1    0    0    0    0  0.00000000000E+00  0.00000000000E+00  0.99999998245E-14  0.12500000000E+03  0.12500000000E+03 0.  0.
        -13    1    3    3    0    0 -0.31117921452E+02 -0.39711309710E+02  0.21785235684E+02  0.54953806167E+02  0.10566000000E+00 0.  1.
         23    2    1    0    0    0  0.56484741697E+01 -0.21935092153E+02  0.18188889708E+02  0.95950228280E+02  0.91447017830E+02 0.  0.
         13    1    3    3    0    0  0.36766395621E+02  0.17776217558E+02 -0.35963459765E+01  0.40996422113E+02  0.10566000000E+00 0. -1.
         22    1    1    0    0    0 -0.56484741697E+01  0.21935092153E+02 -0.18188889708E+02  0.29049771720E+02  0.00000000000E+00 0. -1.
</event>
<event>
 5    1  0.2295577E-004  0.9118800E+02  0.7818608E-02  0.1130116E+00
         25   -1    0    0    0    0  0.00000000000E+00  0.00000000000E+00  0.99999998245E-14  0.12500000000E+03  0.12500000000E+03 0.  0.
        -13    1    3    3    0    0 -0.79108856691E+01  0.22248290232E+02  0.31593820272E+02  0.39442986369E+02  0.10566000000E+00 0. -1.
         23    2    1    0    0    0  0.31529814234E+02  0.63986006121E+01 -0.69114019765E+00  0.92820053602E+02  0.87063272397E+02 0.  0.
         13    1    3    3    0    0  0.39440699903E+02 -0.15849689620E+02 -0.32284960470E+02  0.53377067233E+02  0.10566000000E+00 0.  1.
         22    1    1    0    0    0 -0.31529814234E+02 -0.63986006121E+01  0.69114019765E+00  0.32179946398E+02  0.00000000000E+00 0.  1.
</event>
<event>
 5    1  0.2295577E-004  0.9118800E+02  0.7818608E-02  0.1130116E+00
         25   -1    0    0    0    0  0.00000000000E+00  0.00000000000E+00  0.99999998245E-14  0.12500000000E+03  0.12500000000E+03 0.  0.
        -13    1    3    3    0    0 -0.15533752128E+02 -0.58002050679E+02  0.11185983900E+02  0.61079233279E+02  0.10566000000E+00 0.  1.
         23    2    1    0    0    0  0.82265098157E+00 -0.27110901801E+02  0.10121099424E+02  0.96049794393E+02  0.91583014792E+02 0.  0.
         13    1    3    3    0    0  0.16356403110E+02  0.30891148877E+02 -0.10648844761E+01  0.34970561114E+02  0.10566000000E+00 0. -1.
         22    1    1    0    0    0 -0.82265098157E+00  0.27110901801E+02 -0.10121099424E+02  0.28950205607E+02  0.00000000000E+00 0.  1.
</event>
<event>
 5    1  0.2295577E-004  0.9118800E+02  0.7818608E-02  0.1130116E+00
         25   -1    0    0    0    0  0.00000000000E+00  0.00000000000E+00  0.99999998245E-14  0.12500000000E+03  0.12500000000E+03 0.  0.
        -13    1    3    3    0    0  0.27653146951E+02  0.17536967615E+02  0.12530644472E+02  0.35060946712E+02  0.10566000000E+00 0.  1.
         23    2    1    0    0    0 -0.38240819258E+01 -0.27355292938E+02 -0.11697607303E+02  0.95003839064E+02  0.90144105553E+02 0.  0.
         13    1    3    3    0    0 -0.31477228877E+02 -0.44892260553E+02 -0.24228251775E+02  0.59942892351E+02  0.10566000000E+00 0. -1.
         22    1    1    0    0    0  0.38240819258E+01  0.27355292938E+02  0.11697607303E+02  0.29996160936E+02  0.00000000000E+00 0. -1.
</event>
<event>
 5    1  0.2295577E-004  0.9118800E+02  0.7818608E-02  0.1130116E+00
         25   -1    0    0    0    0  0.00000000000E+00  0.00000000000E+00  0.99999998245E-14  0.12500000000E+03  0.12500000000E+03 0.  0.
        -13    1    3    3    0    0 -0.68617861220E+01 -0.16596831410E+02 -0.50510607399E+02  0.53608502548E+02  0.10566000000E+00 0. -1.
         23    2    1    0    0    0  0.10059832311E+02  0.11901598276E+02 -0.25440636291E+02  0.95165887938E+02  0.90368534261E+02 0.  0.
         13    1    3    3    0    0  0.16921618433E+02  0.28498429687E+02  0.25069971108E+02  0.41557385389E+02  0.10566000000E+00 0.  1.
         22    1    1    0    0    0 -0.10059832311E+02 -0.11901598276E+02  0.25440636291E+02  0.29834112062E+02  0.00000000000E+00 0. -1.
</event>
<event>
 5    1  0.2295577E-004  0.9118800E+02  0.7818608E-02  0.1130116E+00
         25   -1    0    0    0    0  0.00000000000E+00  0.00000000000E+00  0.99999998245E-14  0.12500000000E+03  0.12500000000E+03 0.  0.
        -13    1    3    3    0    0  0.64723435174E+01  0.11308046892E+02  0.32280980261E+02  0.34811434986E+02  0.10566000000E+00 0. -1.
         23    2    1    0    0    0 -0.19894186307E+02 -0.34686301640E+01 -0.20872418110E+02  0.95957481483E+02  0.91456931781E+02 0.  0.
         13    1    3    3    0    0 -0.26366529825E+02 -0.14776677056E+02 -0.53153398371E+02  0.61146046497E+02  0.10566000000E+00 0.  1.
         22    1    1    0    0    0  0.19894186307E+02  0.34686301640E+01  0.20872418110E+02  0.29042518517E+02  0.00000000000E+00 0.  1.
</event>
<event>
 5    1  0.2295577E-004  0.9118800E+02  0.7818608E-02  0.1130116E+00
         25   -1    0    0    0    0  0.00000000000E+00  0.00000000000E+00  0.99999998245E-14  0.12500000000E+03  0.12500000000E+03 0.  0.
        -13    1    3    3    0    0  0.44728615299E+02 -0.41103428614E+01 -0.15199707983E+02  0.47419260136E+02  0.10566000000E+00 0. -1.
         23    2    1    0    0    0  0.85513886219E+01 -0.27041628647E+02  0.71764650153E+01  0.95744614558E+02  0.91165528789E+02 0.  0.
         13    1    3    3    0    0 -0.36177226678E+02 -0.22931285786E+02  0.22376172999E+02  0.48325354422E+02  0.10566000000E+00 0.  1.
         22    1    1    0    0    0 -0.85513886219E+01  0.27041628647E+02 -0.71764650153E+01  0.29255385442E+02  0.00000000000E+00 0.  1.
</event>
<event>
 5    1  0.2295577E-004  0.9118800E+02  0.7818608E-02  0.1130116E+00
         25   -1    0    0    0    0  0.00000000000E+00  0.00000000000E+00  0.99999998245E-14  0.12500000000E+03  0.12500000000E+03 0.  0.
        -13    1    3    3    0    0  0.16559039388E+01 -0.12013732760E+02  0.52682593815E+02  0.54060509134E+02  0.10566000000E+00 0.  1.
         23    2    1    0    0    0  0.22658842917E+02 -0.10976710737E+02  0.20366059024E+02  0.92616552050E+02  0.86770605694E+02 0.  0.
         13    1    3    3    0    0  0.21002938979E+02  0.10370220233E+01 -0.32316534791E+02  0.38556042916E+02  0.10566000000E+00 0. -1.
         22    1    1    0    0    0 -0.22658842917E+02  0.10976710737E+02 -0.20366059024E+02  0.32383447950E+02  0.00000000000E+00 0.  1.
</event>
<event>
 5    1  0.2295577E-004  0.9118800E+02  0.7818608E-02  0.1130116E+00
         25   -1    0    0    0    0  0.00000000000E+00  0.00000000000E+00  0.99999998245E-14  0.12500000000E+03  0.12500000000E+03 0.  0.
        -13    1    3    3    0    0  0.51367168580E+02  0.54866661543E+01 -0.30758551762E+02  0.60123116885E+02  0.10566000000E+00 0. -1.
         23    2    1    0    0    0  0.21101282657E+02  0.14007569953E+02 -0.17317672595E+02  0.94318117237E+02  0.89188167989E+02 0.  0.
         13    1    3    3    0    0 -0.30265885923E+02  0.85209037986E+01  0.13440879167E+02  0.34195000352E+02  0.10566000000E+00 0.  1.
         22    1    1    0    0    0 -0.21101282657E+02 -0.14007569953E+02  0.17317672595E+02  0.30681882763E+02  0.00000000000E+00 0. -1.
</event>
<event>
 5    1  0.2295577E-004  0.9118800E+02  0.7818608E-02  0.1130116E+00
         25   -1    0    0    0    0  0.00000000000E+00  0.00000000000E+00  0.99999998245E-14  0.12500000000E+03  0.12500000000E+03 0.  0.
        -13    1    3    3    0    0  0.14030754292E+02  0.13598167898E+02 -0.53064789340E+02  0.56547813997E+02  0.10566000000E+00 0.  1.
         23    2    1    0    0    0 -0.10925439155E+02  0.14632830024E+02 -0.22078037240E+02  0.96348217095E+02  0.91989424794E+02 0.  0.
         13    1    3    3    0    0 -0.24956193446E+02  0.10346621257E+01  0.30986752100E+02  0.39800403098E+02  0.10566000000E+00 0. -1.
         22    1    1    0    0    0  0.10925439155E+02 -0.14632830024E+02  0.22078037240E+02  0.28651782905E+02  0.00000000000E+00 0. -1.
</event>
<event>
 5    1  0.2295577E-004  0.9118800E+02  0.7818608E-02  0.1130116E+00
         25   -1    0    0    0    0  0.00000000000E+00  0.00000000000E+00  0.99999998245E-14  0.12500000000E+03  0.12500000000E+03 0.  0.
        -13    1    3    3    0    0  0.17211386202E+02 -0.11256580083E+02  0.46304093261E+02  0.50665793460E+02  0.10566000000E+00 0. -1.
         23    2    1    0    0    0  0.25462801484E+02  0.12644849272E+02  0.10092414909E+02  0.94832081423E+02  0.89905619156E+02 0.  0.
         13    1    3    3    0    0  0.82514152819E+01  0.23901429355E+02 -0.36211678352E+02  0.44166287963E+02  0.10566000000E+00 0.  1.
         22    1    1    0    0    0 -0.25462801484E+02 -0.12644849272E+02 -0.10092414909E+02  0.30167918577E+02  0.00000000000E+00 0. -1.
</event>
<event>
 5    1  0.2295577E-004  0.9118800E+02  0.7818608E-02  0.1130116E+00
         25   -1    0    0    0    0  0.00000000000E+00  0.00000000000E+00  0.99999998245E-14  0.12500000000E+03  0.12500000000E+03 0.  0.
        -13    1    3    3    0    0 -0.38320330021E+02  0.84007694501E+01 -0.27476859382E+02  0.47895820129E+02  0.10566000000E+00 0.  1.
         23    2    1    0    0    0 -0.52408914073E+01 -0.21052440401E+02 -0.24481854154E+02  0.92288635424E+02  0.86296922634E+02 0.  0.
         13    1    3    3    0    0  0.33079438613E+02 -0.29453209851E+02  0.29950052281E+01  0.44392815296E+02  0.10566000000E+00 0. -1.
         22    1    1    0    0    0  0.52408914073E+01  0.21052440401E+02  0.24481854154E+02  0.32711364576E+02  0.00000000000E+00 0. -1.
</event>
<event>
 5    1  0.2295577E-004  0.9118800E+02  0.7818608E-02  0.1130116E+00
         25   -1    0    0    0    0  0.00000000000E+00  0.00000000000E+00  0.99999998245E-14  0.12500000000E+03  0.12500000000E+03 0.  0.
        -13    1    3    3    0    0  0.19244857108E+02 -0.43133139192E+02  0.34419843382E+02  0.58442869575E+02  0.10566000000E+00 0.  1.
         23    2    1    0    0    0  0.20150761094E+02 -0.20819854745E+02  0.46548579258E+01  0.95654008339E+02  0.91041210914E+02 0.  0.
         13    1    3    3    0    0  0.90590398638E+00  0.22313284447E+02 -0.29764985456E+02  0.37211138764E+02  0.10566000000E+00 0. -1.
         22    1    1    0    0    0 -0.20150761094E+02  0.20819854745E+02 -0.46548579258E+01  0.29345991661E+02  0.00000000000E+00 0.  1.
</event>
<event>
 5    1  0.2295577E-004  0.9118800E+02  0.7818608E-02  0.1130116E+00
         25   -1    0    0    0    0  0.00000000000E+00  0.00000000000E+00  0.99999998245E-14  0.12500000000E+03  0.12500000000E+03 0.  0.
        -13    1    3    3    0    0  0.19699550752E+02  0.31947163469E+02  0.34032813439E+02  0.50664949503E+02  0.10566000000E+00 0.  1.
         23    2    1    0    0    0 -0.53635932483E+01  0.14376979292E+00  0.33409835288E+02  0.91162064244E+02  0.84649371297E+02 0.  0.
         13    1    3    3    0    0 -0.25063144000E+02 -0.31803393676E+02 -0.62297815084E+00  0.40497114741E+02  0.10566000000E+00 0. -1.
         22    1    1    0    0    0  0.53635932483E+01 -0.14376979292E+00 -0.33409835288E+02  0.33837935756E+02  0.00000000000E+00 0.  1.
</event>
<event>
 5    1  0.2295577E-004  0.9118800E+02  0.7818608E-02  0.1130116E+00
         25   -1    0    0    0    0  0.00000000000E+00  0.00000000000E+00  0.99999998245E-14  0.12500000000E+03  0.12500000000E+03 0.  0.
        -13    1    3    3    0    0 -0.18236317738E+02 -0.46301170352E+02 -0.19485813605E+02  0.53442209502E+02  0.10566000000E+00 0.  1.
         23    2    1    0    0    0  0.13335090540E+02 -0.18200030572E+02 -0.18667137673E+02  0.95716424715E+02  0.91126868589E+02 0.  0.
         13    1    3    3    0    0  0.31571408278E+02  0.28101139779E+02  0.81867593172E+00  0.42274215213E+02  0.10566000000E+00 0. -1.
         22    1    1    0    0    0 -0.13335090540E+02  0.18200030572E+02  0.18667137673E+02  0.29283575285E+02  0.00000000000E+00 0. -1.
</event>
<event>
 5    1  0.2295577E-004  0.9118800E+02  0.7818608E-02  0.1130116E+00
         25   -1    0    0    0    0  0.00000000000E+00  0.00000000000E+00  0.99999998245E-14  0.12500000000E+03  0.12500000000E+03 0.  0.
        -13    1    3    3    0    0 -0.16817740978E+02 -0.22347924015E+02 -0.22965755653E+02  0.36189821996E+02  0.10566000000E+00 0.  1.
         23    2    1    0    0    0  0.15684025687E+02 -0.19207860998E+01  0.23637249157E+02  0.96567665789E+02  0.92287141288E+02 0.  0.
         13    1    3    3    0    0  0.32501766665E+02  0.20427137915E+02  0.46603004810E+02  0.60377843793E+02  0.10566000000E+00 0. -1.
         22    1    1    0    0    0 -0.15684025687E+02  0.19207860998E+01 -0.23637249157E+02  0.28432334211E+02  0.00000000000E+00 0. -1.
</event>
<event>
 5    1  0.2295577E-004  0.9118800E+02  0.7818608E-02  0.1130116E+00
         25   -1    0    0    0    0  0.00000000000E+00  0.00000000000E+00  0.99999998245E-14  0.12500000000E+03  0.12500000000E+03 0.  0.
        -13    1    3    3    0    0  0.14310289743E+02 -0.28157195674E+02  0.24587432791E+02  0.40027054301E+02  0.10566000000E+00 0.  1.
         23    2    1    0    0    0  0.19051566821E+02  0.22192646805E+02  0.12499089477E+01  0.95724787910E+02  0.91138339778E+02 0.  0.
         13    1    3    3    0    0  0.47412770777E+01  0.50349842479E+02 -0.23337523843E+02  0.55697733609E+02  0.10566000000E+00 0. -1.
         22    1    1    0    0    0 -0.19051566821E+02 -0.22192646805E+02 -0.12499089477E+01  0.29275212090E+02  0.00000000000E+00 0. -1.
</event>
<event>
 5    1  0.2295577E-004  0.9118800E+02  0.7818608E-02  0.1130116E+00
         25   -1    0    0    0    0  0.00000000000E+00  0.00000000000E+00  0.99999998245E-14  0.12500000000E+03  0.12500000000E+03 0.  0.
        -13    1    3    3    0    0  0.18601886651E+02 -0.47293740336E+02  0.36049103923E+02  0.62307921805E+02  0.10566000000E+00 0. -1.
         23    2    1    0    0    0  0.11056349617E+02 -0.22005834102E+02  0.14175475692E+02  0.96584445941E+02  0.92309866673E+02 0.  0.
         13    1    3    3    0    0 -0.75455370337E+01  0.25287906234E+02 -0.21873628231E+02  0.34276524136E+02  0.10566000000E+00 0.  1.
         22    1    1    0    0    0 -0.11056349617E+02  0.22005834102E+02 -0.14175475692E+02  0.28415554059E+02  0.00000000000E+00 0. -1.
</event>
<event>
 5    1  0.2295577E-004  0.9118800E+02  0.7818608E-02  0.1130116E+00
         25   -1    0    0    0    0  0.00000000000E+00  0.00000000000E+00  0.99999998245E-14  0.12500000000E+03  0.12500000000E+03 0.  0.
        -13    1    3    3    0    0 -0.29740182621E+02  0.31541800604E+02 -0.19190509891E+02  0.47409392335E+02  0.10566000000E+00 0. -1.
         23    2    1    0    0    0  0.16714507424E+02  0.91122780784E+01 -0.17682677270E+02  0.99017593536E+02  0.95547885293E+02 0.  0.
         13    1    3    3    0    0  0.46454690045E+02 -0.22429522526E+02  0.15078326205E+01  0.51608201201E+02  0.10566000000E+00 0.  1.
         22    1    1    0    0    0 -0.16714507424E+02 -0.91122780784E+01  0.17682677270E+02  0.25982406464E+02  0.00000000000E+00 0.  1.
</event>
<event>
 5    1  0.2295577E-004  0.9118800E+02  0.7818608E-02  0.1130116E+00
         25   -1    0    0    0    0  0.00000000000E+00  0.00000000000E+00  0.99999998245E-14  0.12500000000E+03  0.12500000000E+03 0.  0.
        -13    1    3    3    0    0 -0.64589860630E+01  0.38877957179E+02 -0.22466592875E+01  0.39474962918E+02  0.10566000000E+00 0.  1.
         23    2    1    0    0    0  0.14684945779E+00 -0.12709287903E+02 -0.25548110894E+02  0.96464871929E+02  0.92147805087E+02 0.  0.
         13    1    3    3    0    0  0.66058355208E+01 -0.51587245082E+02 -0.23301451606E+02  0.56989909011E+02  0.10566000000E+00 0. -1.
         22    1    1    0    0    0 -0.14684945779E+00  0.12709287903E+02  0.25548110894E+02  0.28535128071E+02  0.00000000000E+00 0. -1.
</event>
<event>
 5    1  0.2295577E-004  0.9118800E+02  0.7818608E-02  0.1130116E+00
         25   -1    0    0    0    0  0.00000000000E+00  0.00000000000E+00  0.99999998245E-14  0.12500000000E+03  0.12500000000E+03 0.  0.
        -13    1    3    3    0    0 -0.24005072962E+02  0.30560800179E+02  0.15619006379E+02  0.41882819386E+02  0.10566000000E+00 0.  1.
         23    2    1    0    0    0  0.21418534882E+02  0.15924265285E+02 -0.10538811579E+02  0.96305010702E+02  0.91930694958E+02 0.  0.
         13    1    3    3    0    0  0.45423607843E+02 -0.14636534894E+02 -0.26157817958E+02  0.54422191315E+02  0.10566000000E+00 0. -1.
         22    1    1    0    0    0 -0.21418534882E+02 -0.15924265285E+02  0.10538811579E+02  0.28694989298E+02  0.00000000000E+00 0. -1.
</event>
<event>
 5    1  0.2295577E-004  0.9118800E+02  0.7818608E-02  0.1130116E+00
         25   -1    0    0    0    0  0.00000000000E+00  0.00000000000E+00  0.99999998245E-14  0.12500000000E+03  0.12500000000E+03 0.  0.
        -13    1    3    3    0    0  0.20903697614E+02 -0.40872138689E+02 -0.20559810404E+02  0.50301225262E+02  0.10566000000E+00 0. -1.
         23    2    1    0    0    0 -0.18154491194E+02 -0.21612202051E+02 -0.68781848131E+01  0.95948627325E+02  0.91444829440E+02 0.  0.
         13    1    3    3    0    0 -0.39058188808E+02  0.19259936638E+02  0.13681625591E+02  0.45647402063E+02  0.10566000000E+00 0.  1.
         22    1    1    0    0    0  0.18154491194E+02  0.21612202051E+02  0.68781848131E+01  0.29051372675E+02  0.00000000000E+00 0.  1.
</event>
<event>
 5    1  0.2295577E-004  0.9118800E+02  0.7818608E-02  0.1130116E+00
         25   -1    0    0    0    0  0.00000000000E+00  0.00000000000E+00  0.99999998245E-14  0.12500000000E+03  0.12500000000E+03 0.  0.
        -13    1    3    3    0    0 -0.28607670310E+02 -0.34171079556E+02 -0.72521002313E+01  0.45151584694E+02  0.10566000000E+00 0. -1.
         23    2    1    0    0    0 -0.16492738976E+02  0.16059666029E+02 -0.15177207987E+02  0.97426988663E+02  0.93443818232E+02 0.  0.
         13    1    3    3    0    0  0.12114931334E+02  0.50230745584E+02 -0.79251077559E+01  0.52275403969E+02  0.10566000000E+00 0.  1.
         22    1    1    0    0    0  0.16492738976E+02 -0.16059666029E+02  0.15177207987E+02  0.27573011337E+02  0.00000000000E+00 0. -1.
</event>
<event>
 5    1  0.2295577E-004  0.9118800E+02  0.7818608E-02  0.1130116E+00
         25   -1    0    0    0    0  0.00000000000E+00  0.00000000000E+00  0.99999998245E-14  0.12500000000E+03  0.12500000000E+03 0.  0.
        -13    1    3    3    0    0  0.27279218457E+02 -0.31154845213E+02 -0.22097479728E+02  0.46937084637E+02  0.10566000000E+00 0. -1.
         23    2    1    0    0    0  0.59283589990E+01 -0.37420183600E+02  0.98347984293E+01  0.85857454844E+02  0.76415729474E+02 0.  0.
         13    1    3    3    0    0 -0.21350859458E+02 -0.62653383879E+01  0.31932278158E+02  0.38920370207E+02  0.10566000000E+00 0.  1.
         22    1    1    0    0    0 -0.59283589990E+01  0.37420183600E+02 -0.98347984293E+01  0.39142545156E+02  0.00000000000E+00 0. -1.
</event>
<event>
 5    1  0.2295577E-004  0.9118800E+02  0.7818608E-02  0.1130116E+00
         25   -1    0    0    0    0  0.00000000000E+00  0.00000000000E+00  0.99999998245E-14  0.12500000000E+03  0.12500000000E+03 0.  0.
        -13    1    3    3    0    0  0.16134531505E+02  0.22047742722E+02 -0.40229268486E+02  0.48629530873E+02  0.10566000000E+00 0.  1.
         23    2    1    0    0    0  0.26310995398E+02 -0.10009938068E+02 -0.68240717554E+01  0.96033894043E+02  0.91561310120E+02 0.  0.
         13    1    3    3    0    0  0.10176463894E+02 -0.32057680790E+02  0.33405196730E+02  0.47404363170E+02  0.10566000000E+00 0. -1.
         22    1    1    0    0    0 -0.26310995398E+02  0.10009938068E+02  0.68240717554E+01  0.28966105957E+02  0.00000000000E+00 0.  1.
</event>
<event>
 5    1  0.2295577E-004  0.9118800E+02  0.7818608E-02  0.1130116E+00
         25   -1    0    0    0    0  0.00000000000E+00  0.00000000000E+00  0.99999998245E-14  0.12500000000E+03  0.12500000000E+03 0.  0.
        -13    1    3    3    0    0  0.28612809380E+02 -0.29654400644E+02  0.19610113537E+02  0.45635995170E+02  0.10566000000E+00 0. -1.
         23    2    1    0    0    0 -0.17788460222E+02 -0.13195792390E+01  0.17448532945E+02  0.10004760716E+03  0.96886024742E+02 0.  0.
         13    1    3    3    0    0 -0.46401269603E+02  0.28334821405E+02 -0.21615805918E+01  0.54411611991E+02  0.10566000000E+00 0.  1.
         22    1    1    0    0    0  0.17788460222E+02  0.13195792390E+01 -0.17448532945E+02  0.24952392839E+02  0.00000000000E+00 0.  1.
</event>
<event>
 5    1  0.2295577E-004  0.9118800E+02  0.7818608E-02  0.1130116E+00
         25   -1    0    0    0    0  0.00000000000E+00  0.00000000000E+00  0.99999998245E-14  0.12500000000E+03  0.12500000000E+03 0.  0.
        -13    1    3    3    0    0 -0.29871104497E+02 -0.13778484498E+02 -0.16910649117E+01  0.32939344005E+02  0.10566000000E+00 0. -1.
         23    2    1    0    0    0  0.16434652989E+02  0.25937073602E+02 -0.42731742601E+01  0.93998554483E+02  0.88739160582E+02 0.  0.
         13    1    3    3    0    0  0.46305757486E+02  0.39715558099E+02 -0.25821093484E+01  0.61059210478E+02  0.10566000000E+00 0.  1.
         22    1    1    0    0    0 -0.16434652989E+02 -0.25937073602E+02  0.42731742601E+01  0.31001445517E+02  0.00000000000E+00 0.  1.
</event>
<event>
 5    1  0.2295577E-004  0.9118800E+02  0.7818608E-02  0.1130116E+00
         25   -1    0    0    0    0  0.00000000000E+00  0.00000000000E+00  0.99999998245E-14  0.12500000000E+03  0.12500000000E+03 0.  0.
        -13    1    3    3    0    0  0.44811143321E+02 -0.23110794765E+02  0.70532092039E+00  0.50424756242E+02  0.10566000000E+00 0.  1.
         23    2    1    0    0    0  0.29648571371E+02 -0.40317628471E+02 -0.66610062894E+01  0.74513190290E+02  0.54802350064E+02 0.  0.
         13    1    3    3    0    0 -0.15162571950E+02 -0.17206833706E+02 -0.73663272098E+01  0.24088434049E+02  0.10566000000E+00 0. -1.
         22    1    1    0    0    0 -0.29648571371E+02  0.40317628471E+02  0.66610062894E+01  0.50486809710E+02  0.00000000000E+00 0.  1.
</event>
<event>
 5    1  0.2295577E-004  0.9118800E+02  0.7818608E-02  0.1130116E+00
         25   -1    0    0    0    0  0.00000000000E+00  0.00000000000E+00  0.99999998245E-14  0.12500000000E+03  0.12500000000E+03 0.  0.
        -13    1    3    3    0    0 -0.87454504622E+01  0.53958673542E+02 -0.26407307230E+02  0.60707317462E+02  0.10566000000E+00 0.  1.
         23    2    1    0    0    0  0.15457127863E+01  0.28608593934E+02 -0.39996198037E+01  0.96071850500E+02  0.91613113827E+02 0.  0.
         13    1    3    3    0    0  0.10291163248E+02 -0.25350079608E+02  0.22407687427E+02  0.35364533038E+02  0.10566000000E+00 0. -1.
         22    1    1    0    0    0 -0.15457127863E+01 -0.28608593934E+02  0.39996198037E+01  0.28928149500E+02  0.00000000000E+00 0.  1.
</event>
<event>
 5    1  0.2295577E-004  0.9118800E+02  0.7818608E-02  0.1130116E+00
         25   -1    0    0    0    0  0.00000000000E+00  0.00000000000E+00  0.99999998245E-14  0.12500000000E+03  0.12500000000E+03 0.  0.
        -13    1    3    3    0    0 -0.18735724037E+02  0.29656487983E+01 -0.15106128029E+02  0.24249303001E+02  0.10566000000E+00 0. -1.
         23    2    1    0    0    0  0.21944092933E+02 -0.31712142901E+02  0.12563564218E+02  0.84440828807E+02  0.74062184695E+02 0.  0.
         13    1    3    3    0    0  0.40679816969E+02 -0.34677791699E+02  0.27669692247E+02  0.60191525806E+02  0.10566000000E+00 0.  1.
         22    1    1    0    0    0 -0.21944092933E+02  0.31712142901E+02 -0.12563564218E+02  0.40559171193E+02  0.00000000000E+00 0.  1.
</event>
<event>
 5    1  0.2295577E-004  0.9118800E+02  0.7818608E-02  0.1130116E+00
         25   -1    0    0    0    0  0.00000000000E+00  0.00000000000E+00  0.99999998245E-14  0.12500000000E+03  0.12500000000E+03 0.  0.
        -13    1    3    3    0    0 -0.19158915483E+02 -0.52553157581E+02 -0.26913264372E+02  0.62074418059E+02  0.10566000000E+00 0.  1.
         23    2    1    0    0    0 -0.88709445732E+01 -0.17066444832E+02 -0.13984780995E+02  0.10121909808E+03  0.98385845116E+02 0.  0.
         13    1    3    3    0    0  0.10287970910E+02  0.35486712749E+02  0.12928483377E+02  0.39144680017E+02  0.10566000000E+00 0. -1.
         22    1    1    0    0    0  0.88709445732E+01  0.17066444832E+02  0.13984780995E+02  0.23780901924E+02  0.00000000000E+00 0.  1.
</event>
<event>
 5    1  0.2295577E-004  0.9118800E+02  0.7818608E-02  0.1130116E+00
         25   -1    0    0    0    0  0.00000000000E+00  0.00000000000E+00  0.99999998245E-14  0.12500000000E+03  0.12500000000E+03 0.  0.
        -13    1    3    3    0    0  0.20627997286E+02  0.28785294575E+02  0.10893618050E+02  0.37051174530E+02  0.10566000000E+00 0.  1.
         23    2    1    0    0    0  0.91564566711E+01 -0.27937089240E+02  0.39013153819E+01  0.95342928066E+02  0.90613089654E+02 0.  0.
         13    1    3    3    0    0 -0.11471540615E+02 -0.56722383815E+02 -0.69923026681E+01  0.58291753536E+02  0.10566000000E+00 0. -1.
         22    1    1    0    0    0 -0.91564566711E+01  0.27937089240E+02 -0.39013153819E+01  0.29657071934E+02  0.00000000000E+00 0. -1.
</event>
<event>
 5    1  0.2295577E-004  0.9118800E+02  0.7818608E-02  0.1130116E+00
         25   -1    0    0    0    0  0.00000000000E+00  0.00000000000E+00  0.99999998245E-14  0.12500000000E+03  0.12500000000E+03 0.  0.
        -13    1    3    3    0    0 -0.26950110324E+02 -0.20041260602E+02 -0.36983685546E+02  0.49957629383E+02  0.10566000000E+00 0.  1.
         23    2    1    0    0    0  0.92750593875E+01  0.59731724322E+01 -0.27243850198E+02  0.95607264687E+02  0.90977009029E+02 0.  0.
         13    1    3    3    0    0  0.36225169712E+02  0.26014433035E+02  0.97398353477E+01  0.45649635304E+02  0.10566000000E+00 0. -1.
         22    1    1    0    0    0 -0.92750593875E+01 -0.59731724322E+01  0.27243850198E+02  0.29392735313E+02  0.00000000000E+00 0.  1.
</event>
<event>
 5    1  0.2295577E-004  0.9118800E+02  0.7818608E-02  0.1130116E+00
         25   -1    0    0    0    0  0.00000000000E+00  0.00000000000E+00  0.99999998245E-14  0.12500000000E+03  0.12500000000E+03 0.  0.
        -13    1    3    3    0    0 -0.24996085517E+02  0.51181792937E+02  0.12444551048E+02  0.58303158013E+02  0.10566000000E+00 0. -1.
         23    2    1    0    0    0 -0.20181058670E+01  0.25648751768E+02 -0.77251568915E+01  0.98137214077E+02  0.94389106995E+02 0.  0.
         13    1    3    3    0    0  0.22977979650E+02 -0.25533041169E+02 -0.20169707939E+02  0.39834056064E+02  0.10566000000E+00 0.  1.
         22    1    1    0    0    0  0.20181058670E+01 -0.25648751768E+02  0.77251568915E+01  0.26862785923E+02  0.00000000000E+00 0. -1.
</event>
<event>
 5    1  0.2295577E-004  0.9118800E+02  0.7818608E-02  0.1130116E+00
         25   -1    0    0    0    0  0.00000000000E+00  0.00000000000E+00  0.99999998245E-14  0.12500000000E+03  0.12500000000E+03 0.  0.
        -13    1    3    3    0    0 -0.30294687773E+02  0.25459872463E+02 -0.39564736107E+02  0.55958491048E+02  0.10566000000E+00 0.  1.
         23    2    1    0    0    0 -0.27888705723E+02  0.15267597561E+01 -0.74309459305E+01  0.96097926378E+02  0.91648685721E+02 0.  0.
         13    1    3    3    0    0  0.24059820501E+01 -0.23933112707E+02  0.32133790177E+02  0.40139435330E+02  0.10566000000E+00 0. -1.
         22    1    1    0    0    0  0.27888705723E+02 -0.15267597561E+01  0.74309459305E+01  0.28902073622E+02  0.00000000000E+00 0. -1.
</event>
<event>
 5    1  0.2295577E-004  0.9118800E+02  0.7818608E-02  0.1130116E+00
         25   -1    0    0    0    0  0.00000000000E+00  0.00000000000E+00  0.99999998245E-14  0.12500000000E+03  0.12500000000E+03 0.  0.
        -13    1    3    3    0    0 -0.36762189552E+02  0.11202725694E+02 -0.11474774175E+02  0.40107870175E+02  0.10566000000E+00 0.  1.
         23    2    1    0    0    0  0.91035379457E+01 -0.22361738003E+02 -0.14166648061E+02  0.97006864289E+02  0.92880116668E+02 0.  0.
         13    1    3    3    0    0  0.45865727497E+02 -0.33564463697E+02 -0.26918738860E+01  0.56898994114E+02  0.10566000000E+00 0. -1.
         22    1    1    0    0    0 -0.91035379457E+01  0.22361738003E+02  0.14166648061E+02  0.27993135711E+02  0.00000000000E+00 0. -1.
</event>
<event>
 5    1  0.2295577E-004  0.9118800E+02  0.7818608E-02  0.1130116E+00
         25   -1    0    0    0    0  0.00000000000E+00  0.00000000000E+00  0.99999998245E-14  0.12500000000E+03  0.12500000000E+03 0.  0.
        -13    1    3    3    0    0 -0.44276624835E+02  0.10619160042E+02  0.63461573145E+01  0.45972502036E+02  0.10566000000E+00 0.  1.
         23    2    1    0    0    0  0.14050800454E+01  0.17329316483E+02  0.23965543940E+02  0.95392116657E+02  0.90680919516E+02 0.  0.
         13    1    3    3    0    0  0.45681704880E+02  0.67101564410E+01  0.17619386625E+02  0.49419614621E+02  0.10566000000E+00 0. -1.
         22    1    1    0    0    0 -0.14050800454E+01 -0.17329316483E+02 -0.23965543940E+02  0.29607883343E+02  0.00000000000E+00 0. -1.
</event>
<event>
 5    1  0.2295577E-004  0.9118800E+02  0.7818608E-02  0.1130116E+00
         25   -1    0    0    0    0  0.00000000000E+00  0.00000000000E+00  0.99999998245E-14  0.12500000000E+03  0.12500000000E+03 0.  0.
        -13    1    3    3    0    0  0.37240793909E+02  0.60405935782E+01  0.14005506323E+02  0.40243395398E+02  0.10566000000E+00 0. -1.
         23    2    1    0    0    0 -0.37238212743E+00 -0.30787395586E+02  0.26389775930E+01  0.94097466153E+02  0.88878380601E+02 0.  0.
         13    1    3    3    0    0 -0.37613176037E+02 -0.36827989165E+02 -0.11366528730E+02  0.53854070755E+02  0.10566000000E+00 0.  1.
         22    1    1    0    0    0  0.37238212743E+00  0.30787395586E+02 -0.26389775930E+01  0.30902533847E+02  0.00000000000E+00 0.  1.
</event>
<event>
 5    1  0.2295577E-004  0.9118800E+02  0.7818608E-02  0.1130116E+00
         25   -1    0    0    0    0  0.00000000000E+00  0.00000000000E+00  0.99999998245E-14  0.12500000000E+03  0.12500000000E+03 0.  0.
        -13    1    3    3    0    0 -0.26297456476E+02 -0.41366610085E+02 -0.35339716406E+02  0.60428961325E+02  0.10566000000E+00 0.  1.
         23    2    1    0    0    0 -0.12475226315E+02 -0.26610850595E+02 -0.78020752649E+01  0.94592089526E+02  0.89571325665E+02 0.  0.
         13    1    3    3    0    0  0.13822230161E+02  0.14755759491E+02  0.27537641142E+02  0.34163128201E+02  0.10566000000E+00 0. -1.
         22    1    1    0    0    0  0.12475226315E+02  0.26610850595E+02  0.78020752649E+01  0.30407910474E+02  0.00000000000E+00 0.  1.
</event>
<event>
 5    1  0.2295577E-004  0.9118800E+02  0.7818608E-02  0.1130116E+00
         25   -1    0    0    0    0  0.00000000000E+00  0.00000000000E+00  0.99999998245E-14  0.12500000000E+03  0.12500000000E+03 0.  0.
        -13    1    3    3    0    0 -0.13519488033E+02  0.18824404499E+02  0.29455369942E+02  0.37480191354E+02  0.10566000000E+00 0.  1.
         23    2    1    0    0    0 -0.14648183070E+02 -0.47814103377E+01 -0.24314294610E+02  0.96214307817E+02  0.91807281597E+02 0.  0.
         13    1    3    3    0    0 -0.11286950367E+01 -0.23605814837E+02 -0.53769664552E+02  0.58734116463E+02  0.10566000000E+00 0. -1.
         22    1    1    0    0    0  0.14648183070E+02  0.47814103377E+01  0.24314294610E+02  0.28785692183E+02  0.00000000000E+00 0. -1.
</event>
<event>
 5    1  0.2295577E-004  0.9118800E+02  0.7818608E-02  0.1130116E+00
         25   -1    0    0    0    0  0.00000000000E+00  0.00000000000E+00  0.99999998245E-14  0.12500000000E+03  0.12500000000E+03 0.  0.
        -13    1    3    3    0    0  0.19399328049E+02 -0.30143565140E+02 -0.13605431923E+02  0.38341718662E+02  0.10566000000E+00 0. -1.
         23    2    1    0    0    0  0.11060941076E+02  0.10731042903E+02  0.25294219675E+02  0.95380795955E+02  0.90665313041E+02 0.  0.
         13    1    3    3    0    0 -0.83383869730E+01  0.40874608043E+02  0.38899651599E+02  0.57039077293E+02  0.10566000000E+00 0.  1.
         22    1    1    0    0    0 -0.11060941076E+02 -0.10731042903E+02 -0.25294219675E+02  0.29619204045E+02  0.00000000000E+00 0. -1.
</event>
<event>
 5    1  0.2295577E-004  0.9118800E+02  0.7818608E-02  0.1130116E+00
         25   -1    0    0    0    0  0.00000000000E+00  0.00000000000E+00  0.99999998245E-14  0.12500000000E+03  0.12500000000E+03 0.  0.
        -13    1    3    3    0    0  0.16157794903E+02  0.30958646523E+02  0.22137149785E+02  0.41347027648E+02  0.10566000000E+00 0.  1.
         23    2    1    0    0    0  0.11320160077E+02 -0.21343423716E+02  0.19524271694E+02  0.93937402793E+02  0.88652979071E+02 0.  0.
         13    1    3    3    0    0 -0.48376348251E+01 -0.52302070239E+02 -0.26128780918E+01  0.52590375145E+02  0.10566000000E+00 0. -1.
         22    1    1    0    0    0 -0.11320160077E+02  0.21343423716E+02 -0.19524271694E+02  0.31062597207E+02  0.00000000000E+00 0.  1.
</event>
<event>
 5    1  0.2295577E-004  0.9118800E+02  0.7818608E-02  0.1130116E+00
         25   -1    0    0    0    0  0.00000000000E+00  0.00000000000E+00  0.99999998245E-14  0.12500000000E+03  0.12500000000E+03 0.  0.
        -13    1    3    3    0    0  0.26392830175E+02 -0.87584334462E+01 -0.22317360756E+02  0.35656239233E+02  0.10566000000E+00 0. -1.
         23    2    1    0    0    0 -0.11296721977E+02 -0.65108747774E+01  0.25366752849E+02  0.96478436791E+02  0.92166204205E+02 0.  0.
         13    1    3    3    0    0 -0.37689552153E+02  0.22475586688E+01  0.47684113605E+02  0.60822197558E+02  0.10566000000E+00 0.  1.
         22    1    1    0    0    0  0.11296721977E+02  0.65108747774E+01 -0.25366752849E+02  0.28521563209E+02  0.00000000000E+00 0.  1.
</event>
<event>
 5    1  0.2295577E-004  0.9118800E+02  0.7818608E-02  0.1130116E+00
         25   -1    0    0    0    0  0.00000000000E+00  0.00000000000E+00  0.99999998245E-14  0.12500000000E+03  0.12500000000E+03 0.  0.
        -13    1    3    3    0    0  0.40723211551E+02  0.15280541046E+02 -0.21475130842E+02  0.48508425066E+02  0.10566000000E+00 0.  1.
         23    2    1    0    0    0  0.37895949383E+00  0.29612831454E+02 -0.26897076243E+01  0.95262852791E+02  0.90502559067E+02 0.  0.
         13    1    3    3    0    0 -0.40344252057E+02  0.14332290408E+02  0.18785423218E+02  0.46754427725E+02  0.10566000000E+00 0. -1.
         22    1    1    0    0    0 -0.37895949383E+00 -0.29612831454E+02  0.26897076243E+01  0.29737147209E+02  0.00000000000E+00 0.  1.
</event>
<event>
 5    1  0.2295577E-004  0.9118800E+02  0.7818608E-02  0.1130116E+00
         25   -1    0    0    0    0  0.00000000000E+00  0.00000000000E+00  0.99999998245E-14  0.12500000000E+03  0.12500000000E+03 0.  0.
        -13    1    3    3    0    0 -0.26788995051E+02 -0.27229167377E+02  0.39521218175E+01  0.38401930197E+02  0.10566000000E+00 0.  1.
         23    2    1    0    0    0 -0.10721703954E+02  0.25051592352E+02 -0.11779308967E+02  0.95313482272E+02  0.90572460318E+02 0.  0.
         13    1    3    3    0    0  0.16067291098E+02  0.52280759730E+02 -0.15731430784E+02  0.56911552076E+02  0.10566000000E+00 0. -1.
         22    1    1    0    0    0  0.10721703954E+02 -0.25051592352E+02  0.11779308967E+02  0.29686517728E+02  0.00000000000E+00 0. -1.
</event>
<event>
 5    1  0.2295577E-004  0.9118800E+02  0.7818608E-02  0.1130116E+00
         25   -1    0    0    0    0  0.00000000000E+00  0.00000000000E+00  0.99999998245E-14  0.12500000000E+03  0.12500000000E+03 0.  0.
        -13    1    3    3    0    0 -0.57575882510E+01  0.33121568486E+02 -0.84808381882E+01  0.34671658481E+02  0.10566000000E+00 0.  1.
         23    2    1    0    0    0  0.16890049908E+02 -0.15679123768E+02  0.19043947230E+02  0.95103835796E+02  0.90282661397E+02 0.  0.
         13    1    3    3    0    0  0.22647638159E+02 -0.48800692254E+02  0.27524785418E+02  0.60432177315E+02  0.10566000000E+00 0. -1.
         22    1    1    0    0    0 -0.16890049908E+02  0.15679123768E+02 -0.19043947230E+02  0.29896164204E+02  0.00000000000E+00 0. -1.
</event>
<event>
 5    1  0.2295577E-004  0.9118800E+02  0.7818608E-02  0.1130116E+00
         25   -1    0    0    0    0  0.00000000000E+00  0.00000000000E+00  0.99999998245E-14  0.12500000000E+03  0.12500000000E+03 0.  0.
        -13    1    3    3    0    0 -0.20961145001E+02  0.22862189841E+01  0.31545453271E+02  0.37943684364E+02  0.10566000000E+00 0. -1.
         23    2    1    0    0    0  0.44444011932E+00  0.24673213245E+02 -0.16647871157E+02  0.95232289425E+02  0.90460335817E+02 0.  0.
         13    1    3    3    0    0  0.21405585120E+02  0.22386994261E+02 -0.48193324428E+02  0.57288605061E+02  0.10566000000E+00 0.  1.
         22    1    1    0    0    0 -0.44444011932E+00 -0.24673213245E+02  0.16647871157E+02  0.29767710575E+02  0.00000000000E+00 0.  1.
</event>
<event>
 5    1  0.2295577E-004  0.9118800E+02  0.7818608E-02  0.1130116E+00
         25   -1    0    0    0    0  0.00000000000E+00  0.00000000000E+00  0.99999998245E-14  0.12500000000E+03  0.12500000000E+03 0.  0.
        -13    1    3    3    0    0 -0.40360376167E+02  0.29573426655E+02  0.58422307872E+01  0.50375493577E+02  0.10566000000E+00 0. -1.
         23    2    1    0    0    0 -0.29064565945E+02 -0.13585432316E+01 -0.17779284234E+02  0.90901648410E+02  0.84263943075E+02 0.  0.
         13    1    3    3    0    0  0.11295810222E+02 -0.30931969887E+02 -0.23621515021E+02  0.40526154834E+02  0.10566000000E+00 0.  1.
         22    1    1    0    0    0  0.29064565945E+02  0.13585432316E+01  0.17779284234E+02  0.34098351590E+02  0.00000000000E+00 0. -1.
</event>
<event>
 5    1  0.2295577E-004  0.9118800E+02  0.7818608E-02  0.1130116E+00
         25   -1    0    0    0    0  0.00000000000E+00  0.00000000000E+00  0.99999998245E-14  0.12500000000E+03  0.12500000000E+03 0.  0.
        -13    1    3    3    0    0 -0.84082931079E+01 -0.36938185439E+02  0.18855831367E+02  0.42316456339E+02  0.10566000000E+00 0.  1.
         23    2    1    0    0    0  0.26510503018E+02 -0.69567410023E+01 -0.90459122371E+01  0.96137714161E+02  0.91702936378E+02 0.  0.
         13    1    3    3    0    0  0.34918796126E+02  0.29981444437E+02 -0.27901743604E+02  0.53821257822E+02  0.10566000000E+00 0. -1.
         22    1    1    0    0    0 -0.26510503018E+02  0.69567410023E+01  0.90459122371E+01  0.28862285839E+02  0.00000000000E+00 0. -1.
</event>
<event>
 5    1  0.2295577E-004  0.9118800E+02  0.7818608E-02  0.1130116E+00
         25   -1    0    0    0    0  0.00000000000E+00  0.00000000000E+00  0.99999998245E-14  0.12500000000E+03  0.12500000000E+03 0.  0.
        -13    1    3    3    0    0  0.13351285095E+02  0.25008182903E+02  0.25990580237E+02  0.38460206069E+02  0.10566000000E+00 0. -1.
         23    2    1    0    0    0  0.15545619583E+02 -0.65495232756E+01 -0.22817897688E+02  0.96623619007E+02  0.92362897051E+02 0.  0.
         13    1    3    3    0    0  0.21943344879E+01 -0.31557706178E+02 -0.48808477926E+02  0.58163412938E+02  0.10566000000E+00 0.  1.
         22    1    1    0    0    0 -0.15545619583E+02  0.65495232756E+01  0.22817897688E+02  0.28376380993E+02  0.00000000000E+00 0.  1.
</event>
<event>
 5    1  0.2295577E-004  0.9118800E+02  0.7818608E-02  0.1130116E+00
         25   -1    0    0    0    0  0.00000000000E+00  0.00000000000E+00  0.99999998245E-14  0.12500000000E+03  0.12500000000E+03 0.  0.
        -13    1    3    3    0    0 -0.20920331458E+02 -0.54290942453E+02  0.57605059157E+01  0.58466753743E+02  0.10566000000E+00 0. -1.
         23    2    1    0    0    0 -0.21797449349E+02 -0.18424668489E+02 -0.52174338687E+01  0.95985885793E+02  0.91495745519E+02 0.  0.
         13    1    3    3    0    0 -0.87711789095E+00  0.35866273964E+02 -0.10977939784E+02  0.37519132050E+02  0.10566000000E+00 0.  1.
         22    1    1    0    0    0  0.21797449349E+02  0.18424668489E+02  0.52174338687E+01  0.29014114207E+02  0.00000000000E+00 0. -1.
</event>
<event>
 5    1  0.2295577E-004  0.9118800E+02  0.7818608E-02  0.1130116E+00
         25   -1    0    0    0    0  0.00000000000E+00  0.00000000000E+00  0.99999998245E-14  0.12500000000E+03  0.12500000000E+03 0.  0.
        -13    1    3    3    0    0 -0.47783323929E+01  0.26657652023E+02  0.23405126042E+02  0.35794887358E+02  0.10566000000E+00 0.  1.
         23    2    1    0    0    0 -0.54776147567E+01 -0.29079121712E+02  0.25879284650E+01  0.95296516085E+02  0.90549042078E+02 0.  0.
         13    1    3    3    0    0 -0.69928236379E+00 -0.55736773735E+02 -0.20817197577E+02  0.59501628727E+02  0.10566000000E+00 0. -1.
         22    1    1    0    0    0  0.54776147567E+01  0.29079121712E+02 -0.25879284650E+01  0.29703483915E+02  0.00000000000E+00 0. -1.
</event>
<event>
 5    1  0.2295577E-004  0.9118800E+02  0.7818608E-02  0.1130116E+00
         25   -1    0    0    0    0  0.00000000000E+00  0.00000000000E+00  0.99999998245E-14  0.12500000000E+03  0.12500000000E+03 0.  0.
        -13    1    3    3    0    0  0.42040301866E+02 -0.40192288641E+02 -0.69671863329E+01  0.58577810617E+02  0.10566000000E+00 0. -1.
         23    2    1    0    0    0  0.14866569466E+02 -0.18201638956E+02  0.12280213203E+02  0.98483624216E+02  0.94846750361E+02 0.  0.
         13    1    3    3    0    0 -0.27173732400E+02  0.21990649685E+02  0.19247399536E+02  0.39905813600E+02  0.10566000000E+00 0.  1.
         22    1    1    0    0    0 -0.14866569466E+02  0.18201638956E+02 -0.12280213203E+02  0.26516375784E+02  0.00000000000E+00 0. -1.
</event>
<event>
 5    1  0.2295577E-004  0.9118800E+02  0.7818608E-02  0.1130116E+00
         25   -1    0    0    0    0  0.00000000000E+00  0.00000000000E+00  0.99999998245E-14  0.12500000000E+03  0.12500000000E+03 0.  0.
        -13    1    3    3    0    0  0.22720974764E+02  0.15488467508E+02  0.19925997135E+02  0.33958678505E+02  0.10566000000E+00 0.  1.
         23    2    1    0    0    0 -0.19410876293E+02 -0.14731086182E+01 -0.21897871845E+02  0.95700359067E+02  0.91104828449E+02 0.  0.
         13    1    3    3    0    0 -0.42131851056E+02 -0.16961576126E+02 -0.41823868980E+02  0.61741680562E+02  0.10566000000E+00 0. -1.
         22    1    1    0    0    0  0.19410876293E+02  0.14731086182E+01  0.21897871845E+02  0.29299640933E+02  0.00000000000E+00 0. -1.
</event>
<event>
 5    1  0.2295577E-004  0.9118800E+02  0.7818608E-02  0.1130116E+00
         25   -1    0    0    0    0  0.00000000000E+00  0.00000000000E+00  0.99999998245E-14  0.12500000000E+03  0.12500000000E+03 0.  0.
        -13    1    3    3    0    0  0.45842900136E+02  0.83404254435E+01  0.17070019103E+01  0.46626807837E+02  0.10566000000E+00 0.  1.
         23    2    1    0    0    0  0.59000684103E+01  0.27841363712E+02 -0.13360423828E+02  0.93560323388E+02  0.88119696136E+02 0.  0.
         13    1    3    3    0    0 -0.39942831726E+02  0.19500938269E+02 -0.15067425738E+02  0.46933515552E+02  0.10566000000E+00 0. -1.
         22    1    1    0    0    0 -0.59000684103E+01 -0.27841363712E+02  0.13360423828E+02  0.31439676612E+02  0.00000000000E+00 0.  1.
</event>
<event>
 5    1  0.2295577E-004  0.9118800E+02  0.7818608E-02  0.1130116E+00
         25   -1    0    0    0    0  0.00000000000E+00  0.00000000000E+00  0.99999998245E-14  0.12500000000E+03  0.12500000000E+03 0.  0.
        -13    1    3    3    0    0 -0.17022020297E+01  0.17104551740E+02  0.33260499536E+02  0.37439753944E+02  0.10566000000E+00 0.  1.
         23    2    1    0    0    0  0.18679882646E+02  0.15868835698E+02 -0.19284274162E+02  0.93812804037E+02  0.88477121389E+02 0.  0.
         13    1    3    3    0    0  0.20382084676E+02 -0.12357160417E+01 -0.52544773698E+02  0.56373050093E+02  0.10566000000E+00 0. -1.
         22    1    1    0    0    0 -0.18679882646E+02 -0.15868835698E+02  0.19284274162E+02  0.31187195963E+02  0.00000000000E+00 0. -1.
</event>
<event>
 5    1  0.2295577E-004  0.9118800E+02  0.7818608E-02  0.1130116E+00
         25   -1    0    0    0    0  0.00000000000E+00  0.00000000000E+00  0.99999998245E-14  0.12500000000E+03  0.12500000000E+03 0.  0.
        -13    1    3    3    0    0 -0.50446068948E+02 -0.21043100575E+02 -0.19360979985E+02  0.57986866308E+02  0.10566000000E+00 0. -1.
         23    2    1    0    0    0 -0.18159230146E+02 -0.27499149961E+01 -0.23330451231E+02  0.95307751405E+02  0.90564550743E+02 0.  0.
         13    1    3    3    0    0  0.32286838802E+02  0.18293185579E+02 -0.39694712455E+01  0.37320885098E+02  0.10566000000E+00 0.  1.
         22    1    1    0    0    0  0.18159230146E+02  0.27499149961E+01  0.23330451231E+02  0.29692248595E+02  0.00000000000E+00 0. -1.
</event>
<event>
 5    1  0.2295577E-004  0.9118800E+02  0.7818608E-02  0.1130116E+00
         25   -1    0    0    0    0  0.00000000000E+00  0.00000000000E+00  0.99999998245E-14  0.12500000000E+03  0.12500000000E+03 0.  0.
        -13    1    3    3    0    0  0.22145449227E+02 -0.56814565591E+02  0.11444912135E+02  0.62042831678E+02  0.10566000000E+00 0. -1.
         23    2    1    0    0    0  0.82551923306E+01 -0.26512401955E+02  0.17209853234E+00  0.97231577723E+02  0.93182049939E+02 0.  0.
         13    1    3    3    0    0 -0.13890256897E+02  0.30302163636E+02 -0.11272813602E+02  0.35188746045E+02  0.10566000000E+00 0.  1.
         22    1    1    0    0    0 -0.82551923306E+01  0.26512401955E+02 -0.17209853234E+00  0.27768422277E+02  0.00000000000E+00 0. -1.
</event>
<event>
 5    1  0.2295577E-004  0.9118800E+02  0.7818608E-02  0.1130116E+00
         25   -1    0    0    0    0  0.00000000000E+00  0.00000000000E+00  0.99999998245E-14  0.12500000000E+03  0.12500000000E+03 0.  0.
        -13    1    3    3    0    0 -0.15390578821E+02 -0.25706273484E+02  0.28125302716E+02  0.41094114296E+02  0.10566000000E+00 0.  1.
         23    2    1    0    0    0  0.27762744518E+02  0.14449324394E+01  0.66589777374E+01  0.96413293344E+02  0.92077811312E+02 0.  0.
         13    1    3    3    0    0  0.43153323340E+02  0.27151205923E+02 -0.21466324979E+02  0.55319179047E+02  0.10566000000E+00 0. -1.
         22    1    1    0    0    0 -0.27762744518E+02 -0.14449324394E+01 -0.66589777374E+01  0.28586706656E+02  0.00000000000E+00 0. -1.
</event>
<event>
 5    1  0.2295577E-004  0.9118800E+02  0.7818608E-02  0.1130116E+00
         25   -1    0    0    0    0  0.00000000000E+00  0.00000000000E+00  0.99999998245E-14  0.12500000000E+03  0.12500000000E+03 0.  0.
        -13    1    3    3    0    0  0.92238834361E+01 -0.35866747426E+02  0.32742071526E+01  0.37178423757E+02  0.10566000000E+00 0. -1.
         23    2    1    0    0    0 -0.33363767469E+02 -0.63950439846E+01  0.10435627143E+02  0.89462134544E+02  0.82100752957E+02 0.  0.
         13    1    3    3    0    0 -0.42587650905E+02  0.29471703441E+02  0.71614199900E+01  0.52283710787E+02  0.10566000000E+00 0.  1.
         22    1    1    0    0    0  0.33363767469E+02  0.63950439846E+01 -0.10435627143E+02  0.35537865456E+02  0.00000000000E+00 0.  1.
</event>
<event>
 5    1  0.2295577E-004  0.9118800E+02  0.7818608E-02  0.1130116E+00
         25   -1    0    0    0    0  0.00000000000E+00  0.00000000000E+00  0.99999998245E-14  0.12500000000E+03  0.12500000000E+03 0.  0.
        -13    1    3    3    0    0 -0.35185842045E+02  0.51710560274E+01  0.10745562487E+02  0.37151871798E+02  0.10566000000E+00 0.  1.
         23    2    1    0    0    0  0.81469451237E+01 -0.21626728047E+02  0.25881442115E+02  0.90302202853E+02  0.83369962896E+02 0.  0.
         13    1    3    3    0    0  0.43332787169E+02 -0.26797784075E+02  0.15135879628E+02  0.53150331055E+02  0.10566000000E+00 0. -1.
         22    1    1    0    0    0 -0.81469451237E+01  0.21626728047E+02 -0.25881442115E+02  0.34697797147E+02  0.00000000000E+00 0. -1.
</event>
<event>
 5    1  0.2295577E-004  0.9118800E+02  0.7818608E-02  0.1130116E+00
         25   -1    0    0    0    0  0.00000000000E+00  0.00000000000E+00  0.99999998245E-14  0.12500000000E+03  0.12500000000E+03 0.  0.
        -13    1    3    3    0    0  0.13881807981E+02  0.28674825966E+02  0.34921203026E+02  0.47269988595E+02  0.10566000000E+00 0. -1.
         23    2    1    0    0    0  0.95679352585E+01 -0.17556316918E+02  0.21581036201E+02  0.95580435552E+02  0.90940139036E+02 0.  0.
         13    1    3    3    0    0 -0.43138727228E+01 -0.46231142883E+02 -0.13340166825E+02  0.48310446956E+02  0.10566000000E+00 0.  1.
         22    1    1    0    0    0 -0.95679352585E+01  0.17556316918E+02 -0.21581036201E+02  0.29419564448E+02  0.00000000000E+00 0.  1.
</event>
<event>
 5    1  0.2295577E-004  0.9118800E+02  0.7818608E-02  0.1130116E+00
         25   -1    0    0    0    0  0.00000000000E+00  0.00000000000E+00  0.99999998245E-14  0.12500000000E+03  0.12500000000E+03 0.  0.
        -13    1    3    3    0    0  0.69137540223E+01 -0.21711021375E+00 -0.60435935783E+02  0.60830589587E+02  0.10566000000E+00 0.  1.
         23    2    1    0    0    0 -0.61699090993E+01 -0.45015416259E+01 -0.17913893457E+02  0.10552593432E+03  0.10371346865E+03 0.  0.
         13    1    3    3    0    0 -0.13083663122E+02 -0.42844314122E+01  0.42522042326E+02  0.44695344733E+02  0.10566000000E+00 0. -1.
         22    1    1    0    0    0  0.61699090993E+01  0.45015416259E+01  0.17913893457E+02  0.19474065680E+02  0.00000000000E+00 0.  1.
</event>
<event>
 5    1  0.2295577E-004  0.9118800E+02  0.7818608E-02  0.1130116E+00
         25   -1    0    0    0    0  0.00000000000E+00  0.00000000000E+00  0.99999998245E-14  0.12500000000E+03  0.12500000000E+03 0.  0.
        -13    1    3    3    0    0  0.32157251753E+02  0.80976955684E+01  0.94003211158E+01  0.34467937492E+02  0.10566000000E+00 0.  1.
         23    2    1    0    0    0 -0.65062548280E+01  0.37994593162E+02  0.14946768655E+02  0.83655999775E+02  0.72725510955E+02 0.  0.
         13    1    3    3    0    0 -0.38663506581E+02  0.29896897593E+02  0.55464475393E+01  0.49188062283E+02  0.10566000000E+00 0. -1.
         22    1    1    0    0    0  0.65062548280E+01 -0.37994593162E+02 -0.14946768655E+02  0.41344000225E+02  0.00000000000E+00 0.  1.
</event>
<event>
 5    1  0.2295577E-004  0.9118800E+02  0.7818608E-02  0.1130116E+00
         25   -1    0    0    0    0  0.00000000000E+00  0.00000000000E+00  0.99999998245E-14  0.12500000000E+03  0.12500000000E+03 0.  0.
        -13    1    3    3    0    0  0.23095987711E+02  0.51975486188E+01  0.32002581784E+02  0.39807230058E+02  0.10566000000E+00 0. -1.
         23    2    1    0    0    0 -0.26267420389E+02 -0.20019715791E+01  0.80673086112E+00  0.98644050410E+02  0.95057943396E+02 0.  0.
         13    1    3    3    0    0 -0.49363408100E+02 -0.71995201979E+01 -0.31195850923E+02  0.58836820352E+02  0.10566000000E+00 0.  1.
         22    1    1    0    0    0  0.26267420389E+02  0.20019715791E+01 -0.80673086112E+00  0.26355949590E+02  0.00000000000E+00 0.  1.
</event>
<event>
 5    1  0.2295577E-004  0.9118800E+02  0.7818608E-02  0.1130116E+00
         25   -1    0    0    0    0  0.00000000000E+00  0.00000000000E+00  0.99999998245E-14  0.12500000000E+03  0.12500000000E+03 0.  0.
        -13    1    3    3    0    0 -0.11121881411E+02 -0.31202804028E+02 -0.24535230426E+02  0.41222565682E+02  0.10566000000E+00 0.  1.
         23    2    1    0    0    0 -0.81488182815E+01  0.22553385725E+02 -0.17043937628E+02  0.95579696519E+02  0.90939123208E+02 0.  0.
         13    1    3    3    0    0  0.29730631298E+01  0.53756189752E+02  0.74912927977E+01  0.54357130837E+02  0.10566000000E+00 0. -1.
         22    1    1    0    0    0  0.81488182815E+01 -0.22553385725E+02  0.17043937628E+02  0.29420303481E+02  0.00000000000E+00 0. -1.
</event>
<event>
 5    1  0.2295577E-004  0.9118800E+02  0.7818608E-02  0.1130116E+00
         25   -1    0    0    0    0  0.00000000000E+00  0.00000000000E+00  0.99999998245E-14  0.12500000000E+03  0.12500000000E+03 0.  0.
        -13    1    3    3    0    0  0.96466749480E+01 -0.58760261889E+02  0.51012471305E+00  0.59549123470E+02  0.10566000000E+00 0.  1.
         23    2    1    0    0    0  0.11757484198E+02 -0.25469688156E+02  0.11516406756E+02  0.94675569684E+02  0.89687749559E+02 0.  0.
         13    1    3    3    0    0  0.21108092500E+01  0.33290573733E+02  0.11006282043E+02  0.35126446214E+02  0.10566000000E+00 0. -1.
         22    1    1    0    0    0 -0.11757484198E+02  0.25469688156E+02 -0.11516406756E+02  0.30324430316E+02  0.00000000000E+00 0.  1.
</event>
<event>
 5    1  0.2295577E-004  0.9118800E+02  0.7818608E-02  0.1130116E+00
         25   -1    0    0    0    0  0.00000000000E+00  0.00000000000E+00  0.99999998245E-14  0.12500000000E+03  0.12500000000E+03 0.  0.
        -13    1    3    3    0    0 -0.30086568096E+02  0.20067701710E+02 -0.47225808244E+01  0.36472293119E+02  0.10566000000E+00 0. -1.
         23    2    1    0    0    0  0.27922759736E+02  0.45716861490E+01  0.53288504812E-01  0.96705412793E+02  0.92473527013E+02 0.  0.
         13    1    3    3    0    0  0.58009327832E+02 -0.15496015561E+02  0.47758693292E+01  0.60233119674E+02  0.10566000000E+00 0.  1.
         22    1    1    0    0    0 -0.27922759736E+02 -0.45716861490E+01 -0.53288504812E-01  0.28294587207E+02  0.00000000000E+00 0.  1.
</event>
<event>
 5    1  0.2295577E-004  0.9118800E+02  0.7818608E-02  0.1130116E+00
         25   -1    0    0    0    0  0.00000000000E+00  0.00000000000E+00  0.99999998245E-14  0.12500000000E+03  0.12500000000E+03 0.  0.
        -13    1    3    3    0    0  0.26690368685E+02  0.22305011510E+02  0.23477642858E+02  0.41965464339E+02  0.10566000000E+00 0.  1.
         23    2    1    0    0    0  0.15819588456E+02 -0.23820551926E+02 -0.29964900199E+01  0.96248356127E+02  0.91853628299E+02 0.  0.
         13    1    3    3    0    0 -0.10870780230E+02 -0.46125563437E+02 -0.26474132878E+02  0.54282891787E+02  0.10566000000E+00 0. -1.
         22    1    1    0    0    0 -0.15819588456E+02  0.23820551926E+02  0.29964900199E+01  0.28751643873E+02  0.00000000000E+00 0. -1.
</event>
<event>
 5    1  0.2295577E-004  0.9118800E+02  0.7818608E-02  0.1130116E+00
         25   -1    0    0    0    0  0.00000000000E+00  0.00000000000E+00  0.99999998245E-14  0.12500000000E+03  0.12500000000E+03 0.  0.
        -13    1    3    3    0    0  0.41350793367E+02 -0.24030662586E+02  0.13248917309E+02  0.49627672022E+02  0.10566000000E+00 0.  1.
         23    2    1    0    0    0 -0.52879133687E+01 -0.14814393387E+02  0.21987890909E+02  0.97964918608E+02  0.94160658728E+02 0.  0.
         13    1    3    3    0    0 -0.46638706736E+02  0.92162691988E+01  0.87389736006E+01  0.48337246587E+02  0.10566000000E+00 0. -1.
         22    1    1    0    0    0  0.52879133687E+01  0.14814393387E+02 -0.21987890909E+02  0.27035081392E+02  0.00000000000E+00 0. -1.
</event>
<event>
 5    1  0.2295577E-004  0.9118800E+02  0.7818608E-02  0.1130116E+00
         25   -1    0    0    0    0  0.00000000000E+00  0.00000000000E+00  0.99999998245E-14  0.12500000000E+03  0.12500000000E+03 0.  0.
        -13    1    3    3    0    0 -0.11891902687E+01  0.55550367619E+01  0.42499049579E+02  0.42877184914E+02  0.10566000000E+00 0.  1.
         23    2    1    0    0    0 -0.71239524618E+01  0.25134881155E+02 -0.82565900428E+01  0.97601382726E+02  0.93676815070E+02 0.  0.
         13    1    3    3    0    0 -0.59347621930E+01  0.19579844393E+02 -0.50755639622E+02  0.54724197813E+02  0.10566000000E+00 0. -1.
         22    1    1    0    0    0  0.71239524618E+01 -0.25134881155E+02  0.82565900428E+01  0.27398617274E+02  0.00000000000E+00 0.  1.
</event>
<event>
 5    1  0.2295577E-004  0.9118800E+02  0.7818608E-02  0.1130116E+00
         25   -1    0    0    0    0  0.00000000000E+00  0.00000000000E+00  0.99999998245E-14  0.12500000000E+03  0.12500000000E+03 0.  0.
        -13    1    3    3    0    0 -0.29787035056E+02 -0.45884571951E+02  0.29469303085E+02  0.62137849889E+02  0.10566000000E+00 0.  1.
         23    2    1    0    0    0 -0.17451638917E+02 -0.18787158462E+02  0.11656383980E+02  0.96832850491E+02  0.92645629269E+02 0.  0.
         13    1    3    3    0    0  0.12335396139E+02  0.27097413488E+02 -0.17812919105E+02  0.34695000601E+02  0.10566000000E+00 0. -1.
         22    1    1    0    0    0  0.17451638917E+02  0.18787158462E+02 -0.11656383980E+02  0.28167149509E+02  0.00000000000E+00 0.  1.
</event>
<event>
 5    1  0.2295577E-004  0.9118800E+02  0.7818608E-02  0.1130116E+00
         25   -1    0    0    0    0  0.00000000000E+00  0.00000000000E+00  0.99999998245E-14  0.12500000000E+03  0.12500000000E+03 0.  0.
        -13    1    3    3    0    0 -0.39378824137E+02 -0.45518429892E+02  0.13086767288E+02  0.61594593045E+02  0.10566000000E+00 0.  1.
         23    2    1    0    0    0 -0.14090435031E+02 -0.23843841113E+02  0.11712809923E+02  0.94929099869E+02  0.90040407414E+02 0.  0.
         13    1    3    3    0    0  0.25288389107E+02  0.21674588779E+02 -0.13739573651E+01  0.33334506824E+02  0.10566000000E+00 0. -1.
         22    1    1    0    0    0  0.14090435031E+02  0.23843841113E+02 -0.11712809923E+02  0.30070900131E+02  0.00000000000E+00 0.  1.
</event>
<event>
 5    1  0.2295577E-004  0.9118800E+02  0.7818608E-02  0.1130116E+00
         25   -1    0    0    0    0  0.00000000000E+00  0.00000000000E+00  0.99999998245E-14  0.12500000000E+03  0.12500000000E+03 0.  0.
        -13    1    3    3    0    0  0.37866641135E+02 -0.30465780284E+02  0.25623419989E+02  0.54941942950E+02  0.10566000000E+00 0. -1.
         23    2    1    0    0    0  0.26074083996E+02 -0.11370635106E+02 -0.80754502019E+01  0.95430385614E+02  0.90733656399E+02 0.  0.
         13    1    3    3    0    0 -0.11792557138E+02  0.19095145177E+02 -0.33698870191E+02  0.40488442664E+02  0.10566000000E+00 0.  1.
         22    1    1    0    0    0 -0.26074083996E+02  0.11370635106E+02  0.80754502019E+01  0.29569614386E+02  0.00000000000E+00 0. -1.
</event>
<event>
 5    1  0.2295577E-004  0.9118800E+02  0.7818608E-02  0.1130116E+00
         25   -1    0    0    0    0  0.00000000000E+00  0.00000000000E+00  0.99999998245E-14  0.12500000000E+03  0.12500000000E+03 0.  0.
        -13    1    3    3    0    0  0.70274779630E+01 -0.53354969084E+02 -0.76937831971E+01  0.54363072360E+02  0.10566000000E+00 0. -1.
         23    2    1    0    0    0  0.98433324631E+01 -0.14555675283E+02 -0.22903800643E+02  0.96132319788E+02  0.91695583029E+02 0.  0.
         13    1    3    3    0    0  0.28158545001E+01  0.38799293801E+02 -0.15210017446E+02  0.41769247429E+02  0.10566000000E+00 0.  1.
         22    1    1    0    0    0 -0.98433324631E+01  0.14555675283E+02  0.22903800643E+02  0.28867680212E+02  0.00000000000E+00 0. -1.
</event>
<event>
 5    1  0.2295577E-004  0.9118800E+02  0.7818608E-02  0.1130116E+00
         25   -1    0    0    0    0  0.00000000000E+00  0.00000000000E+00  0.99999998245E-14  0.12500000000E+03  0.12500000000E+03 0.  0.
        -13    1    3    3    0    0  0.26500623962E+02 -0.50937772438E+02  0.17511281005E+02  0.60029958003E+02  0.10566000000E+00 0.  1.
         23    2    1    0    0    0  0.14395358323E+02 -0.13619690569E+02  0.16397759927E+02  0.99278241835E+02  0.95888270705E+02 0.  0.
         13    1    3    3    0    0 -0.12105265639E+02  0.37318081869E+02 -0.11135210782E+01  0.39248283832E+02  0.10566000000E+00 0. -1.
         22    1    1    0    0    0 -0.14395358323E+02  0.13619690569E+02 -0.16397759927E+02  0.25721758165E+02  0.00000000000E+00 0.  1.
</event>
<event>
 5    1  0.2295577E-004  0.9118800E+02  0.7818608E-02  0.1130116E+00
         25   -1    0    0    0    0  0.00000000000E+00  0.00000000000E+00  0.99999998245E-14  0.12500000000E+03  0.12500000000E+03 0.  0.
        -13    1    3    3    0    0  0.31869335094E+02 -0.30909484679E+02 -0.24512285882E+02  0.50714042292E+02  0.10566000000E+00 0.  1.
         23    2    1    0    0    0  0.23628049166E+02 -0.10463474055E+02  0.14385630656E+02  0.95424412668E+02  0.90725427346E+02 0.  0.
         13    1    3    3    0    0 -0.82412859283E+01  0.20446010624E+02  0.38897916537E+02  0.44710370376E+02  0.10566000000E+00 0. -1.
         22    1    1    0    0    0 -0.23628049166E+02  0.10463474055E+02 -0.14385630656E+02  0.29575587332E+02  0.00000000000E+00 0.  1.
</event>
<event>
 5    1  0.2295577E-004  0.9118800E+02  0.7818608E-02  0.1130116E+00
         25   -1    0    0    0    0  0.00000000000E+00  0.00000000000E+00  0.99999998245E-14  0.12500000000E+03  0.12500000000E+03 0.  0.
        -13    1    3    3    0    0  0.20628715479E+01  0.35773214840E+02  0.31967306321E+02  0.48019768601E+02  0.10566000000E+00 0.  1.
         23    2    1    0    0    0  0.18758746654E+02  0.22528124701E+02 -0.91141590671E+01  0.94300246352E+02  0.89163117868E+02 0.  0.
         13    1    3    3    0    0  0.16695875106E+02 -0.13245090139E+02 -0.41081465388E+02  0.46280477751E+02  0.10566000000E+00 0. -1.
         22    1    1    0    0    0 -0.18758746654E+02 -0.22528124701E+02  0.91141590671E+01  0.30699753648E+02  0.00000000000E+00 0.  1.
</event>
<event>
 5    1  0.2295577E-004  0.9118800E+02  0.7818608E-02  0.1130116E+00
         25   -1    0    0    0    0  0.00000000000E+00  0.00000000000E+00  0.99999998245E-14  0.12500000000E+03  0.12500000000E+03 0.  0.
        -13    1    3    3    0    0  0.95588892247E+01  0.46506666925E+02  0.74547463663E+01  0.48060657914E+02  0.10566000000E+00 0.  1.
         23    2    1    0    0    0 -0.17664209974E+02  0.17605907070E+02 -0.17115852238E+02  0.94751947573E+02  0.89794136186E+02 0.  0.
         13    1    3    3    0    0 -0.27223099199E+02 -0.28900759856E+02 -0.24570598605E+02  0.46691289659E+02  0.10566000000E+00 0. -1.
         22    1    1    0    0    0  0.17664209974E+02 -0.17605907070E+02  0.17115852238E+02  0.30248052427E+02  0.00000000000E+00 0.  1.
</event>
<event>
 5    1  0.2295577E-004  0.9118800E+02  0.7818608E-02  0.1130116E+00
         25   -1    0    0    0    0  0.00000000000E+00  0.00000000000E+00  0.99999998245E-14  0.12500000000E+03  0.12500000000E+03 0.  0.
        -13    1    3    3    0    0 -0.89117860410E+01  0.19280820933E+02  0.29348196254E+02  0.36228411140E+02  0.10566000000E+00 0. -1.
         23    2    1    0    0    0  0.17361966198E+02 -0.24357132517E+02 -0.14513929381E+00  0.95087981677E+02  0.90260708059E+02 0.  0.
         13    1    3    3    0    0  0.26273752239E+02 -0.43637953450E+02 -0.29493335548E+02  0.58859570537E+02  0.10566000000E+00 0.  1.
         22    1    1    0    0    0 -0.17361966198E+02  0.24357132517E+02  0.14513929381E+00  0.29912018323E+02  0.00000000000E+00 0.  1.
</event>
<event>
 5    1  0.2295577E-004  0.9118800E+02  0.7818608E-02  0.1130116E+00
         25   -1    0    0    0    0  0.00000000000E+00  0.00000000000E+00  0.99999998245E-14  0.12500000000E+03  0.12500000000E+03 0.  0.
        -13    1    3    3    0    0 -0.38870945760E+02 -0.68734395559E+01  0.73291130500E+01  0.40148744161E+02  0.10566000000E+00 0. -1.
         23    2    1    0    0    0  0.10239028205E+02  0.53831184381E+01  0.27908715210E+02  0.94788875437E+02  0.89845527764E+02 0.  0.
         13    1    3    3    0    0  0.49109973965E+02  0.12256557994E+02  0.20579602160E+02  0.54640131275E+02  0.10566000000E+00 0.  1.
         22    1    1    0    0    0 -0.10239028205E+02 -0.53831184381E+01 -0.27908715210E+02  0.30211124563E+02  0.00000000000E+00 0.  1.
</event>
<event>
 5    1  0.2295577E-004  0.9118800E+02  0.7818608E-02  0.1130116E+00
         25   -1    0    0    0    0  0.00000000000E+00  0.00000000000E+00  0.99999998245E-14  0.12500000000E+03  0.12500000000E+03 0.  0.
        -13    1    3    3    0    0  0.33104962683E+02  0.38435404916E+02 -0.20241437022E+02  0.54616351416E+02  0.10566000000E+00 0.  1.
         23    2    1    0    0    0 -0.23570164519E+01  0.30277293603E+02 -0.43590499569E+01  0.94319854123E+02  0.89190602256E+02 0.  0.
         13    1    3    3    0    0 -0.35461979134E+02 -0.81581113130E+01  0.15882387065E+02  0.39703502707E+02  0.10566000000E+00 0. -1.
         22    1    1    0    0    0  0.23570164519E+01 -0.30277293603E+02  0.43590499569E+01  0.30680145877E+02  0.00000000000E+00 0.  1.
</event>
<event>
 5    1  0.2295577E-004  0.9118800E+02  0.7818608E-02  0.1130116E+00
         25   -1    0    0    0    0  0.00000000000E+00  0.00000000000E+00  0.99999998245E-14  0.12500000000E+03  0.12500000000E+03 0.  0.
        -13    1    3    3    0    0 -0.51647562820E+02  0.18362798787E+02 -0.23441131808E+02  0.59616784122E+02  0.10566000000E+00 0. -1.
         23    2    1    0    0    0 -0.26618882471E+02  0.27774974844E+01  0.14415495682E+01  0.98197808644E+02  0.94469318623E+02 0.  0.
         13    1    3    3    0    0  0.25028680349E+02 -0.15585301302E+02  0.24882681376E+02  0.38581024522E+02  0.10566000000E+00 0.  1.
         22    1    1    0    0    0  0.26618882471E+02 -0.27774974844E+01 -0.14415495682E+01  0.26802191356E+02  0.00000000000E+00 0. -1.
</event>
<event>
 5    1  0.2295577E-004  0.9118800E+02  0.7818608E-02  0.1130116E+00
         25   -1    0    0    0    0  0.00000000000E+00  0.00000000000E+00  0.99999998245E-14  0.12500000000E+03  0.12500000000E+03 0.  0.
        -13    1    3    3    0    0 -0.19856936459E+02  0.21883415327E+02 -0.28109310090E+02  0.40783897186E+02  0.10566000000E+00 0.  1.
         23    2    1    0    0    0  0.11416318061E+02 -0.22384367767E+02 -0.10418845905E+02  0.97798077488E+02  0.93938912980E+02 0.  0.
         13    1    3    3    0    0  0.31273254521E+02 -0.44267783093E+02  0.17690464186E+02  0.57014180301E+02  0.10566000000E+00 0. -1.
         22    1    1    0    0    0 -0.11416318061E+02  0.22384367767E+02  0.10418845905E+02  0.27201922512E+02  0.00000000000E+00 0. -1.
</event>
<event>
 5    1  0.2295577E-004  0.9118800E+02  0.7818608E-02  0.1130116E+00
         25   -1    0    0    0    0  0.00000000000E+00  0.00000000000E+00  0.99999998245E-14  0.12500000000E+03  0.12500000000E+03 0.  0.
        -13    1    3    3    0    0 -0.20266921222E+02 -0.46046536110E+02  0.24145634784E+02  0.55803713377E+02  0.10566000000E+00 0. -1.
         23    2    1    0    0    0 -0.16489687315E+02 -0.23290957011E+02 -0.79937483546E+01  0.95364236487E+02  0.90642479675E+02 0.  0.
         13    1    3    3    0    0  0.37772339061E+01  0.22755579099E+02 -0.32139383139E+02  0.39560523109E+02  0.10566000000E+00 0.  1.
         22    1    1    0    0    0  0.16489687315E+02  0.23290957011E+02  0.79937483546E+01  0.29635763513E+02  0.00000000000E+00 0. -1.
</event>
<event>
 5    1  0.2295577E-004  0.9118800E+02  0.7818608E-02  0.1130116E+00
         25   -1    0    0    0    0  0.00000000000E+00  0.00000000000E+00  0.99999998245E-14  0.12500000000E+03  0.12500000000E+03 0.  0.
        -13    1    3    3    0    0 -0.26884642115E+02  0.15346604826E+02 -0.14854901170E+02  0.34336300239E+02  0.10566000000E+00 0.  1.
         23    2    1    0    0    0  0.21002006482E+02  0.26716449596E+01  0.20761882419E+02  0.95347382500E+02  0.90619234299E+02 0.  0.
         13    1    3    3    0    0  0.47886648596E+02 -0.12674959866E+02  0.35616783588E+02  0.61011082261E+02  0.10566000000E+00 0. -1.
         22    1    1    0    0    0 -0.21002006482E+02 -0.26716449596E+01 -0.20761882419E+02  0.29652617500E+02  0.00000000000E+00 0. -1.
</event>
<event>
 5    1  0.2295577E-004  0.9118800E+02  0.7818608E-02  0.1130116E+00
         25   -1    0    0    0    0  0.00000000000E+00  0.00000000000E+00  0.99999998245E-14  0.12500000000E+03  0.12500000000E+03 0.  0.
        -13    1    3    3    0    0  0.11767097717E+02  0.33421728231E+02  0.54877216862E+01  0.35855303094E+02  0.10566000000E+00 0.  1.
         23    2    1    0    0    0  0.31654835776E+01 -0.25865497296E+02  0.12364760467E+02  0.96156776566E+02  0.91728916605E+02 0.  0.
         13    1    3    3    0    0 -0.86016141396E+01 -0.59287225527E+02  0.68770387810E+01  0.60301473472E+02  0.10566000000E+00 0. -1.
         22    1    1    0    0    0 -0.31654835776E+01  0.25865497296E+02 -0.12364760467E+02  0.28843223434E+02  0.00000000000E+00 0. -1.
</event>
<event>
 5    1  0.2295577E-004  0.9118800E+02  0.7818608E-02  0.1130116E+00
         25   -1    0    0    0    0  0.00000000000E+00  0.00000000000E+00  0.99999998245E-14  0.12500000000E+03  0.12500000000E+03 0.  0.
        -13    1    3    3    0    0 -0.51695050445E+02 -0.14997748511E+02 -0.10416424601E+02  0.54825393445E+02  0.10566000000E+00 0.  1.
         23    2    1    0    0    0 -0.36154139001E+02 -0.20271729895E+02  0.11292437313E+02  0.82039739988E+02  0.69892309999E+02 0.  0.
         13    1    3    3    0    0  0.15540911444E+02 -0.52739813841E+01  0.21708861914E+02  0.27214346543E+02  0.10566000000E+00 0. -1.
         22    1    1    0    0    0  0.36154139001E+02  0.20271729895E+02 -0.11292437313E+02  0.42960260012E+02  0.00000000000E+00 0.  1.
</event>
<event>
 5    1  0.2295577E-004  0.9118800E+02  0.7818608E-02  0.1130116E+00
         25   -1    0    0    0    0  0.00000000000E+00  0.00000000000E+00  0.99999998245E-14  0.12500000000E+03  0.12500000000E+03 0.  0.
        -13    1    3    3    0    0 -0.24545577534E+02 -0.11794584955E+02  0.18179841899E+02  0.32743173736E+02  0.10566000000E+00 0. -1.
         23    2    1    0    0    0  0.27155863663E+02 -0.61142696415E+01 -0.13934513269E+02  0.93871301271E+02  0.88559727403E+02 0.  0.
         13    1    3    3    0    0  0.51701441198E+02  0.56803153138E+01 -0.32114355168E+02  0.61128127535E+02  0.10566000000E+00 0.  1.
         22    1    1    0    0    0 -0.27155863663E+02  0.61142696415E+01  0.13934513269E+02  0.31128698729E+02  0.00000000000E+00 0.  1.
</event>
<event>
 5    1  0.2295577E-004  0.9118800E+02  0.7818608E-02  0.1130116E+00
         25   -1    0    0    0    0  0.00000000000E+00  0.00000000000E+00  0.99999998245E-14  0.12500000000E+03  0.12500000000E+03 0.  0.
        -13    1    3    3    0    0  0.31323756563E+02 -0.42763966105E+00  0.23605851419E+02  0.39225093832E+02  0.10566000000E+00 0.  1.
         23    2    1    0    0    0 -0.11082574144E+02  0.16993159249E+02 -0.15488417854E+02  0.99475854597E+02  0.96145533694E+02 0.  0.
         13    1    3    3    0    0 -0.42406330707E+02  0.17420798910E+02 -0.39094269273E+02  0.60250760765E+02  0.10566000000E+00 0. -1.
         22    1    1    0    0    0  0.11082574144E+02 -0.16993159249E+02  0.15488417854E+02  0.25524145403E+02  0.00000000000E+00 0. -1.
</event>
<event>
 5    1  0.2295577E-004  0.9118800E+02  0.7818608E-02  0.1130116E+00
         25   -1    0    0    0    0  0.00000000000E+00  0.00000000000E+00  0.99999998245E-14  0.12500000000E+03  0.12500000000E+03 0.  0.
        -13    1    3    3    0    0 -0.51602107966E+01  0.81427362957E+01 -0.30315658893E+02  0.31811668739E+02  0.10566000000E+00 0. -1.
         23    2    1    0    0    0  0.16652450867E+02 -0.62669279723E+01  0.25766181519E+02  0.93687468704E+02  0.88299870758E+02 0.  0.
         13    1    3    3    0    0  0.21812661664E+02 -0.14409664268E+02  0.56081840412E+02  0.61875799964E+02  0.10566000000E+00 0.  1.
         22    1    1    0    0    0 -0.16652450867E+02  0.62669279723E+01 -0.25766181519E+02  0.31312531296E+02  0.00000000000E+00 0.  1.
</event>
<event>
 5    1  0.2295577E-004  0.9118800E+02  0.7818608E-02  0.1130116E+00
         25   -1    0    0    0    0  0.00000000000E+00  0.00000000000E+00  0.99999998245E-14  0.12500000000E+03  0.12500000000E+03 0.  0.
        -13    1    3    3    0    0 -0.29631483981E+02 -0.24247797067E+02 -0.95800366806E+01  0.39468579559E+02  0.10566000000E+00 0.  1.
         23    2    1    0    0    0 -0.31079348587E+00  0.26434013435E+02 -0.25431126767E+01  0.98442118289E+02  0.94792033274E+02 0.  0.
         13    1    3    3    0    0  0.29320690496E+02  0.50681810502E+02  0.70369240038E+01  0.58973538730E+02  0.10566000000E+00 0. -1.
         22    1    1    0    0    0  0.31079348587E+00 -0.26434013435E+02  0.25431126767E+01  0.26557881711E+02  0.00000000000E+00 0. -1.
</event>
<event>
 5    1  0.2295577E-004  0.9118800E+02  0.7818608E-02  0.1130116E+00
         25   -1    0    0    0    0  0.00000000000E+00  0.00000000000E+00  0.99999998245E-14  0.12500000000E+03  0.12500000000E+03 0.  0.
        -13    1    3    3    0    0 -0.15404611518E+02  0.19540547028E+02 -0.34805446774E+02  0.42785106326E+02  0.10566000000E+00 0. -1.
         23    2    1    0    0    0 -0.37781942665E+01 -0.26580208401E+02 -0.10820672473E+02  0.96054029929E+02  0.91588795615E+02 0.  0.
         13    1    3    3    0    0  0.11626417252E+02 -0.46120755430E+02  0.23984774300E+02  0.53268923603E+02  0.10566000000E+00 0.  1.
         22    1    1    0    0    0  0.37781942665E+01  0.26580208401E+02  0.10820672473E+02  0.28945970071E+02  0.00000000000E+00 0.  1.
</event>
<event>
 5    1  0.2295577E-004  0.9118800E+02  0.7818608E-02  0.1130116E+00
         25   -1    0    0    0    0  0.00000000000E+00  0.00000000000E+00  0.99999998245E-14  0.12500000000E+03  0.12500000000E+03 0.  0.
        -13    1    3    3    0    0 -0.33466308394E+02  0.18659198836E+02  0.94469193293E+00  0.38328359026E+02  0.10566000000E+00 0. -1.
         23    2    1    0    0    0  0.13636861185E+02 -0.33904679115E+01  0.25532308888E+02  0.95856251909E+02  0.91318470077E+02 0.  0.
         13    1    3    3    0    0  0.47103169579E+02 -0.22049666748E+02  0.24587616955E+02  0.57527892883E+02  0.10566000000E+00 0.  1.
         22    1    1    0    0    0 -0.13636861185E+02  0.33904679115E+01 -0.25532308888E+02  0.29143748091E+02  0.00000000000E+00 0.  1.
</event>
<event>
 5    1  0.2295577E-004  0.9118800E+02  0.7818608E-02  0.1130116E+00
         25   -1    0    0    0    0  0.00000000000E+00  0.00000000000E+00  0.99999998245E-14  0.12500000000E+03  0.12500000000E+03 0.  0.
        -13    1    3    3    0    0  0.16248825465E+02 -0.12357608860E+02  0.17362931164E+02  0.26799577765E+02  0.10566000000E+00 0.  1.
         23    2    1    0    0    0 -0.37672637066E+02 -0.19128354324E+02  0.59147906623E+01  0.82337296485E+02  0.70422468867E+02 0.  0.
         13    1    3    3    0    0 -0.53921462531E+02 -0.67707454636E+01 -0.11448140502E+02  0.55537718720E+02  0.10566000000E+00 0. -1.
         22    1    1    0    0    0  0.37672637066E+02  0.19128354324E+02 -0.59147906623E+01  0.42662703515E+02  0.00000000000E+00 0.  1.
</event>
<event>
 5    1  0.2295577E-004  0.9118800E+02  0.7818608E-02  0.1130116E+00
         25   -1    0    0    0    0  0.00000000000E+00  0.00000000000E+00  0.99999998245E-14  0.12500000000E+03  0.12500000000E+03 0.  0.
        -13    1    3    3    0    0  0.24904918656E+02 -0.41534945158E+02  0.36461413057E+02  0.60620561270E+02  0.10566000000E+00 0.  1.
         23    2    1    0    0    0  0.19106534549E+02 -0.19694056215E+02  0.91354540476E+01  0.96079902605E+02  0.91624099729E+02 0.  0.
         13    1    3    3    0    0 -0.57983841069E+01  0.21840888943E+02 -0.27325959009E+02  0.35459341335E+02  0.10566000000E+00 0. -1.
         22    1    1    0    0    0 -0.19106534549E+02  0.19694056215E+02 -0.91354540476E+01  0.28920097395E+02  0.00000000000E+00 0.  1.
</event>
<event>
 5    1  0.2295577E-004  0.9118800E+02  0.7818608E-02  0.1130116E+00
         25   -1    0    0    0    0  0.00000000000E+00  0.00000000000E+00  0.99999998245E-14  0.12500000000E+03  0.12500000000E+03 0.  0.
        -13    1    3    3    0    0 -0.55903639391E+02  0.86251672807E+01 -0.15371342007E+02  0.58616548234E+02  0.10566000000E+00 0. -1.
         23    2    1    0    0    0 -0.27441436539E+02  0.14029309311E+02  0.46485079308E+01  0.93831705452E+02  0.88503821177E+02 0.  0.
         13    1    3    3    0    0  0.28462202852E+02  0.54041420302E+01  0.20019849938E+02  0.35215157217E+02  0.10566000000E+00 0.  1.
         22    1    1    0    0    0  0.27441436539E+02 -0.14029309311E+02 -0.46485079308E+01  0.31168294548E+02  0.00000000000E+00 0. -1.
</event>
<event>
 5    1  0.2295577E-004  0.9118800E+02  0.7818608E-02  0.1130116E+00
         25   -1    0    0    0    0  0.00000000000E+00  0.00000000000E+00  0.99999998245E-14  0.12500000000E+03  0.12500000000E+03 0.  0.
        -13    1    3    3    0    0  0.55695948291E+01  0.42265879780E+02  0.22954559692E+02  0.48418467085E+02  0.10566000000E+00 0. -1.
         23    2    1    0    0    0  0.28319017650E+02  0.41216569071E+01  0.79286605698E+01  0.95304571484E+02  0.90560161610E+02 0.  0.
         13    1    3    3    0    0  0.22749422821E+02 -0.38144222873E+02 -0.15025899123E+02  0.46886104399E+02  0.10566000000E+00 0.  1.
         22    1    1    0    0    0 -0.28319017650E+02 -0.41216569071E+01 -0.79286605698E+01  0.29695428516E+02  0.00000000000E+00 0.  1.
</event>
<event>
 5    1  0.2295577E-004  0.9118800E+02  0.7818608E-02  0.1130116E+00
         25   -1    0    0    0    0  0.00000000000E+00  0.00000000000E+00  0.99999998245E-14  0.12500000000E+03  0.12500000000E+03 0.  0.
        -13    1    3    3    0    0  0.85373086668E+01 -0.30032733934E+02  0.10764118375E+02  0.33026173791E+02  0.10566000000E+00 0.  1.
         23    2    1    0    0    0  0.14935989075E+02  0.28606013612E+02  0.19203745707E+01  0.92672370595E+02  0.86850979550E+02 0.  0.
         13    1    3    3    0    0  0.63986804085E+01  0.58638747546E+02 -0.88437438042E+01  0.59646196805E+02  0.10566000000E+00 0. -1.
         22    1    1    0    0    0 -0.14935989075E+02 -0.28606013612E+02 -0.19203745707E+01  0.32327629405E+02  0.00000000000E+00 0. -1.
</event>
<event>
 5    1  0.2295577E-004  0.9118800E+02  0.7818608E-02  0.1130116E+00
         25   -1    0    0    0    0  0.00000000000E+00  0.00000000000E+00  0.99999998245E-14  0.12500000000E+03  0.12500000000E+03 0.  0.
        -13    1    3    3    0    0  0.49818191121E+02  0.95154160369E+01  0.17352164168E+02  0.53605075080E+02  0.10566000000E+00 0.  1.
         23    2    1    0    0    0  0.29975094320E+02 -0.16290348882E+02  0.18524955557E+02  0.86179184391E+02  0.76940211188E+02 0.  0.
         13    1    3    3    0    0 -0.19843096801E+02 -0.25805764919E+02  0.11727913887E+01  0.32574109311E+02  0.10566000000E+00 0. -1.
         22    1    1    0    0    0 -0.29975094320E+02  0.16290348882E+02 -0.18524955557E+02  0.38820815609E+02  0.00000000000E+00 0.  1.
</event>
<event>
 5    1  0.2295577E-004  0.9118800E+02  0.7818608E-02  0.1130116E+00
         25   -1    0    0    0    0  0.00000000000E+00  0.00000000000E+00  0.99999998245E-14  0.12500000000E+03  0.12500000000E+03 0.  0.
        -13    1    3    3    0    0  0.18943275027E+01  0.11826680424E+02 -0.48472903008E+02  0.49930875584E+02  0.10566000000E+00 0.  1.
         23    2    1    0    0    0 -0.32483891094E+01  0.28661567477E+02 -0.65199785158E+01  0.95427248997E+02  0.90729335109E+02 0.  0.
         13    1    3    3    0    0 -0.51427166121E+01  0.16834887052E+02  0.41952924492E+02  0.45496373413E+02  0.10566000000E+00 0. -1.
         22    1    1    0    0    0  0.32483891094E+01 -0.28661567477E+02  0.65199785158E+01  0.29572751003E+02  0.00000000000E+00 0.  1.
</event>
<event>
 5    1  0.2295577E-004  0.9118800E+02  0.7818608E-02  0.1130116E+00
         25   -1    0    0    0    0  0.00000000000E+00  0.00000000000E+00  0.99999998245E-14  0.12500000000E+03  0.12500000000E+03 0.  0.
        -13    1    3    3    0    0 -0.76347920183E+01 -0.41782780380E+02  0.28808424169E+02  0.51322775184E+02  0.10566000000E+00 0. -1.
         23    2    1    0    0    0 -0.22669457213E+02 -0.23960151759E+01  0.20604233937E+02  0.94272493834E+02  0.89124202429E+02 0.  0.
         13    1    3    3    0    0 -0.15034665194E+02  0.39386765204E+02 -0.82041902317E+01  0.42949718650E+02  0.10566000000E+00 0.  1.
         22    1    1    0    0    0  0.22669457213E+02  0.23960151759E+01 -0.20604233937E+02  0.30727506166E+02  0.00000000000E+00 0.  1.
</event>
<event>
 5    1  0.2295577E-004  0.9118800E+02  0.7818608E-02  0.1130116E+00
         25   -1    0    0    0    0  0.00000000000E+00  0.00000000000E+00  0.99999998245E-14  0.12500000000E+03  0.12500000000E+03 0.  0.
        -13    1    3    3    0    0  0.18646512555E+02  0.37979616512E+02  0.33383705486E+02  0.53894588382E+02  0.10566000000E+00 0.  1.
         23    2    1    0    0    0  0.47813406821E+01  0.13418342673E+02  0.39720507726E+02  0.82802466034E+02  0.71243361154E+02 0.  0.
         13    1    3    3    0    0 -0.13865171873E+02 -0.24561273839E+02  0.63368022399E+01  0.28907877652E+02  0.10566000000E+00 0. -1.
         22    1    1    0    0    0 -0.47813406821E+01 -0.13418342673E+02 -0.39720507726E+02  0.42197533966E+02  0.00000000000E+00 0.  1.
</event>
<event>
 5    1  0.2295577E-004  0.9118800E+02  0.7818608E-02  0.1130116E+00
         25   -1    0    0    0    0  0.00000000000E+00  0.00000000000E+00  0.99999998245E-14  0.12500000000E+03  0.12500000000E+03 0.  0.
        -13    1    3    3    0    0 -0.79779485650E+01 -0.16883923457E+02 -0.27757268679E+02  0.33454322040E+02  0.10566000000E+00 0.  1.
         23    2    1    0    0    0  0.24469236199E+00  0.20634003072E+02  0.21023624742E+02  0.95541304265E+02  0.90886335972E+02 0.  0.
         13    1    3    3    0    0  0.82226409270E+01  0.37517926529E+02  0.48780893421E+02  0.62086982225E+02  0.10566000000E+00 0. -1.
         22    1    1    0    0    0 -0.24469236199E+00 -0.20634003072E+02 -0.21023624742E+02  0.29458695735E+02  0.00000000000E+00 0. -1.
</event>
<event>
 5    1  0.2295577E-004  0.9118800E+02  0.7818608E-02  0.1130116E+00
         25   -1    0    0    0    0  0.00000000000E+00  0.00000000000E+00  0.99999998245E-14  0.12500000000E+03  0.12500000000E+03 0.  0.
        -13    1    3    3    0    0  0.23470451122E+02  0.46208095580E+02 -0.32561752138E+02  0.61207262962E+02  0.10566000000E+00 0. -1.
         23    2    1    0    0    0  0.79972564934E+01  0.17611082298E+02 -0.22683921363E+02  0.95189488104E+02  0.90401172702E+02 0.  0.
         13    1    3    3    0    0 -0.15473194628E+02 -0.28597013282E+02  0.98778307753E+01  0.33982225141E+02  0.10566000000E+00 0.  1.
         22    1    1    0    0    0 -0.79972564934E+01 -0.17611082298E+02  0.22683921363E+02  0.29810511896E+02  0.00000000000E+00 0. -1.
</event>
<event>
 5    1  0.2295577E-004  0.9118800E+02  0.7818608E-02  0.1130116E+00
         25   -1    0    0    0    0  0.00000000000E+00  0.00000000000E+00  0.99999998245E-14  0.12500000000E+03  0.12500000000E+03 0.  0.
        -13    1    3    3    0    0 -0.16799062218E+02  0.16229142993E+02  0.43714358684E+02  0.49563594430E+02  0.10566000000E+00 0.  1.
         23    2    1    0    0    0  0.20638267688E+02  0.23329892861E+01  0.20807543290E+02  0.95600428746E+02  0.90967616142E+02 0.  0.
         13    1    3    3    0    0  0.37437329906E+02 -0.13896153707E+02 -0.22906815394E+02  0.46036834316E+02  0.10566000000E+00 0. -1.
         22    1    1    0    0    0 -0.20638267688E+02 -0.23329892861E+01 -0.20807543290E+02  0.29399571254E+02  0.00000000000E+00 0.  1.
</event>
<event>
 5    1  0.2295577E-004  0.9118800E+02  0.7818608E-02  0.1130116E+00
         25   -1    0    0    0    0  0.00000000000E+00  0.00000000000E+00  0.99999998245E-14  0.12500000000E+03  0.12500000000E+03 0.  0.
        -13    1    3    3    0    0  0.15708223444E+02 -0.41717698173E+02 -0.90720715166E+01  0.45490969106E+02  0.10566000000E+00 0.  1.
         23    2    1    0    0    0 -0.10672305001E+02  0.10114008698E+02 -0.15054067169E+02  0.10395680147E+03  0.10180471683E+03 0.  0.
         13    1    3    3    0    0 -0.26380528445E+02  0.51831706870E+02 -0.59819956528E+01  0.58465832365E+02  0.10566000000E+00 0. -1.
         22    1    1    0    0    0  0.10672305001E+02 -0.10114008698E+02  0.15054067169E+02  0.21043198528E+02  0.00000000000E+00 0. -1.
</event>
<event>
 4    1  0.2295577E-004  0.9118800E+02  0.7818608E-02  0.1130116E+00
         25   -1    0    0    0    0  0.00000000000E+00  0.00000000000E+00  0.99999998245E-14  0.12500000000E+03  0.12500000000E+03 0.  0.
        -13    1    1    0    0    0  0.23561782272E+02  0.22505562037E+01  0.21084312081E+02  0.31698295963E+02  0.10566000000E+00 0.  1.
         13    1    1    0    0    0  0.27064972853E+02 -0.74022151403E+01 -0.30615517545E+02  0.41528624141E+02  0.10566000000E+00 0. -1.
         22    1    1    0    0    0 -0.50626755124E+02  0.51516589365E+01  0.95312054643E+01  0.51773079895E+02  0.00000000000E+00 0. -1.
</event>
<event>
 5    1  0.2295577E-004  0.9118800E+02  0.7818608E-02  0.1130116E+00
         25   -1    0    0    0    0  0.00000000000E+00  0.00000000000E+00  0.99999998245E-14  0.12500000000E+03  0.12500000000E+03 0.  0.
        -13    1    3    3    0    0 -0.29904812234E+02  0.39663836040E+02  0.29408209034E+02  0.57726697522E+02  0.10566000000E+00 0.  1.
         23    2    1    0    0    0 -0.80866082511E+01  0.33583401370E+02  0.66744817257E+01  0.89817805826E+02  0.82640495259E+02 0.  0.
         13    1    3    3    0    0  0.21818203983E+02 -0.60804346705E+01 -0.22733727308E+02  0.32091108304E+02  0.10566000000E+00 0. -1.
         22    1    1    0    0    0  0.80866082511E+01 -0.33583401370E+02 -0.66744817257E+01  0.35182194174E+02  0.00000000000E+00 0.  1.
</event>
<event>
 5    1  0.2295577E-004  0.9118800E+02  0.7818608E-02  0.1130116E+00
         25   -1    0    0    0    0  0.00000000000E+00  0.00000000000E+00  0.99999998245E-14  0.12500000000E+03  0.12500000000E+03 0.  0.
        -13    1    3    3    0    0 -0.28880692293E+02 -0.15238803276E+02 -0.38660022541E+02  0.50605573008E+02  0.10566000000E+00 0.  1.
         23    2    1    0    0    0  0.10700501328E+02 -0.20667144352E+02 -0.17968378693E+02  0.95597717483E+02  0.90963890478E+02 0.  0.
         13    1    3    3    0    0  0.39581193620E+02 -0.54283410764E+01  0.20691643849E+02  0.44992144475E+02  0.10566000000E+00 0. -1.
         22    1    1    0    0    0 -0.10700501328E+02  0.20667144352E+02  0.17968378693E+02  0.29402282517E+02  0.00000000000E+00 0. -1.
</event>
<event>
 5    1  0.2295577E-004  0.9118800E+02  0.7818608E-02  0.1130116E+00
         25   -1    0    0    0    0  0.00000000000E+00  0.00000000000E+00  0.99999998245E-14  0.12500000000E+03  0.12500000000E+03 0.  0.
        -13    1    3    3    0    0 -0.36435032249E+02 -0.48270750665E+01  0.14810272288E+02  0.39625339847E+02  0.10566000000E+00 0.  1.
         23    2    1    0    0    0  0.15683879627E+02 -0.22913071619E+02  0.11663989981E+02  0.94882868771E+02  0.89976203481E+02 0.  0.
         13    1    3    3    0    0  0.52118911876E+02 -0.18085996552E+02 -0.31462823067E+01  0.55257528925E+02  0.10566000000E+00 0. -1.
         22    1    1    0    0    0 -0.15683879627E+02  0.22913071619E+02 -0.11663989981E+02  0.30117131229E+02  0.00000000000E+00 0. -1.
</event>
<event>
 5    1  0.2295577E-004  0.9118800E+02  0.7818608E-02  0.1130116E+00
         25   -1    0    0    0    0  0.00000000000E+00  0.00000000000E+00  0.99999998245E-14  0.12500000000E+03  0.12500000000E+03 0.  0.
        -13    1    3    3    0    0 -0.73600379620E+01  0.35013043032E+02  0.12868802957E+00  0.35778639798E+02  0.10566000000E+00 0.  1.
         23    2    1    0    0    0  0.18226167550E+02 -0.14522251662E+02 -0.19218638122E+02  0.94793294980E+02  0.89851676361E+02 0.  0.
         13    1    3    3    0    0  0.25586205512E+02 -0.49535294694E+02 -0.19347326152E+02  0.59014655182E+02  0.10566000000E+00 0. -1.
         22    1    1    0    0    0 -0.18226167550E+02  0.14522251662E+02  0.19218638122E+02  0.30206705020E+02  0.00000000000E+00 0. -1.
</event>
<event>
 5    1  0.2295577E-004  0.9118800E+02  0.7818608E-02  0.1130116E+00
         25   -1    0    0    0    0  0.00000000000E+00  0.00000000000E+00  0.99999998245E-14  0.12500000000E+03  0.12500000000E+03 0.  0.
        -13    1    3    3    0    0  0.64474961383E+01 -0.35290937301E+02 -0.50980180319E+02  0.62337873011E+02  0.10566000000E+00 0.  1.
         23    2    1    0    0    0  0.47298861150E+01 -0.19585385051E+02 -0.23418867546E+02  0.94106594760E+02  0.88891218294E+02 0.  0.
         13    1    3    3    0    0 -0.17176100233E+01  0.15705552251E+02  0.27561312774E+02  0.31768721749E+02  0.10566000000E+00 0. -1.
         22    1    1    0    0    0 -0.47298861150E+01  0.19585385051E+02  0.23418867546E+02  0.30893405240E+02  0.00000000000E+00 0.  1.
</event>
<event>
 5    1  0.2295577E-004  0.9118800E+02  0.7818608E-02  0.1130116E+00
         25   -1    0    0    0    0  0.00000000000E+00  0.00000000000E+00  0.99999998245E-14  0.12500000000E+03  0.12500000000E+03 0.  0.
        -13    1    3    3    0    0  0.37263585002E+02  0.42195788689E+02  0.28262511480E+01  0.56365399048E+02  0.10566000000E+00 0. -1.
         23    2    1    0    0    0  0.13508316319E+02  0.17387993369E+02  0.20431793054E+02  0.94962105757E+02  0.90086216699E+02 0.  0.
         13    1    3    3    0    0 -0.23755268683E+02 -0.24807795320E+02  0.17605541906E+02  0.38596706708E+02  0.10566000000E+00 0.  1.
         22    1    1    0    0    0 -0.13508316319E+02 -0.17387993369E+02 -0.20431793054E+02  0.30037894243E+02  0.00000000000E+00 0. -1.
</event>
<event>
 5    1  0.2295577E-004  0.9118800E+02  0.7818608E-02  0.1130116E+00
         25   -1    0    0    0    0  0.00000000000E+00  0.00000000000E+00  0.99999998245E-14  0.12500000000E+03  0.12500000000E+03 0.  0.
        -13    1    3    3    0    0  0.10470582667E+02 -0.44185874494E+02  0.22678427375E+01  0.45466238913E+02  0.10566000000E+00 0. -1.
         23    2    1    0    0    0  0.30596448056E+02 -0.37560637530E+00  0.59851895846E+01  0.93821382196E+02  0.88489239736E+02 0.  0.
         13    1    3    3    0    0  0.20125865389E+02  0.43810268119E+02  0.37173468471E+01  0.48355143283E+02  0.10566000000E+00 0.  1.
         22    1    1    0    0    0 -0.30596448056E+02  0.37560637530E+00 -0.59851895846E+01  0.31178617804E+02  0.00000000000E+00 0.  1.
</event>
<event>
 5    1  0.2295577E-004  0.9118800E+02  0.7818608E-02  0.1130116E+00
         25   -1    0    0    0    0  0.00000000000E+00  0.00000000000E+00  0.99999998245E-14  0.12500000000E+03  0.12500000000E+03 0.  0.
        -13    1    3    3    0    0 -0.35434306029E+01 -0.37480562533E+02  0.27082333758E+02  0.46376852351E+02  0.10566000000E+00 0.  1.
         23    2    1    0    0    0 -0.49318399664E+01 -0.20952488422E+02 -0.19581433414E+02  0.95900818722E+02  0.91379454367E+02 0.  0.
         13    1    3    3    0    0 -0.13884093634E+01  0.16528074110E+02 -0.46663767172E+02  0.49523966370E+02  0.10566000000E+00 0. -1.
         22    1    1    0    0    0  0.49318399664E+01  0.20952488422E+02  0.19581433414E+02  0.29099181278E+02  0.00000000000E+00 0.  1.
</event>
<event>
 5    1  0.2295577E-004  0.9118800E+02  0.7818608E-02  0.1130116E+00
         25   -1    0    0    0    0  0.00000000000E+00  0.00000000000E+00  0.99999998245E-14  0.12500000000E+03  0.12500000000E+03 0.  0.
        -13    1    3    3    0    0 -0.35981288385E+02 -0.18265376548E+02 -0.76165784698E+00  0.40359241581E+02  0.10566000000E+00 0.  1.
         23    2    1    0    0    0  0.17886955963E+02 -0.24482063794E+02  0.16112541536E+01  0.94637016267E+02  0.89634000617E+02 0.  0.
         13    1    3    3    0    0  0.53868244348E+02 -0.62166872457E+01  0.23729120006E+01  0.54277774686E+02  0.10566000000E+00 0. -1.
         22    1    1    0    0    0 -0.17886955963E+02  0.24482063794E+02 -0.16112541536E+01  0.30362983733E+02  0.00000000000E+00 0.  1.
</event>
<event>
 5    1  0.2295577E-004  0.9118800E+02  0.7818608E-02  0.1130116E+00
         25   -1    0    0    0    0  0.00000000000E+00  0.00000000000E+00  0.99999998245E-14  0.12500000000E+03  0.12500000000E+03 0.  0.
        -13    1    3    3    0    0 -0.10179476044E+02  0.19917185198E+02 -0.34970478879E+02  0.41512185631E+02  0.10566000000E+00 0.  1.
         23    2    1    0    0    0 -0.99169403772E+01 -0.13053060579E+02  0.15919186734E+02  0.10214942882E+03  0.99560821639E+02 0.  0.
         13    1    3    3    0    0  0.26253566655E+00 -0.32970245777E+02  0.50889665613E+02  0.60637243191E+02  0.10566000000E+00 0. -1.
         22    1    1    0    0    0  0.99169403772E+01  0.13053060579E+02 -0.15919186734E+02  0.22850571178E+02  0.00000000000E+00 0. -1.
</event>
<event>
 5    1  0.2295577E-004  0.9118800E+02  0.7818608E-02  0.1130116E+00
         25   -1    0    0    0    0  0.00000000000E+00  0.00000000000E+00  0.99999998245E-14  0.12500000000E+03  0.12500000000E+03 0.  0.
        -13    1    3    3    0    0  0.27946879775E+02  0.23015520711E+02  0.25978102680E+02  0.44560243106E+02  0.10566000000E+00 0. -1.
         23    2    1    0    0    0 -0.20541596306E+02  0.71259324931E+01  0.19123114994E+02  0.96044350814E+02  0.91575584648E+02 0.  0.
         13    1    3    3    0    0 -0.48488476081E+02 -0.15889588217E+02 -0.68549876865E+01  0.51484107709E+02  0.10566000000E+00 0.  1.
         22    1    1    0    0    0  0.20541596306E+02 -0.71259324931E+01 -0.19123114994E+02  0.28955649186E+02  0.00000000000E+00 0. -1.
</event>
<event>
 5    1  0.2295577E-004  0.9118800E+02  0.7818608E-02  0.1130116E+00
         25   -1    0    0    0    0  0.00000000000E+00  0.00000000000E+00  0.99999998245E-14  0.12500000000E+03  0.12500000000E+03 0.  0.
        -13    1    3    3    0    0  0.40995541621E+02  0.61442724450E+01 -0.41676926737E+02  0.58782343462E+02  0.10566000000E+00 0. -1.
         23    2    1    0    0    0  0.27095311439E+02  0.11371910126E+02 -0.96734736384E+01  0.94063737554E+02  0.88830931485E+02 0.  0.
         13    1    3    3    0    0 -0.13900230182E+02  0.52276376810E+01  0.32003453098E+02  0.35281394092E+02  0.10566000000E+00 0.  1.
         22    1    1    0    0    0 -0.27095311439E+02 -0.11371910126E+02  0.96734736384E+01  0.30936262446E+02  0.00000000000E+00 0. -1.
</event>
<event>
 5    1  0.2295577E-004  0.9118800E+02  0.7818608E-02  0.1130116E+00
         25   -1    0    0    0    0  0.00000000000E+00  0.00000000000E+00  0.99999998245E-14  0.12500000000E+03  0.12500000000E+03 0.  0.
        -13    1    3    3    0    0 -0.44384833925E+01  0.33962411024E+02 -0.27854586855E+01  0.34364450258E+02  0.10566000000E+00 0. -1.
         23    2    1    0    0    0  0.77794563031E+01 -0.24566723709E+02  0.12905499070E+02  0.96179941700E+02  0.91760478557E+02 0.  0.
         13    1    3    3    0    0  0.12217939696E+02 -0.58529134733E+02  0.15690957756E+02  0.61815491443E+02  0.10566000000E+00 0.  1.
         22    1    1    0    0    0 -0.77794563031E+01  0.24566723709E+02 -0.12905499070E+02  0.28820058300E+02  0.00000000000E+00 0.  1.
</event>
<event>
 5    1  0.2295577E-004  0.9118800E+02  0.7818608E-02  0.1130116E+00
         25   -1    0    0    0    0  0.00000000000E+00  0.00000000000E+00  0.99999998245E-14  0.12500000000E+03  0.12500000000E+03 0.  0.
        -13    1    3    3    0    0  0.21474478234E+02 -0.35766951191E+02 -0.11263993663E+02  0.43212460358E+02  0.10566000000E+00 0. -1.
         23    2    1    0    0    0 -0.22463326279E+02 -0.77342654602E+01 -0.17202238937E+02  0.95668499626E+02  0.91061105344E+02 0.  0.
         13    1    3    3    0    0 -0.43937804513E+02  0.28032685731E+02 -0.59382452740E+01  0.52456039268E+02  0.10566000000E+00 0.  1.
         22    1    1    0    0    0  0.22463326279E+02  0.77342654602E+01  0.17202238937E+02  0.29331500374E+02  0.00000000000E+00 0.  1.
</event>
<event>
 5    1  0.2295577E-004  0.9118800E+02  0.7818608E-02  0.1130116E+00
         25   -1    0    0    0    0  0.00000000000E+00  0.00000000000E+00  0.99999998245E-14  0.12500000000E+03  0.12500000000E+03 0.  0.
        -13    1    3    3    0    0 -0.75512054793E+01  0.33355576033E+02  0.51479634897E+02  0.61804361738E+02  0.10566000000E+00 0.  1.
         23    2    1    0    0    0 -0.88304453968E+01  0.13358135424E+02  0.28631213477E+02  0.92195077609E+02  0.86161298750E+02 0.  0.
         13    1    3    3    0    0 -0.12792399175E+01 -0.19997440609E+02 -0.22848421420E+02  0.30390715871E+02  0.10566000000E+00 0. -1.
         22    1    1    0    0    0  0.88304453968E+01 -0.13358135424E+02 -0.28631213477E+02  0.32804922391E+02  0.00000000000E+00 0.  1.
</event>
<event>
 5    1  0.2295577E-004  0.9118800E+02  0.7818608E-02  0.1130116E+00
         25   -1    0    0    0    0  0.00000000000E+00  0.00000000000E+00  0.99999998245E-14  0.12500000000E+03  0.12500000000E+03 0.  0.
        -13    1    3    3    0    0  0.13474953524E+02  0.23609871339E+02  0.37016529859E+02  0.45926409004E+02  0.10566000000E+00 0.  1.
         23    2    1    0    0    0 -0.25437914312E+02  0.24775768858E+01  0.14758298949E+02  0.95486727398E+02  0.90811242969E+02 0.  0.
         13    1    3    3    0    0 -0.38912867836E+02 -0.21132294453E+02 -0.22258230910E+02  0.49560318395E+02  0.10566000000E+00 0. -1.
         22    1    1    0    0    0  0.25437914312E+02 -0.24775768858E+01 -0.14758298949E+02  0.29513272602E+02  0.00000000000E+00 0. -1.
</event>
<event>
 5    1  0.2295577E-004  0.9118800E+02  0.7818608E-02  0.1130116E+00
         25   -1    0    0    0    0  0.00000000000E+00  0.00000000000E+00  0.99999998245E-14  0.12500000000E+03  0.12500000000E+03 0.  0.
        -13    1    3    3    0    0  0.36336271260E+02  0.14524651135E+02 -0.14085296197E+01  0.39157186051E+02  0.10566000000E+00 0.  1.
         23    2    1    0    0    0 -0.15230231433E+02  0.28370523999E+02 -0.36264228403E+01  0.92596334712E+02  0.86741476112E+02 0.  0.
         13    1    3    3    0    0 -0.51566502693E+02  0.13845872863E+02 -0.22178932206E+01  0.53439148662E+02  0.10566000000E+00 0. -1.
         22    1    1    0    0    0  0.15230231433E+02 -0.28370523999E+02  0.36264228403E+01  0.32403665288E+02  0.00000000000E+00 0. -1.
</event>
<event>
 5    1  0.2295577E-004  0.9118800E+02  0.7818608E-02  0.1130116E+00
         25   -1    0    0    0    0  0.00000000000E+00  0.00000000000E+00  0.99999998245E-14  0.12500000000E+03  0.12500000000E+03 0.  0.
        -13    1    3    3    0    0  0.13992424236E+02 -0.85722768111E+01 -0.41170109244E+02  0.44319983359E+02  0.10566000000E+00 0.  1.
         23    2    1    0    0    0 -0.10048342494E+02  0.24884002344E+02 -0.24156264756E+02  0.88893104724E+02  0.81229773981E+02 0.  0.
         13    1    3    3    0    0 -0.24040766730E+02  0.33456279155E+02  0.17013844489E+02  0.44573121365E+02  0.10566000000E+00 0. -1.
         22    1    1    0    0    0  0.10048342494E+02 -0.24884002344E+02  0.24156264756E+02  0.36106895276E+02  0.00000000000E+00 0.  1.
</event>
<event>
 5    1  0.2295577E-004  0.9118800E+02  0.7818608E-02  0.1130116E+00
         25   -1    0    0    0    0  0.00000000000E+00  0.00000000000E+00  0.99999998245E-14  0.12500000000E+03  0.12500000000E+03 0.  0.
        -13    1    3    3    0    0  0.35982499978E+02  0.70133617353E+00  0.38980320632E+02  0.53053828681E+02  0.10566000000E+00 0. -1.
         23    2    1    0    0    0  0.40048067255E+01 -0.17730897137E+02  0.28098644889E+02  0.91534240860E+02  0.85197184314E+02 0.  0.
         13    1    3    3    0    0 -0.31977693252E+02 -0.18432233310E+02 -0.10881675743E+02  0.38480412180E+02  0.10566000000E+00 0.  1.
         22    1    1    0    0    0 -0.40048067255E+01  0.17730897137E+02 -0.28098644889E+02  0.33465759140E+02  0.00000000000E+00 0. -1.
</event>
<event>
 5    1  0.2295577E-004  0.9118800E+02  0.7818608E-02  0.1130116E+00
         25   -1    0    0    0    0  0.00000000000E+00  0.00000000000E+00  0.99999998245E-14  0.12500000000E+03  0.12500000000E+03 0.  0.
        -13    1    3    3    0    0  0.46435159298E+02  0.24884873554E+02  0.12913517588E+02  0.54242520695E+02  0.10566000000E+00 0.  1.
         23    2    1    0    0    0  0.52972801042E+01  0.27781284077E+02  0.65385347099E+01  0.95972196817E+02  0.91477041952E+02 0.  0.
         13    1    3    3    0    0 -0.41137879194E+02  0.28964105234E+01 -0.63749828783E+01  0.41729676122E+02  0.10566000000E+00 0. -1.
         22    1    1    0    0    0 -0.52972801042E+01 -0.27781284077E+02 -0.65385347099E+01  0.29027803183E+02  0.00000000000E+00 0.  1.
</event>
<event>
 5    1  0.2295577E-004  0.9118800E+02  0.7818608E-02  0.1130116E+00
         25   -1    0    0    0    0  0.00000000000E+00  0.00000000000E+00  0.99999998245E-14  0.12500000000E+03  0.12500000000E+03 0.  0.
        -13    1    3    3    0    0 -0.44326868785E+01 -0.34205451973E+02 -0.46462022881E+02  0.57865295229E+02  0.10566000000E+00 0.  1.
         23    2    1    0    0    0 -0.17504667980E+02 -0.18453335880E+02 -0.14786978479E+02  0.95579025530E+02  0.90938200898E+02 0.  0.
         13    1    3    3    0    0 -0.13071981102E+02  0.15752116092E+02  0.31675044403E+02  0.37713730302E+02  0.10566000000E+00 0. -1.
         22    1    1    0    0    0  0.17504667980E+02  0.18453335880E+02  0.14786978479E+02  0.29420974470E+02  0.00000000000E+00 0.  1.
</event>
<event>
 5    1  0.2295577E-004  0.9118800E+02  0.7818608E-02  0.1130116E+00
         25   -1    0    0    0    0  0.00000000000E+00  0.00000000000E+00  0.99999998245E-14  0.12500000000E+03  0.12500000000E+03 0.  0.
        -13    1    3    3    0    0  0.10121415823E+02  0.51203753472E+02  0.23769891410E+02  0.57352300124E+02  0.10566000000E+00 0.  1.
         23    2    1    0    0    0  0.19022652057E+02  0.21626123691E+02  0.21456773824E+00  0.96197282133E+02  0.91784097388E+02 0.  0.
         13    1    3    3    0    0  0.89012362341E+01 -0.29577629781E+02 -0.23555323671E+02  0.38844982008E+02  0.10566000000E+00 0. -1.
         22    1    1    0    0    0 -0.19022652057E+02 -0.21626123691E+02 -0.21456773824E+00  0.28802717867E+02  0.00000000000E+00 0.  1.
</event>
<event>
 5    1  0.2295577E-004  0.9118800E+02  0.7818608E-02  0.1130116E+00
         25   -1    0    0    0    0  0.00000000000E+00  0.00000000000E+00  0.99999998245E-14  0.12500000000E+03  0.12500000000E+03 0.  0.
        -13    1    3    3    0    0 -0.21956768606E+02  0.27940658470E+02  0.11332864383E+02  0.37299129514E+02  0.10566000000E+00 0.  1.
         23    2    1    0    0    0 -0.40772387884E+01 -0.14176239635E+02 -0.25166672760E+02  0.95828934470E+02  0.91281069327E+02 0.  0.
         13    1    3    3    0    0  0.17879529818E+02 -0.42116898105E+02 -0.36499537143E+02  0.58529804956E+02  0.10566000000E+00 0. -1.
         22    1    1    0    0    0  0.40772387884E+01  0.14176239635E+02  0.25166672760E+02  0.29171065530E+02  0.00000000000E+00 0. -1.
</event>
<event>
 5    1  0.2295577E-004  0.9118800E+02  0.7818608E-02  0.1130116E+00
         25   -1    0    0    0    0  0.00000000000E+00  0.00000000000E+00  0.99999998245E-14  0.12500000000E+03  0.12500000000E+03 0.  0.
        -13    1    3    3    0    0 -0.28069149140E+02  0.12601365274E+02  0.26828397181E+02  0.40822121448E+02  0.10566000000E+00 0.  1.
         23    2    1    0    0    0 -0.12811863099E+02 -0.78705457839E+01 -0.23410432922E+02  0.97176669923E+02  0.93108364182E+02 0.  0.
         13    1    3    3    0    0  0.15257286041E+02 -0.20471911058E+02 -0.50238830102E+02  0.56354548475E+02  0.10566000000E+00 0. -1.
         22    1    1    0    0    0  0.12811863099E+02  0.78705457839E+01  0.23410432922E+02  0.27823330077E+02  0.00000000000E+00 0. -1.
</event>
<event>
 5    1  0.2295577E-004  0.9118800E+02  0.7818608E-02  0.1130116E+00
         25   -1    0    0    0    0  0.00000000000E+00  0.00000000000E+00  0.99999998245E-14  0.12500000000E+03  0.12500000000E+03 0.  0.
        -13    1    3    3    0    0 -0.25388615701E+02 -0.33894397681E+02  0.11610294180E+02  0.43911525780E+02  0.10566000000E+00 0.  1.
         23    2    1    0    0    0 -0.21161118803E+02  0.71454592858E+01 -0.19314429873E+02  0.95472085432E+02  0.90791086336E+02 0.  0.
         13    1    3    3    0    0  0.42274968987E+01  0.41039856966E+02 -0.30924724053E+02  0.51560559652E+02  0.10566000000E+00 0. -1.
         22    1    1    0    0    0  0.21161118803E+02 -0.71454592858E+01  0.19314429873E+02  0.29527914568E+02  0.00000000000E+00 0. -1.
</event>
<event>
 5    1  0.2295577E-004  0.9118800E+02  0.7818608E-02  0.1130116E+00
         25   -1    0    0    0    0  0.00000000000E+00  0.00000000000E+00  0.99999998245E-14  0.12500000000E+03  0.12500000000E+03 0.  0.
        -13    1    3    3    0    0  0.26097094087E+02 -0.25275020515E+01 -0.56315409341E+02  0.62119908883E+02  0.10566000000E+00 0. -1.
         23    2    1    0    0    0  0.12022248560E+02  0.36781177077E+01 -0.24208285543E+02  0.97721728441E+02  0.93837263975E+02 0.  0.
         13    1    3    3    0    0 -0.14074845527E+02  0.62056197592E+01  0.32107123798E+02  0.35601819558E+02  0.10566000000E+00 0.  1.
         22    1    1    0    0    0 -0.12022248560E+02 -0.36781177077E+01  0.24208285543E+02  0.27278271559E+02  0.00000000000E+00 0. -1.
</event>
<event>
 5    1  0.2295577E-004  0.9118800E+02  0.7818608E-02  0.1130116E+00
         25   -1    0    0    0    0  0.00000000000E+00  0.00000000000E+00  0.99999998245E-14  0.12500000000E+03  0.12500000000E+03 0.  0.
        -13    1    3    3    0    0 -0.30010263282E+02 -0.98113024302E+01  0.27096391822E+02  0.41606527991E+02  0.10566000000E+00 0.  1.
         23    2    1    0    0    0  0.22429140006E+02  0.74758077079E+01  0.74887873766E+01  0.10020008148E+03  0.97082544104E+02 0.  0.
         13    1    3    3    0    0  0.52439403288E+02  0.17287110138E+02 -0.19607604446E+02  0.58593553488E+02  0.10566000000E+00 0. -1.
         22    1    1    0    0    0 -0.22429140006E+02 -0.74758077079E+01 -0.74887873766E+01  0.24799918522E+02  0.00000000000E+00 0. -1.
</event>
<event>
 5    1  0.2295577E-004  0.9118800E+02  0.7818608E-02  0.1130116E+00
         25   -1    0    0    0    0  0.00000000000E+00  0.00000000000E+00  0.99999998245E-14  0.12500000000E+03  0.12500000000E+03 0.  0.
        -13    1    3    3    0    0 -0.38551849317E+02  0.12761578024E+01 -0.46565939802E+02  0.60467111541E+02  0.10566000000E+00 0. -1.
         23    2    1    0    0    0 -0.13664678654E+02  0.61632019209E+01 -0.31871899531E+02  0.89778891551E+02  0.82581613497E+02 0.  0.
         13    1    3    3    0    0  0.24887170663E+02  0.48870441186E+01  0.14694040271E+02  0.29311780010E+02  0.10566000000E+00 0.  1.
         22    1    1    0    0    0  0.13664678654E+02 -0.61632019209E+01  0.31871899531E+02  0.35221108449E+02  0.00000000000E+00 0. -1.
</event>
<event>
 5    1  0.2295577E-004  0.9118800E+02  0.7818608E-02  0.1130116E+00
         25   -1    0    0    0    0  0.00000000000E+00  0.00000000000E+00  0.99999998245E-14  0.12500000000E+03  0.12500000000E+03 0.  0.
        -13    1    3    3    0    0  0.85382879101E+01  0.21716479291E+02  0.14611495562E+02  0.27532068572E+02  0.10566000000E+00 0.  1.
         23    2    1    0    0    0 -0.12365656384E+02 -0.25025399897E+02 -0.21142432131E+02  0.89983110729E+02  0.82890154315E+02 0.  0.
         13    1    3    3    0    0 -0.20903944294E+02 -0.46741879188E+02 -0.35753927693E+02  0.62451042158E+02  0.10566000000E+00 0. -1.
         22    1    1    0    0    0  0.12365656384E+02  0.25025399897E+02  0.21142432131E+02  0.35016889271E+02  0.00000000000E+00 0. -1.
</event>
