<event>
 5    1  0.8778488E-005  0.9118800E+02  0.7818608E-02  0.1130116E+00
         25   -1    0    0    0    0  0.00000000000E+00  0.00000000000E+00  0.99999998245E-14  0.12500000000E+03  0.12500000000E+03 0.  0.
        -11    1    3    3    0    0  0.26475666469E+02  0.16713678055E+02  0.46659909136E+02  0.56191236594E+02  0.51100000000E-03 0.  1.
         23    2    1    0    0    0 -0.62127101665E+01  0.13784618737E+02  0.25852272689E+02  0.95050818300E+02  0.90209226662E+02 0.  0.
         11    1    3    3    0    0 -0.32688376636E+02 -0.29290593174E+01 -0.20807636447E+02  0.38859581706E+02  0.51100000000E-03 0. -1.
         22    1    1    0    0    0  0.62127101665E+01 -0.13784618737E+02 -0.25852272689E+02  0.29949181700E+02  0.00000000000E+00 0.  1.
</event>
<event>
 5    1  0.8778488E-005  0.9118800E+02  0.7818608E-02  0.1130116E+00
         25   -1    0    0    0    0  0.00000000000E+00  0.00000000000E+00  0.99999998245E-14  0.12500000000E+03  0.12500000000E+03 0.  0.
        -11    1    3    3    0    0 -0.69055500950E+00  0.54846793182E+02 -0.46388520840E+01  0.55046948485E+02  0.51100000000E-03 0. -1.
         23    2    1    0    0    0  0.19545437396E+02  0.26691853279E+02 -0.10667289812E+02  0.90239818378E+02  0.83276374768E+02 0.  0.
         11    1    3    3    0    0  0.20235992406E+02 -0.28154939903E+02 -0.60284377281E+01  0.35192869893E+02  0.51100000000E-03 0.  1.
         22    1    1    0    0    0 -0.19545437396E+02 -0.26691853279E+02  0.10667289812E+02  0.34760181622E+02  0.00000000000E+00 0. -1.
</event>
<event>
 5    1  0.8778488E-005  0.9118800E+02  0.7818608E-02  0.1130116E+00
         25   -1    0    0    0    0  0.00000000000E+00  0.00000000000E+00  0.99999998245E-14  0.12500000000E+03  0.12500000000E+03 0.  0.
        -11    1    3    3    0    0  0.20720006267E+02  0.10020243849E+02  0.32322417990E+02  0.39679499134E+02  0.51100000000E-03 0.  1.
         23    2    1    0    0    0 -0.28672239089E+02  0.79056227605E+00  0.10604570354E+02  0.94419300279E+02  0.89329866616E+02 0.  0.
         11    1    3    3    0    0 -0.49392245355E+02 -0.92296815733E+01 -0.21717847637E+02  0.54739801145E+02  0.51100000000E-03 0. -1.
         22    1    1    0    0    0  0.28672239089E+02 -0.79056227605E+00 -0.10604570354E+02  0.30580699721E+02  0.00000000000E+00 0. -1.
</event>
<event>
 5    1  0.8778488E-005  0.9118800E+02  0.7818608E-02  0.1130116E+00
         25   -1    0    0    0    0  0.00000000000E+00  0.00000000000E+00  0.99999998245E-14  0.12500000000E+03  0.12500000000E+03 0.  0.
        -11    1    3    3    0    0 -0.43721974725E+01  0.90753058327E+01 -0.33808523134E+02  0.35277379771E+02  0.51100000000E-03 0.  1.
         23    2    1    0    0    0 -0.81346582716E+01  0.11225378563E+02  0.26155493065E+02  0.95397777000E+02  0.90688721735E+02 0.  0.
         11    1    3    3    0    0 -0.37624607991E+01  0.21500727306E+01  0.59964016199E+02  0.60120397229E+02  0.51100000000E-03 0. -1.
         22    1    1    0    0    0  0.81346582716E+01 -0.11225378563E+02 -0.26155493065E+02  0.29602223000E+02  0.00000000000E+00 0. -1.
</event>
<event>
 5    1  0.8778488E-005  0.9118800E+02  0.7818608E-02  0.1130116E+00
         25   -1    0    0    0    0  0.00000000000E+00  0.00000000000E+00  0.99999998245E-14  0.12500000000E+03  0.12500000000E+03 0.  0.
        -11    1    3    3    0    0  0.36527734208E+02  0.18885399871E+02 -0.11105056554E+02  0.42594083815E+02  0.51100000000E-03 0.  1.
         23    2    1    0    0    0  0.89472839805E+01 -0.13631252702E+02  0.22730389003E+02  0.97026163562E+02  0.92906086402E+02 0.  0.
         11    1    3    3    0    0 -0.27580450228E+02 -0.32516652573E+02  0.33835445556E+02  0.54432079747E+02  0.51100000000E-03 0. -1.
         22    1    1    0    0    0 -0.89472839805E+01  0.13631252702E+02 -0.22730389003E+02  0.27973836438E+02  0.00000000000E+00 0. -1.
</event>
<event>
 5    1  0.8778488E-005  0.9118800E+02  0.7818608E-02  0.1130116E+00
         25   -1    0    0    0    0  0.00000000000E+00  0.00000000000E+00  0.99999998245E-14  0.12500000000E+03  0.12500000000E+03 0.  0.
        -11    1    3    3    0    0 -0.25067610260E+02  0.50623462471E+02  0.20183098565E+02  0.59987311196E+02  0.51100000000E-03 0. -1.
         23    2    1    0    0    0  0.47009153946E+00  0.26557734819E+02  0.10930310566E+02  0.96277083124E+02  0.91892713428E+02 0.  0.
         11    1    3    3    0    0  0.25537701799E+02 -0.24065727652E+02 -0.92527879988E+01  0.36289771928E+02  0.51100000000E-03 0.  1.
         22    1    1    0    0    0 -0.47009153946E+00 -0.26557734819E+02 -0.10930310566E+02  0.28722916876E+02  0.00000000000E+00 0. -1.
</event>
<event>
 5    1  0.8778488E-005  0.9118800E+02  0.7818608E-02  0.1130116E+00
         25   -1    0    0    0    0  0.00000000000E+00  0.00000000000E+00  0.99999998245E-14  0.12500000000E+03  0.12500000000E+03 0.  0.
        -11    1    3    3    0    0 -0.33486443605E+02 -0.62117899856E+00 -0.76273812140E+01  0.34349741092E+02  0.51100000000E-03 0. -1.
         23    2    1    0    0    0  0.26318753000E+02  0.10184397420E+02  0.47817260817E+01  0.96377218608E+02  0.92028825114E+02 0.  0.
         11    1    3    3    0    0  0.59805196606E+02  0.10805576419E+02  0.12409107296E+02  0.62027477515E+02  0.51100000000E-03 0.  1.
         22    1    1    0    0    0 -0.26318753000E+02 -0.10184397420E+02 -0.47817260817E+01  0.28622781392E+02  0.00000000000E+00 0.  1.
</event>
<event>
 5    1  0.8778488E-005  0.9118800E+02  0.7818608E-02  0.1130116E+00
         25   -1    0    0    0    0  0.00000000000E+00  0.00000000000E+00  0.99999998245E-14  0.12500000000E+03  0.12500000000E+03 0.  0.
        -11    1    3    3    0    0  0.11491942731E+02  0.34646833171E+02  0.15633172113E+02  0.39709745241E+02  0.51100000000E-03 0.  1.
         23    2    1    0    0    0 -0.23274331684E+02 -0.10194275523E+02  0.12871381652E+02  0.96516842970E+02  0.92218277703E+02 0.  0.
         11    1    3    3    0    0 -0.34766274415E+02 -0.44841108694E+02 -0.27617904613E+01  0.56807097729E+02  0.51100000000E-03 0. -1.
         22    1    1    0    0    0  0.23274331684E+02  0.10194275523E+02 -0.12871381652E+02  0.28483157030E+02  0.00000000000E+00 0. -1.
</event>
<event>
 5    1  0.8778488E-005  0.9118800E+02  0.7818608E-02  0.1130116E+00
         25   -1    0    0    0    0  0.00000000000E+00  0.00000000000E+00  0.99999998245E-14  0.12500000000E+03  0.12500000000E+03 0.  0.
        -11    1    3    3    0    0 -0.24331738693E+02 -0.29458990167E+02 -0.40873876442E+02  0.55951223268E+02  0.51100000000E-03 0.  1.
         23    2    1    0    0    0 -0.22776592550E+02  0.29802166065E+01 -0.14048715547E+02  0.98073781036E+02  0.94305064864E+02 0.  0.
         11    1    3    3    0    0  0.15551461432E+01  0.32439206774E+02  0.26825160895E+02  0.42122557768E+02  0.51100000000E-03 0. -1.
         22    1    1    0    0    0  0.22776592550E+02 -0.29802166065E+01  0.14048715547E+02  0.26926218964E+02  0.00000000000E+00 0.  1.
</event>
<event>
 5    1  0.8778488E-005  0.9118800E+02  0.7818608E-02  0.1130116E+00
         25   -1    0    0    0    0  0.00000000000E+00  0.00000000000E+00  0.99999998245E-14  0.12500000000E+03  0.12500000000E+03 0.  0.
        -11    1    3    3    0    0 -0.12950937142E+02  0.72265887083E+01 -0.30784919500E+02  0.34171064164E+02  0.51100000000E-03 0.  1.
         23    2    1    0    0    0  0.24069221463E+02 -0.11375436910E+02  0.13782804982E+02  0.95021779574E+02  0.90168979664E+02 0.  0.
         11    1    3    3    0    0  0.37020158605E+02 -0.18602025619E+02  0.44567724481E+02  0.60850715411E+02  0.51100000000E-03 0. -1.
         22    1    1    0    0    0 -0.24069221463E+02  0.11375436910E+02 -0.13782804982E+02  0.29978220426E+02  0.00000000000E+00 0. -1.
</event>
<event>
 5    1  0.8778488E-005  0.9118800E+02  0.7818608E-02  0.1130116E+00
         25   -1    0    0    0    0  0.00000000000E+00  0.00000000000E+00  0.99999998245E-14  0.12500000000E+03  0.12500000000E+03 0.  0.
        -11    1    3    3    0    0 -0.76241880053E+01 -0.12113747804E+02  0.33962157929E+02  0.36855112265E+02  0.51100000000E-03 0.  1.
         23    2    1    0    0    0 -0.46155538825E+01 -0.13339943887E+02 -0.25205014434E+02  0.96111417599E+02  0.91667084603E+02 0.  0.
         11    1    3    3    0    0  0.30086341229E+01 -0.12261960837E+01 -0.59167172363E+02  0.59256305334E+02  0.51100000000E-03 0. -1.
         22    1    1    0    0    0  0.46155538825E+01  0.13339943887E+02  0.25205014434E+02  0.28888582401E+02  0.00000000000E+00 0. -1.
</event>
<event>
 5    1  0.8778488E-005  0.9118800E+02  0.7818608E-02  0.1130116E+00
         25   -1    0    0    0    0  0.00000000000E+00  0.00000000000E+00  0.99999998245E-14  0.12500000000E+03  0.12500000000E+03 0.  0.
        -11    1    3    3    0    0  0.44654636313E+02 -0.23325374312E+01  0.28070338550E+02  0.52796033769E+02  0.51100000000E-03 0.  1.
         23    2    1    0    0    0  0.21803142370E+02  0.21429751337E+02  0.28652904209E+01  0.94294607171E+02  0.89155211809E+02 0.  0.
         11    1    3    3    0    0 -0.22851493943E+02  0.23762288769E+02 -0.25205048129E+02  0.41498573402E+02  0.51100000000E-03 0. -1.
         22    1    1    0    0    0 -0.21803142370E+02 -0.21429751337E+02 -0.28652904209E+01  0.30705392829E+02  0.00000000000E+00 0. -1.
</event>
<event>
 5    1  0.8778488E-005  0.9118800E+02  0.7818608E-02  0.1130116E+00
         25   -1    0    0    0    0  0.00000000000E+00  0.00000000000E+00  0.99999998245E-14  0.12500000000E+03  0.12500000000E+03 0.  0.
        -11    1    3    3    0    0  0.29528924782E+02 -0.23485533766E+02  0.17357378822E+02  0.41530787314E+02  0.51100000000E-03 0. -1.
         23    2    1    0    0    0  0.32857253565E+01  0.24858912165E+02  0.13114941447E+02  0.96702240472E+02  0.92469238766E+02 0.  0.
         11    1    3    3    0    0 -0.26243199426E+02  0.48344445931E+02 -0.42424373755E+01  0.55171453158E+02  0.51100000000E-03 0.  1.
         22    1    1    0    0    0 -0.32857253565E+01 -0.24858912165E+02 -0.13114941447E+02  0.28297759528E+02  0.00000000000E+00 0.  1.
</event>
<event>
 5    1  0.8778488E-005  0.9118800E+02  0.7818608E-02  0.1130116E+00
         25   -1    0    0    0    0  0.00000000000E+00  0.00000000000E+00  0.99999998245E-14  0.12500000000E+03  0.12500000000E+03 0.  0.
        -11    1    3    3    0    0 -0.18988909861E+01 -0.10709921148E+02  0.47675311059E+02  0.48900342359E+02  0.51100000000E-03 0.  1.
         23    2    1    0    0    0 -0.24486860076E+02  0.10205642881E+02  0.12408712310E+02  0.95712842334E+02  0.91121954453E+02 0.  0.
         11    1    3    3    0    0 -0.22587969090E+02  0.20915564030E+02 -0.35266598749E+02  0.46812499974E+02  0.51100000000E-03 0. -1.
         22    1    1    0    0    0  0.24486860076E+02 -0.10205642881E+02 -0.12408712310E+02  0.29287157666E+02  0.00000000000E+00 0. -1.
</event>
<event>
 5    1  0.8778488E-005  0.9118800E+02  0.7818608E-02  0.1130116E+00
         25   -1    0    0    0    0  0.00000000000E+00  0.00000000000E+00  0.99999998245E-14  0.12500000000E+03  0.12500000000E+03 0.  0.
        -11    1    3    3    0    0  0.14483357069E+02  0.12967591010E+02  0.27116943297E+02  0.33365471114E+02  0.51100000000E-03 0. -1.
         23    2    1    0    0    0 -0.19241599981E+02 -0.10977044876E+02 -0.19358892414E+02  0.95580594847E+02  0.90940357992E+02 0.  0.
         11    1    3    3    0    0 -0.33724957050E+02 -0.23944635887E+02 -0.46475835711E+02  0.62215123733E+02  0.51100000000E-03 0.  1.
         22    1    1    0    0    0  0.19241599981E+02  0.10977044876E+02  0.19358892414E+02  0.29419405153E+02  0.00000000000E+00 0.  1.
</event>
<event>
 5    1  0.8778488E-005  0.9118800E+02  0.7818608E-02  0.1130116E+00
         25   -1    0    0    0    0  0.00000000000E+00  0.00000000000E+00  0.99999998245E-14  0.12500000000E+03  0.12500000000E+03 0.  0.
        -11    1    3    3    0    0 -0.12902556955E+02 -0.88884545253E+01  0.46845846132E+02  0.49396496839E+02  0.51100000000E-03 0.  1.
         23    2    1    0    0    0 -0.28317825667E+02  0.25489735986E+00  0.32964623465E+01  0.96489810818E+02  0.92181628889E+02 0.  0.
         11    1    3    3    0    0 -0.15415268712E+02  0.91433518851E+01 -0.43549383786E+02  0.47093313979E+02  0.51100000000E-03 0. -1.
         22    1    1    0    0    0  0.28317825667E+02 -0.25489735986E+00 -0.32964623465E+01  0.28510189182E+02  0.00000000000E+00 0. -1.
</event>
<event>
 5    1  0.8778488E-005  0.9118800E+02  0.7818608E-02  0.1130116E+00
         25   -1    0    0    0    0  0.00000000000E+00  0.00000000000E+00  0.99999998245E-14  0.12500000000E+03  0.12500000000E+03 0.  0.
        -11    1    3    3    0    0  0.27042545567E+02 -0.19607224966E+02 -0.72419876116E+00  0.33410582242E+02  0.51100000000E-03 0.  1.
         23    2    1    0    0    0 -0.26346441593E+02  0.12454029887E+02 -0.28222146109E+01  0.95721975129E+02  0.91134481851E+02 0.  0.
         11    1    3    3    0    0 -0.53388987160E+02  0.32061254854E+02 -0.20980158497E+01  0.62311392887E+02  0.51100000000E-03 0. -1.
         22    1    1    0    0    0  0.26346441593E+02 -0.12454029887E+02  0.28222146109E+01  0.29278024871E+02  0.00000000000E+00 0. -1.
</event>
<event>
 5    1  0.8778488E-005  0.9118800E+02  0.7818608E-02  0.1130116E+00
         25   -1    0    0    0    0  0.00000000000E+00  0.00000000000E+00  0.99999998245E-14  0.12500000000E+03  0.12500000000E+03 0.  0.
        -11    1    3    3    0    0  0.23115853133E+02  0.56487560069E+02  0.11844696014E+02  0.62173016113E+02  0.51100000000E-03 0. -1.
         23    2    1    0    0    0  0.69772190380E+01  0.27727623700E+02  0.75329874759E+01  0.95432304759E+02  0.90736300287E+02 0.  0.
         11    1    3    3    0    0 -0.16138634095E+02 -0.28759936369E+02 -0.43117085386E+01  0.33259288646E+02  0.51100000000E-03 0.  1.
         22    1    1    0    0    0 -0.69772190380E+01 -0.27727623700E+02 -0.75329874759E+01  0.29567695241E+02  0.00000000000E+00 0. -1.
</event>
<event>
 5    1  0.8778488E-005  0.9118800E+02  0.7818608E-02  0.1130116E+00
         25   -1    0    0    0    0  0.00000000000E+00  0.00000000000E+00  0.99999998245E-14  0.12500000000E+03  0.12500000000E+03 0.  0.
        -11    1    3    3    0    0  0.12189972816E+02  0.11546852888E+02  0.44880213521E+02  0.47918251375E+02  0.51100000000E-03 0. -1.
         23    2    1    0    0    0  0.25174597370E+02 -0.14745644836E+02  0.85673595976E+01  0.94592861943E+02  0.89572403594E+02 0.  0.
         11    1    3    3    0    0  0.12984624554E+02 -0.26292497724E+02 -0.36312853923E+02  0.46674610568E+02  0.51100000000E-03 0.  1.
         22    1    1    0    0    0 -0.25174597370E+02  0.14745644836E+02 -0.85673595976E+01  0.30407138057E+02  0.00000000000E+00 0. -1.
</event>
<event>
 5    1  0.8778488E-005  0.9118800E+02  0.7818608E-02  0.1130116E+00
         25   -1    0    0    0    0  0.00000000000E+00  0.00000000000E+00  0.99999998245E-14  0.12500000000E+03  0.12500000000E+03 0.  0.
        -11    1    3    3    0    0  0.13874115504E+02  0.36007472686E+02  0.99680147843E+01  0.39854616912E+02  0.51100000000E-03 0.  1.
         23    2    1    0    0    0  0.16113051175E+02 -0.14973012757E+02 -0.16653446658E+02  0.97410893186E+02  0.93422284796E+02 0.  0.
         11    1    3    3    0    0  0.22389356713E+01 -0.50980485443E+02 -0.26621461442E+02  0.57556276274E+02  0.51100000000E-03 0. -1.
         22    1    1    0    0    0 -0.16113051175E+02  0.14973012757E+02  0.16653446658E+02  0.27589106814E+02  0.00000000000E+00 0. -1.
</event>
<event>
 5    1  0.8778488E-005  0.9118800E+02  0.7818608E-02  0.1130116E+00
         25   -1    0    0    0    0  0.00000000000E+00  0.00000000000E+00  0.99999998245E-14  0.12500000000E+03  0.12500000000E+03 0.  0.
        -11    1    3    3    0    0 -0.20921306576E+02 -0.45174451119E+02 -0.25827443737E+02  0.56084658803E+02  0.51100000000E-03 0.  1.
         23    2    1    0    0    0  0.16900645059E+01 -0.28498752645E+02  0.29456316347E+01  0.96299617318E+02  0.91923361174E+02 0.  0.
         11    1    3    3    0    0  0.22611371082E+02  0.16675698474E+02  0.28773075372E+02  0.40214958516E+02  0.51100000000E-03 0. -1.
         22    1    1    0    0    0 -0.16900645059E+01  0.28498752645E+02 -0.29456316347E+01  0.28700382682E+02  0.00000000000E+00 0.  1.
</event>
<event>
 5    1  0.8778488E-005  0.9118800E+02  0.7818608E-02  0.1130116E+00
         25   -1    0    0    0    0  0.00000000000E+00  0.00000000000E+00  0.99999998245E-14  0.12500000000E+03  0.12500000000E+03 0.  0.
        -11    1    3    3    0    0  0.12269585364E+02  0.41739517360E+02 -0.16965277273E+02  0.46696366750E+02  0.51100000000E-03 0. -1.
         23    2    1    0    0    0 -0.79388105751E+01 -0.47205458832E+01 -0.25322397739E+02  0.98045740707E+02  0.94267890487E+02 0.  0.
         11    1    3    3    0    0 -0.20208395939E+02 -0.46460063244E+02 -0.83571204655E+01  0.51349373957E+02  0.51100000000E-03 0.  1.
         22    1    1    0    0    0  0.79388105751E+01  0.47205458832E+01  0.25322397739E+02  0.26954259293E+02  0.00000000000E+00 0.  1.
</event>
<event>
 5    1  0.8778488E-005  0.9118800E+02  0.7818608E-02  0.1130116E+00
         25   -1    0    0    0    0  0.00000000000E+00  0.00000000000E+00  0.99999998245E-14  0.12500000000E+03  0.12500000000E+03 0.  0.
        -11    1    3    3    0    0  0.39947374822E+02  0.16170904361E+01  0.20880188878E+02  0.45104212935E+02  0.51100000000E-03 0.  1.
         23    2    1    0    0    0  0.15677266460E+02 -0.11483312684E+02 -0.21721609555E+02  0.95854306055E+02  0.91315806484E+02 0.  0.
         11    1    3    3    0    0 -0.24270108362E+02 -0.13100403120E+02 -0.42601798433E+02  0.50750093121E+02  0.51100000000E-03 0. -1.
         22    1    1    0    0    0 -0.15677266460E+02  0.11483312684E+02  0.21721609555E+02  0.29145693945E+02  0.00000000000E+00 0. -1.
</event>
<event>
 5    1  0.8778488E-005  0.9118800E+02  0.7818608E-02  0.1130116E+00
         25   -1    0    0    0    0  0.00000000000E+00  0.00000000000E+00  0.99999998245E-14  0.12500000000E+03  0.12500000000E+03 0.  0.
        -11    1    3    3    0    0 -0.92608510733E+01 -0.25844240015E+02  0.36276956979E+02  0.45494018425E+02  0.51100000000E-03 0. -1.
         23    2    1    0    0    0  0.25591778168E+02  0.25486770381E+01  0.11451777064E+02  0.96847237038E+02  0.92665037957E+02 0.  0.
         11    1    3    3    0    0  0.34852629241E+02  0.28392917053E+02 -0.24825179916E+02  0.51353218613E+02  0.51100000000E-03 0.  1.
         22    1    1    0    0    0 -0.25591778168E+02 -0.25486770381E+01 -0.11451777064E+02  0.28152762962E+02  0.00000000000E+00 0.  1.
</event>
<event>
 5    1  0.8778488E-005  0.9118800E+02  0.7818608E-02  0.1130116E+00
         25   -1    0    0    0    0  0.00000000000E+00  0.00000000000E+00  0.99999998245E-14  0.12500000000E+03  0.12500000000E+03 0.  0.
        -11    1    3    3    0    0 -0.32179774525E+02  0.26405178659E+02 -0.46493924563E+02  0.62405579639E+02  0.51100000000E-03 0.  1.
         23    2    1    0    0    0 -0.19400512471E+02  0.13079248064E+02 -0.24488228164E+02  0.91130840981E+02  0.84603251978E+02 0.  0.
         11    1    3    3    0    0  0.12779262054E+02 -0.13325930596E+02  0.22005696399E+02  0.28725261342E+02  0.51100000000E-03 0. -1.
         22    1    1    0    0    0  0.19400512471E+02 -0.13079248064E+02  0.24488228164E+02  0.33869159019E+02  0.00000000000E+00 0.  1.
</event>
<event>
 5    1  0.8778488E-005  0.9118800E+02  0.7818608E-02  0.1130116E+00
         25   -1    0    0    0    0  0.00000000000E+00  0.00000000000E+00  0.99999998245E-14  0.12500000000E+03  0.12500000000E+03 0.  0.
        -11    1    3    3    0    0  0.23015294399E+02  0.44187793376E+02  0.92701992612E+01  0.50677425490E+02  0.51100000000E-03 0. -1.
         23    2    1    0    0    0  0.28576282527E+02 -0.55693116369E+00  0.51930567182E+01  0.95950353988E+02  0.91447189661E+02 0.  0.
         11    1    3    3    0    0  0.55609881279E+01 -0.44744724540E+02 -0.40771425431E+01  0.45272928497E+02  0.51100000000E-03 0.  1.
         22    1    1    0    0    0 -0.28576282527E+02  0.55693116369E+00 -0.51930567182E+01  0.29049646012E+02  0.00000000000E+00 0.  1.
</event>
<event>
 5    1  0.8778488E-005  0.9118800E+02  0.7818608E-02  0.1130116E+00
         25   -1    0    0    0    0  0.00000000000E+00  0.00000000000E+00  0.99999998245E-14  0.12500000000E+03  0.12500000000E+03 0.  0.
        -11    1    3    3    0    0  0.29192550729E+02  0.31575666203E+02  0.60962059614E+01  0.43432608045E+02  0.51100000000E-03 0. -1.
         23    2    1    0    0    0 -0.16060587882E+02 -0.98421522571E+01  0.73222439324E+01  0.10479045522E+03  0.10282321627E+03 0.  0.
         11    1    3    3    0    0 -0.45253138610E+02 -0.41417818460E+02  0.12260379709E+01  0.61357847171E+02  0.51100000000E-03 0.  1.
         22    1    1    0    0    0  0.16060587882E+02  0.98421522571E+01 -0.73222439324E+01  0.20209544784E+02  0.00000000000E+00 0.  1.
</event>
<event>
 5    1  0.8778488E-005  0.9118800E+02  0.7818608E-02  0.1130116E+00
         25   -1    0    0    0    0  0.00000000000E+00  0.00000000000E+00  0.99999998245E-14  0.12500000000E+03  0.12500000000E+03 0.  0.
        -11    1    3    3    0    0  0.96723387457E+01  0.40037091062E+02  0.36813330309E+02  0.55242593044E+02  0.51100000000E-03 0.  1.
         23    2    1    0    0    0  0.15833933681E+02  0.20333889369E+02 -0.19439388768E+01  0.99155089262E+02  0.95727594327E+02 0.  0.
         11    1    3    3    0    0  0.61615949353E+01 -0.19703201693E+02 -0.38757269186E+02  0.43912496218E+02  0.51100000000E-03 0. -1.
         22    1    1    0    0    0 -0.15833933681E+02 -0.20333889369E+02  0.19439388768E+01  0.25844910738E+02  0.00000000000E+00 0.  1.
</event>
<event>
 5    1  0.8778488E-005  0.9118800E+02  0.7818608E-02  0.1130116E+00
         25   -1    0    0    0    0  0.00000000000E+00  0.00000000000E+00  0.99999998245E-14  0.12500000000E+03  0.12500000000E+03 0.  0.
        -11    1    3    3    0    0  0.30297415371E+02  0.45630434335E+02  0.29169337581E+02  0.62055782736E+02  0.51100000000E-03 0. -1.
         23    2    1    0    0    0  0.19106999900E+02  0.19922888060E+02  0.12278617163E+02  0.94788026326E+02  0.89844346408E+02 0.  0.
         11    1    3    3    0    0 -0.11190415471E+02 -0.25707546276E+02 -0.16890720418E+02  0.32732243590E+02  0.51100000000E-03 0.  1.
         22    1    1    0    0    0 -0.19106999900E+02 -0.19922888060E+02 -0.12278617163E+02  0.30211973674E+02  0.00000000000E+00 0. -1.
</event>
<event>
 5    1  0.8778488E-005  0.9118800E+02  0.7818608E-02  0.1130116E+00
         25   -1    0    0    0    0  0.00000000000E+00  0.00000000000E+00  0.99999998245E-14  0.12500000000E+03  0.12500000000E+03 0.  0.
        -11    1    3    3    0    0  0.15830509101E+02  0.25894991633E+02  0.50436958710E+02  0.58864610882E+02  0.51100000000E-03 0.  1.
         23    2    1    0    0    0  0.20375723869E+02  0.84370177996E+01  0.15955824009E+02  0.97779755469E+02  0.93914529585E+02 0.  0.
         11    1    3    3    0    0  0.45452147681E+01 -0.17457973834E+02 -0.34481134702E+02  0.38915144587E+02  0.51100000000E-03 0. -1.
         22    1    1    0    0    0 -0.20375723869E+02 -0.84370177996E+01 -0.15955824009E+02  0.27220244531E+02  0.00000000000E+00 0.  1.
</event>
<event>
 5    1  0.8778488E-005  0.9118800E+02  0.7818608E-02  0.1130116E+00
         25   -1    0    0    0    0  0.00000000000E+00  0.00000000000E+00  0.99999998245E-14  0.12500000000E+03  0.12500000000E+03 0.  0.
        -11    1    3    3    0    0  0.13701845611E+02 -0.50354713543E+02  0.26717411250E+02  0.58627278747E+02  0.51100000000E-03 0.  1.
         23    2    1    0    0    0  0.19842747164E+02 -0.23850870238E+02  0.47126064721E+01  0.93618360689E+02  0.88201985081E+02 0.  0.
         11    1    3    3    0    0  0.61409015534E+01  0.26503843305E+02 -0.22004804778E+02  0.34991081941E+02  0.51100000000E-03 0. -1.
         22    1    1    0    0    0 -0.19842747164E+02  0.23850870238E+02 -0.47126064721E+01  0.31381639311E+02  0.00000000000E+00 0.  1.
</event>
<event>
 5    1  0.8778488E-005  0.9118800E+02  0.7818608E-02  0.1130116E+00
         25   -1    0    0    0    0  0.00000000000E+00  0.00000000000E+00  0.99999998245E-14  0.12500000000E+03  0.12500000000E+03 0.  0.
        -11    1    3    3    0    0  0.46878370647E+01  0.27154370805E+02  0.20844180629E+02  0.34551635801E+02  0.51100000000E-03 0. -1.
         23    2    1    0    0    0 -0.12346003742E+02 -0.25737482914E+02 -0.53079405077E+01  0.95965261021E+02  0.91467563951E+02 0.  0.
         11    1    3    3    0    0 -0.17033840806E+02 -0.52891853719E+02 -0.26152121137E+02  0.61413625220E+02  0.51100000000E-03 0.  1.
         22    1    1    0    0    0  0.12346003742E+02  0.25737482914E+02  0.53079405077E+01  0.29034738979E+02  0.00000000000E+00 0.  1.
</event>
<event>
 5    1  0.8778488E-005  0.9118800E+02  0.7818608E-02  0.1130116E+00
         25   -1    0    0    0    0  0.00000000000E+00  0.00000000000E+00  0.99999998245E-14  0.12500000000E+03  0.12500000000E+03 0.  0.
        -11    1    3    3    0    0 -0.53708765562E+02  0.24689480082E+02  0.48792611016E+01  0.59312807336E+02  0.51100000000E-03 0. -1.
         23    2    1    0    0    0 -0.30684510699E+02 -0.47008113701E+00  0.71400969583E+01  0.93492204811E+02  0.88023015187E+02 0.  0.
         11    1    3    3    0    0  0.23024254863E+02 -0.25159561219E+02  0.22608358567E+01  0.34179397475E+02  0.51100000000E-03 0.  1.
         22    1    1    0    0    0  0.30684510699E+02  0.47008113701E+00 -0.71400969583E+01  0.31507795189E+02  0.00000000000E+00 0. -1.
</event>
<event>
 5    1  0.8778488E-005  0.9118800E+02  0.7818608E-02  0.1130116E+00
         25   -1    0    0    0    0  0.00000000000E+00  0.00000000000E+00  0.99999998245E-14  0.12500000000E+03  0.12500000000E+03 0.  0.
        -11    1    3    3    0    0  0.12487458789E+01  0.33153566016E+02 -0.10185556180E+02  0.34705386625E+02  0.51100000000E-03 0.  1.
         23    2    1    0    0    0  0.18875364827E+02 -0.22565868205E+02  0.51693785141E+01  0.95129943431E+02  0.90318801242E+02 0.  0.
         11    1    3    3    0    0  0.17626618948E+02 -0.55719434221E+02  0.15354934694E+02  0.60424556806E+02  0.51100000000E-03 0. -1.
         22    1    1    0    0    0 -0.18875364827E+02  0.22565868205E+02 -0.51693785141E+01  0.29870056569E+02  0.00000000000E+00 0. -1.
</event>
<event>
 5    1  0.8778488E-005  0.9118800E+02  0.7818608E-02  0.1130116E+00
         25   -1    0    0    0    0  0.00000000000E+00  0.00000000000E+00  0.99999998245E-14  0.12500000000E+03  0.12500000000E+03 0.  0.
        -11    1    3    3    0    0 -0.25313263348E+02  0.35154434282E+01  0.25318952115E+02  0.35974560182E+02  0.51100000000E-03 0.  1.
         23    2    1    0    0    0  0.28676639600E+02  0.68400295738E+01  0.43558608756E+00  0.95515675376E+02  0.90851080587E+02 0.  0.
         11    1    3    3    0    0  0.53989902948E+02  0.33245861456E+01 -0.24883366027E+02  0.59541115194E+02  0.51100000000E-03 0. -1.
         22    1    1    0    0    0 -0.28676639600E+02 -0.68400295738E+01 -0.43558608756E+00  0.29484324624E+02  0.00000000000E+00 0. -1.
</event>
<event>
 5    1  0.8778488E-005  0.9118800E+02  0.7818608E-02  0.1130116E+00
         25   -1    0    0    0    0  0.00000000000E+00  0.00000000000E+00  0.99999998245E-14  0.12500000000E+03  0.12500000000E+03 0.  0.
        -11    1    3    3    0    0 -0.45862659002E+02  0.38518092713E+02  0.59513472949E+01  0.60186755119E+02  0.51100000000E-03 0.  1.
         23    2    1    0    0    0 -0.33823507456E+02  0.18145204159E+02 -0.50548786924E+01  0.86285275551E+02  0.77112378304E+02 0.  0.
         11    1    3    3    0    0  0.12039151546E+02 -0.20372888553E+02 -0.11006225987E+02  0.26098520431E+02  0.51100000000E-03 0. -1.
         22    1    1    0    0    0  0.33823507456E+02 -0.18145204159E+02  0.50548786924E+01  0.38714724449E+02  0.00000000000E+00 0.  1.
</event>
<event>
 5    1  0.8778488E-005  0.9118800E+02  0.7818608E-02  0.1130116E+00
         25   -1    0    0    0    0  0.00000000000E+00  0.00000000000E+00  0.99999998245E-14  0.12500000000E+03  0.12500000000E+03 0.  0.
        -11    1    3    3    0    0  0.27984555234E+02  0.44118619512E+02  0.31090733324E+02  0.60796559263E+02  0.51100000000E-03 0.  1.
         23    2    1    0    0    0  0.19147351315E+02  0.21762723463E+02  0.62845409656E+01  0.95339712576E+02  0.90608653804E+02 0.  0.
         11    1    3    3    0    0 -0.88372039191E+01 -0.22355896050E+02 -0.24806192358E+02  0.34543153314E+02  0.51100000000E-03 0. -1.
         22    1    1    0    0    0 -0.19147351315E+02 -0.21762723463E+02 -0.62845409656E+01  0.29660287424E+02  0.00000000000E+00 0.  1.
</event>
<event>
 5    1  0.8778488E-005  0.9118800E+02  0.7818608E-02  0.1130116E+00
         25   -1    0    0    0    0  0.00000000000E+00  0.00000000000E+00  0.99999998245E-14  0.12500000000E+03  0.12500000000E+03 0.  0.
        -11    1    3    3    0    0  0.47569965415E+02  0.12819476915E+02  0.37764660514E+02  0.62075842177E+02  0.51100000000E-03 0. -1.
         23    2    1    0    0    0  0.25420229331E+02  0.52661696462E+01  0.13685860083E+02  0.95653392561E+02  0.91040365444E+02 0.  0.
         11    1    3    3    0    0 -0.22149736084E+02 -0.75533072689E+01 -0.24078800432E+02  0.33577550384E+02  0.51100000000E-03 0.  1.
         22    1    1    0    0    0 -0.25420229331E+02 -0.52661696462E+01 -0.13685860083E+02  0.29346607439E+02  0.00000000000E+00 0. -1.
</event>
<event>
 5    1  0.8778488E-005  0.9118800E+02  0.7818608E-02  0.1130116E+00
         25   -1    0    0    0    0  0.00000000000E+00  0.00000000000E+00  0.99999998245E-14  0.12500000000E+03  0.12500000000E+03 0.  0.
        -11    1    3    3    0    0  0.17321321741E+02  0.57587588403E+02  0.79647380366E+01  0.60661318624E+02  0.51100000000E-03 0.  1.
         23    2    1    0    0    0  0.14141335504E+02  0.26816229334E+02 -0.51276247677E+01  0.94252966627E+02  0.89096810586E+02 0.  0.
         11    1    3    3    0    0 -0.31799862374E+01 -0.30771359070E+02 -0.13092362804E+02  0.33591648003E+02  0.51100000000E-03 0. -1.
         22    1    1    0    0    0 -0.14141335504E+02 -0.26816229334E+02  0.51276247677E+01  0.30747033373E+02  0.00000000000E+00 0.  1.
</event>
<event>
 5    1  0.8778488E-005  0.9118800E+02  0.7818608E-02  0.1130116E+00
         25   -1    0    0    0    0  0.00000000000E+00  0.00000000000E+00  0.99999998245E-14  0.12500000000E+03  0.12500000000E+03 0.  0.
        -11    1    3    3    0    0  0.26650355125E+02 -0.49861356305E+01  0.20100980002E+02  0.33751331442E+02  0.51100000000E-03 0. -1.
         23    2    1    0    0    0 -0.55842389711E+01  0.20706242349E+02 -0.23111275943E+02  0.93471231030E+02  0.87993225634E+02 0.  0.
         11    1    3    3    0    0 -0.32234594096E+02  0.25692377979E+02 -0.43212255944E+02  0.59719899588E+02  0.51100000000E-03 0.  1.
         22    1    1    0    0    0  0.55842389711E+01 -0.20706242349E+02  0.23111275943E+02  0.31528768970E+02  0.00000000000E+00 0.  1.
</event>
<event>
 5    1  0.8778488E-005  0.9118800E+02  0.7818608E-02  0.1130116E+00
         25   -1    0    0    0    0  0.00000000000E+00  0.00000000000E+00  0.99999998245E-14  0.12500000000E+03  0.12500000000E+03 0.  0.
        -11    1    3    3    0    0 -0.43616267055E+02 -0.37666025148E+02 -0.23861633768E+02  0.62373758654E+02  0.51100000000E-03 0.  1.
         23    2    1    0    0    0 -0.20472335748E+02 -0.15365497280E+02 -0.12936872828E+02  0.96319384313E+02  0.91950236966E+02 0.  0.
         11    1    3    3    0    0  0.23143931307E+02  0.22300527868E+02  0.10924760940E+02  0.33945625659E+02  0.51100000000E-03 0. -1.
         22    1    1    0    0    0  0.20472335748E+02  0.15365497280E+02  0.12936872828E+02  0.28680615687E+02  0.00000000000E+00 0.  1.
</event>
<event>
 5    1  0.8778488E-005  0.9118800E+02  0.7818608E-02  0.1130116E+00
         25   -1    0    0    0    0  0.00000000000E+00  0.00000000000E+00  0.99999998245E-14  0.12500000000E+03  0.12500000000E+03 0.  0.
        -11    1    3    3    0    0  0.14613724211E+02  0.12019979720E+02 -0.50993266100E+02  0.54390753218E+02  0.51100000000E-03 0.  1.
         23    2    1    0    0    0  0.71978380515E+01 -0.17201282180E+02 -0.20986224628E+02  0.96926621055E+02  0.92772060793E+02 0.  0.
         11    1    3    3    0    0 -0.74158861595E+01 -0.29221261900E+02  0.30007041472E+02  0.42535867837E+02  0.51100000000E-03 0. -1.
         22    1    1    0    0    0 -0.71978380515E+01  0.17201282180E+02  0.20986224628E+02  0.28073378945E+02  0.00000000000E+00 0. -1.
</event>
<event>
 5    1  0.8778488E-005  0.9118800E+02  0.7818608E-02  0.1130116E+00
         25   -1    0    0    0    0  0.00000000000E+00  0.00000000000E+00  0.99999998245E-14  0.12500000000E+03  0.12500000000E+03 0.  0.
        -11    1    3    3    0    0 -0.35582990612E+02 -0.42940822089E+00 -0.42186474292E+02  0.55190870856E+02  0.51100000000E-03 0.  1.
         23    2    1    0    0    0 -0.17527076388E+02  0.20996237243E+02 -0.24151309319E+02  0.88512657991E+02  0.80642200477E+02 0.  0.
         11    1    3    3    0    0  0.18055914224E+02  0.21425645464E+02  0.18035164973E+02  0.33321787135E+02  0.51100000000E-03 0. -1.
         22    1    1    0    0    0  0.17527076388E+02 -0.20996237243E+02  0.24151309319E+02  0.36487342009E+02  0.00000000000E+00 0.  1.
</event>
<event>
 5    1  0.8778488E-005  0.9118800E+02  0.7818608E-02  0.1130116E+00
         25   -1    0    0    0    0  0.00000000000E+00  0.00000000000E+00  0.99999998245E-14  0.12500000000E+03  0.12500000000E+03 0.  0.
        -11    1    3    3    0    0  0.10643893097E+02  0.39833334260E+02 -0.37191841360E+02  0.55526750693E+02  0.51100000000E-03 0.  1.
         23    2    1    0    0    0  0.22689918834E+02  0.18517925692E+02 -0.61296912371E+01  0.95078116649E+02  0.90247045171E+02 0.  0.
         11    1    3    3    0    0  0.12046025737E+02 -0.21315408568E+02  0.31062150122E+02  0.39551365956E+02  0.51100000000E-03 0. -1.
         22    1    1    0    0    0 -0.22689918834E+02 -0.18517925692E+02  0.61296912371E+01  0.29921883351E+02  0.00000000000E+00 0.  1.
</event>
<event>
 5    1  0.8778488E-005  0.9118800E+02  0.7818608E-02  0.1130116E+00
         25   -1    0    0    0    0  0.00000000000E+00  0.00000000000E+00  0.99999998245E-14  0.12500000000E+03  0.12500000000E+03 0.  0.
        -11    1    3    3    0    0 -0.30080266727E+02  0.11894888342E+02  0.56530756869E+01  0.32836992554E+02  0.51100000000E-03 0. -1.
         23    2    1    0    0    0  0.27306782124E+02 -0.81444223440E+01 -0.85304080793E+01  0.95255087371E+02  0.90491833017E+02 0.  0.
         11    1    3    3    0    0  0.57387048851E+02 -0.20039310686E+02 -0.14183483766E+02  0.62418094817E+02  0.51100000000E-03 0.  1.
         22    1    1    0    0    0 -0.27306782124E+02  0.81444223440E+01  0.85304080793E+01  0.29744912629E+02  0.00000000000E+00 0.  1.
</event>
<event>
 5    1  0.8778488E-005  0.9118800E+02  0.7818608E-02  0.1130116E+00
         25   -1    0    0    0    0  0.00000000000E+00  0.00000000000E+00  0.99999998245E-14  0.12500000000E+03  0.12500000000E+03 0.  0.
        -11    1    3    3    0    0 -0.75939459899E+01 -0.24619596664E+02 -0.50654275872E+02  0.56829994017E+02  0.51100000000E-03 0.  1.
         23    2    1    0    0    0 -0.56355667503E+01 -0.26902559709E+02 -0.13017442958E+02  0.94586826001E+02  0.89563979927E+02 0.  0.
         11    1    3    3    0    0  0.19583792397E+01 -0.22829630450E+01  0.37636832913E+02  0.37756831985E+02  0.51100000000E-03 0. -1.
         22    1    1    0    0    0  0.56355667503E+01  0.26902559709E+02  0.13017442958E+02  0.30413173999E+02  0.00000000000E+00 0.  1.
</event>
<event>
 5    1  0.8778488E-005  0.9118800E+02  0.7818608E-02  0.1130116E+00
         25   -1    0    0    0    0  0.00000000000E+00  0.00000000000E+00  0.99999998245E-14  0.12500000000E+03  0.12500000000E+03 0.  0.
        -11    1    3    3    0    0 -0.34906364946E+02 -0.16396733792E+02  0.13068859969E+02  0.40719802233E+02  0.51100000000E-03 0.  1.
         23    2    1    0    0    0 -0.13106059588E+02  0.29496491276E+02  0.24150194875E+01  0.92632669022E+02  0.86793820376E+02 0.  0.
         11    1    3    3    0    0  0.21800305358E+02  0.45893225069E+02 -0.10653840481E+02  0.51912866788E+02  0.51100000000E-03 0. -1.
         22    1    1    0    0    0  0.13106059588E+02 -0.29496491276E+02 -0.24150194875E+01  0.32367330978E+02  0.00000000000E+00 0. -1.
</event>
<event>
 5    1  0.8778488E-005  0.9118800E+02  0.7818608E-02  0.1130116E+00
         25   -1    0    0    0    0  0.00000000000E+00  0.00000000000E+00  0.99999998245E-14  0.12500000000E+03  0.12500000000E+03 0.  0.
        -11    1    3    3    0    0 -0.43944386819E+01  0.10778871071E+02 -0.45027965506E+02  0.46508201758E+02  0.51100000000E-03 0. -1.
         23    2    1    0    0    0 -0.82468174521E+01  0.28971720562E+02 -0.37901482858E+00  0.94875022944E+02  0.89965302956E+02 0.  0.
         11    1    3    3    0    0 -0.38523787701E+01  0.18192849491E+02  0.44648950677E+02  0.48366821186E+02  0.51100000000E-03 0.  1.
         22    1    1    0    0    0  0.82468174521E+01 -0.28971720562E+02  0.37901482858E+00  0.30124977056E+02  0.00000000000E+00 0. -1.
</event>
<event>
 5    1  0.8778488E-005  0.9118800E+02  0.7818608E-02  0.1130116E+00
         25   -1    0    0    0    0  0.00000000000E+00  0.00000000000E+00  0.99999998245E-14  0.12500000000E+03  0.12500000000E+03 0.  0.
        -11    1    3    3    0    0 -0.37202876804E+02 -0.14827875624E+02  0.21585494828E+02  0.45495642926E+02  0.51100000000E-03 0. -1.
         23    2    1    0    0    0 -0.19017812260E+02  0.24213900412E+02 -0.11335203850E+01  0.94189692881E+02  0.89007995260E+02 0.  0.
         11    1    3    3    0    0  0.18185064544E+02  0.39041776036E+02 -0.22719015213E+02  0.48694049955E+02  0.51100000000E-03 0.  1.
         22    1    1    0    0    0  0.19017812260E+02 -0.24213900412E+02  0.11335203850E+01  0.30810307119E+02  0.00000000000E+00 0.  1.
</event>
<event>
 5    1  0.8778488E-005  0.9118800E+02  0.7818608E-02  0.1130116E+00
         25   -1    0    0    0    0  0.00000000000E+00  0.00000000000E+00  0.99999998245E-14  0.12500000000E+03  0.12500000000E+03 0.  0.
        -11    1    3    3    0    0 -0.68183108887E+01 -0.52970908183E+01  0.31299136116E+02  0.32468206855E+02  0.51100000000E-03 0. -1.
         23    2    1    0    0    0 -0.56597250372E+01  0.83910531340E+01 -0.28985505001E+02  0.94298179853E+02  0.89160220744E+02 0.  0.
         11    1    3    3    0    0  0.11585858515E+01  0.13688143952E+02 -0.60284641117E+02  0.61829972998E+02  0.51100000000E-03 0.  1.
         22    1    1    0    0    0  0.56597250372E+01 -0.83910531340E+01  0.28985505001E+02  0.30701820147E+02  0.00000000000E+00 0.  1.
</event>
<event>
 5    1  0.8778488E-005  0.9118800E+02  0.7818608E-02  0.1130116E+00
         25   -1    0    0    0    0  0.00000000000E+00  0.00000000000E+00  0.99999998245E-14  0.12500000000E+03  0.12500000000E+03 0.  0.
        -11    1    3    3    0    0  0.27238517460E+02 -0.52203460116E+01  0.55819141968E+02  0.62329491063E+02  0.51100000000E-03 0.  1.
         23    2    1    0    0    0  0.11379341300E+02 -0.54356491498E+01  0.25918355434E+02  0.96176453402E+02  0.91755726527E+02 0.  0.
         11    1    3    3    0    0 -0.15859176160E+02 -0.21530313822E+00 -0.29900786535E+02  0.33846962339E+02  0.51100000000E-03 0. -1.
         22    1    1    0    0    0 -0.11379341300E+02  0.54356491498E+01 -0.25918355434E+02  0.28823546598E+02  0.00000000000E+00 0.  1.
</event>
<event>
 5    1  0.8778488E-005  0.9118800E+02  0.7818608E-02  0.1130116E+00
         25   -1    0    0    0    0  0.00000000000E+00  0.00000000000E+00  0.99999998245E-14  0.12500000000E+03  0.12500000000E+03 0.  0.
        -11    1    3    3    0    0  0.10468992755E+02  0.54943707057E+02 -0.25134950093E+02  0.61320277812E+02  0.51100000000E-03 0. -1.
         23    2    1    0    0    0  0.56482726152E+01  0.28262040733E+02 -0.35806952681E+01  0.95957491353E+02  0.91456945270E+02 0.  0.
         11    1    3    3    0    0 -0.48207201403E+01 -0.26681666324E+02  0.21554254825E+02  0.34637213540E+02  0.51100000000E-03 0.  1.
         22    1    1    0    0    0 -0.56482726152E+01 -0.28262040733E+02  0.35806952681E+01  0.29042508647E+02  0.00000000000E+00 0. -1.
</event>
<event>
 5    1  0.8778488E-005  0.9118800E+02  0.7818608E-02  0.1130116E+00
         25   -1    0    0    0    0  0.00000000000E+00  0.00000000000E+00  0.99999998245E-14  0.12500000000E+03  0.12500000000E+03 0.  0.
        -11    1    3    3    0    0  0.44988190139E+02 -0.18135495777E+02  0.38909303588E+02  0.62183336716E+02  0.51100000000E-03 0. -1.
         23    2    1    0    0    0  0.24817630064E+02 -0.89935660569E+01  0.15587672573E+02  0.94344257819E+02  0.89224797309E+02 0.  0.
         11    1    3    3    0    0 -0.20170560075E+02  0.91419297201E+01 -0.23321631015E+02  0.32160921104E+02  0.51100000000E-03 0.  1.
         22    1    1    0    0    0 -0.24817630064E+02  0.89935660569E+01 -0.15587672573E+02  0.30655742181E+02  0.00000000000E+00 0. -1.
</event>
<event>
 5    1  0.8778488E-005  0.9118800E+02  0.7818608E-02  0.1130116E+00
         25   -1    0    0    0    0  0.00000000000E+00  0.00000000000E+00  0.99999998245E-14  0.12500000000E+03  0.12500000000E+03 0.  0.
        -11    1    3    3    0    0 -0.15683482866E+02 -0.51906575518E+02 -0.23404508023E+01  0.54274689562E+02  0.51100000000E-03 0. -1.
         23    2    1    0    0    0 -0.28162585446E+02 -0.35500374324E+02 -0.13503555973E+02  0.77716241477E+02  0.61677065180E+02 0.  0.
         11    1    3    3    0    0 -0.12479102580E+02  0.16406201194E+02 -0.11163105171E+02  0.23441551915E+02  0.51100000000E-03 0.  1.
         22    1    1    0    0    0  0.28162585446E+02  0.35500374324E+02  0.13503555973E+02  0.47283758523E+02  0.00000000000E+00 0. -1.
</event>
<event>
 5    1  0.8778488E-005  0.9118800E+02  0.7818608E-02  0.1130116E+00
         25   -1    0    0    0    0  0.00000000000E+00  0.00000000000E+00  0.99999998245E-14  0.12500000000E+03  0.12500000000E+03 0.  0.
        -11    1    3    3    0    0 -0.60885209680E+00  0.40242929884E+02  0.20940922396E+02  0.45369442773E+02  0.51100000000E-03 0.  1.
         23    2    1    0    0    0 -0.18091788050E+01 -0.14410631519E+02 -0.92125270117E+01  0.10780086971E+03  0.10642000483E+03 0.  0.
         11    1    3    3    0    0 -0.12003267082E+01 -0.54653561403E+02 -0.30153449407E+02  0.62431426939E+02  0.51100000000E-03 0. -1.
         22    1    1    0    0    0  0.18091788050E+01  0.14410631519E+02  0.92125270117E+01  0.17199130288E+02  0.00000000000E+00 0. -1.
</event>
<event>
 5    1  0.8778488E-005  0.9118800E+02  0.7818608E-02  0.1130116E+00
         25   -1    0    0    0    0  0.00000000000E+00  0.00000000000E+00  0.99999998245E-14  0.12500000000E+03  0.12500000000E+03 0.  0.
        -11    1    3    3    0    0 -0.32493505117E+02  0.45443934486E+02 -0.76492222773E+01  0.56386963547E+02  0.51100000000E-03 0.  1.
         23    2    1    0    0    0 -0.18013401715E+02  0.17842152027E+02  0.15563417903E+02  0.95250293999E+02  0.90485211498E+02 0.  0.
         11    1    3    3    0    0  0.14480103402E+02 -0.27601782459E+02  0.23212640181E+02  0.38863330453E+02  0.51100000000E-03 0. -1.
         22    1    1    0    0    0  0.18013401715E+02 -0.17842152027E+02 -0.15563417903E+02  0.29749706001E+02  0.00000000000E+00 0.  1.
</event>
<event>
 5    1  0.8778488E-005  0.9118800E+02  0.7818608E-02  0.1130116E+00
         25   -1    0    0    0    0  0.00000000000E+00  0.00000000000E+00  0.99999998245E-14  0.12500000000E+03  0.12500000000E+03 0.  0.
        -11    1    3    3    0    0 -0.16384535119E+02  0.11190862817E+01  0.55171360585E+02  0.57563741836E+02  0.51100000000E-03 0.  1.
         23    2    1    0    0    0 -0.22400822801E+02 -0.49330356422E+01  0.17610506059E+02  0.96081811494E+02  0.91626703933E+02 0.  0.
         11    1    3    3    0    0 -0.60162876816E+01 -0.60521219239E+01 -0.37560854525E+02  0.38518069658E+02  0.51100000000E-03 0. -1.
         22    1    1    0    0    0  0.22400822801E+02  0.49330356422E+01 -0.17610506059E+02  0.28918188506E+02  0.00000000000E+00 0.  1.
</event>
<event>
 5    1  0.8778488E-005  0.9118800E+02  0.7818608E-02  0.1130116E+00
         25   -1    0    0    0    0  0.00000000000E+00  0.00000000000E+00  0.99999998245E-14  0.12500000000E+03  0.12500000000E+03 0.  0.
        -11    1    3    3    0    0  0.28181068365E+01 -0.34812846962E+02  0.10509635797E+02  0.36473668373E+02  0.51100000000E-03 0.  1.
         23    2    1    0    0    0  0.62804328869E+00  0.86006809105E+01 -0.28711545917E+02  0.95021357278E+02  0.90168394238E+02 0.  0.
         11    1    3    3    0    0 -0.21900635478E+01  0.43413527873E+02 -0.39221181714E+02  0.58547688904E+02  0.51100000000E-03 0. -1.
         22    1    1    0    0    0 -0.62804328869E+00 -0.86006809105E+01  0.28711545917E+02  0.29978642722E+02  0.00000000000E+00 0. -1.
</event>
<event>
 5    1  0.8778488E-005  0.9118800E+02  0.7818608E-02  0.1130116E+00
         25   -1    0    0    0    0  0.00000000000E+00  0.00000000000E+00  0.99999998245E-14  0.12500000000E+03  0.12500000000E+03 0.  0.
        -11    1    3    3    0    0 -0.75908413676E+01 -0.68784887064E+01 -0.35905231866E+02  0.37337918463E+02  0.51100000000E-03 0.  1.
         23    2    1    0    0    0 -0.22424865025E+02  0.26170697670E+02  0.28876225094E+01  0.90415055997E+02  0.83538996878E+02 0.  0.
         11    1    3    3    0    0 -0.14834023657E+02  0.33049186376E+02  0.38792854375E+02  0.53077137534E+02  0.51100000000E-03 0. -1.
         22    1    1    0    0    0  0.22424865025E+02 -0.26170697670E+02 -0.28876225094E+01  0.34584944003E+02  0.00000000000E+00 0.  1.
</event>
<event>
 5    1  0.8778488E-005  0.9118800E+02  0.7818608E-02  0.1130116E+00
         25   -1    0    0    0    0  0.00000000000E+00  0.00000000000E+00  0.99999998245E-14  0.12500000000E+03  0.12500000000E+03 0.  0.
        -11    1    3    3    0    0  0.86827008672E+01 -0.40526296271E+02  0.42991160168E+02  0.59716076869E+02  0.51100000000E-03 0. -1.
         23    2    1    0    0    0  0.83811222746E+01 -0.77106091503E+01  0.25877441794E+02  0.96727421450E+02  0.92503272172E+02 0.  0.
         11    1    3    3    0    0 -0.30157859253E+00  0.32815687121E+02 -0.17113718373E+02  0.37011344581E+02  0.51100000000E-03 0.  1.
         22    1    1    0    0    0 -0.83811222746E+01  0.77106091503E+01 -0.25877441794E+02  0.28272578550E+02  0.00000000000E+00 0. -1.
</event>
<event>
 5    1  0.8778488E-005  0.9118800E+02  0.7818608E-02  0.1130116E+00
         25   -1    0    0    0    0  0.00000000000E+00  0.00000000000E+00  0.99999998245E-14  0.12500000000E+03  0.12500000000E+03 0.  0.
        -11    1    3    3    0    0  0.34465231166E+02  0.14870417871E+02  0.59992236914E+00  0.37541195960E+02  0.51100000000E-03 0. -1.
         23    2    1    0    0    0 -0.22276453007E+02  0.65789300078E+01 -0.15467105170E+02  0.97093835431E+02  0.92997090588E+02 0.  0.
         11    1    3    3    0    0 -0.56741684173E+02 -0.82914878636E+01 -0.16067027539E+02  0.59552639471E+02  0.51100000000E-03 0.  1.
         22    1    1    0    0    0  0.22276453007E+02 -0.65789300078E+01  0.15467105170E+02  0.27906164569E+02  0.00000000000E+00 0.  1.
</event>
<event>
 5    1  0.8778488E-005  0.9118800E+02  0.7818608E-02  0.1130116E+00
         25   -1    0    0    0    0  0.00000000000E+00  0.00000000000E+00  0.99999998245E-14  0.12500000000E+03  0.12500000000E+03 0.  0.
        -11    1    3    3    0    0  0.49031274582E+02  0.67306054954E+01  0.58484717841E+01  0.49835444815E+02  0.51100000000E-03 0. -1.
         23    2    1    0    0    0  0.13079733452E+02  0.10215573691E+02 -0.23399592009E+02  0.96312401996E+02  0.91940744499E+02 0.  0.
         11    1    3    3    0    0 -0.35951541129E+02  0.34849681955E+01 -0.29248063793E+02  0.46476957181E+02  0.51100000000E-03 0.  1.
         22    1    1    0    0    0 -0.13079733452E+02 -0.10215573691E+02  0.23399592009E+02  0.28687598004E+02  0.00000000000E+00 0. -1.
</event>
<event>
 5    1  0.8778488E-005  0.9118800E+02  0.7818608E-02  0.1130116E+00
         25   -1    0    0    0    0  0.00000000000E+00  0.00000000000E+00  0.99999998245E-14  0.12500000000E+03  0.12500000000E+03 0.  0.
        -11    1    3    3    0    0  0.32624161147E+02 -0.37828270504E+02  0.28983862337E+02  0.57752733408E+02  0.51100000000E-03 0. -1.
         23    2    1    0    0    0 -0.26804129822E+00 -0.20806710833E+02  0.20587755439E+02  0.95728055482E+02  0.91142821278E+02 0.  0.
         11    1    3    3    0    0 -0.32892202445E+02  0.17021559671E+02 -0.83961068978E+01  0.37975322074E+02  0.51100000000E-03 0.  1.
         22    1    1    0    0    0  0.26804129822E+00  0.20806710833E+02 -0.20587755439E+02  0.29271944518E+02  0.00000000000E+00 0. -1.
</event>
<event>
 5    1  0.8778488E-005  0.9118800E+02  0.7818608E-02  0.1130116E+00
         25   -1    0    0    0    0  0.00000000000E+00  0.00000000000E+00  0.99999998245E-14  0.12500000000E+03  0.12500000000E+03 0.  0.
        -11    1    3    3    0    0  0.58588256177E+01 -0.28829908168E+01  0.24225325189E+02  0.25089915393E+02  0.51100000000E-03 0.  1.
         23    2    1    0    0    0  0.26148859660E+02  0.40119333656E+01 -0.30952214897E+02  0.84282705420E+02  0.73794826073E+02 0.  0.
         11    1    3    3    0    0  0.20290034042E+02  0.68949241824E+01 -0.55177540087E+02  0.59192790027E+02  0.51100000000E-03 0. -1.
         22    1    1    0    0    0 -0.26148859660E+02 -0.40119333656E+01  0.30952214897E+02  0.40717294580E+02  0.00000000000E+00 0. -1.
</event>
<event>
 5    1  0.8778488E-005  0.9118800E+02  0.7818608E-02  0.1130116E+00
         25   -1    0    0    0    0  0.00000000000E+00  0.00000000000E+00  0.99999998245E-14  0.12500000000E+03  0.12500000000E+03 0.  0.
        -11    1    3    3    0    0  0.46588763389E+01  0.16170503606E+02  0.49842659595E+02  0.52606853464E+02  0.51100000000E-03 0.  1.
         23    2    1    0    0    0 -0.15697585193E+02 -0.10260693567E+02  0.22252228062E+02  0.95899180989E+02  0.91377214048E+02 0.  0.
         11    1    3    3    0    0 -0.20356461532E+02 -0.26431197173E+02 -0.27590431533E+02  0.43292327525E+02  0.51100000000E-03 0. -1.
         22    1    1    0    0    0  0.15697585193E+02  0.10260693567E+02 -0.22252228062E+02  0.29100819011E+02  0.00000000000E+00 0. -1.
</event>
<event>
 5    1  0.8778488E-005  0.9118800E+02  0.7818608E-02  0.1130116E+00
         25   -1    0    0    0    0  0.00000000000E+00  0.00000000000E+00  0.99999998245E-14  0.12500000000E+03  0.12500000000E+03 0.  0.
        -11    1    3    3    0    0  0.31487639551E+02  0.27418154617E+01  0.21401578226E+02  0.38170886122E+02  0.51100000000E-03 0. -1.
         23    2    1    0    0    0 -0.10068041281E+02  0.28159806949E+02 -0.66230114034E+01  0.94369876548E+02  0.89260680801E+02 0.  0.
         11    1    3    3    0    0 -0.41555680832E+02  0.25417991487E+02 -0.28024589629E+02  0.56198990425E+02  0.51100000000E-03 0.  1.
         22    1    1    0    0    0  0.10068041281E+02 -0.28159806949E+02  0.66230114034E+01  0.30630123452E+02  0.00000000000E+00 0. -1.
</event>
<event>
 5    1  0.8778488E-005  0.9118800E+02  0.7818608E-02  0.1130116E+00
         25   -1    0    0    0    0  0.00000000000E+00  0.00000000000E+00  0.99999998245E-14  0.12500000000E+03  0.12500000000E+03 0.  0.
        -11    1    3    3    0    0 -0.43933061569E+02  0.13337359621E+02 -0.22691070465E+02  0.51214097078E+02  0.51100000000E-03 0.  1.
         23    2    1    0    0    0 -0.49169442312E+01 -0.25943570228E+01 -0.30433465811E+02  0.94062920788E+02  0.88829782150E+02 0.  0.
         11    1    3    3    0    0  0.39016117338E+02 -0.15931716644E+02 -0.77423953462E+01  0.42848823709E+02  0.51100000000E-03 0. -1.
         22    1    1    0    0    0  0.49169442312E+01  0.25943570228E+01  0.30433465811E+02  0.30937079212E+02  0.00000000000E+00 0. -1.
</event>
<event>
 5    1  0.8778488E-005  0.9118800E+02  0.7818608E-02  0.1130116E+00
         25   -1    0    0    0    0  0.00000000000E+00  0.00000000000E+00  0.99999998245E-14  0.12500000000E+03  0.12500000000E+03 0.  0.
        -11    1    3    3    0    0  0.25675435110E+01 -0.35751306008E+02 -0.28838462531E+02  0.46004402859E+02  0.51100000000E-03 0.  1.
         23    2    1    0    0    0  0.19203336631E+02 -0.16865577233E+02  0.14126238306E+02  0.95797834980E+02  0.91238471847E+02 0.  0.
         11    1    3    3    0    0  0.16635793120E+02  0.18885728775E+02  0.42964700837E+02  0.49793432121E+02  0.51100000000E-03 0. -1.
         22    1    1    0    0    0 -0.19203336631E+02  0.16865577233E+02 -0.14126238306E+02  0.29202165020E+02  0.00000000000E+00 0. -1.
</event>
<event>
 5    1  0.8778488E-005  0.9118800E+02  0.7818608E-02  0.1130116E+00
         25   -1    0    0    0    0  0.00000000000E+00  0.00000000000E+00  0.99999998245E-14  0.12500000000E+03  0.12500000000E+03 0.  0.
        -11    1    3    3    0    0  0.12764076923E+02 -0.53447349641E+01  0.43872982987E+02  0.46003548645E+02  0.51100000000E-03 0.  1.
         23    2    1    0    0    0  0.20731122160E+02 -0.76109426538E+01 -0.10176483802E+02  0.10068402384E+03  0.97703664004E+02 0.  0.
         11    1    3    3    0    0  0.79670452368E+01 -0.22662076896E+01 -0.54049466788E+02  0.54680475194E+02  0.51100000000E-03 0. -1.
         22    1    1    0    0    0 -0.20731122160E+02  0.76109426538E+01  0.10176483802E+02  0.24315976161E+02  0.00000000000E+00 0. -1.
</event>
<event>
 5    1  0.8778488E-005  0.9118800E+02  0.7818608E-02  0.1130116E+00
         25   -1    0    0    0    0  0.00000000000E+00  0.00000000000E+00  0.99999998245E-14  0.12500000000E+03  0.12500000000E+03 0.  0.
        -11    1    3    3    0    0 -0.13823344758E+02  0.53663269660E+02 -0.72442159303E+00  0.55419817375E+02  0.51100000000E-03 0. -1.
         23    2    1    0    0    0  0.11002375457E+02  0.25490777221E+02 -0.12185118013E+02  0.94679889676E+02  0.89693770235E+02 0.  0.
         11    1    3    3    0    0  0.24825720215E+02 -0.28172492439E+02 -0.11460696420E+02  0.39260072302E+02  0.51100000000E-03 0.  1.
         22    1    1    0    0    0 -0.11002375457E+02 -0.25490777221E+02  0.12185118013E+02  0.30320110324E+02  0.00000000000E+00 0. -1.
</event>
<event>
 5    1  0.8778488E-005  0.9118800E+02  0.7818608E-02  0.1130116E+00
         25   -1    0    0    0    0  0.00000000000E+00  0.00000000000E+00  0.99999998245E-14  0.12500000000E+03  0.12500000000E+03 0.  0.
        -11    1    3    3    0    0 -0.39560162390E+02 -0.12464124435E+02  0.26223456127E+02  0.49071687334E+02  0.51100000000E-03 0.  1.
         23    2    1    0    0    0 -0.20156484659E+02  0.22091483076E+02  0.31512530900E+01  0.94929285104E+02  0.90040664569E+02 0.  0.
         11    1    3    3    0    0  0.19403677731E+02  0.34555607511E+02 -0.23072203037E+02  0.45857597770E+02  0.51100000000E-03 0. -1.
         22    1    1    0    0    0  0.20156484659E+02 -0.22091483076E+02 -0.31512530900E+01  0.30070714896E+02  0.00000000000E+00 0.  1.
</event>
<event>
 5    1  0.8778488E-005  0.9118800E+02  0.7818608E-02  0.1130116E+00
         25   -1    0    0    0    0  0.00000000000E+00  0.00000000000E+00  0.99999998245E-14  0.12500000000E+03  0.12500000000E+03 0.  0.
        -11    1    3    3    0    0 -0.17389923923E+02  0.29866761805E+00 -0.32288955891E+02  0.36675268632E+02  0.51100000000E-03 0.  1.
         23    2    1    0    0    0  0.25020594060E+02 -0.31769981918E+01  0.11096347400E+02  0.97445465523E+02  0.93468531500E+02 0.  0.
         11    1    3    3    0    0  0.42410517983E+02 -0.34756658098E+01  0.43385303291E+02  0.60770196892E+02  0.51100000000E-03 0. -1.
         22    1    1    0    0    0 -0.25020594060E+02  0.31769981918E+01 -0.11096347400E+02  0.27554534477E+02  0.00000000000E+00 0. -1.
</event>
<event>
 5    1  0.8778488E-005  0.9118800E+02  0.7818608E-02  0.1130116E+00
         25   -1    0    0    0    0  0.00000000000E+00  0.00000000000E+00  0.99999998245E-14  0.12500000000E+03  0.12500000000E+03 0.  0.
        -11    1    3    3    0    0 -0.33747946519E+02  0.23054410443E+02  0.15397253083E+02  0.43674994424E+02  0.51100000000E-03 0.  1.
         23    2    1    0    0    0 -0.15418215136E+02  0.36813058258E+02 -0.15534071257E+02  0.82172088703E+02  0.70128611676E+02 0.  0.
         11    1    3    3    0    0  0.18329731383E+02  0.13758647815E+02 -0.30931324339E+02  0.38497094279E+02  0.51100000000E-03 0. -1.
         22    1    1    0    0    0  0.15418215136E+02 -0.36813058258E+02  0.15534071257E+02  0.42827911297E+02  0.00000000000E+00 0.  1.
</event>
<event>
 5    1  0.8778488E-005  0.9118800E+02  0.7818608E-02  0.1130116E+00
         25   -1    0    0    0    0  0.00000000000E+00  0.00000000000E+00  0.99999998245E-14  0.12500000000E+03  0.12500000000E+03 0.  0.
        -11    1    3    3    0    0  0.12038889153E+02  0.10807154281E+02  0.51551084065E+02  0.54030025951E+02  0.51100000000E-03 0. -1.
         23    2    1    0    0    0 -0.24100777836E+01 -0.16876566783E+02  0.23217795085E+02  0.96195608149E+02  0.91781817574E+02 0.  0.
         11    1    3    3    0    0 -0.14448966937E+02 -0.27683721063E+02 -0.28333288980E+02  0.42165582198E+02  0.51100000000E-03 0.  1.
         22    1    1    0    0    0  0.24100777836E+01  0.16876566783E+02 -0.23217795085E+02  0.28804391851E+02  0.00000000000E+00 0. -1.
</event>
<event>
 5    1  0.8778488E-005  0.9118800E+02  0.7818608E-02  0.1130116E+00
         25   -1    0    0    0    0  0.00000000000E+00  0.00000000000E+00  0.99999998245E-14  0.12500000000E+03  0.12500000000E+03 0.  0.
        -11    1    3    3    0    0  0.38715276197E+02 -0.82174669775E+01  0.77824096359E+01  0.40335657606E+02  0.51100000000E-03 0.  1.
         23    2    1    0    0    0  0.14759997565E+01 -0.38143383409E+01 -0.30677656898E+02  0.94050906556E+02  0.88812874286E+02 0.  0.
         11    1    3    3    0    0 -0.37239276441E+02  0.44031286366E+01 -0.38460066534E+02  0.53715248949E+02  0.51100000000E-03 0. -1.
         22    1    1    0    0    0 -0.14759997565E+01  0.38143383409E+01  0.30677656898E+02  0.30949093444E+02  0.00000000000E+00 0. -1.
</event>
<event>
 5    1  0.8778488E-005  0.9118800E+02  0.7818608E-02  0.1130116E+00
         25   -1    0    0    0    0  0.00000000000E+00  0.00000000000E+00  0.99999998245E-14  0.12500000000E+03  0.12500000000E+03 0.  0.
        -11    1    3    3    0    0 -0.19598648882E+02  0.20918863176E+02  0.44033016916E+02  0.52541530750E+02  0.51100000000E-03 0.  1.
         23    2    1    0    0    0 -0.21954010005E+02 -0.11457470510E+02  0.15316588817E+02  0.95882134714E+02  0.91353892520E+02 0.  0.
         11    1    3    3    0    0 -0.23553611235E+01 -0.32376333686E+02 -0.28716428099E+02  0.43340603964E+02  0.51100000000E-03 0. -1.
         22    1    1    0    0    0  0.21954010005E+02  0.11457470510E+02 -0.15316588817E+02  0.29117865286E+02  0.00000000000E+00 0.  1.
</event>
<event>
 5    1  0.8778488E-005  0.9118800E+02  0.7818608E-02  0.1130116E+00
         25   -1    0    0    0    0  0.00000000000E+00  0.00000000000E+00  0.99999998245E-14  0.12500000000E+03  0.12500000000E+03 0.  0.
        -11    1    3    3    0    0 -0.10296311529E+01  0.45010137685E+01 -0.36896222392E+02  0.37184008556E+02  0.51100000000E-03 0. -1.
         23    2    1    0    0    0  0.22883606655E+02  0.31782799725E+01  0.17102307445E+02  0.96255438131E+02  0.91863265415E+02 0.  0.
         11    1    3    3    0    0  0.23913237808E+02 -0.13227337960E+01  0.53998529837E+02  0.59071429574E+02  0.51100000000E-03 0.  1.
         22    1    1    0    0    0 -0.22883606655E+02 -0.31782799725E+01 -0.17102307445E+02  0.28744561869E+02  0.00000000000E+00 0.  1.
</event>
<event>
 5    1  0.8778488E-005  0.9118800E+02  0.7818608E-02  0.1130116E+00
         25   -1    0    0    0    0  0.00000000000E+00  0.00000000000E+00  0.99999998245E-14  0.12500000000E+03  0.12500000000E+03 0.  0.
        -11    1    3    3    0    0  0.12034317584E+02 -0.11752193101E+01  0.18638329899E+02  0.22216959329E+02  0.51100000000E-03 0. -1.
         23    2    1    0    0    0  0.29060216220E+02 -0.87320325877E+01 -0.34811719535E+02  0.78819913634E+02  0.63874708676E+02 0.  0.
         11    1    3    3    0    0  0.17025898636E+02 -0.75568132776E+01 -0.53450049434E+02  0.56602954305E+02  0.51100000000E-03 0.  1.
         22    1    1    0    0    0 -0.29060216220E+02  0.87320325877E+01  0.34811719535E+02  0.46180086366E+02  0.00000000000E+00 0.  1.
</event>
<event>
 5    1  0.8778488E-005  0.9118800E+02  0.7818608E-02  0.1130116E+00
         25   -1    0    0    0    0  0.00000000000E+00  0.00000000000E+00  0.99999998245E-14  0.12500000000E+03  0.12500000000E+03 0.  0.
        -11    1    3    3    0    0  0.28267946673E+02 -0.25141752507E+02  0.19931127139E+02  0.42760195948E+02  0.51100000000E-03 0.  1.
         23    2    1    0    0    0 -0.21887496950E+02 -0.16349443958E+02 -0.62507951551E+00  0.97673134741E+02  0.93772510286E+02 0.  0.
         11    1    3    3    0    0 -0.50155443623E+02  0.87923085491E+01 -0.20556206654E+02  0.54912938793E+02  0.51100000000E-03 0. -1.
         22    1    1    0    0    0  0.21887496950E+02  0.16349443958E+02  0.62507951551E+00  0.27326865259E+02  0.00000000000E+00 0. -1.
</event>
<event>
 5    1  0.8778488E-005  0.9118800E+02  0.7818608E-02  0.1130116E+00
         25   -1    0    0    0    0  0.00000000000E+00  0.00000000000E+00  0.99999998245E-14  0.12500000000E+03  0.12500000000E+03 0.  0.
        -11    1    3    3    0    0 -0.16418781444E+02  0.24838274146E+02  0.16912000504E+02  0.34242254715E+02  0.51100000000E-03 0. -1.
         23    2    1    0    0    0  0.27195046749E+02 -0.16650784608E+01 -0.14465892980E+02  0.94151902592E+02  0.88954907948E+02 0.  0.
         11    1    3    3    0    0  0.43613828193E+02 -0.26503352606E+02 -0.31377893484E+02  0.59909647877E+02  0.51100000000E-03 0.  1.
         22    1    1    0    0    0 -0.27195046749E+02  0.16650784608E+01  0.14465892980E+02  0.30848097408E+02  0.00000000000E+00 0.  1.
</event>
<event>
 5    1  0.8778488E-005  0.9118800E+02  0.7818608E-02  0.1130116E+00
         25   -1    0    0    0    0  0.00000000000E+00  0.00000000000E+00  0.99999998245E-14  0.12500000000E+03  0.12500000000E+03 0.  0.
        -11    1    3    3    0    0  0.26599448201E+02 -0.24866917858E+02  0.11286039245E+02  0.38121764525E+02  0.51100000000E-03 0.  1.
         23    2    1    0    0    0 -0.15903421664E+02 -0.82757591153E+01 -0.23461512509E+02  0.95472900942E+02  0.90792209113E+02 0.  0.
         11    1    3    3    0    0 -0.42502869865E+02  0.16591158743E+02 -0.34747551754E+02  0.57351136417E+02  0.51100000000E-03 0. -1.
         22    1    1    0    0    0  0.15903421664E+02  0.82757591153E+01  0.23461512509E+02  0.29527099058E+02  0.00000000000E+00 0. -1.
</event>
<event>
 5    1  0.8778488E-005  0.9118800E+02  0.7818608E-02  0.1130116E+00
         25   -1    0    0    0    0  0.00000000000E+00  0.00000000000E+00  0.99999998245E-14  0.12500000000E+03  0.12500000000E+03 0.  0.
        -11    1    3    3    0    0  0.28532866550E+02 -0.18938850318E+02 -0.23604064950E+02  0.41592744649E+02  0.51100000000E-03 0.  1.
         23    2    1    0    0    0  0.16374863918E+02  0.14366795247E+02  0.18346648141E+02  0.96519472056E+02  0.92221841306E+02 0.  0.
         11    1    3    3    0    0 -0.12158002633E+02  0.33305645565E+02  0.41950713091E+02  0.54926727407E+02  0.51100000000E-03 0. -1.
         22    1    1    0    0    0 -0.16374863918E+02 -0.14366795247E+02 -0.18346648141E+02  0.28480527944E+02  0.00000000000E+00 0. -1.
</event>
<event>
 5    1  0.8778488E-005  0.9118800E+02  0.7818608E-02  0.1130116E+00
         25   -1    0    0    0    0  0.00000000000E+00  0.00000000000E+00  0.99999998245E-14  0.12500000000E+03  0.12500000000E+03 0.  0.
        -11    1    3    3    0    0 -0.21686625869E+02  0.41054916132E+02  0.62795545765E+01  0.46853481046E+02  0.51100000000E-03 0.  1.
         23    2    1    0    0    0  0.11316805572E+01  0.12743313869E+02 -0.26349331718E+02  0.95709045232E+02  0.91116745486E+02 0.  0.
         11    1    3    3    0    0  0.22818306426E+02 -0.28311602263E+02 -0.32628886295E+02  0.48855564186E+02  0.51100000000E-03 0. -1.
         22    1    1    0    0    0 -0.11316805572E+01 -0.12743313869E+02  0.26349331718E+02  0.29290954768E+02  0.00000000000E+00 0.  1.
</event>
<event>
 5    1  0.8778488E-005  0.9118800E+02  0.7818608E-02  0.1130116E+00
         25   -1    0    0    0    0  0.00000000000E+00  0.00000000000E+00  0.99999998245E-14  0.12500000000E+03  0.12500000000E+03 0.  0.
        -11    1    3    3    0    0 -0.17892830304E+02  0.12183300970E+02  0.54647570779E+02  0.58778764798E+02  0.51100000000E-03 0.  1.
         23    2    1    0    0    0 -0.20268368733E+01  0.18951483837E+02  0.20671080399E+02  0.96883094548E+02  0.92713395133E+02 0.  0.
         11    1    3    3    0    0  0.15865993431E+02  0.67681828675E+01 -0.33976490381E+02  0.38104329750E+02  0.51100000000E-03 0. -1.
         22    1    1    0    0    0  0.20268368733E+01 -0.18951483837E+02 -0.20671080399E+02  0.28116905452E+02  0.00000000000E+00 0.  1.
</event>
<event>
 5    1  0.8778488E-005  0.9118800E+02  0.7818608E-02  0.1130116E+00
         25   -1    0    0    0    0  0.00000000000E+00  0.00000000000E+00  0.99999998245E-14  0.12500000000E+03  0.12500000000E+03 0.  0.
        -11    1    3    3    0    0 -0.14259654459E+02  0.23086075862E+02 -0.33112818168E+02  0.42810785689E+02  0.51100000000E-03 0.  1.
         23    2    1    0    0    0  0.20517816392E+02 -0.12988752985E+02 -0.16658817191E+02  0.95551660763E+02  0.90900578605E+02 0.  0.
         11    1    3    3    0    0  0.34777470852E+02 -0.36074828847E+02  0.16454000977E+02  0.52740875074E+02  0.51100000000E-03 0. -1.
         22    1    1    0    0    0 -0.20517816392E+02  0.12988752985E+02  0.16658817191E+02  0.29448339237E+02  0.00000000000E+00 0. -1.
</event>
<event>
 5    1  0.8778488E-005  0.9118800E+02  0.7818608E-02  0.1130116E+00
         25   -1    0    0    0    0  0.00000000000E+00  0.00000000000E+00  0.99999998245E-14  0.12500000000E+03  0.12500000000E+03 0.  0.
        -11    1    3    3    0    0  0.18329205177E+02 -0.28595773980E+02 -0.14874734428E+02  0.37080126436E+02  0.51100000000E-03 0.  1.
         23    2    1    0    0    0  0.67019095743E+01  0.26078510194E+02  0.71198084915E+01  0.97148681201E+02  0.93070781130E+02 0.  0.
         11    1    3    3    0    0 -0.11627295602E+02  0.54674284175E+02  0.21994542920E+02  0.60068554765E+02  0.51100000000E-03 0. -1.
         22    1    1    0    0    0 -0.67019095743E+01 -0.26078510194E+02 -0.71198084915E+01  0.27851318799E+02  0.00000000000E+00 0. -1.
</event>
<event>
 5    1  0.8778488E-005  0.9118800E+02  0.7818608E-02  0.1130116E+00
         25   -1    0    0    0    0  0.00000000000E+00  0.00000000000E+00  0.99999998245E-14  0.12500000000E+03  0.12500000000E+03 0.  0.
        -11    1    3    3    0    0  0.41168517789E+01 -0.40572821660E+02  0.43733126193E+01  0.41014975187E+02  0.51100000000E-03 0.  1.
         23    2    1    0    0    0 -0.22459354817E+02  0.63185720880E+01  0.16702943404E+02  0.96306180276E+02  0.91932285237E+02 0.  0.
         11    1    3    3    0    0 -0.26576206596E+02  0.46891393748E+02  0.12329630784E+02  0.55291205089E+02  0.51100000000E-03 0. -1.
         22    1    1    0    0    0  0.22459354817E+02 -0.63185720880E+01 -0.16702943404E+02  0.28693819724E+02  0.00000000000E+00 0.  1.
</event>
<event>
 5    1  0.8778488E-005  0.9118800E+02  0.7818608E-02  0.1130116E+00
         25   -1    0    0    0    0  0.00000000000E+00  0.00000000000E+00  0.99999998245E-14  0.12500000000E+03  0.12500000000E+03 0.  0.
        -11    1    3    3    0    0  0.21710928219E+02 -0.26499532305E+02  0.24414934717E+02  0.42067548705E+02  0.51100000000E-03 0.  1.
         23    2    1    0    0    0 -0.17630034285E+02  0.79525791400E+01  0.23757133976E+02  0.94365655897E+02  0.89254770037E+02 0.  0.
         11    1    3    3    0    0 -0.39340962504E+02  0.34452111445E+02 -0.65780074135E+00  0.52298107192E+02  0.51100000000E-03 0. -1.
         22    1    1    0    0    0  0.17630034285E+02 -0.79525791400E+01 -0.23757133976E+02  0.30634344103E+02  0.00000000000E+00 0.  1.
</event>
<event>
 5    1  0.8778488E-005  0.9118800E+02  0.7818608E-02  0.1130116E+00
         25   -1    0    0    0    0  0.00000000000E+00  0.00000000000E+00  0.99999998245E-14  0.12500000000E+03  0.12500000000E+03 0.  0.
        -11    1    3    3    0    0 -0.51950341452E+02 -0.14625828891E+02  0.23059657414E+02  0.58689868359E+02  0.51100000000E-03 0. -1.
         23    2    1    0    0    0 -0.15245877757E+02 -0.11994626488E+02  0.22227559191E+02  0.95497928195E+02  0.90826659351E+02 0.  0.
         11    1    3    3    0    0  0.36704463695E+02  0.26312024024E+01 -0.83209822307E+00  0.36808059836E+02  0.51100000000E-03 0.  1.
         22    1    1    0    0    0  0.15245877757E+02  0.11994626488E+02 -0.22227559191E+02  0.29502071805E+02  0.00000000000E+00 0. -1.
</event>
<event>
 5    1  0.8778488E-005  0.9118800E+02  0.7818608E-02  0.1130116E+00
         25   -1    0    0    0    0  0.00000000000E+00  0.00000000000E+00  0.99999998245E-14  0.12500000000E+03  0.12500000000E+03 0.  0.
        -11    1    3    3    0    0 -0.14580206213E+02 -0.18334441528E+02  0.24605187955E+02  0.33972774892E+02  0.51100000000E-03 0. -1.
         23    2    1    0    0    0  0.18749193825E+02  0.14528028833E+01 -0.22953966319E+02  0.95326316793E+02  0.90590171643E+02 0.  0.
         11    1    3    3    0    0  0.33329400038E+02  0.19787244411E+02 -0.47559154274E+02  0.61353541901E+02  0.51100000000E-03 0.  1.
         22    1    1    0    0    0 -0.18749193825E+02 -0.14528028833E+01  0.22953966319E+02  0.29673683207E+02  0.00000000000E+00 0.  1.
</event>
<event>
 5    1  0.8778488E-005  0.9118800E+02  0.7818608E-02  0.1130116E+00
         25   -1    0    0    0    0  0.00000000000E+00  0.00000000000E+00  0.99999998245E-14  0.12500000000E+03  0.12500000000E+03 0.  0.
        -11    1    3    3    0    0  0.41437574680E+02  0.21370497289E+02  0.18788233039E+02  0.50266971768E+02  0.51100000000E-03 0.  1.
         23    2    1    0    0    0  0.16338950194E+02 -0.17420679923E+02  0.15374059661E+02  0.96595720518E+02  0.92325132708E+02 0.  0.
         11    1    3    3    0    0 -0.25098624487E+02 -0.38791177212E+02 -0.34141733774E+01  0.46328748750E+02  0.51100000000E-03 0. -1.
         22    1    1    0    0    0 -0.16338950194E+02  0.17420679923E+02 -0.15374059661E+02  0.28404279482E+02  0.00000000000E+00 0. -1.
</event>
<event>
 5    1  0.8778488E-005  0.9118800E+02  0.7818608E-02  0.1130116E+00
         25   -1    0    0    0    0  0.00000000000E+00  0.00000000000E+00  0.99999998245E-14  0.12500000000E+03  0.12500000000E+03 0.  0.
        -11    1    3    3    0    0 -0.19427945047E+01 -0.29779847393E+02 -0.44164102381E+02  0.53301798287E+02  0.51100000000E-03 0.  1.
         23    2    1    0    0    0 -0.21761778445E+02 -0.15652604612E+02 -0.77590534389E+01  0.97093335160E+02  0.92996418157E+02 0.  0.
         11    1    3    3    0    0 -0.19818983940E+02  0.14127242781E+02  0.36405048942E+02  0.43791536873E+02  0.51100000000E-03 0. -1.
         22    1    1    0    0    0  0.21761778445E+02  0.15652604612E+02  0.77590534389E+01  0.27906664840E+02  0.00000000000E+00 0.  1.
</event>
<event>
 5    1  0.8778488E-005  0.9118800E+02  0.7818608E-02  0.1130116E+00
         25   -1    0    0    0    0  0.00000000000E+00  0.00000000000E+00  0.99999998245E-14  0.12500000000E+03  0.12500000000E+03 0.  0.
        -11    1    3    3    0    0 -0.32536597931E+02  0.23761759239E+02  0.10600235934E+02  0.41660729820E+02  0.51100000000E-03 0. -1.
         23    2    1    0    0    0  0.12399400708E+02 -0.25819159231E+01  0.26085369120E+02  0.96002449933E+02  0.91518372381E+02 0.  0.
         11    1    3    3    0    0  0.44935998640E+02 -0.26343675162E+02  0.15485133186E+02  0.54341720113E+02  0.51100000000E-03 0.  1.
         22    1    1    0    0    0 -0.12399400708E+02  0.25819159231E+01 -0.26085369120E+02  0.28997550067E+02  0.00000000000E+00 0. -1.
</event>
<event>
 5    1  0.8778488E-005  0.9118800E+02  0.7818608E-02  0.1130116E+00
         25   -1    0    0    0    0  0.00000000000E+00  0.00000000000E+00  0.99999998245E-14  0.12500000000E+03  0.12500000000E+03 0.  0.
        -11    1    3    3    0    0 -0.26477999866E+02  0.15378175674E+02 -0.25205227167E+02  0.39659503789E+02  0.51100000000E-03 0.  1.
         23    2    1    0    0    0 -0.33958145125E+01  0.91782259928E+01  0.26570058539E+02  0.96684996921E+02  0.92445925980E+02 0.  0.
         11    1    3    3    0    0  0.23082185353E+02 -0.61999496812E+01  0.51775285706E+02  0.57025493132E+02  0.51100000000E-03 0. -1.
         22    1    1    0    0    0  0.33958145125E+01 -0.91782259928E+01 -0.26570058539E+02  0.28315003079E+02  0.00000000000E+00 0. -1.
</event>
<event>
 5    1  0.8778488E-005  0.9118800E+02  0.7818608E-02  0.1130116E+00
         25   -1    0    0    0    0  0.00000000000E+00  0.00000000000E+00  0.99999998245E-14  0.12500000000E+03  0.12500000000E+03 0.  0.
        -11    1    3    3    0    0 -0.17239612039E+02  0.28753264938E+02  0.10111276048E+02  0.35017029735E+02  0.51100000000E-03 0. -1.
         23    2    1    0    0    0  0.10693057727E+02 -0.22039291285E+02  0.19437228740E+02  0.93728963801E+02  0.88358592962E+02 0.  0.
         11    1    3    3    0    0  0.27932669767E+02 -0.50792556223E+02  0.93259526920E+01  0.58711934066E+02  0.51100000000E-03 0.  1.
         22    1    1    0    0    0 -0.10693057727E+02  0.22039291285E+02 -0.19437228740E+02  0.31271036199E+02  0.00000000000E+00 0.  1.
</event>
<event>
 5    1  0.8778488E-005  0.9118800E+02  0.7818608E-02  0.1130116E+00
         25   -1    0    0    0    0  0.00000000000E+00  0.00000000000E+00  0.99999998245E-14  0.12500000000E+03  0.12500000000E+03 0.  0.
        -11    1    3    3    0    0 -0.30672211341E+02 -0.24553501328E+02  0.24070811051E+01  0.39363092049E+02  0.51100000000E-03 0.  1.
         23    2    1    0    0    0  0.11933763614E+02  0.56861987523E+00  0.27639810031E+02  0.94888587859E+02  0.89984148408E+02 0.  0.
         11    1    3    3    0    0  0.42605974954E+02  0.25122121203E+02  0.25232728926E+02  0.55525495810E+02  0.51100000000E-03 0. -1.
         22    1    1    0    0    0 -0.11933763614E+02 -0.56861987523E+00 -0.27639810031E+02  0.30111412141E+02  0.00000000000E+00 0. -1.
</event>
<event>
 5    1  0.8778488E-005  0.9118800E+02  0.7818608E-02  0.1130116E+00
         25   -1    0    0    0    0  0.00000000000E+00  0.00000000000E+00  0.99999998245E-14  0.12500000000E+03  0.12500000000E+03 0.  0.
        -11    1    3    3    0    0  0.18974650098E+01 -0.49420031916E+02 -0.23825257233E+02  0.54896109247E+02  0.51100000000E-03 0.  1.
         23    2    1    0    0    0  0.80869345326E-01 -0.88820698410E+01 -0.27939263683E+02  0.95682766849E+02  0.91080687921E+02 0.  0.
         11    1    3    3    0    0 -0.18165956645E+01  0.40537962075E+02 -0.41140064496E+01  0.40786657602E+02  0.51100000000E-03 0. -1.
         22    1    1    0    0    0 -0.80869345326E-01  0.88820698410E+01  0.27939263683E+02  0.29317233151E+02  0.00000000000E+00 0. -1.
</event>
<event>
 5    1  0.8778488E-005  0.9118800E+02  0.7818608E-02  0.1130116E+00
         25   -1    0    0    0    0  0.00000000000E+00  0.00000000000E+00  0.99999998245E-14  0.12500000000E+03  0.12500000000E+03 0.  0.
        -11    1    3    3    0    0  0.34765931921E+02 -0.37827845446E+01  0.30396576731E+01  0.35102977086E+02  0.51100000000E-03 0.  1.
         23    2    1    0    0    0 -0.21436964829E+02  0.76748556682E+01  0.19762931795E+02  0.94850035759E+02  0.89930578446E+02 0.  0.
         11    1    3    3    0    0 -0.56202896751E+02  0.11457640213E+02  0.16723274122E+02  0.59747058673E+02  0.51100000000E-03 0. -1.
         22    1    1    0    0    0  0.21436964829E+02 -0.76748556682E+01 -0.19762931795E+02  0.30149964241E+02  0.00000000000E+00 0. -1.
</event>
<event>
 5    1  0.8778488E-005  0.9118800E+02  0.7818608E-02  0.1130116E+00
         25   -1    0    0    0    0  0.00000000000E+00  0.00000000000E+00  0.99999998245E-14  0.12500000000E+03  0.12500000000E+03 0.  0.
        -11    1    3    3    0    0  0.27786076699E+02  0.47236783494E+01  0.20098646181E+02  0.34616972340E+02  0.51100000000E-03 0. -1.
         23    2    1    0    0    0 -0.11746492461E+02  0.43308889318E+01 -0.26478828694E+02  0.95710666564E+02  0.91118969710E+02 0.  0.
         11    1    3    3    0    0 -0.39532569160E+02 -0.39278941754E+00 -0.46577474875E+02  0.61093694224E+02  0.51100000000E-03 0.  1.
         22    1    1    0    0    0  0.11746492461E+02 -0.43308889318E+01  0.26478828694E+02  0.29289333436E+02  0.00000000000E+00 0.  1.
</event>
<event>
 5    1  0.8778488E-005  0.9118800E+02  0.7818608E-02  0.1130116E+00
         25   -1    0    0    0    0  0.00000000000E+00  0.00000000000E+00  0.99999998245E-14  0.12500000000E+03  0.12500000000E+03 0.  0.
        -11    1    3    3    0    0 -0.40897999757E+02  0.22139265575E+02 -0.40333922357E+02  0.61559879445E+02  0.51100000000E-03 0.  1.
         23    2    1    0    0    0 -0.25315110367E+02  0.95845214890E+01 -0.14330403761E+02  0.94371935467E+02  0.89263564049E+02 0.  0.
         11    1    3    3    0    0  0.15582889389E+02 -0.12554744086E+02  0.26003518596E+02  0.32812056022E+02  0.51100000000E-03 0. -1.
         22    1    1    0    0    0  0.25315110367E+02 -0.95845214890E+01  0.14330403761E+02  0.30628064533E+02  0.00000000000E+00 0.  1.
</event>
<event>
 5    1  0.8778488E-005  0.9118800E+02  0.7818608E-02  0.1130116E+00
         25   -1    0    0    0    0  0.00000000000E+00  0.00000000000E+00  0.99999998245E-14  0.12500000000E+03  0.12500000000E+03 0.  0.
        -11    1    3    3    0    0  0.42863047582E+02  0.28000929505E+02 -0.28984142583E+02  0.58833437965E+02  0.51100000000E-03 0.  1.
         23    2    1    0    0    0  0.11231565107E+02  0.24681257682E+02 -0.88508189270E+01  0.96475457388E+02  0.92162163316E+02 0.  0.
         11    1    3    3    0    0 -0.31631482475E+02 -0.33196718229E+01  0.20133323656E+02  0.37642019423E+02  0.51100000000E-03 0. -1.
         22    1    1    0    0    0 -0.11231565107E+02 -0.24681257682E+02  0.88508189270E+01  0.28524542612E+02  0.00000000000E+00 0.  1.
</event>
<event>
 5    1  0.8778488E-005  0.9118800E+02  0.7818608E-02  0.1130116E+00
         25   -1    0    0    0    0  0.00000000000E+00  0.00000000000E+00  0.99999998245E-14  0.12500000000E+03  0.12500000000E+03 0.  0.
        -11    1    3    3    0    0  0.43133207431E+02 -0.27502759289E+02  0.34184919148E+02  0.61526287465E+02  0.51100000000E-03 0.  1.
         23    2    1    0    0    0  0.24201940111E+02 -0.62026811603E+01  0.15827342488E+02  0.95424470775E+02  0.90725507404E+02 0.  0.
         11    1    3    3    0    0 -0.18931267320E+02  0.21300078128E+02 -0.18357576660E+02  0.33898183310E+02  0.51100000000E-03 0. -1.
         22    1    1    0    0    0 -0.24201940111E+02  0.62026811603E+01 -0.15827342488E+02  0.29575529225E+02  0.00000000000E+00 0.  1.
</event>
<event>
 5    1  0.8778488E-005  0.9118800E+02  0.7818608E-02  0.1130116E+00
         25   -1    0    0    0    0  0.00000000000E+00  0.00000000000E+00  0.99999998245E-14  0.12500000000E+03  0.12500000000E+03 0.  0.
        -11    1    3    3    0    0 -0.13300020171E+01 -0.16691951658E+02  0.43861500614E+02  0.46949136221E+02  0.51100000000E-03 0. -1.
         23    2    1    0    0    0 -0.22741481934E+02  0.12663508692E+02  0.85851600656E+01  0.97591161529E+02  0.93663175167E+02 0.  0.
         11    1    3    3    0    0 -0.21411479917E+02  0.29355460349E+02 -0.35276340549E+02  0.50642025308E+02  0.51100000000E-03 0.  1.
         22    1    1    0    0    0  0.22741481934E+02 -0.12663508692E+02 -0.85851600656E+01  0.27408838471E+02  0.00000000000E+00 0. -1.
</event>
<event>
 5    1  0.8778488E-005  0.9118800E+02  0.7818608E-02  0.1130116E+00
         25   -1    0    0    0    0  0.00000000000E+00  0.00000000000E+00  0.99999998245E-14  0.12500000000E+03  0.12500000000E+03 0.  0.
        -11    1    3    3    0    0 -0.19786516319E+02  0.15991966534E+02 -0.23416461496E+02  0.34577158515E+02  0.51100000000E-03 0. -1.
         23    2    1    0    0    0  0.27770425244E+01 -0.22206831886E+02  0.18764903532E+02  0.95794230842E+02  0.91233533914E+02 0.  0.
         11    1    3    3    0    0  0.22563558843E+02 -0.38198798420E+02  0.42181365028E+02  0.61217072327E+02  0.51100000000E-03 0.  1.
         22    1    1    0    0    0 -0.27770425244E+01  0.22206831886E+02 -0.18764903532E+02  0.29205769158E+02  0.00000000000E+00 0.  1.
</event>
<event>
 5    1  0.8778488E-005  0.9118800E+02  0.7818608E-02  0.1130116E+00
         25   -1    0    0    0    0  0.00000000000E+00  0.00000000000E+00  0.99999998245E-14  0.12500000000E+03  0.12500000000E+03 0.  0.
        -11    1    3    3    0    0 -0.27061715462E+02  0.35982363639E+01 -0.24152914566E+02  0.36450610845E+02  0.51100000000E-03 0.  1.
         23    2    1    0    0    0  0.28301833943E+02 -0.20800855014E+01 -0.15159467710E+02  0.92826563418E+02  0.87072618282E+02 0.  0.
         11    1    3    3    0    0  0.55363549405E+02 -0.56783218653E+01  0.89934468560E+01  0.56375952573E+02  0.51100000000E-03 0. -1.
         22    1    1    0    0    0 -0.28301833943E+02  0.20800855014E+01  0.15159467710E+02  0.32173436582E+02  0.00000000000E+00 0. -1.
</event>
<event>
 5    1  0.8778488E-005  0.9118800E+02  0.7818608E-02  0.1130116E+00
         25   -1    0    0    0    0  0.00000000000E+00  0.00000000000E+00  0.99999998245E-14  0.12500000000E+03  0.12500000000E+03 0.  0.
        -11    1    3    3    0    0  0.33998766965E+02 -0.40020112338E+01  0.29682477198E+02  0.45309841115E+02  0.51100000000E-03 0.  1.
         23    2    1    0    0    0 -0.16363671886E+02 -0.74467419897E+01  0.22344865337E+02  0.96320447514E+02  0.91951682304E+02 0.  0.
         11    1    3    3    0    0 -0.50362438852E+02 -0.34447307559E+01 -0.73376118603E+01  0.51010606398E+02  0.51100000000E-03 0. -1.
         22    1    1    0    0    0  0.16363671886E+02  0.74467419897E+01 -0.22344865337E+02  0.28679552486E+02  0.00000000000E+00 0. -1.
</event>
<event>
 5    1  0.8778488E-005  0.9118800E+02  0.7818608E-02  0.1130116E+00
         25   -1    0    0    0    0  0.00000000000E+00  0.00000000000E+00  0.99999998245E-14  0.12500000000E+03  0.12500000000E+03 0.  0.
        -11    1    3    3    0    0  0.26218447039E+02 -0.62109387923E+00  0.15866783451E+02  0.30652039738E+02  0.51100000000E-03 0. -1.
         23    2    1    0    0    0 -0.25047689484E+02  0.25256008989E+02  0.66310497231E+01  0.88816805573E+02  0.81112276465E+02 0.  0.
         11    1    3    3    0    0 -0.51266136523E+02  0.25877102868E+02 -0.92357337283E+01  0.58164765835E+02  0.51100000000E-03 0.  1.
         22    1    1    0    0    0  0.25047689484E+02 -0.25256008989E+02 -0.66310497231E+01  0.36183194427E+02  0.00000000000E+00 0.  1.
</event>
<event>
 5    1  0.8778488E-005  0.9118800E+02  0.7818608E-02  0.1130116E+00
         25   -1    0    0    0    0  0.00000000000E+00  0.00000000000E+00  0.99999998245E-14  0.12500000000E+03  0.12500000000E+03 0.  0.
        -11    1    3    3    0    0  0.25004083612E+02 -0.40069190579E+02  0.34068863038E+02  0.58235999690E+02  0.51100000000E-03 0. -1.
         23    2    1    0    0    0  0.99138598954E+01 -0.27888294692E+02  0.24858359830E+01  0.95297795041E+02  0.90550807619E+02 0.  0.
         11    1    3    3    0    0 -0.15090223717E+02  0.12180895887E+02 -0.31583027055E+02  0.37061795351E+02  0.51100000000E-03 0.  1.
         22    1    1    0    0    0 -0.99138598954E+01  0.27888294692E+02 -0.24858359830E+01  0.29702204959E+02  0.00000000000E+00 0. -1.
</event>
<event>
 5    1  0.8778488E-005  0.9118800E+02  0.7818608E-02  0.1130116E+00
         25   -1    0    0    0    0  0.00000000000E+00  0.00000000000E+00  0.99999998245E-14  0.12500000000E+03  0.12500000000E+03 0.  0.
        -11    1    3    3    0    0  0.41449466448E+02 -0.28190332734E+02 -0.36040625479E+02  0.61738803144E+02  0.51100000000E-03 0.  1.
         23    2    1    0    0    0  0.14413874120E+02 -0.16154385597E+02 -0.20586971815E+02  0.95124469048E+02  0.90311224451E+02 0.  0.
         11    1    3    3    0    0 -0.27035592329E+02  0.12035947136E+02  0.15453653663E+02  0.33385665904E+02  0.51100000000E-03 0. -1.
         22    1    1    0    0    0 -0.14413874120E+02  0.16154385597E+02  0.20586971815E+02  0.29875530952E+02  0.00000000000E+00 0.  1.
</event>
<event>
 5    1  0.8778488E-005  0.9118800E+02  0.7818608E-02  0.1130116E+00
         25   -1    0    0    0    0  0.00000000000E+00  0.00000000000E+00  0.99999998245E-14  0.12500000000E+03  0.12500000000E+03 0.  0.
        -11    1    3    3    0    0  0.31089318021E+02  0.43968178675E+02  0.24326174399E+02  0.59088993833E+02  0.51100000000E-03 0.  1.
         23    2    1    0    0    0  0.14119133755E+02  0.25736710731E+02 -0.23072965278E+01  0.95554256088E+02  0.90904147441E+02 0.  0.
         11    1    3    3    0    0 -0.16970184266E+02 -0.18231467944E+02 -0.26633470927E+02  0.36465262255E+02  0.51100000000E-03 0. -1.
         22    1    1    0    0    0 -0.14119133755E+02 -0.25736710731E+02  0.23072965278E+01  0.29445743912E+02  0.00000000000E+00 0.  1.
</event>
<event>
 5    1  0.8778488E-005  0.9118800E+02  0.7818608E-02  0.1130116E+00
         25   -1    0    0    0    0  0.00000000000E+00  0.00000000000E+00  0.99999998245E-14  0.12500000000E+03  0.12500000000E+03 0.  0.
        -11    1    3    3    0    0 -0.28574391734E+02  0.18207317340E+02 -0.44879887202E+02  0.56233500187E+02  0.51100000000E-03 0.  1.
         23    2    1    0    0    0 -0.13003675445E+01 -0.50283995194E+01 -0.29196060681E+02  0.95345561601E+02  0.90616722519E+02 0.  0.
         11    1    3    3    0    0  0.27274024190E+02 -0.23235716859E+02  0.15683826521E+02  0.39112061414E+02  0.51100000000E-03 0. -1.
         22    1    1    0    0    0  0.13003675445E+01  0.50283995194E+01  0.29196060681E+02  0.29654438399E+02  0.00000000000E+00 0.  1.
</event>
<event>
 5    1  0.8778488E-005  0.9118800E+02  0.7818608E-02  0.1130116E+00
         25   -1    0    0    0    0  0.00000000000E+00  0.00000000000E+00  0.99999998245E-14  0.12500000000E+03  0.12500000000E+03 0.  0.
        -11    1    3    3    0    0 -0.83898249274E+01  0.12978690579E+02  0.58340574549E+01  0.16518831620E+02  0.51100000000E-03 0. -1.
         23    2    1    0    0    0  0.19341997817E+01 -0.40616570048E+02 -0.23037228203E+02  0.78264994121E+02  0.62779363889E+02 0.  0.
         11    1    3    3    0    0  0.10324024709E+02 -0.53595260626E+02 -0.28871285658E+02  0.61746162501E+02  0.51100000000E-03 0.  1.
         22    1    1    0    0    0 -0.19341997817E+01  0.40616570048E+02  0.23037228203E+02  0.46735005879E+02  0.00000000000E+00 0.  1.
</event>
<event>
 5    1  0.8778488E-005  0.9118800E+02  0.7818608E-02  0.1130116E+00
         25   -1    0    0    0    0  0.00000000000E+00  0.00000000000E+00  0.99999998245E-14  0.12500000000E+03  0.12500000000E+03 0.  0.
        -11    1    3    3    0    0  0.71508251640E+01 -0.24298201767E+02 -0.21779905294E+02  0.33405107163E+02  0.51100000000E-03 0.  1.
         23    2    1    0    0    0 -0.18752739907E+02 -0.96900864273E+00  0.26233111236E+02  0.92738872355E+02  0.86946639318E+02 0.  0.
         11    1    3    3    0    0 -0.25903565071E+02  0.23329193125E+02  0.48013016531E+02  0.59333765192E+02  0.51100000000E-03 0. -1.
         22    1    1    0    0    0  0.18752739907E+02  0.96900864273E+00 -0.26233111236E+02  0.32261127645E+02  0.00000000000E+00 0. -1.
</event>
<event>
 5    1  0.8778488E-005  0.9118800E+02  0.7818608E-02  0.1130116E+00
         25   -1    0    0    0    0  0.00000000000E+00  0.00000000000E+00  0.99999998245E-14  0.12500000000E+03  0.12500000000E+03 0.  0.
        -11    1    3    3    0    0  0.44904990066E+02  0.89267579336E+01 -0.34884524346E+02  0.57559318786E+02  0.51100000000E-03 0. -1.
         23    2    1    0    0    0  0.21655124241E+02  0.20597854447E+02 -0.10202373370E+02  0.93419872767E+02  0.87920237669E+02 0.  0.
         11    1    3    3    0    0 -0.23249865826E+02  0.11671096513E+02  0.24682150976E+02  0.35860553981E+02  0.51100000000E-03 0.  1.
         22    1    1    0    0    0 -0.21655124241E+02 -0.20597854447E+02  0.10202373370E+02  0.31580127233E+02  0.00000000000E+00 0. -1.
</event>
<event>
 5    1  0.8778488E-005  0.9118800E+02  0.7818608E-02  0.1130116E+00
         25   -1    0    0    0    0  0.00000000000E+00  0.00000000000E+00  0.99999998245E-14  0.12500000000E+03  0.12500000000E+03 0.  0.
        -11    1    3    3    0    0 -0.11563872334E+02  0.39475225002E+02 -0.11338937538E+02  0.42668349359E+02  0.51100000000E-03 0. -1.
         23    2    1    0    0    0  0.13250418918E+02 -0.14535286486E+01 -0.28517233581E+02  0.93521134739E+02  0.88064088508E+02 0.  0.
         11    1    3    3    0    0  0.24814291252E+02 -0.40928753650E+02 -0.17178296043E+02  0.50852785380E+02  0.51100000000E-03 0.  1.
         22    1    1    0    0    0 -0.13250418918E+02  0.14535286486E+01  0.28517233581E+02  0.31478865261E+02  0.00000000000E+00 0.  1.
</event>
<event>
 5    1  0.8778488E-005  0.9118800E+02  0.7818608E-02  0.1130116E+00
         25   -1    0    0    0    0  0.00000000000E+00  0.00000000000E+00  0.99999998245E-14  0.12500000000E+03  0.12500000000E+03 0.  0.
        -11    1    3    3    0    0 -0.36331669898E+02  0.46349745377E+02 -0.82741342922E+01  0.59470584599E+02  0.51100000000E-03 0. -1.
         23    2    1    0    0    0 -0.20293381338E+02  0.18893123534E+02  0.92419443682E+01  0.95773556859E+02  0.91205203880E+02 0.  0.
         11    1    3    3    0    0  0.16038288560E+02 -0.27456621843E+02  0.17516078660E+02  0.36302972260E+02  0.51100000000E-03 0.  1.
         22    1    1    0    0    0  0.20293381338E+02 -0.18893123534E+02 -0.92419443682E+01  0.29226443141E+02  0.00000000000E+00 0. -1.
</event>
<event>
 5    1  0.8778488E-005  0.9118800E+02  0.7818608E-02  0.1130116E+00
         25   -1    0    0    0    0  0.00000000000E+00  0.00000000000E+00  0.99999998245E-14  0.12500000000E+03  0.12500000000E+03 0.  0.
        -11    1    3    3    0    0 -0.26773913578E+02  0.55196991797E+02 -0.10778385936E+02  0.62287430156E+02  0.51100000000E-03 0.  1.
         23    2    1    0    0    0 -0.11322368962E+02  0.25529203690E+02 -0.84660515449E+01  0.95817637027E+02  0.91265597334E+02 0.  0.
         11    1    3    3    0    0  0.15451544616E+02 -0.29667788108E+02  0.23123343907E+01  0.33530206871E+02  0.51100000000E-03 0. -1.
         22    1    1    0    0    0  0.11322368962E+02 -0.25529203690E+02  0.84660515449E+01  0.29182362973E+02  0.00000000000E+00 0.  1.
</event>
<event>
 5    1  0.8778488E-005  0.9118800E+02  0.7818608E-02  0.1130116E+00
         25   -1    0    0    0    0  0.00000000000E+00  0.00000000000E+00  0.99999998245E-14  0.12500000000E+03  0.12500000000E+03 0.  0.
        -11    1    3    3    0    0  0.39122902790E+02  0.15552317243E+02  0.65927042431E+01  0.42613845683E+02  0.51100000000E-03 0.  1.
         23    2    1    0    0    0 -0.18858844776E+02 -0.81431524471E+00  0.11223552589E+02  0.10303896022E+03  0.10067144607E+03 0.  0.
         11    1    3    3    0    0 -0.57981747566E+02 -0.16366632488E+02  0.46308483463E+01  0.60425114535E+02  0.51100000000E-03 0. -1.
         22    1    1    0    0    0  0.18858844776E+02  0.81431524471E+00 -0.11223552589E+02  0.21961039783E+02  0.00000000000E+00 0. -1.
</event>
<event>
 5    1  0.8778488E-005  0.9118800E+02  0.7818608E-02  0.1130116E+00
         25   -1    0    0    0    0  0.00000000000E+00  0.00000000000E+00  0.99999998245E-14  0.12500000000E+03  0.12500000000E+03 0.  0.
        -11    1    3    3    0    0 -0.34652659618E+02  0.14605770938E+02 -0.38488455810E+02  0.53809818753E+02  0.51100000000E-03 0.  1.
         23    2    1    0    0    0 -0.71775747693E+01  0.27362144075E+02 -0.26011643388E+02  0.86570712995E+02  0.77573695598E+02 0.  0.
         11    1    3    3    0    0  0.27475084849E+02  0.12756373137E+02  0.12476812422E+02  0.32760894242E+02  0.51100000000E-03 0. -1.
         22    1    1    0    0    0  0.71775747693E+01 -0.27362144075E+02  0.26011643388E+02  0.38429287005E+02  0.00000000000E+00 0.  1.
</event>
<event>
 5    1  0.8778488E-005  0.9118800E+02  0.7818608E-02  0.1130116E+00
         25   -1    0    0    0    0  0.00000000000E+00  0.00000000000E+00  0.99999998245E-14  0.12500000000E+03  0.12500000000E+03 0.  0.
        -11    1    3    3    0    0  0.32532225986E+02  0.12123163961E+02 -0.41432998757E+02  0.54055621524E+02  0.51100000000E-03 0.  1.
         23    2    1    0    0    0  0.71814494896E+01  0.25051231753E+02 -0.84810622984E+01  0.97594419422E+02  0.93667522950E+02 0.  0.
         11    1    3    3    0    0 -0.25350776496E+02  0.12928067792E+02  0.32951936459E+02  0.43538797899E+02  0.51100000000E-03 0. -1.
         22    1    1    0    0    0 -0.71814494896E+01 -0.25051231753E+02  0.84810622984E+01  0.27405580578E+02  0.00000000000E+00 0.  1.
</event>
<event>
 5    1  0.8778488E-005  0.9118800E+02  0.7818608E-02  0.1130116E+00
         25   -1    0    0    0    0  0.00000000000E+00  0.00000000000E+00  0.99999998245E-14  0.12500000000E+03  0.12500000000E+03 0.  0.
        -11    1    3    3    0    0 -0.72631564378E-01 -0.35194749885E+02  0.15844071127E+02  0.38596765214E+02  0.51100000000E-03 0. -1.
         23    2    1    0    0    0  0.19948636075E+02  0.18572206468E+02  0.16822321449E+01  0.97692403267E+02  0.93798191970E+02 0.  0.
         11    1    3    3    0    0  0.20021267639E+02  0.53766956353E+02 -0.14161838982E+02  0.59095638054E+02  0.51100000000E-03 0.  1.
         22    1    1    0    0    0 -0.19948636075E+02 -0.18572206468E+02 -0.16822321449E+01  0.27307596733E+02  0.00000000000E+00 0.  1.
</event>
<event>
 5    1  0.8778488E-005  0.9118800E+02  0.7818608E-02  0.1130116E+00
         25   -1    0    0    0    0  0.00000000000E+00  0.00000000000E+00  0.99999998245E-14  0.12500000000E+03  0.12500000000E+03 0.  0.
        -11    1    3    3    0    0  0.43173890049E+02 -0.33354976884E+02  0.16016964039E+02  0.56860200512E+02  0.51100000000E-03 0.  1.
         23    2    1    0    0    0  0.11518895793E+02 -0.30217236288E+02  0.16545684309E+02  0.88674719568E+02  0.80893015101E+02 0.  0.
         11    1    3    3    0    0 -0.31654994257E+02  0.31377405959E+01  0.52872026952E+00  0.31814519057E+02  0.51100000000E-03 0. -1.
         22    1    1    0    0    0 -0.11518895793E+02  0.30217236288E+02 -0.16545684309E+02  0.36325280432E+02  0.00000000000E+00 0.  1.
</event>
<event>
 5    1  0.8778488E-005  0.9118800E+02  0.7818608E-02  0.1130116E+00
         25   -1    0    0    0    0  0.00000000000E+00  0.00000000000E+00  0.99999998245E-14  0.12500000000E+03  0.12500000000E+03 0.  0.
        -11    1    3    3    0    0  0.32433840361E+02  0.17771027311E+02 -0.13782795634E+02  0.39468074035E+02  0.51100000000E-03 0. -1.
         23    2    1    0    0    0 -0.23547534326E+02  0.14157944797E+02 -0.10240413046E+02  0.95677656419E+02  0.91073674049E+02 0.  0.
         11    1    3    3    0    0 -0.55981374688E+02 -0.36130825139E+01  0.35423825883E+01  0.56209582384E+02  0.51100000000E-03 0.  1.
         22    1    1    0    0    0  0.23547534326E+02 -0.14157944797E+02  0.10240413046E+02  0.29322343581E+02  0.00000000000E+00 0.  1.
</event>
<event>
 5    1  0.8778488E-005  0.9118800E+02  0.7818608E-02  0.1130116E+00
         25   -1    0    0    0    0  0.00000000000E+00  0.00000000000E+00  0.99999998245E-14  0.12500000000E+03  0.12500000000E+03 0.  0.
        -11    1    3    3    0    0 -0.39021113112E+02  0.18865684288E+02  0.12217366455E+02  0.45031381896E+02  0.51100000000E-03 0. -1.
         23    2    1    0    0    0 -0.16545947643E+02 -0.12924049954E+02 -0.20328894804E+02  0.95775636627E+02  0.91208054232E+02 0.  0.
         11    1    3    3    0    0  0.22475165469E+02 -0.31789734242E+02 -0.32546261259E+02  0.50744254731E+02  0.51100000000E-03 0.  1.
         22    1    1    0    0    0  0.16545947643E+02  0.12924049954E+02  0.20328894804E+02  0.29224363373E+02  0.00000000000E+00 0. -1.
</event>
<event>
 5    1  0.8778488E-005  0.9118800E+02  0.7818608E-02  0.1130116E+00
         25   -1    0    0    0    0  0.00000000000E+00  0.00000000000E+00  0.99999998245E-14  0.12500000000E+03  0.12500000000E+03 0.  0.
        -11    1    3    3    0    0  0.25184225289E+02  0.48427035621E+02  0.15621005685E+02  0.56775336206E+02  0.51100000000E-03 0. -1.
         23    2    1    0    0    0  0.79288017799E+01  0.23632035898E+02 -0.11661765550E+02  0.97480265370E+02  0.93515059442E+02 0.  0.
         11    1    3    3    0    0 -0.17255423509E+02 -0.24794999723E+02 -0.27282771235E+02  0.40704929164E+02  0.51100000000E-03 0.  1.
         22    1    1    0    0    0 -0.79288017799E+01 -0.23632035898E+02  0.11661765550E+02  0.27519734630E+02  0.00000000000E+00 0. -1.
</event>
<event>
 5    1  0.8778488E-005  0.9118800E+02  0.7818608E-02  0.1130116E+00
         25   -1    0    0    0    0  0.00000000000E+00  0.00000000000E+00  0.99999998245E-14  0.12500000000E+03  0.12500000000E+03 0.  0.
        -11    1    3    3    0    0  0.10256479300E+02 -0.28342237364E+02  0.14693061823E+02  0.33531535193E+02  0.51100000000E-03 0.  1.
         23    2    1    0    0    0  0.61359098069E+00  0.29057641557E+02 -0.60339034931E+01  0.95316148866E+02  0.90576140438E+02 0.  0.
         11    1    3    3    0    0 -0.96428883188E+01  0.57399878921E+02 -0.20726965316E+02  0.61784613673E+02  0.51100000000E-03 0. -1.
         22    1    1    0    0    0 -0.61359098069E+00 -0.29057641557E+02  0.60339034931E+01  0.29683851134E+02  0.00000000000E+00 0. -1.
</event>
<event>
 5    1  0.8778488E-005  0.9118800E+02  0.7818608E-02  0.1130116E+00
         25   -1    0    0    0    0  0.00000000000E+00  0.00000000000E+00  0.99999998245E-14  0.12500000000E+03  0.12500000000E+03 0.  0.
        -11    1    3    3    0    0  0.15766694687E+02  0.20021662137E+02  0.36225012835E+01  0.25740593075E+02  0.51100000000E-03 0. -1.
         23    2    1    0    0    0 -0.24897204093E+02 -0.25248464583E+02 -0.10120214131E+02  0.88124880075E+02  0.80038865676E+02 0.  0.
         11    1    3    3    0    0 -0.40663898780E+02 -0.45270126720E+02 -0.13742715415E+02  0.62384286999E+02  0.51100000000E-03 0.  1.
         22    1    1    0    0    0  0.24897204093E+02  0.25248464583E+02  0.10120214131E+02  0.36875119925E+02  0.00000000000E+00 0.  1.
</event>
<event>
 5    1  0.8778488E-005  0.9118800E+02  0.7818608E-02  0.1130116E+00
         25   -1    0    0    0    0  0.00000000000E+00  0.00000000000E+00  0.99999998245E-14  0.12500000000E+03  0.12500000000E+03 0.  0.
        -11    1    3    3    0    0 -0.18896189210E+02  0.10038567004E+02  0.26914949294E+02  0.34383910335E+02  0.51100000000E-03 0. -1.
         23    2    1    0    0    0  0.44780329661E+01 -0.44832776346E+00 -0.28875810860E+02  0.95775588460E+02  0.91207988219E+02 0.  0.
         11    1    3    3    0    0  0.23374222176E+02 -0.10486894767E+02 -0.55790760154E+02  0.61391678125E+02  0.51100000000E-03 0.  1.
         22    1    1    0    0    0 -0.44780329661E+01  0.44832776346E+00  0.28875810860E+02  0.29224411540E+02  0.00000000000E+00 0.  1.
</event>
<event>
 5    1  0.8778488E-005  0.9118800E+02  0.7818608E-02  0.1130116E+00
         25   -1    0    0    0    0  0.00000000000E+00  0.00000000000E+00  0.99999998245E-14  0.12500000000E+03  0.12500000000E+03 0.  0.
        -11    1    3    3    0    0  0.49944688375E+02 -0.30484318969E+02  0.14499378221E+02  0.60282647328E+02  0.51100000000E-03 0. -1.
         23    2    1    0    0    0  0.28452686020E+02 -0.12412329431E+02 -0.36896552577E+01  0.93739244737E+02  0.88373136101E+02 0.  0.
         11    1    3    3    0    0 -0.21492002354E+02  0.18071989538E+02 -0.18189033478E+02  0.33456597409E+02  0.51100000000E-03 0.  1.
         22    1    1    0    0    0 -0.28452686020E+02  0.12412329431E+02  0.36896552577E+01  0.31260755263E+02  0.00000000000E+00 0. -1.
</event>
<event>
 5    1  0.8778488E-005  0.9118800E+02  0.7818608E-02  0.1130116E+00
         25   -1    0    0    0    0  0.00000000000E+00  0.00000000000E+00  0.99999998245E-14  0.12500000000E+03  0.12500000000E+03 0.  0.
        -11    1    3    3    0    0  0.13537016722E+02 -0.58981556714E+02 -0.11110590743E+02  0.61526580281E+02  0.51100000000E-03 0.  1.
         23    2    1    0    0    0  0.13262591467E+02 -0.24260108937E+02 -0.68989321891E+01  0.96503605782E+02  0.92200333218E+02 0.  0.
         11    1    3    3    0    0 -0.27442525487E+00  0.34721447776E+02  0.42116585542E+01  0.34977025502E+02  0.51100000000E-03 0. -1.
         22    1    1    0    0    0 -0.13262591467E+02  0.24260108937E+02  0.68989321891E+01  0.28496394218E+02  0.00000000000E+00 0.  1.
</event>
<event>
 5    1  0.8778488E-005  0.9118800E+02  0.7818608E-02  0.1130116E+00
         25   -1    0    0    0    0  0.00000000000E+00  0.00000000000E+00  0.99999998245E-14  0.12500000000E+03  0.12500000000E+03 0.  0.
        -11    1    3    3    0    0 -0.48615219085E+02 -0.20622267404E+02 -0.30091962412E+01  0.52893976045E+02  0.51100000000E-03 0. -1.
         23    2    1    0    0    0 -0.25088199867E+02  0.14685084241E+02  0.31225197469E+01  0.95762701881E+02  0.91190325530E+02 0.  0.
         11    1    3    3    0    0  0.23527019218E+02  0.35307351646E+02  0.61317159881E+01  0.42868725836E+02  0.51100000000E-03 0.  1.
         22    1    1    0    0    0  0.25088199867E+02 -0.14685084241E+02 -0.31225197469E+01  0.29237298119E+02  0.00000000000E+00 0. -1.
</event>
<event>
 5    1  0.8778488E-005  0.9118800E+02  0.7818608E-02  0.1130116E+00
         25   -1    0    0    0    0  0.00000000000E+00  0.00000000000E+00  0.99999998245E-14  0.12500000000E+03  0.12500000000E+03 0.  0.
        -11    1    3    3    0    0 -0.12505743036E+01 -0.21707286657E+02  0.34995847427E+02  0.41200480185E+02  0.51100000000E-03 0.  1.
         23    2    1    0    0    0 -0.18786108697E+02 -0.15426767089E+02 -0.16272594543E+02  0.95747643583E+02  0.91169681889E+02 0.  0.
         11    1    3    3    0    0 -0.17535534393E+02  0.62805195681E+01 -0.51268441970E+02  0.54547163398E+02  0.51100000000E-03 0. -1.
         22    1    1    0    0    0  0.18786108697E+02  0.15426767089E+02  0.16272594543E+02  0.29252356417E+02  0.00000000000E+00 0. -1.
</event>
<event>
 5    1  0.8778488E-005  0.9118800E+02  0.7818608E-02  0.1130116E+00
         25   -1    0    0    0    0  0.00000000000E+00  0.00000000000E+00  0.99999998245E-14  0.12500000000E+03  0.12500000000E+03 0.  0.
        -11    1    3    3    0    0 -0.92592827973E+01  0.20489694573E+02  0.22179569641E+02  0.31583147584E+02  0.51100000000E-03 0. -1.
         23    2    1    0    0    0 -0.54863347239E+01 -0.25427747083E+02 -0.18528316244E+02  0.93063051284E+02  0.87411457035E+02 0.  0.
         11    1    3    3    0    0  0.37729480734E+01 -0.45917441656E+02 -0.40707885885E+02  0.61479903700E+02  0.51100000000E-03 0.  1.
         22    1    1    0    0    0  0.54863347239E+01  0.25427747083E+02  0.18528316244E+02  0.31936948716E+02  0.00000000000E+00 0.  1.
</event>
<event>
 5    1  0.8778488E-005  0.9118800E+02  0.7818608E-02  0.1130116E+00
         25   -1    0    0    0    0  0.00000000000E+00  0.00000000000E+00  0.99999998245E-14  0.12500000000E+03  0.12500000000E+03 0.  0.
        -11    1    3    3    0    0 -0.95112694958E+01 -0.43478554997E+02  0.35307763417E+02  0.56810977371E+02  0.51100000000E-03 0.  1.
         23    2    1    0    0    0  0.64916194797E+01 -0.27284472449E+02  0.23665816222E+01  0.96854231777E+02  0.92674472992E+02 0.  0.
         11    1    3    3    0    0  0.16002888976E+02  0.16194082548E+02 -0.32941181795E+02  0.40043254406E+02  0.51100000000E-03 0. -1.
         22    1    1    0    0    0 -0.64916194797E+01  0.27284472449E+02 -0.23665816222E+01  0.28145768223E+02  0.00000000000E+00 0.  1.
</event>
<event>
 5    1  0.8778488E-005  0.9118800E+02  0.7818608E-02  0.1130116E+00
         25   -1    0    0    0    0  0.00000000000E+00  0.00000000000E+00  0.99999998245E-14  0.12500000000E+03  0.12500000000E+03 0.  0.
        -11    1    3    3    0    0  0.12321470024E+02 -0.40294506078E+02  0.13749744016E+02  0.44322920756E+02  0.51100000000E-03 0.  1.
         23    2    1    0    0    0 -0.15126765363E+02  0.17508294056E+01  0.24951368661E+02  0.95768933786E+02  0.91198867573E+02 0.  0.
         11    1    3    3    0    0 -0.27448235387E+02  0.42045335483E+02  0.11201624644E+02  0.51446013030E+02  0.51100000000E-03 0. -1.
         22    1    1    0    0    0  0.15126765363E+02 -0.17508294056E+01 -0.24951368661E+02  0.29231066214E+02  0.00000000000E+00 0. -1.
</event>
<event>
 5    1  0.8778488E-005  0.9118800E+02  0.7818608E-02  0.1130116E+00
         25   -1    0    0    0    0  0.00000000000E+00  0.00000000000E+00  0.99999998245E-14  0.12500000000E+03  0.12500000000E+03 0.  0.
        -11    1    3    3    0    0  0.15690987719E+02 -0.23287207899E+02  0.24066613708E+02  0.36982469400E+02  0.51100000000E-03 0. -1.
         23    2    1    0    0    0  0.14481386458E+02  0.19167389871E-01 -0.27686889049E+02  0.93754604398E+02  0.88394859010E+02 0.  0.
         11    1    3    3    0    0 -0.12096012614E+01  0.23306375288E+02 -0.51753502757E+02  0.56772134997E+02  0.51100000000E-03 0.  1.
         22    1    1    0    0    0 -0.14481386458E+02 -0.19167389871E-01  0.27686889049E+02  0.31245395602E+02  0.00000000000E+00 0.  1.
</event>
<event>
 5    1  0.8778488E-005  0.9118800E+02  0.7818608E-02  0.1130116E+00
         25   -1    0    0    0    0  0.00000000000E+00  0.00000000000E+00  0.99999998245E-14  0.12500000000E+03  0.12500000000E+03 0.  0.
        -11    1    3    3    0    0 -0.31764697661E+02 -0.73184046439E+01  0.15014278383E+02  0.35888488679E+02  0.51100000000E-03 0.  1.
         23    2    1    0    0    0  0.16886837497E+02  0.23190578353E+02 -0.32014173546E+01  0.96134496747E+02  0.91698550625E+02 0.  0.
         11    1    3    3    0    0  0.48651535158E+02  0.30508982997E+02 -0.18215695737E+02  0.60246008068E+02  0.51100000000E-03 0. -1.
         22    1    1    0    0    0 -0.16886837497E+02 -0.23190578353E+02  0.32014173546E+01  0.28865503253E+02  0.00000000000E+00 0. -1.
</event>
<event>
 5    1  0.8778488E-005  0.9118800E+02  0.7818608E-02  0.1130116E+00
         25   -1    0    0    0    0  0.00000000000E+00  0.00000000000E+00  0.99999998245E-14  0.12500000000E+03  0.12500000000E+03 0.  0.
        -11    1    3    3    0    0  0.34706435057E+02  0.21520883537E+02 -0.10700378316E+01  0.40851316304E+02  0.51100000000E-03 0. -1.
         23    2    1    0    0    0 -0.16220888717E+02  0.11252122069E+02 -0.20706527177E+02  0.96390775096E+02  0.92047236646E+02 0.  0.
         11    1    3    3    0    0 -0.50927323774E+02 -0.10268761468E+02 -0.19636489346E+02  0.55539458792E+02  0.51100000000E-03 0.  1.
         22    1    1    0    0    0  0.16220888717E+02 -0.11252122069E+02  0.20706527177E+02  0.28609224904E+02  0.00000000000E+00 0.  1.
</event>
<event>
 5    1  0.8778488E-005  0.9118800E+02  0.7818608E-02  0.1130116E+00
         25   -1    0    0    0    0  0.00000000000E+00  0.00000000000E+00  0.99999998245E-14  0.12500000000E+03  0.12500000000E+03 0.  0.
        -11    1    3    3    0    0  0.38688244818E+02  0.23668068363E+02 -0.35666484435E+02  0.57697971016E+02  0.51100000000E-03 0. -1.
         23    2    1    0    0    0  0.98574149412E+01  0.91230761456E+00 -0.28111670279E+02  0.95196192519E+02  0.90410442592E+02 0.  0.
         11    1    3    3    0    0 -0.28830829877E+02 -0.22755760748E+02  0.75548141563E+01  0.37498221502E+02  0.51100000000E-03 0.  1.
         22    1    1    0    0    0 -0.98574149412E+01 -0.91230761456E+00  0.28111670279E+02  0.29803807481E+02  0.00000000000E+00 0.  1.
</event>
<event>
 5    1  0.8778488E-005  0.9118800E+02  0.7818608E-02  0.1130116E+00
         25   -1    0    0    0    0  0.00000000000E+00  0.00000000000E+00  0.99999998245E-14  0.12500000000E+03  0.12500000000E+03 0.  0.
        -11    1    3    3    0    0 -0.10172191590E+02  0.30687497644E+02 -0.40749066542E+02  0.52016174577E+02  0.51100000000E-03 0.  1.
         23    2    1    0    0    0  0.14568426845E+02  0.32553402347E+02 -0.25788208523E+02  0.80988697316E+02  0.67986574623E+02 0.  0.
         11    1    3    3    0    0  0.24740618436E+02  0.18659047033E+01  0.14960858018E+02  0.28972522739E+02  0.51100000000E-03 0. -1.
         22    1    1    0    0    0 -0.14568426845E+02 -0.32553402347E+02  0.25788208523E+02  0.44011302684E+02  0.00000000000E+00 0.  1.
</event>
<event>
 5    1  0.8778488E-005  0.9118800E+02  0.7818608E-02  0.1130116E+00
         25   -1    0    0    0    0  0.00000000000E+00  0.00000000000E+00  0.99999998245E-14  0.12500000000E+03  0.12500000000E+03 0.  0.
        -11    1    3    3    0    0  0.26956429643E+02 -0.36008309523E+02 -0.22469992391E+02  0.50280692240E+02  0.51100000000E-03 0.  1.
         23    2    1    0    0    0  0.30506259706E+01  0.90570362603E+00 -0.29941725088E+02  0.94889644321E+02  0.89985615963E+02 0.  0.
         11    1    3    3    0    0 -0.23905803673E+02  0.36914013149E+02 -0.74717326963E+01  0.44608952081E+02  0.51100000000E-03 0. -1.
         22    1    1    0    0    0 -0.30506259706E+01 -0.90570362603E+00  0.29941725088E+02  0.30110355679E+02  0.00000000000E+00 0.  1.
</event>
<event>
 5    1  0.8778488E-005  0.9118800E+02  0.7818608E-02  0.1130116E+00
         25   -1    0    0    0    0  0.00000000000E+00  0.00000000000E+00  0.99999998245E-14  0.12500000000E+03  0.12500000000E+03 0.  0.
        -11    1    3    3    0    0  0.14688601479E+01  0.55801444109E+01  0.51636944919E+02  0.51958345264E+02  0.51100000000E-03 0. -1.
         23    2    1    0    0    0  0.16190774748E+02  0.19908765355E+02  0.11852759593E+02  0.96733623599E+02  0.92511652778E+02 0.  0.
         11    1    3    3    0    0  0.14721914600E+02  0.14328620944E+02 -0.39784185326E+02  0.44775278334E+02  0.51100000000E-03 0.  1.
         22    1    1    0    0    0 -0.16190774748E+02 -0.19908765355E+02 -0.11852759593E+02  0.28266376401E+02  0.00000000000E+00 0. -1.
</event>
<event>
 5    1  0.8778488E-005  0.9118800E+02  0.7818608E-02  0.1130116E+00
         25   -1    0    0    0    0  0.00000000000E+00  0.00000000000E+00  0.99999998245E-14  0.12500000000E+03  0.12500000000E+03 0.  0.
        -11    1    3    3    0    0 -0.28463468086E+02  0.33826096258E+02  0.13382524793E+02  0.46189455221E+02  0.51100000000E-03 0.  1.
         23    2    1    0    0    0 -0.35725556468E+01 -0.76881283527E+01  0.27185390310E+02  0.96523414571E+02  0.92227184944E+02 0.  0.
         11    1    3    3    0    0  0.24890912439E+02 -0.41514224610E+02  0.13802865517E+02  0.50333959350E+02  0.51100000000E-03 0. -1.
         22    1    1    0    0    0  0.35725556468E+01  0.76881283527E+01 -0.27185390310E+02  0.28476585429E+02  0.00000000000E+00 0. -1.
</event>
<event>
 5    1  0.8778488E-005  0.9118800E+02  0.7818608E-02  0.1130116E+00
         25   -1    0    0    0    0  0.00000000000E+00  0.00000000000E+00  0.99999998245E-14  0.12500000000E+03  0.12500000000E+03 0.  0.
        -11    1    3    3    0    0  0.49229107575E+02  0.27281866272E+02 -0.16166735107E+02  0.58559103342E+02  0.51100000000E-03 0.  1.
         23    2    1    0    0    0  0.21374643438E+02  0.13265251833E+02 -0.23481036939E+02  0.90587772754E+02  0.83797035679E+02 0.  0.
         11    1    3    3    0    0 -0.27854464138E+02 -0.14016614439E+02 -0.73143018324E+01  0.32028669412E+02  0.51100000000E-03 0. -1.
         22    1    1    0    0    0 -0.21374643438E+02 -0.13265251833E+02  0.23481036939E+02  0.34412227246E+02  0.00000000000E+00 0.  1.
</event>
<event>
 5    1  0.8778488E-005  0.9118800E+02  0.7818608E-02  0.1130116E+00
         25   -1    0    0    0    0  0.00000000000E+00  0.00000000000E+00  0.99999998245E-14  0.12500000000E+03  0.12500000000E+03 0.  0.
        -11    1    3    3    0    0  0.29465995485E+02 -0.17876150485E+02 -0.42701908887E+02  0.54874900173E+02  0.51100000000E-03 0. -1.
         23    2    1    0    0    0  0.84203706075E+01 -0.27002454516E+02 -0.96358190145E+01  0.95118832032E+02  0.90303421906E+02 0.  0.
         11    1    3    3    0    0 -0.21045624878E+02 -0.91263040306E+01  0.33066089873E+02  0.40243931859E+02  0.51100000000E-03 0.  1.
         22    1    1    0    0    0 -0.84203706075E+01  0.27002454516E+02  0.96358190145E+01  0.29881167968E+02  0.00000000000E+00 0. -1.
</event>
<event>
 5    1  0.8778488E-005  0.9118800E+02  0.7818608E-02  0.1130116E+00
         25   -1    0    0    0    0  0.00000000000E+00  0.00000000000E+00  0.99999998245E-14  0.12500000000E+03  0.12500000000E+03 0.  0.
        -11    1    3    3    0    0  0.50843633456E+02 -0.83275721321E+01 -0.28726348995E+02  0.58988360271E+02  0.51100000000E-03 0. -1.
         23    2    1    0    0    0  0.13780623676E+02 -0.92391673816E+01 -0.23208619739E+02  0.96470930036E+02  0.92156022641E+02 0.  0.
         11    1    3    3    0    0 -0.37063009779E+02 -0.91159524955E+00  0.55177292565E+01  0.37482569765E+02  0.51100000000E-03 0.  1.
         22    1    1    0    0    0 -0.13780623676E+02  0.92391673816E+01  0.23208619739E+02  0.28529069964E+02  0.00000000000E+00 0.  1.
</event>
<event>
 5    1  0.8778488E-005  0.9118800E+02  0.7818608E-02  0.1130116E+00
         25   -1    0    0    0    0  0.00000000000E+00  0.00000000000E+00  0.99999998245E-14  0.12500000000E+03  0.12500000000E+03 0.  0.
        -11    1    3    3    0    0  0.36587603599E+01 -0.33969950456E+02 -0.24424092265E+02  0.41998575506E+02  0.51100000000E-03 0.  1.
         23    2    1    0    0    0  0.21540489969E+02  0.15582566191E+02 -0.97272450481E+01  0.96690489700E+02  0.92453352698E+02 0.  0.
         11    1    3    3    0    0  0.17881729609E+02  0.49552516647E+02  0.14696847217E+02  0.54691914194E+02  0.51100000000E-03 0. -1.
         22    1    1    0    0    0 -0.21540489969E+02 -0.15582566191E+02  0.97272450481E+01  0.28309510300E+02  0.00000000000E+00 0.  1.
</event>
<event>
 5    1  0.8778488E-005  0.9118800E+02  0.7818608E-02  0.1130116E+00
         25   -1    0    0    0    0  0.00000000000E+00  0.00000000000E+00  0.99999998245E-14  0.12500000000E+03  0.12500000000E+03 0.  0.
        -11    1    3    3    0    0  0.26616068734E+02 -0.11328757887E+02 -0.27218500548E+02  0.39719046344E+02  0.51100000000E-03 0. -1.
         23    2    1    0    0    0 -0.24071148841E+02  0.96206937329E+01 -0.10174354434E+02  0.97152281196E+02  0.93075616029E+02 0.  0.
         11    1    3    3    0    0 -0.50687217575E+02  0.20949451619E+02  0.17044146114E+02  0.57433234853E+02  0.51100000000E-03 0.  1.
         22    1    1    0    0    0  0.24071148841E+02 -0.96206937329E+01  0.10174354434E+02  0.27847718804E+02  0.00000000000E+00 0.  1.
</event>
<event>
 5    1  0.8778488E-005  0.9118800E+02  0.7818608E-02  0.1130116E+00
         25   -1    0    0    0    0  0.00000000000E+00  0.00000000000E+00  0.99999998245E-14  0.12500000000E+03  0.12500000000E+03 0.  0.
        -11    1    3    3    0    0 -0.36168728530E+02 -0.14956095530E+02  0.34913782080E+02  0.52448392696E+02  0.51100000000E-03 0. -1.
         23    2    1    0    0    0 -0.25977430511E+02  0.14663087960E+02  0.71039123346E+01  0.94335711081E+02  0.89212822903E+02 0.  0.
         11    1    3    3    0    0  0.10191298020E+02  0.29619183490E+02 -0.27809869745E+02  0.41887318385E+02  0.51100000000E-03 0.  1.
         22    1    1    0    0    0  0.25977430511E+02 -0.14663087960E+02 -0.71039123346E+01  0.30664288919E+02  0.00000000000E+00 0. -1.
</event>
<event>
 5    1  0.8778488E-005  0.9118800E+02  0.7818608E-02  0.1130116E+00
         25   -1    0    0    0    0  0.00000000000E+00  0.00000000000E+00  0.99999998245E-14  0.12500000000E+03  0.12500000000E+03 0.  0.
        -11    1    3    3    0    0 -0.17621286554E+02  0.40387293694E+02 -0.46054415631E+01  0.44304100532E+02  0.51100000000E-03 0.  1.
         23    2    1    0    0    0  0.17743232757E+02  0.14887601335E+02  0.20027187651E+02  0.94380541687E+02  0.89275614933E+02 0.  0.
         11    1    3    3    0    0  0.35364519310E+02 -0.25499692359E+02  0.24632629214E+02  0.50076441155E+02  0.51100000000E-03 0. -1.
         22    1    1    0    0    0 -0.17743232757E+02 -0.14887601335E+02 -0.20027187651E+02  0.30619458313E+02  0.00000000000E+00 0. -1.
</event>
<event>
 5    1  0.8778488E-005  0.9118800E+02  0.7818608E-02  0.1130116E+00
         25   -1    0    0    0    0  0.00000000000E+00  0.00000000000E+00  0.99999998245E-14  0.12500000000E+03  0.12500000000E+03 0.  0.
        -11    1    3    3    0    0 -0.41761433001E+02 -0.92762809345E+01 -0.62944943469E+01  0.43239881286E+02  0.51100000000E-03 0. -1.
         23    2    1    0    0    0 -0.30488769969E+00  0.11548586993E+02 -0.28185801189E+02  0.94538512730E+02  0.89496526092E+02 0.  0.
         11    1    3    3    0    0  0.41456545301E+02  0.20824867928E+02 -0.21891306842E+02  0.51298631444E+02  0.51100000000E-03 0.  1.
         22    1    1    0    0    0  0.30488769969E+00 -0.11548586993E+02  0.28185801189E+02  0.30461487270E+02  0.00000000000E+00 0.  1.
</event>
<event>
 5    1  0.8778488E-005  0.9118800E+02  0.7818608E-02  0.1130116E+00
         25   -1    0    0    0    0  0.00000000000E+00  0.00000000000E+00  0.99999998245E-14  0.12500000000E+03  0.12500000000E+03 0.  0.
        -11    1    3    3    0    0 -0.27422127436E+02 -0.10568454029E+02 -0.27985581813E+02  0.40581499275E+02  0.51100000000E-03 0.  1.
         23    2    1    0    0    0 -0.22786025374E+02  0.29438618149E+02 -0.37528953294E+01  0.87584503020E+02  0.79190439796E+02 0.  0.
         11    1    3    3    0    0  0.46361020621E+01  0.40007072178E+02  0.24232686484E+02  0.47003003746E+02  0.51100000000E-03 0. -1.
         22    1    1    0    0    0  0.22786025374E+02 -0.29438618149E+02  0.37528953294E+01  0.37415496980E+02  0.00000000000E+00 0. -1.
</event>
<event>
 5    1  0.8778488E-005  0.9118800E+02  0.7818608E-02  0.1130116E+00
         25   -1    0    0    0    0  0.00000000000E+00  0.00000000000E+00  0.99999998245E-14  0.12500000000E+03  0.12500000000E+03 0.  0.
        -11    1    3    3    0    0 -0.19145872426E+02 -0.42934710559E+02  0.33030813651E+02  0.57454229195E+02  0.51100000000E-03 0.  1.
         23    2    1    0    0    0 -0.44974894336E+01 -0.31156993257E+02  0.23529883050E+01  0.93432260233E+02  0.87937847701E+02 0.  0.
         11    1    3    3    0    0  0.14648382993E+02  0.11777717302E+02 -0.30677825346E+02  0.35978031038E+02  0.51100000000E-03 0. -1.
         22    1    1    0    0    0  0.44974894336E+01  0.31156993257E+02 -0.23529883050E+01  0.31567739767E+02  0.00000000000E+00 0.  1.
</event>
<event>
 5    1  0.8778488E-005  0.9118800E+02  0.7818608E-02  0.1130116E+00
         25   -1    0    0    0    0  0.00000000000E+00  0.00000000000E+00  0.99999998245E-14  0.12500000000E+03  0.12500000000E+03 0.  0.
        -11    1    3    3    0    0  0.10311852129E+02  0.33240608601E+02  0.67073328455E+01  0.35443767699E+02  0.51100000000E-03 0. -1.
         23    2    1    0    0    0 -0.19506768989E+02 -0.15767893478E+02 -0.13806783490E+02  0.96368413047E+02  0.92016864007E+02 0.  0.
         11    1    3    3    0    0 -0.29818621118E+02 -0.49008502079E+02 -0.20514116336E+02  0.60924645348E+02  0.51100000000E-03 0.  1.
         22    1    1    0    0    0  0.19506768989E+02  0.15767893478E+02  0.13806783490E+02  0.28631586953E+02  0.00000000000E+00 0.  1.
</event>
<event>
 5    1  0.8778488E-005  0.9118800E+02  0.7818608E-02  0.1130116E+00
         25   -1    0    0    0    0  0.00000000000E+00  0.00000000000E+00  0.99999998245E-14  0.12500000000E+03  0.12500000000E+03 0.  0.
        -11    1    3    3    0    0 -0.14999553082E+02 -0.54763075710E+02 -0.10894197325E+02  0.57815781492E+02  0.51100000000E-03 0. -1.
         23    2    1    0    0    0 -0.17843804614E+02 -0.19247647267E+02 -0.16665923912E+02  0.93909385528E+02  0.88613466143E+02 0.  0.
         11    1    3    3    0    0 -0.28442515319E+01  0.35515428443E+02 -0.57717265875E+01  0.36093604036E+02  0.51100000000E-03 0.  1.
         22    1    1    0    0    0  0.17843804614E+02  0.19247647267E+02  0.16665923912E+02  0.31090614472E+02  0.00000000000E+00 0. -1.
</event>
<event>
 5    1  0.8778488E-005  0.9118800E+02  0.7818608E-02  0.1130116E+00
         25   -1    0    0    0    0  0.00000000000E+00  0.00000000000E+00  0.99999998245E-14  0.12500000000E+03  0.12500000000E+03 0.  0.
        -11    1    3    3    0    0 -0.27400212346E+02 -0.39445665135E+02  0.10103666013E+02  0.49079692355E+02  0.51100000000E-03 0.  1.
         23    2    1    0    0    0 -0.27668172251E+02  0.71996023564E+01  0.44225524089E+01  0.96070413076E+02  0.91611152536E+02 0.  0.
         11    1    3    3    0    0 -0.26795990491E+00  0.46645267491E+02 -0.56811136037E+01  0.46990720721E+02  0.51100000000E-03 0. -1.
         22    1    1    0    0    0  0.27668172251E+02 -0.71996023564E+01 -0.44225524089E+01  0.28929586924E+02  0.00000000000E+00 0.  1.
</event>
<event>
 5    1  0.8778488E-005  0.9118800E+02  0.7818608E-02  0.1130116E+00
         25   -1    0    0    0    0  0.00000000000E+00  0.00000000000E+00  0.99999998245E-14  0.12500000000E+03  0.12500000000E+03 0.  0.
        -11    1    3    3    0    0 -0.11334930291E+02 -0.10477349802E+02 -0.37156954963E+02  0.40235491869E+02  0.51100000000E-03 0.  1.
         23    2    1    0    0    0 -0.21342220524E+02 -0.10174947059E+01  0.17985506140E+02  0.97071446449E+02  0.92966992057E+02 0.  0.
         11    1    3    3    0    0 -0.10007290233E+02  0.94598550957E+01  0.55142461103E+02  0.56835954579E+02  0.51100000000E-03 0. -1.
         22    1    1    0    0    0  0.21342220524E+02  0.10174947059E+01 -0.17985506140E+02  0.27928553551E+02  0.00000000000E+00 0.  1.
</event>
<event>
 5    1  0.8778488E-005  0.9118800E+02  0.7818608E-02  0.1130116E+00
         25   -1    0    0    0    0  0.00000000000E+00  0.00000000000E+00  0.99999998245E-14  0.12500000000E+03  0.12500000000E+03 0.  0.
        -11    1    3    3    0    0 -0.23598928479E+01 -0.15037706148E+02  0.40909100630E+02  0.43649240716E+02  0.51100000000E-03 0.  1.
         23    2    1    0    0    0 -0.26585387379E+02 -0.11168528569E+02 -0.50300443416E+01  0.95728508774E+02  0.91143442954E+02 0.  0.
         11    1    3    3    0    0 -0.24225494531E+02  0.38691775787E+01 -0.45939144972E+02  0.52079268058E+02  0.51100000000E-03 0. -1.
         22    1    1    0    0    0  0.26585387379E+02  0.11168528569E+02  0.50300443416E+01  0.29271491226E+02  0.00000000000E+00 0. -1.
</event>
<event>
 5    1  0.8778488E-005  0.9118800E+02  0.7818608E-02  0.1130116E+00
         25   -1    0    0    0    0  0.00000000000E+00  0.00000000000E+00  0.99999998245E-14  0.12500000000E+03  0.12500000000E+03 0.  0.
        -11    1    3    3    0    0 -0.14453173989E+02  0.27514103822E+01  0.46158020233E+02  0.48446128117E+02  0.51100000000E-03 0.  1.
         23    2    1    0    0    0 -0.16962636455E+02 -0.26243130866E+02  0.29745875654E+02  0.81857792458E+02  0.69566142013E+02 0.  0.
         11    1    3    3    0    0 -0.25094624656E+01 -0.28994541248E+02 -0.16412144579E+02  0.33411664341E+02  0.51100000000E-03 0. -1.
         22    1    1    0    0    0  0.16962636455E+02  0.26243130866E+02 -0.29745875654E+02  0.43142207542E+02  0.00000000000E+00 0.  1.
</event>
<event>
 5    1  0.8778488E-005  0.9118800E+02  0.7818608E-02  0.1130116E+00
         25   -1    0    0    0    0  0.00000000000E+00  0.00000000000E+00  0.99999998245E-14  0.12500000000E+03  0.12500000000E+03 0.  0.
        -11    1    3    3    0    0  0.13771310989E+02  0.72303796274E+01 -0.38868015509E+02  0.41864663211E+02  0.51100000000E-03 0. -1.
         23    2    1    0    0    0 -0.34998690520E+01 -0.29029326980E+02 -0.31882541616E+01  0.95587147828E+02  0.90949364797E+02 0.  0.
         11    1    3    3    0    0 -0.17271180041E+02 -0.36259706608E+02  0.35679761348E+02  0.53722484616E+02  0.51100000000E-03 0.  1.
         22    1    1    0    0    0  0.34998690520E+01  0.29029326980E+02  0.31882541616E+01  0.29412852172E+02  0.00000000000E+00 0.  1.
</event>
<event>
 5    1  0.8778488E-005  0.9118800E+02  0.7818608E-02  0.1130116E+00
         25   -1    0    0    0    0  0.00000000000E+00  0.00000000000E+00  0.99999998245E-14  0.12500000000E+03  0.12500000000E+03 0.  0.
        -11    1    3    3    0    0 -0.29659141151E+02  0.18380359645E+01  0.47226281821E+02  0.55797533323E+02  0.51100000000E-03 0.  1.
         23    2    1    0    0    0 -0.22552324584E+02  0.14428311312E+02  0.88571332181E+01  0.96800136165E+02  0.92601479692E+02 0.  0.
         11    1    3    3    0    0  0.71068165665E+01  0.12590275348E+02 -0.38369148603E+02  0.41002602842E+02  0.51100000000E-03 0. -1.
         22    1    1    0    0    0  0.22552324584E+02 -0.14428311312E+02 -0.88571332181E+01  0.28199863835E+02  0.00000000000E+00 0.  1.
</event>
<event>
 5    1  0.8778488E-005  0.9118800E+02  0.7818608E-02  0.1130116E+00
         25   -1    0    0    0    0  0.00000000000E+00  0.00000000000E+00  0.99999998245E-14  0.12500000000E+03  0.12500000000E+03 0.  0.
        -11    1    3    3    0    0  0.33882337081E+02 -0.42580835238E+01 -0.17980761128E+02  0.38593416697E+02  0.51100000000E-03 0.  1.
         23    2    1    0    0    0 -0.42177526453E+01  0.25225173696E+02  0.13438402242E+02  0.96109006937E+02  0.91663797293E+02 0.  0.
         11    1    3    3    0    0 -0.38100089727E+02  0.29483257220E+02  0.31419163370E+02  0.57515590239E+02  0.51100000000E-03 0. -1.
         22    1    1    0    0    0  0.42177526453E+01 -0.25225173696E+02 -0.13438402242E+02  0.28890993063E+02  0.00000000000E+00 0. -1.
</event>
<event>
 5    1  0.8778488E-005  0.9118800E+02  0.7818608E-02  0.1130116E+00
         25   -1    0    0    0    0  0.00000000000E+00  0.00000000000E+00  0.99999998245E-14  0.12500000000E+03  0.12500000000E+03 0.  0.
        -11    1    3    3    0    0  0.16680472627E+02 -0.17437210240E+02 -0.33511258841E+02  0.41295265314E+02  0.51100000000E-03 0.  1.
         23    2    1    0    0    0 -0.15365445319E+02 -0.22900706914E+02  0.10048732148E+02  0.95648402006E+02  0.91033513068E+02 0.  0.
         11    1    3    3    0    0 -0.32045917947E+02 -0.54634966743E+01  0.43559990989E+02  0.54353136692E+02  0.51100000000E-03 0. -1.
         22    1    1    0    0    0  0.15365445319E+02  0.22900706914E+02 -0.10048732148E+02  0.29351597994E+02  0.00000000000E+00 0. -1.
</event>
<event>
 5    1  0.8778488E-005  0.9118800E+02  0.7818608E-02  0.1130116E+00
         25   -1    0    0    0    0  0.00000000000E+00  0.00000000000E+00  0.99999998245E-14  0.12500000000E+03  0.12500000000E+03 0.  0.
        -11    1    3    3    0    0  0.49594436921E+02 -0.83525210000E+01  0.12701989726E+02  0.51872086172E+02  0.51100000000E-03 0. -1.
         23    2    1    0    0    0  0.15213352406E+02  0.11166864898E+02  0.25363679235E+02  0.93385743921E+02  0.87871701817E+02 0.  0.
         11    1    3    3    0    0 -0.34381084515E+02  0.19519385898E+02  0.12661689509E+02  0.41513657749E+02  0.51100000000E-03 0.  1.
         22    1    1    0    0    0 -0.15213352406E+02 -0.11166864898E+02 -0.25363679235E+02  0.31614256079E+02  0.00000000000E+00 0. -1.
</event>
<event>
 5    1  0.8778488E-005  0.9118800E+02  0.7818608E-02  0.1130116E+00
         25   -1    0    0    0    0  0.00000000000E+00  0.00000000000E+00  0.99999998245E-14  0.12500000000E+03  0.12500000000E+03 0.  0.
        -11    1    3    3    0    0  0.35450230002E+02 -0.36460993527E+01  0.34557528031E+02  0.49641067591E+02  0.51100000000E-03 0. -1.
         23    2    1    0    0    0 -0.46412142517E+01  0.11485883960E+02  0.29764540244E+02  0.92760362037E+02  0.86977528760E+02 0.  0.
         11    1    3    3    0    0 -0.40091444254E+02  0.15131983313E+02 -0.47929877876E+01  0.43119294446E+02  0.51100000000E-03 0.  1.
         22    1    1    0    0    0  0.46412142517E+01 -0.11485883960E+02 -0.29764540244E+02  0.32239637963E+02  0.00000000000E+00 0.  1.
</event>
<event>
 5    1  0.8778488E-005  0.9118800E+02  0.7818608E-02  0.1130116E+00
         25   -1    0    0    0    0  0.00000000000E+00  0.00000000000E+00  0.99999998245E-14  0.12500000000E+03  0.12500000000E+03 0.  0.
        -11    1    3    3    0    0 -0.12579948261E+02  0.36178227634E+02  0.16925257074E+02  0.41875811398E+02  0.51100000000E-03 0. -1.
         23    2    1    0    0    0  0.19475510490E+02  0.13057826684E+02 -0.18640426929E+02  0.95045570234E+02  0.90201954294E+02 0.  0.
         11    1    3    3    0    0  0.32055458750E+02 -0.23120400950E+02 -0.35565684003E+02  0.53169758836E+02  0.51100000000E-03 0.  1.
         22    1    1    0    0    0 -0.19475510490E+02 -0.13057826684E+02  0.18640426929E+02  0.29954429766E+02  0.00000000000E+00 0.  1.
</event>
<event>
 5    1  0.8778488E-005  0.9118800E+02  0.7818608E-02  0.1130116E+00
         25   -1    0    0    0    0  0.00000000000E+00  0.00000000000E+00  0.99999998245E-14  0.12500000000E+03  0.12500000000E+03 0.  0.
        -11    1    3    3    0    0  0.57068780137E+02  0.18580245279E+02 -0.14205927808E+02  0.61675599439E+02  0.51100000000E-03 0. -1.
         23    2    1    0    0    0  0.25675745753E+02  0.16168212187E+01 -0.90436446599E+01  0.97730134955E+02  0.93848461569E+02 0.  0.
         11    1    3    3    0    0 -0.31393034385E+02 -0.16963424061E+02  0.51622831479E+01  0.36054535516E+02  0.51100000000E-03 0.  1.
         22    1    1    0    0    0 -0.25675745753E+02 -0.16168212187E+01  0.90436446599E+01  0.27269865045E+02  0.00000000000E+00 0. -1.
</event>
<event>
 5    1  0.8778488E-005  0.9118800E+02  0.7818608E-02  0.1130116E+00
         25   -1    0    0    0    0  0.00000000000E+00  0.00000000000E+00  0.99999998245E-14  0.12500000000E+03  0.12500000000E+03 0.  0.
        -11    1    3    3    0    0  0.43246992660E+02 -0.23765564059E+02  0.27436529980E+02  0.56461204263E+02  0.51100000000E-03 0.  1.
         23    2    1    0    0    0  0.18450570490E+02 -0.22797137576E+02 -0.27556940215E+01  0.95542795744E+02  0.90888387245E+02 0.  0.
         11    1    3    3    0    0 -0.24796422170E+02  0.96842648294E+00 -0.30192224001E+02  0.39081591481E+02  0.51100000000E-03 0. -1.
         22    1    1    0    0    0 -0.18450570490E+02  0.22797137576E+02  0.27556940215E+01  0.29457204256E+02  0.00000000000E+00 0.  1.
</event>
<event>
 5    1  0.8778488E-005  0.9118800E+02  0.7818608E-02  0.1130116E+00
         25   -1    0    0    0    0  0.00000000000E+00  0.00000000000E+00  0.99999998245E-14  0.12500000000E+03  0.12500000000E+03 0.  0.
        -11    1    3    3    0    0  0.29894581883E+02  0.18645747949E+02  0.10346996337E+02  0.36720706366E+02  0.51100000000E-03 0. -1.
         23    2    1    0    0    0 -0.20236121903E+01 -0.15068060389E+02 -0.25456547817E+02  0.95349076289E+02  0.90621570678E+02 0.  0.
         11    1    3    3    0    0 -0.31918194074E+02 -0.33713808338E+02 -0.35803544154E+02  0.58628369923E+02  0.51100000000E-03 0.  1.
         22    1    1    0    0    0  0.20236121903E+01  0.15068060389E+02  0.25456547817E+02  0.29650923711E+02  0.00000000000E+00 0.  1.
</event>
<event>
 5    1  0.8778488E-005  0.9118800E+02  0.7818608E-02  0.1130116E+00
         25   -1    0    0    0    0  0.00000000000E+00  0.00000000000E+00  0.99999998245E-14  0.12500000000E+03  0.12500000000E+03 0.  0.
        -11    1    3    3    0    0  0.40030197361E+02 -0.26706335644E+02 -0.44755788564E+01  0.48328830636E+02  0.51100000000E-03 0. -1.
         23    2    1    0    0    0 -0.57825320623E+01 -0.20044515130E+02 -0.18932328550E+02  0.96828146526E+02  0.92639282334E+02 0.  0.
         11    1    3    3    0    0 -0.45812729423E+02  0.66618205140E+01 -0.14456749694E+02  0.48499315889E+02  0.51100000000E-03 0.  1.
         22    1    1    0    0    0  0.57825320623E+01  0.20044515130E+02  0.18932328550E+02  0.28171853474E+02  0.00000000000E+00 0.  1.
</event>
<event>
 5    1  0.8778488E-005  0.9118800E+02  0.7818608E-02  0.1130116E+00
         25   -1    0    0    0    0  0.00000000000E+00  0.00000000000E+00  0.99999998245E-14  0.12500000000E+03  0.12500000000E+03 0.  0.
        -11    1    3    3    0    0  0.21271423533E+02  0.72057530336E+01 -0.21882671382E+02  0.31356779857E+02  0.51100000000E-03 0.  1.
         23    2    1    0    0    0 -0.21306639609E+02  0.30812985849E+00  0.23027788438E+02  0.93625697207E+02  0.88212381794E+02 0.  0.
         11    1    3    3    0    0 -0.42578063142E+02 -0.68976231751E+01  0.44910459820E+02  0.62268917350E+02  0.51100000000E-03 0. -1.
         22    1    1    0    0    0  0.21306639609E+02 -0.30812985849E+00 -0.23027788438E+02  0.31374302793E+02  0.00000000000E+00 0. -1.
</event>
<event>
 5    1  0.8778488E-005  0.9118800E+02  0.7818608E-02  0.1130116E+00
         25   -1    0    0    0    0  0.00000000000E+00  0.00000000000E+00  0.99999998245E-14  0.12500000000E+03  0.12500000000E+03 0.  0.
        -11    1    3    3    0    0  0.33677923833E+02  0.36411710968E+02  0.23381537985E+02  0.54833489476E+02  0.51100000000E-03 0. -1.
         23    2    1    0    0    0  0.91644528364E+01  0.12756185301E+02  0.31453496113E+02  0.89842783429E+02  0.82678267141E+02 0.  0.
         11    1    3    3    0    0 -0.24513470997E+02 -0.23655525666E+02  0.80719581285E+01  0.35009293954E+02  0.51100000000E-03 0.  1.
         22    1    1    0    0    0 -0.91644528364E+01 -0.12756185301E+02 -0.31453496113E+02  0.35157216571E+02  0.00000000000E+00 0. -1.
</event>
<event>
 5    1  0.8778488E-005  0.9118800E+02  0.7818608E-02  0.1130116E+00
         25   -1    0    0    0    0  0.00000000000E+00  0.00000000000E+00  0.99999998245E-14  0.12500000000E+03  0.12500000000E+03 0.  0.
        -11    1    3    3    0    0 -0.25946880492E+02  0.34197417349E+01 -0.46659103946E+02  0.53497731000E+02  0.51100000000E-03 0. -1.
         23    2    1    0    0    0  0.11378471825E+00  0.22073960769E+02 -0.17427187673E+02  0.96875641142E+02  0.92703345600E+02 0.  0.
         11    1    3    3    0    0  0.26060665210E+02  0.18654219034E+02  0.29231916274E+02  0.43377910142E+02  0.51100000000E-03 0.  1.
         22    1    1    0    0    0 -0.11378471825E+00 -0.22073960769E+02  0.17427187673E+02  0.28124358858E+02  0.00000000000E+00 0. -1.
</event>
<event>
 5    1  0.8778488E-005  0.9118800E+02  0.7818608E-02  0.1130116E+00
         25   -1    0    0    0    0  0.00000000000E+00  0.00000000000E+00  0.99999998245E-14  0.12500000000E+03  0.12500000000E+03 0.  0.
        -11    1    3    3    0    0 -0.13475471633E+02 -0.29119112297E+02 -0.20520906846E+02  0.38086987998E+02  0.51100000000E-03 0.  1.
         23    2    1    0    0    0 -0.63485274559E-01 -0.19118483620E+02  0.28948048981E+02  0.90308358555E+02  0.83379191882E+02 0.  0.
         11    1    3    3    0    0  0.13411986359E+02  0.10000628678E+02  0.49468955827E+02  0.52221370557E+02  0.51100000000E-03 0. -1.
         22    1    1    0    0    0  0.63485274559E-01  0.19118483620E+02 -0.28948048981E+02  0.34691641445E+02  0.00000000000E+00 0. -1.
</event>
<event>
 5    1  0.8778488E-005  0.9118800E+02  0.7818608E-02  0.1130116E+00
         25   -1    0    0    0    0  0.00000000000E+00  0.00000000000E+00  0.99999998245E-14  0.12500000000E+03  0.12500000000E+03 0.  0.
        -11    1    3    3    0    0 -0.43977031865E+01 -0.42078796450E+02 -0.19552307012E+01  0.42353132486E+02  0.51100000000E-03 0.  1.
         23    2    1    0    0    0  0.27613540031E+02  0.27621625670E+00 -0.91033443843E+01  0.95923295106E+02  0.91410195146E+02 0.  0.
         11    1    3    3    0    0  0.32011243218E+02  0.42355012707E+02 -0.71481136831E+01  0.53570162621E+02  0.51100000000E-03 0. -1.
         22    1    1    0    0    0 -0.27613540031E+02 -0.27621625670E+00  0.91033443843E+01  0.29076704894E+02  0.00000000000E+00 0. -1.
</event>
<event>
 5    1  0.8778488E-005  0.9118800E+02  0.7818608E-02  0.1130116E+00
         25   -1    0    0    0    0  0.00000000000E+00  0.00000000000E+00  0.99999998245E-14  0.12500000000E+03  0.12500000000E+03 0.  0.
        -11    1    3    3    0    0 -0.20750378407E+02  0.13918535172E+02 -0.41268905948E+02  0.48243408087E+02  0.51100000000E-03 0.  1.
         23    2    1    0    0    0 -0.15043591949E+02 -0.22072956970E+02 -0.93132953158E+01  0.96711087724E+02  0.92481197716E+02 0.  0.
         11    1    3    3    0    0  0.57067864584E+01 -0.35991492142E+02  0.31955610632E+02  0.48467679637E+02  0.51100000000E-03 0. -1.
         22    1    1    0    0    0  0.15043591949E+02  0.22072956970E+02  0.93132953158E+01  0.28288912276E+02  0.00000000000E+00 0. -1.
</event>
<event>
 5    1  0.8778488E-005  0.9118800E+02  0.7818608E-02  0.1130116E+00
         25   -1    0    0    0    0  0.00000000000E+00  0.00000000000E+00  0.99999998245E-14  0.12500000000E+03  0.12500000000E+03 0.  0.
        -11    1    3    3    0    0 -0.20847699285E+02  0.44014176436E+02  0.23905857388E+02  0.54252781593E+02  0.51100000000E-03 0.  1.
         23    2    1    0    0    0 -0.30307389731E+02  0.12926555098E+02  0.55101538984E+01  0.91593481250E+02  0.85284056614E+02 0.  0.
         11    1    3    3    0    0 -0.94596904456E+01 -0.31087621338E+02 -0.18395703489E+02  0.37340699657E+02  0.51100000000E-03 0. -1.
         22    1    1    0    0    0  0.30307389731E+02 -0.12926555098E+02 -0.55101538984E+01  0.33406518750E+02  0.00000000000E+00 0.  1.
</event>
<event>
 5    1  0.8778488E-005  0.9118800E+02  0.7818608E-02  0.1130116E+00
         25   -1    0    0    0    0  0.00000000000E+00  0.00000000000E+00  0.99999998245E-14  0.12500000000E+03  0.12500000000E+03 0.  0.
        -11    1    3    3    0    0  0.24853486449E+02  0.16150397852E+02 -0.16312598660E+02  0.33832410715E+02  0.51100000000E-03 0.  1.
         23    2    1    0    0    0 -0.77693196328E+01 -0.24762783675E+02  0.15207512564E+02  0.94919670526E+02  0.90027316029E+02 0.  0.
         11    1    3    3    0    0 -0.32622806082E+02 -0.40913181528E+02  0.31520111224E+02  0.61087259811E+02  0.51100000000E-03 0. -1.
         22    1    1    0    0    0  0.77693196328E+01  0.24762783675E+02 -0.15207512564E+02  0.30080329474E+02  0.00000000000E+00 0. -1.
</event>
<event>
 5    1  0.8778488E-005  0.9118800E+02  0.7818608E-02  0.1130116E+00
         25   -1    0    0    0    0  0.00000000000E+00  0.00000000000E+00  0.99999998245E-14  0.12500000000E+03  0.12500000000E+03 0.  0.
        -11    1    3    3    0    0  0.17167779544E+02  0.19635554794E+02  0.24208200463E+02  0.35585455406E+02  0.51100000000E-03 0.  1.
         23    2    1    0    0    0 -0.16486049622E+02  0.15019701435E+02 -0.22486996958E+02  0.93329093863E+02  0.87791078509E+02 0.  0.
         11    1    3    3    0    0 -0.33653829165E+02 -0.46158533592E+01 -0.46695197422E+02  0.57743638457E+02  0.51100000000E-03 0. -1.
         22    1    1    0    0    0  0.16486049622E+02 -0.15019701435E+02  0.22486996958E+02  0.31670906137E+02  0.00000000000E+00 0.  1.
</event>
<event>
 5    1  0.8778488E-005  0.9118800E+02  0.7818608E-02  0.1130116E+00
         25   -1    0    0    0    0  0.00000000000E+00  0.00000000000E+00  0.99999998245E-14  0.12500000000E+03  0.12500000000E+03 0.  0.
        -11    1    3    3    0    0 -0.48077103036E+02  0.33072372893E+01  0.34474596702E+01  0.48313876197E+02  0.51100000000E-03 0.  1.
         23    2    1    0    0    0 -0.99975252995E+01 -0.11632011993E+02 -0.23239894713E+02  0.97154947991E+02  0.93079197449E+02 0.  0.
         11    1    3    3    0    0  0.38079577736E+02 -0.14939249282E+02 -0.26687354383E+02  0.48841071793E+02  0.51100000000E-03 0. -1.
         22    1    1    0    0    0  0.99975252995E+01  0.11632011993E+02  0.23239894713E+02  0.27845052009E+02  0.00000000000E+00 0.  1.
</event>
<event>
 5    1  0.8778488E-005  0.9118800E+02  0.7818608E-02  0.1130116E+00
         25   -1    0    0    0    0  0.00000000000E+00  0.00000000000E+00  0.99999998245E-14  0.12500000000E+03  0.12500000000E+03 0.  0.
        -11    1    3    3    0    0 -0.51616142533E+01 -0.94155642647E+01  0.50665544235E+02  0.51790853295E+02  0.51100000000E-03 0. -1.
         23    2    1    0    0    0  0.16685552518E+02  0.13292980023E+02  0.20421180347E+02  0.95468058183E+02  0.90785541501E+02 0.  0.
         11    1    3    3    0    0  0.21847166772E+02  0.22708544288E+02 -0.30244363888E+02  0.43677204888E+02  0.51100000000E-03 0.  1.
         22    1    1    0    0    0 -0.16685552518E+02 -0.13292980023E+02 -0.20421180347E+02  0.29531941817E+02  0.00000000000E+00 0. -1.
</event>
<event>
 5    1  0.8778488E-005  0.9118800E+02  0.7818608E-02  0.1130116E+00
         25   -1    0    0    0    0  0.00000000000E+00  0.00000000000E+00  0.99999998245E-14  0.12500000000E+03  0.12500000000E+03 0.  0.
        -11    1    3    3    0    0 -0.12194719024E+02  0.26988802879E+02  0.46086684899E+02  0.54782197639E+02  0.51100000000E-03 0. -1.
         23    2    1    0    0    0  0.16565211126E+02  0.12127164094E+02  0.19710390734E+02  0.96539960796E+02  0.92249608124E+02 0.  0.
         11    1    3    3    0    0  0.28759930151E+02 -0.14861638786E+02 -0.26376294166E+02  0.41757763157E+02  0.51100000000E-03 0.  1.
         22    1    1    0    0    0 -0.16565211126E+02 -0.12127164094E+02 -0.19710390734E+02  0.28460039204E+02  0.00000000000E+00 0. -1.
</event>
<event>
 5    1  0.8778488E-005  0.9118800E+02  0.7818608E-02  0.1130116E+00
         25   -1    0    0    0    0  0.00000000000E+00  0.00000000000E+00  0.99999998245E-14  0.12500000000E+03  0.12500000000E+03 0.  0.
        -11    1    3    3    0    0 -0.49619045185E+02 -0.36886704910E+02 -0.48002295079E+01  0.62013876252E+02  0.51100000000E-03 0.  1.
         23    2    1    0    0    0 -0.23435676936E+02 -0.15105459641E+02 -0.73429180957E+01  0.96167304833E+02  0.91743262468E+02 0.  0.
         11    1    3    3    0    0  0.26183368249E+02  0.21781245269E+02 -0.25426885879E+01  0.34153428581E+02  0.51100000000E-03 0. -1.
         22    1    1    0    0    0  0.23435676936E+02  0.15105459641E+02  0.73429180957E+01  0.28832695167E+02  0.00000000000E+00 0.  1.
</event>
<event>
 5    1  0.8778488E-005  0.9118800E+02  0.7818608E-02  0.1130116E+00
         25   -1    0    0    0    0  0.00000000000E+00  0.00000000000E+00  0.99999998245E-14  0.12500000000E+03  0.12500000000E+03 0.  0.
        -11    1    3    3    0    0  0.10734805763E+02 -0.29327153555E+02  0.89039043648E+01  0.32474567027E+02  0.51100000000E-03 0.  1.
         23    2    1    0    0    0 -0.30485784850E+02  0.12484823985E+02  0.75408054560E+01  0.91204768757E+02  0.84712408709E+02 0.  0.
         11    1    3    3    0    0 -0.41220590613E+02  0.41811977540E+02 -0.13630989088E+01  0.58730201730E+02  0.51100000000E-03 0. -1.
         22    1    1    0    0    0  0.30485784850E+02 -0.12484823985E+02 -0.75408054560E+01  0.33795231243E+02  0.00000000000E+00 0. -1.
</event>
<event>
 5    1  0.8778488E-005  0.9118800E+02  0.7818608E-02  0.1130116E+00
         25   -1    0    0    0    0  0.00000000000E+00  0.00000000000E+00  0.99999998245E-14  0.12500000000E+03  0.12500000000E+03 0.  0.
        -11    1    3    3    0    0 -0.80430595117E+01  0.18324377844E+02  0.24991820983E+02  0.32016632333E+02  0.51100000000E-03 0. -1.
         23    2    1    0    0    0 -0.44246568434E+01 -0.25591218396E+02 -0.17859214333E+02  0.93481123374E+02  0.88007277219E+02 0.  0.
         11    1    3    3    0    0  0.36184026684E+01 -0.43915596240E+02 -0.42851035316E+02  0.61464491041E+02  0.51100000000E-03 0.  1.
         22    1    1    0    0    0  0.44246568434E+01  0.25591218396E+02  0.17859214333E+02  0.31518876626E+02  0.00000000000E+00 0.  1.
</event>
<event>
 5    1  0.8778488E-005  0.9118800E+02  0.7818608E-02  0.1130116E+00
         25   -1    0    0    0    0  0.00000000000E+00  0.00000000000E+00  0.99999998245E-14  0.12500000000E+03  0.12500000000E+03 0.  0.
        -11    1    3    3    0    0 -0.54982920076E+00  0.16940379146E+02  0.29473077436E+02  0.33999133100E+02  0.51100000000E-03 0.  1.
         23    2    1    0    0    0 -0.12012096248E+02 -0.10994744060E+02 -0.24345936012E+02  0.95710079318E+02  0.91118164104E+02 0.  0.
         11    1    3    3    0    0 -0.11462267047E+02 -0.27935123206E+02 -0.53819013448E+02  0.61710946218E+02  0.51100000000E-03 0. -1.
         22    1    1    0    0    0  0.12012096248E+02  0.10994744060E+02  0.24345936012E+02  0.29289920682E+02  0.00000000000E+00 0. -1.
</event>
<event>
 5    1  0.8778488E-005  0.9118800E+02  0.7818608E-02  0.1130116E+00
         25   -1    0    0    0    0  0.00000000000E+00  0.00000000000E+00  0.99999998245E-14  0.12500000000E+03  0.12500000000E+03 0.  0.
        -11    1    3    3    0    0 -0.27390200675E+02 -0.49903205784E+02  0.13749434610E+02  0.58562786758E+02  0.51100000000E-03 0. -1.
         23    2    1    0    0    0 -0.15920471838E+01 -0.19788299285E+02  0.17686567098E+02  0.98411918863E+02  0.94752201641E+02 0.  0.
         11    1    3    3    0    0  0.25798153491E+02  0.30114906499E+02  0.39371324882E+01  0.39849132105E+02  0.51100000000E-03 0.  1.
         22    1    1    0    0    0  0.15920471838E+01  0.19788299285E+02 -0.17686567098E+02  0.26588081137E+02  0.00000000000E+00 0. -1.
</event>
<event>
 5    1  0.8778488E-005  0.9118800E+02  0.7818608E-02  0.1130116E+00
         25   -1    0    0    0    0  0.00000000000E+00  0.00000000000E+00  0.99999998245E-14  0.12500000000E+03  0.12500000000E+03 0.  0.
        -11    1    3    3    0    0 -0.16763271631E+02  0.18298306572E+02 -0.22959167627E+02  0.33807671874E+02  0.51100000000E-03 0. -1.
         23    2    1    0    0    0  0.14655612672E+02 -0.24411850503E+02  0.82793176157E+01  0.95347470125E+02  0.90619355169E+02 0.  0.
         11    1    3    3    0    0  0.31418884303E+02 -0.42710157075E+02  0.31238485243E+02  0.61539798251E+02  0.51100000000E-03 0.  1.
         22    1    1    0    0    0 -0.14655612672E+02  0.24411850503E+02 -0.82793176157E+01  0.29652529875E+02  0.00000000000E+00 0.  1.
</event>
<event>
 5    1  0.8778488E-005  0.9118800E+02  0.7818608E-02  0.1130116E+00
         25   -1    0    0    0    0  0.00000000000E+00  0.00000000000E+00  0.99999998245E-14  0.12500000000E+03  0.12500000000E+03 0.  0.
        -11    1    3    3    0    0  0.54909267082E+01  0.46500901876E+02  0.21041333508E+02  0.51334412118E+02  0.51100000000E-03 0.  1.
         23    2    1    0    0    0  0.92826681277E+01  0.29182082894E+01  0.27750267792E+02  0.95593177157E+02  0.90957651076E+02 0.  0.
         11    1    3    3    0    0  0.37917414196E+01 -0.43582693587E+02  0.67089342847E+01  0.44258765039E+02  0.51100000000E-03 0. -1.
         22    1    1    0    0    0 -0.92826681277E+01 -0.29182082894E+01 -0.27750267792E+02  0.29406822843E+02  0.00000000000E+00 0.  1.
</event>
<event>
 5    1  0.8778488E-005  0.9118800E+02  0.7818608E-02  0.1130116E+00
         25   -1    0    0    0    0  0.00000000000E+00  0.00000000000E+00  0.99999998245E-14  0.12500000000E+03  0.12500000000E+03 0.  0.
        -11    1    3    3    0    0  0.20618935928E+02 -0.20178716780E+02 -0.18273008938E+02  0.34150021751E+02  0.51100000000E-03 0.  1.
         23    2    1    0    0    0 -0.11203844932E+02  0.27277765778E+02  0.35161617155E+01  0.95302086937E+02  0.90556732130E+02 0.  0.
         11    1    3    3    0    0 -0.31822780860E+02  0.47456482558E+02  0.21789170653E+02  0.61152065186E+02  0.51100000000E-03 0. -1.
         22    1    1    0    0    0  0.11203844932E+02 -0.27277765778E+02 -0.35161617155E+01  0.29697913063E+02  0.00000000000E+00 0. -1.
</event>
<event>
 5    1  0.8778488E-005  0.9118800E+02  0.7818608E-02  0.1130116E+00
         25   -1    0    0    0    0  0.00000000000E+00  0.00000000000E+00  0.99999998245E-14  0.12500000000E+03  0.12500000000E+03 0.  0.
        -11    1    3    3    0    0  0.16158113660E+02 -0.44781022931E+02 -0.98461536093E+01  0.48614518335E+02  0.51100000000E-03 0.  1.
         23    2    1    0    0    0  0.11039312691E+02 -0.18297594657E+01 -0.27482318986E+02  0.95326909476E+02  0.90590989447E+02 0.  0.
         11    1    3    3    0    0 -0.51188009687E+01  0.42951263466E+02 -0.17636165377E+02  0.46712391141E+02  0.51100000000E-03 0. -1.
         22    1    1    0    0    0 -0.11039312691E+02  0.18297594657E+01  0.27482318986E+02  0.29673090524E+02  0.00000000000E+00 0.  1.
</event>
<event>
 5    1  0.8778488E-005  0.9118800E+02  0.7818608E-02  0.1130116E+00
         25   -1    0    0    0    0  0.00000000000E+00  0.00000000000E+00  0.99999998245E-14  0.12500000000E+03  0.12500000000E+03 0.  0.
        -11    1    3    3    0    0 -0.49212811880E+02 -0.64979179531E+01  0.28968609342E+02  0.57474377929E+02  0.51100000000E-03 0.  1.
         23    2    1    0    0    0 -0.11306135880E+02 -0.72390845927E+01  0.26287268931E+02  0.95482995373E+02  0.90806105760E+02 0.  0.
         11    1    3    3    0    0  0.37906676000E+02 -0.74116663953E+00 -0.26813404113E+01  0.38008617444E+02  0.51100000000E-03 0. -1.
         22    1    1    0    0    0  0.11306135880E+02  0.72390845927E+01 -0.26287268931E+02  0.29517004627E+02  0.00000000000E+00 0.  1.
</event>
<event>
 5    1  0.8778488E-005  0.9118800E+02  0.7818608E-02  0.1130116E+00
         25   -1    0    0    0    0  0.00000000000E+00  0.00000000000E+00  0.99999998245E-14  0.12500000000E+03  0.12500000000E+03 0.  0.
        -11    1    3    3    0    0 -0.25714919408E+02  0.14819879995E+02  0.32568972976E+02  0.44063861885E+02  0.51100000000E-03 0. -1.
         23    2    1    0    0    0 -0.17891514297E+02 -0.26503339836E+02  0.12462414894E+02  0.90680252167E+02  0.83934873812E+02 0.  0.
         11    1    3    3    0    0  0.78234051108E+01 -0.41323219831E+02 -0.20106558082E+02  0.46616390282E+02  0.51100000000E-03 0.  1.
         22    1    1    0    0    0  0.17891514297E+02  0.26503339836E+02 -0.12462414894E+02  0.34319747833E+02  0.00000000000E+00 0.  1.
</event>
<event>
 5    1  0.8778488E-005  0.9118800E+02  0.7818608E-02  0.1130116E+00
         25   -1    0    0    0    0  0.00000000000E+00  0.00000000000E+00  0.99999998245E-14  0.12500000000E+03  0.12500000000E+03 0.  0.
        -11    1    3    3    0    0 -0.66488402234E+01  0.98589880545E+01  0.59708621204E+02  0.60881246440E+02  0.51100000000E-03 0.  1.
         23    2    1    0    0    0  0.69639421054E+01  0.44547503581E+01  0.27923088042E+02  0.95878871309E+02  0.91349427077E+02 0.  0.
         11    1    3    3    0    0  0.13612782329E+02 -0.54042376964E+01 -0.31785533162E+02  0.34997624869E+02  0.51100000000E-03 0. -1.
         22    1    1    0    0    0 -0.69639421054E+01 -0.44547503581E+01 -0.27923088042E+02  0.29121128691E+02  0.00000000000E+00 0.  1.
</event>
<event>
 5    1  0.8778488E-005  0.9118800E+02  0.7818608E-02  0.1130116E+00
         25   -1    0    0    0    0  0.00000000000E+00  0.00000000000E+00  0.99999998245E-14  0.12500000000E+03  0.12500000000E+03 0.  0.
        -11    1    3    3    0    0 -0.52541667451E+01  0.56452599732E+02  0.19875425326E+02  0.60079404265E+02  0.51100000000E-03 0.  1.
         23    2    1    0    0    0  0.10115568755E+01  0.20817097586E+02  0.19786787607E+02  0.96261667358E+02  0.91871741246E+02 0.  0.
         11    1    3    3    0    0  0.62657236207E+01 -0.35635502145E+02 -0.88637718570E-01  0.36182263093E+02  0.51100000000E-03 0. -1.
         22    1    1    0    0    0 -0.10115568755E+01 -0.20817097586E+02 -0.19786787607E+02  0.28738332642E+02  0.00000000000E+00 0.  1.
</event>
<event>
 5    1  0.8778488E-005  0.9118800E+02  0.7818608E-02  0.1130116E+00
         25   -1    0    0    0    0  0.00000000000E+00  0.00000000000E+00  0.99999998245E-14  0.12500000000E+03  0.12500000000E+03 0.  0.
        -11    1    3    3    0    0 -0.61496212645E+01 -0.29744770591E+02  0.28324634837E+02  0.41531363547E+02  0.51100000000E-03 0. -1.
         23    2    1    0    0    0  0.14257229224E+02 -0.16303205506E+02 -0.19896319461E+02  0.95590365133E+02  0.90953786525E+02 0.  0.
         11    1    3    3    0    0  0.20406850488E+02  0.13441565085E+02 -0.48220954298E+02  0.54059001586E+02  0.51100000000E-03 0.  1.
         22    1    1    0    0    0 -0.14257229224E+02  0.16303205506E+02  0.19896319461E+02  0.29409634867E+02  0.00000000000E+00 0.  1.
</event>
<event>
 5    1  0.8778488E-005  0.9118800E+02  0.7818608E-02  0.1130116E+00
         25   -1    0    0    0    0  0.00000000000E+00  0.00000000000E+00  0.99999998245E-14  0.12500000000E+03  0.12500000000E+03 0.  0.
        -11    1    3    3    0    0 -0.20924611707E+02 -0.66412759955E+01 -0.55038946035E+02  0.59255645325E+02  0.51100000000E-03 0.  1.
         23    2    1    0    0    0 -0.22327326804E+02  0.10455708383E+01 -0.20488307128E+02  0.94678828031E+02  0.89692290682E+02 0.  0.
         11    1    3    3    0    0 -0.14027150970E+01  0.76868468338E+01  0.34550638907E+02  0.35423182706E+02  0.51100000000E-03 0. -1.
         22    1    1    0    0    0  0.22327326804E+02 -0.10455708383E+01  0.20488307128E+02  0.30321171969E+02  0.00000000000E+00 0.  1.
</event>
<event>
 5    1  0.8778488E-005  0.9118800E+02  0.7818608E-02  0.1130116E+00
         25   -1    0    0    0    0  0.00000000000E+00  0.00000000000E+00  0.99999998245E-14  0.12500000000E+03  0.12500000000E+03 0.  0.
        -11    1    3    3    0    0  0.36642000112E+02  0.21981618429E+02 -0.32221013777E+02  0.53516553047E+02  0.51100000000E-03 0. -1.
         23    2    1    0    0    0  0.12437070098E+02  0.28134013460E+02 -0.55344439308E-01  0.94239530416E+02  0.89077958015E+02 0.  0.
         11    1    3    3    0    0 -0.24204930014E+02  0.61523950308E+01  0.32165669338E+02  0.40722977369E+02  0.51100000000E-03 0.  1.
         22    1    1    0    0    0 -0.12437070098E+02 -0.28134013460E+02  0.55344439308E-01  0.30760469584E+02  0.00000000000E+00 0. -1.
</event>
<event>
 5    1  0.8778488E-005  0.9118800E+02  0.7818608E-02  0.1130116E+00
         25   -1    0    0    0    0  0.00000000000E+00  0.00000000000E+00  0.99999998245E-14  0.12500000000E+03  0.12500000000E+03 0.  0.
        -11    1    3    3    0    0 -0.24827831019E+02 -0.72719740950E+01  0.23174793015E+02  0.34732892651E+02  0.51100000000E-03 0. -1.
         23    2    1    0    0    0  0.28644779210E+02  0.10606262420E+02  0.45138984504E+01  0.94122962291E+02  0.88914231553E+02 0.  0.
         11    1    3    3    0    0  0.53472610229E+02  0.17878236515E+02 -0.18660894565E+02  0.59390069640E+02  0.51100000000E-03 0.  1.
         22    1    1    0    0    0 -0.28644779210E+02 -0.10606262420E+02 -0.45138984504E+01  0.30877037709E+02  0.00000000000E+00 0.  1.
</event>
<event>
 5    1  0.8778488E-005  0.9118800E+02  0.7818608E-02  0.1130116E+00
         25   -1    0    0    0    0  0.00000000000E+00  0.00000000000E+00  0.99999998245E-14  0.12500000000E+03  0.12500000000E+03 0.  0.
        -11    1    3    3    0    0 -0.10819307064E+02  0.29105807913E+01  0.39832578390E+02  0.41378293674E+02  0.51100000000E-03 0. -1.
         23    2    1    0    0    0 -0.23928698023E+02 -0.10715481197E+02 -0.11714241946E+02  0.96283670312E+02  0.91901673423E+02 0.  0.
         11    1    3    3    0    0 -0.13109390960E+02 -0.13626061989E+02 -0.51546820337E+02  0.54905376638E+02  0.51100000000E-03 0.  1.
         22    1    1    0    0    0  0.23928698023E+02  0.10715481197E+02  0.11714241946E+02  0.28716329688E+02  0.00000000000E+00 0.  1.
</event>
<event>
 5    1  0.8778488E-005  0.9118800E+02  0.7818608E-02  0.1130116E+00
         25   -1    0    0    0    0  0.00000000000E+00  0.00000000000E+00  0.99999998245E-14  0.12500000000E+03  0.12500000000E+03 0.  0.
        -11    1    3    3    0    0 -0.46364129299E+01 -0.22203793038E+01  0.59092890916E+02  0.59316070050E+02  0.51100000000E-03 0. -1.
         23    2    1    0    0    0 -0.30364595948E+01 -0.14848334274E+02  0.24334578773E+02  0.96331814818E+02  0.91967133828E+02 0.  0.
         11    1    3    3    0    0  0.15999533351E+01 -0.12627954970E+02 -0.34758312143E+02  0.37015744768E+02  0.51100000000E-03 0.  1.
         22    1    1    0    0    0  0.30364595948E+01  0.14848334274E+02 -0.24334578773E+02  0.28668185182E+02  0.00000000000E+00 0. -1.
</event>
<event>
 5    1  0.8778488E-005  0.9118800E+02  0.7818608E-02  0.1130116E+00
         25   -1    0    0    0    0  0.00000000000E+00  0.00000000000E+00  0.99999998245E-14  0.12500000000E+03  0.12500000000E+03 0.  0.
        -11    1    3    3    0    0 -0.16856909820E+02  0.34913505773E+02 -0.11083309194E+02  0.40323045979E+02  0.51100000000E-03 0. -1.
         23    2    1    0    0    0 -0.12999820786E+02 -0.20562496297E+02 -0.15575119655E+02  0.96114087401E+02  0.91670725153E+02 0.  0.
         11    1    3    3    0    0  0.38570890334E+01 -0.55476002070E+02 -0.44918104613E+01  0.55791041422E+02  0.51100000000E-03 0.  1.
         22    1    1    0    0    0  0.12999820786E+02  0.20562496297E+02  0.15575119655E+02  0.28885912599E+02  0.00000000000E+00 0.  1.
</event>
<event>
 5    1  0.8778488E-005  0.9118800E+02  0.7818608E-02  0.1130116E+00
         25   -1    0    0    0    0  0.00000000000E+00  0.00000000000E+00  0.99999998245E-14  0.12500000000E+03  0.12500000000E+03 0.  0.
        -11    1    3    3    0    0 -0.31946577984E+02  0.16320030190E+02 -0.45279409561E+01  0.36158394321E+02  0.51100000000E-03 0.  1.
         23    2    1    0    0    0  0.14396206999E+02 -0.12144471275E+01  0.26639631476E+02  0.94694957137E+02  0.89714766255E+02 0.  0.
         11    1    3    3    0    0  0.46342784983E+02 -0.17534477317E+02  0.31167572432E+02  0.58536562816E+02  0.51100000000E-03 0. -1.
         22    1    1    0    0    0 -0.14396206999E+02  0.12144471275E+01 -0.26639631476E+02  0.30305042863E+02  0.00000000000E+00 0. -1.
</event>
<event>
 5    1  0.8778488E-005  0.9118800E+02  0.7818608E-02  0.1130116E+00
         25   -1    0    0    0    0  0.00000000000E+00  0.00000000000E+00  0.99999998245E-14  0.12500000000E+03  0.12500000000E+03 0.  0.
        -11    1    3    3    0    0  0.10540642798E+02  0.39596563926E+02 -0.12200473227E+02  0.42753298967E+02  0.51100000000E-03 0. -1.
         23    2    1    0    0    0 -0.10173997500E+02 -0.61206353942E+01 -0.27352449012E+02  0.95181735971E+02  0.90390452996E+02 0.  0.
         11    1    3    3    0    0 -0.20714640297E+02 -0.45717199320E+02 -0.15151975784E+02  0.52428437005E+02  0.51100000000E-03 0.  1.
         22    1    1    0    0    0  0.10173997500E+02  0.61206353942E+01  0.27352449012E+02  0.29818264029E+02  0.00000000000E+00 0.  1.
</event>
<event>
 5    1  0.8778488E-005  0.9118800E+02  0.7818608E-02  0.1130116E+00
         25   -1    0    0    0    0  0.00000000000E+00  0.00000000000E+00  0.99999998245E-14  0.12500000000E+03  0.12500000000E+03 0.  0.
        -11    1    3    3    0    0 -0.61465537032E+02  0.62962732799E+00 -0.78170818414E+01  0.61963823655E+02  0.51100000000E-03 0. -1.
         23    2    1    0    0    0 -0.25817588630E+02  0.51041439815E+01 -0.63809150991E+01  0.97920187483E+02  0.94101258603E+02 0.  0.
         11    1    3    3    0    0  0.35647948402E+02  0.44745166535E+01  0.14361667423E+01  0.35956363828E+02  0.51100000000E-03 0.  1.
         22    1    1    0    0    0  0.25817588630E+02 -0.51041439815E+01  0.63809150991E+01  0.27079812517E+02  0.00000000000E+00 0. -1.
</event>
<event>
 5    1  0.8778488E-005  0.9118800E+02  0.7818608E-02  0.1130116E+00
         25   -1    0    0    0    0  0.00000000000E+00  0.00000000000E+00  0.99999998245E-14  0.12500000000E+03  0.12500000000E+03 0.  0.
        -11    1    3    3    0    0 -0.44411262340E+01  0.25170312213E+02 -0.52379776907E+02  0.58283009944E+02  0.51100000000E-03 0. -1.
         23    2    1    0    0    0 -0.11500783289E+02 -0.14553722093E+01 -0.26484631653E+02  0.96089416500E+02  0.91637078330E+02 0.  0.
         11    1    3    3    0    0 -0.70596570546E+01 -0.26625684422E+02  0.25895145253E+02  0.37806406555E+02  0.51100000000E-03 0.  1.
         22    1    1    0    0    0  0.11500783289E+02  0.14553722093E+01  0.26484631653E+02  0.28910583500E+02  0.00000000000E+00 0. -1.
</event>
<event>
 5    1  0.8778488E-005  0.9118800E+02  0.7818608E-02  0.1130116E+00
         25   -1    0    0    0    0  0.00000000000E+00  0.00000000000E+00  0.99999998245E-14  0.12500000000E+03  0.12500000000E+03 0.  0.
        -11    1    3    3    0    0  0.26546787977E+02 -0.26225707841E+02  0.15540199028E+02  0.40422982198E+02  0.51100000000E-03 0.  1.
         23    2    1    0    0    0  0.24517399605E+02  0.16730132539E+02 -0.13580693613E+02  0.92358991174E+02  0.86398771945E+02 0.  0.
         11    1    3    3    0    0 -0.20293883727E+01  0.42955840380E+02 -0.29120892641E+02  0.51936008976E+02  0.51100000000E-03 0. -1.
         22    1    1    0    0    0 -0.24517399605E+02 -0.16730132539E+02  0.13580693613E+02  0.32641008826E+02  0.00000000000E+00 0. -1.
</event>
<event>
 5    1  0.8778488E-005  0.9118800E+02  0.7818608E-02  0.1130116E+00
         25   -1    0    0    0    0  0.00000000000E+00  0.00000000000E+00  0.99999998245E-14  0.12500000000E+03  0.12500000000E+03 0.  0.
        -11    1    3    3    0    0 -0.37520826612E+02  0.21036490151E+02  0.96726495688E+01  0.44089755017E+02  0.51100000000E-03 0. -1.
         23    2    1    0    0    0 -0.19360216899E+02 -0.15836673580E+02 -0.18472910478E+02  0.93905520587E+02  0.88608014010E+02 0.  0.
         11    1    3    3    0    0  0.18160609713E+02 -0.36873163731E+02 -0.28145560047E+02  0.49815765570E+02  0.51100000000E-03 0.  1.
         22    1    1    0    0    0  0.19360216899E+02  0.15836673580E+02  0.18472910478E+02  0.31094479413E+02  0.00000000000E+00 0.  1.
</event>
<event>
 5    1  0.8778488E-005  0.9118800E+02  0.7818608E-02  0.1130116E+00
         25   -1    0    0    0    0  0.00000000000E+00  0.00000000000E+00  0.99999998245E-14  0.12500000000E+03  0.12500000000E+03 0.  0.
        -11    1    3    3    0    0 -0.31762237357E+02 -0.96030351548E+01 -0.47779538414E+02  0.58171662323E+02  0.51100000000E-03 0. -1.
         23    2    1    0    0    0 -0.10328943013E+02  0.10070484651E+02 -0.28451693555E+02  0.93100147477E+02  0.87464489190E+02 0.  0.
         11    1    3    3    0    0  0.21433294345E+02  0.19673519805E+02  0.19327844859E+02  0.34928485154E+02  0.51100000000E-03 0.  1.
         22    1    1    0    0    0  0.10328943013E+02 -0.10070484651E+02  0.28451693555E+02  0.31899852523E+02  0.00000000000E+00 0. -1.
</event>
<event>
 5    1  0.8778488E-005  0.9118800E+02  0.7818608E-02  0.1130116E+00
         25   -1    0    0    0    0  0.00000000000E+00  0.00000000000E+00  0.99999998245E-14  0.12500000000E+03  0.12500000000E+03 0.  0.
        -11    1    3    3    0    0 -0.34254766123E+02 -0.45116749369E+02  0.10684716850E+01  0.56657318219E+02  0.51100000000E-03 0.  1.
         23    2    1    0    0    0 -0.27493496280E+02 -0.55187191996E+01 -0.15632711229E+01  0.96914551527E+02  0.92755797025E+02 0.  0.
         11    1    3    3    0    0  0.67612698427E+01  0.39598030169E+02 -0.26317428079E+01  0.40257233308E+02  0.51100000000E-03 0. -1.
         22    1    1    0    0    0  0.27493496280E+02  0.55187191996E+01  0.15632711229E+01  0.28085448473E+02  0.00000000000E+00 0.  1.
</event>
<event>
 5    1  0.8778488E-005  0.9118800E+02  0.7818608E-02  0.1130116E+00
         25   -1    0    0    0    0  0.00000000000E+00  0.00000000000E+00  0.99999998245E-14  0.12500000000E+03  0.12500000000E+03 0.  0.
        -11    1    3    3    0    0 -0.51659377957E+02  0.24185550938E+02  0.13777556917E+02  0.58680944777E+02  0.51100000000E-03 0.  1.
         23    2    1    0    0    0 -0.42887004490E+02  0.88967811212E+01 -0.23580090940E+00  0.81199275456E+02  0.68372647046E+02 0.  0.
         11    1    3    3    0    0  0.87723734667E+01 -0.15288769817E+02 -0.14013357826E+02  0.22518330679E+02  0.51100000000E-03 0. -1.
         22    1    1    0    0    0  0.42887004490E+02 -0.88967811212E+01  0.23580090940E+00  0.43800724544E+02  0.00000000000E+00 0.  1.
</event>
<event>
 5    1  0.8778488E-005  0.9118800E+02  0.7818608E-02  0.1130116E+00
         25   -1    0    0    0    0  0.00000000000E+00  0.00000000000E+00  0.99999998245E-14  0.12500000000E+03  0.12500000000E+03 0.  0.
        -11    1    3    3    0    0  0.20035452343E+02  0.95769644386E+01  0.25354349783E+02  0.33704312063E+02  0.51100000000E-03 0.  1.
         23    2    1    0    0    0  0.79093769082E+01  0.13153868787E+02 -0.30437963728E+02  0.90911114083E+02  0.84277983606E+02 0.  0.
         11    1    3    3    0    0 -0.12126075435E+02  0.35769043489E+01 -0.55792313511E+02  0.57206802020E+02  0.51100000000E-03 0. -1.
         22    1    1    0    0    0 -0.79093769082E+01 -0.13153868787E+02  0.30437963728E+02  0.34088885917E+02  0.00000000000E+00 0. -1.
</event>
<event>
 5    1  0.8778488E-005  0.9118800E+02  0.7818608E-02  0.1130116E+00
         25   -1    0    0    0    0  0.00000000000E+00  0.00000000000E+00  0.99999998245E-14  0.12500000000E+03  0.12500000000E+03 0.  0.
        -11    1    3    3    0    0  0.12137680098E+02 -0.43583311115E+02  0.21721711624E+01  0.45294001962E+02  0.51100000000E-03 0. -1.
         23    2    1    0    0    0 -0.19118704224E+02 -0.93873949846E+01 -0.19209119659E+02  0.96318327910E+02  0.91948800848E+02 0.  0.
         11    1    3    3    0    0 -0.31256384322E+02  0.34195916131E+02 -0.21381290822E+02  0.51024325947E+02  0.51100000000E-03 0.  1.
         22    1    1    0    0    0  0.19118704224E+02  0.93873949846E+01  0.19209119659E+02  0.28681672090E+02  0.00000000000E+00 0. -1.
</event>
<event>
 5    1  0.8778488E-005  0.9118800E+02  0.7818608E-02  0.1130116E+00
         25   -1    0    0    0    0  0.00000000000E+00  0.00000000000E+00  0.99999998245E-14  0.12500000000E+03  0.12500000000E+03 0.  0.
        -11    1    3    3    0    0 -0.48132561567E+02  0.11079419303E+02  0.10614784694E+02  0.50519012950E+02  0.51100000000E-03 0. -1.
         23    2    1    0    0    0 -0.20085196901E+02 -0.21133134917E+02 -0.38011311036E+01  0.95598076191E+02  0.90964383403E+02 0.  0.
         11    1    3    3    0    0  0.28047364666E+02 -0.32212554220E+02 -0.14415915798E+02  0.45079063241E+02  0.51100000000E-03 0.  1.
         22    1    1    0    0    0  0.20085196901E+02  0.21133134917E+02  0.38011311036E+01  0.29401923809E+02  0.00000000000E+00 0. -1.
</event>
<event>
 5    1  0.8778488E-005  0.9118800E+02  0.7818608E-02  0.1130116E+00
         25   -1    0    0    0    0  0.00000000000E+00  0.00000000000E+00  0.99999998245E-14  0.12500000000E+03  0.12500000000E+03 0.  0.
        -11    1    3    3    0    0  0.27754877110E+02  0.66324211324E+01 -0.22682414397E+02  0.36452902993E+02  0.51100000000E-03 0.  1.
         23    2    1    0    0    0  0.22610177889E+01 -0.21864299530E+02  0.21065149501E+02  0.94554962327E+02  0.89519498333E+02 0.  0.
         11    1    3    3    0    0 -0.25493859321E+02 -0.28496720663E+02  0.43747563899E+02  0.58102059334E+02  0.51100000000E-03 0. -1.
         22    1    1    0    0    0 -0.22610177889E+01  0.21864299530E+02 -0.21065149501E+02  0.30445037673E+02  0.00000000000E+00 0. -1.
</event>
<event>
 5    1  0.8778488E-005  0.9118800E+02  0.7818608E-02  0.1130116E+00
         25   -1    0    0    0    0  0.00000000000E+00  0.00000000000E+00  0.99999998245E-14  0.12500000000E+03  0.12500000000E+03 0.  0.
        -11    1    3    3    0    0  0.29522559968E+02  0.43681123583E+02  0.22620348941E+02  0.57369872678E+02  0.51100000000E-03 0. -1.
         23    2    1    0    0    0  0.22850616056E+00  0.15650371876E+02  0.22101115813E+02  0.97917797817E+02  0.94098084222E+02 0.  0.
         11    1    3    3    0    0 -0.29294053808E+02 -0.28030751708E+02 -0.51923312811E+00  0.40547925139E+02  0.51100000000E-03 0.  1.
         22    1    1    0    0    0 -0.22850616056E+00 -0.15650371876E+02 -0.22101115813E+02  0.27082202183E+02  0.00000000000E+00 0. -1.
</event>
<event>
 5    1  0.8778488E-005  0.9118800E+02  0.7818608E-02  0.1130116E+00
         25   -1    0    0    0    0  0.00000000000E+00  0.00000000000E+00  0.99999998245E-14  0.12500000000E+03  0.12500000000E+03 0.  0.
        -11    1    3    3    0    0 -0.26030331827E+02 -0.60676494297E+01  0.26489687971E+02  0.37631079093E+02  0.51100000000E-03 0. -1.
         23    2    1    0    0    0  0.19641095685E+02 -0.25552377448E+02  0.27914888127E+01  0.92650517118E+02  0.86819521304E+02 0.  0.
         11    1    3    3    0    0  0.45671427512E+02 -0.19484728019E+02 -0.23698199158E+02  0.55019438025E+02  0.51100000000E-03 0.  1.
         22    1    1    0    0    0 -0.19641095685E+02  0.25552377448E+02 -0.27914888127E+01  0.32349482882E+02  0.00000000000E+00 0.  1.
</event>
<event>
 5    1  0.8778488E-005  0.9118800E+02  0.7818608E-02  0.1130116E+00
         25   -1    0    0    0    0  0.00000000000E+00  0.00000000000E+00  0.99999998245E-14  0.12500000000E+03  0.12500000000E+03 0.  0.
        -11    1    3    3    0    0 -0.96109967765E+01  0.11046887391E+02 -0.23580737610E+02  0.27757092185E+02  0.51100000000E-03 0.  1.
         23    2    1    0    0    0 -0.15818815207E+02  0.17531937072E+02  0.32653230177E+02  0.84703136933E+02  0.74503585371E+02 0.  0.
         11    1    3    3    0    0 -0.62078184309E+01  0.64850496806E+01  0.56233967787E+02  0.56946044748E+02  0.51100000000E-03 0. -1.
         22    1    1    0    0    0  0.15818815207E+02 -0.17531937072E+02 -0.32653230177E+02  0.40296863067E+02  0.00000000000E+00 0. -1.
</event>
<event>
 5    1  0.8778488E-005  0.9118800E+02  0.7818608E-02  0.1130116E+00
         25   -1    0    0    0    0  0.00000000000E+00  0.00000000000E+00  0.99999998245E-14  0.12500000000E+03  0.12500000000E+03 0.  0.
        -11    1    3    3    0    0 -0.55650681479E+01 -0.24483520349E+02  0.21468242005E+02  0.33034802364E+02  0.51100000000E-03 0. -1.
         23    2    1    0    0    0  0.11487186712E+02  0.19629064624E+02 -0.19066022335E+02  0.95322250013E+02  0.90584559961E+02 0.  0.
         11    1    3    3    0    0  0.17052254860E+02  0.44112584973E+02 -0.40534264341E+02  0.62287447650E+02  0.51100000000E-03 0.  1.
         22    1    1    0    0    0 -0.11487186712E+02 -0.19629064624E+02  0.19066022335E+02  0.29677749987E+02  0.00000000000E+00 0.  1.
</event>
<event>
 5    1  0.8778488E-005  0.9118800E+02  0.7818608E-02  0.1130116E+00
         25   -1    0    0    0    0  0.00000000000E+00  0.00000000000E+00  0.99999998245E-14  0.12500000000E+03  0.12500000000E+03 0.  0.
        -11    1    3    3    0    0 -0.48576963747E+02  0.30385608711E+01  0.37104007770E+02  0.61201810855E+02  0.51100000000E-03 0.  1.
         23    2    1    0    0    0 -0.18367556834E+02  0.40043122929E+01  0.24906977728E+02  0.93794885026E+02  0.88451801884E+02 0.  0.
         11    1    3    3    0    0  0.30209406913E+02  0.96575142178E+00 -0.12197030041E+02  0.32593074171E+02  0.51100000000E-03 0. -1.
         22    1    1    0    0    0  0.18367556834E+02 -0.40043122929E+01 -0.24906977728E+02  0.31205114974E+02  0.00000000000E+00 0.  1.
</event>
<event>
 5    1  0.8778488E-005  0.9118800E+02  0.7818608E-02  0.1130116E+00
         25   -1    0    0    0    0  0.00000000000E+00  0.00000000000E+00  0.99999998245E-14  0.12500000000E+03  0.12500000000E+03 0.  0.
        -11    1    3    3    0    0  0.39194312831E+02  0.36866891237E+02  0.11574031589E+02  0.55039259037E+02  0.51100000000E-03 0.  1.
         23    2    1    0    0    0  0.92002565313E+01  0.10950845393E+02 -0.16161573228E+02  0.10341847586E+03  0.10114157881E+03 0.  0.
         11    1    3    3    0    0 -0.29994056300E+02 -0.25916045844E+02 -0.27735604817E+02  0.48379216822E+02  0.51100000000E-03 0. -1.
         22    1    1    0    0    0 -0.92002565313E+01 -0.10950845393E+02  0.16161573228E+02  0.21581524141E+02  0.00000000000E+00 0.  1.
</event>
<event>
 5    1  0.8778488E-005  0.9118800E+02  0.7818608E-02  0.1130116E+00
         25   -1    0    0    0    0  0.00000000000E+00  0.00000000000E+00  0.99999998245E-14  0.12500000000E+03  0.12500000000E+03 0.  0.
        -11    1    3    3    0    0 -0.96998210944E+01  0.58201047090E+02  0.14739249330E+01  0.59022206555E+02  0.51100000000E-03 0. -1.
         23    2    1    0    0    0 -0.17784984253E+02  0.23352813167E+02 -0.45365592407E+01  0.95297476245E+02  0.90550367537E+02 0.  0.
         11    1    3    3    0    0 -0.80851631586E+01 -0.34848233922E+02 -0.60104841737E+01  0.36275269690E+02  0.51100000000E-03 0.  1.
         22    1    1    0    0    0  0.17784984253E+02 -0.23352813167E+02  0.45365592407E+01  0.29702523755E+02  0.00000000000E+00 0. -1.
</event>
<event>
 5    1  0.8778488E-005  0.9118800E+02  0.7818608E-02  0.1130116E+00
         25   -1    0    0    0    0  0.00000000000E+00  0.00000000000E+00  0.99999998245E-14  0.12500000000E+03  0.12500000000E+03 0.  0.
        -11    1    3    3    0    0  0.19986621976E-01  0.26477186493E+02  0.21443878250E+02  0.34071714349E+02  0.51100000000E-03 0.  1.
         23    2    1    0    0    0 -0.29758246084E+02 -0.15554845031E+02  0.20631817664E+02  0.85589616672E+02  0.75976339528E+02 0.  0.
         11    1    3    3    0    0 -0.29778232706E+02 -0.42032031524E+02 -0.81206058599E+00  0.51517902323E+02  0.51100000000E-03 0. -1.
         22    1    1    0    0    0  0.29758246084E+02  0.15554845031E+02 -0.20631817664E+02  0.39410383328E+02  0.00000000000E+00 0. -1.
</event>
<event>
 5    1  0.8778488E-005  0.9118800E+02  0.7818608E-02  0.1130116E+00
         25   -1    0    0    0    0  0.00000000000E+00  0.00000000000E+00  0.99999998245E-14  0.12500000000E+03  0.12500000000E+03 0.  0.
        -11    1    3    3    0    0  0.36290870860E+02  0.19798568081E+02  0.41775763904E+02  0.58772655682E+02  0.51100000000E-03 0.  1.
         23    2    1    0    0    0  0.24832135985E+01  0.11481613763E+02  0.24911559561E+02  0.97457676130E+02  0.93484859910E+02 0.  0.
         11    1    3    3    0    0 -0.33807657262E+02 -0.83169543180E+01 -0.16864204343E+02  0.38685020448E+02  0.51100000000E-03 0. -1.
         22    1    1    0    0    0 -0.24832135985E+01 -0.11481613763E+02 -0.24911559561E+02  0.27542323870E+02  0.00000000000E+00 0.  1.
</event>
<event>
 5    1  0.8778488E-005  0.9118800E+02  0.7818608E-02  0.1130116E+00
         25   -1    0    0    0    0  0.00000000000E+00  0.00000000000E+00  0.99999998245E-14  0.12500000000E+03  0.12500000000E+03 0.  0.
        -11    1    3    3    0    0 -0.18572377298E+01  0.34310352648E+02  0.13011757178E+02  0.36741739969E+02  0.51100000000E-03 0.  1.
         23    2    1    0    0    0 -0.21741367616E+02 -0.17785049373E+02 -0.71145765809E+01  0.96023936656E+02  0.91547715230E+02 0.  0.
         11    1    3    3    0    0 -0.19884129886E+02 -0.52095402021E+02 -0.20126333759E+02  0.59282196686E+02  0.51100000000E-03 0. -1.
         22    1    1    0    0    0  0.21741367616E+02  0.17785049373E+02  0.71145765809E+01  0.28976063344E+02  0.00000000000E+00 0. -1.
</event>
<event>
 5    1  0.8778488E-005  0.9118800E+02  0.7818608E-02  0.1130116E+00
         25   -1    0    0    0    0  0.00000000000E+00  0.00000000000E+00  0.99999998245E-14  0.12500000000E+03  0.12500000000E+03 0.  0.
        -11    1    3    3    0    0 -0.26158900630E+02 -0.50276828935E+01 -0.37030561823E+02  0.45616095697E+02  0.51100000000E-03 0.  1.
         23    2    1    0    0    0  0.40596677297E+01  0.26325373269E+02 -0.15295184315E+02  0.94284387633E+02  0.89140882363E+02 0.  0.
         11    1    3    3    0    0  0.30218568360E+02  0.31353056162E+02  0.21735377507E+02  0.48668291937E+02  0.51100000000E-03 0. -1.
         22    1    1    0    0    0 -0.40596677297E+01 -0.26325373269E+02  0.15295184315E+02  0.30715612367E+02  0.00000000000E+00 0.  1.
</event>
<event>
 5    1  0.8778488E-005  0.9118800E+02  0.7818608E-02  0.1130116E+00
         25   -1    0    0    0    0  0.00000000000E+00  0.00000000000E+00  0.99999998245E-14  0.12500000000E+03  0.12500000000E+03 0.  0.
        -11    1    3    3    0    0 -0.28770701719E+02  0.33688584249E+02 -0.19413506655E+02  0.48368980008E+02  0.51100000000E-03 0.  1.
         23    2    1    0    0    0 -0.27656199248E+02 -0.96416202470E+01 -0.37887126764E+00  0.95708879480E+02  0.91116518097E+02 0.  0.
         11    1    3    3    0    0  0.11145024703E+01 -0.43330204496E+02  0.19034635387E+02  0.47339899472E+02  0.51100000000E-03 0. -1.
         22    1    1    0    0    0  0.27656199248E+02  0.96416202470E+01  0.37887126764E+00  0.29291120520E+02  0.00000000000E+00 0. -1.
</event>
<event>
 5    1  0.8778488E-005  0.9118800E+02  0.7818608E-02  0.1130116E+00
         25   -1    0    0    0    0  0.00000000000E+00  0.00000000000E+00  0.99999998245E-14  0.12500000000E+03  0.12500000000E+03 0.  0.
        -11    1    3    3    0    0  0.12824800607E+02 -0.13221050511E+02 -0.26122966162E+02  0.31963745847E+02  0.51100000000E-03 0. -1.
         23    2    1    0    0    0 -0.33466715893E+01  0.10848489089E+02  0.28784265247E+02  0.94057733566E+02  0.88822482467E+02 0.  0.
         11    1    3    3    0    0 -0.16171472196E+02  0.24069539601E+02  0.54907231409E+02  0.62093987719E+02  0.51100000000E-03 0.  1.
         22    1    1    0    0    0  0.33466715893E+01 -0.10848489089E+02 -0.28784265247E+02  0.30942266434E+02  0.00000000000E+00 0.  1.
</event>
<event>
 5    1  0.8778488E-005  0.9118800E+02  0.7818608E-02  0.1130116E+00
         25   -1    0    0    0    0  0.00000000000E+00  0.00000000000E+00  0.99999998245E-14  0.12500000000E+03  0.12500000000E+03 0.  0.
        -11    1    3    3    0    0  0.13794930539E+02 -0.23834611804E+02 -0.34226899727E+02  0.43930279918E+02  0.51100000000E-03 0.  1.
         23    2    1    0    0    0 -0.27036813898E+02 -0.21440732411E+01 -0.10315261416E+02  0.95982919274E+02  0.91491692620E+02 0.  0.
         11    1    3    3    0    0 -0.40831744437E+02  0.21690538563E+02  0.23911638312E+02  0.52052639356E+02  0.51100000000E-03 0. -1.
         22    1    1    0    0    0  0.27036813898E+02  0.21440732411E+01  0.10315261416E+02  0.29017080726E+02  0.00000000000E+00 0.  1.
</event>
<event>
 5    1  0.8778488E-005  0.9118800E+02  0.7818608E-02  0.1130116E+00
         25   -1    0    0    0    0  0.00000000000E+00  0.00000000000E+00  0.99999998245E-14  0.12500000000E+03  0.12500000000E+03 0.  0.
        -11    1    3    3    0    0  0.45895987663E+02  0.39905521547E+02  0.18538395887E+01  0.60846767005E+02  0.51100000000E-03 0. -1.
         23    2    1    0    0    0  0.20315509881E+02  0.18280479809E+02  0.10953752208E+02  0.95557164348E+02  0.90908146428E+02 0.  0.
         11    1    3    3    0    0 -0.25580477782E+02 -0.21625041738E+02  0.90999126198E+01  0.34710397343E+02  0.51100000000E-03 0.  1.
         22    1    1    0    0    0 -0.20315509881E+02 -0.18280479809E+02 -0.10953752208E+02  0.29442835652E+02  0.00000000000E+00 0. -1.
</event>
<event>
 5    1  0.8778488E-005  0.9118800E+02  0.7818608E-02  0.1130116E+00
         25   -1    0    0    0    0  0.00000000000E+00  0.00000000000E+00  0.99999998245E-14  0.12500000000E+03  0.12500000000E+03 0.  0.
        -11    1    3    3    0    0  0.55084806166E+01 -0.21265496755E+02  0.53756521402E+02  0.58071751346E+02  0.51100000000E-03 0. -1.
         23    2    1    0    0    0 -0.42266475559E+01  0.49124388843E+01  0.28647546838E+02  0.95628610091E+02  0.91006332322E+02 0.  0.
         11    1    3    3    0    0 -0.97351281724E+01  0.26177935639E+02 -0.25108974564E+02  0.37556858744E+02  0.51100000000E-03 0.  1.
         22    1    1    0    0    0  0.42266475559E+01 -0.49124388843E+01 -0.28647546838E+02  0.29371389909E+02  0.00000000000E+00 0. -1.
</event>
<event>
 5    1  0.8778488E-005  0.9118800E+02  0.7818608E-02  0.1130116E+00
         25   -1    0    0    0    0  0.00000000000E+00  0.00000000000E+00  0.99999998245E-14  0.12500000000E+03  0.12500000000E+03 0.  0.
        -11    1    3    3    0    0 -0.33437249173E+02  0.68977132956E+01 -0.72262498516E+01  0.34897661357E+02  0.51100000000E-03 0.  1.
         23    2    1    0    0    0  0.22573638051E+02 -0.10304413268E+02 -0.17832360365E+02  0.94442789004E+02  0.89362728534E+02 0.  0.
         11    1    3    3    0    0  0.56010887225E+02 -0.17202126564E+02 -0.10606110513E+02  0.59545127647E+02  0.51100000000E-03 0. -1.
         22    1    1    0    0    0 -0.22573638051E+02  0.10304413268E+02  0.17832360365E+02  0.30557210996E+02  0.00000000000E+00 0. -1.
</event>
<event>
 5    1  0.8778488E-005  0.9118800E+02  0.7818608E-02  0.1130116E+00
         25   -1    0    0    0    0  0.00000000000E+00  0.00000000000E+00  0.99999998245E-14  0.12500000000E+03  0.12500000000E+03 0.  0.
        -11    1    3    3    0    0  0.12859161921E+02  0.52791057719E+00  0.47797671902E+02  0.49500042166E+02  0.51100000000E-03 0.  1.
         23    2    1    0    0    0 -0.11781508894E+02 -0.21745315519E+02  0.15602460380E+02  0.95757916135E+02  0.91183765187E+02 0.  0.
         11    1    3    3    0    0 -0.24640670815E+02 -0.22273226096E+02 -0.32195211522E+02  0.46257873969E+02  0.51100000000E-03 0. -1.
         22    1    1    0    0    0  0.11781508894E+02  0.21745315519E+02 -0.15602460380E+02  0.29242083865E+02  0.00000000000E+00 0.  1.
</event>
<event>
 5    1  0.8778488E-005  0.9118800E+02  0.7818608E-02  0.1130116E+00
         25   -1    0    0    0    0  0.00000000000E+00  0.00000000000E+00  0.99999998245E-14  0.12500000000E+03  0.12500000000E+03 0.  0.
        -11    1    3    3    0    0 -0.51000512025E+01  0.49030491161E+02 -0.30070632049E+02  0.57742899978E+02  0.51100000000E-03 0. -1.
         23    2    1    0    0    0  0.99021826195E+01  0.34910768225E+02 -0.81837011458E+01  0.87800699965E+02  0.79530968756E+02 0.  0.
         11    1    3    3    0    0  0.15002233822E+02 -0.14119722936E+02  0.21886930903E+02  0.30057799987E+02  0.51100000000E-03 0.  1.
         22    1    1    0    0    0 -0.99021826195E+01 -0.34910768225E+02  0.81837011458E+01  0.37199300035E+02  0.00000000000E+00 0. -1.
</event>
<event>
 5    1  0.8778488E-005  0.9118800E+02  0.7818608E-02  0.1130116E+00
         25   -1    0    0    0    0  0.00000000000E+00  0.00000000000E+00  0.99999998245E-14  0.12500000000E+03  0.12500000000E+03 0.  0.
        -11    1    3    3    0    0  0.42193192244E+02  0.26365994391E+02 -0.18992865907E+02  0.53255610856E+02  0.51100000000E-03 0.  1.
         23    2    1    0    0    0  0.14357983055E+02  0.19914313304E+02  0.13869317931E+02  0.96802668005E+02  0.92604897285E+02 0.  0.
         11    1    3    3    0    0 -0.27835209189E+02 -0.64516810869E+01  0.32862183839E+02  0.43547057149E+02  0.51100000000E-03 0. -1.
         22    1    1    0    0    0 -0.14357983055E+02 -0.19914313304E+02 -0.13869317931E+02  0.28197331995E+02  0.00000000000E+00 0. -1.
</event>
<event>
 5    1  0.8778488E-005  0.9118800E+02  0.7818608E-02  0.1130116E+00
         25   -1    0    0    0    0  0.00000000000E+00  0.00000000000E+00  0.99999998245E-14  0.12500000000E+03  0.12500000000E+03 0.  0.
        -11    1    3    3    0    0  0.13309880202E+02 -0.45700290595E+02  0.39716119197E+02  0.61992254321E+02  0.51100000000E-03 0. -1.
         23    2    1    0    0    0  0.90344572611E+01 -0.22799134754E+02  0.13722918693E+02  0.96897678726E+02  0.92733056034E+02 0.  0.
         11    1    3    3    0    0 -0.42754229410E+01  0.22901155840E+02 -0.25993200505E+02  0.34905424405E+02  0.51100000000E-03 0.  1.
         22    1    1    0    0    0 -0.90344572611E+01  0.22799134754E+02 -0.13722918693E+02  0.28102321274E+02  0.00000000000E+00 0. -1.
</event>
<event>
 5    1  0.8778488E-005  0.9118800E+02  0.7818608E-02  0.1130116E+00
         25   -1    0    0    0    0  0.00000000000E+00  0.00000000000E+00  0.99999998245E-14  0.12500000000E+03  0.12500000000E+03 0.  0.
        -11    1    3    3    0    0  0.23025092292E+02  0.16133454657E+02  0.21436455895E+02  0.35354842325E+02  0.51100000000E-03 0. -1.
         23    2    1    0    0    0 -0.38309388985E+01 -0.30685238152E+02 -0.15897825897E+01  0.94035708599E+02  0.88791481290E+02 0.  0.
         11    1    3    3    0    0 -0.26856031191E+02 -0.46818692809E+02 -0.23026238485E+02  0.58680866274E+02  0.51100000000E-03 0.  1.
         22    1    1    0    0    0  0.38309388985E+01  0.30685238152E+02  0.15897825897E+01  0.30964291401E+02  0.00000000000E+00 0.  1.
</event>
<event>
 5    1  0.8778488E-005  0.9118800E+02  0.7818608E-02  0.1130116E+00
         25   -1    0    0    0    0  0.00000000000E+00  0.00000000000E+00  0.99999998245E-14  0.12500000000E+03  0.12500000000E+03 0.  0.
        -11    1    3    3    0    0 -0.30549773720E+02 -0.87828185415E+01 -0.18314188608E+02  0.36685638614E+02  0.51100000000E-03 0.  1.
         23    2    1    0    0    0  0.79511671308E+01  0.34534447646E+01  0.26557347830E+02  0.97063642627E+02  0.92956498734E+02 0.  0.
         11    1    3    3    0    0  0.38500940851E+02  0.12236263306E+02  0.44871536438E+02  0.60378004013E+02  0.51100000000E-03 0. -1.
         22    1    1    0    0    0 -0.79511671308E+01 -0.34534447646E+01 -0.26557347830E+02  0.27936357373E+02  0.00000000000E+00 0. -1.
</event>
<event>
 5    1  0.8778488E-005  0.9118800E+02  0.7818608E-02  0.1130116E+00
         25   -1    0    0    0    0  0.00000000000E+00  0.00000000000E+00  0.99999998245E-14  0.12500000000E+03  0.12500000000E+03 0.  0.
        -11    1    3    3    0    0  0.19605295856E+02 -0.10835483279E+02 -0.28457048698E+02  0.36215727859E+02  0.51100000000E-03 0. -1.
         23    2    1    0    0    0 -0.18240965390E+02  0.23911006601E+02 -0.45997245117E-01  0.94925572811E+02  0.90035510787E+02 0.  0.
         11    1    3    3    0    0 -0.37846261246E+02  0.34746489880E+02  0.28411051453E+02  0.58709844951E+02  0.51100000000E-03 0.  1.
         22    1    1    0    0    0  0.18240965390E+02 -0.23911006601E+02  0.45997245117E-01  0.30074427189E+02  0.00000000000E+00 0.  1.
</event>
<event>
 5    1  0.8778488E-005  0.9118800E+02  0.7818608E-02  0.1130116E+00
         25   -1    0    0    0    0  0.00000000000E+00  0.00000000000E+00  0.99999998245E-14  0.12500000000E+03  0.12500000000E+03 0.  0.
        -11    1    3    3    0    0  0.33421807150E+02  0.88838375629E+01 -0.83128743768E+01  0.35567452026E+02  0.51100000000E-03 0.  1.
         23    2    1    0    0    0 -0.27550648412E+02  0.44219089157E+01 -0.31109192721E+01  0.96923865560E+02  0.92768347996E+02 0.  0.
         11    1    3    3    0    0 -0.60972455562E+02 -0.44619286472E+01  0.52019551047E+01  0.61356413533E+02  0.51100000000E-03 0. -1.
         22    1    1    0    0    0  0.27550648412E+02 -0.44219089157E+01  0.31109192721E+01  0.28076134440E+02  0.00000000000E+00 0. -1.
</event>
<event>
 4    1  0.8778488E-005  0.9118800E+02  0.7818608E-02  0.1130116E+00
         25   -1    0    0    0    0  0.00000000000E+00  0.00000000000E+00  0.99999998245E-14  0.12500000000E+03  0.12500000000E+03 0.  0.
        -11    1    1    0    0    0  0.62466253524E+01  0.74088447102E+01  0.89289864583E+01  0.13177181325E+02  0.51100000000E-03 0.  1.
         11    1    1    0    0    0 -0.42739995194E+02  0.30632390493E+02 -0.22798713777E+02  0.57313452929E+02  0.51100000000E-03 0. -1.
         22    1    1    0    0    0  0.36493369841E+02 -0.38041235203E+02  0.13869727319E+02  0.54509365746E+02  0.00000000000E+00 0. -1.
</event>
<event>
 5    1  0.8778488E-005  0.9118800E+02  0.7818608E-02  0.1130116E+00
         25   -1    0    0    0    0  0.00000000000E+00  0.00000000000E+00  0.99999998245E-14  0.12500000000E+03  0.12500000000E+03 0.  0.
        -11    1    3    3    0    0  0.17945313660E+02 -0.19555054761E+02 -0.23867240978E+02  0.35694252215E+02  0.51100000000E-03 0.  1.
         23    2    1    0    0    0 -0.24172824446E+02 -0.36768099326E+01  0.15964044516E+02  0.95799056688E+02  0.91240145616E+02 0.  0.
         11    1    3    3    0    0 -0.42118138106E+02  0.15878244829E+02  0.39831285494E+02  0.60104804473E+02  0.51100000000E-03 0. -1.
         22    1    1    0    0    0  0.24172824446E+02  0.36768099326E+01 -0.15964044516E+02  0.29200943312E+02  0.00000000000E+00 0. -1.
</event>
<event>
 5    1  0.8778488E-005  0.9118800E+02  0.7818608E-02  0.1130116E+00
         25   -1    0    0    0    0  0.00000000000E+00  0.00000000000E+00  0.99999998245E-14  0.12500000000E+03  0.12500000000E+03 0.  0.
        -11    1    3    3    0    0 -0.88947193813E+01 -0.20856685114E+02 -0.15948039778E+02  0.27721062747E+02  0.51100000000E-03 0.  1.
         23    2    1    0    0    0  0.18539097738E+02  0.31340904274E+02 -0.91518525056E+00  0.88574898906E+02  0.80738619795E+02 0.  0.
         11    1    3    3    0    0  0.27433817119E+02  0.52197589388E+02  0.15032854528E+02  0.60853836158E+02  0.51100000000E-03 0. -1.
         22    1    1    0    0    0 -0.18539097738E+02 -0.31340904274E+02  0.91518525056E+00  0.36425101094E+02  0.00000000000E+00 0. -1.
</event>
<event>
 5    1  0.8778488E-005  0.9118800E+02  0.7818608E-02  0.1130116E+00
         25   -1    0    0    0    0  0.00000000000E+00  0.00000000000E+00  0.99999998245E-14  0.12500000000E+03  0.12500000000E+03 0.  0.
        -11    1    3    3    0    0  0.40145463427E+01  0.32193942805E+02  0.27349470306E+02  0.42433006751E+02  0.51100000000E-03 0. -1.
         23    2    1    0    0    0  0.71245655907E+01  0.16342810361E+02 -0.23337617088E+02  0.95631798545E+02  0.91010711656E+02 0.  0.
         11    1    3    3    0    0  0.31100192480E+01 -0.15851132444E+02 -0.50687087395E+02  0.53198791793E+02  0.51100000000E-03 0.  1.
         22    1    1    0    0    0 -0.71245655907E+01 -0.16342810361E+02  0.23337617088E+02  0.29368201455E+02  0.00000000000E+00 0.  1.
</event>
<event>
 5    1  0.8778488E-005  0.9118800E+02  0.7818608E-02  0.1130116E+00
         25   -1    0    0    0    0  0.00000000000E+00  0.00000000000E+00  0.99999998245E-14  0.12500000000E+03  0.12500000000E+03 0.  0.
        -11    1    3    3    0    0  0.16903510383E+02  0.15361173335E+02 -0.29295521604E+02  0.37147299980E+02  0.51100000000E-03 0. -1.
         23    2    1    0    0    0 -0.57135640349E+01 -0.29620584423E+02 -0.11867350279E+01  0.94810064995E+02  0.89875003470E+02 0.  0.
         11    1    3    3    0    0 -0.22617074418E+02 -0.44981757758E+02  0.28108786576E+02  0.57662765016E+02  0.51100000000E-03 0.  1.
         22    1    1    0    0    0  0.57135640349E+01  0.29620584423E+02  0.11867350279E+01  0.30189935005E+02  0.00000000000E+00 0.  1.
</event>
<event>
 5    1  0.8778488E-005  0.9118800E+02  0.7818608E-02  0.1130116E+00
         25   -1    0    0    0    0  0.00000000000E+00  0.00000000000E+00  0.99999998245E-14  0.12500000000E+03  0.12500000000E+03 0.  0.
        -11    1    3    3    0    0 -0.27934000415E+02  0.48225623455E+02 -0.13376545069E+02  0.57314492888E+02  0.51100000000E-03 0.  1.
         23    2    1    0    0    0 -0.13453905016E+02  0.12934638524E+02 -0.21720728957E+02  0.96362568196E+02  0.92008923746E+02 0.  0.
         11    1    3    3    0    0  0.14480095399E+02 -0.35290984931E+02 -0.83441838884E+01  0.39048075307E+02  0.51100000000E-03 0. -1.
         22    1    1    0    0    0  0.13453905016E+02 -0.12934638524E+02  0.21720728957E+02  0.28637431804E+02  0.00000000000E+00 0.  1.
</event>
<event>
 5    1  0.8778488E-005  0.9118800E+02  0.7818608E-02  0.1130116E+00
         25   -1    0    0    0    0  0.00000000000E+00  0.00000000000E+00  0.99999998245E-14  0.12500000000E+03  0.12500000000E+03 0.  0.
        -11    1    3    3    0    0  0.58642899123E+02  0.13065684579E+02  0.29194721720E+01  0.60151683676E+02  0.51100000000E-03 0.  1.
         23    2    1    0    0    0  0.19493576774E+02 -0.57946423195E+01  0.62229961440E+01  0.10373258135E+03  0.10152903692E+03 0.  0.
         11    1    3    3    0    0 -0.39149322349E+02 -0.18860326898E+02  0.33035239719E+01  0.43580897673E+02  0.51100000000E-03 0. -1.
         22    1    1    0    0    0 -0.19493576774E+02  0.57946423195E+01 -0.62229961440E+01  0.21267418651E+02  0.00000000000E+00 0.  1.
</event>
<event>
 5    1  0.8778488E-005  0.9118800E+02  0.7818608E-02  0.1130116E+00
         25   -1    0    0    0    0  0.00000000000E+00  0.00000000000E+00  0.99999998245E-14  0.12500000000E+03  0.12500000000E+03 0.  0.
        -11    1    3    3    0    0 -0.22005398045E+02 -0.79137415046E+01  0.41462052454E+02  0.47602170556E+02  0.51100000000E-03 0.  1.
         23    2    1    0    0    0 -0.74692307294E+01  0.26746732239E+02  0.17565781810E+02  0.92140697151E+02  0.86082369204E+02 0.  0.
         11    1    3    3    0    0  0.14536167315E+02  0.34660473743E+02 -0.23896270644E+02  0.44538526595E+02  0.51100000000E-03 0. -1.
         22    1    1    0    0    0  0.74692307294E+01 -0.26746732239E+02 -0.17565781810E+02  0.32859302849E+02  0.00000000000E+00 0.  1.
</event>
<event>
 5    1  0.8778488E-005  0.9118800E+02  0.7818608E-02  0.1130116E+00
         25   -1    0    0    0    0  0.00000000000E+00  0.00000000000E+00  0.99999998245E-14  0.12500000000E+03  0.12500000000E+03 0.  0.
        -11    1    3    3    0    0 -0.52192289069E+02  0.19957999606E+02 -0.21313098422E+02  0.59804723485E+02  0.51100000000E-03 0.  1.
         23    2    1    0    0    0 -0.17021387039E+02  0.19087732968E+02 -0.14368774116E+02  0.95665194117E+02  0.91056567744E+02 0.  0.
         11    1    3    3    0    0  0.35170902030E+02 -0.87026663731E+00  0.69443243060E+01  0.35860470632E+02  0.51100000000E-03 0. -1.
         22    1    1    0    0    0  0.17021387039E+02 -0.19087732968E+02  0.14368774116E+02  0.29334805883E+02  0.00000000000E+00 0.  1.
</event>
<event>
 5    1  0.8778488E-005  0.9118800E+02  0.7818608E-02  0.1130116E+00
         25   -1    0    0    0    0  0.00000000000E+00  0.00000000000E+00  0.99999998245E-14  0.12500000000E+03  0.12500000000E+03 0.  0.
        -11    1    3    3    0    0  0.20586014039E+02  0.61120696572E+01  0.33068158775E+02  0.39428980389E+02  0.51100000000E-03 0.  1.
         23    2    1    0    0    0  0.14088977918E+02  0.11244628002E+02 -0.22815525345E+02  0.95922703798E+02  0.91409386550E+02 0.  0.
         11    1    3    3    0    0 -0.64970361218E+01  0.51325583447E+01 -0.55883684120E+02  0.56493723409E+02  0.51100000000E-03 0. -1.
         22    1    1    0    0    0 -0.14088977918E+02 -0.11244628002E+02  0.22815525345E+02  0.29077296202E+02  0.00000000000E+00 0. -1.
</event>
<event>
 5    1  0.8778488E-005  0.9118800E+02  0.7818608E-02  0.1130116E+00
         25   -1    0    0    0    0  0.00000000000E+00  0.00000000000E+00  0.99999998245E-14  0.12500000000E+03  0.12500000000E+03 0.  0.
        -11    1    3    3    0    0 -0.47486706092E+02  0.90340030978E+01  0.62236838943E+01  0.48737405644E+02  0.51100000000E-03 0.  1.
         23    2    1    0    0    0 -0.46619345161E+01  0.14675036746E+02  0.24841374592E+02  0.95773569691E+02  0.91205221467E+02 0.  0.
         11    1    3    3    0    0  0.42824771576E+02  0.56410336485E+01  0.18617690698E+02  0.47036164048E+02  0.51100000000E-03 0. -1.
         22    1    1    0    0    0  0.46619345161E+01 -0.14675036746E+02 -0.24841374592E+02  0.29226430309E+02  0.00000000000E+00 0.  1.
</event>
<event>
 5    1  0.8778488E-005  0.9118800E+02  0.7818608E-02  0.1130116E+00
         25   -1    0    0    0    0  0.00000000000E+00  0.00000000000E+00  0.99999998245E-14  0.12500000000E+03  0.12500000000E+03 0.  0.
        -11    1    3    3    0    0 -0.28404104158E+02  0.28302967418E+02 -0.45428895400E+01  0.40354540554E+02  0.51100000000E-03 0. -1.
         23    2    1    0    0    0  0.11966024387E+02  0.76874380930E+01  0.26243675472E+02  0.95150160028E+02  0.90346776407E+02 0.  0.
         11    1    3    3    0    0  0.40370128545E+02 -0.20615529325E+02  0.30786565012E+02  0.54795619475E+02  0.51100000000E-03 0.  1.
         22    1    1    0    0    0 -0.11966024387E+02 -0.76874380930E+01 -0.26243675472E+02  0.29849839972E+02  0.00000000000E+00 0.  1.
</event>
<event>
 5    1  0.8778488E-005  0.9118800E+02  0.7818608E-02  0.1130116E+00
         25   -1    0    0    0    0  0.00000000000E+00  0.00000000000E+00  0.99999998245E-14  0.12500000000E+03  0.12500000000E+03 0.  0.
        -11    1    3    3    0    0 -0.42218141265E+02 -0.25759925289E+02  0.22697480390E+02  0.54416181592E+02  0.51100000000E-03 0.  1.
         23    2    1    0    0    0 -0.39776076960E+01 -0.27856734492E+02  0.13433270225E+02  0.93818727280E+02  0.88485489318E+02 0.  0.
         11    1    3    3    0    0  0.38240533569E+02 -0.20968092031E+01 -0.92642101654E+01  0.39402545688E+02  0.51100000000E-03 0. -1.
         22    1    1    0    0    0  0.39776076960E+01  0.27856734492E+02 -0.13433270225E+02  0.31181272720E+02  0.00000000000E+00 0.  1.
</event>
<event>
 5    1  0.8778488E-005  0.9118800E+02  0.7818608E-02  0.1130116E+00
         25   -1    0    0    0    0  0.00000000000E+00  0.00000000000E+00  0.99999998245E-14  0.12500000000E+03  0.12500000000E+03 0.  0.
        -11    1    3    3    0    0  0.12652640776E+02 -0.16125166627E+02 -0.29962912030E+02  0.36302705339E+02  0.51100000000E-03 0.  1.
         23    2    1    0    0    0 -0.17535198818E+02 -0.10820113538E+02  0.20877050542E+02  0.95667265830E+02  0.91059411691E+02 0.  0.
         11    1    3    3    0    0 -0.30187839594E+02  0.53050530890E+01  0.50839962572E+02  0.59364560491E+02  0.51100000000E-03 0. -1.
         22    1    1    0    0    0  0.17535198818E+02  0.10820113538E+02 -0.20877050542E+02  0.29332734170E+02  0.00000000000E+00 0. -1.
</event>
<event>
 5    1  0.8778488E-005  0.9118800E+02  0.7818608E-02  0.1130116E+00
         25   -1    0    0    0    0  0.00000000000E+00  0.00000000000E+00  0.99999998245E-14  0.12500000000E+03  0.12500000000E+03 0.  0.
        -11    1    3    3    0    0  0.28258817104E+02  0.22574775870E+02 -0.40370869243E+02  0.54203213313E+02  0.51100000000E-03 0.  1.
         23    2    1    0    0    0 -0.15560397732E+01 -0.15324929192E+01 -0.31326832357E+02  0.93597130388E+02  0.88171892330E+02 0.  0.
         11    1    3    3    0    0 -0.29814856877E+02 -0.24107268789E+02  0.90440368860E+01  0.39393917075E+02  0.51100000000E-03 0. -1.
         22    1    1    0    0    0  0.15560397732E+01  0.15324929192E+01  0.31326832357E+02  0.31402869612E+02  0.00000000000E+00 0. -1.
</event>
<event>
 5    1  0.8778488E-005  0.9118800E+02  0.7818608E-02  0.1130116E+00
         25   -1    0    0    0    0  0.00000000000E+00  0.00000000000E+00  0.99999998245E-14  0.12500000000E+03  0.12500000000E+03 0.  0.
        -11    1    3    3    0    0 -0.12740202992E+02 -0.54132384902E+02 -0.17735926759E+02  0.58371148401E+02  0.51100000000E-03 0.  1.
         23    2    1    0    0    0  0.85559254520E+01 -0.26912401568E+02 -0.10711474601E+01  0.96739982743E+02  0.92520244734E+02 0.  0.
         11    1    3    3    0    0  0.21296128444E+02  0.27219983333E+02  0.16664779299E+02  0.38368834341E+02  0.51100000000E-03 0. -1.
         22    1    1    0    0    0 -0.85559254520E+01  0.26912401568E+02  0.10711474601E+01  0.28260017257E+02  0.00000000000E+00 0.  1.
</event>
<event>
 5    1  0.8778488E-005  0.9118800E+02  0.7818608E-02  0.1130116E+00
         25   -1    0    0    0    0  0.00000000000E+00  0.00000000000E+00  0.99999998245E-14  0.12500000000E+03  0.12500000000E+03 0.  0.
        -11    1    3    3    0    0  0.47934503344E+02  0.62530570254E+00  0.31156909112E+02  0.57173950395E+02  0.51100000000E-03 0.  1.
         23    2    1    0    0    0  0.15878955985E+02 -0.15394510043E+02  0.21192322934E+02  0.94369186528E+02  0.89259714496E+02 0.  0.
         11    1    3    3    0    0 -0.32055547360E+02 -0.16019815745E+02 -0.99645861781E+01  0.37195236133E+02  0.51100000000E-03 0. -1.
         22    1    1    0    0    0 -0.15878955985E+02  0.15394510043E+02 -0.21192322934E+02  0.30630813472E+02  0.00000000000E+00 0.  1.
</event>
<event>
 5    1  0.8778488E-005  0.9118800E+02  0.7818608E-02  0.1130116E+00
         25   -1    0    0    0    0  0.00000000000E+00  0.00000000000E+00  0.99999998245E-14  0.12500000000E+03  0.12500000000E+03 0.  0.
        -11    1    3    3    0    0  0.36977642170E+01 -0.15941243041E+02  0.53203120645E+02  0.55662992522E+02  0.51100000000E-03 0.  1.
         23    2    1    0    0    0 -0.15721835527E+02 -0.15941043186E+02  0.16498627329E+02  0.97188173847E+02  0.93123807170E+02 0.  0.
         11    1    3    3    0    0 -0.19419599744E+02  0.19985462149E-03 -0.36704493316E+02  0.41525181325E+02  0.51100000000E-03 0. -1.
         22    1    1    0    0    0  0.15721835527E+02  0.15941043186E+02 -0.16498627329E+02  0.27811826153E+02  0.00000000000E+00 0.  1.
</event>
<event>
 5    1  0.8778488E-005  0.9118800E+02  0.7818608E-02  0.1130116E+00
         25   -1    0    0    0    0  0.00000000000E+00  0.00000000000E+00  0.99999998245E-14  0.12500000000E+03  0.12500000000E+03 0.  0.
        -11    1    3    3    0    0  0.91419833035E+01 -0.19639838512E+02  0.47460342283E+02  0.52170712142E+02  0.51100000000E-03 0. -1.
         23    2    1    0    0    0  0.51952533759E+01 -0.28725789169E+02  0.54872466942E+01  0.95296944647E+02  0.90549633692E+02 0.  0.
         11    1    3    3    0    0 -0.39467299276E+01 -0.90859506574E+01 -0.41973095589E+02  0.43126232505E+02  0.51100000000E-03 0.  1.
         22    1    1    0    0    0 -0.51952533759E+01  0.28725789169E+02 -0.54872466942E+01  0.29703055353E+02  0.00000000000E+00 0. -1.
</event>
<event>
 5    1  0.8778488E-005  0.9118800E+02  0.7818608E-02  0.1130116E+00
         25   -1    0    0    0    0  0.00000000000E+00  0.00000000000E+00  0.99999998245E-14  0.12500000000E+03  0.12500000000E+03 0.  0.
        -11    1    3    3    0    0  0.20452054186E+01  0.32733562105E+02 -0.98261052103E+01  0.34237717465E+02  0.51100000000E-03 0. -1.
         23    2    1    0    0    0  0.16532424201E+02 -0.18722140049E+02  0.17721920178E+02  0.94374748446E+02  0.89267503110E+02 0.  0.
         11    1    3    3    0    0  0.14487218782E+02 -0.51455702154E+02  0.27548025388E+02  0.60137030981E+02  0.51100000000E-03 0.  1.
         22    1    1    0    0    0 -0.16532424201E+02  0.18722140049E+02 -0.17721920178E+02  0.30625251554E+02  0.00000000000E+00 0.  1.
</event>
<event>
 5    1  0.8778488E-005  0.9118800E+02  0.7818608E-02  0.1130116E+00
         25   -1    0    0    0    0  0.00000000000E+00  0.00000000000E+00  0.99999998245E-14  0.12500000000E+03  0.12500000000E+03 0.  0.
        -11    1    3    3    0    0 -0.23199577379E+02 -0.29337329988E+02 -0.35751353526E+01  0.37572342413E+02  0.51100000000E-03 0.  1.
         23    2    1    0    0    0  0.13738655563E+02  0.68884043991E+01  0.24229266598E+02  0.96307524824E+02  0.91934113396E+02 0.  0.
         11    1    3    3    0    0  0.36938232942E+02  0.36225734387E+02  0.27804401951E+02  0.58735182411E+02  0.51100000000E-03 0. -1.
         22    1    1    0    0    0 -0.13738655563E+02 -0.68884043991E+01 -0.24229266598E+02  0.28692475176E+02  0.00000000000E+00 0. -1.
</event>
<event>
 5    1  0.8778488E-005  0.9118800E+02  0.7818608E-02  0.1130116E+00
         25   -1    0    0    0    0  0.00000000000E+00  0.00000000000E+00  0.99999998245E-14  0.12500000000E+03  0.12500000000E+03 0.  0.
        -11    1    3    3    0    0  0.24004468088E+02  0.48022465203E+02  0.17630357473E+02  0.56508416694E+02  0.51100000000E-03 0.  1.
         23    2    1    0    0    0  0.21839483260E+02  0.90829685990E+01  0.17615660216E+02  0.95508054787E+02  0.90840594982E+02 0.  0.
         11    1    3    3    0    0 -0.21649848282E+01 -0.38939496604E+02 -0.14697256769E-01  0.38999638093E+02  0.51100000000E-03 0. -1.
         22    1    1    0    0    0 -0.21839483260E+02 -0.90829685990E+01 -0.17615660216E+02  0.29491945213E+02  0.00000000000E+00 0.  1.
</event>
<event>
 5    1  0.8778488E-005  0.9118800E+02  0.7818608E-02  0.1130116E+00
         25   -1    0    0    0    0  0.00000000000E+00  0.00000000000E+00  0.99999998245E-14  0.12500000000E+03  0.12500000000E+03 0.  0.
        -11    1    3    3    0    0  0.31685541522E+02 -0.23422858828E+01 -0.41200795216E+02  0.52028505374E+02  0.51100000000E-03 0.  1.
         23    2    1    0    0    0 -0.96770507525E-01 -0.22378124735E+02 -0.18818829640E+02  0.95760674081E+02  0.91187545861E+02 0.  0.
         11    1    3    3    0    0 -0.31782312030E+02 -0.20035838853E+02  0.22381965577E+02  0.43732168707E+02  0.51100000000E-03 0. -1.
         22    1    1    0    0    0  0.96770507525E-01  0.22378124735E+02  0.18818829640E+02  0.29239325919E+02  0.00000000000E+00 0. -1.
</event>
<event>
 5    1  0.8778488E-005  0.9118800E+02  0.7818608E-02  0.1130116E+00
         25   -1    0    0    0    0  0.00000000000E+00  0.00000000000E+00  0.99999998245E-14  0.12500000000E+03  0.12500000000E+03 0.  0.
        -11    1    3    3    0    0  0.39744412163E+02  0.61832667744E+01  0.10168036009E+02  0.41487830055E+02  0.51100000000E-03 0.  1.
         23    2    1    0    0    0 -0.37834810282E-01 -0.29323986462E+02  0.66768343097E+01  0.94925463762E+02  0.90035359390E+02 0.  0.
         11    1    3    3    0    0 -0.39782246973E+02 -0.35507253237E+02 -0.34912016991E+01  0.53437633707E+02  0.51100000000E-03 0. -1.
         22    1    1    0    0    0  0.37834810282E-01  0.29323986462E+02 -0.66768343097E+01  0.30074536238E+02  0.00000000000E+00 0. -1.
</event>
<event>
 5    1  0.8778488E-005  0.9118800E+02  0.7818608E-02  0.1130116E+00
         25   -1    0    0    0    0  0.00000000000E+00  0.00000000000E+00  0.99999998245E-14  0.12500000000E+03  0.12500000000E+03 0.  0.
        -11    1    3    3    0    0 -0.45625945698E+01 -0.56040433064E+02  0.78878219865E+01  0.56776448842E+02  0.51100000000E-03 0. -1.
         23    2    1    0    0    0 -0.20179191989E+02 -0.19700084486E+02  0.26680381451E+01  0.96673130324E+02  0.92429879266E+02 0.  0.
         11    1    3    3    0    0 -0.15616597419E+02  0.36340348577E+02 -0.52197838414E+01  0.39896681482E+02  0.51100000000E-03 0.  1.
         22    1    1    0    0    0  0.20179191989E+02  0.19700084486E+02 -0.26680381451E+01  0.28326869676E+02  0.00000000000E+00 0. -1.
</event>
<event>
 5    1  0.8778488E-005  0.9118800E+02  0.7818608E-02  0.1130116E+00
         25   -1    0    0    0    0  0.00000000000E+00  0.00000000000E+00  0.99999998245E-14  0.12500000000E+03  0.12500000000E+03 0.  0.
        -11    1    3    3    0    0  0.22124493369E+02  0.44385173377E+02  0.35077663022E+02  0.60745199529E+02  0.51100000000E-03 0.  1.
         23    2    1    0    0    0  0.86915513219E+01  0.19631221520E+02  0.31809095851E+01  0.10329640333E+03  0.10099059774E+03 0.  0.
         11    1    3    3    0    0 -0.13432942047E+02 -0.24753951857E+02 -0.31896753437E+02  0.42551203798E+02  0.51100000000E-03 0. -1.
         22    1    1    0    0    0 -0.86915513219E+01 -0.19631221520E+02 -0.31809095851E+01  0.21703596673E+02  0.00000000000E+00 0.  1.
</event>
<event>
 5    1  0.8778488E-005  0.9118800E+02  0.7818608E-02  0.1130116E+00
         25   -1    0    0    0    0  0.00000000000E+00  0.00000000000E+00  0.99999998245E-14  0.12500000000E+03  0.12500000000E+03 0.  0.
        -11    1    3    3    0    0 -0.47973717939E+02 -0.21291900673E+02 -0.13697351148E+01  0.52504274318E+02  0.51100000000E-03 0. -1.
         23    2    1    0    0    0 -0.16870808042E+02 -0.80927917263E+01  0.23864154220E+02  0.94674840502E+02  0.89686733275E+02 0.  0.
         11    1    3    3    0    0  0.31102909897E+02  0.13199108947E+02  0.25233889335E+02  0.42170566184E+02  0.51100000000E-03 0.  1.
         22    1    1    0    0    0  0.16870808042E+02  0.80927917263E+01 -0.23864154220E+02  0.30325159498E+02  0.00000000000E+00 0. -1.
</event>
<event>
 5    1  0.8778488E-005  0.9118800E+02  0.7818608E-02  0.1130116E+00
         25   -1    0    0    0    0  0.00000000000E+00  0.00000000000E+00  0.99999998245E-14  0.12500000000E+03  0.12500000000E+03 0.  0.
        -11    1    3    3    0    0 -0.17800981263E+02  0.51950457101E+02 -0.29665454004E+02  0.62416056335E+02  0.51100000000E-03 0.  1.
         23    2    1    0    0    0 -0.61511849761E+01  0.24753179806E+02 -0.14412714148E+02  0.95703527239E+02  0.91109175222E+02 0.  0.
         11    1    3    3    0    0  0.11649796287E+02 -0.27197277295E+02  0.15252739855E+02  0.33287470903E+02  0.51100000000E-03 0. -1.
         22    1    1    0    0    0  0.61511849761E+01 -0.24753179806E+02  0.14412714148E+02  0.29296472761E+02  0.00000000000E+00 0.  1.
</event>
<event>
 5    1  0.8778488E-005  0.9118800E+02  0.7818608E-02  0.1130116E+00
         25   -1    0    0    0    0  0.00000000000E+00  0.00000000000E+00  0.99999998245E-14  0.12500000000E+03  0.12500000000E+03 0.  0.
        -11    1    3    3    0    0 -0.66301751266E+01 -0.25659791625E+02  0.50420844460E+02  0.56961791446E+02  0.51100000000E-03 0.  1.
         23    2    1    0    0    0  0.22746488843E+01 -0.33632477050E+02  0.38124840621E+02  0.74109715932E+02  0.53874195893E+02 0.  0.
         11    1    3    3    0    0  0.89048240109E+01 -0.79726854248E+01 -0.12296003838E+02  0.17147924487E+02  0.51100000000E-03 0. -1.
         22    1    1    0    0    0 -0.22746488843E+01  0.33632477050E+02 -0.38124840621E+02  0.50890284068E+02  0.00000000000E+00 0.  1.
</event>
<event>
 5    1  0.8778488E-005  0.9118800E+02  0.7818608E-02  0.1130116E+00
         25   -1    0    0    0    0  0.00000000000E+00  0.00000000000E+00  0.99999998245E-14  0.12500000000E+03  0.12500000000E+03 0.  0.
        -11    1    3    3    0    0  0.18139985626E+02  0.10921509352E+02 -0.36790911662E+02  0.42448906066E+02  0.51100000000E-03 0.  1.
         23    2    1    0    0    0 -0.25912705540E+02  0.69241616318E+01 -0.25248853878E+02  0.88163646423E+02  0.80099385802E+02 0.  0.
         11    1    3    3    0    0 -0.44052691166E+02 -0.39973477200E+01  0.11542057784E+02  0.45714740357E+02  0.51100000000E-03 0. -1.
         22    1    1    0    0    0  0.25912705540E+02 -0.69241616318E+01  0.25248853878E+02  0.36836353577E+02  0.00000000000E+00 0.  1.
</event>
<event>
 5    1  0.8778488E-005  0.9118800E+02  0.7818608E-02  0.1130116E+00
         25   -1    0    0    0    0  0.00000000000E+00  0.00000000000E+00  0.99999998245E-14  0.12500000000E+03  0.12500000000E+03 0.  0.
        -11    1    3    3    0    0 -0.15302937536E+01  0.41037868391E+02  0.24873833937E+01  0.41141651857E+02  0.51100000000E-03 0. -1.
         23    2    1    0    0    0  0.27378386802E+02 -0.30873889346E+01  0.12348815320E+02  0.94807264547E+02  0.89871108465E+02 0.  0.
         11    1    3    3    0    0  0.28908680556E+02 -0.44125257326E+02  0.98614319261E+01  0.53665612691E+02  0.51100000000E-03 0.  1.
         22    1    1    0    0    0 -0.27378386802E+02  0.30873889346E+01 -0.12348815320E+02  0.30192735453E+02  0.00000000000E+00 0.  1.
</event>
<event>
 5    1  0.8778488E-005  0.9118800E+02  0.7818608E-02  0.1130116E+00
         25   -1    0    0    0    0  0.00000000000E+00  0.00000000000E+00  0.99999998245E-14  0.12500000000E+03  0.12500000000E+03 0.  0.
        -11    1    3    3    0    0  0.27975603561E+02  0.18808375855E+02  0.73852164649E+01  0.34509865537E+02  0.51100000000E-03 0. -1.
         23    2    1    0    0    0 -0.29860884310E+02  0.34047607495E+01 -0.89397901497E+00  0.94932342858E+02  0.90044909431E+02 0.  0.
         11    1    3    3    0    0 -0.57836487871E+02 -0.15403615105E+02 -0.82791954799E+01  0.60422477321E+02  0.51100000000E-03 0.  1.
         22    1    1    0    0    0  0.29860884310E+02 -0.34047607495E+01  0.89397901497E+00  0.30067657142E+02  0.00000000000E+00 0.  1.
</event>
<event>
 5    1  0.8778488E-005  0.9118800E+02  0.7818608E-02  0.1130116E+00
         25   -1    0    0    0    0  0.00000000000E+00  0.00000000000E+00  0.99999998245E-14  0.12500000000E+03  0.12500000000E+03 0.  0.
        -11    1    3    3    0    0  0.21578618926E+01  0.11327927631E+02 -0.50526415886E+02  0.51825640516E+02  0.51100000000E-03 0. -1.
         23    2    1    0    0    0 -0.13906995566E+02  0.20576623891E+02 -0.69047803110E+01  0.99222529846E+02  0.95815617002E+02 0.  0.
         11    1    3    3    0    0 -0.16064857459E+02  0.92486962598E+01  0.43621635575E+02  0.47396889330E+02  0.51100000000E-03 0.  1.
         22    1    1    0    0    0  0.13906995566E+02 -0.20576623891E+02  0.69047803110E+01  0.25777470154E+02  0.00000000000E+00 0. -1.
</event>
<event>
 5    1  0.8778488E-005  0.9118800E+02  0.7818608E-02  0.1130116E+00
         25   -1    0    0    0    0  0.00000000000E+00  0.00000000000E+00  0.99999998245E-14  0.12500000000E+03  0.12500000000E+03 0.  0.
        -11    1    3    3    0    0  0.19177547092E+02 -0.50206987247E+02  0.22885227703E+02  0.58414497586E+02  0.51100000000E-03 0. -1.
         23    2    1    0    0    0  0.23783855791E+02 -0.21797302427E+02  0.48578985045E+01  0.92374957974E+02  0.86421869301E+02 0.  0.
         11    1    3    3    0    0  0.46063086985E+01  0.28409684821E+02 -0.18027329199E+02  0.33960460388E+02  0.51100000000E-03 0.  1.
         22    1    1    0    0    0 -0.23783855791E+02  0.21797302427E+02 -0.48578985045E+01  0.32625042026E+02  0.00000000000E+00 0. -1.
</event>
<event>
 5    1  0.8778488E-005  0.9118800E+02  0.7818608E-02  0.1130116E+00
         25   -1    0    0    0    0  0.00000000000E+00  0.00000000000E+00  0.99999998245E-14  0.12500000000E+03  0.12500000000E+03 0.  0.
        -11    1    3    3    0    0 -0.18477509298E+02  0.34054564362E+02 -0.48674278057E+02  0.62211872246E+02  0.51100000000E-03 0.  1.
         23    2    1    0    0    0 -0.11067850351E+02  0.12319675811E+02 -0.23012125166E+02  0.96648110678E+02  0.92396037087E+02 0.  0.
         11    1    3    3    0    0  0.74096589473E+01 -0.21734888551E+02  0.25662152891E+02  0.34436238431E+02  0.51100000000E-03 0. -1.
         22    1    1    0    0    0  0.11067850351E+02 -0.12319675811E+02  0.23012125166E+02  0.28351889322E+02  0.00000000000E+00 0.  1.
</event>
<event>
 5    1  0.8778488E-005  0.9118800E+02  0.7818608E-02  0.1130116E+00
         25   -1    0    0    0    0  0.00000000000E+00  0.00000000000E+00  0.99999998245E-14  0.12500000000E+03  0.12500000000E+03 0.  0.
        -11    1    3    3    0    0  0.28474449572E+02 -0.48377290767E+01 -0.99996252088E+01  0.30564528553E+02  0.51100000000E-03 0. -1.
         23    2    1    0    0    0 -0.27576135357E+02 -0.58115619842E+01  0.16254176851E+02  0.92466697693E+02  0.86554459291E+02 0.  0.
         11    1    3    3    0    0 -0.56050584929E+02 -0.97383290749E+00  0.26253802060E+02  0.61902169140E+02  0.51100000000E-03 0.  1.
         22    1    1    0    0    0  0.27576135357E+02  0.58115619842E+01 -0.16254176851E+02  0.32533302307E+02  0.00000000000E+00 0.  1.
</event>
<event>
 5    1  0.8778488E-005  0.9118800E+02  0.7818608E-02  0.1130116E+00
         25   -1    0    0    0    0  0.00000000000E+00  0.00000000000E+00  0.99999998245E-14  0.12500000000E+03  0.12500000000E+03 0.  0.
        -11    1    3    3    0    0  0.40801529647E+02  0.10355007817E+01 -0.16089933294E+02  0.43871665537E+02  0.51100000000E-03 0. -1.
         23    2    1    0    0    0  0.15323007950E+02 -0.47882802052E+01  0.26602548072E+02  0.93928827445E+02  0.88640887074E+02 0.  0.
         11    1    3    3    0    0 -0.25478521696E+02 -0.58237809869E+01  0.42692481366E+02  0.50057161908E+02  0.51100000000E-03 0.  1.
         22    1    1    0    0    0 -0.15323007950E+02  0.47882802052E+01 -0.26602548072E+02  0.31071172555E+02  0.00000000000E+00 0.  1.
</event>
<event>
 5    1  0.8778488E-005  0.9118800E+02  0.7818608E-02  0.1130116E+00
         25   -1    0    0    0    0  0.00000000000E+00  0.00000000000E+00  0.99999998245E-14  0.12500000000E+03  0.12500000000E+03 0.  0.
        -11    1    3    3    0    0 -0.25513798007E+02  0.16830492593E+02 -0.32890043082E+02  0.44899602491E+02  0.51100000000E-03 0.  1.
         23    2    1    0    0    0 -0.32685504019E+02 -0.35386882800E+01  0.80200207158E+01  0.91159414604E+02  0.84645458537E+02 0.  0.
         11    1    3    3    0    0 -0.71717060116E+01 -0.20369180873E+02  0.40910063798E+02  0.46259812113E+02  0.51100000000E-03 0. -1.
         22    1    1    0    0    0  0.32685504019E+02  0.35386882800E+01 -0.80200207158E+01  0.33840585396E+02  0.00000000000E+00 0. -1.
</event>
<event>
 5    1  0.8778488E-005  0.9118800E+02  0.7818608E-02  0.1130116E+00
         25   -1    0    0    0    0  0.00000000000E+00  0.00000000000E+00  0.99999998245E-14  0.12500000000E+03  0.12500000000E+03 0.  0.
        -11    1    3    3    0    0 -0.17379006966E+02 -0.20620552258E+02 -0.29988021878E+02  0.40330119203E+02  0.51100000000E-03 0.  1.
         23    2    1    0    0    0  0.16555546982E+02  0.20089109555E+02 -0.12356047182E+02  0.96184546498E+02  0.91766751193E+02 0.  0.
         11    1    3    3    0    0  0.33934553948E+02  0.40709661812E+02  0.17631974696E+02  0.55854427295E+02  0.51100000000E-03 0. -1.
         22    1    1    0    0    0 -0.16555546982E+02 -0.20089109555E+02  0.12356047182E+02  0.28815453502E+02  0.00000000000E+00 0. -1.
</event>
<event>
 5    1  0.8778488E-005  0.9118800E+02  0.7818608E-02  0.1130116E+00
         25   -1    0    0    0    0  0.00000000000E+00  0.00000000000E+00  0.99999998245E-14  0.12500000000E+03  0.12500000000E+03 0.  0.
        -11    1    3    3    0    0 -0.94359334336E+01 -0.11140366463E+02 -0.35819561271E+02  0.38680558096E+02  0.51100000000E-03 0. -1.
         23    2    1    0    0    0 -0.19297944774E+02 -0.54070538926E+01  0.20610524393E+02  0.96252119730E+02  0.91858749896E+02 0.  0.
         11    1    3    3    0    0 -0.98620113403E+01  0.57333125705E+01  0.56430085664E+02  0.57571561634E+02  0.51100000000E-03 0.  1.
         22    1    1    0    0    0  0.19297944774E+02  0.54070538926E+01 -0.20610524393E+02  0.28747880270E+02  0.00000000000E+00 0.  1.
</event>
<event>
 5    1  0.8778488E-005  0.9118800E+02  0.7818608E-02  0.1130116E+00
         25   -1    0    0    0    0  0.00000000000E+00  0.00000000000E+00  0.99999998245E-14  0.12500000000E+03  0.12500000000E+03 0.  0.
        -11    1    3    3    0    0  0.19441831643E+02  0.29477658182E+02 -0.11959691533E+02  0.37282051598E+02  0.51100000000E-03 0.  1.
         23    2    1    0    0    0  0.12265839712E+02 -0.25710183543E+02  0.62468042014E+01  0.95836891037E+02  0.91291964374E+02 0.  0.
         11    1    3    3    0    0 -0.71759919304E+01 -0.55187841725E+02  0.18206495735E+02  0.58554839439E+02  0.51100000000E-03 0. -1.
         22    1    1    0    0    0 -0.12265839712E+02  0.25710183543E+02 -0.62468042014E+01  0.29163108963E+02  0.00000000000E+00 0. -1.
</event>
<event>
 5    1  0.8778488E-005  0.9118800E+02  0.7818608E-02  0.1130116E+00
         25   -1    0    0    0    0  0.00000000000E+00  0.00000000000E+00  0.99999998245E-14  0.12500000000E+03  0.12500000000E+03 0.  0.
        -11    1    3    3    0    0  0.20043006498E+02  0.26965117536E+02  0.84929901293E+01  0.34655022071E+02  0.51100000000E-03 0. -1.
         23    2    1    0    0    0 -0.34351389680E+01 -0.28995281964E+02  0.12047350621E+01  0.95777099006E+02  0.91210058391E+02 0.  0.
         11    1    3    3    0    0 -0.23478145466E+02 -0.55960399500E+02 -0.72882550672E+01  0.61122076935E+02  0.51100000000E-03 0.  1.
         22    1    1    0    0    0  0.34351389680E+01  0.28995281964E+02 -0.12047350621E+01  0.29222900994E+02  0.00000000000E+00 0.  1.
</event>
<event>
 5    1  0.8778488E-005  0.9118800E+02  0.7818608E-02  0.1130116E+00
         25   -1    0    0    0    0  0.00000000000E+00  0.00000000000E+00  0.99999998245E-14  0.12500000000E+03  0.12500000000E+03 0.  0.
        -11    1    3    3    0    0  0.35547915222E+02  0.20686396282E+01  0.11604363463E+02  0.37451232265E+02  0.51100000000E-03 0.  1.
         23    2    1    0    0    0 -0.15080084726E+02 -0.24873623233E+02  0.27099536951E+00  0.95910834894E+02  0.91393154686E+02 0.  0.
         11    1    3    3    0    0 -0.50627999948E+02 -0.26942262862E+02 -0.11333368094E+02  0.58459602628E+02  0.51100000000E-03 0. -1.
         22    1    1    0    0    0  0.15080084726E+02  0.24873623233E+02 -0.27099536951E+00  0.29089165106E+02  0.00000000000E+00 0. -1.
</event>
<event>
 5    1  0.8778488E-005  0.9118800E+02  0.7818608E-02  0.1130116E+00
         25   -1    0    0    0    0  0.00000000000E+00  0.00000000000E+00  0.99999998245E-14  0.12500000000E+03  0.12500000000E+03 0.  0.
        -11    1    3    3    0    0 -0.20531518084E+02 -0.31981819341E+02  0.18981902876E+02  0.42481674170E+02  0.51100000000E-03 0.  1.
         23    2    1    0    0    0 -0.14543589503E+02 -0.49525034361E+01 -0.25707465405E+02  0.95051426353E+02  0.90210069218E+02 0.  0.
         11    1    3    3    0    0  0.59879285815E+01  0.27029315905E+02 -0.44689368281E+02  0.52569752183E+02  0.51100000000E-03 0. -1.
         22    1    1    0    0    0  0.14543589503E+02  0.49525034361E+01  0.25707465405E+02  0.29948573647E+02  0.00000000000E+00 0.  1.
</event>
<event>
 5    1  0.8778488E-005  0.9118800E+02  0.7818608E-02  0.1130116E+00
         25   -1    0    0    0    0  0.00000000000E+00  0.00000000000E+00  0.99999998245E-14  0.12500000000E+03  0.12500000000E+03 0.  0.
        -11    1    3    3    0    0 -0.24441069817E+01 -0.25070843627E+02  0.23819854287E+02  0.34668520557E+02  0.51100000000E-03 0.  1.
         23    2    1    0    0    0  0.17921260450E+02  0.11532276141E+02 -0.20344237704E+02  0.95537261213E+02  0.90880775212E+02 0.  0.
         11    1    3    3    0    0  0.20365367432E+02  0.36603119768E+02 -0.44164091991E+02  0.60868740655E+02  0.51100000000E-03 0. -1.
         22    1    1    0    0    0 -0.17921260450E+02 -0.11532276141E+02  0.20344237704E+02  0.29462738787E+02  0.00000000000E+00 0. -1.
</event>
<event>
 5    1  0.8778488E-005  0.9118800E+02  0.7818608E-02  0.1130116E+00
         25   -1    0    0    0    0  0.00000000000E+00  0.00000000000E+00  0.99999998245E-14  0.12500000000E+03  0.12500000000E+03 0.  0.
        -11    1    3    3    0    0  0.32571618239E+01  0.18288738326E+02 -0.31566921060E+02  0.36627278881E+02  0.51100000000E-03 0.  1.
         23    2    1    0    0    0 -0.13543127830E+01  0.11793367276E+02  0.26880469777E+02  0.95615015225E+02  0.90987657439E+02 0.  0.
         11    1    3    3    0    0 -0.46114746069E+01 -0.64953710497E+01  0.58447390837E+02  0.58987736344E+02  0.51100000000E-03 0. -1.
         22    1    1    0    0    0  0.13543127830E+01 -0.11793367276E+02 -0.26880469777E+02  0.29384984775E+02  0.00000000000E+00 0. -1.
</event>
<event>
 5    1  0.8778488E-005  0.9118800E+02  0.7818608E-02  0.1130116E+00
         25   -1    0    0    0    0  0.00000000000E+00  0.00000000000E+00  0.99999998245E-14  0.12500000000E+03  0.12500000000E+03 0.  0.
        -11    1    3    3    0    0  0.37285126197E+01  0.50013978791E+02  0.34554035498E+02  0.60903868927E+02  0.51100000000E-03 0. -1.
         23    2    1    0    0    0 -0.65463920497E+01  0.35533894542E+02  0.21337381437E+02  0.83038151175E+02  0.71655689194E+02 0.  0.
         11    1    3    3    0    0 -0.10274904669E+02 -0.14480084249E+02 -0.13216654061E+02  0.22134282248E+02  0.51100000000E-03 0.  1.
         22    1    1    0    0    0  0.65463920497E+01 -0.35533894542E+02 -0.21337381437E+02  0.41961848825E+02  0.00000000000E+00 0. -1.
</event>
<event>
 5    1  0.8778488E-005  0.9118800E+02  0.7818608E-02  0.1130116E+00
         25   -1    0    0    0    0  0.00000000000E+00  0.00000000000E+00  0.99999998245E-14  0.12500000000E+03  0.12500000000E+03 0.  0.
        -11    1    3    3    0    0 -0.25364703762E+02  0.35299896164E+02  0.44870606202E+02  0.62472571320E+02  0.51100000000E-03 0.  1.
         23    2    1    0    0    0 -0.10999985490E+02  0.16477140479E+02  0.22042189018E+02  0.95362963443E+02  0.90640724075E+02 0.  0.
         11    1    3    3    0    0  0.14364718272E+02 -0.18822755685E+02 -0.22828417185E+02  0.32890392123E+02  0.51100000000E-03 0. -1.
         22    1    1    0    0    0  0.10999985490E+02 -0.16477140479E+02 -0.22042189018E+02  0.29637036557E+02  0.00000000000E+00 0.  1.
</event>
<event>
 5    1  0.8778488E-005  0.9118800E+02  0.7818608E-02  0.1130116E+00
         25   -1    0    0    0    0  0.00000000000E+00  0.00000000000E+00  0.99999998245E-14  0.12500000000E+03  0.12500000000E+03 0.  0.
        -11    1    3    3    0    0 -0.43727562134E+02 -0.11265792426E+02  0.40988784888E+02  0.60984409943E+02  0.51100000000E-03 0. -1.
         23    2    1    0    0    0 -0.26197680016E+02 -0.27026054167E+01  0.11687699988E+02  0.96186377436E+02  0.91769245169E+02 0.  0.
         11    1    3    3    0    0  0.17529882118E+02  0.85631870094E+01 -0.29301084900E+02  0.35201967493E+02  0.51100000000E-03 0.  1.
         22    1    1    0    0    0  0.26197680016E+02  0.27026054167E+01 -0.11687699988E+02  0.28813622564E+02  0.00000000000E+00 0. -1.
</event>
<event>
 5    1  0.8778488E-005  0.9118800E+02  0.7818608E-02  0.1130116E+00
         25   -1    0    0    0    0  0.00000000000E+00  0.00000000000E+00  0.99999998245E-14  0.12500000000E+03  0.12500000000E+03 0.  0.
        -11    1    3    3    0    0  0.14656534758E+02 -0.12387423300E+02 -0.35861042554E+02  0.40672799762E+02  0.51100000000E-03 0. -1.
         23    2    1    0    0    0  0.28189681091E+02 -0.55198906317E+01  0.14180867439E+02  0.92965263948E+02  0.87271507303E+02 0.  0.
         11    1    3    3    0    0  0.13533146333E+02  0.68675326680E+01  0.50041909993E+02  0.52292464186E+02  0.51100000000E-03 0.  1.
         22    1    1    0    0    0 -0.28189681091E+02  0.55198906317E+01 -0.14180867439E+02  0.32034736052E+02  0.00000000000E+00 0.  1.
</event>
<event>
 5    1  0.8778488E-005  0.9118800E+02  0.7818608E-02  0.1130116E+00
         25   -1    0    0    0    0  0.00000000000E+00  0.00000000000E+00  0.99999998245E-14  0.12500000000E+03  0.12500000000E+03 0.  0.
        -11    1    3    3    0    0 -0.12583092893E+01  0.50104133004E+02  0.17692799464E+02  0.53151130181E+02  0.51100000000E-03 0.  1.
         23    2    1    0    0    0 -0.23992018499E+02  0.16714308193E+02  0.71662079874E+01  0.94894525631E+02  0.89992396389E+02 0.  0.
         11    1    3    3    0    0 -0.22733709210E+02 -0.33389824811E+02 -0.10526591476E+02  0.41743395450E+02  0.51100000000E-03 0. -1.
         22    1    1    0    0    0  0.23992018499E+02 -0.16714308193E+02 -0.71662079874E+01  0.30105474369E+02  0.00000000000E+00 0.  1.
</event>
<event>
 5    1  0.8778488E-005  0.9118800E+02  0.7818608E-02  0.1130116E+00
         25   -1    0    0    0    0  0.00000000000E+00  0.00000000000E+00  0.99999998245E-14  0.12500000000E+03  0.12500000000E+03 0.  0.
        -11    1    3    3    0    0 -0.85776287149E+01 -0.35832759899E+02  0.46720242009E+02  0.59500784953E+02  0.51100000000E-03 0. -1.
         23    2    1    0    0    0  0.96679169483E+01 -0.17127460255E+02  0.22303516700E+02  0.95263400159E+02  0.90503315076E+02 0.  0.
         11    1    3    3    0    0  0.18245545663E+02  0.18705299644E+02 -0.24416725309E+02  0.35762615206E+02  0.51100000000E-03 0.  1.
         22    1    1    0    0    0 -0.96679169483E+01  0.17127460255E+02 -0.22303516700E+02  0.29736599841E+02  0.00000000000E+00 0. -1.
</event>
<event>
 5    1  0.8778488E-005  0.9118800E+02  0.7818608E-02  0.1130116E+00
         25   -1    0    0    0    0  0.00000000000E+00  0.00000000000E+00  0.99999998245E-14  0.12500000000E+03  0.12500000000E+03 0.  0.
        -11    1    3    3    0    0 -0.14635015447E+02  0.24551733735E+02 -0.86641829582E-01  0.28582841244E+02  0.51100000000E-03 0.  1.
         23    2    1    0    0    0  0.21525802048E+02 -0.24364809207E+02 -0.11575015786E+02  0.90489348428E+02  0.83650087310E+02 0.  0.
         11    1    3    3    0    0  0.36160817495E+02 -0.48916542941E+02 -0.11488373956E+02  0.61906507184E+02  0.51100000000E-03 0. -1.
         22    1    1    0    0    0 -0.21525802048E+02  0.24364809207E+02  0.11575015786E+02  0.34510651572E+02  0.00000000000E+00 0. -1.
</event>
<event>
 5    1  0.8778488E-005  0.9118800E+02  0.7818608E-02  0.1130116E+00
         25   -1    0    0    0    0  0.00000000000E+00  0.00000000000E+00  0.99999998245E-14  0.12500000000E+03  0.12500000000E+03 0.  0.
        -11    1    3    3    0    0  0.39149132871E+02  0.33107918967E+02 -0.88390691534E+01  0.52028050575E+02  0.51100000000E-03 0.  1.
         23    2    1    0    0    0  0.20999979965E+02 -0.64523088370E+01 -0.18109628038E+02  0.96529136376E+02  0.92234939659E+02 0.  0.
         11    1    3    3    0    0 -0.18149152907E+02 -0.39560227804E+02 -0.92705588845E+01  0.44501085800E+02  0.51100000000E-03 0. -1.
         22    1    1    0    0    0 -0.20999979965E+02  0.64523088370E+01  0.18109628038E+02  0.28470863624E+02  0.00000000000E+00 0.  1.
</event>
<event>
 5    1  0.8778488E-005  0.9118800E+02  0.7818608E-02  0.1130116E+00
         25   -1    0    0    0    0  0.00000000000E+00  0.00000000000E+00  0.99999998245E-14  0.12500000000E+03  0.12500000000E+03 0.  0.
        -11    1    3    3    0    0 -0.10070263495E+01 -0.15446094214E+02  0.36198555065E+02  0.39369167093E+02  0.51100000000E-03 0. -1.
         23    2    1    0    0    0  0.28053515619E+02 -0.36438405784E+00 -0.93171873694E+01  0.95437481589E+02  0.90743431703E+02 0.  0.
         11    1    3    3    0    0  0.29060541969E+02  0.15081710156E+02 -0.45515742435E+02  0.56068314496E+02  0.51100000000E-03 0.  1.
         22    1    1    0    0    0 -0.28053515619E+02  0.36438405784E+00  0.93171873694E+01  0.29562518411E+02  0.00000000000E+00 0.  1.
</event>
<event>
 5    1  0.8778488E-005  0.9118800E+02  0.7818608E-02  0.1130116E+00
         25   -1    0    0    0    0  0.00000000000E+00  0.00000000000E+00  0.99999998245E-14  0.12500000000E+03  0.12500000000E+03 0.  0.
        -11    1    3    3    0    0 -0.28480957615E+02 -0.47449511848E+02 -0.15350874162E+02  0.57430570771E+02  0.51100000000E-03 0. -1.
         23    2    1    0    0    0 -0.43556498807E+01 -0.19055388337E+02 -0.22314381407E+02  0.95335018487E+02  0.90602177798E+02 0.  0.
         11    1    3    3    0    0  0.24125307734E+02  0.28394123511E+02 -0.69635072455E+01  0.37904447716E+02  0.51100000000E-03 0.  1.
         22    1    1    0    0    0  0.43556498807E+01  0.19055388337E+02  0.22314381407E+02  0.29664981513E+02  0.00000000000E+00 0. -1.
</event>
<event>
 5    1  0.8778488E-005  0.9118800E+02  0.7818608E-02  0.1130116E+00
         25   -1    0    0    0    0  0.00000000000E+00  0.00000000000E+00  0.99999998245E-14  0.12500000000E+03  0.12500000000E+03 0.  0.
        -11    1    3    3    0    0 -0.24974685946E+02 -0.39692472386E+02 -0.39302855508E+02  0.61187758200E+02  0.51100000000E-03 0.  1.
         23    2    1    0    0    0 -0.78767232423E+01 -0.25516799063E+02 -0.14026945608E+02  0.94835368284E+02  0.89910188917E+02 0.  0.
         11    1    3    3    0    0  0.17097962704E+02  0.14175673323E+02  0.25275909900E+02  0.33647610084E+02  0.51100000000E-03 0. -1.
         22    1    1    0    0    0  0.78767232423E+01  0.25516799063E+02  0.14026945608E+02  0.30164631716E+02  0.00000000000E+00 0.  1.
</event>
<event>
 5    1  0.8778488E-005  0.9118800E+02  0.7818608E-02  0.1130116E+00
         25   -1    0    0    0    0  0.00000000000E+00  0.00000000000E+00  0.99999998245E-14  0.12500000000E+03  0.12500000000E+03 0.  0.
        -11    1    3    3    0    0 -0.16786697566E+02  0.11853308612E+02 -0.58128895152E+02  0.61654380153E+02  0.51100000000E-03 0. -1.
         23    2    1    0    0    0 -0.40149866491E+01  0.11723592266E+02 -0.27780228641E+02  0.94581192713E+02  0.89556117481E+02 0.  0.
         11    1    3    3    0    0  0.12771710917E+02 -0.12971634586E+00  0.30348666511E+02  0.32926812560E+02  0.51100000000E-03 0.  1.
         22    1    1    0    0    0  0.40149866491E+01 -0.11723592266E+02  0.27780228641E+02  0.30418807287E+02  0.00000000000E+00 0. -1.
</event>
<event>
 5    1  0.8778488E-005  0.9118800E+02  0.7818608E-02  0.1130116E+00
         25   -1    0    0    0    0  0.00000000000E+00  0.00000000000E+00  0.99999998245E-14  0.12500000000E+03  0.12500000000E+03 0.  0.
        -11    1    3    3    0    0  0.33939020632E+02 -0.13689941589E+02  0.20766619396E+02  0.42077596220E+02  0.51100000000E-03 0. -1.
         23    2    1    0    0    0  0.99337901598E+01  0.27087180235E+02 -0.46283924298E+01  0.95779843661E+02  0.91213819760E+02 0.  0.
         11    1    3    3    0    0 -0.24005230473E+02  0.40777121824E+02 -0.25395011826E+02  0.53702247441E+02  0.51100000000E-03 0.  1.
         22    1    1    0    0    0 -0.99337901598E+01 -0.27087180235E+02  0.46283924298E+01  0.29220156339E+02  0.00000000000E+00 0.  1.
</event>
<event>
 5    1  0.8778488E-005  0.9118800E+02  0.7818608E-02  0.1130116E+00
         25   -1    0    0    0    0  0.00000000000E+00  0.00000000000E+00  0.99999998245E-14  0.12500000000E+03  0.12500000000E+03 0.  0.
        -11    1    3    3    0    0 -0.27180392062E+00 -0.15593671706E+02  0.36750258445E+02  0.39922649846E+02  0.51100000000E-03 0.  1.
         23    2    1    0    0    0  0.20198398809E+02  0.17078172616E+02 -0.63977904543E+01  0.97786565504E+02  0.93923593288E+02 0.  0.
         11    1    3    3    0    0  0.20470202730E+02  0.32671844323E+02 -0.43148048900E+02  0.57863915658E+02  0.51100000000E-03 0. -1.
         22    1    1    0    0    0 -0.20198398809E+02 -0.17078172616E+02  0.63977904543E+01  0.27213434496E+02  0.00000000000E+00 0. -1.
</event>
<event>
 5    1  0.8778488E-005  0.9118800E+02  0.7818608E-02  0.1130116E+00
         25   -1    0    0    0    0  0.00000000000E+00  0.00000000000E+00  0.99999998245E-14  0.12500000000E+03  0.12500000000E+03 0.  0.
        -11    1    3    3    0    0 -0.44391748910E+02  0.58349918982E+01  0.36780423704E+02  0.57943714671E+02  0.51100000000E-03 0. -1.
         23    2    1    0    0    0 -0.25151213866E+02  0.14876997767E+02  0.62980448149E+01  0.95107292027E+02  0.90287446562E+02 0.  0.
         11    1    3    3    0    0  0.19240535044E+02  0.90420058685E+01 -0.30482378889E+02  0.37163577356E+02  0.51100000000E-03 0.  1.
         22    1    1    0    0    0  0.25151213866E+02 -0.14876997767E+02 -0.62980448149E+01  0.29892707973E+02  0.00000000000E+00 0. -1.
</event>
<event>
 5    1  0.8778488E-005  0.9118800E+02  0.7818608E-02  0.1130116E+00
         25   -1    0    0    0    0  0.00000000000E+00  0.00000000000E+00  0.99999998245E-14  0.12500000000E+03  0.12500000000E+03 0.  0.
        -11    1    3    3    0    0  0.14106678487E+02 -0.31682977524E+02  0.18001200633E+02  0.39074962153E+02  0.51100000000E-03 0. -1.
         23    2    1    0    0    0 -0.29076843867E+02  0.30696019613E+00  0.13307162223E+02  0.93021293956E+02  0.87351722874E+02 0.  0.
         11    1    3    3    0    0 -0.43183522354E+02  0.31989937721E+02 -0.46940384103E+01  0.53946331804E+02  0.51100000000E-03 0.  1.
         22    1    1    0    0    0  0.29076843867E+02 -0.30696019613E+00 -0.13307162223E+02  0.31978706044E+02  0.00000000000E+00 0.  1.
</event>
<event>
 5    1  0.8778488E-005  0.9118800E+02  0.7818608E-02  0.1130116E+00
         25   -1    0    0    0    0  0.00000000000E+00  0.00000000000E+00  0.99999998245E-14  0.12500000000E+03  0.12500000000E+03 0.  0.
        -11    1    3    3    0    0 -0.24641216540E+01  0.27238464509E+02 -0.32942263783E+02  0.42815868411E+02  0.51100000000E-03 0.  1.
         23    2    1    0    0    0 -0.15785545902E+01  0.89850244111E+00  0.21564163268E+02  0.10335947601E+03  0.10106863510E+03 0.  0.
         11    1    3    3    0    0  0.88556706380E+00 -0.26339962068E+02  0.54506427051E+02  0.60543607597E+02  0.51100000000E-03 0. -1.
         22    1    1    0    0    0  0.15785545902E+01 -0.89850244111E+00 -0.21564163268E+02  0.21640523992E+02  0.00000000000E+00 0. -1.
</event>
<event>
 5    1  0.8778488E-005  0.9118800E+02  0.7818608E-02  0.1130116E+00
         25   -1    0    0    0    0  0.00000000000E+00  0.00000000000E+00  0.99999998245E-14  0.12500000000E+03  0.12500000000E+03 0.  0.
        -11    1    3    3    0    0 -0.82652339776E+01  0.13115132407E+02  0.35694399092E+02  0.38915432897E+02  0.51100000000E-03 0.  1.
         23    2    1    0    0    0  0.14127451666E+02 -0.22611159611E+02 -0.54045040237E+01  0.97795991228E+02  0.93936136853E+02 0.  0.
         11    1    3    3    0    0  0.22392685644E+02 -0.35726292018E+02 -0.41098903116E+02  0.58880558330E+02  0.51100000000E-03 0. -1.
         22    1    1    0    0    0 -0.14127451666E+02  0.22611159611E+02  0.54045040237E+01  0.27204008772E+02  0.00000000000E+00 0. -1.
</event>
<event>
 5    1  0.8778488E-005  0.9118800E+02  0.7818608E-02  0.1130116E+00
         25   -1    0    0    0    0  0.00000000000E+00  0.00000000000E+00  0.99999998245E-14  0.12500000000E+03  0.12500000000E+03 0.  0.
        -11    1    3    3    0    0  0.19316063171E+02 -0.14867393801E+02 -0.28716791889E+02  0.37667012511E+02  0.51100000000E-03 0.  1.
         23    2    1    0    0    0 -0.26786049839E+02 -0.69986510589E+01  0.69166532872E+01  0.96463818137E+02  0.92146375589E+02 0.  0.
         11    1    3    3    0    0 -0.46102113011E+02  0.78687427422E+01  0.35633445176E+02  0.58796805625E+02  0.51100000000E-03 0. -1.
         22    1    1    0    0    0  0.26786049839E+02  0.69986510589E+01 -0.69166532872E+01  0.28536181863E+02  0.00000000000E+00 0. -1.
</event>
<event>
 5    1  0.8778488E-005  0.9118800E+02  0.7818608E-02  0.1130116E+00
         25   -1    0    0    0    0  0.00000000000E+00  0.00000000000E+00  0.99999998245E-14  0.12500000000E+03  0.12500000000E+03 0.  0.
        -11    1    3    3    0    0 -0.89336180102E+01  0.47705929038E+02 -0.42227443960E+01  0.48718546434E+02  0.51100000000E-03 0.  1.
         23    2    1    0    0    0 -0.15415821887E+02  0.70304194396E+01  0.21762807198E+02  0.97419315833E+02  0.93433553707E+02 0.  0.
         11    1    3    3    0    0 -0.64822038770E+01 -0.40675509598E+02  0.25985551594E+02  0.48700769400E+02  0.51100000000E-03 0. -1.
         22    1    1    0    0    0  0.15415821887E+02 -0.70304194396E+01 -0.21762807198E+02  0.27580684167E+02  0.00000000000E+00 0.  1.
</event>
<event>
 5    1  0.8778488E-005  0.9118800E+02  0.7818608E-02  0.1130116E+00
         25   -1    0    0    0    0  0.00000000000E+00  0.00000000000E+00  0.99999998245E-14  0.12500000000E+03  0.12500000000E+03 0.  0.
        -11    1    3    3    0    0 -0.18173573652E+02 -0.20600556085E+02 -0.49748738851E+02  0.56829558399E+02  0.51100000000E-03 0. -1.
         23    2    1    0    0    0 -0.53075220184E+01 -0.27527738338E+02 -0.18261666984E+02  0.91542046551E+02  0.85208635934E+02 0.  0.
         11    1    3    3    0    0  0.12866051634E+02 -0.69271822527E+01  0.31487071868E+02  0.34712488151E+02  0.51100000000E-03 0.  1.
         22    1    1    0    0    0  0.53075220184E+01  0.27527738338E+02  0.18261666984E+02  0.33457953449E+02  0.00000000000E+00 0. -1.
</event>
<event>
 5    1  0.8778488E-005  0.9118800E+02  0.7818608E-02  0.1130116E+00
         25   -1    0    0    0    0  0.00000000000E+00  0.00000000000E+00  0.99999998245E-14  0.12500000000E+03  0.12500000000E+03 0.  0.
        -11    1    3    3    0    0 -0.37845779461E+02 -0.24829536352E+02 -0.31831864648E+02  0.55336032616E+02  0.51100000000E-03 0. -1.
         23    2    1    0    0    0 -0.22951699634E+02  0.92716194944E+01 -0.12867696330E+02  0.97101594078E+02  0.93007518618E+02 0.  0.
         11    1    3    3    0    0  0.14894079827E+02  0.34101155847E+02  0.18964168317E+02  0.41765561462E+02  0.51100000000E-03 0.  1.
         22    1    1    0    0    0  0.22951699634E+02 -0.92716194944E+01  0.12867696330E+02  0.27898405922E+02  0.00000000000E+00 0. -1.
</event>
<event>
 5    1  0.8778488E-005  0.9118800E+02  0.7818608E-02  0.1130116E+00
         25   -1    0    0    0    0  0.00000000000E+00  0.00000000000E+00  0.99999998245E-14  0.12500000000E+03  0.12500000000E+03 0.  0.
        -11    1    3    3    0    0  0.34379431693E+02 -0.41508620779E+02 -0.15220488123E+02  0.56005126385E+02  0.51100000000E-03 0. -1.
         23    2    1    0    0    0  0.26167440860E+02 -0.22567226996E+01 -0.47736551761E+00  0.98731089928E+02  0.95172330444E+02 0.  0.
         11    1    3    3    0    0 -0.82119908329E+01  0.39251898079E+02  0.14743122606E+02  0.42725963543E+02  0.51100000000E-03 0.  1.
         22    1    1    0    0    0 -0.26167440860E+02  0.22567226996E+01  0.47736551761E+00  0.26268910072E+02  0.00000000000E+00 0. -1.
</event>
<event>
 5    1  0.8778488E-005  0.9118800E+02  0.7818608E-02  0.1130116E+00
         25   -1    0    0    0    0  0.00000000000E+00  0.00000000000E+00  0.99999998245E-14  0.12500000000E+03  0.12500000000E+03 0.  0.
        -11    1    3    3    0    0  0.10011878253E+02 -0.21016764506E+02  0.54943403876E+02  0.59671766575E+02  0.51100000000E-03 0. -1.
         23    2    1    0    0    0 -0.79605715613E+01 -0.85092217896E+01  0.29742527396E+02  0.93056370104E+02  0.87401902302E+02 0.  0.
         11    1    3    3    0    0 -0.17972449815E+02  0.12507542716E+02 -0.25200876480E+02  0.33384603529E+02  0.51100000000E-03 0.  1.
         22    1    1    0    0    0  0.79605715613E+01  0.85092217896E+01 -0.29742527396E+02  0.31943629896E+02  0.00000000000E+00 0. -1.
</event>
<event>
 5    1  0.8778488E-005  0.9118800E+02  0.7818608E-02  0.1130116E+00
         25   -1    0    0    0    0  0.00000000000E+00  0.00000000000E+00  0.99999998245E-14  0.12500000000E+03  0.12500000000E+03 0.  0.
        -11    1    3    3    0    0  0.17250565239E+02 -0.43877198893E+02  0.36447519895E+02  0.59592048887E+02  0.51100000000E-03 0. -1.
         23    2    1    0    0    0  0.11939768546E+02 -0.74212883085E+01  0.21417665352E+02  0.99380671707E+02  0.96021705498E+02 0.  0.
         11    1    3    3    0    0 -0.53107966938E+01  0.36455910584E+02 -0.15029854544E+02  0.39788622820E+02  0.51100000000E-03 0.  1.
         22    1    1    0    0    0 -0.11939768546E+02  0.74212883085E+01 -0.21417665352E+02  0.25619328293E+02  0.00000000000E+00 0. -1.
</event>
<event>
 5    1  0.8778488E-005  0.9118800E+02  0.7818608E-02  0.1130116E+00
         25   -1    0    0    0    0  0.00000000000E+00  0.00000000000E+00  0.99999998245E-14  0.12500000000E+03  0.12500000000E+03 0.  0.
        -11    1    3    3    0    0  0.28351427771E+02 -0.18772889471E+02 -0.77900012915E+01  0.34884222166E+02  0.51100000000E-03 0. -1.
         23    2    1    0    0    0 -0.28897234633E+02  0.16824761748E+00  0.22490420458E+01  0.96014888877E+02  0.91535360486E+02 0.  0.
         11    1    3    3    0    0 -0.57248662403E+02  0.18941137089E+02  0.10039043337E+02  0.61130666711E+02  0.51100000000E-03 0.  1.
         22    1    1    0    0    0  0.28897234633E+02 -0.16824761748E+00 -0.22490420458E+01  0.28985111123E+02  0.00000000000E+00 0.  1.
</event>
<event>
 5    1  0.8778488E-005  0.9118800E+02  0.7818608E-02  0.1130116E+00
         25   -1    0    0    0    0  0.00000000000E+00  0.00000000000E+00  0.99999998245E-14  0.12500000000E+03  0.12500000000E+03 0.  0.
        -11    1    3    3    0    0  0.29285641728E+02  0.15413539680E+02  0.39351135002E+02  0.51417291286E+02  0.51100000000E-03 0.  1.
         23    2    1    0    0    0  0.22616839413E+02  0.16254497011E+02 -0.53652235121E+01  0.96636013654E+02  0.92379669914E+02 0.  0.
         11    1    3    3    0    0 -0.66688023152E+01  0.84095733056E+00 -0.44716358514E+02  0.45218722368E+02  0.51100000000E-03 0. -1.
         22    1    1    0    0    0 -0.22616839413E+02 -0.16254497011E+02  0.53652235121E+01  0.28363986346E+02  0.00000000000E+00 0.  1.
</event>
<event>
 5    1  0.8778488E-005  0.9118800E+02  0.7818608E-02  0.1130116E+00
         25   -1    0    0    0    0  0.00000000000E+00  0.00000000000E+00  0.99999998245E-14  0.12500000000E+03  0.12500000000E+03 0.  0.
        -11    1    3    3    0    0  0.12857938673E+02  0.38897220791E+02  0.90136067298E+01  0.41947174859E+02  0.51100000000E-03 0.  1.
         23    2    1    0    0    0  0.24315063730E+02 -0.13172466050E+02 -0.45832082996E+01  0.96968910396E+02  0.92829023474E+02 0.  0.
         11    1    3    3    0    0  0.11457125057E+02 -0.52069686841E+02 -0.13596815029E+02  0.55021735537E+02  0.51100000000E-03 0. -1.
         22    1    1    0    0    0 -0.24315063730E+02  0.13172466050E+02  0.45832082996E+01  0.28031089604E+02  0.00000000000E+00 0. -1.
</event>
<event>
 5    1  0.8778488E-005  0.9118800E+02  0.7818608E-02  0.1130116E+00
         25   -1    0    0    0    0  0.00000000000E+00  0.00000000000E+00  0.99999998245E-14  0.12500000000E+03  0.12500000000E+03 0.  0.
        -11    1    3    3    0    0  0.45745980684E+02  0.38933106600E+01  0.31981384481E+02  0.55952315146E+02  0.51100000000E-03 0.  1.
         23    2    1    0    0    0  0.28343950446E+02 -0.82552674257E+01 -0.13281859468E+01  0.95448467974E+02  0.90758564299E+02 0.  0.
         11    1    3    3    0    0 -0.17402030238E+02 -0.12148578086E+02 -0.33309570428E+02  0.39496152828E+02  0.51100000000E-03 0. -1.
         22    1    1    0    0    0 -0.28343950446E+02  0.82552674257E+01  0.13281859468E+01  0.29551532026E+02  0.00000000000E+00 0.  1.
</event>
<event>
 5    1  0.8778488E-005  0.9118800E+02  0.7818608E-02  0.1130116E+00
         25   -1    0    0    0    0  0.00000000000E+00  0.00000000000E+00  0.99999998245E-14  0.12500000000E+03  0.12500000000E+03 0.  0.
        -11    1    3    3    0    0  0.41057632606E+02 -0.18900821526E+02  0.28001957750E+02  0.53170291401E+02  0.51100000000E-03 0. -1.
         23    2    1    0    0    0  0.14969357920E+01 -0.25518806254E+02  0.15129152617E+02  0.95295765482E+02  0.90548005889E+02 0.  0.
         11    1    3    3    0    0 -0.39560696814E+02 -0.66179847278E+01 -0.12872805133E+02  0.42125474081E+02  0.51100000000E-03 0.  1.
         22    1    1    0    0    0 -0.14969357920E+01  0.25518806254E+02 -0.15129152617E+02  0.29704234518E+02  0.00000000000E+00 0.  1.
</event>
<event>
 5    1  0.8778488E-005  0.9118800E+02  0.7818608E-02  0.1130116E+00
         25   -1    0    0    0    0  0.00000000000E+00  0.00000000000E+00  0.99999998245E-14  0.12500000000E+03  0.12500000000E+03 0.  0.
        -11    1    3    3    0    0  0.20972858141E+02 -0.25135389202E+02 -0.10138772942E+02  0.34270151531E+02  0.51100000000E-03 0. -1.
         23    2    1    0    0    0 -0.22654392874E+02  0.10565744219E+02  0.14840473323E+02  0.95929463097E+02  0.91418629252E+02 0.  0.
         11    1    3    3    0    0 -0.43627251014E+02  0.35701133421E+02  0.24979246265E+02  0.61659311566E+02  0.51100000000E-03 0.  1.
         22    1    1    0    0    0  0.22654392874E+02 -0.10565744219E+02 -0.14840473323E+02  0.29070536903E+02  0.00000000000E+00 0.  1.
</event>
<event>
 5    1  0.8778488E-005  0.9118800E+02  0.7818608E-02  0.1130116E+00
         25   -1    0    0    0    0  0.00000000000E+00  0.00000000000E+00  0.99999998245E-14  0.12500000000E+03  0.12500000000E+03 0.  0.
        -11    1    3    3    0    0 -0.35418044283E+01  0.29394191364E+02 -0.19699263693E+02  0.35561550232E+02  0.51100000000E-03 0. -1.
         23    2    1    0    0    0 -0.98471250754E+01 -0.71877476976E+01  0.27093120520E+02  0.95290291676E+02  0.90540449077E+02 0.  0.
         11    1    3    3    0    0 -0.63053206470E+01 -0.36581939062E+02  0.46792384212E+02  0.59728741444E+02  0.51100000000E-03 0.  1.
         22    1    1    0    0    0  0.98471250754E+01  0.71877476976E+01 -0.27093120520E+02  0.29709708324E+02  0.00000000000E+00 0.  1.
</event>
<event>
 5    1  0.8778488E-005  0.9118800E+02  0.7818608E-02  0.1130116E+00
         25   -1    0    0    0    0  0.00000000000E+00  0.00000000000E+00  0.99999998245E-14  0.12500000000E+03  0.12500000000E+03 0.  0.
        -11    1    3    3    0    0  0.56961927589E+00  0.32082893140E+02 -0.35501700789E+02  0.47854020286E+02  0.51100000000E-03 0.  1.
         23    2    1    0    0    0 -0.24762812185E+02  0.23735023193E+02 -0.20495295401E+01  0.90637974963E+02  0.83871888860E+02 0.  0.
         11    1    3    3    0    0 -0.25332431461E+02 -0.83478699469E+01  0.33452171249E+02  0.42783954678E+02  0.51100000000E-03 0. -1.
         22    1    1    0    0    0  0.24762812185E+02 -0.23735023193E+02  0.20495295401E+01  0.34362025037E+02  0.00000000000E+00 0.  1.
</event>
<event>
 5    1  0.8778488E-005  0.9118800E+02  0.7818608E-02  0.1130116E+00
         25   -1    0    0    0    0  0.00000000000E+00  0.00000000000E+00  0.99999998245E-14  0.12500000000E+03  0.12500000000E+03 0.  0.
        -11    1    3    3    0    0  0.41381758019E+02 -0.22323397599E+02  0.10166075754E+02  0.48105437048E+02  0.51100000000E-03 0.  1.
         23    2    1    0    0    0  0.24091283525E+02  0.13530081153E+02 -0.13323909704E+02  0.94324609086E+02  0.89197266054E+02 0.  0.
         11    1    3    3    0    0 -0.17290474493E+02  0.35853478752E+02 -0.23489985459E+02  0.46219172038E+02  0.51100000000E-03 0. -1.
         22    1    1    0    0    0 -0.24091283525E+02 -0.13530081153E+02  0.13323909704E+02  0.30675390914E+02  0.00000000000E+00 0.  1.
</event>
<event>
 5    1  0.8778488E-005  0.9118800E+02  0.7818608E-02  0.1130116E+00
         25   -1    0    0    0    0  0.00000000000E+00  0.00000000000E+00  0.99999998245E-14  0.12500000000E+03  0.12500000000E+03 0.  0.
        -11    1    3    3    0    0 -0.17948003432E+02  0.30426750392E+02  0.33888594877E+02  0.48952577354E+02  0.51100000000E-03 0.  1.
         23    2    1    0    0    0 -0.26095667885E+01  0.32183504965E+02 -0.63864756979E+01  0.92085339095E+02  0.86001946337E+02 0.  0.
         11    1    3    3    0    0  0.15338436643E+02  0.17567545732E+01 -0.40275070575E+02  0.43132761741E+02  0.51100000000E-03 0. -1.
         22    1    1    0    0    0  0.26095667885E+01 -0.32183504965E+02  0.63864756979E+01  0.32914660905E+02  0.00000000000E+00 0.  1.
</event>
<event>
 5    1  0.8778488E-005  0.9118800E+02  0.7818608E-02  0.1130116E+00
         25   -1    0    0    0    0  0.00000000000E+00  0.00000000000E+00  0.99999998245E-14  0.12500000000E+03  0.12500000000E+03 0.  0.
        -11    1    3    3    0    0  0.45203210854E+02 -0.29989146912E+02 -0.64802346434E+01  0.54632157612E+02  0.51100000000E-03 0.  1.
         23    2    1    0    0    0  0.10403597779E+02 -0.22613587791E+02  0.14757497267E+02  0.96062257775E+02  0.91600024256E+02 0.  0.
         11    1    3    3    0    0 -0.34799613075E+02  0.73755591211E+01  0.21237731910E+02  0.41430100163E+02  0.51100000000E-03 0. -1.
         22    1    1    0    0    0 -0.10403597779E+02  0.22613587791E+02 -0.14757497267E+02  0.28937742225E+02  0.00000000000E+00 0.  1.
</event>
<event>
 5    1  0.8778488E-005  0.9118800E+02  0.7818608E-02  0.1130116E+00
         25   -1    0    0    0    0  0.00000000000E+00  0.00000000000E+00  0.99999998245E-14  0.12500000000E+03  0.12500000000E+03 0.  0.
        -11    1    3    3    0    0 -0.38188285351E+02  0.13641149993E+02  0.91759634378E+01  0.41576729266E+02  0.51100000000E-03 0.  1.
         23    2    1    0    0    0 -0.77575749824E+01 -0.24610999936E+02 -0.13966202246E+02  0.95658287497E+02  0.91047086028E+02 0.  0.
         11    1    3    3    0    0  0.30430710369E+02 -0.38252149929E+02 -0.23142165684E+02  0.54081558230E+02  0.51100000000E-03 0. -1.
         22    1    1    0    0    0  0.77575749824E+01  0.24610999936E+02  0.13966202246E+02  0.29341712503E+02  0.00000000000E+00 0. -1.
</event>
<event>
 5    1  0.8778488E-005  0.9118800E+02  0.7818608E-02  0.1130116E+00
         25   -1    0    0    0    0  0.00000000000E+00  0.00000000000E+00  0.99999998245E-14  0.12500000000E+03  0.12500000000E+03 0.  0.
        -11    1    3    3    0    0  0.34555635654E+02  0.10401212961E+02  0.36891737475E+02  0.51606951864E+02  0.51100000000E-03 0.  1.
         23    2    1    0    0    0 -0.73387432210E+01 -0.27720382839E+00  0.28398637057E+02  0.95667141621E+02  0.91059241185E+02 0.  0.
         11    1    3    3    0    0 -0.41894378875E+02 -0.10678416790E+02 -0.84931004180E+01  0.44060189757E+02  0.51100000000E-03 0. -1.
         22    1    1    0    0    0  0.73387432210E+01  0.27720382839E+00 -0.28398637057E+02  0.29332858379E+02  0.00000000000E+00 0.  1.
</event>
<event>
 5    1  0.8778488E-005  0.9118800E+02  0.7818608E-02  0.1130116E+00
         25   -1    0    0    0    0  0.00000000000E+00  0.00000000000E+00  0.99999998245E-14  0.12500000000E+03  0.12500000000E+03 0.  0.
        -11    1    3    3    0    0 -0.15300535074E+02 -0.16679107991E+02 -0.24762715660E+02  0.33548339811E+02  0.51100000000E-03 0. -1.
         23    2    1    0    0    0 -0.78357411009E+01  0.24894560452E+02  0.17718949346E+02  0.93454807899E+02  0.87969892434E+02 0.  0.
         11    1    3    3    0    0  0.74647939730E+01  0.41573668444E+02  0.42481665006E+02  0.59906468089E+02  0.51100000000E-03 0.  1.
         22    1    1    0    0    0  0.78357411009E+01 -0.24894560452E+02 -0.17718949346E+02  0.31545192101E+02  0.00000000000E+00 0.  1.
</event>
<event>
 5    1  0.8778488E-005  0.9118800E+02  0.7818608E-02  0.1130116E+00
         25   -1    0    0    0    0  0.00000000000E+00  0.00000000000E+00  0.99999998245E-14  0.12500000000E+03  0.12500000000E+03 0.  0.
        -11    1    3    3    0    0 -0.14924867816E+01 -0.15899578341E+02  0.58539126087E+02  0.60678277757E+02  0.51100000000E-03 0.  1.
         23    2    1    0    0    0  0.42925384657E+01  0.19734864409E+01  0.28522409761E+02  0.96088957234E+02  0.91636451855E+02 0.  0.
         11    1    3    3    0    0  0.57850252474E+01  0.17873064781E+02 -0.30016716326E+02  0.35410679478E+02  0.51100000000E-03 0. -1.
         22    1    1    0    0    0 -0.42925384657E+01 -0.19734864409E+01 -0.28522409761E+02  0.28911042766E+02  0.00000000000E+00 0.  1.
</event>
<event>
 5    1  0.8778488E-005  0.9118800E+02  0.7818608E-02  0.1130116E+00
         25   -1    0    0    0    0  0.00000000000E+00  0.00000000000E+00  0.99999998245E-14  0.12500000000E+03  0.12500000000E+03 0.  0.
        -11    1    3    3    0    0 -0.28298214863E+02  0.25276554469E+02 -0.16483565109E+02  0.41369083737E+02  0.51100000000E-03 0. -1.
         23    2    1    0    0    0  0.24512983404E+02  0.11851040220E+02 -0.23009653335E+01  0.97675506389E+02  0.93775671670E+02 0.  0.
         11    1    3    3    0    0  0.52811198267E+02 -0.13425514249E+02  0.14182599775E+02  0.56306422652E+02  0.51100000000E-03 0.  1.
         22    1    1    0    0    0 -0.24512983404E+02 -0.11851040220E+02  0.23009653335E+01  0.27324493611E+02  0.00000000000E+00 0.  1.
</event>
<event>
 5    1  0.8778488E-005  0.9118800E+02  0.7818608E-02  0.1130116E+00
         25   -1    0    0    0    0  0.00000000000E+00  0.00000000000E+00  0.99999998245E-14  0.12500000000E+03  0.12500000000E+03 0.  0.
        -11    1    3    3    0    0 -0.91337664395E+01 -0.13797603768E+02  0.37506932335E+02  0.40994750061E+02  0.51100000000E-03 0.  1.
         23    2    1    0    0    0  0.33517546141E+01 -0.21905816401E+02 -0.16727126715E+02  0.97234989297E+02  0.93186626317E+02 0.  0.
         11    1    3    3    0    0  0.12485521054E+02 -0.81082126329E+01 -0.54234059050E+02  0.56240239236E+02  0.51100000000E-03 0. -1.
         22    1    1    0    0    0 -0.33517546141E+01  0.21905816401E+02  0.16727126715E+02  0.27765010703E+02  0.00000000000E+00 0. -1.
</event>
<event>
 5    1  0.8778488E-005  0.9118800E+02  0.7818608E-02  0.1130116E+00
         25   -1    0    0    0    0  0.00000000000E+00  0.00000000000E+00  0.99999998245E-14  0.12500000000E+03  0.12500000000E+03 0.  0.
        -11    1    3    3    0    0  0.23992616920E+02 -0.41091156999E+02 -0.19014112172E+02  0.51241246200E+02  0.51100000000E-03 0. -1.
         23    2    1    0    0    0 -0.15072703758E+02 -0.24269191426E+02 -0.10098256901E+02  0.94698929995E+02  0.89720301486E+02 0.  0.
         11    1    3    3    0    0 -0.39065320677E+02  0.16821965573E+02  0.89158552717E+01  0.43457683795E+02  0.51100000000E-03 0.  1.
         22    1    1    0    0    0  0.15072703758E+02  0.24269191426E+02  0.10098256901E+02  0.30301070005E+02  0.00000000000E+00 0. -1.
</event>
<event>
 5    1  0.8778488E-005  0.9118800E+02  0.7818608E-02  0.1130116E+00
         25   -1    0    0    0    0  0.00000000000E+00  0.00000000000E+00  0.99999998245E-14  0.12500000000E+03  0.12500000000E+03 0.  0.
        -11    1    3    3    0    0 -0.30458554024E+02  0.54009891072E+01  0.21110819998E+02  0.37450779936E+02  0.51100000000E-03 0.  1.
         23    2    1    0    0    0  0.16240825687E+02 -0.22939947512E+02 -0.21231781545E+01  0.96812884214E+02  0.92618686309E+02 0.  0.
         11    1    3    3    0    0  0.46699379711E+02 -0.28340936619E+02 -0.23233998153E+02  0.59362104278E+02  0.51100000000E-03 0. -1.
         22    1    1    0    0    0 -0.16240825687E+02  0.22939947512E+02  0.21231781545E+01  0.28187115786E+02  0.00000000000E+00 0. -1.
</event>
<event>
 5    1  0.8778488E-005  0.9118800E+02  0.7818608E-02  0.1130116E+00
         25   -1    0    0    0    0  0.00000000000E+00  0.00000000000E+00  0.99999998245E-14  0.12500000000E+03  0.12500000000E+03 0.  0.
        -11    1    3    3    0    0 -0.33986503924E+02 -0.39456574028E+02 -0.29957989042E+02  0.60078155687E+02  0.51100000000E-03 0.  1.
         23    2    1    0    0    0 -0.22248041173E+02 -0.73818822754E+01 -0.12344092544E+02  0.98507658791E+02  0.94878420612E+02 0.  0.
         11    1    3    3    0    0  0.11738462751E+02  0.32074691752E+02  0.17613896499E+02  0.38429503105E+02  0.51100000000E-03 0. -1.
         22    1    1    0    0    0  0.22248041173E+02  0.73818822754E+01  0.12344092544E+02  0.26492341209E+02  0.00000000000E+00 0.  1.
</event>
<event>
 5    1  0.8778488E-005  0.9118800E+02  0.7818608E-02  0.1130116E+00
         25   -1    0    0    0    0  0.00000000000E+00  0.00000000000E+00  0.99999998245E-14  0.12500000000E+03  0.12500000000E+03 0.  0.
        -11    1    3    3    0    0 -0.18200934936E+02  0.27443158242E+02  0.12545031286E+02  0.35238881609E+02  0.51100000000E-03 0. -1.
         23    2    1    0    0    0  0.24274688739E+02 -0.15236258898E+02  0.45381864591E+01  0.95982776926E+02  0.91491498138E+02 0.  0.
         11    1    3    3    0    0  0.42475623675E+02 -0.42679417140E+02 -0.80068448266E+01  0.60743895317E+02  0.51100000000E-03 0.  1.
         22    1    1    0    0    0 -0.24274688739E+02  0.15236258898E+02 -0.45381864591E+01  0.29017223074E+02  0.00000000000E+00 0.  1.
</event>
<event>
 5    1  0.8778488E-005  0.9118800E+02  0.7818608E-02  0.1130116E+00
         25   -1    0    0    0    0  0.00000000000E+00  0.00000000000E+00  0.99999998245E-14  0.12500000000E+03  0.12500000000E+03 0.  0.
        -11    1    3    3    0    0 -0.31863749838E+02  0.19473768528E+02  0.40225274286E+02  0.54887147003E+02  0.51100000000E-03 0. -1.
         23    2    1    0    0    0 -0.11781986410E+02 -0.12531106761E+02  0.22653175782E+02  0.96556895152E+02  0.92272551649E+02 0.  0.
         11    1    3    3    0    0  0.20081763429E+02 -0.32004875289E+02 -0.17572098504E+02  0.41669748149E+02  0.51100000000E-03 0.  1.
         22    1    1    0    0    0  0.11781986410E+02  0.12531106761E+02 -0.22653175782E+02  0.28443104848E+02  0.00000000000E+00 0. -1.
</event>
<event>
 5    1  0.8778488E-005  0.9118800E+02  0.7818608E-02  0.1130116E+00
         25   -1    0    0    0    0  0.00000000000E+00  0.00000000000E+00  0.99999998245E-14  0.12500000000E+03  0.12500000000E+03 0.  0.
        -11    1    3    3    0    0 -0.18125829455E+02  0.24664610481E+02 -0.42568660975E+02  0.52430712384E+02  0.51100000000E-03 0. -1.
         23    2    1    0    0    0 -0.25412009339E+02 -0.62139797317E+01 -0.13053350084E+02  0.95763486679E+02  0.91191401293E+02 0.  0.
         11    1    3    3    0    0 -0.72861798841E+01 -0.30878590213E+02  0.29515310891E+02  0.43332774295E+02  0.51100000000E-03 0.  1.
         22    1    1    0    0    0  0.25412009339E+02  0.62139797317E+01  0.13053350084E+02  0.29236513321E+02  0.00000000000E+00 0. -1.
</event>
<event>
 5    1  0.8778488E-005  0.9118800E+02  0.7818608E-02  0.1130116E+00
         25   -1    0    0    0    0  0.00000000000E+00  0.00000000000E+00  0.99999998245E-14  0.12500000000E+03  0.12500000000E+03 0.  0.
        -11    1    3    3    0    0 -0.95731242693E+01  0.36602564039E+02 -0.12267426920E+02  0.39772882295E+02  0.51100000000E-03 0.  1.
         23    2    1    0    0    0  0.27993628161E+02 -0.44161211432E+01 -0.79714314106E+01  0.95560416744E+02  0.90912618409E+02 0.  0.
         11    1    3    3    0    0  0.37566752430E+02 -0.41018685182E+02  0.42959955096E+01  0.55787534449E+02  0.51100000000E-03 0. -1.
         22    1    1    0    0    0 -0.27993628161E+02  0.44161211432E+01  0.79714314106E+01  0.29439583256E+02  0.00000000000E+00 0. -1.
</event>
<event>
 5    1  0.8778488E-005  0.9118800E+02  0.7818608E-02  0.1130116E+00
         25   -1    0    0    0    0  0.00000000000E+00  0.00000000000E+00  0.99999998245E-14  0.12500000000E+03  0.12500000000E+03 0.  0.
        -11    1    3    3    0    0  0.10494485766E+02 -0.34203066261E+02 -0.39030784102E+01  0.35989137174E+02  0.51100000000E-03 0.  1.
         23    2    1    0    0    0  0.28296910168E+01  0.24881308760E+02 -0.13834864051E+02  0.96390733316E+02  0.92047179908E+02 0.  0.
         11    1    3    3    0    0 -0.76647947496E+01  0.59084375022E+02 -0.99317856407E+01  0.60401596142E+02  0.51100000000E-03 0. -1.
         22    1    1    0    0    0 -0.28296910168E+01 -0.24881308760E+02  0.13834864051E+02  0.28609266684E+02  0.00000000000E+00 0. -1.
</event>
<event>
 5    1  0.8778488E-005  0.9118800E+02  0.7818608E-02  0.1130116E+00
         25   -1    0    0    0    0  0.00000000000E+00  0.00000000000E+00  0.99999998245E-14  0.12500000000E+03  0.12500000000E+03 0.  0.
        -11    1    3    3    0    0  0.27029438906E+02 -0.11517689017E+02 -0.53426006963E+02  0.60972009546E+02  0.51100000000E-03 0. -1.
         23    2    1    0    0    0  0.12322901331E+02  0.41934126199E+01 -0.26788632289E+02  0.95216289242E+02  0.90438223724E+02 0.  0.
         11    1    3    3    0    0 -0.14706537574E+02  0.15711101637E+02  0.26637374674E+02  0.34244279695E+02  0.51100000000E-03 0.  1.
         22    1    1    0    0    0 -0.12322901331E+02 -0.41934126199E+01  0.26788632289E+02  0.29783710758E+02  0.00000000000E+00 0. -1.
</event>
<event>
 5    1  0.8778488E-005  0.9118800E+02  0.7818608E-02  0.1130116E+00
         25   -1    0    0    0    0  0.00000000000E+00  0.00000000000E+00  0.99999998245E-14  0.12500000000E+03  0.12500000000E+03 0.  0.
        -11    1    3    3    0    0  0.94810288516E+01 -0.27211595054E+02 -0.48685020500E+02  0.56573775150E+02  0.51100000000E-03 0.  1.
         23    2    1    0    0    0  0.18934686740E+02  0.31398138551E+00 -0.20586442925E+02  0.97028182423E+02  0.92908802628E+02 0.  0.
         11    1    3    3    0    0  0.94536578887E+01  0.27525576439E+02  0.28098577575E+02  0.40454407273E+02  0.51100000000E-03 0. -1.
         22    1    1    0    0    0 -0.18934686740E+02 -0.31398138551E+00  0.20586442925E+02  0.27971817577E+02  0.00000000000E+00 0. -1.
</event>
<event>
 5    1  0.8778488E-005  0.9118800E+02  0.7818608E-02  0.1130116E+00
         25   -1    0    0    0    0  0.00000000000E+00  0.00000000000E+00  0.99999998245E-14  0.12500000000E+03  0.12500000000E+03 0.  0.
        -11    1    3    3    0    0  0.17498817818E+02 -0.28505886356E+02  0.46038014903E+02  0.56906001428E+02  0.51100000000E-03 0.  1.
         23    2    1    0    0    0 -0.63305063143E+00  0.16172749070E+01  0.28950245967E+02  0.95997705733E+02  0.91511892305E+02 0.  0.
         11    1    3    3    0    0 -0.18131868450E+02  0.30123161263E+02 -0.17087768937E+02  0.39091704305E+02  0.51100000000E-03 0. -1.
         22    1    1    0    0    0  0.63305063143E+00 -0.16172749070E+01 -0.28950245967E+02  0.29002294267E+02  0.00000000000E+00 0.  1.
</event>
<event>
 5    1  0.8778488E-005  0.9118800E+02  0.7818608E-02  0.1130116E+00
         25   -1    0    0    0    0  0.00000000000E+00  0.00000000000E+00  0.99999998245E-14  0.12500000000E+03  0.12500000000E+03 0.  0.
        -11    1    3    3    0    0  0.38170695608E+02 -0.33700010094E+02 -0.94682272070E+01  0.51791312111E+02  0.51100000000E-03 0. -1.
         23    2    1    0    0    0  0.16180913933E+02 -0.77510807911E+01 -0.28914687872E+02  0.90971182744E+02  0.84367029614E+02 0.  0.
         11    1    3    3    0    0 -0.21989781675E+02  0.25948929303E+02 -0.19446460665E+02  0.39179870632E+02  0.51100000000E-03 0.  1.
         22    1    1    0    0    0 -0.16180913933E+02  0.77510807911E+01  0.28914687872E+02  0.34028817256E+02  0.00000000000E+00 0.  1.
</event>
<event>
 5    1  0.8778488E-005  0.9118800E+02  0.7818608E-02  0.1130116E+00
         25   -1    0    0    0    0  0.00000000000E+00  0.00000000000E+00  0.99999998245E-14  0.12500000000E+03  0.12500000000E+03 0.  0.
        -11    1    3    3    0    0 -0.28439738603E+02  0.22043948745E+02 -0.14814843639E+02  0.38913159733E+02  0.51100000000E-03 0. -1.
         23    2    1    0    0    0  0.72924920477E+01  0.93294151309E+01  0.27091366087E+02  0.95433793896E+02  0.90738351726E+02 0.  0.
         11    1    3    3    0    0  0.35732230651E+02 -0.12714533614E+02  0.41906209726E+02  0.56520634163E+02  0.51100000000E-03 0.  1.
         22    1    1    0    0    0 -0.72924920477E+01 -0.93294151309E+01 -0.27091366087E+02  0.29566206104E+02  0.00000000000E+00 0.  1.
</event>
<event>
 5    1  0.8778488E-005  0.9118800E+02  0.7818608E-02  0.1130116E+00
         25   -1    0    0    0    0  0.00000000000E+00  0.00000000000E+00  0.99999998245E-14  0.12500000000E+03  0.12500000000E+03 0.  0.
        -11    1    3    3    0    0  0.14701105884E+02  0.50711733860E+02  0.77998215304E+01  0.53372649189E+02  0.51100000000E-03 0.  1.
         23    2    1    0    0    0 -0.15533110032E+02  0.20992235411E+02  0.12538040500E+02  0.96031846549E+02  0.91558514826E+02 0.  0.
         11    1    3    3    0    0 -0.30234215915E+02 -0.29719498449E+02  0.47382189691E+01  0.42659197359E+02  0.51100000000E-03 0. -1.
         22    1    1    0    0    0  0.15533110032E+02 -0.20992235411E+02 -0.12538040500E+02  0.28968153451E+02  0.00000000000E+00 0. -1.
</event>
<event>
 5    1  0.8778488E-005  0.9118800E+02  0.7818608E-02  0.1130116E+00
         25   -1    0    0    0    0  0.00000000000E+00  0.00000000000E+00  0.99999998245E-14  0.12500000000E+03  0.12500000000E+03 0.  0.
        -11    1    3    3    0    0  0.39731261811E+01 -0.31921979756E+02  0.11627346719E+02  0.34205170884E+02  0.51100000000E-03 0. -1.
         23    2    1    0    0    0  0.31586782749E+01  0.26520943969E+02  0.17685628024E+02  0.92966905300E+02  0.87273858199E+02 0.  0.
         11    1    3    3    0    0 -0.81444790620E+00  0.58442923725E+02  0.60582813050E+01  0.58761734416E+02  0.51100000000E-03 0.  1.
         22    1    1    0    0    0 -0.31586782749E+01 -0.26520943969E+02 -0.17685628024E+02  0.32033094700E+02  0.00000000000E+00 0.  1.
</event>
<event>
 5    1  0.8778488E-005  0.9118800E+02  0.7818608E-02  0.1130116E+00
         25   -1    0    0    0    0  0.00000000000E+00  0.00000000000E+00  0.99999998245E-14  0.12500000000E+03  0.12500000000E+03 0.  0.
        -11    1    3    3    0    0 -0.15541205697E+02  0.10676677876E+01 -0.57067057342E+02  0.59155033792E+02  0.51100000000E-03 0. -1.
         23    2    1    0    0    0 -0.49396226558E+01  0.14702571665E+02 -0.24937519556E+02  0.95632579835E+02  0.91011784725E+02 0.  0.
         11    1    3    3    0    0  0.10601583041E+02  0.13634903877E+02  0.32129537786E+02  0.36477546043E+02  0.51100000000E-03 0.  1.
         22    1    1    0    0    0  0.49396226558E+01 -0.14702571665E+02  0.24937519556E+02  0.29367420165E+02  0.00000000000E+00 0. -1.
</event>
<event>
 5    1  0.8778488E-005  0.9118800E+02  0.7818608E-02  0.1130116E+00
         25   -1    0    0    0    0  0.00000000000E+00  0.00000000000E+00  0.99999998245E-14  0.12500000000E+03  0.12500000000E+03 0.  0.
        -11    1    3    3    0    0  0.27816710255E+01 -0.27865578242E+02 -0.14027829528E+02  0.31321049567E+02  0.51100000000E-03 0.  1.
         23    2    1    0    0    0  0.18350172539E+02  0.74522195423E+01  0.29481943319E+02  0.89483111198E+02  0.82132684112E+02 0.  0.
         11    1    3    3    0    0  0.15568501513E+02  0.35317797784E+02  0.43509772847E+02  0.58162061631E+02  0.51100000000E-03 0. -1.
         22    1    1    0    0    0 -0.18350172539E+02 -0.74522195423E+01 -0.29481943319E+02  0.35516888802E+02  0.00000000000E+00 0. -1.
</event>
<event>
 5    1  0.8778488E-005  0.9118800E+02  0.7818608E-02  0.1130116E+00
         25   -1    0    0    0    0  0.00000000000E+00  0.00000000000E+00  0.99999998245E-14  0.12500000000E+03  0.12500000000E+03 0.  0.
        -11    1    3    3    0    0  0.18200534964E+02 -0.24014639501E+01 -0.54718845415E+02  0.57716362896E+02  0.51100000000E-03 0. -1.
         23    2    1    0    0    0  0.21521124855E+02  0.79377379033E+01 -0.18491045206E+02  0.95536713509E+02  0.90880021882E+02 0.  0.
         11    1    3    3    0    0  0.33205898906E+01  0.10339201853E+02  0.36227800209E+02  0.37820350613E+02  0.51100000000E-03 0.  1.
         22    1    1    0    0    0 -0.21521124855E+02 -0.79377379033E+01  0.18491045206E+02  0.29463286491E+02  0.00000000000E+00 0. -1.
</event>
<event>
 5    1  0.8778488E-005  0.9118800E+02  0.7818608E-02  0.1130116E+00
         25   -1    0    0    0    0  0.00000000000E+00  0.00000000000E+00  0.99999998245E-14  0.12500000000E+03  0.12500000000E+03 0.  0.
        -11    1    3    3    0    0 -0.40331370914E+02  0.34338566528E+01  0.14023907033E+02  0.42837843317E+02  0.51100000000E-03 0. -1.
         23    2    1    0    0    0 -0.97713384030E+01  0.19901456528E+01 -0.28261776711E+02  0.95030552946E+02  0.90181141246E+02 0.  0.
         11    1    3    3    0    0  0.30560032511E+02 -0.14437110000E+01 -0.42285683743E+02  0.52192709629E+02  0.51100000000E-03 0.  1.
         22    1    1    0    0    0  0.97713384030E+01 -0.19901456528E+01  0.28261776711E+02  0.29969447054E+02  0.00000000000E+00 0.  1.
</event>
<event>
 5    1  0.8778488E-005  0.9118800E+02  0.7818608E-02  0.1130116E+00
         25   -1    0    0    0    0  0.00000000000E+00  0.00000000000E+00  0.99999998245E-14  0.12500000000E+03  0.12500000000E+03 0.  0.
        -11    1    3    3    0    0  0.18412542587E+02 -0.53031317273E+02  0.19642187184E+02  0.59474009902E+02  0.51100000000E-03 0.  1.
         23    2    1    0    0    0 -0.49000393765E+01 -0.27493506116E+02  0.92877408168E+01  0.95569312038E+02  0.90924848141E+02 0.  0.
         11    1    3    3    0    0 -0.23312581963E+02  0.25537811157E+02 -0.10354446367E+02  0.36095302136E+02  0.51100000000E-03 0. -1.
         22    1    1    0    0    0  0.49000393765E+01  0.27493506116E+02 -0.92877408168E+01  0.29430687962E+02  0.00000000000E+00 0.  1.
</event>
<event>
 5    1  0.8778488E-005  0.9118800E+02  0.7818608E-02  0.1130116E+00
         25   -1    0    0    0    0  0.00000000000E+00  0.00000000000E+00  0.99999998245E-14  0.12500000000E+03  0.12500000000E+03 0.  0.
        -11    1    3    3    0    0 -0.20178257211E+02 -0.39702714568E+02 -0.19246710718E+02  0.48517043210E+02  0.51100000000E-03 0.  1.
         23    2    1    0    0    0 -0.13100257765E+02 -0.15779197197E+02  0.20857869061E+02  0.95748495433E+02  0.91170849827E+02 0.  0.
         11    1    3    3    0    0  0.70779994462E+01  0.23923517371E+02  0.40104579779E+02  0.47231452223E+02  0.51100000000E-03 0. -1.
         22    1    1    0    0    0  0.13100257765E+02  0.15779197197E+02 -0.20857869061E+02  0.29251504567E+02  0.00000000000E+00 0. -1.
</event>
<event>
 5    1  0.8778488E-005  0.9118800E+02  0.7818608E-02  0.1130116E+00
         25   -1    0    0    0    0  0.00000000000E+00  0.00000000000E+00  0.99999998245E-14  0.12500000000E+03  0.12500000000E+03 0.  0.
        -11    1    3    3    0    0  0.84516101135E+01 -0.16041937290E+02 -0.58842230655E+02  0.61572571607E+02  0.51100000000E-03 0.  1.
         23    2    1    0    0    0  0.11693539004E+01 -0.94456422489E+00 -0.30226573187E+02  0.94736072351E+02  0.89772033996E+02 0.  0.
         11    1    3    3    0    0 -0.72822562130E+01  0.15097373066E+02  0.28615657468E+02  0.33163500744E+02  0.51100000000E-03 0. -1.
         22    1    1    0    0    0 -0.11693539004E+01  0.94456422489E+00  0.30226573187E+02  0.30263927649E+02  0.00000000000E+00 0.  1.
</event>
<event>
 5    1  0.8778488E-005  0.9118800E+02  0.7818608E-02  0.1130116E+00
         25   -1    0    0    0    0  0.00000000000E+00  0.00000000000E+00  0.99999998245E-14  0.12500000000E+03  0.12500000000E+03 0.  0.
        -11    1    3    3    0    0  0.17376028507E+02  0.35443914133E+02  0.32091374218E+01  0.39604241932E+02  0.51100000000E-03 0. -1.
         23    2    1    0    0    0  0.31755907172E+02 -0.99031400212E+01 -0.12137131722E+02  0.89590682172E+02  0.82296236505E+02 0.  0.
         11    1    3    3    0    0  0.14379878665E+02 -0.45347054154E+02 -0.15346269144E+02  0.49986440239E+02  0.51100000000E-03 0.  1.
         22    1    1    0    0    0 -0.31755907172E+02  0.99031400212E+01  0.12137131722E+02  0.35409317828E+02  0.00000000000E+00 0.  1.
</event>
<event>
 5    1  0.8778488E-005  0.9118800E+02  0.7818608E-02  0.1130116E+00
         25   -1    0    0    0    0  0.00000000000E+00  0.00000000000E+00  0.99999998245E-14  0.12500000000E+03  0.12500000000E+03 0.  0.
        -11    1    3    3    0    0  0.40143350536E+02  0.41058084750E+02 -0.85980448977E+01  0.58061874685E+02  0.51100000000E-03 0. -1.
         23    2    1    0    0    0  0.28508812942E+02  0.85809099879E+01 -0.12358885168E+02  0.92764515295E+02  0.86983497422E+02 0.  0.
         11    1    3    3    0    0 -0.11634537594E+02 -0.32477174762E+02 -0.37608402699E+01  0.34702640611E+02  0.51100000000E-03 0.  1.
         22    1    1    0    0    0 -0.28508812942E+02 -0.85809099879E+01  0.12358885168E+02  0.32235484705E+02  0.00000000000E+00 0. -1.
</event>
<event>
 5    1  0.8778488E-005  0.9118800E+02  0.7818608E-02  0.1130116E+00
         25   -1    0    0    0    0  0.00000000000E+00  0.00000000000E+00  0.99999998245E-14  0.12500000000E+03  0.12500000000E+03 0.  0.
        -11    1    3    3    0    0 -0.37095401297E+02 -0.20099622349E+02 -0.28716964372E+01  0.42288417524E+02  0.51100000000E-03 0.  1.
         23    2    1    0    0    0  0.15733833047E+02 -0.23235487213E+02  0.68941207323E+01  0.96104147892E+02  0.91657170876E+02 0.  0.
         11    1    3    3    0    0  0.52829234344E+02 -0.31358648643E+01  0.97658171695E+01  0.53815730368E+02  0.51100000000E-03 0. -1.
         22    1    1    0    0    0 -0.15733833047E+02  0.23235487213E+02 -0.68941207323E+01  0.28895852108E+02  0.00000000000E+00 0. -1.
</event>
<event>
 5    1  0.8778488E-005  0.9118800E+02  0.7818608E-02  0.1130116E+00
         25   -1    0    0    0    0  0.00000000000E+00  0.00000000000E+00  0.99999998245E-14  0.12500000000E+03  0.12500000000E+03 0.  0.
        -11    1    3    3    0    0 -0.27104768621E+02 -0.19717067205E+02  0.17678326870E+02  0.37893989792E+02  0.51100000000E-03 0. -1.
         23    2    1    0    0    0  0.17342444308E+02  0.17496353056E+02  0.15481098855E+02  0.95904516388E+02  0.91384512348E+02 0.  0.
         11    1    3    3    0    0  0.44447212930E+02  0.37213420261E+02 -0.21972280153E+01  0.58010526596E+02  0.51100000000E-03 0.  1.
         22    1    1    0    0    0 -0.17342444308E+02 -0.17496353056E+02 -0.15481098855E+02  0.29095483612E+02  0.00000000000E+00 0.  1.
</event>
<event>
 5    1  0.8778488E-005  0.9118800E+02  0.7818608E-02  0.1130116E+00
         25   -1    0    0    0    0  0.00000000000E+00  0.00000000000E+00  0.99999998245E-14  0.12500000000E+03  0.12500000000E+03 0.  0.
        -11    1    3    3    0    0  0.38409060629E+02 -0.28022944785E+01 -0.33289566543E+01  0.38654763554E+02  0.51100000000E-03 0. -1.
         23    2    1    0    0    0  0.45241315374E+01 -0.10203638006E+01 -0.37736774026E+02  0.86979307971E+02  0.78229323100E+02 0.  0.
         11    1    3    3    0    0 -0.33884929092E+02  0.17819306778E+01 -0.34407817372E+02  0.48324544417E+02  0.51100000000E-03 0.  1.
         22    1    1    0    0    0 -0.45241315374E+01  0.10203638006E+01  0.37736774026E+02  0.38020692029E+02  0.00000000000E+00 0. -1.
</event>
<event>
 5    1  0.8778488E-005  0.9118800E+02  0.7818608E-02  0.1130116E+00
         25   -1    0    0    0    0  0.00000000000E+00  0.00000000000E+00  0.99999998245E-14  0.12500000000E+03  0.12500000000E+03 0.  0.
        -11    1    3    3    0    0  0.30025681798E+02 -0.11508679212E+02  0.95624144557E+01  0.33547444540E+02  0.51100000000E-03 0. -1.
         23    2    1    0    0    0 -0.25430779431E+02  0.14751533726E+02  0.58847189269E+01  0.95017301546E+02  0.90162771621E+02 0.  0.
         11    1    3    3    0    0 -0.55456461229E+02  0.26260212938E+02 -0.36776955287E+01  0.61469857006E+02  0.51100000000E-03 0.  1.
         22    1    1    0    0    0  0.25430779431E+02 -0.14751533726E+02 -0.58847189269E+01  0.29982698454E+02  0.00000000000E+00 0.  1.
</event>
<event>
 5    1  0.8778488E-005  0.9118800E+02  0.7818608E-02  0.1130116E+00
         25   -1    0    0    0    0  0.00000000000E+00  0.00000000000E+00  0.99999998245E-14  0.12500000000E+03  0.12500000000E+03 0.  0.
        -11    1    3    3    0    0 -0.10556243987E+02 -0.38682116463E+02  0.43795229279E+02  0.59378131741E+02  0.51100000000E-03 0. -1.
         23    2    1    0    0    0  0.75034793839E+01 -0.11116520558E+02  0.23089592378E+02  0.98297780835E+02  0.94601507433E+02 0.  0.
         11    1    3    3    0    0  0.18059723371E+02  0.27565595904E+02 -0.20705636902E+02  0.38919649094E+02  0.51100000000E-03 0.  1.
         22    1    1    0    0    0 -0.75034793839E+01  0.11116520558E+02 -0.23089592378E+02  0.26702219165E+02  0.00000000000E+00 0. -1.
</event>
<event>
 5    1  0.8778488E-005  0.9118800E+02  0.7818608E-02  0.1130116E+00
         25   -1    0    0    0    0  0.00000000000E+00  0.00000000000E+00  0.99999998245E-14  0.12500000000E+03  0.12500000000E+03 0.  0.
        -11    1    3    3    0    0  0.76241227514E+01 -0.15961706178E+02  0.35823989740E+02  0.39953242083E+02  0.51100000000E-03 0.  1.
         23    2    1    0    0    0  0.26957024886E+02  0.78049899159E+00 -0.12993942510E+02  0.95064520860E+02  0.90228211857E+02 0.  0.
         11    1    3    3    0    0  0.19332902135E+02  0.16742205169E+02 -0.48817932250E+02  0.55111278776E+02  0.51100000000E-03 0. -1.
         22    1    1    0    0    0 -0.26957024886E+02 -0.78049899159E+00  0.12993942510E+02  0.29935479140E+02  0.00000000000E+00 0. -1.
</event>
<event>
 5    1  0.8778488E-005  0.9118800E+02  0.7818608E-02  0.1130116E+00
         25   -1    0    0    0    0  0.00000000000E+00  0.00000000000E+00  0.99999998245E-14  0.12500000000E+03  0.12500000000E+03 0.  0.
        -11    1    3    3    0    0 -0.12240792992E+02  0.95916683161E+01  0.36398437193E+02  0.39581350969E+02  0.51100000000E-03 0.  1.
         23    2    1    0    0    0 -0.15579330758E+02  0.20582543414E+02 -0.16927862779E+02  0.94130772952E+02  0.88925211487E+02 0.  0.
         11    1    3    3    0    0 -0.33385377663E+01  0.10990875098E+02 -0.53326299971E+02  0.54549421984E+02  0.51100000000E-03 0. -1.
         22    1    1    0    0    0  0.15579330758E+02 -0.20582543414E+02  0.16927862779E+02  0.30869227048E+02  0.00000000000E+00 0. -1.
</event>
<event>
 5    1  0.8778488E-005  0.9118800E+02  0.7818608E-02  0.1130116E+00
         25   -1    0    0    0    0  0.00000000000E+00  0.00000000000E+00  0.99999998245E-14  0.12500000000E+03  0.12500000000E+03 0.  0.
        -11    1    3    3    0    0 -0.41287800509E+02  0.18123865717E+01  0.13336632146E+02  0.43426178432E+02  0.51100000000E-03 0.  1.
         23    2    1    0    0    0  0.65541200108E+01 -0.12817760857E+02  0.26220439266E+02  0.95087412051E+02  0.90259919193E+02 0.  0.
         11    1    3    3    0    0  0.47841920520E+02 -0.14630147428E+02  0.12883807120E+02  0.51661233619E+02  0.51100000000E-03 0. -1.
         22    1    1    0    0    0 -0.65541200108E+01  0.12817760857E+02 -0.26220439266E+02  0.29912587949E+02  0.00000000000E+00 0. -1.
</event>
<event>
 5    1  0.8778488E-005  0.9118800E+02  0.7818608E-02  0.1130116E+00
         25   -1    0    0    0    0  0.00000000000E+00  0.00000000000E+00  0.99999998245E-14  0.12500000000E+03  0.12500000000E+03 0.  0.
        -11    1    3    3    0    0 -0.21975294920E+02 -0.47647352134E+02  0.32234483827E+02  0.61581212232E+02  0.51100000000E-03 0.  1.
         23    2    1    0    0    0 -0.15657625568E+02 -0.42359614264E+02  0.21866465566E+02  0.74823905339E+02  0.55506543171E+02 0.  0.
         11    1    3    3    0    0  0.63176693517E+01  0.52877378697E+01 -0.10368018260E+02  0.13242693107E+02  0.51100000000E-03 0. -1.
         22    1    1    0    0    0  0.15657625568E+02  0.42359614264E+02 -0.21866465566E+02  0.50176094661E+02  0.00000000000E+00 0.  1.
</event>
<event>
 5    1  0.8778488E-005  0.9118800E+02  0.7818608E-02  0.1130116E+00
         25   -1    0    0    0    0  0.00000000000E+00  0.00000000000E+00  0.99999998245E-14  0.12500000000E+03  0.12500000000E+03 0.  0.
        -11    1    3    3    0    0 -0.30663491926E+02 -0.10089632572E+02  0.28327361548E+02  0.42947524202E+02  0.51100000000E-03 0. -1.
         23    2    1    0    0    0  0.82391138424E+01  0.23493291945E+02  0.14585925657E+02  0.96145763039E+02  0.91713907123E+02 0.  0.
         11    1    3    3    0    0  0.38902605769E+02  0.33582924517E+02 -0.13741435891E+02  0.53198238837E+02  0.51100000000E-03 0.  1.
         22    1    1    0    0    0 -0.82391138424E+01 -0.23493291945E+02 -0.14585925657E+02  0.28854236961E+02  0.00000000000E+00 0.  1.
</event>
<event>
 5    1  0.8778488E-005  0.9118800E+02  0.7818608E-02  0.1130116E+00
         25   -1    0    0    0    0  0.00000000000E+00  0.00000000000E+00  0.99999998245E-14  0.12500000000E+03  0.12500000000E+03 0.  0.
        -11    1    3    3    0    0 -0.50244961628E+01 -0.31682186781E+02 -0.17578271442E+02  0.36578711679E+02  0.51100000000E-03 0. -1.
         23    2    1    0    0    0 -0.19484069882E+02  0.20826008178E+02  0.58836833134E+01  0.95880087137E+02  0.91351090766E+02 0.  0.
         11    1    3    3    0    0 -0.14459573720E+02  0.52508194959E+02  0.23461954755E+02  0.59301375458E+02  0.51100000000E-03 0.  1.
         22    1    1    0    0    0  0.19484069882E+02 -0.20826008178E+02 -0.58836833134E+01  0.29119912863E+02  0.00000000000E+00 0.  1.
</event>
<event>
 5    1  0.8778488E-005  0.9118800E+02  0.7818608E-02  0.1130116E+00
         25   -1    0    0    0    0  0.00000000000E+00  0.00000000000E+00  0.99999998245E-14  0.12500000000E+03  0.12500000000E+03 0.  0.
        -11    1    3    3    0    0  0.30229261473E+02 -0.26340673759E+02  0.26590077411E+02  0.48111033664E+02  0.51100000000E-03 0.  1.
         23    2    1    0    0    0  0.36341865343E+01 -0.31548669907E+02 -0.81908942395E+01  0.92203405160E+02  0.86173379242E+02 0.  0.
         11    1    3    3    0    0 -0.26595074939E+02 -0.52079961486E+01 -0.34780971651E+02  0.44092371495E+02  0.51100000000E-03 0. -1.
         22    1    1    0    0    0 -0.36341865343E+01  0.31548669907E+02  0.81908942395E+01  0.32796594840E+02  0.00000000000E+00 0. -1.
</event>
<event>
 5    1  0.8778488E-005  0.9118800E+02  0.7818608E-02  0.1130116E+00
         25   -1    0    0    0    0  0.00000000000E+00  0.00000000000E+00  0.99999998245E-14  0.12500000000E+03  0.12500000000E+03 0.  0.
        -11    1    3    3    0    0 -0.44214914270E+01  0.21911667948E+02  0.24543548580E+02  0.33197237173E+02  0.51100000000E-03 0. -1.
         23    2    1    0    0    0  0.83246212937E+01 -0.24759790508E+02 -0.14280599416E+02  0.95229510159E+02  0.90456495288E+02 0.  0.
         11    1    3    3    0    0  0.12746112721E+02 -0.46671458456E+02 -0.38824147997E+02  0.62032272986E+02  0.51100000000E-03 0.  1.
         22    1    1    0    0    0 -0.83246212937E+01  0.24759790508E+02  0.14280599416E+02  0.29770489841E+02  0.00000000000E+00 0.  1.
</event>
<event>
 5    1  0.8778488E-005  0.9118800E+02  0.7818608E-02  0.1130116E+00
         25   -1    0    0    0    0  0.00000000000E+00  0.00000000000E+00  0.99999998245E-14  0.12500000000E+03  0.12500000000E+03 0.  0.
        -11    1    3    3    0    0 -0.33429279180E+01  0.33675077739E+02  0.17957981856E+02  0.38310248504E+02  0.51100000000E-03 0.  1.
         23    2    1    0    0    0  0.25024552455E+02 -0.77018771662E+01 -0.11407127204E+02  0.96440068479E+02  0.92114152657E+02 0.  0.
         11    1    3    3    0    0  0.28367480373E+02 -0.41376954905E+02 -0.29365109060E+02  0.58129819975E+02  0.51100000000E-03 0. -1.
         22    1    1    0    0    0 -0.25024552455E+02  0.77018771662E+01  0.11407127204E+02  0.28559931521E+02  0.00000000000E+00 0. -1.
</event>
<event>
 5    1  0.8778488E-005  0.9118800E+02  0.7818608E-02  0.1130116E+00
         25   -1    0    0    0    0  0.00000000000E+00  0.00000000000E+00  0.99999998245E-14  0.12500000000E+03  0.12500000000E+03 0.  0.
        -11    1    3    3    0    0 -0.93080676269E+01  0.18898307333E+02 -0.53434585547E+02  0.57437279496E+02  0.51100000000E-03 0.  1.
         23    2    1    0    0    0  0.10933135511E+02  0.16878514014E+02 -0.19584746206E+02  0.96929019052E+02  0.92775291770E+02 0.  0.
         11    1    3    3    0    0  0.20241203138E+02 -0.20197933199E+01  0.33849839341E+02  0.39491739556E+02  0.51100000000E-03 0. -1.
         22    1    1    0    0    0 -0.10933135511E+02 -0.16878514014E+02  0.19584746206E+02  0.28070980948E+02  0.00000000000E+00 0. -1.
</event>
<event>
 5    1  0.8778488E-005  0.9118800E+02  0.7818608E-02  0.1130116E+00
         25   -1    0    0    0    0  0.00000000000E+00  0.00000000000E+00  0.99999998245E-14  0.12500000000E+03  0.12500000000E+03 0.  0.
        -11    1    3    3    0    0  0.29157724231E+02 -0.10271401839E+02 -0.18676142721E+02  0.36117487250E+02  0.51100000000E-03 0. -1.
         23    2    1    0    0    0 -0.25027291132E+02  0.92417842985E+01  0.40198345182E+01  0.98019730394E+02  0.94233394285E+02 0.  0.
         11    1    3    3    0    0 -0.54185015363E+02  0.19513186137E+02  0.22695977239E+02  0.61902243144E+02  0.51100000000E-03 0.  1.
         22    1    1    0    0    0  0.25027291132E+02 -0.92417842985E+01 -0.40198345182E+01  0.26980269606E+02  0.00000000000E+00 0.  1.
</event>
<event>
 5    1  0.8778488E-005  0.9118800E+02  0.7818608E-02  0.1130116E+00
         25   -1    0    0    0    0  0.00000000000E+00  0.00000000000E+00  0.99999998245E-14  0.12500000000E+03  0.12500000000E+03 0.  0.
        -11    1    3    3    0    0 -0.94088176066E+01 -0.52932454338E+01 -0.32531836194E+02  0.34276298843E+02  0.51100000000E-03 0. -1.
         23    2    1    0    0    0  0.55436364206E+01  0.22640568123E+02  0.19106842380E+02  0.94860347457E+02  0.89944910163E+02 0.  0.
         11    1    3    3    0    0  0.14952454027E+02  0.27933813557E+02  0.51638678574E+02  0.60584048613E+02  0.51100000000E-03 0.  1.
         22    1    1    0    0    0 -0.55436364206E+01 -0.22640568123E+02 -0.19106842380E+02  0.30139652543E+02  0.00000000000E+00 0.  1.
</event>
<event>
 5    1  0.8778488E-005  0.9118800E+02  0.7818608E-02  0.1130116E+00
         25   -1    0    0    0    0  0.00000000000E+00  0.00000000000E+00  0.99999998245E-14  0.12500000000E+03  0.12500000000E+03 0.  0.
        -11    1    3    3    0    0  0.25706231704E+02 -0.23005058804E+02  0.13955975615E+02  0.37213066719E+02  0.51100000000E-03 0. -1.
         23    2    1    0    0    0  0.14067941023E+01  0.11978257422E+02 -0.26453995209E+02  0.95926445298E+02  0.91414502813E+02 0.  0.
         11    1    3    3    0    0 -0.24299437602E+02  0.34983316226E+02 -0.40409970824E+02  0.58713378579E+02  0.51100000000E-03 0.  1.
         22    1    1    0    0    0 -0.14067941023E+01 -0.11978257422E+02  0.26453995209E+02  0.29073554702E+02  0.00000000000E+00 0.  1.
</event>
<event>
 5    1  0.8778488E-005  0.9118800E+02  0.7818608E-02  0.1130116E+00
         25   -1    0    0    0    0  0.00000000000E+00  0.00000000000E+00  0.99999998245E-14  0.12500000000E+03  0.12500000000E+03 0.  0.
        -11    1    3    3    0    0 -0.33116573666E+02 -0.27536790544E+02 -0.34995307528E+01  0.43211445250E+02  0.51100000000E-03 0.  1.
         23    2    1    0    0    0  0.20196231072E+02 -0.18902867652E+02  0.82624717890E-01  0.97337516709E+02  0.93324054655E+02 0.  0.
         11    1    3    3    0    0  0.53312804738E+02  0.86339228923E+01  0.35821554706E+01  0.54126071459E+02  0.51100000000E-03 0. -1.
         22    1    1    0    0    0 -0.20196231072E+02  0.18902867652E+02 -0.82624717890E-01  0.27662483291E+02  0.00000000000E+00 0. -1.
</event>
<event>
 5    1  0.8778488E-005  0.9118800E+02  0.7818608E-02  0.1130116E+00
         25   -1    0    0    0    0  0.00000000000E+00  0.00000000000E+00  0.99999998245E-14  0.12500000000E+03  0.12500000000E+03 0.  0.
        -11    1    3    3    0    0  0.81558285168E+01 -0.54583558870E+02  0.23577993171E+02  0.60015033116E+02  0.51100000000E-03 0.  1.
         23    2    1    0    0    0 -0.41488422581E+01 -0.34674713654E+02  0.53710680901E+01  0.89667337611E+02  0.82412586434E+02 0.  0.
         11    1    3    3    0    0 -0.12304670775E+02  0.19908845215E+02 -0.18206925081E+02  0.29652304495E+02  0.51100000000E-03 0. -1.
         22    1    1    0    0    0  0.41488422581E+01  0.34674713654E+02 -0.53710680901E+01  0.35332662389E+02  0.00000000000E+00 0.  1.
</event>
<event>
 5    1  0.8778488E-005  0.9118800E+02  0.7818608E-02  0.1130116E+00
         25   -1    0    0    0    0  0.00000000000E+00  0.00000000000E+00  0.99999998245E-14  0.12500000000E+03  0.12500000000E+03 0.  0.
        -11    1    3    3    0    0 -0.56305321184E+01  0.21902926775E+02  0.25259999733E+02  0.33904405023E+02  0.51100000000E-03 0.  1.
         23    2    1    0    0    0  0.20750996593E+02 -0.80919893143E+01 -0.20557313422E+02  0.94690145401E+02  0.89708061791E+02 0.  0.
         11    1    3    3    0    0  0.26381528711E+02 -0.29994916089E+02 -0.45817313155E+02  0.60785740378E+02  0.51100000000E-03 0. -1.
         22    1    1    0    0    0 -0.20750996593E+02  0.80919893143E+01  0.20557313422E+02  0.30309854599E+02  0.00000000000E+00 0. -1.
</event>
<event>
 5    1  0.8778488E-005  0.9118800E+02  0.7818608E-02  0.1130116E+00
         25   -1    0    0    0    0  0.00000000000E+00  0.00000000000E+00  0.99999998245E-14  0.12500000000E+03  0.12500000000E+03 0.  0.
        -11    1    3    3    0    0 -0.22925513095E+02 -0.51767780249E+02  0.24948526228E+02  0.61870115434E+02  0.51100000000E-03 0. -1.
         23    2    1    0    0    0 -0.12840663931E+02 -0.19916752442E+02  0.15830616290E+02  0.96501437051E+02  0.92197392928E+02 0.  0.
         11    1    3    3    0    0  0.10084849164E+02  0.31851027807E+02 -0.91179099378E+01  0.34631321617E+02  0.51100000000E-03 0.  1.
         22    1    1    0    0    0  0.12840663931E+02  0.19916752442E+02 -0.15830616290E+02  0.28498562949E+02  0.00000000000E+00 0. -1.
</event>
<event>
 5    1  0.8778488E-005  0.9118800E+02  0.7818608E-02  0.1130116E+00
         25   -1    0    0    0    0  0.00000000000E+00  0.00000000000E+00  0.99999998245E-14  0.12500000000E+03  0.12500000000E+03 0.  0.
        -11    1    3    3    0    0 -0.58624492324E+00  0.19127813852E+02  0.28233138436E+02  0.34107580566E+02  0.51100000000E-03 0.  1.
         23    2    1    0    0    0 -0.79145937252E+01 -0.14109506098E+02 -0.23763052740E+02  0.96252797846E+02  0.91859672662E+02 0.  0.
         11    1    3    3    0    0 -0.73283488020E+01 -0.33237319950E+02 -0.51996191176E+02  0.62145217280E+02  0.51100000000E-03 0. -1.
         22    1    1    0    0    0  0.79145937252E+01  0.14109506098E+02  0.23763052740E+02  0.28747202154E+02  0.00000000000E+00 0. -1.
</event>
<event>
 5    1  0.8778488E-005  0.9118800E+02  0.7818608E-02  0.1130116E+00
         25   -1    0    0    0    0  0.00000000000E+00  0.00000000000E+00  0.99999998245E-14  0.12500000000E+03  0.12500000000E+03 0.  0.
        -11    1    3    3    0    0 -0.33511725005E+02  0.40647728395E+02 -0.17077856787E+02  0.55379840458E+02  0.51100000000E-03 0. -1.
         23    2    1    0    0    0 -0.47659746250E+01  0.64108436302E+01 -0.23164593526E+02  0.10049669770E+03  0.97463708251E+02 0.  0.
         11    1    3    3    0    0  0.28745750380E+02 -0.34236884765E+02 -0.60867367395E+01  0.45116857245E+02  0.51100000000E-03 0.  1.
         22    1    1    0    0    0  0.47659746250E+01 -0.64108436302E+01  0.23164593526E+02  0.24503302296E+02  0.00000000000E+00 0. -1.
</event>
<event>
 5    1  0.8778488E-005  0.9118800E+02  0.7818608E-02  0.1130116E+00
         25   -1    0    0    0    0  0.00000000000E+00  0.00000000000E+00  0.99999998245E-14  0.12500000000E+03  0.12500000000E+03 0.  0.
        -11    1    3    3    0    0  0.38945606377E+02  0.16060469160E+02 -0.43199938263E+02  0.60340149088E+02  0.51100000000E-03 0. -1.
         23    2    1    0    0    0  0.50430477289E+01  0.32069854217E+01 -0.21698464893E+02  0.10249354616E+03  0.99991932370E+02 0.  0.
         11    1    3    3    0    0 -0.33902558648E+02 -0.12853483739E+02  0.21501473370E+02  0.42153397069E+02  0.51100000000E-03 0.  1.
         22    1    1    0    0    0 -0.50430477289E+01 -0.32069854217E+01  0.21698464893E+02  0.22506453844E+02  0.00000000000E+00 0. -1.
</event>
<event>
 5    1  0.8778488E-005  0.9118800E+02  0.7818608E-02  0.1130116E+00
         25   -1    0    0    0    0  0.00000000000E+00  0.00000000000E+00  0.99999998245E-14  0.12500000000E+03  0.12500000000E+03 0.  0.
        -11    1    3    3    0    0  0.46031598122E+02 -0.38985258794E+02  0.46122348664E+01  0.60498191209E+02  0.51100000000E-03 0.  1.
         23    2    1    0    0    0  0.12595098310E+02 -0.24534944358E+02 -0.12518955170E+01  0.97392623477E+02  0.93397836534E+02 0.  0.
         11    1    3    3    0    0 -0.33436499812E+02  0.14450314436E+02 -0.58641303833E+01  0.36894432268E+02  0.51100000000E-03 0. -1.
         22    1    1    0    0    0 -0.12595098310E+02  0.24534944358E+02  0.12518955170E+01  0.27607376523E+02  0.00000000000E+00 0.  1.
</event>
<event>
 5    1  0.8778488E-005  0.9118800E+02  0.7818608E-02  0.1130116E+00
         25   -1    0    0    0    0  0.00000000000E+00  0.00000000000E+00  0.99999998245E-14  0.12500000000E+03  0.12500000000E+03 0.  0.
        -11    1    3    3    0    0  0.25790092240E+01 -0.35186264394E+02  0.34954598560E+01  0.35453388138E+02  0.51100000000E-03 0.  1.
         23    2    1    0    0    0 -0.41129613087E+01  0.19818065890E+02 -0.20819398230E+02  0.95963479392E+02  0.91465129137E+02 0.  0.
         11    1    3    3    0    0 -0.66919705327E+01  0.55004330284E+02 -0.24314858086E+02  0.60510091254E+02  0.51100000000E-03 0. -1.
         22    1    1    0    0    0  0.41129613087E+01 -0.19818065890E+02  0.20819398230E+02  0.29036520608E+02  0.00000000000E+00 0. -1.
</event>
<event>
 5    1  0.8778488E-005  0.9118800E+02  0.7818608E-02  0.1130116E+00
         25   -1    0    0    0    0  0.00000000000E+00  0.00000000000E+00  0.99999998245E-14  0.12500000000E+03  0.12500000000E+03 0.  0.
        -11    1    3    3    0    0  0.37495312773E+02  0.55505046897E+01 -0.35535011276E+02  0.51956170075E+02  0.51100000000E-03 0.  1.
         23    2    1    0    0    0  0.25923700442E+02  0.59123659437E+00  0.84657694566E+01  0.97722590706E+02  0.93838412585E+02 0.  0.
         11    1    3    3    0    0 -0.11571612331E+02 -0.49592680954E+01  0.44000780733E+02  0.45766420631E+02  0.51100000000E-03 0. -1.
         22    1    1    0    0    0 -0.25923700442E+02 -0.59123659437E+00 -0.84657694566E+01  0.27277409294E+02  0.00000000000E+00 0.  1.
</event>
<event>
 5    1  0.8778488E-005  0.9118800E+02  0.7818608E-02  0.1130116E+00
         25   -1    0    0    0    0  0.00000000000E+00  0.00000000000E+00  0.99999998245E-14  0.12500000000E+03  0.12500000000E+03 0.  0.
        -11    1    3    3    0    0 -0.19078604534E+02  0.49976161490E+02 -0.16514174441E+02  0.55985067884E+02  0.51100000000E-03 0.  1.
         23    2    1    0    0    0  0.48313171640E+01  0.13877197996E+02  0.10427554481E+02  0.10698189404E+03  0.10545365575E+03 0.  0.
         11    1    3    3    0    0  0.23909921698E+02 -0.36098963494E+02  0.26941728922E+02  0.50996826161E+02  0.51100000000E-03 0. -1.
         22    1    1    0    0    0 -0.48313171640E+01 -0.13877197996E+02 -0.10427554481E+02  0.18018105955E+02  0.00000000000E+00 0.  1.
</event>
<event>
 5    1  0.8778488E-005  0.9118800E+02  0.7818608E-02  0.1130116E+00
         25   -1    0    0    0    0  0.00000000000E+00  0.00000000000E+00  0.99999998245E-14  0.12500000000E+03  0.12500000000E+03 0.  0.
        -11    1    3    3    0    0 -0.33356327279E+02  0.66867196329E+00  0.12136177880E+02  0.35501809891E+02  0.51100000000E-03 0.  1.
         23    2    1    0    0    0  0.16725791430E+02 -0.98168851708E+01 -0.20962752517E+02  0.96441983148E+02  0.92116750849E+02 0.  0.
         11    1    3    3    0    0  0.50082118709E+02 -0.10485557134E+02 -0.33098930398E+02  0.60940173257E+02  0.51100000000E-03 0. -1.
         22    1    1    0    0    0 -0.16725791430E+02  0.98168851708E+01  0.20962752517E+02  0.28558016852E+02  0.00000000000E+00 0. -1.
</event>
<event>
 5    1  0.8778488E-005  0.9118800E+02  0.7818608E-02  0.1130116E+00
         25   -1    0    0    0    0  0.00000000000E+00  0.00000000000E+00  0.99999998245E-14  0.12500000000E+03  0.12500000000E+03 0.  0.
        -11    1    3    3    0    0 -0.31988365850E+01  0.28957369588E+02  0.31819648807E+02  0.43142228263E+02  0.51100000000E-03 0. -1.
         23    2    1    0    0    0  0.28249982015E+02 -0.43544743732E+01  0.57781571298E+01  0.95838209405E+02  0.91293769509E+02 0.  0.
         11    1    3    3    0    0  0.31448818600E+02 -0.33311843962E+02 -0.26041491677E+02  0.52695981142E+02  0.51100000000E-03 0.  1.
         22    1    1    0    0    0 -0.28249982015E+02  0.43544743732E+01 -0.57781571298E+01  0.29161790595E+02  0.00000000000E+00 0.  1.
</event>
<event>
 5    1  0.8778488E-005  0.9118800E+02  0.7818608E-02  0.1130116E+00
         25   -1    0    0    0    0  0.00000000000E+00  0.00000000000E+00  0.99999998245E-14  0.12500000000E+03  0.12500000000E+03 0.  0.
        -11    1    3    3    0    0  0.26232491098E+01 -0.18911017311E+02  0.51320452295E+02  0.54756705851E+02  0.51100000000E-03 0.  1.
         23    2    1    0    0    0 -0.18988950450E+02  0.37927039679E+00  0.20276128528E+02  0.97217892929E+02  0.93163690525E+02 0.  0.
         11    1    3    3    0    0 -0.21612199560E+02  0.19290287708E+02 -0.31044323767E+02  0.42461187078E+02  0.51100000000E-03 0. -1.
         22    1    1    0    0    0  0.18988950450E+02 -0.37927039679E+00 -0.20276128528E+02  0.27782107071E+02  0.00000000000E+00 0.  1.
</event>
<event>
 5    1  0.8778488E-005  0.9118800E+02  0.7818608E-02  0.1130116E+00
         25   -1    0    0    0    0  0.00000000000E+00  0.00000000000E+00  0.99999998245E-14  0.12500000000E+03  0.12500000000E+03 0.  0.
        -11    1    3    3    0    0 -0.17894963724E+01 -0.34770190807E+02 -0.17903217026E+01  0.34862210459E+02  0.51100000000E-03 0.  1.
         23    2    1    0    0    0  0.12712688531E+01  0.18990714595E+02  0.23836175546E+02  0.94497104564E+02  0.89438672513E+02 0.  0.
         11    1    3    3    0    0  0.30607652254E+01  0.53760905402E+02  0.25626497249E+02  0.59634894105E+02  0.51100000000E-03 0. -1.
         22    1    1    0    0    0 -0.12712688531E+01 -0.18990714595E+02 -0.23836175546E+02  0.30502895436E+02  0.00000000000E+00 0. -1.
</event>
<event>
 5    1  0.8778488E-005  0.9118800E+02  0.7818608E-02  0.1130116E+00
         25   -1    0    0    0    0  0.00000000000E+00  0.00000000000E+00  0.99999998245E-14  0.12500000000E+03  0.12500000000E+03 0.  0.
        -11    1    3    3    0    0 -0.29150936474E+02  0.21670649044E+02 -0.40770190766E+02  0.54604052804E+02  0.51100000000E-03 0.  1.
         23    2    1    0    0    0 -0.18078365299E+02 -0.11678772371E+02 -0.21030571453E+02  0.94908374062E+02  0.90011629890E+02 0.  0.
         11    1    3    3    0    0  0.11072571175E+02 -0.33349421415E+02  0.19739619313E+02  0.40304321258E+02  0.51100000000E-03 0. -1.
         22    1    1    0    0    0  0.18078365299E+02  0.11678772371E+02  0.21030571453E+02  0.30091625938E+02  0.00000000000E+00 0.  1.
</event>
<event>
 5    1  0.8778488E-005  0.9118800E+02  0.7818608E-02  0.1130116E+00
         25   -1    0    0    0    0  0.00000000000E+00  0.00000000000E+00  0.99999998245E-14  0.12500000000E+03  0.12500000000E+03 0.  0.
        -11    1    3    3    0    0  0.20295417871E+02  0.44534951780E+02  0.13012319057E+02  0.50641745271E+02  0.51100000000E-03 0. -1.
         23    2    1    0    0    0 -0.18160353768E+02  0.22206228096E+02  0.65268744053E+01  0.95580361920E+02  0.90940037827E+02 0.  0.
         11    1    3    3    0    0 -0.38455771640E+02 -0.22328723684E+02 -0.64854446516E+01  0.44938616649E+02  0.51100000000E-03 0.  1.
         22    1    1    0    0    0  0.18160353768E+02 -0.22206228096E+02 -0.65268744053E+01  0.29419638080E+02  0.00000000000E+00 0.  1.
</event>
<event>
 5    1  0.8778488E-005  0.9118800E+02  0.7818608E-02  0.1130116E+00
         25   -1    0    0    0    0  0.00000000000E+00  0.00000000000E+00  0.99999998245E-14  0.12500000000E+03  0.12500000000E+03 0.  0.
        -11    1    3    3    0    0  0.10839427199E+01  0.58367300742E+02  0.22504205208E+01  0.58420725094E+02  0.51100000000E-03 0.  1.
         23    2    1    0    0    0 -0.14068357206E+02  0.25571859536E+02  0.73421077464E+01  0.94904398647E+02  0.90006109025E+02 0.  0.
         11    1    3    3    0    0 -0.15152299926E+02 -0.32795441206E+02  0.50916872256E+01  0.36483673554E+02  0.51100000000E-03 0. -1.
         22    1    1    0    0    0  0.14068357206E+02 -0.25571859536E+02 -0.73421077464E+01  0.30095601353E+02  0.00000000000E+00 0.  1.
</event>
<event>
 5    1  0.8778488E-005  0.9118800E+02  0.7818608E-02  0.1130116E+00
         25   -1    0    0    0    0  0.00000000000E+00  0.00000000000E+00  0.99999998245E-14  0.12500000000E+03  0.12500000000E+03 0.  0.
        -11    1    3    3    0    0 -0.37951217320E+02  0.13222935335E+02  0.95238567984E+01  0.41301873607E+02  0.51100000000E-03 0. -1.
         23    2    1    0    0    0 -0.94255528373E+01 -0.23954096993E+02 -0.16028646067E+02  0.94675796733E+02  0.89688066002E+02 0.  0.
         11    1    3    3    0    0  0.28525664482E+02 -0.37177032328E+02 -0.25552502865E+02  0.53373923125E+02  0.51100000000E-03 0.  1.
         22    1    1    0    0    0  0.94255528373E+01  0.23954096993E+02  0.16028646067E+02  0.30324203267E+02  0.00000000000E+00 0.  1.
</event>
<event>
 5    1  0.8778488E-005  0.9118800E+02  0.7818608E-02  0.1130116E+00
         25   -1    0    0    0    0  0.00000000000E+00  0.00000000000E+00  0.99999998245E-14  0.12500000000E+03  0.12500000000E+03 0.  0.
        -11    1    3    3    0    0  0.42911893688E+02  0.31138875466E+02 -0.92172747151E+01  0.53814666575E+02  0.51100000000E-03 0.  1.
         23    2    1    0    0    0  0.16625577588E+02 -0.92959786186E+00 -0.22185741088E+02  0.97260477835E+02  0.93220810224E+02 0.  0.
         11    1    3    3    0    0 -0.26286316100E+02 -0.32068473328E+02 -0.12968466373E+02  0.43445811260E+02  0.51100000000E-03 0. -1.
         22    1    1    0    0    0 -0.16625577588E+02  0.92959786186E+00  0.22185741088E+02  0.27739522165E+02  0.00000000000E+00 0.  1.
</event>
<event>
 5    1  0.8778488E-005  0.9118800E+02  0.7818608E-02  0.1130116E+00
         25   -1    0    0    0    0  0.00000000000E+00  0.00000000000E+00  0.99999998245E-14  0.12500000000E+03  0.12500000000E+03 0.  0.
        -11    1    3    3    0    0 -0.22517727692E+02  0.30497374486E+02 -0.16547231551E+02  0.41363616660E+02  0.51100000000E-03 0. -1.
         23    2    1    0    0    0 -0.22732828193E+02 -0.16626660001E+02  0.95856992407E+01  0.95249152443E+02  0.90483634491E+02 0.  0.
         11    1    3    3    0    0 -0.21510050171E+00 -0.47124034487E+02  0.26132930792E+02  0.53885535782E+02  0.51100000000E-03 0.  1.
         22    1    1    0    0    0  0.22732828193E+02  0.16626660001E+02 -0.95856992407E+01  0.29750847557E+02  0.00000000000E+00 0.  1.
</event>
<event>
 5    1  0.8778488E-005  0.9118800E+02  0.7818608E-02  0.1130116E+00
         25   -1    0    0    0    0  0.00000000000E+00  0.00000000000E+00  0.99999998245E-14  0.12500000000E+03  0.12500000000E+03 0.  0.
        -11    1    3    3    0    0  0.55274784437E+02 -0.10803710836E+01 -0.23293219906E+02  0.59992025220E+02  0.51100000000E-03 0.  1.
         23    2    1    0    0    0  0.25287427977E+02 -0.12957791235E+02 -0.10005952736E+02  0.94875633492E+02  0.89966151262E+02 0.  0.
         11    1    3    3    0    0 -0.29987356460E+02 -0.11877420151E+02  0.13287267170E+02  0.34883608271E+02  0.51100000000E-03 0. -1.
         22    1    1    0    0    0 -0.25287427977E+02  0.12957791235E+02  0.10005952736E+02  0.30124366508E+02  0.00000000000E+00 0.  1.
</event>
<event>
 5    1  0.8778488E-005  0.9118800E+02  0.7818608E-02  0.1130116E+00
         25   -1    0    0    0    0  0.00000000000E+00  0.00000000000E+00  0.99999998245E-14  0.12500000000E+03  0.12500000000E+03 0.  0.
        -11    1    3    3    0    0 -0.33967352829E+01  0.51454475638E+02  0.26112458346E+01  0.51632542828E+02  0.51100000000E-03 0.  1.
         23    2    1    0    0    0 -0.15206079555E+02  0.14232342681E+02 -0.19466121158E+02  0.96491855435E+02  0.92184401385E+02 0.  0.
         11    1    3    3    0    0 -0.11809344272E+02 -0.37222132957E+02 -0.22077366993E+02  0.44859312607E+02  0.51100000000E-03 0. -1.
         22    1    1    0    0    0  0.15206079555E+02 -0.14232342681E+02  0.19466121158E+02  0.28508144565E+02  0.00000000000E+00 0. -1.
</event>
<event>
 5    1  0.8778488E-005  0.9118800E+02  0.7818608E-02  0.1130116E+00
         25   -1    0    0    0    0  0.00000000000E+00  0.00000000000E+00  0.99999998245E-14  0.12500000000E+03  0.12500000000E+03 0.  0.
        -11    1    3    3    0    0 -0.68882803815E+01  0.23987166873E+02  0.57118192704E+02  0.62332339273E+02  0.51100000000E-03 0.  1.
         23    2    1    0    0    0 -0.19081555793E+01  0.11574119411E+02  0.19663884794E+02  0.10210306433E+03  0.99502593346E+02 0.  0.
         11    1    3    3    0    0  0.49801248022E+01 -0.12413047462E+02 -0.37454307910E+02  0.39770725058E+02  0.51100000000E-03 0. -1.
         22    1    1    0    0    0  0.19081555793E+01 -0.11574119411E+02 -0.19663884794E+02  0.22896935669E+02  0.00000000000E+00 0.  1.
</event>
<event>
 5    1  0.8778488E-005  0.9118800E+02  0.7818608E-02  0.1130116E+00
         25   -1    0    0    0    0  0.00000000000E+00  0.00000000000E+00  0.99999998245E-14  0.12500000000E+03  0.12500000000E+03 0.  0.
        -11    1    3    3    0    0  0.36693246487E+02  0.18430351790E+02  0.17543101343E+02  0.44652352793E+02  0.51100000000E-03 0.  1.
         23    2    1    0    0    0  0.19694210692E+02 -0.18693673201E+02 -0.12263822091E+02  0.95205425245E+02  0.90423206708E+02 0.  0.
         11    1    3    3    0    0 -0.16999035795E+02 -0.37124024992E+02 -0.29806923434E+02  0.50553072453E+02  0.51100000000E-03 0. -1.
         22    1    1    0    0    0 -0.19694210692E+02  0.18693673201E+02  0.12263822091E+02  0.29794574755E+02  0.00000000000E+00 0. -1.
</event>
<event>
 5    1  0.8778488E-005  0.9118800E+02  0.7818608E-02  0.1130116E+00
         25   -1    0    0    0    0  0.00000000000E+00  0.00000000000E+00  0.99999998245E-14  0.12500000000E+03  0.12500000000E+03 0.  0.
        -11    1    3    3    0    0 -0.50261326894E+02  0.17030518708E+02 -0.80841198379E+01  0.53680467048E+02  0.51100000000E-03 0. -1.
         23    2    1    0    0    0 -0.12713435652E+02  0.26987529848E+02  0.51661656145E+01  0.94723813309E+02  0.89754962689E+02 0.  0.
         11    1    3    3    0    0  0.37547891242E+02  0.99570111395E+01  0.13250285452E+02  0.41043346262E+02  0.51100000000E-03 0.  1.
         22    1    1    0    0    0  0.12713435652E+02 -0.26987529848E+02 -0.51661656145E+01  0.30276186691E+02  0.00000000000E+00 0. -1.
</event>
<event>
 5    1  0.8778488E-005  0.9118800E+02  0.7818608E-02  0.1130116E+00
         25   -1    0    0    0    0  0.00000000000E+00  0.00000000000E+00  0.99999998245E-14  0.12500000000E+03  0.12500000000E+03 0.  0.
        -11    1    3    3    0    0  0.21009393546E+02  0.14979951722E+02  0.21552208978E+02  0.33619804920E+02  0.51100000000E-03 0. -1.
         23    2    1    0    0    0 -0.30449315200E+02  0.18263630472E+00 -0.61951464029E+01  0.93926313526E+02  0.88637341913E+02 0.  0.
         11    1    3    3    0    0 -0.51458708746E+02 -0.14797315418E+02 -0.27747355381E+02  0.60306508606E+02  0.51100000000E-03 0.  1.
         22    1    1    0    0    0  0.30449315200E+02 -0.18263630472E+00  0.61951464029E+01  0.31073686474E+02  0.00000000000E+00 0.  1.
</event>
<event>
 5    1  0.8778488E-005  0.9118800E+02  0.7818608E-02  0.1130116E+00
         25   -1    0    0    0    0  0.00000000000E+00  0.00000000000E+00  0.99999998245E-14  0.12500000000E+03  0.12500000000E+03 0.  0.
        -11    1    3    3    0    0 -0.47563621520E+02  0.59824509453E+01  0.61046055555E+01  0.48325500728E+02  0.51100000000E-03 0.  1.
         23    2    1    0    0    0 -0.14620827880E+02  0.23207653838E+02 -0.17595561184E+02  0.92412155979E+02  0.86475655503E+02 0.  0.
         11    1    3    3    0    0  0.32942793639E+02  0.17225202893E+02 -0.23700166739E+02  0.44086655251E+02  0.51100000000E-03 0. -1.
         22    1    1    0    0    0  0.14620827880E+02 -0.23207653838E+02  0.17595561184E+02  0.32587844021E+02  0.00000000000E+00 0.  1.
</event>
<event>
 5    1  0.8778488E-005  0.9118800E+02  0.7818608E-02  0.1130116E+00
         25   -1    0    0    0    0  0.00000000000E+00  0.00000000000E+00  0.99999998245E-14  0.12500000000E+03  0.12500000000E+03 0.  0.
        -11    1    3    3    0    0  0.26860451285E+02 -0.25584267500E+01  0.14716238939E+02  0.30734298096E+02  0.51100000000E-03 0.  1.
         23    2    1    0    0    0 -0.29515088131E+02 -0.38386113213E+01 -0.11717908213E+02  0.93012741019E+02  0.87339482793E+02 0.  0.
         11    1    3    3    0    0 -0.56375539416E+02 -0.12801845713E+01 -0.26434147152E+02  0.62278442923E+02  0.51100000000E-03 0. -1.
         22    1    1    0    0    0  0.29515088131E+02  0.38386113213E+01  0.11717908213E+02  0.31987258981E+02  0.00000000000E+00 0. -1.
</event>
<event>
 5    1  0.8778488E-005  0.9118800E+02  0.7818608E-02  0.1130116E+00
         25   -1    0    0    0    0  0.00000000000E+00  0.00000000000E+00  0.99999998245E-14  0.12500000000E+03  0.12500000000E+03 0.  0.
        -11    1    3    3    0    0  0.23236085275E+02  0.19701436659E+02  0.12932466991E+01  0.30491552152E+02  0.51100000000E-03 0. -1.
         23    2    1    0    0    0 -0.32771195056E+02 -0.30824244192E+01  0.73976152028E+01  0.91263116973E+02  0.84798462505E+02 0.  0.
         11    1    3    3    0    0 -0.56007280331E+02 -0.22783861079E+02  0.61043685036E+01  0.60771564821E+02  0.51100000000E-03 0.  1.
         22    1    1    0    0    0  0.32771195056E+02  0.30824244192E+01 -0.73976152028E+01  0.33736883027E+02  0.00000000000E+00 0.  1.
</event>
<event>
 5    1  0.8778488E-005  0.9118800E+02  0.7818608E-02  0.1130116E+00
         25   -1    0    0    0    0  0.00000000000E+00  0.00000000000E+00  0.99999998245E-14  0.12500000000E+03  0.12500000000E+03 0.  0.
        -11    1    3    3    0    0 -0.21740307888E+02  0.28976812868E+02 -0.39993778282E+01  0.36445736298E+02  0.51100000000E-03 0.  1.
         23    2    1    0    0    0  0.56809294461E+01 -0.14420706140E+02  0.25133920898E+02  0.95471307096E+02  0.90790014726E+02 0.  0.
         11    1    3    3    0    0  0.27421237334E+02 -0.43397519008E+02  0.29133298726E+02  0.59025570797E+02  0.51100000000E-03 0. -1.
         22    1    1    0    0    0 -0.56809294461E+01  0.14420706140E+02 -0.25133920898E+02  0.29528692904E+02  0.00000000000E+00 0. -1.
</event>
<event>
 5    1  0.8778488E-005  0.9118800E+02  0.7818608E-02  0.1130116E+00
         25   -1    0    0    0    0  0.00000000000E+00  0.00000000000E+00  0.99999998245E-14  0.12500000000E+03  0.12500000000E+03 0.  0.
        -11    1    3    3    0    0  0.34650798622E+01 -0.70243149988E+01  0.33012311225E+02  0.33928755832E+02  0.51100000000E-03 0. -1.
         23    2    1    0    0    0  0.14527970709E+02  0.73380150612E+01 -0.25256895594E+02  0.94953050521E+02  0.90073651143E+02 0.  0.
         11    1    3    3    0    0  0.11062890847E+02  0.14362330060E+02 -0.58269206819E+02  0.61024294688E+02  0.51100000000E-03 0.  1.
         22    1    1    0    0    0 -0.14527970709E+02 -0.73380150612E+01  0.25256895594E+02  0.30046949479E+02  0.00000000000E+00 0.  1.
</event>
<event>
 5    1  0.8778488E-005  0.9118800E+02  0.7818608E-02  0.1130116E+00
         25   -1    0    0    0    0  0.00000000000E+00  0.00000000000E+00  0.99999998245E-14  0.12500000000E+03  0.12500000000E+03 0.  0.
        -11    1    3    3    0    0  0.15700657236E+01  0.61524198712E+02 -0.81552051521E+01  0.62082199582E+02  0.51100000000E-03 0.  1.
         23    2    1    0    0    0  0.51437004562E+01  0.28634330566E+02 -0.12381803899E+01  0.95881009083E+02  0.91352352300E+02 0.  0.
         11    1    3    3    0    0  0.35736347325E+01 -0.32889868147E+02  0.69170247623E+01  0.33798809502E+02  0.51100000000E-03 0. -1.
         22    1    1    0    0    0 -0.51437004562E+01 -0.28634330566E+02  0.12381803899E+01  0.29118990917E+02  0.00000000000E+00 0.  1.
</event>
<event>
 5    1  0.8778488E-005  0.9118800E+02  0.7818608E-02  0.1130116E+00
         25   -1    0    0    0    0  0.00000000000E+00  0.00000000000E+00  0.99999998245E-14  0.12500000000E+03  0.12500000000E+03 0.  0.
        -11    1    3    3    0    0 -0.32231924925E+02  0.47526458528E+02  0.41321027165E+01  0.57573739827E+02  0.51100000000E-03 0. -1.
         23    2    1    0    0    0 -0.14754638242E+02  0.17838669716E+02  0.18957293776E+02  0.95078494787E+02  0.90247568925E+02 0.  0.
         11    1    3    3    0    0  0.17477286684E+02 -0.29687788812E+02  0.14825191060E+02  0.37504754960E+02  0.51100000000E-03 0.  1.
         22    1    1    0    0    0  0.14754638242E+02 -0.17838669716E+02 -0.18957293776E+02  0.29921505213E+02  0.00000000000E+00 0. -1.
</event>
<event>
 5    1  0.8778488E-005  0.9118800E+02  0.7818608E-02  0.1130116E+00
         25   -1    0    0    0    0  0.00000000000E+00  0.00000000000E+00  0.99999998245E-14  0.12500000000E+03  0.12500000000E+03 0.  0.
        -11    1    3    3    0    0 -0.28975938177E+02  0.17068185081E+02  0.31026935338E+02  0.45755859209E+02  0.51100000000E-03 0.  1.
         23    2    1    0    0    0  0.36361600787E+01  0.23781957019E+02 -0.10302217928E+02  0.98828663886E+02  0.95300398590E+02 0.  0.
         11    1    3    3    0    0  0.32612098256E+02  0.67137719377E+01 -0.41329153266E+02  0.53072804677E+02  0.51100000000E-03 0. -1.
         22    1    1    0    0    0 -0.36361600787E+01 -0.23781957019E+02  0.10302217928E+02  0.26171336114E+02  0.00000000000E+00 0. -1.
</event>
<event>
 5    1  0.8778488E-005  0.9118800E+02  0.7818608E-02  0.1130116E+00
         25   -1    0    0    0    0  0.00000000000E+00  0.00000000000E+00  0.99999998245E-14  0.12500000000E+03  0.12500000000E+03 0.  0.
        -11    1    3    3    0    0  0.11486185643E+02  0.26016702398E+02  0.20997950452E+02  0.35351310976E+02  0.51100000000E-03 0. -1.
         23    2    1    0    0    0 -0.21501739915E+02 -0.19803093215E+02 -0.49750066588E+00  0.95764151677E+02  0.91192312830E+02 0.  0.
         11    1    3    3    0    0 -0.32987925558E+02 -0.45819795613E+02 -0.21495451118E+02  0.60412840701E+02  0.51100000000E-03 0.  1.
         22    1    1    0    0    0  0.21501739915E+02  0.19803093215E+02  0.49750066588E+00  0.29235848323E+02  0.00000000000E+00 0.  1.
</event>
<event>
 5    1  0.8778488E-005  0.9118800E+02  0.7818608E-02  0.1130116E+00
         25   -1    0    0    0    0  0.00000000000E+00  0.00000000000E+00  0.99999998245E-14  0.12500000000E+03  0.12500000000E+03 0.  0.
        -11    1    3    3    0    0  0.46757264385E+02 -0.30039077103E+02  0.11840881486E+02  0.56822481472E+02  0.51100000000E-03 0.  1.
         23    2    1    0    0    0  0.21497714694E+02 -0.18539697631E+02 -0.12728507879E+02  0.93889117046E+02  0.88584870388E+02 0.  0.
         11    1    3    3    0    0 -0.25259549691E+02  0.11499379472E+02 -0.24569389365E+02  0.37066635575E+02  0.51100000000E-03 0. -1.
         22    1    1    0    0    0 -0.21497714694E+02  0.18539697631E+02  0.12728507879E+02  0.31110882954E+02  0.00000000000E+00 0.  1.
</event>
<event>
 5    1  0.8778488E-005  0.9118800E+02  0.7818608E-02  0.1130116E+00
         25   -1    0    0    0    0  0.00000000000E+00  0.00000000000E+00  0.99999998245E-14  0.12500000000E+03  0.12500000000E+03 0.  0.
        -11    1    3    3    0    0  0.29087333841E+02  0.20818269734E+02  0.16124199353E+02  0.39235993038E+02  0.51100000000E-03 0.  1.
         23    2    1    0    0    0  0.13776360210E+01 -0.26128655799E+02 -0.61441290973E+01  0.98123339917E+02  0.94370731582E+02 0.  0.
         11    1    3    3    0    0 -0.27709697820E+02 -0.46946925532E+02 -0.22268328450E+02  0.58887346879E+02  0.51100000000E-03 0. -1.
         22    1    1    0    0    0 -0.13776360210E+01  0.26128655799E+02  0.61441290973E+01  0.26876660083E+02  0.00000000000E+00 0. -1.
</event>
<event>
 5    1  0.8778488E-005  0.9118800E+02  0.7818608E-02  0.1130116E+00
         25   -1    0    0    0    0  0.00000000000E+00  0.00000000000E+00  0.99999998245E-14  0.12500000000E+03  0.12500000000E+03 0.  0.
        -11    1    3    3    0    0 -0.40908082458E+02  0.42910073302E+02 -0.11007713072E+02  0.60298551794E+02  0.51100000000E-03 0.  1.
         23    2    1    0    0    0 -0.22664464953E+02  0.18821313686E+02 -0.16828913257E+02  0.91071661669E+02  0.84515770228E+02 0.  0.
         11    1    3    3    0    0  0.18243617504E+02 -0.24088759616E+02 -0.58212001856E+01  0.30773109874E+02  0.51100000000E-03 0. -1.
         22    1    1    0    0    0  0.22664464953E+02 -0.18821313686E+02  0.16828913257E+02  0.33928338331E+02  0.00000000000E+00 0.  1.
</event>
<event>
 5    1  0.8778488E-005  0.9118800E+02  0.7818608E-02  0.1130116E+00
         25   -1    0    0    0    0  0.00000000000E+00  0.00000000000E+00  0.99999998245E-14  0.12500000000E+03  0.12500000000E+03 0.  0.
        -11    1    3    3    0    0 -0.28480359703E+02  0.31838087262E+02  0.20268626073E+02  0.47282257692E+02  0.51100000000E-03 0.  1.
         23    2    1    0    0    0 -0.22133811988E+02 -0.50814551785E+00 -0.17036624112E+02  0.97064173431E+02  0.92957212510E+02 0.  0.
         11    1    3    3    0    0  0.63465477150E+01 -0.32346232780E+02 -0.37305250185E+02  0.49781915738E+02  0.51100000000E-03 0. -1.
         22    1    1    0    0    0  0.22133811988E+02  0.50814551785E+00  0.17036624112E+02  0.27935826569E+02  0.00000000000E+00 0.  1.
</event>
<event>
 5    1  0.8778488E-005  0.9118800E+02  0.7818608E-02  0.1130116E+00
         25   -1    0    0    0    0  0.00000000000E+00  0.00000000000E+00  0.99999998245E-14  0.12500000000E+03  0.12500000000E+03 0.  0.
        -11    1    3    3    0    0 -0.47898467692E+02  0.35922144025E+02  0.15287915238E+01  0.59891575721E+02  0.51100000000E-03 0. -1.
         23    2    1    0    0    0 -0.16883144904E+02  0.22096508603E+02 -0.95298060425E+01  0.95604192858E+02  0.90972788319E+02 0.  0.
         11    1    3    3    0    0  0.31015322787E+02 -0.13825635421E+02 -0.11058597566E+02  0.35712617137E+02  0.51100000000E-03 0.  1.
         22    1    1    0    0    0  0.16883144904E+02 -0.22096508603E+02  0.95298060425E+01  0.29395807142E+02  0.00000000000E+00 0. -1.
</event>
<event>
 5    1  0.8778488E-005  0.9118800E+02  0.7818608E-02  0.1130116E+00
         25   -1    0    0    0    0  0.00000000000E+00  0.00000000000E+00  0.99999998245E-14  0.12500000000E+03  0.12500000000E+03 0.  0.
        -11    1    3    3    0    0 -0.26457277610E+02 -0.15403111212E+02  0.40347538476E+02  0.50647480045E+02  0.51100000000E-03 0.  1.
         23    2    1    0    0    0 -0.33030721001E+01  0.19182641230E+02  0.20406694830E+02  0.96798631172E+02  0.92599448125E+02 0.  0.
         11    1    3    3    0    0  0.23154205510E+02  0.34585752442E+02 -0.19940843646E+02  0.46151151127E+02  0.51100000000E-03 0. -1.
         22    1    1    0    0    0  0.33030721001E+01 -0.19182641230E+02 -0.20406694830E+02  0.28201368828E+02  0.00000000000E+00 0.  1.
</event>
<event>
 5    1  0.8778488E-005  0.9118800E+02  0.7818608E-02  0.1130116E+00
         25   -1    0    0    0    0  0.00000000000E+00  0.00000000000E+00  0.99999998245E-14  0.12500000000E+03  0.12500000000E+03 0.  0.
        -11    1    3    3    0    0 -0.16929849483E+02 -0.44655157925E+02  0.17790068756E+02  0.50962628262E+02  0.51100000000E-03 0.  1.
         23    2    1    0    0    0 -0.46799076196E+01 -0.22144352193E+02 -0.18760119207E+02  0.95602450067E+02  0.90970393628E+02 0.  0.
         11    1    3    3    0    0  0.12249941863E+02  0.22510805732E+02 -0.36550187963E+02  0.44639821805E+02  0.51100000000E-03 0. -1.
         22    1    1    0    0    0  0.46799076196E+01  0.22144352193E+02  0.18760119207E+02  0.29397549933E+02  0.00000000000E+00 0.  1.
</event>
<event>
 5    1  0.8778488E-005  0.9118800E+02  0.7818608E-02  0.1130116E+00
         25   -1    0    0    0    0  0.00000000000E+00  0.00000000000E+00  0.99999998245E-14  0.12500000000E+03  0.12500000000E+03 0.  0.
        -11    1    3    3    0    0 -0.67711183998E+01 -0.11783369672E+02 -0.38802831203E+02  0.41113933828E+02  0.51100000000E-03 0.  1.
         23    2    1    0    0    0 -0.34675783943E+02  0.95803277073E+01 -0.73394820181E+01  0.88284054318E+02  0.80287069815E+02 0.  0.
         11    1    3    3    0    0 -0.27904665543E+02  0.21363697379E+02  0.31463349185E+02  0.47170120489E+02  0.51100000000E-03 0. -1.
         22    1    1    0    0    0  0.34675783943E+02 -0.95803277073E+01  0.73394820181E+01  0.36715945682E+02  0.00000000000E+00 0.  1.
</event>
<event>
 5    1  0.8778488E-005  0.9118800E+02  0.7818608E-02  0.1130116E+00
         25   -1    0    0    0    0  0.00000000000E+00  0.00000000000E+00  0.99999998245E-14  0.12500000000E+03  0.12500000000E+03 0.  0.
        -11    1    3    3    0    0 -0.30715075139E+02  0.10713257363E+02  0.21567855969E+02  0.39030272040E+02  0.51100000000E-03 0.  1.
         23    2    1    0    0    0 -0.49609548482E+01 -0.23056502715E+00 -0.28329459625E+02  0.96238523754E+02  0.91840246834E+02 0.  0.
         11    1    3    3    0    0  0.25754120291E+02 -0.10943822390E+02 -0.49897315594E+02  0.57208251714E+02  0.51100000000E-03 0. -1.
         22    1    1    0    0    0  0.49609548482E+01  0.23056502715E+00  0.28329459625E+02  0.28761476246E+02  0.00000000000E+00 0. -1.
</event>
<event>
 5    1  0.8778488E-005  0.9118800E+02  0.7818608E-02  0.1130116E+00
         25   -1    0    0    0    0  0.00000000000E+00  0.00000000000E+00  0.99999998245E-14  0.12500000000E+03  0.12500000000E+03 0.  0.
        -11    1    3    3    0    0 -0.56874034241E+02 -0.18324220922E+02 -0.78095023181E+01  0.60261274214E+02  0.51100000000E-03 0. -1.
         23    2    1    0    0    0 -0.24793036033E+02 -0.30719830911E+01 -0.14065351284E+02  0.96330053670E+02  0.91964740077E+02 0.  0.
         11    1    3    3    0    0  0.32080998208E+02  0.15252237831E+02 -0.62558489659E+01  0.36068779456E+02  0.51100000000E-03 0.  1.
         22    1    1    0    0    0  0.24793036033E+02  0.30719830911E+01  0.14065351284E+02  0.28669946330E+02  0.00000000000E+00 0. -1.
</event>
<event>
 5    1  0.8778488E-005  0.9118800E+02  0.7818608E-02  0.1130116E+00
         25   -1    0    0    0    0  0.00000000000E+00  0.00000000000E+00  0.99999998245E-14  0.12500000000E+03  0.12500000000E+03 0.  0.
        -11    1    3    3    0    0 -0.29126258136E+02  0.27454989304E+02  0.80165430709E+01  0.40821321803E+02  0.51100000000E-03 0. -1.
         23    2    1    0    0    0 -0.13649132420E+02 -0.22231923743E+02 -0.11616354599E+02  0.96443092897E+02  0.92118256737E+02 0.  0.
         11    1    3    3    0    0  0.15477125716E+02 -0.49686913046E+02 -0.19632897669E+02  0.55621771094E+02  0.51100000000E-03 0.  1.
         22    1    1    0    0    0  0.13649132420E+02  0.22231923743E+02  0.11616354599E+02  0.28556907103E+02  0.00000000000E+00 0.  1.
</event>
<event>
 5    1  0.8778488E-005  0.9118800E+02  0.7818608E-02  0.1130116E+00
         25   -1    0    0    0    0  0.00000000000E+00  0.00000000000E+00  0.99999998245E-14  0.12500000000E+03  0.12500000000E+03 0.  0.
        -11    1    3    3    0    0 -0.25751606108E+02  0.21269710404E+02  0.70289776829E+01  0.34131397940E+02  0.51100000000E-03 0.  1.
         23    2    1    0    0    0  0.11466956016E+02 -0.26881202334E+02 -0.22310229593E+01  0.95690145298E+02  0.91090813612E+02 0.  0.
         11    1    3    3    0    0  0.37218562125E+02 -0.48150912738E+02 -0.92600006422E+01  0.61558747358E+02  0.51100000000E-03 0. -1.
         22    1    1    0    0    0 -0.11466956016E+02  0.26881202334E+02  0.22310229593E+01  0.29309854702E+02  0.00000000000E+00 0. -1.
</event>
<event>
 5    1  0.8778488E-005  0.9118800E+02  0.7818608E-02  0.1130116E+00
         25   -1    0    0    0    0  0.00000000000E+00  0.00000000000E+00  0.99999998245E-14  0.12500000000E+03  0.12500000000E+03 0.  0.
        -11    1    3    3    0    0 -0.26032410460E+02 -0.17468373335E+02 -0.14362342069E+02  0.34483435607E+02  0.51100000000E-03 0. -1.
         23    2    1    0    0    0  0.26250189683E+02  0.12225992218E+02 -0.12973017142E+01  0.96013273109E+02  0.91533153979E+02 0.  0.
         11    1    3    3    0    0  0.52282600143E+02  0.29694365553E+02  0.13065040355E+02  0.61529837502E+02  0.51100000000E-03 0.  1.
         22    1    1    0    0    0 -0.26250189683E+02 -0.12225992218E+02  0.12973017142E+01  0.28986726891E+02  0.00000000000E+00 0.  1.
</event>
<event>
 5    1  0.8778488E-005  0.9118800E+02  0.7818608E-02  0.1130116E+00
         25   -1    0    0    0    0  0.00000000000E+00  0.00000000000E+00  0.99999998245E-14  0.12500000000E+03  0.12500000000E+03 0.  0.
        -11    1    3    3    0    0  0.83798039049E+01 -0.31125947437E+02 -0.37012387415E+02  0.49081183154E+02  0.51100000000E-03 0.  1.
         23    2    1    0    0    0 -0.45378198895E+01 -0.25560456010E+02  0.92550914605E+01  0.97439422381E+02  0.93460449363E+02 0.  0.
         11    1    3    3    0    0 -0.12917623794E+02  0.55654914277E+01  0.46267478876E+02  0.48358239227E+02  0.51100000000E-03 0. -1.
         22    1    1    0    0    0  0.45378198895E+01  0.25560456010E+02 -0.92550914605E+01  0.27560577619E+02  0.00000000000E+00 0.  1.
</event>
<event>
 5    1  0.8778488E-005  0.9118800E+02  0.7818608E-02  0.1130116E+00
         25   -1    0    0    0    0  0.00000000000E+00  0.00000000000E+00  0.99999998245E-14  0.12500000000E+03  0.12500000000E+03 0.  0.
        -11    1    3    3    0    0 -0.45081673166E+02  0.64062772542E+00  0.53459391266E+01  0.45402056393E+02  0.51100000000E-03 0.  1.
         23    2    1    0    0    0  0.10868670287E+02  0.17748722602E+02 -0.33898649737E+00  0.10418510006E+03  0.10208464632E+03 0.  0.
         11    1    3    3    0    0  0.55950343453E+02  0.17108094876E+02 -0.56849256239E+01  0.58783043664E+02  0.51100000000E-03 0. -1.
         22    1    1    0    0    0 -0.10868670287E+02 -0.17748722602E+02  0.33898649737E+00  0.20814899943E+02  0.00000000000E+00 0. -1.
</event>
<event>
 5    1  0.8778488E-005  0.9118800E+02  0.7818608E-02  0.1130116E+00
         25   -1    0    0    0    0  0.00000000000E+00  0.00000000000E+00  0.99999998245E-14  0.12500000000E+03  0.12500000000E+03 0.  0.
        -11    1    3    3    0    0 -0.27759787238E+02 -0.95209333780E+01 -0.48333507560E+02  0.56545396923E+02  0.51100000000E-03 0. -1.
         23    2    1    0    0    0 -0.26814002579E+02 -0.61088599334E+01 -0.89624208779E+01  0.96075375682E+02  0.91617923576E+02 0.  0.
         11    1    3    3    0    0  0.94578465950E+00  0.34120734446E+01  0.39371086682E+02  0.39529978758E+02  0.51100000000E-03 0.  1.
         22    1    1    0    0    0  0.26814002579E+02  0.61088599334E+01  0.89624208779E+01  0.28924624318E+02  0.00000000000E+00 0. -1.
</event>
<event>
 5    1  0.8778488E-005  0.9118800E+02  0.7818608E-02  0.1130116E+00
         25   -1    0    0    0    0  0.00000000000E+00  0.00000000000E+00  0.99999998245E-14  0.12500000000E+03  0.12500000000E+03 0.  0.
        -11    1    3    3    0    0 -0.32863945305E+02  0.44291677248E+02  0.31284404927E+01  0.55241096247E+02  0.51100000000E-03 0. -1.
         23    2    1    0    0    0 -0.28612969202E+02  0.49251143681E+01 -0.46583347335E+01  0.95594918117E+02  0.90960043586E+02 0.  0.
         11    1    3    3    0    0  0.42509761040E+01 -0.39366562879E+02 -0.77867752262E+01  0.40353821869E+02  0.51100000000E-03 0.  1.
         22    1    1    0    0    0  0.28612969202E+02 -0.49251143681E+01  0.46583347335E+01  0.29405081883E+02  0.00000000000E+00 0. -1.
</event>
<event>
 5    1  0.8778488E-005  0.9118800E+02  0.7818608E-02  0.1130116E+00
         25   -1    0    0    0    0  0.00000000000E+00  0.00000000000E+00  0.99999998245E-14  0.12500000000E+03  0.12500000000E+03 0.  0.
        -11    1    3    3    0    0 -0.19829706517E+02 -0.24628785575E+02 -0.11446428985E+02  0.33627593970E+02  0.51100000000E-03 0.  1.
         23    2    1    0    0    0  0.25273392798E+02  0.10544335609E+02  0.11556798563E+02  0.95276490955E+02  0.90521393818E+02 0.  0.
         11    1    3    3    0    0  0.45103099314E+02  0.35173121184E+02  0.23003227548E+02  0.61648896985E+02  0.51100000000E-03 0. -1.
         22    1    1    0    0    0 -0.25273392798E+02 -0.10544335609E+02 -0.11556798563E+02  0.29723509045E+02  0.00000000000E+00 0. -1.
</event>
<event>
 5    1  0.8778488E-005  0.9118800E+02  0.7818608E-02  0.1130116E+00
         25   -1    0    0    0    0  0.00000000000E+00  0.00000000000E+00  0.99999998245E-14  0.12500000000E+03  0.12500000000E+03 0.  0.
        -11    1    3    3    0    0 -0.31274365781E+02  0.27494082205E+02  0.98231080406E+00  0.41653036457E+02  0.51100000000E-03 0.  1.
         23    2    1    0    0    0  0.75491043148E+01  0.15743641741E+01  0.28251417631E+02  0.95715017557E+02  0.91124938350E+02 0.  0.
         11    1    3    3    0    0  0.38823470095E+02 -0.25919718031E+02  0.27269106827E+02  0.54061981100E+02  0.51100000000E-03 0. -1.
         22    1    1    0    0    0 -0.75491043148E+01 -0.15743641741E+01 -0.28251417631E+02  0.29284982443E+02  0.00000000000E+00 0. -1.
</event>
<event>
 5    1  0.8778488E-005  0.9118800E+02  0.7818608E-02  0.1130116E+00
         25   -1    0    0    0    0  0.00000000000E+00  0.00000000000E+00  0.99999998245E-14  0.12500000000E+03  0.12500000000E+03 0.  0.
        -11    1    3    3    0    0 -0.25938117329E+02 -0.12965398943E+02 -0.34977674951E+02  0.45434846159E+02  0.51100000000E-03 0. -1.
         23    2    1    0    0    0 -0.11142529743E+02 -0.22018745010E+02  0.13464019687E+02  0.96888420055E+02  0.92720574921E+02 0.  0.
         11    1    3    3    0    0  0.14795587586E+02 -0.90533460672E+01  0.48441694637E+02  0.51453573895E+02  0.51100000000E-03 0.  1.
         22    1    1    0    0    0  0.11142529743E+02  0.22018745010E+02 -0.13464019687E+02  0.28111579945E+02  0.00000000000E+00 0.  1.
</event>
<event>
 5    1  0.8778488E-005  0.9118800E+02  0.7818608E-02  0.1130116E+00
         25   -1    0    0    0    0  0.00000000000E+00  0.00000000000E+00  0.99999998245E-14  0.12500000000E+03  0.12500000000E+03 0.  0.
        -11    1    3    3    0    0  0.20241012919E+02  0.31878086633E+02 -0.14077448654E+01  0.37787468256E+02  0.51100000000E-03 0.  1.
         23    2    1    0    0    0 -0.19910721830E+02  0.31196506454E+01  0.24270841132E+02  0.93452531113E+02  0.87966657196E+02 0.  0.
         11    1    3    3    0    0 -0.40151734749E+02 -0.28758435987E+02  0.25678585997E+02  0.55665062857E+02  0.51100000000E-03 0. -1.
         22    1    1    0    0    0  0.19910721830E+02 -0.31196506454E+01 -0.24270841132E+02  0.31547468887E+02  0.00000000000E+00 0. -1.
</event>
<event>
 5    1  0.8778488E-005  0.9118800E+02  0.7818608E-02  0.1130116E+00
         25   -1    0    0    0    0  0.00000000000E+00  0.00000000000E+00  0.99999998245E-14  0.12500000000E+03  0.12500000000E+03 0.  0.
        -11    1    3    3    0    0  0.73677472990E+01 -0.22639197306E+02  0.34719577607E+02  0.42098290041E+02  0.51100000000E-03 0.  1.
         23    2    1    0    0    0 -0.16089765768E+02  0.20380361575E+02  0.84607792067E+01  0.97690212649E+02  0.93795272600E+02 0.  0.
         11    1    3    3    0    0 -0.23457513067E+02  0.43019558881E+02 -0.26258798400E+02  0.55591922608E+02  0.51100000000E-03 0. -1.
         22    1    1    0    0    0  0.16089765768E+02 -0.20380361575E+02 -0.84607792067E+01  0.27309787351E+02  0.00000000000E+00 0. -1.
</event>
<event>
 5    1  0.8778488E-005  0.9118800E+02  0.7818608E-02  0.1130116E+00
         25   -1    0    0    0    0  0.00000000000E+00  0.00000000000E+00  0.99999998245E-14  0.12500000000E+03  0.12500000000E+03 0.  0.
        -11    1    3    3    0    0  0.17634128045E+02 -0.29166554454E+02 -0.94673856208E+01  0.35373461258E+02  0.51100000000E-03 0.  1.
         23    2    1    0    0    0 -0.29103011158E+01  0.26760391137E+02 -0.13096627434E+02  0.95064902931E+02  0.90228741168E+02 0.  0.
         11    1    3    3    0    0 -0.20544429161E+02  0.55926945590E+02 -0.36292418135E+01  0.59691441673E+02  0.51100000000E-03 0. -1.
         22    1    1    0    0    0  0.29103011158E+01 -0.26760391137E+02  0.13096627434E+02  0.29935097069E+02  0.00000000000E+00 0. -1.
</event>
<event>
 5    1  0.8778488E-005  0.9118800E+02  0.7818608E-02  0.1130116E+00
         25   -1    0    0    0    0  0.00000000000E+00  0.00000000000E+00  0.99999998245E-14  0.12500000000E+03  0.12500000000E+03 0.  0.
        -11    1    3    3    0    0 -0.34531121358E+02 -0.16026612757E+02  0.72642479104E+01  0.38755902217E+02  0.51100000000E-03 0.  1.
         23    2    1    0    0    0  0.72683080743E-01 -0.10148608800E+02 -0.32004579362E+02  0.91424821019E+02  0.85036493665E+02 0.  0.
         11    1    3    3    0    0  0.34603804439E+02  0.58780039563E+01 -0.39268827273E+02  0.52668918802E+02  0.51100000000E-03 0. -1.
         22    1    1    0    0    0 -0.72683080743E-01  0.10148608800E+02  0.32004579362E+02  0.33575178981E+02  0.00000000000E+00 0. -1.
</event>
<event>
 5    1  0.8778488E-005  0.9118800E+02  0.7818608E-02  0.1130116E+00
         25   -1    0    0    0    0  0.00000000000E+00  0.00000000000E+00  0.99999998245E-14  0.12500000000E+03  0.12500000000E+03 0.  0.
        -11    1    3    3    0    0 -0.40154674655E+02  0.30952281208E+02 -0.17626818504E+02  0.53676310785E+02  0.51100000000E-03 0. -1.
         23    2    1    0    0    0 -0.23830649599E+02  0.10042650132E+02  0.14509930299E+02  0.95347128988E+02  0.90618884604E+02 0.  0.
         11    1    3    3    0    0  0.16324025056E+02 -0.20909631077E+02  0.32136748804E+02  0.41670818203E+02  0.51100000000E-03 0.  1.
         22    1    1    0    0    0  0.23830649599E+02 -0.10042650132E+02 -0.14509930299E+02  0.29652871012E+02  0.00000000000E+00 0. -1.
</event>
<event>
 5    1  0.8778488E-005  0.9118800E+02  0.7818608E-02  0.1130116E+00
         25   -1    0    0    0    0  0.00000000000E+00  0.00000000000E+00  0.99999998245E-14  0.12500000000E+03  0.12500000000E+03 0.  0.
        -11    1    3    3    0    0  0.16588011431E+02 -0.20337479912E+02  0.25312709279E+02  0.36462425368E+02  0.51100000000E-03 0.  1.
         23    2    1    0    0    0  0.71666071488E+01  0.99604268947E+01 -0.25690472496E+02  0.96529475962E+02  0.92235399877E+02 0.  0.
         11    1    3    3    0    0 -0.94214042824E+01  0.30297906807E+02 -0.51003181775E+02  0.60067050593E+02  0.51100000000E-03 0. -1.
         22    1    1    0    0    0 -0.71666071488E+01 -0.99604268947E+01  0.25690472496E+02  0.28470524038E+02  0.00000000000E+00 0. -1.
</event>
<event>
 4    1  0.8778488E-005  0.9118800E+02  0.7818608E-02  0.1130116E+00
         25   -1    0    0    0    0  0.00000000000E+00  0.00000000000E+00  0.99999998245E-14  0.12500000000E+03  0.12500000000E+03 0.  0.
        -11    1    1    0    0    0 -0.10160676559E+02  0.22822134866E+02  0.90836997592E+01  0.26582001233E+02  0.51100000000E-03 0.  1.
         11    1    1    0    0    0 -0.34294429933E+02 -0.22131557374E+02  0.19835083707E+02  0.45379998922E+02  0.51100000000E-03 0. -1.
         22    1    1    0    0    0  0.44455106491E+02 -0.69057749222E+00 -0.28918783466E+02  0.53037999845E+02  0.00000000000E+00 0.  1.
</event>
<event>
 5    1  0.8778488E-005  0.9118800E+02  0.7818608E-02  0.1130116E+00
         25   -1    0    0    0    0  0.00000000000E+00  0.00000000000E+00  0.99999998245E-14  0.12500000000E+03  0.12500000000E+03 0.  0.
        -11    1    3    3    0    0 -0.71526255241E+01  0.53986964868E+01 -0.53638882133E+02  0.54382310105E+02  0.51100000000E-03 0.  1.
         23    2    1    0    0    0 -0.32455095699E+01  0.19784133707E+02 -0.63426063160E+01  0.10397206777E+03  0.10182345969E+03 0.  0.
         11    1    3    3    0    0  0.39071159541E+01  0.14385437220E+02  0.47296275816E+02  0.49589757667E+02  0.51100000000E-03 0. -1.
         22    1    1    0    0    0  0.32455095699E+01 -0.19784133707E+02  0.63426063160E+01  0.21027932228E+02  0.00000000000E+00 0.  1.
</event>
<event>
 5    1  0.8778488E-005  0.9118800E+02  0.7818608E-02  0.1130116E+00
         25   -1    0    0    0    0  0.00000000000E+00  0.00000000000E+00  0.99999998245E-14  0.12500000000E+03  0.12500000000E+03 0.  0.
        -11    1    3    3    0    0  0.44830089145E+01  0.33941716535E+02 -0.42652235236E+02  0.54693241458E+02  0.51100000000E-03 0.  1.
         23    2    1    0    0    0  0.21004640833E+02  0.37601417758E+01 -0.18812115904E+02  0.96553043968E+02  0.92267334372E+02 0.  0.
         11    1    3    3    0    0  0.16521631918E+02 -0.30181574759E+02  0.23840119332E+02  0.41859802511E+02  0.51100000000E-03 0. -1.
         22    1    1    0    0    0 -0.21004640833E+02 -0.37601417758E+01  0.18812115904E+02  0.28446956032E+02  0.00000000000E+00 0.  1.
</event>
<event>
 5    1  0.8778488E-005  0.9118800E+02  0.7818608E-02  0.1130116E+00
         25   -1    0    0    0    0  0.00000000000E+00  0.00000000000E+00  0.99999998245E-14  0.12500000000E+03  0.12500000000E+03 0.  0.
        -11    1    3    3    0    0  0.36322085721E+02 -0.12572383753E+02  0.42248804124E+02  0.57116724298E+02  0.51100000000E-03 0. -1.
         23    2    1    0    0    0  0.27208043786E+01 -0.14747220625E+02  0.27075088765E+02  0.94049334025E+02  0.88810660995E+02 0.  0.
         11    1    3    3    0    0 -0.33601281342E+02 -0.21748368719E+01 -0.15173715359E+02  0.36932609728E+02  0.51100000000E-03 0.  1.
         22    1    1    0    0    0 -0.27208043786E+01  0.14747220625E+02 -0.27075088765E+02  0.30950665975E+02  0.00000000000E+00 0. -1.
</event>
<event>
 5    1  0.8778488E-005  0.9118800E+02  0.7818608E-02  0.1130116E+00
         25   -1    0    0    0    0  0.00000000000E+00  0.00000000000E+00  0.99999998245E-14  0.12500000000E+03  0.12500000000E+03 0.  0.
        -11    1    3    3    0    0  0.26173646625E+02  0.63777293559E+00 -0.28222720629E+02  0.38496603641E+02  0.51100000000E-03 0.  1.
         23    2    1    0    0    0 -0.19147266158E+02  0.21900436638E+02 -0.11311964290E+00  0.95909456479E+02  0.91391269385E+02 0.  0.
         11    1    3    3    0    0 -0.45320912783E+02  0.21262663703E+02  0.28109600986E+02  0.57412852838E+02  0.51100000000E-03 0. -1.
         22    1    1    0    0    0  0.19147266158E+02 -0.21900436638E+02  0.11311964290E+00  0.29090543521E+02  0.00000000000E+00 0. -1.
</event>
<event>
 5    1  0.8778488E-005  0.9118800E+02  0.7818608E-02  0.1130116E+00
         25   -1    0    0    0    0  0.00000000000E+00  0.00000000000E+00  0.99999998245E-14  0.12500000000E+03  0.12500000000E+03 0.  0.
        -11    1    3    3    0    0  0.58144532220E+02  0.99661955534E+01  0.14031068887E+02  0.60638128065E+02  0.51100000000E-03 0. -1.
         23    2    1    0    0    0  0.45340657293E+02 -0.61777581956E+00  0.14891710329E+02  0.77272441009E+02  0.60770965537E+02 0.  0.
         11    1    3    3    0    0 -0.12803874927E+02 -0.10583971373E+02  0.86064144192E+00  0.16634312944E+02  0.51100000000E-03 0.  1.
         22    1    1    0    0    0 -0.45340657293E+02  0.61777581956E+00 -0.14891710329E+02  0.47727558991E+02  0.00000000000E+00 0. -1.
</event>
<event>
 5    1  0.8778488E-005  0.9118800E+02  0.7818608E-02  0.1130116E+00
         25   -1    0    0    0    0  0.00000000000E+00  0.00000000000E+00  0.99999998245E-14  0.12500000000E+03  0.12500000000E+03 0.  0.
        -11    1    3    3    0    0  0.14930695749E+02 -0.52692099619E+02  0.24091679871E+02  0.59831363657E+02  0.51100000000E-03 0.  1.
         23    2    1    0    0    0  0.95196582189E+01 -0.18938710985E+02  0.22551704895E+02  0.94050394833E+02  0.88812154056E+02 0.  0.
         11    1    3    3    0    0 -0.54110375297E+01  0.33753388634E+02 -0.15399749760E+01  0.34219031176E+02  0.51100000000E-03 0. -1.
         22    1    1    0    0    0 -0.95196582189E+01  0.18938710985E+02 -0.22551704895E+02  0.30949605167E+02  0.00000000000E+00 0.  1.
</event>
<event>
 5    1  0.8778488E-005  0.9118800E+02  0.7818608E-02  0.1130116E+00
         25   -1    0    0    0    0  0.00000000000E+00  0.00000000000E+00  0.99999998245E-14  0.12500000000E+03  0.12500000000E+03 0.  0.
        -11    1    3    3    0    0  0.11261426530E+02 -0.58196092540E+02  0.44200844670E+01  0.59440239413E+02  0.51100000000E-03 0.  1.
         23    2    1    0    0    0  0.13331789655E+02 -0.20907628725E+02  0.11849116209E+02  0.97517876551E+02  0.93565320167E+02 0.  0.
         11    1    3    3    0    0  0.20703631244E+01  0.37288463816E+02  0.74290317424E+01  0.38077637139E+02  0.51100000000E-03 0. -1.
         22    1    1    0    0    0 -0.13331789655E+02  0.20907628725E+02 -0.11849116209E+02  0.27482123449E+02  0.00000000000E+00 0.  1.
</event>
<event>
 5    1  0.8778488E-005  0.9118800E+02  0.7818608E-02  0.1130116E+00
         25   -1    0    0    0    0  0.00000000000E+00  0.00000000000E+00  0.99999998245E-14  0.12500000000E+03  0.12500000000E+03 0.  0.
        -11    1    3    3    0    0  0.22379241922E+02  0.21955705225E+02 -0.41683550572E+02  0.52157471655E+02  0.51100000000E-03 0.  1.
         23    2    1    0    0    0  0.25990439304E+02  0.13680593943E+02  0.82800519407E+00  0.95617229905E+02  0.90990699944E+02 0.  0.
         11    1    3    3    0    0  0.36111973821E+01 -0.82751112817E+01  0.42511555766E+02  0.43459758250E+02  0.51100000000E-03 0. -1.
         22    1    1    0    0    0 -0.25990439304E+02 -0.13680593943E+02 -0.82800519407E+00  0.29382770095E+02  0.00000000000E+00 0.  1.
</event>
<event>
 5    1  0.8778488E-005  0.9118800E+02  0.7818608E-02  0.1130116E+00
         25   -1    0    0    0    0  0.00000000000E+00  0.00000000000E+00  0.99999998245E-14  0.12500000000E+03  0.12500000000E+03 0.  0.
        -11    1    3    3    0    0 -0.30232992845E+02  0.10584982327E+02 -0.39894618276E+02  0.51163036216E+02  0.51100000000E-03 0.  1.
         23    2    1    0    0    0 -0.94721671656E+01  0.27733538042E+02 -0.49508331629E+01  0.95278259941E+02  0.90523836558E+02 0.  0.
         11    1    3    3    0    0  0.20760825680E+02  0.17148555715E+02  0.34943785113E+02  0.44115223725E+02  0.51100000000E-03 0. -1.
         22    1    1    0    0    0  0.94721671656E+01 -0.27733538042E+02  0.49508331629E+01  0.29721740059E+02  0.00000000000E+00 0.  1.
</event>
<event>
 5    1  0.8778488E-005  0.9118800E+02  0.7818608E-02  0.1130116E+00
         25   -1    0    0    0    0  0.00000000000E+00  0.00000000000E+00  0.99999998245E-14  0.12500000000E+03  0.12500000000E+03 0.  0.
        -11    1    3    3    0    0  0.35085947717E+02  0.28659353222E+02  0.31895539483E+02  0.55404942861E+02  0.51100000000E-03 0.  1.
         23    2    1    0    0    0  0.28865890418E+02  0.64614242603E+01 -0.79831151301E+00  0.95409005857E+02  0.90704197611E+02 0.  0.
         11    1    3    3    0    0 -0.62200572997E+01 -0.22197928962E+02 -0.32693850996E+02  0.40004062996E+02  0.51100000000E-03 0. -1.
         22    1    1    0    0    0 -0.28865890418E+02 -0.64614242603E+01  0.79831151301E+00  0.29590994143E+02  0.00000000000E+00 0.  1.
</event>
<event>
 5    1  0.8778488E-005  0.9118800E+02  0.7818608E-02  0.1130116E+00
         25   -1    0    0    0    0  0.00000000000E+00  0.00000000000E+00  0.99999998245E-14  0.12500000000E+03  0.12500000000E+03 0.  0.
        -11    1    3    3    0    0  0.16700721195E+01 -0.18478510385E+02  0.24504449819E+02  0.30736176538E+02  0.51100000000E-03 0.  1.
         23    2    1    0    0    0  0.11321872017E+02  0.34462386299E+02  0.16527619938E+02  0.85137698559E+02  0.75229147540E+02 0.  0.
         11    1    3    3    0    0  0.96517998977E+01  0.52940896684E+02 -0.79768298808E+01  0.54401522021E+02  0.51100000000E-03 0. -1.
         22    1    1    0    0    0 -0.11321872017E+02 -0.34462386299E+02 -0.16527619938E+02  0.39862301441E+02  0.00000000000E+00 0. -1.
</event>
<event>
 5    1  0.8778488E-005  0.9118800E+02  0.7818608E-02  0.1130116E+00
         25   -1    0    0    0    0  0.00000000000E+00  0.00000000000E+00  0.99999998245E-14  0.12500000000E+03  0.12500000000E+03 0.  0.
        -11    1    3    3    0    0 -0.25539121448E+02 -0.25521366872E+02  0.21901877103E+02  0.42228889545E+02  0.51100000000E-03 0.  1.
         23    2    1    0    0    0 -0.21258965869E+02  0.10044124814E+02 -0.17656408151E+02  0.95596312784E+02  0.90961960159E+02 0.  0.
         11    1    3    3    0    0  0.42801555786E+01  0.35565491686E+02 -0.39558285254E+02  0.53367423239E+02  0.51100000000E-03 0. -1.
         22    1    1    0    0    0  0.21258965869E+02 -0.10044124814E+02  0.17656408151E+02  0.29403687216E+02  0.00000000000E+00 0. -1.
</event>
<event>
 5    1  0.8778488E-005  0.9118800E+02  0.7818608E-02  0.1130116E+00
         25   -1    0    0    0    0  0.00000000000E+00  0.00000000000E+00  0.99999998245E-14  0.12500000000E+03  0.12500000000E+03 0.  0.
        -11    1    3    3    0    0 -0.24078757879E+02 -0.25542764778E+02  0.41736245544E+02  0.54535617773E+02  0.51100000000E-03 0.  1.
         23    2    1    0    0    0  0.25628380358E+01 -0.26776115695E+02  0.92761684184E+01  0.96546954275E+02  0.92259083936E+02 0.  0.
         11    1    3    3    0    0  0.26641595915E+02 -0.12333509163E+01 -0.32460077126E+02  0.42011336502E+02  0.51100000000E-03 0. -1.
         22    1    1    0    0    0 -0.25628380358E+01  0.26776115695E+02 -0.92761684184E+01  0.28453045725E+02  0.00000000000E+00 0.  1.
</event>
<event>
 5    1  0.8778488E-005  0.9118800E+02  0.7818608E-02  0.1130116E+00
         25   -1    0    0    0    0  0.00000000000E+00  0.00000000000E+00  0.99999998245E-14  0.12500000000E+03  0.12500000000E+03 0.  0.
        -11    1    3    3    0    0  0.29957671022E+01 -0.30638336489E+02 -0.46642900580E+02  0.55885977294E+02  0.51100000000E-03 0.  1.
         23    2    1    0    0    0 -0.68594098720E+01 -0.26867328249E+02 -0.77165290194E+01  0.96217198692E+02  0.91811217577E+02 0.  0.
         11    1    3    3    0    0 -0.98551769743E+01  0.37710082396E+01  0.38926371561E+02  0.40331221398E+02  0.51100000000E-03 0. -1.
         22    1    1    0    0    0  0.68594098720E+01  0.26867328249E+02  0.77165290194E+01  0.28782801308E+02  0.00000000000E+00 0.  1.
</event>
<event>
 5    1  0.8778488E-005  0.9118800E+02  0.7818608E-02  0.1130116E+00
         25   -1    0    0    0    0  0.00000000000E+00  0.00000000000E+00  0.99999998245E-14  0.12500000000E+03  0.12500000000E+03 0.  0.
        -11    1    3    3    0    0 -0.31337547509E+02 -0.52039195677E+02  0.64021587892E+01  0.61082791423E+02  0.51100000000E-03 0.  1.
         23    2    1    0    0    0 -0.85423862058E+01 -0.26444189667E+02  0.98182822046E+01  0.95526856383E+02  0.90866462987E+02 0.  0.
         11    1    3    3    0    0  0.22795161304E+02  0.25595006010E+02  0.34161234154E+01  0.34444064960E+02  0.51100000000E-03 0. -1.
         22    1    1    0    0    0  0.85423862058E+01  0.26444189667E+02 -0.98182822046E+01  0.29473143617E+02  0.00000000000E+00 0.  1.
</event>
<event>
 5    1  0.8778488E-005  0.9118800E+02  0.7818608E-02  0.1130116E+00
         25   -1    0    0    0    0  0.00000000000E+00  0.00000000000E+00  0.99999998245E-14  0.12500000000E+03  0.12500000000E+03 0.  0.
        -11    1    3    3    0    0 -0.32856663765E+02 -0.69980132845E+01  0.50901550110E+02  0.60987706528E+02  0.51100000000E-03 0.  1.
         23    2    1    0    0    0 -0.17818689457E+02 -0.10108123255E+02  0.16380361891E+02  0.98770320143E+02  0.95223841740E+02 0.  0.
         11    1    3    3    0    0  0.15037974308E+02 -0.31101099707E+01 -0.34521188219E+02  0.37782613615E+02  0.51100000000E-03 0. -1.
         22    1    1    0    0    0  0.17818689457E+02  0.10108123255E+02 -0.16380361891E+02  0.26229679857E+02  0.00000000000E+00 0.  1.
</event>
<event>
 5    1  0.8778488E-005  0.9118800E+02  0.7818608E-02  0.1130116E+00
         25   -1    0    0    0    0  0.00000000000E+00  0.00000000000E+00  0.99999998245E-14  0.12500000000E+03  0.12500000000E+03 0.  0.
        -11    1    3    3    0    0 -0.12357582017E+02 -0.38811316370E+02 -0.34161293571E+02  0.53160343211E+02  0.51100000000E-03 0.  1.
         23    2    1    0    0    0  0.18619572792E+02 -0.16160617595E+02 -0.10827495755E+02  0.98072528594E+02  0.94303404755E+02 0.  0.
         11    1    3    3    0    0  0.30977154809E+02  0.22650698775E+02  0.23333797816E+02  0.44912185383E+02  0.51100000000E-03 0. -1.
         22    1    1    0    0    0 -0.18619572792E+02  0.16160617595E+02  0.10827495755E+02  0.26927471406E+02  0.00000000000E+00 0.  1.
</event>
<event>
 5    1  0.8778488E-005  0.9118800E+02  0.7818608E-02  0.1130116E+00
         25   -1    0    0    0    0  0.00000000000E+00  0.00000000000E+00  0.99999998245E-14  0.12500000000E+03  0.12500000000E+03 0.  0.
        -11    1    3    3    0    0  0.12092315185E+02 -0.29088252229E+02 -0.26260587196E+02  0.41011814693E+02  0.51100000000E-03 0.  1.
         23    2    1    0    0    0  0.41094914376E+01  0.24199796479E+02 -0.15532735966E+02  0.95952040415E+02  0.91449494824E+02 0.  0.
         11    1    3    3    0    0 -0.79828237479E+01  0.53288048708E+02  0.10727851230E+02  0.54940225721E+02  0.51100000000E-03 0. -1.
         22    1    1    0    0    0 -0.41094914376E+01 -0.24199796479E+02  0.15532735966E+02  0.29047959585E+02  0.00000000000E+00 0. -1.
</event>
<event>
 5    1  0.8778488E-005  0.9118800E+02  0.7818608E-02  0.1130116E+00
         25   -1    0    0    0    0  0.00000000000E+00  0.00000000000E+00  0.99999998245E-14  0.12500000000E+03  0.12500000000E+03 0.  0.
        -11    1    3    3    0    0  0.33247251075E+01 -0.27717799382E+02  0.20429079931E+02  0.34593026851E+02  0.51100000000E-03 0.  1.
         23    2    1    0    0    0  0.73443479584E+01  0.26368089676E+02 -0.88581412634E+01  0.96230532387E+02  0.91829369467E+02 0.  0.
         11    1    3    3    0    0  0.40196228509E+01  0.54085889058E+02 -0.29287221195E+02  0.61637505536E+02  0.51100000000E-03 0. -1.
         22    1    1    0    0    0 -0.73443479584E+01 -0.26368089676E+02  0.88581412634E+01  0.28769467613E+02  0.00000000000E+00 0. -1.
</event>
<event>
 5    1  0.8778488E-005  0.9118800E+02  0.7818608E-02  0.1130116E+00
         25   -1    0    0    0    0  0.00000000000E+00  0.00000000000E+00  0.99999998245E-14  0.12500000000E+03  0.12500000000E+03 0.  0.
        -11    1    3    3    0    0  0.41721897762E+02  0.27322403006E+02 -0.25654765656E+02  0.56083843128E+02  0.51100000000E-03 0.  1.
         23    2    1    0    0    0  0.29638406840E+02 -0.24505814096E+01 -0.36291348087E+01  0.95039840977E+02  0.90194014459E+02 0.  0.
         11    1    3    3    0    0 -0.12083490923E+02 -0.29772984415E+02  0.22025630848E+02  0.38955997848E+02  0.51100000000E-03 0. -1.
         22    1    1    0    0    0 -0.29638406840E+02  0.24505814096E+01  0.36291348087E+01  0.29960159023E+02  0.00000000000E+00 0.  1.
</event>
<event>
 5    1  0.8778488E-005  0.9118800E+02  0.7818608E-02  0.1130116E+00
         25   -1    0    0    0    0  0.00000000000E+00  0.00000000000E+00  0.99999998245E-14  0.12500000000E+03  0.12500000000E+03 0.  0.
        -11    1    3    3    0    0  0.36954905469E+02 -0.28546539854E+02  0.10934279311E+02  0.47959654296E+02  0.51100000000E-03 0. -1.
         23    2    1    0    0    0  0.28693640030E+02 -0.18780657964E+02 -0.22652943502E+02  0.83900195365E+02  0.73144028062E+02 0.  0.
         11    1    3    3    0    0 -0.82612654381E+01  0.97658818903E+01 -0.33587222814E+02  0.35940541069E+02  0.51100000000E-03 0.  1.
         22    1    1    0    0    0 -0.28693640030E+02  0.18780657964E+02  0.22652943502E+02  0.41099804635E+02  0.00000000000E+00 0.  1.
</event>
<event>
 5    1  0.8778488E-005  0.9118800E+02  0.7818608E-02  0.1130116E+00
         25   -1    0    0    0    0  0.00000000000E+00  0.00000000000E+00  0.99999998245E-14  0.12500000000E+03  0.12500000000E+03 0.  0.
        -11    1    3    3    0    0 -0.37303730077E+02 -0.20377932269E+02  0.35892395735E+02  0.55633555280E+02  0.51100000000E-03 0. -1.
         23    2    1    0    0    0 -0.12508704101E-02 -0.16154322610E+02  0.25889121713E+02  0.94484286611E+02  0.89420756275E+02 0.  0.
         11    1    3    3    0    0  0.37302479207E+02  0.42236096586E+01 -0.10003274023E+02  0.38850731331E+02  0.51100000000E-03 0.  1.
         22    1    1    0    0    0  0.12508704101E-02  0.16154322610E+02 -0.25889121713E+02  0.30515713389E+02  0.00000000000E+00 0. -1.
</event>
<event>
 5    1  0.8778488E-005  0.9118800E+02  0.7818608E-02  0.1130116E+00
         25   -1    0    0    0    0  0.00000000000E+00  0.00000000000E+00  0.99999998245E-14  0.12500000000E+03  0.12500000000E+03 0.  0.
        -11    1    3    3    0    0 -0.15272429528E+02 -0.33485545502E+02 -0.22986301428E+02  0.43392383143E+02  0.51100000000E-03 0. -1.
         23    2    1    0    0    0 -0.20262774573E+02  0.17435298541E+02 -0.11874128578E+02  0.95749964135E+02  0.91172863473E+02 0.  0.
         11    1    3    3    0    0 -0.49903450449E+01  0.50920844042E+02  0.11112172850E+02  0.52357580992E+02  0.51100000000E-03 0.  1.
         22    1    1    0    0    0  0.20262774573E+02 -0.17435298541E+02  0.11874128578E+02  0.29250035865E+02  0.00000000000E+00 0.  1.
</event>
<event>
 5    1  0.8778488E-005  0.9118800E+02  0.7818608E-02  0.1130116E+00
         25   -1    0    0    0    0  0.00000000000E+00  0.00000000000E+00  0.99999998245E-14  0.12500000000E+03  0.12500000000E+03 0.  0.
        -11    1    3    3    0    0 -0.16641112554E+02  0.24581220644E+02 -0.31562871952E+02  0.43328719361E+02  0.51100000000E-03 0.  1.
         23    2    1    0    0    0 -0.13164275228E+02  0.15683932230E+02  0.20360701041E+02  0.96123677184E+02  0.91683800620E+02 0.  0.
         11    1    3    3    0    0  0.34768373255E+01 -0.88972884142E+01  0.51923572993E+02  0.52794957823E+02  0.51100000000E-03 0. -1.
         22    1    1    0    0    0  0.13164275228E+02 -0.15683932230E+02 -0.20360701041E+02  0.28876322816E+02  0.00000000000E+00 0.  1.
</event>
<event>
 5    1  0.8778488E-005  0.9118800E+02  0.7818608E-02  0.1130116E+00
         25   -1    0    0    0    0  0.00000000000E+00  0.00000000000E+00  0.99999998245E-14  0.12500000000E+03  0.12500000000E+03 0.  0.
        -11    1    3    3    0    0 -0.30067746462E+02 -0.42530359029E+02  0.18068851796E+02  0.55130610571E+02  0.51100000000E-03 0.  1.
         23    2    1    0    0    0 -0.83005268281E+01 -0.76136083293E+01  0.25665274086E+02  0.96971941357E+02  0.92833104759E+02 0.  0.
         11    1    3    3    0    0  0.21767219634E+02  0.34916750700E+02  0.75964222898E+01  0.41841330786E+02  0.51100000000E-03 0. -1.
         22    1    1    0    0    0  0.83005268281E+01  0.76136083293E+01 -0.25665274086E+02  0.28028058643E+02  0.00000000000E+00 0.  1.
</event>
<event>
 5    1  0.8778488E-005  0.9118800E+02  0.7818608E-02  0.1130116E+00
         25   -1    0    0    0    0  0.00000000000E+00  0.00000000000E+00  0.99999998245E-14  0.12500000000E+03  0.12500000000E+03 0.  0.
        -11    1    3    3    0    0 -0.59325633266E+01 -0.30445731212E+02 -0.54188186969E+02  0.62437948909E+02  0.51100000000E-03 0.  1.
         23    2    1    0    0    0 -0.98531463554E+00 -0.15351695467E+02 -0.26677362380E+02  0.94205080578E+02  0.89029602631E+02 0.  0.
         11    1    3    3    0    0  0.49472486910E+01  0.15094035745E+02  0.27510824590E+02  0.31767131670E+02  0.51100000000E-03 0. -1.
         22    1    1    0    0    0  0.98531463554E+00  0.15351695467E+02  0.26677362380E+02  0.30794919422E+02  0.00000000000E+00 0.  1.
</event>
<event>
 5    1  0.8778488E-005  0.9118800E+02  0.7818608E-02  0.1130116E+00
         25   -1    0    0    0    0  0.00000000000E+00  0.00000000000E+00  0.99999998245E-14  0.12500000000E+03  0.12500000000E+03 0.  0.
        -11    1    3    3    0    0 -0.13304190720E+02  0.40628479817E+02 -0.30320548001E+00  0.42752389370E+02  0.51100000000E-03 0.  1.
         23    2    1    0    0    0 -0.11830744463E+02 -0.55087727830E+01  0.26019646930E+02  0.95890978744E+02  0.91365993049E+02 0.  0.
         11    1    3    3    0    0  0.14734462563E+01 -0.46137252601E+02  0.26322852410E+02  0.53138589374E+02  0.51100000000E-03 0. -1.
         22    1    1    0    0    0  0.11830744463E+02  0.55087727830E+01 -0.26019646930E+02  0.29109021256E+02  0.00000000000E+00 0. -1.
</event>
<event>
 5    1  0.8778488E-005  0.9118800E+02  0.7818608E-02  0.1130116E+00
         25   -1    0    0    0    0  0.00000000000E+00  0.00000000000E+00  0.99999998245E-14  0.12500000000E+03  0.12500000000E+03 0.  0.
        -11    1    3    3    0    0  0.33507862698E+02 -0.40776775156E+02  0.32238880760E+02  0.61845514693E+02  0.51100000000E-03 0.  1.
         23    2    1    0    0    0  0.12743603309E+02 -0.24787877765E+02  0.13726572370E+02  0.93931412996E+02  0.88644533103E+02 0.  0.
         11    1    3    3    0    0 -0.20764259389E+02  0.15988897391E+02 -0.18512308390E+02  0.32085898303E+02  0.51100000000E-03 0. -1.
         22    1    1    0    0    0 -0.12743603309E+02  0.24787877765E+02 -0.13726572370E+02  0.31068587004E+02  0.00000000000E+00 0.  1.
</event>
<event>
 5    1  0.8778488E-005  0.9118800E+02  0.7818608E-02  0.1130116E+00
         25   -1    0    0    0    0  0.00000000000E+00  0.00000000000E+00  0.99999998245E-14  0.12500000000E+03  0.12500000000E+03 0.  0.
        -11    1    3    3    0    0 -0.10188937228E+02 -0.41428246129E+02 -0.32428346861E+02  0.53588354141E+02  0.51100000000E-03 0.  1.
         23    2    1    0    0    0  0.14943526275E+02 -0.98076126705E+01 -0.24372177354E+02  0.94775816425E+02  0.89827357226E+02 0.  0.
         11    1    3    3    0    0  0.25132463503E+02  0.31620633458E+02  0.80561695073E+01  0.41187462284E+02  0.51100000000E-03 0. -1.
         22    1    1    0    0    0 -0.14943526275E+02  0.98076126705E+01  0.24372177354E+02  0.30224183575E+02  0.00000000000E+00 0.  1.
</event>
<event>
 5    1  0.8778488E-005  0.9118800E+02  0.7818608E-02  0.1130116E+00
         25   -1    0    0    0    0  0.00000000000E+00  0.00000000000E+00  0.99999998245E-14  0.12500000000E+03  0.12500000000E+03 0.  0.
        -11    1    3    3    0    0  0.33512852421E+02  0.22932777737E+02 -0.41844879539E+01  0.40823198207E+02  0.51100000000E-03 0. -1.
         23    2    1    0    0    0 -0.98877978649E+00 -0.17871938032E+02 -0.21527768444E+02  0.97003059655E+02  0.92874996171E+02 0.  0.
         11    1    3    3    0    0 -0.34501632207E+02 -0.40804715769E+02 -0.17343280491E+02  0.56179861449E+02  0.51100000000E-03 0.  1.
         22    1    1    0    0    0  0.98877978649E+00  0.17871938032E+02  0.21527768444E+02  0.27996940345E+02  0.00000000000E+00 0.  1.
</event>
<event>
 5    1  0.8778488E-005  0.9118800E+02  0.7818608E-02  0.1130116E+00
         25   -1    0    0    0    0  0.00000000000E+00  0.00000000000E+00  0.99999998245E-14  0.12500000000E+03  0.12500000000E+03 0.  0.
        -11    1    3    3    0    0  0.53371138532E+02 -0.23072943465E+02 -0.12858710169E+02  0.59549857899E+02  0.51100000000E-03 0. -1.
         23    2    1    0    0    0  0.26540603514E+02 -0.24098686028E+02 -0.14218165934E+02  0.86434386486E+02  0.77353711104E+02 0.  0.
         11    1    3    3    0    0 -0.26830535017E+02 -0.10257425637E+01 -0.13594557653E+01  0.26884528587E+02  0.51100000000E-03 0.  1.
         22    1    1    0    0    0 -0.26540603514E+02  0.24098686028E+02  0.14218165934E+02  0.38565613514E+02  0.00000000000E+00 0. -1.
</event>
<event>
 5    1  0.8778488E-005  0.9118800E+02  0.7818608E-02  0.1130116E+00
         25   -1    0    0    0    0  0.00000000000E+00  0.00000000000E+00  0.99999998245E-14  0.12500000000E+03  0.12500000000E+03 0.  0.
        -11    1    3    3    0    0  0.20940802197E+02 -0.45112861171E+01  0.22037832717E+01  0.21534288009E+02  0.51100000000E-03 0.  1.
         23    2    1    0    0    0 -0.12067733308E+02 -0.23671325184E+02 -0.39070980630E+02  0.77750625924E+02  0.61746712310E+02 0.  0.
         11    1    3    3    0    0 -0.33008535505E+02 -0.19160039067E+02 -0.41274763902E+02  0.56216337915E+02  0.51100000000E-03 0. -1.
         22    1    1    0    0    0  0.12067733308E+02  0.23671325184E+02  0.39070980630E+02  0.47249374076E+02  0.00000000000E+00 0. -1.
</event>
<event>
 5    1  0.8778488E-005  0.9118800E+02  0.7818608E-02  0.1130116E+00
         25   -1    0    0    0    0  0.00000000000E+00  0.00000000000E+00  0.99999998245E-14  0.12500000000E+03  0.12500000000E+03 0.  0.
        -11    1    3    3    0    0  0.26896215800E+02  0.16293796460E+02 -0.25969536027E+02  0.40783710341E+02  0.51100000000E-03 0.  1.
         23    2    1    0    0    0 -0.10486342611E+02 -0.23334481133E+02 -0.97155600086E+01  0.97634812309E+02  0.93721412053E+02 0.  0.
         11    1    3    3    0    0 -0.37382558411E+02 -0.39628277593E+02  0.16253976019E+02  0.56851101968E+02  0.51100000000E-03 0. -1.
         22    1    1    0    0    0  0.10486342611E+02  0.23334481133E+02  0.97155600086E+01  0.27365187691E+02  0.00000000000E+00 0. -1.
</event>
<event>
 5    1  0.8778488E-005  0.9118800E+02  0.7818608E-02  0.1130116E+00
         25   -1    0    0    0    0  0.00000000000E+00  0.00000000000E+00  0.99999998245E-14  0.12500000000E+03  0.12500000000E+03 0.  0.
        -11    1    3    3    0    0 -0.34472206966E+02 -0.25753610547E+02 -0.42004642336E+02  0.60132948434E+02  0.51100000000E-03 0. -1.
         23    2    1    0    0    0 -0.25293499874E+02 -0.11053608334E+02 -0.11749327561E+02  0.95000165147E+02  0.90139010904E+02 0.  0.
         11    1    3    3    0    0  0.91787070923E+01  0.14700002213E+02  0.30255314774E+02  0.34867216713E+02  0.51100000000E-03 0.  1.
         22    1    1    0    0    0  0.25293499874E+02  0.11053608334E+02  0.11749327561E+02  0.29999834853E+02  0.00000000000E+00 0. -1.
</event>
<event>
 5    1  0.8778488E-005  0.9118800E+02  0.7818608E-02  0.1130116E+00
         25   -1    0    0    0    0  0.00000000000E+00  0.00000000000E+00  0.99999998245E-14  0.12500000000E+03  0.12500000000E+03 0.  0.
        -11    1    3    3    0    0 -0.71027566608E+01 -0.31107966858E+01  0.54825999513E+02  0.55371621170E+02  0.51100000000E-03 0. -1.
         23    2    1    0    0    0 -0.15138879205E+02 -0.17052536691E+02  0.16756722863E+02  0.96702253936E+02  0.92469256967E+02 0.  0.
         11    1    3    3    0    0 -0.80361225441E+01 -0.13941740005E+02 -0.38069276650E+02  0.41330632766E+02  0.51100000000E-03 0.  1.
         22    1    1    0    0    0  0.15138879205E+02  0.17052536691E+02 -0.16756722863E+02  0.28297746064E+02  0.00000000000E+00 0. -1.
</event>
<event>
 5    1  0.8778488E-005  0.9118800E+02  0.7818608E-02  0.1130116E+00
         25   -1    0    0    0    0  0.00000000000E+00  0.00000000000E+00  0.99999998245E-14  0.12500000000E+03  0.12500000000E+03 0.  0.
        -11    1    3    3    0    0  0.19660618510E+01  0.50226913848E+02 -0.31831656623E+02  0.59496744764E+02  0.51100000000E-03 0. -1.
         23    2    1    0    0    0  0.63742736664E+01  0.14775905960E+02 -0.24056993879E+02  0.96056991929E+02  0.91592838051E+02 0.  0.
         11    1    3    3    0    0  0.44082118154E+01 -0.35451007888E+02  0.77746627440E+01  0.36560247165E+02  0.51100000000E-03 0.  1.
         22    1    1    0    0    0 -0.63742736664E+01 -0.14775905960E+02  0.24056993879E+02  0.28943008071E+02  0.00000000000E+00 0. -1.
</event>
<event>
 5    1  0.8778488E-005  0.9118800E+02  0.7818608E-02  0.1130116E+00
         25   -1    0    0    0    0  0.00000000000E+00  0.00000000000E+00  0.99999998245E-14  0.12500000000E+03  0.12500000000E+03 0.  0.
        -11    1    3    3    0    0  0.39463955184E+01  0.21417068706E+01 -0.33316961998E+02  0.33618163289E+02  0.51100000000E-03 0.  1.
         23    2    1    0    0    0 -0.25389265524E+00  0.22387668823E+02  0.22570795826E+02  0.93208287227E+02  0.87618900968E+02 0.  0.
         11    1    3    3    0    0 -0.42002881736E+01  0.20245961953E+02  0.55887757824E+02  0.59590123938E+02  0.51100000000E-03 0. -1.
         22    1    1    0    0    0  0.25389265524E+00 -0.22387668823E+02 -0.22570795826E+02  0.31791712773E+02  0.00000000000E+00 0. -1.
</event>
<event>
 5    1  0.8778488E-005  0.9118800E+02  0.7818608E-02  0.1130116E+00
         25   -1    0    0    0    0  0.00000000000E+00  0.00000000000E+00  0.99999998245E-14  0.12500000000E+03  0.12500000000E+03 0.  0.
        -11    1    3    3    0    0 -0.12344907885E+02  0.61878753338E+01 -0.48575821060E+02  0.50500464788E+02  0.51100000000E-03 0.  1.
         23    2    1    0    0    0 -0.26025668259E+02 -0.10203516368E+02 -0.87158168396E+01  0.95718391134E+02  0.91129565913E+02 0.  0.
         11    1    3    3    0    0 -0.13680760374E+02 -0.16391391702E+02  0.39860004221E+02  0.45217926346E+02  0.51100000000E-03 0. -1.
         22    1    1    0    0    0  0.26025668259E+02  0.10203516368E+02  0.87158168396E+01  0.29281608866E+02  0.00000000000E+00 0.  1.
</event>
<event>
 5    1  0.8778488E-005  0.9118800E+02  0.7818608E-02  0.1130116E+00
         25   -1    0    0    0    0  0.00000000000E+00  0.00000000000E+00  0.99999998245E-14  0.12500000000E+03  0.12500000000E+03 0.  0.
        -11    1    3    3    0    0  0.25671330726E+01  0.18314238914E+02 -0.34769216539E+02  0.39381466939E+02  0.51100000000E-03 0.  1.
         23    2    1    0    0    0  0.25258021459E+02 -0.18024293446E+02 -0.96170309168E+00  0.93955392174E+02  0.88678340329E+02 0.  0.
         11    1    3    3    0    0  0.22690888386E+02 -0.36338532360E+02  0.33807513448E+02  0.54573925235E+02  0.51100000000E-03 0. -1.
         22    1    1    0    0    0 -0.25258021459E+02  0.18024293446E+02  0.96170309168E+00  0.31044607826E+02  0.00000000000E+00 0. -1.
</event>
<event>
 5    1  0.8778488E-005  0.9118800E+02  0.7818608E-02  0.1130116E+00
         25   -1    0    0    0    0  0.00000000000E+00  0.00000000000E+00  0.99999998245E-14  0.12500000000E+03  0.12500000000E+03 0.  0.
        -11    1    3    3    0    0  0.67781843496E+01  0.50262948615E+02  0.20305103876E+02  0.54631538787E+02  0.51100000000E-03 0.  1.
         23    2    1    0    0    0 -0.12457552242E+02  0.20508329794E+02 -0.77059242740E+01  0.99797550363E+02  0.96562868592E+02 0.  0.
         11    1    3    3    0    0 -0.19235736592E+02 -0.29754618821E+02 -0.28011028150E+02  0.45166011576E+02  0.51100000000E-03 0. -1.
         22    1    1    0    0    0  0.12457552242E+02 -0.20508329794E+02  0.77059242740E+01  0.25202449637E+02  0.00000000000E+00 0.  1.
</event>
<event>
 5    1  0.8778488E-005  0.9118800E+02  0.7818608E-02  0.1130116E+00
         25   -1    0    0    0    0  0.00000000000E+00  0.00000000000E+00  0.99999998245E-14  0.12500000000E+03  0.12500000000E+03 0.  0.
        -11    1    3    3    0    0  0.34039907249E+02 -0.22565501887E+02 -0.26533372256E+02  0.48702535914E+02  0.51100000000E-03 0.  1.
         23    2    1    0    0    0  0.22476662510E+02 -0.70434329148E+01  0.16736987613E+02  0.96104722546E+02  0.91657954573E+02 0.  0.
         11    1    3    3    0    0 -0.11563244739E+02  0.15522068972E+02  0.43270359869E+02  0.47402186632E+02  0.51100000000E-03 0. -1.
         22    1    1    0    0    0 -0.22476662510E+02  0.70434329148E+01 -0.16736987613E+02  0.28895277454E+02  0.00000000000E+00 0. -1.
</event>
<event>
 5    1  0.8778488E-005  0.9118800E+02  0.7818608E-02  0.1130116E+00
         25   -1    0    0    0    0  0.00000000000E+00  0.00000000000E+00  0.99999998245E-14  0.12500000000E+03  0.12500000000E+03 0.  0.
        -11    1    3    3    0    0 -0.15652184503E+02 -0.25672241962E+02  0.28053887883E+02  0.41122688538E+02  0.51100000000E-03 0.  1.
         23    2    1    0    0    0  0.53037907331E+01  0.24275999451E+02  0.99322934892E+01  0.98239865481E+02  0.94524951047E+02 0.  0.
         11    1    3    3    0    0  0.20955975236E+02  0.49948241413E+02 -0.18121594393E+02  0.57117176943E+02  0.51100000000E-03 0. -1.
         22    1    1    0    0    0 -0.53037907331E+01 -0.24275999451E+02 -0.99322934892E+01  0.26760134519E+02  0.00000000000E+00 0.  1.
</event>
<event>
 5    1  0.8778488E-005  0.9118800E+02  0.7818608E-02  0.1130116E+00
         25   -1    0    0    0    0  0.00000000000E+00  0.00000000000E+00  0.99999998245E-14  0.12500000000E+03  0.12500000000E+03 0.  0.
        -11    1    3    3    0    0  0.99116654283E+01  0.18824761492E+02 -0.32641141066E+02  0.38962249000E+02  0.51100000000E-03 0.  1.
         23    2    1    0    0    0  0.81213180763E+01 -0.17647597987E+02  0.16033257167E+02  0.99811533246E+02  0.96580967647E+02 0.  0.
         11    1    3    3    0    0 -0.17903473520E+01 -0.36472359480E+02  0.48674398233E+02  0.60849284246E+02  0.51100000000E-03 0. -1.
         22    1    1    0    0    0 -0.81213180763E+01  0.17647597987E+02 -0.16033257167E+02  0.25188466754E+02  0.00000000000E+00 0. -1.
</event>
<event>
 5    1  0.8778488E-005  0.9118800E+02  0.7818608E-02  0.1130116E+00
         25   -1    0    0    0    0  0.00000000000E+00  0.00000000000E+00  0.99999998245E-14  0.12500000000E+03  0.12500000000E+03 0.  0.
        -11    1    3    3    0    0 -0.59861007240E+01 -0.47388169538E+02  0.32843513362E+02  0.57966959418E+02  0.51100000000E-03 0. -1.
         23    2    1    0    0    0  0.11974660066E+02 -0.17046528758E+02  0.21637700771E+02  0.94963909691E+02  0.90088719731E+02 0.  0.
         11    1    3    3    0    0  0.17960760790E+02  0.30341640780E+02 -0.11205812591E+02  0.36996950272E+02  0.51100000000E-03 0.  1.
         22    1    1    0    0    0 -0.11974660066E+02  0.17046528758E+02 -0.21637700771E+02  0.30036090309E+02  0.00000000000E+00 0. -1.
</event>
<event>
 5    1  0.8778488E-005  0.9118800E+02  0.7818608E-02  0.1130116E+00
         25   -1    0    0    0    0  0.00000000000E+00  0.00000000000E+00  0.99999998245E-14  0.12500000000E+03  0.12500000000E+03 0.  0.
        -11    1    3    3    0    0  0.30520884015E+02  0.30925023851E+02 -0.37571864880E+02  0.57441504960E+02  0.51100000000E-03 0. -1.
         23    2    1    0    0    0  0.24089009904E+02 -0.39896626071E+00 -0.14396418242E+02  0.96934069934E+02  0.92782096784E+02 0.  0.
         11    1    3    3    0    0 -0.64318741108E+01 -0.31323990112E+02  0.23175446638E+02  0.39492564974E+02  0.51100000000E-03 0.  1.
         22    1    1    0    0    0 -0.24089009904E+02  0.39896626071E+00  0.14396418242E+02  0.28065930066E+02  0.00000000000E+00 0. -1.
</event>
<event>
 5    1  0.8778488E-005  0.9118800E+02  0.7818608E-02  0.1130116E+00
         25   -1    0    0    0    0  0.00000000000E+00  0.00000000000E+00  0.99999998245E-14  0.12500000000E+03  0.12500000000E+03 0.  0.
        -11    1    3    3    0    0 -0.29624245069E+02  0.85781118762E+01 -0.44995001376E+02  0.54550252505E+02  0.51100000000E-03 0.  1.
         23    2    1    0    0    0 -0.16489019991E+02  0.22277930447E+02 -0.79632336127E+01  0.96162402062E+02  0.91736582209E+02 0.  0.
         11    1    3    3    0    0  0.13135225078E+02  0.13699818571E+02  0.37031767764E+02  0.41612149556E+02  0.51100000000E-03 0. -1.
         22    1    1    0    0    0  0.16489019991E+02 -0.22277930447E+02  0.79632336127E+01  0.28837597938E+02  0.00000000000E+00 0.  1.
</event>
<event>
 5    1  0.8778488E-005  0.9118800E+02  0.7818608E-02  0.1130116E+00
         25   -1    0    0    0    0  0.00000000000E+00  0.00000000000E+00  0.99999998245E-14  0.12500000000E+03  0.12500000000E+03 0.  0.
        -11    1    3    3    0    0 -0.60596180182E+01  0.32580885682E+02  0.22478225619E+02  0.40043772419E+02  0.51100000000E-03 0. -1.
         23    2    1    0    0    0 -0.15419291418E+02  0.46422694014E+01 -0.24609440194E+02  0.95590311805E+02  0.90953713236E+02 0.  0.
         11    1    3    3    0    0 -0.93596733999E+01 -0.27938616280E+02 -0.47087665813E+02  0.55546539386E+02  0.51100000000E-03 0.  1.
         22    1    1    0    0    0  0.15419291418E+02 -0.46422694014E+01  0.24609440194E+02  0.29409688195E+02  0.00000000000E+00 0.  1.
</event>
<event>
 5    1  0.8778488E-005  0.9118800E+02  0.7818608E-02  0.1130116E+00
         25   -1    0    0    0    0  0.00000000000E+00  0.00000000000E+00  0.99999998245E-14  0.12500000000E+03  0.12500000000E+03 0.  0.
        -11    1    3    3    0    0  0.35579395029E+02 -0.19166247921E+02 -0.62519811371E+01  0.40894078769E+02  0.51100000000E-03 0. -1.
         23    2    1    0    0    0 -0.96493602950E+00 -0.28251521840E+00  0.29553419630E+02  0.95429482111E+02  0.90732411672E+02 0.  0.
         11    1    3    3    0    0 -0.36544331058E+02  0.18883732703E+02  0.35805400767E+02  0.54535403342E+02  0.51100000000E-03 0.  1.
         22    1    1    0    0    0  0.96493602950E+00  0.28251521840E+00 -0.29553419630E+02  0.29570517889E+02  0.00000000000E+00 0.  1.
</event>
<event>
 5    1  0.8778488E-005  0.9118800E+02  0.7818608E-02  0.1130116E+00
         25   -1    0    0    0    0  0.00000000000E+00  0.00000000000E+00  0.99999998245E-14  0.12500000000E+03  0.12500000000E+03 0.  0.
        -11    1    3    3    0    0 -0.53142148235E+02  0.94216492331E+01 -0.15216312879E+01  0.53992321263E+02  0.51100000000E-03 0.  1.
         23    2    1    0    0    0 -0.19317537898E+02 -0.30799848540E+01  0.20834917672E+02  0.96421207661E+02  0.92088554746E+02 0.  0.
         11    1    3    3    0    0  0.33824610337E+02 -0.12501634087E+02  0.22356548960E+02  0.42428886398E+02  0.51100000000E-03 0. -1.
         22    1    1    0    0    0  0.19317537898E+02  0.30799848540E+01 -0.20834917672E+02  0.28578792339E+02  0.00000000000E+00 0.  1.
</event>
<event>
 5    1  0.8778488E-005  0.9118800E+02  0.7818608E-02  0.1130116E+00
         25   -1    0    0    0    0  0.00000000000E+00  0.00000000000E+00  0.99999998245E-14  0.12500000000E+03  0.12500000000E+03 0.  0.
        -11    1    3    3    0    0  0.24819844681E+02  0.15493457723E+02 -0.50276378765E+02  0.58170320475E+02  0.51100000000E-03 0.  1.
         23    2    1    0    0    0  0.25293644790E+02  0.25432799480E+01 -0.15636571829E+02  0.95154747141E+02  0.90353122719E+02 0.  0.
         11    1    3    3    0    0  0.47380010962E+00 -0.12950177775E+02  0.34639806936E+02  0.36984426665E+02  0.51100000000E-03 0. -1.
         22    1    1    0    0    0 -0.25293644790E+02 -0.25432799480E+01  0.15636571829E+02  0.29845252859E+02  0.00000000000E+00 0.  1.
</event>
<event>
 5    1  0.8778488E-005  0.9118800E+02  0.7818608E-02  0.1130116E+00
         25   -1    0    0    0    0  0.00000000000E+00  0.00000000000E+00  0.99999998245E-14  0.12500000000E+03  0.12500000000E+03 0.  0.
        -11    1    3    3    0    0 -0.44683987832E+02  0.22208726219E+02  0.32363066809E+02  0.59474821415E+02  0.51100000000E-03 0. -1.
         23    2    1    0    0    0 -0.17387454605E+02  0.10540144331E+00  0.23620101755E+02  0.95670085339E+02  0.91063282034E+02 0.  0.
         11    1    3    3    0    0  0.27296533226E+02 -0.22103324776E+02 -0.87429650541E+01  0.36195263924E+02  0.51100000000E-03 0.  1.
         22    1    1    0    0    0  0.17387454605E+02 -0.10540144331E+00 -0.23620101755E+02  0.29329914661E+02  0.00000000000E+00 0. -1.
</event>
<event>
 5    1  0.8778488E-005  0.9118800E+02  0.7818608E-02  0.1130116E+00
         25   -1    0    0    0    0  0.00000000000E+00  0.00000000000E+00  0.99999998245E-14  0.12500000000E+03  0.12500000000E+03 0.  0.
        -11    1    3    3    0    0 -0.17468161744E+02 -0.20089470459E+02  0.48729854748E+02  0.55527670958E+02  0.51100000000E-03 0. -1.
         23    2    1    0    0    0 -0.15895284893E+02 -0.22207950804E+02  0.77238539187E+01  0.96618472907E+02  0.92355932277E+02 0.  0.
         11    1    3    3    0    0  0.15728768508E+01 -0.21184803455E+01 -0.41006000829E+02  0.41090801949E+02  0.51100000000E-03 0.  1.
         22    1    1    0    0    0  0.15895284893E+02  0.22207950804E+02 -0.77238539187E+01  0.28381527093E+02  0.00000000000E+00 0. -1.
</event>
<event>
 5    1  0.8778488E-005  0.9118800E+02  0.7818608E-02  0.1130116E+00
         25   -1    0    0    0    0  0.00000000000E+00  0.00000000000E+00  0.99999998245E-14  0.12500000000E+03  0.12500000000E+03 0.  0.
        -11    1    3    3    0    0 -0.61214848390E+02  0.53860618241E+00  0.10788578543E+02  0.62160608002E+02  0.51100000000E-03 0.  1.
         23    2    1    0    0    0 -0.29435740113E+02  0.82714699322E+00  0.55721243227E+00  0.95547369322E+02  0.90894677130E+02 0.  0.
         11    1    3    3    0    0  0.31779108277E+02  0.28854081081E+00 -0.10231366111E+02  0.33386761320E+02  0.51100000000E-03 0. -1.
         22    1    1    0    0    0  0.29435740113E+02 -0.82714699322E+00 -0.55721243227E+00  0.29452630678E+02  0.00000000000E+00 0.  1.
</event>
<event>
 5    1  0.8778488E-005  0.9118800E+02  0.7818608E-02  0.1130116E+00
         25   -1    0    0    0    0  0.00000000000E+00  0.00000000000E+00  0.99999998245E-14  0.12500000000E+03  0.12500000000E+03 0.  0.
        -11    1    3    3    0    0  0.34903620659E+01  0.29117972262E+02  0.29195039172E+02  0.41381025223E+02  0.51100000000E-03 0. -1.
         23    2    1    0    0    0 -0.29091546140E+02 -0.39285857151E+01  0.11136241518E+01  0.95623274497E+02  0.90999003424E+02 0.  0.
         11    1    3    3    0    0 -0.32581908206E+02 -0.33046557977E+02 -0.28081415020E+02  0.54242249274E+02  0.51100000000E-03 0.  1.
         22    1    1    0    0    0  0.29091546140E+02  0.39285857151E+01 -0.11136241518E+01  0.29376725503E+02  0.00000000000E+00 0.  1.
</event>
<event>
 5    1  0.8778488E-005  0.9118800E+02  0.7818608E-02  0.1130116E+00
         25   -1    0    0    0    0  0.00000000000E+00  0.00000000000E+00  0.99999998245E-14  0.12500000000E+03  0.12500000000E+03 0.  0.
        -11    1    3    3    0    0  0.53381325720E+01  0.27253405438E+02 -0.19220448262E+02  0.33773797521E+02  0.51100000000E-03 0.  1.
         23    2    1    0    0    0 -0.80438638244E+00 -0.19619580162E+02  0.21294854385E+02  0.96033712933E+02  0.91561062866E+02 0.  0.
         11    1    3    3    0    0 -0.61425189545E+01 -0.46872985600E+02  0.40515302647E+02  0.62259915412E+02  0.51100000000E-03 0. -1.
         22    1    1    0    0    0  0.80438638244E+00  0.19619580162E+02 -0.21294854385E+02  0.28966287067E+02  0.00000000000E+00 0. -1.
</event>
<event>
 5    1  0.8778488E-005  0.9118800E+02  0.7818608E-02  0.1130116E+00
         25   -1    0    0    0    0  0.00000000000E+00  0.00000000000E+00  0.99999998245E-14  0.12500000000E+03  0.12500000000E+03 0.  0.
        -11    1    3    3    0    0 -0.14693095153E+02 -0.21834321509E+02 -0.19156880544E+02  0.32551662222E+02  0.51100000000E-03 0.  1.
         23    2    1    0    0    0  0.18507681219E+02  0.26160989804E+02 -0.55384569575E+01  0.92479142738E+02  0.86572430279E+02 0.  0.
         11    1    3    3    0    0  0.33200776372E+02  0.47995311313E+02  0.13618423587E+02  0.59927480516E+02  0.51100000000E-03 0. -1.
         22    1    1    0    0    0 -0.18507681219E+02 -0.26160989804E+02  0.55384569575E+01  0.32520857262E+02  0.00000000000E+00 0. -1.
</event>
<event>
 5    1  0.8778488E-005  0.9118800E+02  0.7818608E-02  0.1130116E+00
         25   -1    0    0    0    0  0.00000000000E+00  0.00000000000E+00  0.99999998245E-14  0.12500000000E+03  0.12500000000E+03 0.  0.
        -11    1    3    3    0    0 -0.46951737403E+02 -0.28914087755E+02 -0.38291855632E+01  0.55273436460E+02  0.51100000000E-03 0.  1.
         23    2    1    0    0    0 -0.79078876457E+01 -0.22054645248E+02 -0.15867704521E+02  0.96702895717E+02  0.92470124523E+02 0.  0.
         11    1    3    3    0    0  0.39043849757E+02  0.68594425069E+01 -0.12038518958E+02  0.41429459257E+02  0.51100000000E-03 0. -1.
         22    1    1    0    0    0  0.79078876457E+01  0.22054645248E+02  0.15867704521E+02  0.28297104283E+02  0.00000000000E+00 0.  1.
</event>
<event>
 5    1  0.8778488E-005  0.9118800E+02  0.7818608E-02  0.1130116E+00
         25   -1    0    0    0    0  0.00000000000E+00  0.00000000000E+00  0.99999998245E-14  0.12500000000E+03  0.12500000000E+03 0.  0.
        -11    1    3    3    0    0 -0.30481606698E+02  0.14063111275E+02  0.25881463406E+02  0.42388083160E+02  0.51100000000E-03 0. -1.
         23    2    1    0    0    0 -0.22109931860E+01 -0.69319152498E+01 -0.22002179283E+02  0.10182596640E+03  0.99153878396E+02 0.  0.
         11    1    3    3    0    0  0.28270613512E+02 -0.20995026525E+02 -0.47883642689E+02  0.59437883244E+02  0.51100000000E-03 0.  1.
         22    1    1    0    0    0  0.22109931860E+01  0.69319152498E+01  0.22002179283E+02  0.23174033596E+02  0.00000000000E+00 0.  1.
</event>
<event>
 5    1  0.8778488E-005  0.9118800E+02  0.7818608E-02  0.1130116E+00
         25   -1    0    0    0    0  0.00000000000E+00  0.00000000000E+00  0.99999998245E-14  0.12500000000E+03  0.12500000000E+03 0.  0.
        -11    1    3    3    0    0 -0.22025089719E+02  0.11231003790E+02  0.12047130342E+02  0.27502243054E+02  0.51100000000E-03 0.  1.
         23    2    1    0    0    0  0.28324316661E+01 -0.28089397270E+02  0.35535761517E+02  0.79614680185E+02  0.65411543677E+02 0.  0.
         11    1    3    3    0    0  0.24857521385E+02 -0.39320401060E+02  0.23488631176E+02  0.52112437131E+02  0.51100000000E-03 0. -1.
         22    1    1    0    0    0 -0.28324316661E+01  0.28089397270E+02 -0.35535761517E+02  0.45385319815E+02  0.00000000000E+00 0. -1.
</event>
<event>
 5    1  0.8778488E-005  0.9118800E+02  0.7818608E-02  0.1130116E+00
         25   -1    0    0    0    0  0.00000000000E+00  0.00000000000E+00  0.99999998245E-14  0.12500000000E+03  0.12500000000E+03 0.  0.
        -11    1    3    3    0    0 -0.49247869283E+02 -0.19150941052E+02  0.21672579988E+02  0.57112274475E+02  0.51100000000E-03 0.  1.
         23    2    1    0    0    0 -0.19751487731E+02 -0.22092993528E+02 -0.23574083122E+01  0.95271579178E+02  0.90514610944E+02 0.  0.
         11    1    3    3    0    0  0.29496381552E+02 -0.29420524766E+01 -0.24029988300E+02  0.38159304703E+02  0.51100000000E-03 0. -1.
         22    1    1    0    0    0  0.19751487731E+02  0.22092993528E+02  0.23574083122E+01  0.29728420822E+02  0.00000000000E+00 0.  1.
</event>
<event>
 5    1  0.8778488E-005  0.9118800E+02  0.7818608E-02  0.1130116E+00
         25   -1    0    0    0    0  0.00000000000E+00  0.00000000000E+00  0.99999998245E-14  0.12500000000E+03  0.12500000000E+03 0.  0.
        -11    1    3    3    0    0  0.10590515863E+02  0.49590299210E+01 -0.36180480551E+02  0.38023389870E+02  0.51100000000E-03 0.  1.
         23    2    1    0    0    0 -0.16655521024E+02  0.17918844315E+02  0.14175079305E+02  0.96725908759E+02  0.92501228045E+02 0.  0.
         11    1    3    3    0    0 -0.27246036887E+02  0.12959814394E+02  0.50355559857E+02  0.58702518889E+02  0.51100000000E-03 0. -1.
         22    1    1    0    0    0  0.16655521024E+02 -0.17918844315E+02 -0.14175079305E+02  0.28274091241E+02  0.00000000000E+00 0. -1.
</event>
<event>
 5    1  0.8778488E-005  0.9118800E+02  0.7818608E-02  0.1130116E+00
         25   -1    0    0    0    0  0.00000000000E+00  0.00000000000E+00  0.99999998245E-14  0.12500000000E+03  0.12500000000E+03 0.  0.
        -11    1    3    3    0    0 -0.44321367116E+02 -0.43730026129E+01  0.30812762429E+02  0.54156560671E+02  0.51100000000E-03 0. -1.
         23    2    1    0    0    0 -0.25916815391E+02  0.46540343769E+01 -0.75109871951E+01  0.97618322100E+02  0.93699415820E+02 0.  0.
         11    1    3    3    0    0  0.18404551725E+02  0.90270369897E+01 -0.38323749624E+02  0.43461761429E+02  0.51100000000E-03 0.  1.
         22    1    1    0    0    0  0.25916815391E+02 -0.46540343769E+01  0.75109871951E+01  0.27381677900E+02  0.00000000000E+00 0. -1.
</event>
<event>
 5    1  0.8778488E-005  0.9118800E+02  0.7818608E-02  0.1130116E+00
         25   -1    0    0    0    0  0.00000000000E+00  0.00000000000E+00  0.99999998245E-14  0.12500000000E+03  0.12500000000E+03 0.  0.
        -11    1    3    3    0    0 -0.67548172286E+01  0.37434294622E+02  0.17678459328E+02  0.41946178540E+02  0.51100000000E-03 0.  1.
         23    2    1    0    0    0  0.21342103164E+02  0.76258025961E+01 -0.17834908571E+02  0.96160405751E+02  0.91733862002E+02 0.  0.
         11    1    3    3    0    0  0.28096920392E+02 -0.29808492026E+02 -0.35513367899E+02  0.54214227212E+02  0.51100000000E-03 0. -1.
         22    1    1    0    0    0 -0.21342103164E+02 -0.76258025961E+01  0.17834908571E+02  0.28839594249E+02  0.00000000000E+00 0.  1.
</event>
<event>
 5    1  0.8778488E-005  0.9118800E+02  0.7818608E-02  0.1130116E+00
         25   -1    0    0    0    0  0.00000000000E+00  0.00000000000E+00  0.99999998245E-14  0.12500000000E+03  0.12500000000E+03 0.  0.
        -11    1    3    3    0    0 -0.67092883279E+01 -0.10867887307E+02 -0.41283355808E+02  0.43213898128E+02  0.51100000000E-03 0.  1.
         23    2    1    0    0    0 -0.19511657863E+02  0.22704004666E+02 -0.43354098888E+01  0.94751489304E+02  0.89793498239E+02 0.  0.
         11    1    3    3    0    0 -0.12802369535E+02  0.33571891973E+02  0.36947945919E+02  0.51537591176E+02  0.51100000000E-03 0. -1.
         22    1    1    0    0    0  0.19511657863E+02 -0.22704004666E+02  0.43354098888E+01  0.30248510696E+02  0.00000000000E+00 0.  1.
</event>
<event>
 5    1  0.8778488E-005  0.9118800E+02  0.7818608E-02  0.1130116E+00
         25   -1    0    0    0    0  0.00000000000E+00  0.00000000000E+00  0.99999998245E-14  0.12500000000E+03  0.12500000000E+03 0.  0.
        -11    1    3    3    0    0  0.47478582995E+02  0.32552594921E+02  0.17673837185E+02  0.60218367633E+02  0.51100000000E-03 0. -1.
         23    2    1    0    0    0  0.28001073316E+02  0.75942245892E+01  0.10690102517E+01  0.95967688055E+02  0.91470880687E+02 0.  0.
         11    1    3    3    0    0 -0.19477509679E+02 -0.24958370332E+02 -0.16604826933E+02  0.35749320422E+02  0.51100000000E-03 0.  1.
         22    1    1    0    0    0 -0.28001073316E+02 -0.75942245892E+01 -0.10690102517E+01  0.29032311945E+02  0.00000000000E+00 0. -1.
</event>
<event>
 5    1  0.8778488E-005  0.9118800E+02  0.7818608E-02  0.1130116E+00
         25   -1    0    0    0    0  0.00000000000E+00  0.00000000000E+00  0.99999998245E-14  0.12500000000E+03  0.12500000000E+03 0.  0.
        -11    1    3    3    0    0 -0.42658063921E+01 -0.32766587115E+02  0.45084536642E+01  0.33349250217E+02  0.51100000000E-03 0. -1.
         23    2    1    0    0    0  0.22255959592E+00  0.29055661464E+02  0.59031528544E+01  0.95349903719E+02  0.90622711997E+02 0.  0.
         11    1    3    3    0    0  0.44883659880E+01  0.61822248579E+02  0.13946991902E+01  0.62000653502E+02  0.51100000000E-03 0.  1.
         22    1    1    0    0    0 -0.22255959592E+00 -0.29055661464E+02 -0.59031528544E+01  0.29650096281E+02  0.00000000000E+00 0.  1.
</event>
<event>
 5    1  0.8778488E-005  0.9118800E+02  0.7818608E-02  0.1130116E+00
         25   -1    0    0    0    0  0.00000000000E+00  0.00000000000E+00  0.99999998245E-14  0.12500000000E+03  0.12500000000E+03 0.  0.
        -11    1    3    3    0    0  0.16677890733E+02 -0.36420047062E+02  0.47102632948E+02  0.61832272303E+02  0.51100000000E-03 0. -1.
         23    2    1    0    0    0  0.52880438450E+01 -0.22537389775E+02  0.19655661393E+02  0.94631556339E+02  0.89626386097E+02 0.  0.
         11    1    3    3    0    0 -0.11389846888E+02  0.13882657287E+02 -0.27446971555E+02  0.32799284036E+02  0.51100000000E-03 0.  1.
         22    1    1    0    0    0 -0.52880438450E+01  0.22537389775E+02 -0.19655661393E+02  0.30368443661E+02  0.00000000000E+00 0. -1.
</event>
<event>
 5    1  0.8778488E-005  0.9118800E+02  0.7818608E-02  0.1130116E+00
         25   -1    0    0    0    0  0.00000000000E+00  0.00000000000E+00  0.99999998245E-14  0.12500000000E+03  0.12500000000E+03 0.  0.
        -11    1    3    3    0    0 -0.40804495653E+02  0.16394690973E+02 -0.18383353940E+02  0.47662778559E+02  0.51100000000E-03 0. -1.
         23    2    1    0    0    0  0.47863701118E+01 -0.12043640824E+01 -0.27229567886E+02  0.97326742169E+02  0.93309621917E+02 0.  0.
         11    1    3    3    0    0  0.45590865765E+02 -0.17599055055E+02 -0.88462139462E+01  0.49663963610E+02  0.51100000000E-03 0.  1.
         22    1    1    0    0    0 -0.47863701118E+01  0.12043640824E+01  0.27229567886E+02  0.27673257831E+02  0.00000000000E+00 0.  1.
</event>
<event>
 5    1  0.8778488E-005  0.9118800E+02  0.7818608E-02  0.1130116E+00
         25   -1    0    0    0    0  0.00000000000E+00  0.00000000000E+00  0.99999998245E-14  0.12500000000E+03  0.12500000000E+03 0.  0.
        -11    1    3    3    0    0  0.29570585309E+02  0.17961218768E+02  0.27719789885E+02  0.44332963433E+02  0.51100000000E-03 0.  1.
         23    2    1    0    0    0 -0.18154707127E+02  0.55657063185E+00  0.23487513354E+02  0.95308815361E+02  0.90566019236E+02 0.  0.
         11    1    3    3    0    0 -0.47725292437E+02 -0.17404648136E+02 -0.42322765317E+01  0.50975851928E+02  0.51100000000E-03 0. -1.
         22    1    1    0    0    0  0.18154707127E+02 -0.55657063185E+00 -0.23487513354E+02  0.29691184639E+02  0.00000000000E+00 0.  1.
</event>
<event>
 5    1  0.8778488E-005  0.9118800E+02  0.7818608E-02  0.1130116E+00
         25   -1    0    0    0    0  0.00000000000E+00  0.00000000000E+00  0.99999998245E-14  0.12500000000E+03  0.12500000000E+03 0.  0.
        -11    1    3    3    0    0  0.40431685656E+02  0.13271479786E+02  0.32348348037E+02  0.53453428344E+02  0.51100000000E-03 0.  1.
         23    2    1    0    0    0  0.20879158071E+00  0.12217570379E+02  0.28641875822E+02  0.93860480567E+02  0.88544452913E+02 0.  0.
         11    1    3    3    0    0 -0.40222894075E+02 -0.10539094068E+01 -0.37064722143E+01  0.40407052223E+02  0.51100000000E-03 0. -1.
         22    1    1    0    0    0 -0.20879158071E+00 -0.12217570379E+02 -0.28641875822E+02  0.31139519433E+02  0.00000000000E+00 0.  1.
</event>
<event>
 5    1  0.8778488E-005  0.9118800E+02  0.7818608E-02  0.1130116E+00
         25   -1    0    0    0    0  0.00000000000E+00  0.00000000000E+00  0.99999998245E-14  0.12500000000E+03  0.12500000000E+03 0.  0.
        -11    1    3    3    0    0 -0.53604089817E+02  0.21462850080E+02  0.73790100045E+01  0.58210842354E+02  0.51100000000E-03 0.  1.
         23    2    1    0    0    0 -0.17132914552E+02  0.21159243433E+02  0.12501171090E+02  0.95041201253E+02  0.90195899648E+02 0.  0.
         11    1    3    3    0    0  0.36471175265E+02 -0.30360664663E+00  0.51221610857E+01  0.36830358899E+02  0.51100000000E-03 0. -1.
         22    1    1    0    0    0  0.17132914552E+02 -0.21159243433E+02 -0.12501171090E+02  0.29958798747E+02  0.00000000000E+00 0.  1.
</event>
<event>
 5    1  0.8778488E-005  0.9118800E+02  0.7818608E-02  0.1130116E+00
         25   -1    0    0    0    0  0.00000000000E+00  0.00000000000E+00  0.99999998245E-14  0.12500000000E+03  0.12500000000E+03 0.  0.
        -11    1    3    3    0    0  0.49362574152E+02  0.26462889283E+02 -0.25194740856E+02  0.61414356653E+02  0.51100000000E-03 0. -1.
         23    2    1    0    0    0  0.21106607420E+02  0.18845203945E+02 -0.70789996874E+01  0.95832503962E+02  0.91285957248E+02 0.  0.
         11    1    3    3    0    0 -0.28255966732E+02 -0.76176853373E+01  0.18115741169E+02  0.34418147309E+02  0.51100000000E-03 0.  1.
         22    1    1    0    0    0 -0.21106607420E+02 -0.18845203945E+02  0.70789996874E+01  0.29167496038E+02  0.00000000000E+00 0. -1.
</event>
<event>
 5    1  0.8778488E-005  0.9118800E+02  0.7818608E-02  0.1130116E+00
         25   -1    0    0    0    0  0.00000000000E+00  0.00000000000E+00  0.99999998245E-14  0.12500000000E+03  0.12500000000E+03 0.  0.
        -11    1    3    3    0    0 -0.12148592662E+02 -0.23555722199E+02  0.21320192409E+02  0.34014863760E+02  0.51100000000E-03 0. -1.
         23    2    1    0    0    0  0.66427142320E+01  0.27513625147E+02 -0.76739098980E+01  0.95674002758E+02  0.91068659205E+02 0.  0.
         11    1    3    3    0    0  0.18791306894E+02  0.51069347346E+02 -0.28994102307E+02  0.61659138998E+02  0.51100000000E-03 0.  1.
         22    1    1    0    0    0 -0.66427142320E+01 -0.27513625147E+02  0.76739098980E+01  0.29325997242E+02  0.00000000000E+00 0.  1.
</event>
<event>
 5    1  0.8778488E-005  0.9118800E+02  0.7818608E-02  0.1130116E+00
         25   -1    0    0    0    0  0.00000000000E+00  0.00000000000E+00  0.99999998245E-14  0.12500000000E+03  0.12500000000E+03 0.  0.
        -11    1    3    3    0    0  0.31981273997E+02 -0.42831556463E+02 -0.15884845730E+02  0.55764437051E+02  0.51100000000E-03 0. -1.
         23    2    1    0    0    0  0.94042870046E+00 -0.29155579917E+02  0.47164158208E+01  0.95450434443E+02  0.90761272637E+02 0.  0.
         11    1    3    3    0    0 -0.31040845296E+02  0.13675976547E+02  0.20601261551E+02  0.39685997392E+02  0.51100000000E-03 0.  1.
         22    1    1    0    0    0 -0.94042870046E+00  0.29155579917E+02 -0.47164158208E+01  0.29549565557E+02  0.00000000000E+00 0. -1.
</event>
<event>
 5    1  0.8778488E-005  0.9118800E+02  0.7818608E-02  0.1130116E+00
         25   -1    0    0    0    0  0.00000000000E+00  0.00000000000E+00  0.99999998245E-14  0.12500000000E+03  0.12500000000E+03 0.  0.
        -11    1    3    3    0    0  0.37759844281E+02 -0.31802820570E+02  0.34779472774E+02  0.60389046714E+02  0.51100000000E-03 0.  1.
         23    2    1    0    0    0  0.22350052573E+02 -0.19778166691E+02  0.70178676966E+01  0.94341376504E+02  0.89220760622E+02 0.  0.
         11    1    3    3    0    0 -0.15409791708E+02  0.12024653880E+02 -0.27761605077E+02  0.33952329790E+02  0.51100000000E-03 0. -1.
         22    1    1    0    0    0 -0.22350052573E+02  0.19778166691E+02 -0.70178676966E+01  0.30658623496E+02  0.00000000000E+00 0. -1.
</event>
<event>
 5    1  0.8778488E-005  0.9118800E+02  0.7818608E-02  0.1130116E+00
         25   -1    0    0    0    0  0.00000000000E+00  0.00000000000E+00  0.99999998245E-14  0.12500000000E+03  0.12500000000E+03 0.  0.
        -11    1    3    3    0    0 -0.38291399757E+02 -0.56078144034E+01  0.32940309294E+02  0.50820693171E+02  0.51100000000E-03 0. -1.
         23    2    1    0    0    0 -0.13851554500E+01  0.17779981867E+02  0.23461558207E+02  0.95529826530E+02  0.90870548763E+02 0.  0.
         11    1    3    3    0    0  0.36906244307E+02  0.23387796271E+02 -0.94787510869E+01  0.44709133359E+02  0.51100000000E-03 0.  1.
         22    1    1    0    0    0  0.13851554500E+01 -0.17779981867E+02 -0.23461558207E+02  0.29470173470E+02  0.00000000000E+00 0.  1.
</event>
<event>
 5    1  0.8778488E-005  0.9118800E+02  0.7818608E-02  0.1130116E+00
         25   -1    0    0    0    0  0.00000000000E+00  0.00000000000E+00  0.99999998245E-14  0.12500000000E+03  0.12500000000E+03 0.  0.
        -11    1    3    3    0    0  0.52058664388E+02  0.29219883617E+02 -0.38706504205E+01  0.59823808566E+02  0.51100000000E-03 0. -1.
         23    2    1    0    0    0  0.31308731379E+02  0.30135909140E+01  0.55284978779E+00  0.93541709620E+02  0.88093288081E+02 0.  0.
         11    1    3    3    0    0 -0.20749933009E+02 -0.26206292703E+02  0.44235002083E+01  0.33717901054E+02  0.51100000000E-03 0.  1.
         22    1    1    0    0    0 -0.31308731379E+02 -0.30135909140E+01 -0.55284978779E+00  0.31458290380E+02  0.00000000000E+00 0. -1.
</event>
<event>
 5    1  0.8778488E-005  0.9118800E+02  0.7818608E-02  0.1130116E+00
         25   -1    0    0    0    0  0.00000000000E+00  0.00000000000E+00  0.99999998245E-14  0.12500000000E+03  0.12500000000E+03 0.  0.
        -11    1    3    3    0    0 -0.96856210415E+01  0.23254262894E+02  0.28537170470E+02  0.38064972040E+02  0.51100000000E-03 0. -1.
         23    2    1    0    0    0  0.28794797752E+02 -0.13302276647E+01 -0.62929185766E+01  0.95495581561E+02  0.90823429742E+02 0.  0.
         11    1    3    3    0    0  0.38480418794E+02 -0.24584490559E+02 -0.34830089047E+02  0.57430609520E+02  0.51100000000E-03 0.  1.
         22    1    1    0    0    0 -0.28794797752E+02  0.13302276647E+01  0.62929185766E+01  0.29504418439E+02  0.00000000000E+00 0.  1.
</event>
<event>
 5    1  0.8778488E-005  0.9118800E+02  0.7818608E-02  0.1130116E+00
         25   -1    0    0    0    0  0.00000000000E+00  0.00000000000E+00  0.99999998245E-14  0.12500000000E+03  0.12500000000E+03 0.  0.
        -11    1    3    3    0    0 -0.34164195045E+02 -0.52591230686E+01 -0.12022748355E+02  0.36597774205E+02  0.51100000000E-03 0.  1.
         23    2    1    0    0    0  0.80655792018E+01 -0.13202156718E+01  0.28556762307E+02  0.95296713806E+02  0.90549315025E+02 0.  0.
         11    1    3    3    0    0  0.42229774247E+02  0.39389073968E+01  0.40579510662E+02  0.58698939601E+02  0.51100000000E-03 0. -1.
         22    1    1    0    0    0 -0.80655792018E+01  0.13202156718E+01 -0.28556762307E+02  0.29703286194E+02  0.00000000000E+00 0. -1.
</event>
<event>
 5    1  0.8778488E-005  0.9118800E+02  0.7818608E-02  0.1130116E+00
         25   -1    0    0    0    0  0.00000000000E+00  0.00000000000E+00  0.99999998245E-14  0.12500000000E+03  0.12500000000E+03 0.  0.
        -11    1    3    3    0    0  0.22015709394E+01  0.22729306802E+02 -0.15231214157E+02  0.27449192834E+02  0.51100000000E-03 0. -1.
         23    2    1    0    0    0  0.31371778029E+02 -0.23299538937E+02  0.50561049777E+01  0.85596685813E+02  0.75987969134E+02 0.  0.
         11    1    3    3    0    0  0.29170207090E+02 -0.46028845739E+02  0.20287319135E+02  0.58147492978E+02  0.51100000000E-03 0.  1.
         22    1    1    0    0    0 -0.31371778029E+02  0.23299538937E+02 -0.50561049777E+01  0.39403314187E+02  0.00000000000E+00 0.  1.
</event>
<event>
 5    1  0.8778488E-005  0.9118800E+02  0.7818608E-02  0.1130116E+00
         25   -1    0    0    0    0  0.00000000000E+00  0.00000000000E+00  0.99999998245E-14  0.12500000000E+03  0.12500000000E+03 0.  0.
        -11    1    3    3    0    0 -0.17153173209E+02 -0.45559073752E+01  0.30073930908E+02  0.34920323075E+02  0.51100000000E-03 0.  1.
         23    2    1    0    0    0  0.51678269450E+01  0.31606256494E+02 -0.80134006760E+01  0.91986722742E+02  0.85858492216E+02 0.  0.
         11    1    3    3    0    0  0.22321000154E+02  0.36162163869E+02 -0.38087331583E+02  0.57066399667E+02  0.51100000000E-03 0. -1.
         22    1    1    0    0    0 -0.51678269450E+01 -0.31606256494E+02  0.80134006760E+01  0.33013277258E+02  0.00000000000E+00 0. -1.
</event>
<event>
 5    1  0.8778488E-005  0.9118800E+02  0.7818608E-02  0.1130116E+00
         25   -1    0    0    0    0  0.00000000000E+00  0.00000000000E+00  0.99999998245E-14  0.12500000000E+03  0.12500000000E+03 0.  0.
        -11    1    3    3    0    0  0.79306579150E+01 -0.20586923876E+02 -0.58026942353E+02  0.62079326742E+02  0.51100000000E-03 0. -1.
         23    2    1    0    0    0 -0.10061377867E+01 -0.79880791951E+01 -0.28261268020E+02  0.95614272298E+02  0.90986636791E+02 0.  0.
         11    1    3    3    0    0 -0.89367957017E+01  0.12598844680E+02  0.29765674333E+02  0.33534945556E+02  0.51100000000E-03 0.  1.
         22    1    1    0    0    0  0.10061377867E+01  0.79880791951E+01  0.28261268020E+02  0.29385727702E+02  0.00000000000E+00 0. -1.
</event>
<event>
 5    1  0.8778488E-005  0.9118800E+02  0.7818608E-02  0.1130116E+00
         25   -1    0    0    0    0  0.00000000000E+00  0.00000000000E+00  0.99999998245E-14  0.12500000000E+03  0.12500000000E+03 0.  0.
        -11    1    3    3    0    0 -0.13622124201E+02 -0.21877086252E+02 -0.49012688623E+02  0.55375200379E+02  0.51100000000E-03 0. -1.
         23    2    1    0    0    0 -0.19619807520E+02 -0.19643022506E+02 -0.91209356197E+01  0.95777121174E+02  0.91210088771E+02 0.  0.
         11    1    3    3    0    0 -0.59976833183E+01  0.22340637460E+01  0.39891753004E+02  0.40401920796E+02  0.51100000000E-03 0.  1.
         22    1    1    0    0    0  0.19619807520E+02  0.19643022506E+02  0.91209356197E+01  0.29222878826E+02  0.00000000000E+00 0. -1.
</event>
<event>
 5    1  0.8778488E-005  0.9118800E+02  0.7818608E-02  0.1130116E+00
         25   -1    0    0    0    0  0.00000000000E+00  0.00000000000E+00  0.99999998245E-14  0.12500000000E+03  0.12500000000E+03 0.  0.
        -11    1    3    3    0    0  0.39998485406E+02  0.21704414312E+02 -0.29177020678E+02  0.54057922373E+02  0.51100000000E-03 0.  1.
         23    2    1    0    0    0  0.32375337874E+02  0.18460088139E+02  0.33101456346E+01  0.87584837022E+02  0.79190967007E+02 0.  0.
         11    1    3    3    0    0 -0.76231475321E+01 -0.32443261733E+01  0.32487166312E+02  0.33526914649E+02  0.51100000000E-03 0. -1.
         22    1    1    0    0    0 -0.32375337874E+02 -0.18460088139E+02 -0.33101456346E+01  0.37415162978E+02  0.00000000000E+00 0.  1.
</event>
<event>
 5    1  0.8778488E-005  0.9118800E+02  0.7818608E-02  0.1130116E+00
         25   -1    0    0    0    0  0.00000000000E+00  0.00000000000E+00  0.99999998245E-14  0.12500000000E+03  0.12500000000E+03 0.  0.
        -11    1    3    3    0    0  0.21892442814E+02  0.22330705537E+02 -0.23893288213E+02  0.39355160831E+02  0.51100000000E-03 0. -1.
         23    2    1    0    0    0 -0.25731003236E+02  0.12714008947E+02  0.49778868387E+01  0.95870806595E+02  0.91338390882E+02 0.  0.
         11    1    3    3    0    0 -0.47623446050E+02 -0.96166965904E+01  0.28871175052E+02  0.56515645764E+02  0.51100000000E-03 0.  1.
         22    1    1    0    0    0  0.25731003236E+02 -0.12714008947E+02 -0.49778868387E+01  0.29129193405E+02  0.00000000000E+00 0.  1.
</event>
<event>
 5    1  0.8778488E-005  0.9118800E+02  0.7818608E-02  0.1130116E+00
         25   -1    0    0    0    0  0.00000000000E+00  0.00000000000E+00  0.99999998245E-14  0.12500000000E+03  0.12500000000E+03 0.  0.
        -11    1    3    3    0    0  0.24515734706E+02 -0.18651572445E+02  0.13371645308E+02  0.33581293920E+02  0.51100000000E-03 0. -1.
         23    2    1    0    0    0 -0.16516748484E+02 -0.32088448301E+02 -0.15710653729E+02  0.85638900733E+02  0.76057380860E+02 0.  0.
         11    1    3    3    0    0 -0.41032483191E+02 -0.13436875857E+02 -0.29082299037E+02  0.52057606813E+02  0.51100000000E-03 0.  1.
         22    1    1    0    0    0  0.16516748484E+02  0.32088448301E+02  0.15710653729E+02  0.39361099267E+02  0.00000000000E+00 0.  1.
</event>
<event>
 5    1  0.8778488E-005  0.9118800E+02  0.7818608E-02  0.1130116E+00
         25   -1    0    0    0    0  0.00000000000E+00  0.00000000000E+00  0.99999998245E-14  0.12500000000E+03  0.12500000000E+03 0.  0.
        -11    1    3    3    0    0  0.19153138024E+02 -0.56331879444E+02  0.80278967877E+01  0.60038075127E+02  0.51100000000E-03 0. -1.
         23    2    1    0    0    0  0.58253672836E+01 -0.25735500998E+02 -0.84979249094E+01  0.97278787123E+02  0.93245357958E+02 0.  0.
         11    1    3    3    0    0 -0.13327770741E+02  0.30596378446E+02 -0.16525821697E+02  0.37240711996E+02  0.51100000000E-03 0.  1.
         22    1    1    0    0    0 -0.58253672836E+01  0.25735500998E+02  0.84979249094E+01  0.27721212877E+02  0.00000000000E+00 0. -1.
</event>
<event>
 5    1  0.8778488E-005  0.9118800E+02  0.7818608E-02  0.1130116E+00
         25   -1    0    0    0    0  0.00000000000E+00  0.00000000000E+00  0.99999998245E-14  0.12500000000E+03  0.12500000000E+03 0.  0.
        -11    1    3    3    0    0 -0.36299873283E+02  0.18532639893E+02  0.26912036210E+02  0.48840528610E+02  0.51100000000E-03 0.  1.
         23    2    1    0    0    0  0.30389660460E+01 -0.63957781187E+01  0.28692389849E+02  0.95446750981E+02  0.90756199486E+02 0.  0.
         11    1    3    3    0    0  0.39338839329E+02 -0.24928418011E+02  0.17803536388E+01  0.46606222370E+02  0.51100000000E-03 0. -1.
         22    1    1    0    0    0 -0.30389660460E+01  0.63957781187E+01 -0.28692389849E+02  0.29553249019E+02  0.00000000000E+00 0. -1.
</event>
<event>
 5    1  0.8778488E-005  0.9118800E+02  0.7818608E-02  0.1130116E+00
         25   -1    0    0    0    0  0.00000000000E+00  0.00000000000E+00  0.99999998245E-14  0.12500000000E+03  0.12500000000E+03 0.  0.
        -11    1    3    3    0    0  0.29867227645E+01  0.25033086519E+02  0.37911373693E+02  0.45528542576E+02  0.51100000000E-03 0.  1.
         23    2    1    0    0    0  0.50721664436E+01 -0.21827841546E+02  0.16929127510E+02  0.96914827804E+02  0.92756169342E+02 0.  0.
         11    1    3    3    0    0  0.20854436791E+01 -0.46860928065E+02 -0.20982246182E+02  0.51386285228E+02  0.51100000000E-03 0. -1.
         22    1    1    0    0    0 -0.50721664436E+01  0.21827841546E+02 -0.16929127510E+02  0.28085172196E+02  0.00000000000E+00 0.  1.
</event>
<event>
 5    1  0.8778488E-005  0.9118800E+02  0.7818608E-02  0.1130116E+00
         25   -1    0    0    0    0  0.00000000000E+00  0.00000000000E+00  0.99999998245E-14  0.12500000000E+03  0.12500000000E+03 0.  0.
        -11    1    3    3    0    0 -0.12230115473E+02 -0.37396789700E+02  0.19245670276E+02  0.43800587085E+02  0.51100000000E-03 0.  1.
         23    2    1    0    0    0  0.15485834387E+02  0.58678185761E+01  0.24477096591E+02  0.95447155484E+02  0.90756756613E+02 0.  0.
         11    1    3    3    0    0  0.27715949859E+02  0.43264608276E+02  0.52314263143E+01  0.51646568399E+02  0.51100000000E-03 0. -1.
         22    1    1    0    0    0 -0.15485834387E+02 -0.58678185761E+01 -0.24477096591E+02  0.29552844516E+02  0.00000000000E+00 0. -1.
</event>
<event>
 5    1  0.8778488E-005  0.9118800E+02  0.7818608E-02  0.1130116E+00
         25   -1    0    0    0    0  0.00000000000E+00  0.00000000000E+00  0.99999998245E-14  0.12500000000E+03  0.12500000000E+03 0.  0.
        -11    1    3    3    0    0  0.12369441974E+02  0.54894275291E+02  0.21639232611E+01  0.56312228854E+02  0.51100000000E-03 0.  1.
         23    2    1    0    0    0  0.58586599468E+01  0.20930975782E+02  0.20210975036E+02  0.95319818810E+02  0.90581205018E+02 0.  0.
         11    1    3    3    0    0 -0.65107820267E+01 -0.33963299509E+02  0.18047051775E+02  0.39007589956E+02  0.51100000000E-03 0. -1.
         22    1    1    0    0    0 -0.58586599468E+01 -0.20930975782E+02 -0.20210975036E+02  0.29680181190E+02  0.00000000000E+00 0.  1.
</event>
<event>
 5    1  0.8778488E-005  0.9118800E+02  0.7818608E-02  0.1130116E+00
         25   -1    0    0    0    0  0.00000000000E+00  0.00000000000E+00  0.99999998245E-14  0.12500000000E+03  0.12500000000E+03 0.  0.
        -11    1    3    3    0    0  0.20572676527E+02  0.39360885638E+02 -0.71998294764E+00  0.44418832869E+02  0.51100000000E-03 0. -1.
         23    2    1    0    0    0 -0.13285341818E+02  0.10549983649E+02 -0.24780140604E+02  0.94969052120E+02  0.90095854677E+02 0.  0.
         11    1    3    3    0    0 -0.33858018345E+02 -0.28810901989E+02 -0.24060157656E+02  0.50550219251E+02  0.51100000000E-03 0.  1.
         22    1    1    0    0    0  0.13285341818E+02 -0.10549983649E+02  0.24780140604E+02  0.30030947880E+02  0.00000000000E+00 0.  1.
</event>
<event>
 5    1  0.8778488E-005  0.9118800E+02  0.7818608E-02  0.1130116E+00
         25   -1    0    0    0    0  0.00000000000E+00  0.00000000000E+00  0.99999998245E-14  0.12500000000E+03  0.12500000000E+03 0.  0.
        -11    1    3    3    0    0 -0.46628488501E+01  0.52724388655E+02 -0.22321375174E+02  0.57444295699E+02  0.51100000000E-03 0.  1.
         23    2    1    0    0    0  0.71012370158E+01  0.16135386326E+02 -0.23168295252E+02  0.95887319534E+02  0.91360986660E+02 0.  0.
         11    1    3    3    0    0  0.11764085866E+02 -0.36589002329E+02 -0.84692007719E+00  0.38443023835E+02  0.51100000000E-03 0. -1.
         22    1    1    0    0    0 -0.71012370158E+01 -0.16135386326E+02  0.23168295252E+02  0.29112680466E+02  0.00000000000E+00 0.  1.
</event>
<event>
 5    1  0.8778488E-005  0.9118800E+02  0.7818608E-02  0.1130116E+00
         25   -1    0    0    0    0  0.00000000000E+00  0.00000000000E+00  0.99999998245E-14  0.12500000000E+03  0.12500000000E+03 0.  0.
        -11    1    3    3    0    0 -0.10990446111E+02 -0.35455225101E+02  0.35569912757E+02  0.51410909216E+02  0.51100000000E-03 0. -1.
         23    2    1    0    0    0 -0.12652168472E+02  0.95734656349E+01  0.20821399571E+02  0.98822542304E+02  0.95292368929E+02 0.  0.
         11    1    3    3    0    0 -0.16617223616E+01  0.45028690736E+02 -0.14748513186E+02  0.47411633088E+02  0.51100000000E-03 0.  1.
         22    1    1    0    0    0  0.12652168472E+02 -0.95734656349E+01 -0.20821399571E+02  0.26177457696E+02  0.00000000000E+00 0.  1.
</event>
<event>
 5    1  0.8778488E-005  0.9118800E+02  0.7818608E-02  0.1130116E+00
         25   -1    0    0    0    0  0.00000000000E+00  0.00000000000E+00  0.99999998245E-14  0.12500000000E+03  0.12500000000E+03 0.  0.
        -11    1    3    3    0    0 -0.17722029701E+02  0.26571297934E+02 -0.36410814384E+02  0.48433992351E+02  0.51100000000E-03 0. -1.
         23    2    1    0    0    0  0.18523512235E+02 -0.11967960838E+01 -0.21785932781E+02  0.96378684630E+02  0.92030816347E+02 0.  0.
         11    1    3    3    0    0  0.36245541936E+02 -0.27768094017E+02  0.14624881603E+02  0.47944692279E+02  0.51100000000E-03 0.  1.
         22    1    1    0    0    0 -0.18523512235E+02  0.11967960838E+01  0.21785932781E+02  0.28621315370E+02  0.00000000000E+00 0.  1.
</event>
<event>
 5    1  0.8778488E-005  0.9118800E+02  0.7818608E-02  0.1130116E+00
         25   -1    0    0    0    0  0.00000000000E+00  0.00000000000E+00  0.99999998245E-14  0.12500000000E+03  0.12500000000E+03 0.  0.
        -11    1    3    3    0    0  0.15830276003E+02 -0.39466842174E+02  0.34199845283E+02  0.54569759823E+02  0.51100000000E-03 0.  1.
         23    2    1    0    0    0 -0.14834957268E+01 -0.29721640295E+02 -0.12583142569E+01  0.95214768489E+02  0.90436121778E+02 0.  0.
         11    1    3    3    0    0 -0.17313771729E+02  0.97452018790E+01 -0.35458159540E+02  0.40645008665E+02  0.51100000000E-03 0. -1.
         22    1    1    0    0    0  0.14834957268E+01  0.29721640295E+02  0.12583142569E+01  0.29785231511E+02  0.00000000000E+00 0.  1.
</event>
<event>
 5    1  0.8778488E-005  0.9118800E+02  0.7818608E-02  0.1130116E+00
         25   -1    0    0    0    0  0.00000000000E+00  0.00000000000E+00  0.99999998245E-14  0.12500000000E+03  0.12500000000E+03 0.  0.
        -11    1    3    3    0    0  0.65246503903E+01 -0.42661742121E+02 -0.14951350812E+02  0.45674261843E+02  0.51100000000E-03 0.  1.
         23    2    1    0    0    0  0.23745868782E+02  0.59253661585E+01 -0.13063878579E+02  0.97257592537E+02  0.93216941241E+02 0.  0.
         11    1    3    3    0    0  0.17221218391E+02  0.48587108280E+02  0.18874722326E+01  0.51583330694E+02  0.51100000000E-03 0. -1.
         22    1    1    0    0    0 -0.23745868782E+02 -0.59253661585E+01  0.13063878579E+02  0.27742407463E+02  0.00000000000E+00 0. -1.
</event>
<event>
 5    1  0.8778488E-005  0.9118800E+02  0.7818608E-02  0.1130116E+00
         25   -1    0    0    0    0  0.00000000000E+00  0.00000000000E+00  0.99999998245E-14  0.12500000000E+03  0.12500000000E+03 0.  0.
        -11    1    3    3    0    0  0.22134537666E+02 -0.45026041113E+02  0.34376945640E+02  0.60819869515E+02  0.51100000000E-03 0.  1.
         23    2    1    0    0    0  0.18524478321E+02 -0.22576941631E+02  0.10058251908E+02  0.94112413142E+02  0.88899399804E+02 0.  0.
         11    1    3    3    0    0 -0.36100593456E+01  0.22449099482E+02 -0.24318693732E+02  0.33292543627E+02  0.51100000000E-03 0. -1.
         22    1    1    0    0    0 -0.18524478321E+02  0.22576941631E+02 -0.10058251908E+02  0.30887586858E+02  0.00000000000E+00 0.  1.
</event>
<event>
 5    1  0.8778488E-005  0.9118800E+02  0.7818608E-02  0.1130116E+00
         25   -1    0    0    0    0  0.00000000000E+00  0.00000000000E+00  0.99999998245E-14  0.12500000000E+03  0.12500000000E+03 0.  0.
        -11    1    3    3    0    0 -0.14042254547E+02 -0.90711094730E+01  0.36958758970E+02  0.40563774537E+02  0.51100000000E-03 0. -1.
         23    2    1    0    0    0  0.28338124689E+02  0.96548730658E+00  0.17088708915E+01  0.96593984504E+02  0.92322782269E+02 0.  0.
         11    1    3    3    0    0  0.42380379237E+02  0.10036596780E+02 -0.35249888078E+02  0.56030209967E+02  0.51100000000E-03 0.  1.
         22    1    1    0    0    0 -0.28338124689E+02 -0.96548730658E+00 -0.17088708915E+01  0.28406015496E+02  0.00000000000E+00 0.  1.
</event>
<event>
 5    1  0.8778488E-005  0.9118800E+02  0.7818608E-02  0.1130116E+00
         25   -1    0    0    0    0  0.00000000000E+00  0.00000000000E+00  0.99999998245E-14  0.12500000000E+03  0.12500000000E+03 0.  0.
        -11    1    3    3    0    0  0.12989265210E+02 -0.17895871758E+02  0.34250645294E+02  0.40768737287E+02  0.51100000000E-03 0.  1.
         23    2    1    0    0    0 -0.28558641874E+02 -0.97321865559E+00  0.13666737514E+01  0.96392116866E+02  0.92049058749E+02 0.  0.
         11    1    3    3    0    0 -0.41547907084E+02  0.16922653103E+02 -0.32883971543E+02  0.55623379579E+02  0.51100000000E-03 0. -1.
         22    1    1    0    0    0  0.28558641874E+02  0.97321865559E+00 -0.13666737514E+01  0.28607883134E+02  0.00000000000E+00 0. -1.
</event>
<event>
 5    1  0.8778488E-005  0.9118800E+02  0.7818608E-02  0.1130116E+00
         25   -1    0    0    0    0  0.00000000000E+00  0.00000000000E+00  0.99999998245E-14  0.12500000000E+03  0.12500000000E+03 0.  0.
        -11    1    3    3    0    0  0.75145422686E+01 -0.15238018108E+02  0.28034081748E+02  0.32780715079E+02  0.51100000000E-03 0. -1.
         23    2    1    0    0    0 -0.27064883850E+02 -0.21884648574E+01 -0.18453049474E+02  0.92169947439E+02  0.86124833002E+02 0.  0.
         11    1    3    3    0    0 -0.34579426119E+02  0.13049553251E+02 -0.46487131222E+02  0.59389232360E+02  0.51100000000E-03 0.  1.
         22    1    1    0    0    0  0.27064883850E+02  0.21884648574E+01  0.18453049474E+02  0.32830052561E+02  0.00000000000E+00 0.  1.
</event>
<event>
 5    1  0.8778488E-005  0.9118800E+02  0.7818608E-02  0.1130116E+00
         25   -1    0    0    0    0  0.00000000000E+00  0.00000000000E+00  0.99999998245E-14  0.12500000000E+03  0.12500000000E+03 0.  0.
        -11    1    3    3    0    0  0.36553057195E+02  0.11519217017E+02 -0.48679207359E+02  0.61955496772E+02  0.51100000000E-03 0.  1.
         23    2    1    0    0    0  0.18152264436E+02 -0.34970549964E+00 -0.22752027678E+02  0.95891895260E+02  0.91367246949E+02 0.  0.
         11    1    3    3    0    0 -0.18400792759E+02 -0.11868922516E+02  0.25927179681E+02  0.33936398488E+02  0.51100000000E-03 0. -1.
         22    1    1    0    0    0 -0.18152264436E+02  0.34970549964E+00  0.22752027678E+02  0.29108104740E+02  0.00000000000E+00 0.  1.
</event>
<event>
 5    1  0.8778488E-005  0.9118800E+02  0.7818608E-02  0.1130116E+00
         25   -1    0    0    0    0  0.00000000000E+00  0.00000000000E+00  0.99999998245E-14  0.12500000000E+03  0.12500000000E+03 0.  0.
        -11    1    3    3    0    0  0.49610055853E+02 -0.19315751202E+02 -0.31120918491E+02  0.61666582962E+02  0.51100000000E-03 0.  1.
         23    2    1    0    0    0  0.20678386691E+02 -0.15704560298E+02 -0.13491354470E+02  0.95738326505E+02  0.91156906630E+02 0.  0.
         11    1    3    3    0    0 -0.28931669162E+02  0.36111909039E+01  0.17629564021E+02  0.34071743543E+02  0.51100000000E-03 0. -1.
         22    1    1    0    0    0 -0.20678386691E+02  0.15704560298E+02  0.13491354470E+02  0.29261673495E+02  0.00000000000E+00 0.  1.
</event>
<event>
 5    1  0.8778488E-005  0.9118800E+02  0.7818608E-02  0.1130116E+00
         25   -1    0    0    0    0  0.00000000000E+00  0.00000000000E+00  0.99999998245E-14  0.12500000000E+03  0.12500000000E+03 0.  0.
        -11    1    3    3    0    0  0.17501231731E+02  0.96928880164E+01 -0.31319671649E+02  0.37164055519E+02  0.51100000000E-03 0. -1.
         23    2    1    0    0    0  0.93004574638E+01 -0.51225278576E+01  0.25990863502E+02  0.96923964200E+02  0.92768480908E+02 0.  0.
         11    1    3    3    0    0 -0.82007742670E+01 -0.14815415874E+02  0.57310535150E+02  0.59759908681E+02  0.51100000000E-03 0.  1.
         22    1    1    0    0    0 -0.93004574638E+01  0.51225278576E+01 -0.25990863502E+02  0.28076035800E+02  0.00000000000E+00 0.  1.
</event>
<event>
 5    1  0.8778488E-005  0.9118800E+02  0.7818608E-02  0.1130116E+00
         25   -1    0    0    0    0  0.00000000000E+00  0.00000000000E+00  0.99999998245E-14  0.12500000000E+03  0.12500000000E+03 0.  0.
        -11    1    3    3    0    0 -0.26154976534E+02  0.13418655971E+02  0.10809235269E+02  0.31320643239E+02  0.51100000000E-03 0.  1.
         23    2    1    0    0    0  0.25459999145E+02 -0.16491937337E+02 -0.75551491818E+01  0.93738588759E+02  0.88372208243E+02 0.  0.
         11    1    3    3    0    0  0.51614975679E+02 -0.29910593308E+02 -0.18364384451E+02  0.62417945520E+02  0.51100000000E-03 0. -1.
         22    1    1    0    0    0 -0.25459999145E+02  0.16491937337E+02  0.75551491818E+01  0.31261411241E+02  0.00000000000E+00 0. -1.
</event>
<event>
 5    1  0.8778488E-005  0.9118800E+02  0.7818608E-02  0.1130116E+00
         25   -1    0    0    0    0  0.00000000000E+00  0.00000000000E+00  0.99999998245E-14  0.12500000000E+03  0.12500000000E+03 0.  0.
        -11    1    3    3    0    0  0.71936994578E+01  0.12572341179E+02 -0.33980557254E+02  0.36939021998E+02  0.51100000000E-03 0.  1.
         23    2    1    0    0    0 -0.22575593515E+02  0.48540042309E+01  0.16895276681E+02  0.96387604893E+02  0.92042931414E+02 0.  0.
         11    1    3    3    0    0 -0.29769292972E+02 -0.77183369478E+01  0.50875833936E+02  0.59448582895E+02  0.51100000000E-03 0. -1.
         22    1    1    0    0    0  0.22575593515E+02 -0.48540042309E+01 -0.16895276681E+02  0.28612395107E+02  0.00000000000E+00 0. -1.
</event>
<event>
 5    1  0.8778488E-005  0.9118800E+02  0.7818608E-02  0.1130116E+00
         25   -1    0    0    0    0  0.00000000000E+00  0.00000000000E+00  0.99999998245E-14  0.12500000000E+03  0.12500000000E+03 0.  0.
        -11    1    3    3    0    0  0.11362463996E+02  0.32622465049E+02  0.62357417994E+01  0.35102924237E+02  0.51100000000E-03 0. -1.
         23    2    1    0    0    0 -0.10678919660E+02 -0.23143075072E+02  0.14567807157E+02  0.95642509402E+02  0.91025421451E+02 0.  0.
         11    1    3    3    0    0 -0.22041383656E+02 -0.55765540121E+02  0.83320653575E+01  0.60539585164E+02  0.51100000000E-03 0.  1.
         22    1    1    0    0    0  0.10678919660E+02  0.23143075072E+02 -0.14567807157E+02  0.29357490598E+02  0.00000000000E+00 0.  1.
</event>
<event>
 5    1  0.8778488E-005  0.9118800E+02  0.7818608E-02  0.1130116E+00
         25   -1    0    0    0    0  0.00000000000E+00  0.00000000000E+00  0.99999998245E-14  0.12500000000E+03  0.12500000000E+03 0.  0.
        -11    1    3    3    0    0  0.52482700042E+01  0.17767381223E+02 -0.40562393005E+02  0.44592957965E+02  0.51100000000E-03 0. -1.
         23    2    1    0    0    0 -0.18329862141E+02 -0.17897198472E+02 -0.85883571000E+01  0.97980498951E+02  0.94181339647E+02 0.  0.
         11    1    3    3    0    0 -0.23578132145E+02 -0.35664579695E+02  0.31974035905E+02  0.53387540986E+02  0.51100000000E-03 0.  1.
         22    1    1    0    0    0  0.18329862141E+02  0.17897198472E+02  0.85883571000E+01  0.27019501049E+02  0.00000000000E+00 0.  1.
</event>
<event>
 5    1  0.8778488E-005  0.9118800E+02  0.7818608E-02  0.1130116E+00
         25   -1    0    0    0    0  0.00000000000E+00  0.00000000000E+00  0.99999998245E-14  0.12500000000E+03  0.12500000000E+03 0.  0.
        -11    1    3    3    0    0  0.40501252735E+02  0.20581947420E+02  0.11761328568E+02  0.46928636062E+02  0.51100000000E-03 0.  1.
         23    2    1    0    0    0  0.17365487192E+02  0.36688216718E+00 -0.24823758705E+02  0.94702908652E+02  0.89725844454E+02 0.  0.
         11    1    3    3    0    0 -0.23135765543E+02 -0.20215065253E+02 -0.36585087273E+02  0.47774272590E+02  0.51100000000E-03 0. -1.
         22    1    1    0    0    0 -0.17365487192E+02 -0.36688216718E+00  0.24823758705E+02  0.30297091348E+02  0.00000000000E+00 0. -1.
</event>
<event>
 5    1  0.8778488E-005  0.9118800E+02  0.7818608E-02  0.1130116E+00
         25   -1    0    0    0    0  0.00000000000E+00  0.00000000000E+00  0.99999998245E-14  0.12500000000E+03  0.12500000000E+03 0.  0.
        -11    1    3    3    0    0  0.10992766559E+02 -0.93165487122E+01 -0.46004251179E+02  0.48208195604E+02  0.51100000000E-03 0.  1.
         23    2    1    0    0    0  0.14692903705E+02  0.23455204957E+02 -0.14783604008E+02  0.93621934312E+02  0.88207049480E+02 0.  0.
         11    1    3    3    0    0  0.37001371459E+01  0.32771753669E+02  0.31220647171E+02  0.45413738708E+02  0.51100000000E-03 0. -1.
         22    1    1    0    0    0 -0.14692903705E+02 -0.23455204957E+02  0.14783604008E+02  0.31378065688E+02  0.00000000000E+00 0.  1.
</event>
<event>
 5    1  0.8778488E-005  0.9118800E+02  0.7818608E-02  0.1130116E+00
         25   -1    0    0    0    0  0.00000000000E+00  0.00000000000E+00  0.99999998245E-14  0.12500000000E+03  0.12500000000E+03 0.  0.
        -11    1    3    3    0    0 -0.16787157907E+02  0.29060232055E+02 -0.13576542699E+02  0.36202600315E+02  0.51100000000E-03 0.  1.
         23    2    1    0    0    0  0.29813741114E+02 -0.45575628062E+01 -0.23659570120E+01  0.94747259785E+02  0.89787610205E+02 0.  0.
         11    1    3    3    0    0  0.46600899020E+02 -0.33617794861E+02  0.11210585687E+02  0.58544659470E+02  0.51100000000E-03 0. -1.
         22    1    1    0    0    0 -0.29813741114E+02  0.45575628062E+01  0.23659570120E+01  0.30252740215E+02  0.00000000000E+00 0. -1.
</event>
<event>
 5    1  0.8778488E-005  0.9118800E+02  0.7818608E-02  0.1130116E+00
         25   -1    0    0    0    0  0.00000000000E+00  0.00000000000E+00  0.99999998245E-14  0.12500000000E+03  0.12500000000E+03 0.  0.
        -11    1    3    3    0    0 -0.32374579213E+02 -0.87266225084E+01 -0.31657776513E+02  0.46113795481E+02  0.51100000000E-03 0.  1.
         23    2    1    0    0    0 -0.53967854811E+01 -0.34009516354E+02 -0.92618663471E+01  0.89341134842E+02  0.81916321392E+02 0.  0.
         11    1    3    3    0    0  0.26977793732E+02 -0.25282893845E+02  0.22395910166E+02  0.43227339361E+02  0.51100000000E-03 0. -1.
         22    1    1    0    0    0  0.53967854811E+01  0.34009516354E+02  0.92618663471E+01  0.35658865158E+02  0.00000000000E+00 0. -1.
</event>
<event>
 5    1  0.8778488E-005  0.9118800E+02  0.7818608E-02  0.1130116E+00
         25   -1    0    0    0    0  0.00000000000E+00  0.00000000000E+00  0.99999998245E-14  0.12500000000E+03  0.12500000000E+03 0.  0.
        -11    1    3    3    0    0 -0.43102952627E+01  0.29077217983E+02  0.36899176047E+02  0.47176397107E+02  0.51100000000E-03 0.  1.
         23    2    1    0    0    0  0.24827553819E+00 -0.18634288502E+02  0.19130305523E+02  0.98292942166E+02  0.94595113730E+02 0.  0.
         11    1    3    3    0    0  0.45585708009E+01 -0.47711506485E+02 -0.17768870523E+02  0.51116545059E+02  0.51100000000E-03 0. -1.
         22    1    1    0    0    0 -0.24827553819E+00  0.18634288502E+02 -0.19130305523E+02  0.26707057834E+02  0.00000000000E+00 0. -1.
</event>
<event>
 5    1  0.8778488E-005  0.9118800E+02  0.7818608E-02  0.1130116E+00
         25   -1    0    0    0    0  0.00000000000E+00  0.00000000000E+00  0.99999998245E-14  0.12500000000E+03  0.12500000000E+03 0.  0.
        -11    1    3    3    0    0 -0.18210310844E+02 -0.13071681330E+02  0.26145419320E+02  0.34439326729E+02  0.51100000000E-03 0. -1.
         23    2    1    0    0    0  0.24400286697E+02 -0.18358405900E+01 -0.16280038386E+02  0.95609798378E+02  0.90980490186E+02 0.  0.
         11    1    3    3    0    0  0.42610597541E+02  0.11235840740E+02 -0.42425457706E+02  0.61170471649E+02  0.51100000000E-03 0.  1.
         22    1    1    0    0    0 -0.24400286697E+02  0.18358405900E+01  0.16280038386E+02  0.29390201622E+02  0.00000000000E+00 0.  1.
</event>
<event>
 5    1  0.8778488E-005  0.9118800E+02  0.7818608E-02  0.1130116E+00
         25   -1    0    0    0    0  0.00000000000E+00  0.00000000000E+00  0.99999998245E-14  0.12500000000E+03  0.12500000000E+03 0.  0.
        -11    1    3    3    0    0  0.12229154020E+02 -0.45782782300E+02 -0.64329849772E+01  0.47822574786E+02  0.51100000000E-03 0.  1.
         23    2    1    0    0    0 -0.22791900447E+02 -0.14661631114E+02 -0.12665199155E+02  0.95086099844E+02  0.90258101913E+02 0.  0.
         11    1    3    3    0    0 -0.35021054467E+02  0.31121151186E+02 -0.62322141776E+01  0.47263525058E+02  0.51100000000E-03 0. -1.
         22    1    1    0    0    0  0.22791900447E+02  0.14661631114E+02  0.12665199155E+02  0.29913900156E+02  0.00000000000E+00 0.  1.
</event>
<event>
 5    1  0.8778488E-005  0.9118800E+02  0.7818608E-02  0.1130116E+00
         25   -1    0    0    0    0  0.00000000000E+00  0.00000000000E+00  0.99999998245E-14  0.12500000000E+03  0.12500000000E+03 0.  0.
        -11    1    3    3    0    0  0.28476363084E+02 -0.21721994547E+02  0.53674378803E+01  0.36215434434E+02  0.51100000000E-03 0.  1.
         23    2    1    0    0    0 -0.30561252766E+00  0.29135914974E+02 -0.46148655419E+01  0.95499289427E+02  0.90828532723E+02 0.  0.
         11    1    3    3    0    0 -0.28781975611E+02  0.50857909521E+02 -0.99823034221E+01  0.59283854993E+02  0.51100000000E-03 0. -1.
         22    1    1    0    0    0  0.30561252766E+00 -0.29135914974E+02  0.46148655419E+01  0.29500710573E+02  0.00000000000E+00 0. -1.
</event>
<event>
 5    1  0.8778488E-005  0.9118800E+02  0.7818608E-02  0.1130116E+00
         25   -1    0    0    0    0  0.00000000000E+00  0.00000000000E+00  0.99999998245E-14  0.12500000000E+03  0.12500000000E+03 0.  0.
        -11    1    3    3    0    0 -0.98529728896E+01  0.65978782287E+01 -0.37976843798E+02  0.39785094407E+02  0.51100000000E-03 0.  1.
         23    2    1    0    0    0 -0.22823360777E+02 -0.23735695958E+02  0.24688090145E+01  0.91979035785E+02  0.85847300169E+02 0.  0.
         11    1    3    3    0    0 -0.12970387887E+02 -0.30333574186E+02  0.40445652812E+02  0.52193941378E+02  0.51100000000E-03 0. -1.
         22    1    1    0    0    0  0.22823360777E+02  0.23735695958E+02 -0.24688090145E+01  0.33020964215E+02  0.00000000000E+00 0. -1.
</event>
<event>
 5    1  0.8778488E-005  0.9118800E+02  0.7818608E-02  0.1130116E+00
         25   -1    0    0    0    0  0.00000000000E+00  0.00000000000E+00  0.99999998245E-14  0.12500000000E+03  0.12500000000E+03 0.  0.
        -11    1    3    3    0    0  0.34595369787E+02  0.36266213094E+02 -0.25216801891E+02  0.56106727945E+02  0.51100000000E-03 0. -1.
         23    2    1    0    0    0  0.17411957280E+02  0.16250949179E+01 -0.24646435353E+02  0.94779742466E+02  0.89832820374E+02 0.  0.
         11    1    3    3    0    0 -0.17183412507E+02 -0.34641118176E+02  0.57036653752E+00  0.38673014521E+02  0.51100000000E-03 0.  1.
         22    1    1    0    0    0 -0.17411957280E+02 -0.16250949179E+01  0.24646435353E+02  0.30220257534E+02  0.00000000000E+00 0. -1.
</event>
<event>
 5    1  0.8778488E-005  0.9118800E+02  0.7818608E-02  0.1130116E+00
         25   -1    0    0    0    0  0.00000000000E+00  0.00000000000E+00  0.99999998245E-14  0.12500000000E+03  0.12500000000E+03 0.  0.
        -11    1    3    3    0    0 -0.17469199790E+01  0.35699663252E+02  0.83761372456E+01  0.36710725423E+02  0.51100000000E-03 0. -1.
         23    2    1    0    0    0 -0.20520588293E+02  0.34853608693E+02 -0.26722367173E+02  0.76523681141E+02  0.59210812232E+02 0.  0.
         11    1    3    3    0    0 -0.18773668314E+02 -0.84605455829E+00 -0.35098504418E+02  0.39812955717E+02  0.51100000000E-03 0.  1.
         22    1    1    0    0    0  0.20520588293E+02 -0.34853608693E+02  0.26722367173E+02  0.48476318859E+02  0.00000000000E+00 0.  1.
</event>
<event>
 5    1  0.8778488E-005  0.9118800E+02  0.7818608E-02  0.1130116E+00
         25   -1    0    0    0    0  0.00000000000E+00  0.00000000000E+00  0.99999998245E-14  0.12500000000E+03  0.12500000000E+03 0.  0.
        -11    1    3    3    0    0  0.20607661012E+01  0.19855481911E+02  0.54978071307E+02  0.58489958486E+02  0.51100000000E-03 0.  1.
         23    2    1    0    0    0  0.26548511562E+01 -0.65024973140E+01  0.27687283198E+02  0.96435750371E+02  0.92108292747E+02 0.  0.
         11    1    3    3    0    0  0.59408505506E+00 -0.26357979225E+02 -0.27290788109E+02  0.37945791885E+02  0.51100000000E-03 0. -1.
         22    1    1    0    0    0 -0.26548511562E+01  0.65024973140E+01 -0.27687283198E+02  0.28564249629E+02  0.00000000000E+00 0.  1.
</event>
<event>
 5    1  0.8778488E-005  0.9118800E+02  0.7818608E-02  0.1130116E+00
         25   -1    0    0    0    0  0.00000000000E+00  0.00000000000E+00  0.99999998245E-14  0.12500000000E+03  0.12500000000E+03 0.  0.
        -11    1    3    3    0    0 -0.40523845229E+02  0.80788932609E+01  0.20009470642E+01  0.41369727312E+02  0.51100000000E-03 0.  1.
         23    2    1    0    0    0 -0.97848533471E+00 -0.21541946756E+02 -0.20122508078E+02  0.95505454149E+02  0.90837016339E+02 0.  0.
         11    1    3    3    0    0  0.39545359894E+02 -0.29620840017E+02 -0.22123455142E+02  0.54135726837E+02  0.51100000000E-03 0. -1.
         22    1    1    0    0    0  0.97848533471E+00  0.21541946756E+02  0.20122508078E+02  0.29494545851E+02  0.00000000000E+00 0. -1.
</event>
<event>
 5    1  0.8778488E-005  0.9118800E+02  0.7818608E-02  0.1130116E+00
         25   -1    0    0    0    0  0.00000000000E+00  0.00000000000E+00  0.99999998245E-14  0.12500000000E+03  0.12500000000E+03 0.  0.
        -11    1    3    3    0    0  0.36232600281E+02 -0.41766641203E+02 -0.14490826352E+02  0.57159755852E+02  0.51100000000E-03 0. -1.
         23    2    1    0    0    0  0.82618042591E-01 -0.27357444289E+02 -0.57906839813E+01  0.97036298444E+02  0.92919721324E+02 0.  0.
         11    1    3    3    0    0 -0.36149982238E+02  0.14409196914E+02  0.87001423712E+01  0.39876542592E+02  0.51100000000E-03 0.  1.
         22    1    1    0    0    0 -0.82618042591E-01  0.27357444289E+02  0.57906839813E+01  0.27963701556E+02  0.00000000000E+00 0. -1.
</event>
<event>
 5    1  0.8778488E-005  0.9118800E+02  0.7818608E-02  0.1130116E+00
         25   -1    0    0    0    0  0.00000000000E+00  0.00000000000E+00  0.99999998245E-14  0.12500000000E+03  0.12500000000E+03 0.  0.
        -11    1    3    3    0    0  0.41337365906E+01  0.29199690434E+02 -0.18807031377E+02  0.34977337365E+02  0.51100000000E-03 0. -1.
         23    2    1    0    0    0 -0.17169964177E+02 -0.22979519087E+02  0.44936137575E+01  0.95964529762E+02  0.91466564605E+02 0.  0.
         11    1    3    3    0    0 -0.21303700768E+02 -0.52179209521E+02  0.23300645134E+02  0.60987192398E+02  0.51100000000E-03 0.  1.
         22    1    1    0    0    0  0.17169964177E+02  0.22979519087E+02 -0.44936137575E+01  0.29035470238E+02  0.00000000000E+00 0.  1.
</event>
<event>
 5    1  0.8778488E-005  0.9118800E+02  0.7818608E-02  0.1130116E+00
         25   -1    0    0    0    0  0.00000000000E+00  0.00000000000E+00  0.99999998245E-14  0.12500000000E+03  0.12500000000E+03 0.  0.
        -11    1    3    3    0    0  0.60362924311E+01 -0.14022764190E+02  0.43678819135E+02  0.46270011705E+02  0.51100000000E-03 0.  1.
         23    2    1    0    0    0  0.21529242443E+02 -0.22408612601E+02 -0.59425029469E+00  0.93919341508E+02  0.88627509143E+02 0.  0.
         11    1    3    3    0    0  0.15492950012E+02 -0.83858484119E+01 -0.44273069430E+02  0.47649329803E+02  0.51100000000E-03 0. -1.
         22    1    1    0    0    0 -0.21529242443E+02  0.22408612601E+02  0.59425029469E+00  0.31080658492E+02  0.00000000000E+00 0. -1.
</event>
<event>
 5    1  0.8778488E-005  0.9118800E+02  0.7818608E-02  0.1130116E+00
         25   -1    0    0    0    0  0.00000000000E+00  0.00000000000E+00  0.99999998245E-14  0.12500000000E+03  0.12500000000E+03 0.  0.
        -11    1    3    3    0    0  0.42269039747E+02  0.13515916255E+01  0.33763196601E+02  0.54115173159E+02  0.51100000000E-03 0.  1.
         23    2    1    0    0    0  0.20644966910E+01  0.64335031782E+01  0.29353580660E+02  0.94878831243E+02  0.89970594145E+02 0.  0.
         11    1    3    3    0    0 -0.40204543056E+02  0.50819115526E+01 -0.44096159409E+01  0.40763658084E+02  0.51100000000E-03 0. -1.
         22    1    1    0    0    0 -0.20644966910E+01 -0.64335031782E+01 -0.29353580660E+02  0.30121168757E+02  0.00000000000E+00 0.  1.
</event>
<event>
 5    1  0.8778488E-005  0.9118800E+02  0.7818608E-02  0.1130116E+00
         25   -1    0    0    0    0  0.00000000000E+00  0.00000000000E+00  0.99999998245E-14  0.12500000000E+03  0.12500000000E+03 0.  0.
        -11    1    3    3    0    0  0.11126687489E+02 -0.19969332915E+02 -0.25623284420E+02  0.34338464384E+02  0.51100000000E-03 0. -1.
         23    2    1    0    0    0 -0.21156263890E+02  0.59654497543E+01  0.19523389256E+02  0.95600394210E+02  0.90967568685E+02 0.  0.
         11    1    3    3    0    0 -0.32282951379E+02  0.25934782669E+02  0.45146673675E+02  0.61261929826E+02  0.51100000000E-03 0.  1.
         22    1    1    0    0    0  0.21156263890E+02 -0.59654497543E+01 -0.19523389256E+02  0.29399605790E+02  0.00000000000E+00 0.  1.
</event>
<event>
 5    1  0.8778488E-005  0.9118800E+02  0.7818608E-02  0.1130116E+00
         25   -1    0    0    0    0  0.00000000000E+00  0.00000000000E+00  0.99999998245E-14  0.12500000000E+03  0.12500000000E+03 0.  0.
        -11    1    3    3    0    0  0.43178806032E+00  0.53278760310E+02  0.29204028443E+02  0.60759262822E+02  0.51100000000E-03 0.  1.
         23    2    1    0    0    0 -0.32254286667E+01  0.18834327417E+02  0.21484870084E+02  0.96247001516E+02  0.91851784843E+02 0.  0.
         11    1    3    3    0    0 -0.36572167270E+01 -0.34444432893E+02 -0.77191583593E+01  0.35487738694E+02  0.51100000000E-03 0. -1.
         22    1    1    0    0    0  0.32254286667E+01 -0.18834327417E+02 -0.21484870084E+02  0.28752998484E+02  0.00000000000E+00 0.  1.
</event>
<event>
 5    1  0.8778488E-005  0.9118800E+02  0.7818608E-02  0.1130116E+00
         25   -1    0    0    0    0  0.00000000000E+00  0.00000000000E+00  0.99999998245E-14  0.12500000000E+03  0.12500000000E+03 0.  0.
        -11    1    3    3    0    0  0.34907046244E+02  0.15097717958E+02 -0.46344371531E+02  0.59952011958E+02  0.51100000000E-03 0. -1.
         23    2    1    0    0    0  0.25236517498E+02  0.47083418274E+01 -0.12930621870E+02  0.96255413029E+02  0.91863231258E+02 0.  0.
         11    1    3    3    0    0 -0.96705287452E+01 -0.10389376131E+02  0.33413749661E+02  0.36303401070E+02  0.51100000000E-03 0.  1.
         22    1    1    0    0    0 -0.25236517498E+02 -0.47083418274E+01  0.12930621870E+02  0.28744586971E+02  0.00000000000E+00 0. -1.
</event>
<event>
 5    1  0.8778488E-005  0.9118800E+02  0.7818608E-02  0.1130116E+00
         25   -1    0    0    0    0  0.00000000000E+00  0.00000000000E+00  0.99999998245E-14  0.12500000000E+03  0.12500000000E+03 0.  0.
        -11    1    3    3    0    0  0.52844020815E+02 -0.18083616096E+02 -0.14042914660E+02  0.57590894761E+02  0.51100000000E-03 0.  1.
         23    2    1    0    0    0  0.24617532678E+02 -0.12078519312E+02  0.10661635698E+02  0.95579190703E+02  0.90938427937E+02 0.  0.
         11    1    3    3    0    0 -0.28226488137E+02  0.60050967836E+01  0.24704550358E+02  0.37988295942E+02  0.51100000000E-03 0. -1.
         22    1    1    0    0    0 -0.24617532678E+02  0.12078519312E+02 -0.10661635698E+02  0.29420809297E+02  0.00000000000E+00 0.  1.
</event>
<event>
 5    1  0.8778488E-005  0.9118800E+02  0.7818608E-02  0.1130116E+00
         25   -1    0    0    0    0  0.00000000000E+00  0.00000000000E+00  0.99999998245E-14  0.12500000000E+03  0.12500000000E+03 0.  0.
        -11    1    3    3    0    0  0.11115459686E+02 -0.12236088681E+02  0.54119104611E+02  0.56587567490E+02  0.51100000000E-03 0. -1.
         23    2    1    0    0    0  0.21703689119E+02  0.29103518871E+01  0.20231713242E+02  0.95186538440E+02  0.90397094035E+02 0.  0.
         11    1    3    3    0    0  0.10588229433E+02  0.15146440568E+02 -0.33887391369E+02  0.38598970950E+02  0.51100000000E-03 0.  1.
         22    1    1    0    0    0 -0.21703689119E+02 -0.29103518871E+01 -0.20231713242E+02  0.29813461560E+02  0.00000000000E+00 0. -1.
</event>
<event>
 5    1  0.8778488E-005  0.9118800E+02  0.7818608E-02  0.1130116E+00
         25   -1    0    0    0    0  0.00000000000E+00  0.00000000000E+00  0.99999998245E-14  0.12500000000E+03  0.12500000000E+03 0.  0.
        -11    1    3    3    0    0  0.41569027170E+02 -0.30233585555E+02 -0.12225298341E+02  0.52834757832E+02  0.51100000000E-03 0. -1.
         23    2    1    0    0    0  0.19528293985E+02 -0.11022232671E+02  0.18997686800E+02  0.95610274197E+02  0.90981143922E+02 0.  0.
         11    1    3    3    0    0 -0.22040733186E+02  0.19211352884E+02  0.31222985141E+02  0.42775516365E+02  0.51100000000E-03 0.  1.
         22    1    1    0    0    0 -0.19528293985E+02  0.11022232671E+02 -0.18997686800E+02  0.29389725803E+02  0.00000000000E+00 0. -1.
</event>
<event>
 5    1  0.8778488E-005  0.9118800E+02  0.7818608E-02  0.1130116E+00
         25   -1    0    0    0    0  0.00000000000E+00  0.00000000000E+00  0.99999998245E-14  0.12500000000E+03  0.12500000000E+03 0.  0.
        -11    1    3    3    0    0  0.89536755408E+01  0.59646056301E+02 -0.84385742315E+01  0.60901805172E+02  0.51100000000E-03 0.  1.
         23    2    1    0    0    0  0.15922623486E+01  0.25977337116E+02 -0.13409442568E+02  0.95722525843E+02  0.91135237207E+02 0.  0.
         11    1    3    3    0    0 -0.73614131923E+01 -0.33668719185E+02 -0.49708683367E+01  0.34820720670E+02  0.51100000000E-03 0. -1.
         22    1    1    0    0    0 -0.15922623486E+01 -0.25977337116E+02  0.13409442568E+02  0.29277474157E+02  0.00000000000E+00 0.  1.
</event>
<event>
 5    1  0.8778488E-005  0.9118800E+02  0.7818608E-02  0.1130116E+00
         25   -1    0    0    0    0  0.00000000000E+00  0.00000000000E+00  0.99999998245E-14  0.12500000000E+03  0.12500000000E+03 0.  0.
        -11    1    3    3    0    0  0.33896982239E+01  0.23401902546E+02 -0.26253228285E+02  0.35332295318E+02  0.51100000000E-03 0.  1.
         23    2    1    0    0    0  0.16641225641E+02 -0.17695230074E+02  0.16132814932E+02  0.95839765504E+02  0.91295900106E+02 0.  0.
         11    1    3    3    0    0  0.13251527417E+02 -0.41097132620E+02  0.42386043217E+02  0.60507470186E+02  0.51100000000E-03 0. -1.
         22    1    1    0    0    0 -0.16641225641E+02  0.17695230074E+02 -0.16132814932E+02  0.29160234496E+02  0.00000000000E+00 0. -1.
</event>
<event>
 5    1  0.8778488E-005  0.9118800E+02  0.7818608E-02  0.1130116E+00
         25   -1    0    0    0    0  0.00000000000E+00  0.00000000000E+00  0.99999998245E-14  0.12500000000E+03  0.12500000000E+03 0.  0.
        -11    1    3    3    0    0 -0.17910565885E+02 -0.23711822578E+02 -0.13896871844E+02  0.32804907370E+02  0.51100000000E-03 0.  1.
         23    2    1    0    0    0  0.12541526254E+02  0.27436851143E+02  0.29995436717E+01  0.94683866610E+02  0.89699312442E+02 0.  0.
         11    1    3    3    0    0  0.30452092139E+02  0.51148673721E+02  0.16896415516E+02  0.61878959240E+02  0.51100000000E-03 0. -1.
         22    1    1    0    0    0 -0.12541526254E+02 -0.27436851143E+02 -0.29995436717E+01  0.30316133390E+02  0.00000000000E+00 0. -1.
</event>
<event>
 5    1  0.8778488E-005  0.9118800E+02  0.7818608E-02  0.1130116E+00
         25   -1    0    0    0    0  0.00000000000E+00  0.00000000000E+00  0.99999998245E-14  0.12500000000E+03  0.12500000000E+03 0.  0.
        -11    1    3    3    0    0  0.25894848643E+02 -0.33719656974E+02  0.62606016043E+01  0.42973870961E+02  0.51100000000E-03 0.  1.
         23    2    1    0    0    0 -0.20882873817E+02 -0.71526594703E+01  0.16121626459E+02  0.97665739519E+02  0.93762651839E+02 0.  0.
         11    1    3    3    0    0 -0.46777722460E+02  0.26566997504E+02  0.98610248545E+01  0.54691868558E+02  0.51100000000E-03 0. -1.
         22    1    1    0    0    0  0.20882873817E+02  0.71526594703E+01 -0.16121626459E+02  0.27334260481E+02  0.00000000000E+00 0. -1.
</event>
<event>
 5    1  0.8778488E-005  0.9118800E+02  0.7818608E-02  0.1130116E+00
         25   -1    0    0    0    0  0.00000000000E+00  0.00000000000E+00  0.99999998245E-14  0.12500000000E+03  0.12500000000E+03 0.  0.
        -11    1    3    3    0    0  0.29893106576E+02 -0.33812732553E+02 -0.31685360010E+02  0.55144000061E+02  0.51100000000E-03 0. -1.
         23    2    1    0    0    0  0.23429791517E+02 -0.18039134816E+02  0.44491173681E+01  0.95097489055E+02  0.90273873650E+02 0.  0.
         11    1    3    3    0    0 -0.64633150583E+01  0.15773597737E+02  0.36134477378E+02  0.39953488994E+02  0.51100000000E-03 0.  1.
         22    1    1    0    0    0 -0.23429791517E+02  0.18039134816E+02 -0.44491173681E+01  0.29902510945E+02  0.00000000000E+00 0. -1.
</event>
<event>
 5    1  0.8778488E-005  0.9118800E+02  0.7818608E-02  0.1130116E+00
         25   -1    0    0    0    0  0.00000000000E+00  0.00000000000E+00  0.99999998245E-14  0.12500000000E+03  0.12500000000E+03 0.  0.
        -11    1    3    3    0    0  0.32942618065E+02  0.43574917825E+01  0.17520197035E+02  0.37565424581E+02  0.51100000000E-03 0. -1.
         23    2    1    0    0    0 -0.20000990521E+02  0.22054780740E+02  0.44789577160E+01  0.94891628448E+02  0.89988372093E+02 0.  0.
         11    1    3    3    0    0 -0.52943608586E+02  0.17697288957E+02 -0.13041239319E+02  0.57326203866E+02  0.51100000000E-03 0.  1.
         22    1    1    0    0    0  0.20000990521E+02 -0.22054780740E+02 -0.44789577160E+01  0.30108371552E+02  0.00000000000E+00 0.  1.
</event>
<event>
 5    1  0.8778488E-005  0.9118800E+02  0.7818608E-02  0.1130116E+00
         25   -1    0    0    0    0  0.00000000000E+00  0.00000000000E+00  0.99999998245E-14  0.12500000000E+03  0.12500000000E+03 0.  0.
        -11    1    3    3    0    0  0.70022822211E+01 -0.32710450812E+02  0.19904960250E+02  0.38925736877E+02  0.51100000000E-03 0. -1.
         23    2    1    0    0    0  0.23308984970E+02  0.44475751295E+01 -0.18587761539E+02  0.94857097288E+02  0.89940393161E+02 0.  0.
         11    1    3    3    0    0  0.16306702749E+02  0.37158025941E+02 -0.38492721789E+02  0.55931360411E+02  0.51100000000E-03 0.  1.
         22    1    1    0    0    0 -0.23308984970E+02 -0.44475751295E+01  0.18587761539E+02  0.30142902712E+02  0.00000000000E+00 0.  1.
</event>
<event>
 5    1  0.8778488E-005  0.9118800E+02  0.7818608E-02  0.1130116E+00
         25   -1    0    0    0    0  0.00000000000E+00  0.00000000000E+00  0.99999998245E-14  0.12500000000E+03  0.12500000000E+03 0.  0.
        -11    1    3    3    0    0  0.26276160187E+02 -0.59311393501E+01  0.22540084602E+02  0.35123644775E+02  0.51100000000E-03 0. -1.
         23    2    1    0    0    0 -0.26236376968E+02  0.15025470720E+02  0.47591230963E+01  0.94393440256E+02  0.89293673146E+02 0.  0.
         11    1    3    3    0    0 -0.52512537154E+02  0.20956610070E+02 -0.17780961506E+02  0.59269795481E+02  0.51100000000E-03 0.  1.
         22    1    1    0    0    0  0.26236376968E+02 -0.15025470720E+02 -0.47591230963E+01  0.30606559744E+02  0.00000000000E+00 0.  1.
</event>
<event>
 5    1  0.8778488E-005  0.9118800E+02  0.7818608E-02  0.1130116E+00
         25   -1    0    0    0    0  0.00000000000E+00  0.00000000000E+00  0.99999998245E-14  0.12500000000E+03  0.12500000000E+03 0.  0.
        -11    1    3    3    0    0 -0.22904948826E+02 -0.53378263881E+02 -0.16150316706E+02  0.60288543403E+02  0.51100000000E-03 0.  1.
         23    2    1    0    0    0 -0.42192375100E+01 -0.32065512959E+02 -0.52592399644E+00  0.92653815023E+02  0.86824269394E+02 0.  0.
         11    1    3    3    0    0  0.18685711316E+02  0.21312750922E+02  0.15624392710E+02  0.32365271620E+02  0.51100000000E-03 0. -1.
         22    1    1    0    0    0  0.42192375100E+01  0.32065512959E+02  0.52592399644E+00  0.32346184977E+02  0.00000000000E+00 0.  1.
</event>
<event>
 5    1  0.8778488E-005  0.9118800E+02  0.7818608E-02  0.1130116E+00
         25   -1    0    0    0    0  0.00000000000E+00  0.00000000000E+00  0.99999998245E-14  0.12500000000E+03  0.12500000000E+03 0.  0.
        -11    1    3    3    0    0 -0.33039520500E+02  0.17729947188E+02 -0.21746840584E+02  0.43346118831E+02  0.51100000000E-03 0.  1.
         23    2    1    0    0    0  0.17373844545E+02 -0.25585508344E+01 -0.20908126331E+02  0.97695304372E+02  0.93802058043E+02 0.  0.
         11    1    3    3    0    0  0.50413365044E+02 -0.20288498022E+02  0.83871425204E+00  0.54349185541E+02  0.51100000000E-03 0. -1.
         22    1    1    0    0    0 -0.17373844545E+02  0.25585508344E+01  0.20908126331E+02  0.27304695628E+02  0.00000000000E+00 0.  1.
</event>
<event>
 5    1  0.8778488E-005  0.9118800E+02  0.7818608E-02  0.1130116E+00
         25   -1    0    0    0    0  0.00000000000E+00  0.00000000000E+00  0.99999998245E-14  0.12500000000E+03  0.12500000000E+03 0.  0.
        -11    1    3    3    0    0 -0.23939964836E+02  0.54202908736E+02  0.23686405187E+01  0.59301666839E+02  0.51100000000E-03 0. -1.
         23    2    1    0    0    0 -0.18296858740E+02  0.15086330717E+02 -0.76661898186E+01  0.10007726178E+03  0.96924276855E+02 0.  0.
         11    1    3    3    0    0  0.56431060958E+01 -0.39116578018E+02 -0.10034830337E+02  0.40775594936E+02  0.51100000000E-03 0.  1.
         22    1    1    0    0    0  0.18296858740E+02 -0.15086330717E+02  0.76661898186E+01  0.24922738225E+02  0.00000000000E+00 0. -1.
</event>
<event>
 5    1  0.8778488E-005  0.9118800E+02  0.7818608E-02  0.1130116E+00
         25   -1    0    0    0    0  0.00000000000E+00  0.00000000000E+00  0.99999998245E-14  0.12500000000E+03  0.12500000000E+03 0.  0.
        -11    1    3    3    0    0  0.21325321690E+02  0.25695125547E+01  0.27307924053E+02  0.34743264905E+02  0.51100000000E-03 0.  1.
         23    2    1    0    0    0 -0.10569639272E+02  0.21186658515E+02 -0.19472454926E+02  0.94344359830E+02  0.89224940221E+02 0.  0.
         11    1    3    3    0    0 -0.31894960963E+02  0.18617145960E+02 -0.46780378979E+02  0.59601094924E+02  0.51100000000E-03 0. -1.
         22    1    1    0    0    0  0.10569639272E+02 -0.21186658515E+02  0.19472454926E+02  0.30655640170E+02  0.00000000000E+00 0. -1.
</event>
<event>
 5    1  0.8778488E-005  0.9118800E+02  0.7818608E-02  0.1130116E+00
         25   -1    0    0    0    0  0.00000000000E+00  0.00000000000E+00  0.99999998245E-14  0.12500000000E+03  0.12500000000E+03 0.  0.
        -11    1    3    3    0    0 -0.16639587436E+02  0.29661071088E+02 -0.30969060996E+02  0.45997149340E+02  0.51100000000E-03 0.  1.
         23    2    1    0    0    0  0.18546575248E+02  0.20570617274E+02  0.46867576710E+01  0.96909228457E+02  0.92748623247E+02 0.  0.
         11    1    3    3    0    0  0.35186162683E+02 -0.90904538144E+01  0.35655818667E+02  0.50912079117E+02  0.51100000000E-03 0. -1.
         22    1    1    0    0    0 -0.18546575248E+02 -0.20570617274E+02 -0.46867576710E+01  0.28090771543E+02  0.00000000000E+00 0. -1.
</event>
<event>
 5    1  0.8778488E-005  0.9118800E+02  0.7818608E-02  0.1130116E+00
         25   -1    0    0    0    0  0.00000000000E+00  0.00000000000E+00  0.99999998245E-14  0.12500000000E+03  0.12500000000E+03 0.  0.
        -11    1    3    3    0    0 -0.77559231898E+01  0.23184329592E+02  0.55582504909E+02  0.60721349914E+02  0.51100000000E-03 0. -1.
         23    2    1    0    0    0 -0.10244723815E+02  0.26370408985E+01  0.26923604724E+02  0.96072697289E+02  0.91614269207E+02 0.  0.
         11    1    3    3    0    0 -0.24888006254E+01 -0.20547288693E+02 -0.28658900185E+02  0.35351347375E+02  0.51100000000E-03 0.  1.
         22    1    1    0    0    0  0.10244723815E+02 -0.26370408985E+01 -0.26923604724E+02  0.28927302711E+02  0.00000000000E+00 0. -1.
</event>
<event>
 5    1  0.8778488E-005  0.9118800E+02  0.7818608E-02  0.1130116E+00
         25   -1    0    0    0    0  0.00000000000E+00  0.00000000000E+00  0.99999998245E-14  0.12500000000E+03  0.12500000000E+03 0.  0.
        -11    1    3    3    0    0  0.30429397222E+02  0.38774452752E+01  0.33425115452E+02  0.45367622159E+02  0.51100000000E-03 0.  1.
         23    2    1    0    0    0  0.17278642017E+02  0.29673011746E+02 -0.13717876900E+01  0.90635470358E+02  0.83868155992E+02 0.  0.
         11    1    3    3    0    0 -0.13150755205E+02  0.25795566471E+02 -0.34796903142E+02  0.45267848199E+02  0.51100000000E-03 0. -1.
         22    1    1    0    0    0 -0.17278642017E+02 -0.29673011746E+02  0.13717876900E+01  0.34364529642E+02  0.00000000000E+00 0. -1.
</event>
<event>
 5    1  0.8778488E-005  0.9118800E+02  0.7818608E-02  0.1130116E+00
         25   -1    0    0    0    0  0.00000000000E+00  0.00000000000E+00  0.99999998245E-14  0.12500000000E+03  0.12500000000E+03 0.  0.
        -11    1    3    3    0    0 -0.36245554325E+02  0.13729317930E+02 -0.14228892775E+02  0.41287961550E+02  0.51100000000E-03 0. -1.
         23    2    1    0    0    0  0.18939116878E+02  0.10192778528E+02 -0.18334541198E+02  0.96738041766E+02  0.92517622330E+02 0.  0.
         11    1    3    3    0    0  0.55184671203E+02 -0.35365394018E+01 -0.41056484234E+01  0.55450080216E+02  0.51100000000E-03 0.  1.
         22    1    1    0    0    0 -0.18939116878E+02 -0.10192778528E+02  0.18334541198E+02  0.28261958234E+02  0.00000000000E+00 0.  1.
</event>
<event>
 5    1  0.8778488E-005  0.9118800E+02  0.7818608E-02  0.1130116E+00
         25   -1    0    0    0    0  0.00000000000E+00  0.00000000000E+00  0.99999998245E-14  0.12500000000E+03  0.12500000000E+03 0.  0.
        -11    1    3    3    0    0 -0.20210922626E+02  0.32805711268E+02 -0.46744081921E+02  0.60578092410E+02  0.51100000000E-03 0. -1.
         23    2    1    0    0    0 -0.78284859866E+01  0.61016310033E+01 -0.27545282724E+02  0.95721036663E+02  0.91133194642E+02 0.  0.
         11    1    3    3    0    0  0.12382436639E+02 -0.26704080264E+02  0.19198799197E+02  0.35142944253E+02  0.51100000000E-03 0.  1.
         22    1    1    0    0    0  0.78284859866E+01 -0.61016310033E+01  0.27545282724E+02  0.29278963337E+02  0.00000000000E+00 0. -1.
</event>
<event>
 5    1  0.8778488E-005  0.9118800E+02  0.7818608E-02  0.1130116E+00
         25   -1    0    0    0    0  0.00000000000E+00  0.00000000000E+00  0.99999998245E-14  0.12500000000E+03  0.12500000000E+03 0.  0.
        -11    1    3    3    0    0 -0.49623061829E+02 -0.82009438255E+01 -0.14635693707E+02  0.52382318347E+02  0.51100000000E-03 0.  1.
         23    2    1    0    0    0 -0.11968100092E+02  0.14384275721E+02 -0.21137481311E+02  0.96769946440E+02  0.92560718504E+02 0.  0.
         11    1    3    3    0    0  0.37654961737E+02  0.22585219546E+02 -0.65017876041E+01  0.44387628092E+02  0.51100000000E-03 0. -1.
         22    1    1    0    0    0  0.11968100092E+02 -0.14384275721E+02  0.21137481311E+02  0.28230053560E+02  0.00000000000E+00 0.  1.
</event>
<event>
 5    1  0.8778488E-005  0.9118800E+02  0.7818608E-02  0.1130116E+00
         25   -1    0    0    0    0  0.00000000000E+00  0.00000000000E+00  0.99999998245E-14  0.12500000000E+03  0.12500000000E+03 0.  0.
        -11    1    3    3    0    0 -0.31422539350E+02  0.22366612122E+02 -0.76569470145E+01  0.39322641758E+02  0.51100000000E-03 0.  1.
         23    2    1    0    0    0  0.22628817698E+02  0.14083577728E+02  0.96108509298E+01  0.96666644963E+02  0.92421108199E+02 0.  0.
         11    1    3    3    0    0  0.54051357048E+02 -0.82830343937E+01  0.17267797944E+02  0.57344003205E+02  0.51100000000E-03 0. -1.
         22    1    1    0    0    0 -0.22628817698E+02 -0.14083577728E+02 -0.96108509298E+01  0.28333355037E+02  0.00000000000E+00 0. -1.
</event>
<event>
 5    1  0.8778488E-005  0.9118800E+02  0.7818608E-02  0.1130116E+00
         25   -1    0    0    0    0  0.00000000000E+00  0.00000000000E+00  0.99999998245E-14  0.12500000000E+03  0.12500000000E+03 0.  0.
        -11    1    3    3    0    0  0.41734414608E+02  0.38239067608E+02  0.26473388456E+02  0.62488622571E+02  0.51100000000E-03 0.  1.
         23    2    1    0    0    0  0.20564368562E+02  0.18496040945E+02  0.12048555143E+02  0.94831067867E+02  0.89904209950E+02 0.  0.
         11    1    3    3    0    0 -0.21170046046E+02 -0.19743026663E+02 -0.14424833313E+02  0.32342445297E+02  0.51100000000E-03 0. -1.
         22    1    1    0    0    0 -0.20564368562E+02 -0.18496040945E+02 -0.12048555143E+02  0.30168932133E+02  0.00000000000E+00 0.  1.
</event>
<event>
 5    1  0.8778488E-005  0.9118800E+02  0.7818608E-02  0.1130116E+00
         25   -1    0    0    0    0  0.00000000000E+00  0.00000000000E+00  0.99999998245E-14  0.12500000000E+03  0.12500000000E+03 0.  0.
        -11    1    3    3    0    0  0.39352966880E+01  0.43995273750E+02  0.25148525509E+02  0.50828328793E+02  0.51100000000E-03 0. -1.
         23    2    1    0    0    0  0.22086431353E+02  0.28995082260E+02 -0.40366138086E+01  0.88328219348E+02  0.80355801514E+02 0.  0.
         11    1    3    3    0    0  0.18151134665E+02 -0.15000191489E+02 -0.29185139318E+02  0.37499890554E+02  0.51100000000E-03 0.  1.
         22    1    1    0    0    0 -0.22086431353E+02 -0.28995082260E+02  0.40366138086E+01  0.36671780652E+02  0.00000000000E+00 0. -1.
</event>
<event>
 5    1  0.8778488E-005  0.9118800E+02  0.7818608E-02  0.1130116E+00
         25   -1    0    0    0    0  0.00000000000E+00  0.00000000000E+00  0.99999998245E-14  0.12500000000E+03  0.12500000000E+03 0.  0.
        -11    1    3    3    0    0 -0.49857115741E+02  0.23136418342E+02  0.13449548126E+02  0.56585476836E+02  0.51100000000E-03 0.  1.
         23    2    1    0    0    0 -0.19817092074E+02  0.19272532022E+02 -0.10736522477E+02  0.95344974394E+02  0.90615912502E+02 0.  0.
         11    1    3    3    0    0  0.30040023668E+02 -0.38638863198E+01 -0.24186070603E+02  0.38759497558E+02  0.51100000000E-03 0. -1.
         22    1    1    0    0    0  0.19817092074E+02 -0.19272532022E+02  0.10736522477E+02  0.29655025606E+02  0.00000000000E+00 0.  1.
</event>
<event>
 5    1  0.8778488E-005  0.9118800E+02  0.7818608E-02  0.1130116E+00
         25   -1    0    0    0    0  0.00000000000E+00  0.00000000000E+00  0.99999998245E-14  0.12500000000E+03  0.12500000000E+03 0.  0.
        -11    1    3    3    0    0  0.68635958084E+01  0.77720847632E+01 -0.59313009112E+02  0.60212517795E+02  0.51100000000E-03 0. -1.
         23    2    1    0    0    0 -0.17417255531E+01  0.14552587206E+02 -0.27842526206E+02  0.93535453796E+02  0.88084410930E+02 0.  0.
         11    1    3    3    0    0 -0.86053213615E+01  0.67805024428E+01  0.31470482906E+02  0.33322936001E+02  0.51100000000E-03 0.  1.
         22    1    1    0    0    0  0.17417255531E+01 -0.14552587206E+02  0.27842526206E+02  0.31464546204E+02  0.00000000000E+00 0. -1.
</event>
<event>
 5    1  0.8778488E-005  0.9118800E+02  0.7818608E-02  0.1130116E+00
         25   -1    0    0    0    0  0.00000000000E+00  0.00000000000E+00  0.99999998245E-14  0.12500000000E+03  0.12500000000E+03 0.  0.
        -11    1    3    3    0    0 -0.16456903478E+02  0.27566696926E+02 -0.11092934706E+02  0.33967714851E+02  0.51100000000E-03 0.  1.
         23    2    1    0    0    0  0.58313333596E+01 -0.26310272537E+02  0.10408367391E+02  0.96111092068E+02  0.91666640699E+02 0.  0.
         11    1    3    3    0    0  0.22288236838E+02 -0.53876969464E+02  0.21501302097E+02  0.62143377218E+02  0.51100000000E-03 0. -1.
         22    1    1    0    0    0 -0.58313333596E+01  0.26310272537E+02 -0.10408367391E+02  0.28888907932E+02  0.00000000000E+00 0. -1.
</event>
<event>
 5    1  0.8778488E-005  0.9118800E+02  0.7818608E-02  0.1130116E+00
         25   -1    0    0    0    0  0.00000000000E+00  0.00000000000E+00  0.99999998245E-14  0.12500000000E+03  0.12500000000E+03 0.  0.
        -11    1    3    3    0    0  0.31245047112E+02  0.50124246593E+02 -0.91827919509E+01  0.59774716510E+02  0.51100000000E-03 0. -1.
         23    2    1    0    0    0  0.20038451312E+02  0.19141328433E+02  0.69066004839E+01  0.96440743787E+02  0.92115069054E+02 0.  0.
         11    1    3    3    0    0 -0.11206595800E+02 -0.30982918160E+02  0.16089392435E+02  0.36666027278E+02  0.51100000000E-03 0.  1.
         22    1    1    0    0    0 -0.20038451312E+02 -0.19141328433E+02 -0.69066004839E+01  0.28559256213E+02  0.00000000000E+00 0. -1.
</event>
<event>
 5    1  0.8778488E-005  0.9118800E+02  0.7818608E-02  0.1130116E+00
         25   -1    0    0    0    0  0.00000000000E+00  0.00000000000E+00  0.99999998245E-14  0.12500000000E+03  0.12500000000E+03 0.  0.
        -11    1    3    3    0    0  0.28186232679E+02 -0.25838666027E+02  0.22937013644E+02  0.44589314526E+02  0.51100000000E-03 0.  1.
         23    2    1    0    0    0  0.57399501130E+01  0.20591601884E+02  0.19150971423E+02  0.96299463387E+02  0.91923151854E+02 0.  0.
         11    1    3    3    0    0 -0.22446282566E+02  0.46430267911E+02 -0.37860422214E+01  0.51710148861E+02  0.51100000000E-03 0. -1.
         22    1    1    0    0    0 -0.57399501130E+01 -0.20591601884E+02 -0.19150971423E+02  0.28700536613E+02  0.00000000000E+00 0. -1.
</event>
<event>
 5    1  0.8778488E-005  0.9118800E+02  0.7818608E-02  0.1130116E+00
         25   -1    0    0    0    0  0.00000000000E+00  0.00000000000E+00  0.99999998245E-14  0.12500000000E+03  0.12500000000E+03 0.  0.
        -11    1    3    3    0    0 -0.21309891506E+02  0.40012154838E+01 -0.50810397689E+02  0.55243259453E+02  0.51100000000E-03 0. -1.
         23    2    1    0    0    0 -0.22086546267E+02  0.12402180713E+02 -0.86593490438E+01  0.98230354162E+02  0.94512372420E+02 0.  0.
         11    1    3    3    0    0 -0.77665476052E+00  0.84009652293E+01  0.42151048645E+02  0.42987094710E+02  0.51100000000E-03 0.  1.
         22    1    1    0    0    0  0.22086546267E+02 -0.12402180713E+02  0.86593490438E+01  0.26769645838E+02  0.00000000000E+00 0. -1.
</event>
<event>
 5    1  0.8778488E-005  0.9118800E+02  0.7818608E-02  0.1130116E+00
         25   -1    0    0    0    0  0.00000000000E+00  0.00000000000E+00  0.99999998245E-14  0.12500000000E+03  0.12500000000E+03 0.  0.
        -11    1    3    3    0    0 -0.15695993338E+01 -0.34102703998E+02  0.39151838910E+02  0.51945399722E+02  0.51100000000E-03 0. -1.
         23    2    1    0    0    0  0.13436833391E+02 -0.27192901353E+02 -0.24658442790E+00  0.94667456760E+02  0.89676441666E+02 0.  0.
         11    1    3    3    0    0  0.15006432724E+02  0.69098026450E+01 -0.39398423338E+02  0.42722057037E+02  0.51100000000E-03 0.  1.
         22    1    1    0    0    0 -0.13436833391E+02  0.27192901353E+02  0.24658442790E+00  0.30332543240E+02  0.00000000000E+00 0. -1.
</event>
<event>
 5    1  0.8778488E-005  0.9118800E+02  0.7818608E-02  0.1130116E+00
         25   -1    0    0    0    0  0.00000000000E+00  0.00000000000E+00  0.99999998245E-14  0.12500000000E+03  0.12500000000E+03 0.  0.
        -11    1    3    3    0    0  0.50620016678E+02  0.97218588052E+01 -0.95303389728E+01  0.52418775151E+02  0.51100000000E-03 0. -1.
         23    2    1    0    0    0  0.15926111806E+02 -0.83868528773E+01 -0.24739238895E+02  0.94405714920E+02  0.89310854492E+02 0.  0.
         11    1    3    3    0    0 -0.34693904873E+02 -0.18108711682E+02 -0.15208899922E+02  0.41986939770E+02  0.51100000000E-03 0.  1.
         22    1    1    0    0    0 -0.15926111806E+02  0.83868528773E+01  0.24739238895E+02  0.30594285080E+02  0.00000000000E+00 0. -1.
</event>
<event>
 5    1  0.8778488E-005  0.9118800E+02  0.7818608E-02  0.1130116E+00
         25   -1    0    0    0    0  0.00000000000E+00  0.00000000000E+00  0.99999998245E-14  0.12500000000E+03  0.12500000000E+03 0.  0.
        -11    1    3    3    0    0 -0.20349192894E+02 -0.29349026781E+02  0.45017951725E+02  0.57463649399E+02  0.51100000000E-03 0. -1.
         23    2    1    0    0    0  0.36211912702E+01 -0.19284402294E+01  0.26241861945E+02  0.98439366982E+02  0.94788405122E+02 0.  0.
         11    1    3    3    0    0  0.23970384164E+02  0.27420586551E+02 -0.18776089780E+02  0.40975717584E+02  0.51100000000E-03 0.  1.
         22    1    1    0    0    0 -0.36211912702E+01  0.19284402294E+01 -0.26241861945E+02  0.26560633018E+02  0.00000000000E+00 0. -1.
</event>
<event>
 5    1  0.8778488E-005  0.9118800E+02  0.7818608E-02  0.1130116E+00
         25   -1    0    0    0    0  0.00000000000E+00  0.00000000000E+00  0.99999998245E-14  0.12500000000E+03  0.12500000000E+03 0.  0.
        -11    1    3    3    0    0 -0.16498714146E+02  0.22270661100E+02  0.22794987190E+02  0.35885949278E+02  0.51100000000E-03 0. -1.
         23    2    1    0    0    0  0.22663897675E+02 -0.63542701855E+01 -0.14746042788E+02  0.97224565074E+02  0.93172642275E+02 0.  0.
         11    1    3    3    0    0  0.39162611821E+02 -0.28624931285E+02 -0.37541029978E+02  0.61338615796E+02  0.51100000000E-03 0.  1.
         22    1    1    0    0    0 -0.22663897675E+02  0.63542701855E+01  0.14746042788E+02  0.27775434926E+02  0.00000000000E+00 0.  1.
</event>
<event>
 5    1  0.8778488E-005  0.9118800E+02  0.7818608E-02  0.1130116E+00
         25   -1    0    0    0    0  0.00000000000E+00  0.00000000000E+00  0.99999998245E-14  0.12500000000E+03  0.12500000000E+03 0.  0.
        -11    1    3    3    0    0  0.50373955002E+02 -0.40982376767E+01 -0.12172308140E+02  0.51985536261E+02  0.51100000000E-03 0.  1.
         23    2    1    0    0    0  0.18089436637E+02  0.20569752290E+02  0.67234246983E+01  0.96794559624E+02  0.92593951779E+02 0.  0.
         11    1    3    3    0    0 -0.32284518365E+02  0.24667989967E+02  0.18895732838E+02  0.44809023364E+02  0.51100000000E-03 0. -1.
         22    1    1    0    0    0 -0.18089436637E+02 -0.20569752290E+02 -0.67234246983E+01  0.28205440376E+02  0.00000000000E+00 0.  1.
</event>
<event>
 5    1  0.8778488E-005  0.9118800E+02  0.7818608E-02  0.1130116E+00
         25   -1    0    0    0    0  0.00000000000E+00  0.00000000000E+00  0.99999998245E-14  0.12500000000E+03  0.12500000000E+03 0.  0.
        -11    1    3    3    0    0  0.86974026710E+01 -0.51390384291E+02 -0.13009204385E+02  0.53720162042E+02  0.51100000000E-03 0. -1.
         23    2    1    0    0    0 -0.10974724893E+02 -0.23753384638E+02  0.12341524302E+02  0.96069374526E+02  0.91609735462E+02 0.  0.
         11    1    3    3    0    0 -0.19672127564E+02  0.27636999653E+02  0.25350728688E+02  0.42349212483E+02  0.51100000000E-03 0.  1.
         22    1    1    0    0    0  0.10974724893E+02  0.23753384638E+02 -0.12341524302E+02  0.28930625474E+02  0.00000000000E+00 0. -1.
</event>
<event>
 5    1  0.8778488E-005  0.9118800E+02  0.7818608E-02  0.1130116E+00
         25   -1    0    0    0    0  0.00000000000E+00  0.00000000000E+00  0.99999998245E-14  0.12500000000E+03  0.12500000000E+03 0.  0.
        -11    1    3    3    0    0  0.23406623641E+02  0.30226745381E+02  0.56302459265E+01  0.38642280420E+02  0.51100000000E-03 0. -1.
         23    2    1    0    0    0  0.84318603554E+01 -0.26189154240E+02  0.51234586038E+01  0.97013969612E+02  0.92889678667E+02 0.  0.
         11    1    3    3    0    0 -0.14974763286E+02 -0.56415899620E+02 -0.50678732274E+00  0.58371689192E+02  0.51100000000E-03 0.  1.
         22    1    1    0    0    0 -0.84318603554E+01  0.26189154240E+02 -0.51234586038E+01  0.27986030388E+02  0.00000000000E+00 0.  1.
</event>
<event>
 5    1  0.8778488E-005  0.9118800E+02  0.7818608E-02  0.1130116E+00
         25   -1    0    0    0    0  0.00000000000E+00  0.00000000000E+00  0.99999998245E-14  0.12500000000E+03  0.12500000000E+03 0.  0.
        -11    1    3    3    0    0 -0.14286792334E+02 -0.54105617753E+01  0.30471047713E+02  0.34086234214E+02  0.51100000000E-03 0. -1.
         23    2    1    0    0    0 -0.36050290756E+01  0.10649628577E+01 -0.29457937702E+02  0.95303190841E+02  0.90558255893E+02 0.  0.
         11    1    3    3    0    0  0.10681763258E+02  0.64755246330E+01 -0.59928985415E+02  0.61216956627E+02  0.51100000000E-03 0.  1.
         22    1    1    0    0    0  0.36050290756E+01 -0.10649628577E+01  0.29457937702E+02  0.29696809159E+02  0.00000000000E+00 0.  1.
</event>
<event>
 5    1  0.8778488E-005  0.9118800E+02  0.7818608E-02  0.1130116E+00
         25   -1    0    0    0    0  0.00000000000E+00  0.00000000000E+00  0.99999998245E-14  0.12500000000E+03  0.12500000000E+03 0.  0.
        -11    1    3    3    0    0  0.11292133792E+02  0.33261154299E+02 -0.11586933806E+02  0.36987480398E+02  0.51100000000E-03 0.  1.
         23    2    1    0    0    0 -0.27897960382E+02 -0.92840472109E+01 -0.39254155436E+01  0.95336914973E+02  0.90604794262E+02 0.  0.
         11    1    3    3    0    0 -0.39190094175E+02 -0.42545201510E+02  0.76615182626E+01  0.58349434576E+02  0.51100000000E-03 0. -1.
         22    1    1    0    0    0  0.27897960382E+02  0.92840472109E+01  0.39254155436E+01  0.29663085027E+02  0.00000000000E+00 0. -1.
</event>
<event>
 5    1  0.8778488E-005  0.9118800E+02  0.7818608E-02  0.1130116E+00
         25   -1    0    0    0    0  0.00000000000E+00  0.00000000000E+00  0.99999998245E-14  0.12500000000E+03  0.12500000000E+03 0.  0.
        -11    1    3    3    0    0  0.20980562870E+02 -0.16426920871E+02  0.19360083228E+02  0.32936918048E+02  0.51100000000E-03 0. -1.
         23    2    1    0    0    0 -0.30302655897E+02  0.10012925726E+02  0.28045494734E+01  0.92962910030E+02  0.87268135694E+02 0.  0.
         11    1    3    3    0    0 -0.51283218768E+02  0.26439846597E+02 -0.16555533754E+02  0.60025991982E+02  0.51100000000E-03 0.  1.
         22    1    1    0    0    0  0.30302655897E+02 -0.10012925726E+02 -0.28045494734E+01  0.32037089970E+02  0.00000000000E+00 0.  1.
</event>
<event>
 5    1  0.8778488E-005  0.9118800E+02  0.7818608E-02  0.1130116E+00
         25   -1    0    0    0    0  0.00000000000E+00  0.00000000000E+00  0.99999998245E-14  0.12500000000E+03  0.12500000000E+03 0.  0.
        -11    1    3    3    0    0  0.23767699341E+02  0.87613981083E+01  0.50155268734E+02  0.56189114701E+02  0.51100000000E-03 0.  1.
         23    2    1    0    0    0  0.95319238803E+01 -0.15744415844E+02  0.24006446231E+02  0.94750146054E+02  0.89791628304E+02 0.  0.
         11    1    3    3    0    0 -0.14235775461E+02 -0.24505813952E+02 -0.26148822503E+02  0.38561031353E+02  0.51100000000E-03 0. -1.
         22    1    1    0    0    0 -0.95319238803E+01  0.15744415844E+02 -0.24006446231E+02  0.30249853946E+02  0.00000000000E+00 0.  1.
</event>
<event>
 5    1  0.8778488E-005  0.9118800E+02  0.7818608E-02  0.1130116E+00
         25   -1    0    0    0    0  0.00000000000E+00  0.00000000000E+00  0.99999998245E-14  0.12500000000E+03  0.12500000000E+03 0.  0.
        -11    1    3    3    0    0  0.54861000860E+02  0.20493120761E+02 -0.20906250945E+02  0.62183347793E+02  0.51100000000E-03 0. -1.
         23    2    1    0    0    0  0.26331561075E+02  0.11695437079E+02 -0.14611003815E+02  0.92694957211E+02  0.86883481185E+02 0.  0.
         11    1    3    3    0    0 -0.28529439785E+02 -0.87976836823E+01  0.62952471305E+01  0.30511609418E+02  0.51100000000E-03 0.  1.
         22    1    1    0    0    0 -0.26331561075E+02 -0.11695437079E+02  0.14611003815E+02  0.32305042789E+02  0.00000000000E+00 0. -1.
</event>
<event>
 5    1  0.8778488E-005  0.9118800E+02  0.7818608E-02  0.1130116E+00
         25   -1    0    0    0    0  0.00000000000E+00  0.00000000000E+00  0.99999998245E-14  0.12500000000E+03  0.12500000000E+03 0.  0.
        -11    1    3    3    0    0  0.39542481122E+02  0.17143804182E+02 -0.15944425182E+02  0.45953699849E+02  0.51100000000E-03 0.  1.
         23    2    1    0    0    0 -0.24207036751E+01  0.26759426490E+02  0.10130095809E+02  0.96285098755E+02  0.91903616299E+02 0.  0.
         11    1    3    3    0    0 -0.41963184797E+02  0.96156223083E+01  0.26074520992E+02  0.50331398907E+02  0.51100000000E-03 0. -1.
         22    1    1    0    0    0  0.24207036751E+01 -0.26759426490E+02 -0.10130095809E+02  0.28714901245E+02  0.00000000000E+00 0. -1.
</event>
<event>
 5    1  0.8778488E-005  0.9118800E+02  0.7818608E-02  0.1130116E+00
         25   -1    0    0    0    0  0.00000000000E+00  0.00000000000E+00  0.99999998245E-14  0.12500000000E+03  0.12500000000E+03 0.  0.
        -11    1    3    3    0    0 -0.46032085540E+02 -0.25821029471E+02  0.12610159176E+02  0.54265040098E+02  0.51100000000E-03 0. -1.
         23    2    1    0    0    0 -0.25217658281E+02  0.60223010841E+01 -0.84285131400E+01  0.97737604044E+02  0.93858409378E+02 0.  0.
         11    1    3    3    0    0  0.20814427259E+02  0.31843330555E+02 -0.21038672316E+02  0.43472563946E+02  0.51100000000E-03 0.  1.
         22    1    1    0    0    0  0.25217658281E+02 -0.60223010841E+01  0.84285131400E+01  0.27262395956E+02  0.00000000000E+00 0. -1.
</event>
<event>
 5    1  0.8778488E-005  0.9118800E+02  0.7818608E-02  0.1130116E+00
         25   -1    0    0    0    0  0.00000000000E+00  0.00000000000E+00  0.99999998245E-14  0.12500000000E+03  0.12500000000E+03 0.  0.
        -11    1    3    3    0    0 -0.32382971343E+02  0.35947399450E+02 -0.87394128811E+01  0.49165533639E+02  0.51100000000E-03 0.  1.
         23    2    1    0    0    0 -0.18752613867E+02 -0.92450774849E+01 -0.18168294078E+02  0.97301283527E+02  0.93275510622E+02 0.  0.
         11    1    3    3    0    0  0.13630357476E+02 -0.45192476935E+02 -0.94288811968E+01  0.48135749888E+02  0.51100000000E-03 0. -1.
         22    1    1    0    0    0  0.18752613867E+02  0.92450774849E+01  0.18168294078E+02  0.27698716473E+02  0.00000000000E+00 0.  1.
</event>
<event>
 5    1  0.8778488E-005  0.9118800E+02  0.7818608E-02  0.1130116E+00
         25   -1    0    0    0    0  0.00000000000E+00  0.00000000000E+00  0.99999998245E-14  0.12500000000E+03  0.12500000000E+03 0.  0.
        -11    1    3    3    0    0  0.27382578819E+02  0.66716404347E+01  0.22933740475E+02  0.36335559185E+02  0.51100000000E-03 0.  1.
         23    2    1    0    0    0  0.74121892932E+01 -0.22248591413E+02 -0.21634486963E+02  0.93094022564E+02  0.87455735324E+02 0.  0.
         11    1    3    3    0    0 -0.19970389526E+02 -0.28920231847E+02 -0.44568227438E+02  0.56758463379E+02  0.51100000000E-03 0. -1.
         22    1    1    0    0    0 -0.74121892932E+01  0.22248591413E+02  0.21634486963E+02  0.31905977436E+02  0.00000000000E+00 0. -1.
</event>
<event>
 5    1  0.8778488E-005  0.9118800E+02  0.7818608E-02  0.1130116E+00
         25   -1    0    0    0    0  0.00000000000E+00  0.00000000000E+00  0.99999998245E-14  0.12500000000E+03  0.12500000000E+03 0.  0.
        -11    1    3    3    0    0 -0.44206613626E+02  0.28866676984E+02 -0.13437128420E+02  0.54479960984E+02  0.51100000000E-03 0. -1.
         23    2    1    0    0    0 -0.26346584929E+02 -0.85365296511E+01 -0.36788869150E+01  0.97061691447E+02  0.92953874915E+02 0.  0.
         11    1    3    3    0    0  0.17860028698E+02 -0.37403206635E+02  0.97582415054E+01  0.42581730463E+02  0.51100000000E-03 0.  1.
         22    1    1    0    0    0  0.26346584929E+02  0.85365296511E+01  0.36788869150E+01  0.27938308553E+02  0.00000000000E+00 0. -1.
</event>
<event>
 5    1  0.8778488E-005  0.9118800E+02  0.7818608E-02  0.1130116E+00
         25   -1    0    0    0    0  0.00000000000E+00  0.00000000000E+00  0.99999998245E-14  0.12500000000E+03  0.12500000000E+03 0.  0.
        -11    1    3    3    0    0  0.10849400535E+02 -0.30760003574E+01 -0.56925082845E+02  0.58031339183E+02  0.51100000000E-03 0.  1.
         23    2    1    0    0    0 -0.49850591819E+01 -0.14771304102E+02 -0.25095754045E+02  0.95456149354E+02  0.90769143096E+02 0.  0.
         11    1    3    3    0    0 -0.15834459717E+02 -0.11695303745E+02  0.31829328800E+02  0.37424810171E+02  0.51100000000E-03 0. -1.
         22    1    1    0    0    0  0.49850591819E+01  0.14771304102E+02  0.25095754045E+02  0.29543850646E+02  0.00000000000E+00 0.  1.
</event>
<event>
 5    1  0.8778488E-005  0.9118800E+02  0.7818608E-02  0.1130116E+00
         25   -1    0    0    0    0  0.00000000000E+00  0.00000000000E+00  0.99999998245E-14  0.12500000000E+03  0.12500000000E+03 0.  0.
        -11    1    3    3    0    0 -0.56535299511E+02  0.14263453057E+02  0.10875389157E+02  0.59312395614E+02  0.51100000000E-03 0. -1.
         23    2    1    0    0    0 -0.26690492291E+02  0.30499504993E+01 -0.87454921500E+01  0.96748129093E+02  0.92531250253E+02 0.  0.
         11    1    3    3    0    0  0.29844807220E+02 -0.11213502557E+02 -0.19620881307E+02  0.37435733479E+02  0.51100000000E-03 0.  1.
         22    1    1    0    0    0  0.26690492291E+02 -0.30499504993E+01  0.87454921500E+01  0.28251870907E+02  0.00000000000E+00 0. -1.
</event>
<event>
 5    1  0.8778488E-005  0.9118800E+02  0.7818608E-02  0.1130116E+00
         25   -1    0    0    0    0  0.00000000000E+00  0.00000000000E+00  0.99999998245E-14  0.12500000000E+03  0.12500000000E+03 0.  0.
        -11    1    3    3    0    0 -0.89811875698E+01 -0.26535592629E+02 -0.25922687509E+02  0.38167854725E+02  0.51100000000E-03 0. -1.
         23    2    1    0    0    0  0.24991123851E+02 -0.29316074344E+02  0.73290782894E+01  0.85786432516E+02  0.76299463491E+02 0.  0.
         11    1    3    3    0    0  0.33972311421E+02 -0.27804817150E+01  0.33251765799E+02  0.47618577791E+02  0.51100000000E-03 0.  1.
         22    1    1    0    0    0 -0.24991123851E+02  0.29316074344E+02 -0.73290782894E+01  0.39213567484E+02  0.00000000000E+00 0.  1.
</event>
<event>
 5    1  0.8778488E-005  0.9118800E+02  0.7818608E-02  0.1130116E+00
         25   -1    0    0    0    0  0.00000000000E+00  0.00000000000E+00  0.99999998245E-14  0.12500000000E+03  0.12500000000E+03 0.  0.
        -11    1    3    3    0    0  0.32306586950E+01 -0.28692976969E+02 -0.24425519343E+02  0.37819704895E+02  0.51100000000E-03 0.  1.
         23    2    1    0    0    0 -0.37285892946E+01 -0.68339716375E+01  0.28474981252E+02  0.95480005017E+02  0.90801989264E+02 0.  0.
         11    1    3    3    0    0 -0.69592479896E+01  0.21859005331E+02  0.52900500595E+02  0.57660300122E+02  0.51100000000E-03 0. -1.
         22    1    1    0    0    0  0.37285892946E+01  0.68339716375E+01 -0.28474981252E+02  0.29519994983E+02  0.00000000000E+00 0. -1.
</event>
<event>
 5    1  0.8778488E-005  0.9118800E+02  0.7818608E-02  0.1130116E+00
         25   -1    0    0    0    0  0.00000000000E+00  0.00000000000E+00  0.99999998245E-14  0.12500000000E+03  0.12500000000E+03 0.  0.
        -11    1    3    3    0    0  0.32095442086E+02  0.22554546700E+02  0.23770299595E+02  0.45867767796E+02  0.51100000000E-03 0.  1.
         23    2    1    0    0    0  0.10207464140E+02  0.19071573645E+02 -0.20387258583E+02  0.95275303905E+02  0.90519754618E+02 0.  0.
         11    1    3    3    0    0 -0.21887977946E+02 -0.34829730554E+01 -0.44157558177E+02  0.49407536108E+02  0.51100000000E-03 0. -1.
         22    1    1    0    0    0 -0.10207464140E+02 -0.19071573645E+02  0.20387258583E+02  0.29724696095E+02  0.00000000000E+00 0. -1.
</event>
<event>
 5    1  0.8778488E-005  0.9118800E+02  0.7818608E-02  0.1130116E+00
         25   -1    0    0    0    0  0.00000000000E+00  0.00000000000E+00  0.99999998245E-14  0.12500000000E+03  0.12500000000E+03 0.  0.
        -11    1    3    3    0    0 -0.90985958893E+01 -0.52289740492E+02 -0.16681450288E+02  0.55635170457E+02  0.51100000000E-03 0. -1.
         23    2    1    0    0    0 -0.18610587800E+02 -0.20758243162E+02  0.70664112611E+01  0.96239040253E+02  0.91840949817E+02 0.  0.
         11    1    3    3    0    0 -0.95119919108E+01  0.31531497329E+02  0.23747861550E+02  0.40603869796E+02  0.51100000000E-03 0.  1.
         22    1    1    0    0    0  0.18610587800E+02  0.20758243162E+02 -0.70664112611E+01  0.28760959747E+02  0.00000000000E+00 0. -1.
</event>
<event>
 5    1  0.8778488E-005  0.9118800E+02  0.7818608E-02  0.1130116E+00
         25   -1    0    0    0    0  0.00000000000E+00  0.00000000000E+00  0.99999998245E-14  0.12500000000E+03  0.12500000000E+03 0.  0.
        -11    1    3    3    0    0  0.17929691887E+02  0.37557580492E+02  0.43811189427E+01  0.41847818426E+02  0.51100000000E-03 0. -1.
         23    2    1    0    0    0 -0.67118272227E+01  0.33183202035E+01 -0.28626089774E+02  0.95410932942E+02  0.90706853299E+02 0.  0.
         11    1    3    3    0    0 -0.24641519109E+02 -0.34239260289E+02 -0.33007208716E+02  0.53563114516E+02  0.51100000000E-03 0.  1.
         22    1    1    0    0    0  0.67118272227E+01 -0.33183202035E+01  0.28626089774E+02  0.29589067058E+02  0.00000000000E+00 0.  1.
</event>
<event>
 5    1  0.8778488E-005  0.9118800E+02  0.7818608E-02  0.1130116E+00
         25   -1    0    0    0    0  0.00000000000E+00  0.00000000000E+00  0.99999998245E-14  0.12500000000E+03  0.12500000000E+03 0.  0.
        -11    1    3    3    0    0 -0.46427433343E+01 -0.45060402356E+02 -0.62471763700E+01  0.45727695535E+02  0.51100000000E-03 0.  1.
         23    2    1    0    0    0 -0.13575473946E+02  0.38172301984E+01 -0.22878593481E+02  0.98124457608E+02  0.94372212022E+02 0.  0.
         11    1    3    3    0    0 -0.89327306116E+01  0.48877632554E+02 -0.16631417111E+02  0.52396762072E+02  0.51100000000E-03 0. -1.
         22    1    1    0    0    0  0.13575473946E+02 -0.38172301984E+01  0.22878593481E+02  0.26875542392E+02  0.00000000000E+00 0. -1.
</event>
<event>
 5    1  0.8778488E-005  0.9118800E+02  0.7818608E-02  0.1130116E+00
         25   -1    0    0    0    0  0.00000000000E+00  0.00000000000E+00  0.99999998245E-14  0.12500000000E+03  0.12500000000E+03 0.  0.
        -11    1    3    3    0    0  0.53230705635E+02 -0.15708939982E+02 -0.27682484954E+02  0.62020954453E+02  0.51100000000E-03 0.  1.
         23    2    1    0    0    0  0.27888997109E+02 -0.98282800558E+01 -0.88605611994E+01  0.94130908770E+02  0.88925402403E+02 0.  0.
         11    1    3    3    0    0 -0.25341708526E+02  0.58806599266E+01  0.18821923754E+02  0.32109954317E+02  0.51100000000E-03 0. -1.
         22    1    1    0    0    0 -0.27888997109E+02  0.98282800558E+01  0.88605611994E+01  0.30869091230E+02  0.00000000000E+00 0.  1.
</event>
<event>
 5    1  0.8778488E-005  0.9118800E+02  0.7818608E-02  0.1130116E+00
         25   -1    0    0    0    0  0.00000000000E+00  0.00000000000E+00  0.99999998245E-14  0.12500000000E+03  0.12500000000E+03 0.  0.
        -11    1    3    3    0    0 -0.30440780241E+02 -0.17947511327E+02 -0.10295292727E+02  0.36806892250E+02  0.51100000000E-03 0. -1.
         23    2    1    0    0    0  0.16776715274E+02  0.16918733518E+02  0.10343636469E+02  0.99025155734E+02  0.95557777985E+02 0.  0.
         11    1    3    3    0    0  0.47217495515E+02  0.34866244845E+02  0.20638929196E+02  0.62218263484E+02  0.51100000000E-03 0.  1.
         22    1    1    0    0    0 -0.16776715274E+02 -0.16918733518E+02 -0.10343636469E+02  0.25974844266E+02  0.00000000000E+00 0.  1.
</event>
<event>
 5    1  0.8778488E-005  0.9118800E+02  0.7818608E-02  0.1130116E+00
         25   -1    0    0    0    0  0.00000000000E+00  0.00000000000E+00  0.99999998245E-14  0.12500000000E+03  0.12500000000E+03 0.  0.
        -11    1    3    3    0    0 -0.45480874257E+02 -0.28866082476E+02  0.17333944759E+02  0.56588216811E+02  0.51100000000E-03 0.  1.
         23    2    1    0    0    0 -0.29447821885E+02 -0.26654942593E+02  0.28379961419E+02  0.76183175149E+02  0.58487552412E+02 0.  0.
         11    1    3    3    0    0  0.16033052372E+02  0.22111398827E+01  0.11046016660E+02  0.19594958338E+02  0.51100000000E-03 0. -1.
         22    1    1    0    0    0  0.29447821885E+02  0.26654942593E+02 -0.28379961419E+02  0.48816824851E+02  0.00000000000E+00 0.  1.
</event>
<event>
 5    1  0.8778488E-005  0.9118800E+02  0.7818608E-02  0.1130116E+00
         25   -1    0    0    0    0  0.00000000000E+00  0.00000000000E+00  0.99999998245E-14  0.12500000000E+03  0.12500000000E+03 0.  0.
        -11    1    3    3    0    0  0.10328667432E+02 -0.40869007523E+02 -0.44849925161E+02  0.61550572167E+02  0.51100000000E-03 0.  1.
         23    2    1    0    0    0  0.12761035894E+02 -0.20638278928E+02 -0.27620497584E+02  0.88234874120E+02  0.80210463969E+02 0.  0.
         11    1    3    3    0    0  0.24323684619E+01  0.20230728595E+02  0.17229427578E+02  0.26684301953E+02  0.51100000000E-03 0. -1.
         22    1    1    0    0    0 -0.12761035894E+02  0.20638278928E+02  0.27620497584E+02  0.36765125880E+02  0.00000000000E+00 0.  1.
</event>
<event>
 5    1  0.8778488E-005  0.9118800E+02  0.7818608E-02  0.1130116E+00
         25   -1    0    0    0    0  0.00000000000E+00  0.00000000000E+00  0.99999998245E-14  0.12500000000E+03  0.12500000000E+03 0.  0.
        -11    1    3    3    0    0  0.37476280840E+02  0.43817009315E+01  0.37268684516E+02  0.53034194389E+02  0.51100000000E-03 0. -1.
         23    2    1    0    0    0 -0.30503776661E+01 -0.52385630998E+01  0.28838098048E+02  0.95531656880E+02  0.90873066526E+02 0.  0.
         11    1    3    3    0    0 -0.40526658506E+02 -0.96202640313E+01 -0.84305864687E+01  0.42497462491E+02  0.51100000000E-03 0.  1.
         22    1    1    0    0    0  0.30503776661E+01  0.52385630998E+01 -0.28838098048E+02  0.29468343120E+02  0.00000000000E+00 0. -1.
</event>
<event>
 5    1  0.8778488E-005  0.9118800E+02  0.7818608E-02  0.1130116E+00
         25   -1    0    0    0    0  0.00000000000E+00  0.00000000000E+00  0.99999998245E-14  0.12500000000E+03  0.12500000000E+03 0.  0.
        -11    1    3    3    0    0 -0.23399253523E+02 -0.14627379805E+02  0.38292872401E+02  0.47199887525E+02  0.51100000000E-03 0.  1.
         23    2    1    0    0    0  0.10478107921E+02 -0.27387882611E+02  0.74837617134E+01  0.94736266772E+02  0.89772304711E+02 0.  0.
         11    1    3    3    0    0  0.33877361444E+02 -0.12760502805E+02 -0.30809110688E+02  0.47536379247E+02  0.51100000000E-03 0. -1.
         22    1    1    0    0    0 -0.10478107921E+02  0.27387882611E+02 -0.74837617134E+01  0.30263733228E+02  0.00000000000E+00 0.  1.
</event>
<event>
 5    1  0.8778488E-005  0.9118800E+02  0.7818608E-02  0.1130116E+00
         25   -1    0    0    0    0  0.00000000000E+00  0.00000000000E+00  0.99999998245E-14  0.12500000000E+03  0.12500000000E+03 0.  0.
        -11    1    3    3    0    0  0.48456738798E+02  0.10064702298E+02 -0.28932838866E+02  0.57327680333E+02  0.51100000000E-03 0.  1.
         23    2    1    0    0    0  0.19707876465E+02 -0.12382100348E+02 -0.18511363903E+02  0.95261348428E+02  0.90500481253E+02 0.  0.
         11    1    3    3    0    0 -0.28748862333E+02 -0.22446802646E+02  0.10421474962E+02  0.37933668095E+02  0.51100000000E-03 0. -1.
         22    1    1    0    0    0 -0.19707876465E+02  0.12382100348E+02  0.18511363903E+02  0.29738651572E+02  0.00000000000E+00 0.  1.
</event>
<event>
 5    1  0.8778488E-005  0.9118800E+02  0.7818608E-02  0.1130116E+00
         25   -1    0    0    0    0  0.00000000000E+00  0.00000000000E+00  0.99999998245E-14  0.12500000000E+03  0.12500000000E+03 0.  0.
        -11    1    3    3    0    0 -0.33386069677E+02 -0.47310255610E+01 -0.51778646157E+02  0.61790294136E+02  0.51100000000E-03 0.  1.
         23    2    1    0    0    0 -0.18223736295E+02  0.30137114386E+01 -0.20475483538E+02  0.97424060355E+02  0.93439900946E+02 0.  0.
         11    1    3    3    0    0  0.15162333381E+02  0.77447369996E+01  0.31303162619E+02  0.35633766219E+02  0.51100000000E-03 0. -1.
         22    1    1    0    0    0  0.18223736295E+02 -0.30137114386E+01  0.20475483538E+02  0.27575939645E+02  0.00000000000E+00 0.  1.
</event>
<event>
 5    1  0.8778488E-005  0.9118800E+02  0.7818608E-02  0.1130116E+00
         25   -1    0    0    0    0  0.00000000000E+00  0.00000000000E+00  0.99999998245E-14  0.12500000000E+03  0.12500000000E+03 0.  0.
        -11    1    3    3    0    0  0.39630708008E+02  0.26928920431E+02 -0.17538322006E+02  0.51023058629E+02  0.51100000000E-03 0.  1.
         23    2    1    0    0    0  0.33358673829E+02 -0.68129962156E+01  0.26658939100E+01  0.90848498900E+02  0.84185062362E+02 0.  0.
         11    1    3    3    0    0 -0.62720341792E+01 -0.33741916646E+02  0.20204215916E+02  0.39825440271E+02  0.51100000000E-03 0. -1.
         22    1    1    0    0    0 -0.33358673829E+02  0.68129962156E+01 -0.26658939100E+01  0.34151501100E+02  0.00000000000E+00 0.  1.
</event>
<event>
 5    1  0.8778488E-005  0.9118800E+02  0.7818608E-02  0.1130116E+00
         25   -1    0    0    0    0  0.00000000000E+00  0.00000000000E+00  0.99999998245E-14  0.12500000000E+03  0.12500000000E+03 0.  0.
        -11    1    3    3    0    0 -0.54621661398E+02 -0.79249808608E+01 -0.11679076478E+02  0.56415707416E+02  0.51100000000E-03 0.  1.
         23    2    1    0    0    0 -0.22135107724E+02 -0.16414377761E+02  0.91909908471E+01  0.95950574808E+02  0.91447491502E+02 0.  0.
         11    1    3    3    0    0  0.32486553674E+02 -0.84893968997E+01  0.20870067325E+02  0.39534867393E+02  0.51100000000E-03 0. -1.
         22    1    1    0    0    0  0.22135107724E+02  0.16414377761E+02 -0.91909908471E+01  0.29049425192E+02  0.00000000000E+00 0.  1.
</event>
<event>
 5    1  0.8778488E-005  0.9118800E+02  0.7818608E-02  0.1130116E+00
         25   -1    0    0    0    0  0.00000000000E+00  0.00000000000E+00  0.99999998245E-14  0.12500000000E+03  0.12500000000E+03 0.  0.
        -11    1    3    3    0    0  0.47103460369E+02 -0.82230225501E+01  0.31704752149E+01  0.47920830459E+02  0.51100000000E-03 0. -1.
         23    2    1    0    0    0  0.25882435247E+01 -0.28040341790E+02 -0.97188890535E+00  0.96823691862E+02  0.92633271374E+02 0.  0.
         11    1    3    3    0    0 -0.44515216844E+02 -0.19817319240E+02 -0.41423641202E+01  0.48902861402E+02  0.51100000000E-03 0.  1.
         22    1    1    0    0    0 -0.25882435247E+01  0.28040341790E+02  0.97188890535E+00  0.28176308138E+02  0.00000000000E+00 0.  1.
</event>
<event>
 5    1  0.8778488E-005  0.9118800E+02  0.7818608E-02  0.1130116E+00
         25   -1    0    0    0    0  0.00000000000E+00  0.00000000000E+00  0.99999998245E-14  0.12500000000E+03  0.12500000000E+03 0.  0.
        -11    1    3    3    0    0 -0.15915677867E+02  0.35798202033E+02  0.45489974120E+02  0.60034638472E+02  0.51100000000E-03 0.  1.
         23    2    1    0    0    0 -0.20159098288E+02  0.27934368264E+02  0.24856656817E+02  0.82519750916E+02  0.70745584519E+02 0.  0.
         11    1    3    3    0    0 -0.42434204214E+01 -0.78638337691E+01 -0.20633317303E+02  0.22485112444E+02  0.51100000000E-03 0. -1.
         22    1    1    0    0    0  0.20159098288E+02 -0.27934368264E+02 -0.24856656817E+02  0.42480249084E+02  0.00000000000E+00 0.  1.
</event>
<event>
 5    1  0.8778488E-005  0.9118800E+02  0.7818608E-02  0.1130116E+00
         25   -1    0    0    0    0  0.00000000000E+00  0.00000000000E+00  0.99999998245E-14  0.12500000000E+03  0.12500000000E+03 0.  0.
        -11    1    3    3    0    0  0.40353926677E+01 -0.30460240325E+02 -0.20035112217E+02  0.36681280736E+02  0.51100000000E-03 0. -1.
         23    2    1    0    0    0  0.20617605305E+02  0.16836793108E+02  0.11614565437E+02  0.95957593403E+02  0.91457084749E+02 0.  0.
         11    1    3    3    0    0  0.16582212637E+02  0.47297033433E+02  0.31649677654E+02  0.59276312667E+02  0.51100000000E-03 0.  1.
         22    1    1    0    0    0 -0.20617605305E+02 -0.16836793108E+02 -0.11614565437E+02  0.29042406597E+02  0.00000000000E+00 0.  1.
</event>
<event>
 5    1  0.8778488E-005  0.9118800E+02  0.7818608E-02  0.1130116E+00
         25   -1    0    0    0    0  0.00000000000E+00  0.00000000000E+00  0.99999998245E-14  0.12500000000E+03  0.12500000000E+03 0.  0.
        -11    1    3    3    0    0  0.85268354068E+01  0.32146364541E+02 -0.63301779605E+01  0.33855085711E+02  0.51100000000E-03 0. -1.
         23    2    1    0    0    0 -0.13416486862E+02 -0.22043504708E+02  0.13860967197E+02  0.95707601137E+02  0.91114764359E+02 0.  0.
         11    1    3    3    0    0 -0.21943322269E+02 -0.54189869249E+02  0.20191145158E+02  0.61852515425E+02  0.51100000000E-03 0.  1.
         22    1    1    0    0    0  0.13416486862E+02  0.22043504708E+02 -0.13860967197E+02  0.29292398863E+02  0.00000000000E+00 0.  1.
</event>
<event>
 5    1  0.8778488E-005  0.9118800E+02  0.7818608E-02  0.1130116E+00
         25   -1    0    0    0    0  0.00000000000E+00  0.00000000000E+00  0.99999998245E-14  0.12500000000E+03  0.12500000000E+03 0.  0.
        -11    1    3    3    0    0 -0.86148614467E+01 -0.51244789681E+01  0.40607210573E+02  0.41826088429E+02  0.51100000000E-03 0. -1.
         23    2    1    0    0    0 -0.12746900368E+02  0.29988105224E+02  0.49469985346E+01  0.92041803471E+02  0.85938645950E+02 0.  0.
         11    1    3    3    0    0 -0.41320389214E+01  0.35112584192E+02 -0.35660212039E+02  0.50215715042E+02  0.51100000000E-03 0.  1.
         22    1    1    0    0    0  0.12746900368E+02 -0.29988105224E+02 -0.49469985346E+01  0.32958196529E+02  0.00000000000E+00 0.  1.
</event>
<event>
 5    1  0.8778488E-005  0.9118800E+02  0.7818608E-02  0.1130116E+00
         25   -1    0    0    0    0  0.00000000000E+00  0.00000000000E+00  0.99999998245E-14  0.12500000000E+03  0.12500000000E+03 0.  0.
        -11    1    3    3    0    0  0.36120127921E+02 -0.34104731255E+02 -0.11085056781E+02  0.50898672076E+02  0.51100000000E-03 0. -1.
         23    2    1    0    0    0  0.11425042079E+02 -0.42778589193E-01 -0.26844341039E+02  0.95825489510E+02  0.91276351688E+02 0.  0.
         11    1    3    3    0    0 -0.24695085842E+02  0.34061952666E+02 -0.15759284258E+02  0.44926817434E+02  0.51100000000E-03 0.  1.
         22    1    1    0    0    0 -0.11425042079E+02  0.42778589193E-01  0.26844341039E+02  0.29174510490E+02  0.00000000000E+00 0.  1.
</event>
<event>
 5    1  0.8778488E-005  0.9118800E+02  0.7818608E-02  0.1130116E+00
         25   -1    0    0    0    0  0.00000000000E+00  0.00000000000E+00  0.99999998245E-14  0.12500000000E+03  0.12500000000E+03 0.  0.
        -11    1    3    3    0    0  0.76162157252E+00  0.61276821445E+02 -0.80770144436E+01  0.61811544848E+02  0.51100000000E-03 0.  1.
         23    2    1    0    0    0 -0.15475901465E+01  0.28720707106E+02  0.25218840749E+01  0.96127280155E+02  0.91688712712E+02 0.  0.
         11    1    3    3    0    0 -0.23092117190E+01 -0.32556114339E+02  0.10598898518E+02  0.34315735308E+02  0.51100000000E-03 0. -1.
         22    1    1    0    0    0  0.15475901465E+01 -0.28720707106E+02 -0.25218840749E+01  0.28872719845E+02  0.00000000000E+00 0.  1.
</event>
<event>
 5    1  0.8778488E-005  0.9118800E+02  0.7818608E-02  0.1130116E+00
         25   -1    0    0    0    0  0.00000000000E+00  0.00000000000E+00  0.99999998245E-14  0.12500000000E+03  0.12500000000E+03 0.  0.
        -11    1    3    3    0    0  0.46947513431E+02  0.13500561099E+02  0.77998089527E+01  0.49468891106E+02  0.51100000000E-03 0.  1.
         23    2    1    0    0    0  0.13257126771E+02  0.43689406134E+00 -0.23983753368E+02  0.97592652221E+02  0.93665164578E+02 0.  0.
         11    1    3    3    0    0 -0.33690386660E+02 -0.13063667038E+02 -0.31783562321E+02  0.48123761115E+02  0.51100000000E-03 0. -1.
         22    1    1    0    0    0 -0.13257126771E+02 -0.43689406134E+00  0.23983753368E+02  0.27407347779E+02  0.00000000000E+00 0. -1.
</event>
<event>
 5    1  0.8778488E-005  0.9118800E+02  0.7818608E-02  0.1130116E+00
         25   -1    0    0    0    0  0.00000000000E+00  0.00000000000E+00  0.99999998245E-14  0.12500000000E+03  0.12500000000E+03 0.  0.
        -11    1    3    3    0    0  0.22758523216E+02  0.26740262622E+02  0.22450859406E+02  0.41677729214E+02  0.51100000000E-03 0. -1.
         23    2    1    0    0    0  0.20535700880E+02 -0.71329192048E+01 -0.19606400540E+02  0.95725360990E+02  0.91139125778E+02 0.  0.
         11    1    3    3    0    0 -0.22228223359E+01 -0.33873181827E+02 -0.42057259946E+02  0.54047631776E+02  0.51100000000E-03 0.  1.
         22    1    1    0    0    0 -0.20535700880E+02  0.71329192048E+01  0.19606400540E+02  0.29274639010E+02  0.00000000000E+00 0.  1.
</event>
<event>
 5    1  0.8778488E-005  0.9118800E+02  0.7818608E-02  0.1130116E+00
         25   -1    0    0    0    0  0.00000000000E+00  0.00000000000E+00  0.99999998245E-14  0.12500000000E+03  0.12500000000E+03 0.  0.
        -11    1    3    3    0    0  0.10330175613E+02 -0.52484494357E+02 -0.21877513895E+02  0.57792389556E+02  0.51100000000E-03 0.  1.
         23    2    1    0    0    0  0.18944391311E+02 -0.16020473411E+02 -0.15352146933E+02  0.95824086203E+02  0.91274429884E+02 0.  0.
         11    1    3    3    0    0  0.86142156974E+01  0.36464020946E+02  0.65253669614E+01  0.38031696647E+02  0.51100000000E-03 0. -1.
         22    1    1    0    0    0 -0.18944391311E+02  0.16020473411E+02  0.15352146933E+02  0.29175913797E+02  0.00000000000E+00 0.  1.
</event>
<event>
 5    1  0.8778488E-005  0.9118800E+02  0.7818608E-02  0.1130116E+00
         25   -1    0    0    0    0  0.00000000000E+00  0.00000000000E+00  0.99999998245E-14  0.12500000000E+03  0.12500000000E+03 0.  0.
        -11    1    3    3    0    0  0.13248993853E+02 -0.46388482144E+02  0.31058258231E+02  0.57376323674E+02  0.51100000000E-03 0.  1.
         23    2    1    0    0    0  0.21701890246E+02 -0.15171057931E+02  0.72186613969E+01  0.97554743372E+02  0.93614559994E+02 0.  0.
         11    1    3    3    0    0  0.84528963932E+01  0.31217424213E+02 -0.23839596834E+02  0.40178419698E+02  0.51100000000E-03 0. -1.
         22    1    1    0    0    0 -0.21701890246E+02  0.15171057931E+02 -0.72186613969E+01  0.27445256628E+02  0.00000000000E+00 0.  1.
</event>
<event>
 5    1  0.8778488E-005  0.9118800E+02  0.7818608E-02  0.1130116E+00
         25   -1    0    0    0    0  0.00000000000E+00  0.00000000000E+00  0.99999998245E-14  0.12500000000E+03  0.12500000000E+03 0.  0.
        -11    1    3    3    0    0  0.46596732829E+01  0.14429022611E+02 -0.31795496725E+02  0.35225883393E+02  0.51100000000E-03 0.  1.
         23    2    1    0    0    0 -0.12014492275E+02  0.54625531105E+01  0.25890762161E+02  0.95939389607E+02  0.91432201121E+02 0.  0.
         11    1    3    3    0    0 -0.16674165557E+02 -0.89664695005E+01  0.57686258886E+02  0.60713506214E+02  0.51100000000E-03 0. -1.
         22    1    1    0    0    0  0.12014492275E+02 -0.54625531105E+01 -0.25890762161E+02  0.29060610393E+02  0.00000000000E+00 0. -1.
</event>
<event>
 5    1  0.8778488E-005  0.9118800E+02  0.7818608E-02  0.1130116E+00
         25   -1    0    0    0    0  0.00000000000E+00  0.00000000000E+00  0.99999998245E-14  0.12500000000E+03  0.12500000000E+03 0.  0.
        -11    1    3    3    0    0  0.30438251108E+02 -0.24758271733E+01 -0.46991338792E+02  0.56042865491E+02  0.51100000000E-03 0. -1.
         23    2    1    0    0    0  0.25542810280E+02 -0.12082575583E+02 -0.92901071476E+01  0.95255590769E+02  0.90492528377E+02 0.  0.
         11    1    3    3    0    0 -0.48954408286E+01 -0.96067484098E+01  0.37701231644E+02  0.39212725277E+02  0.51100000000E-03 0.  1.
         22    1    1    0    0    0 -0.25542810280E+02  0.12082575583E+02  0.92901071476E+01  0.29744409231E+02  0.00000000000E+00 0.  1.
</event>
<event>
 5    1  0.8778488E-005  0.9118800E+02  0.7818608E-02  0.1130116E+00
         25   -1    0    0    0    0  0.00000000000E+00  0.00000000000E+00  0.99999998245E-14  0.12500000000E+03  0.12500000000E+03 0.  0.
        -11    1    3    3    0    0  0.14385266322E+02 -0.36502642352E+02  0.25540739655E+02  0.46815682930E+02  0.51100000000E-03 0.  1.
         23    2    1    0    0    0  0.19068500077E+02  0.97764718863E+01  0.23240752774E+02  0.93387981918E+02  0.87874885374E+02 0.  0.
         11    1    3    3    0    0  0.46832337552E+01  0.46279114238E+02 -0.22999868810E+01  0.46572298988E+02  0.51100000000E-03 0. -1.
         22    1    1    0    0    0 -0.19068500077E+02 -0.97764718863E+01 -0.23240752774E+02  0.31612018082E+02  0.00000000000E+00 0. -1.
</event>
<event>
 5    1  0.8778488E-005  0.9118800E+02  0.7818608E-02  0.1130116E+00
         25   -1    0    0    0    0  0.00000000000E+00  0.00000000000E+00  0.99999998245E-14  0.12500000000E+03  0.12500000000E+03 0.  0.
        -11    1    3    3    0    0 -0.15050159140E+02  0.26582198440E+02  0.21030462603E+02  0.37086398067E+02  0.51100000000E-03 0.  1.
         23    2    1    0    0    0  0.15922375814E+02 -0.22355231010E+02  0.67445110866E+01  0.96737536646E+02  0.92516939862E+02 0.  0.
         11    1    3    3    0    0  0.30972534954E+02 -0.48937429450E+02 -0.14285951516E+02  0.59651138578E+02  0.51100000000E-03 0. -1.
         22    1    1    0    0    0 -0.15922375814E+02  0.22355231010E+02 -0.67445110866E+01  0.28262463354E+02  0.00000000000E+00 0. -1.
</event>
<event>
 5    1  0.8778488E-005  0.9118800E+02  0.7818608E-02  0.1130116E+00
         25   -1    0    0    0    0  0.00000000000E+00  0.00000000000E+00  0.99999998245E-14  0.12500000000E+03  0.12500000000E+03 0.  0.
        -11    1    3    3    0    0 -0.46136676837E+02  0.15228809396E+02  0.23473440254E+01  0.48641747598E+02  0.51100000000E-03 0.  1.
         23    2    1    0    0    0 -0.18772274011E+02 -0.19599780855E+02 -0.12175470740E+02  0.95254550452E+02  0.90491091346E+02 0.  0.
         11    1    3    3    0    0  0.27364402826E+02 -0.34828590251E+02 -0.14522814766E+02  0.46612802854E+02  0.51100000000E-03 0. -1.
         22    1    1    0    0    0  0.18772274011E+02  0.19599780855E+02  0.12175470740E+02  0.29745449548E+02  0.00000000000E+00 0. -1.
</event>
<event>
 5    1  0.8778488E-005  0.9118800E+02  0.7818608E-02  0.1130116E+00
         25   -1    0    0    0    0  0.00000000000E+00  0.00000000000E+00  0.99999998245E-14  0.12500000000E+03  0.12500000000E+03 0.  0.
        -11    1    3    3    0    0 -0.37034694701E+02 -0.13438163166E+02  0.84725445133E+01  0.40298099852E+02  0.51100000000E-03 0.  1.
         23    2    1    0    0    0  0.17933711647E+02 -0.22226483326E+02  0.42729859291E+01  0.96122794747E+02  0.91682597513E+02 0.  0.
         11    1    3    3    0    0  0.54968406347E+02 -0.87883201596E+01 -0.41995585842E+01  0.55824694895E+02  0.51100000000E-03 0. -1.
         22    1    1    0    0    0 -0.17933711647E+02  0.22226483326E+02 -0.42729859291E+01  0.28877205253E+02  0.00000000000E+00 0. -1.
</event>
<event>
 5    1  0.8778488E-005  0.9118800E+02  0.7818608E-02  0.1130116E+00
         25   -1    0    0    0    0  0.00000000000E+00  0.00000000000E+00  0.99999998245E-14  0.12500000000E+03  0.12500000000E+03 0.  0.
        -11    1    3    3    0    0  0.23987687342E+02 -0.10903097687E+02  0.22907006210E+02  0.34914432789E+02  0.51100000000E-03 0.  1.
         23    2    1    0    0    0 -0.42157471261E+01  0.19634137174E+02 -0.21389482088E+02  0.95660916675E+02  0.91050695597E+02 0.  0.
         11    1    3    3    0    0 -0.28203434469E+02  0.30537234860E+02 -0.44296488298E+02  0.60746483886E+02  0.51100000000E-03 0. -1.
         22    1    1    0    0    0  0.42157471261E+01 -0.19634137174E+02  0.21389482088E+02  0.29339083325E+02  0.00000000000E+00 0. -1.
</event>
<event>
 5    1  0.8778488E-005  0.9118800E+02  0.7818608E-02  0.1130116E+00
         25   -1    0    0    0    0  0.00000000000E+00  0.00000000000E+00  0.99999998245E-14  0.12500000000E+03  0.12500000000E+03 0.  0.
        -11    1    3    3    0    0 -0.90317691155E+01 -0.67902645985E+01  0.57374443714E+02  0.58476553749E+02  0.51100000000E-03 0. -1.
         23    2    1    0    0    0 -0.53506592249E+01  0.12696132078E+02  0.25482949223E+02  0.96031016155E+02  0.91557381127E+02 0.  0.
         11    1    3    3    0    0  0.36811098907E+01  0.19486396677E+02 -0.31891494491E+02  0.37554462406E+02  0.51100000000E-03 0.  1.
         22    1    1    0    0    0  0.53506592249E+01 -0.12696132078E+02 -0.25482949223E+02  0.28968983845E+02  0.00000000000E+00 0. -1.
</event>
<event>
 5    1  0.8778488E-005  0.9118800E+02  0.7818608E-02  0.1130116E+00
         25   -1    0    0    0    0  0.00000000000E+00  0.00000000000E+00  0.99999998245E-14  0.12500000000E+03  0.12500000000E+03 0.  0.
        -11    1    3    3    0    0  0.36740886072E+02  0.28705700284E+02  0.13772245882E+02  0.48616712096E+02  0.51100000000E-03 0.  1.
         23    2    1    0    0    0  0.21418098054E+02  0.24318258580E+02 -0.20666863099E+02  0.86565225967E+02  0.77564853456E+02 0.  0.
         11    1    3    3    0    0 -0.15322788018E+02 -0.43874417031E+01 -0.34439108981E+02  0.37948513871E+02  0.51100000000E-03 0. -1.
         22    1    1    0    0    0 -0.21418098054E+02 -0.24318258580E+02  0.20666863099E+02  0.38434774033E+02  0.00000000000E+00 0.  1.
</event>
<event>
 5    1  0.8778488E-005  0.9118800E+02  0.7818608E-02  0.1130116E+00
         25   -1    0    0    0    0  0.00000000000E+00  0.00000000000E+00  0.99999998245E-14  0.12500000000E+03  0.12500000000E+03 0.  0.
        -11    1    3    3    0    0 -0.34224478716E+02 -0.27414064832E+02 -0.15899159598E+02  0.46643640190E+02  0.51100000000E-03 0.  1.
         23    2    1    0    0    0  0.13372857413E+02 -0.10650780381E+02 -0.21628383725E+02  0.97430824810E+02  0.93448949713E+02 0.  0.
         11    1    3    3    0    0  0.47597336130E+02  0.16763284451E+02 -0.57292241269E+01  0.50787184620E+02  0.51100000000E-03 0. -1.
         22    1    1    0    0    0 -0.13372857413E+02  0.10650780381E+02  0.21628383725E+02  0.27569175190E+02  0.00000000000E+00 0. -1.
</event>
<event>
 5    1  0.8778488E-005  0.9118800E+02  0.7818608E-02  0.1130116E+00
         25   -1    0    0    0    0  0.00000000000E+00  0.00000000000E+00  0.99999998245E-14  0.12500000000E+03  0.12500000000E+03 0.  0.
        -11    1    3    3    0    0 -0.49135679563E+02  0.28694722396E+02 -0.25054718481E+02  0.62172670989E+02  0.51100000000E-03 0. -1.
         23    2    1    0    0    0 -0.24008294544E+02  0.14679904062E+02 -0.74991780098E+01  0.95877234660E+02  0.91347187505E+02 0.  0.
         11    1    3    3    0    0  0.25127385018E+02 -0.14014818333E+02  0.17555540472E+02  0.33704563672E+02  0.51100000000E-03 0.  1.
         22    1    1    0    0    0  0.24008294544E+02 -0.14679904062E+02  0.74991780098E+01  0.29122765340E+02  0.00000000000E+00 0. -1.
</event>
<event>
 5    1  0.8778488E-005  0.9118800E+02  0.7818608E-02  0.1130116E+00
         25   -1    0    0    0    0  0.00000000000E+00  0.00000000000E+00  0.99999998245E-14  0.12500000000E+03  0.12500000000E+03 0.  0.
        -11    1    3    3    0    0  0.12733039031E+02 -0.46990759676E+02 -0.76865593688E+01  0.49288385783E+02  0.51100000000E-03 0.  1.
         23    2    1    0    0    0  0.74627528723E+01 -0.50106001091E+01 -0.27544095832E+02  0.96026287620E+02  0.91550925200E+02 0.  0.
         11    1    3    3    0    0 -0.52702861589E+01  0.41980159567E+02 -0.19857536463E+02  0.46737901837E+02  0.51100000000E-03 0. -1.
         22    1    1    0    0    0 -0.74627528723E+01  0.50106001091E+01  0.27544095832E+02  0.28973712380E+02  0.00000000000E+00 0.  1.
</event>
<event>
 5    1  0.8778488E-005  0.9118800E+02  0.7818608E-02  0.1130116E+00
         25   -1    0    0    0    0  0.00000000000E+00  0.00000000000E+00  0.99999998245E-14  0.12500000000E+03  0.12500000000E+03 0.  0.
        -11    1    3    3    0    0 -0.27787675230E+01  0.31349558943E+02  0.17598946412E+02  0.36058831234E+02  0.51100000000E-03 0. -1.
         23    2    1    0    0    0 -0.25716213980E+02  0.64801714113E+01 -0.23690852296E+02  0.89439168099E+02  0.82065778645E+02 0.  0.
         11    1    3    3    0    0 -0.22937446457E+02 -0.24869387532E+02 -0.41289798708E+02  0.53380336865E+02  0.51100000000E-03 0.  1.
         22    1    1    0    0    0  0.25716213980E+02 -0.64801714113E+01  0.23690852296E+02  0.35560831901E+02  0.00000000000E+00 0.  1.
</event>
<event>
 5    1  0.8778488E-005  0.9118800E+02  0.7818608E-02  0.1130116E+00
         25   -1    0    0    0    0  0.00000000000E+00  0.00000000000E+00  0.99999998245E-14  0.12500000000E+03  0.12500000000E+03 0.  0.
        -11    1    3    3    0    0 -0.13871979119E+02  0.33869787506E+02 -0.42635487097E+02  0.56190560334E+02  0.51100000000E-03 0.  1.
         23    2    1    0    0    0 -0.18516755360E+02  0.21536540432E+02 -0.48781641513E+01  0.96181788947E+02  0.91762994920E+02 0.  0.
         11    1    3    3    0    0 -0.46447762409E+01 -0.12333247074E+02  0.37757322946E+02  0.39991228613E+02  0.51100000000E-03 0. -1.
         22    1    1    0    0    0  0.18516755360E+02 -0.21536540432E+02  0.48781641513E+01  0.28818211053E+02  0.00000000000E+00 0.  1.
</event>
<event>
 5    1  0.8778488E-005  0.9118800E+02  0.7818608E-02  0.1130116E+00
         25   -1    0    0    0    0  0.00000000000E+00  0.00000000000E+00  0.99999998245E-14  0.12500000000E+03  0.12500000000E+03 0.  0.
        -11    1    3    3    0    0  0.50601504841E+02 -0.27602233330E+01 -0.22620980043E+02  0.55496304953E+02  0.51100000000E-03 0. -1.
         23    2    1    0    0    0  0.20023623534E+02  0.19258901597E+02 -0.12645533916E+02  0.94475250727E+02  0.89408124249E+02 0.  0.
         11    1    3    3    0    0 -0.30577881307E+02  0.22019124930E+02  0.99754461274E+01  0.38978945774E+02  0.51100000000E-03 0.  1.
         22    1    1    0    0    0 -0.20023623534E+02 -0.19258901597E+02  0.12645533916E+02  0.30524749273E+02  0.00000000000E+00 0. -1.
</event>
<event>
 5    1  0.8778488E-005  0.9118800E+02  0.7818608E-02  0.1130116E+00
         25   -1    0    0    0    0  0.00000000000E+00  0.00000000000E+00  0.99999998245E-14  0.12500000000E+03  0.12500000000E+03 0.  0.
        -11    1    3    3    0    0  0.63966897708E+01 -0.46435423688E+02  0.31389516866E+01  0.46978923264E+02  0.51100000000E-03 0.  1.
         23    2    1    0    0    0 -0.26055529436E+02 -0.12074944667E+02 -0.72744088004E+01  0.95375484370E+02  0.90657989678E+02 0.  0.
         11    1    3    3    0    0 -0.32452219207E+02  0.34360479021E+02 -0.10413360487E+02  0.48396561106E+02  0.51100000000E-03 0. -1.
         22    1    1    0    0    0  0.26055529436E+02  0.12074944667E+02  0.72744088004E+01  0.29624515630E+02  0.00000000000E+00 0. -1.
</event>
<event>
 5    1  0.8778488E-005  0.9118800E+02  0.7818608E-02  0.1130116E+00
         25   -1    0    0    0    0  0.00000000000E+00  0.00000000000E+00  0.99999998245E-14  0.12500000000E+03  0.12500000000E+03 0.  0.
        -11    1    3    3    0    0  0.88064053421E+00 -0.39897195938E+02 -0.97344701272E+01  0.41077021318E+02  0.51100000000E-03 0. -1.
         23    2    1    0    0    0  0.10353268801E+01 -0.60052216560E+00  0.28835501596E+02  0.96139669425E+02  0.91705601553E+02 0.  0.
         11    1    3    3    0    0  0.15468634592E+00  0.39296673773E+02  0.38569971723E+02  0.55062648106E+02  0.51100000000E-03 0.  1.
         22    1    1    0    0    0 -0.10353268801E+01  0.60052216560E+00 -0.28835501596E+02  0.28860330575E+02  0.00000000000E+00 0.  1.
</event>
<event>
 5    1  0.8778488E-005  0.9118800E+02  0.7818608E-02  0.1130116E+00
         25   -1    0    0    0    0  0.00000000000E+00  0.00000000000E+00  0.99999998245E-14  0.12500000000E+03  0.12500000000E+03 0.  0.
        -11    1    3    3    0    0  0.14578341771E+02 -0.33132150087E+02 -0.93600430710E+00  0.36209715858E+02  0.51100000000E-03 0.  1.
         23    2    1    0    0    0  0.14426859373E+02  0.15274094982E+02  0.25973171062E+02  0.91592847115E+02  0.85283127163E+02 0.  0.
         11    1    3    3    0    0 -0.15148239872E+00  0.48406245068E+02  0.26909175369E+02  0.55383131257E+02  0.51100000000E-03 0. -1.
         22    1    1    0    0    0 -0.14426859373E+02 -0.15274094982E+02 -0.25973171062E+02  0.33407152885E+02  0.00000000000E+00 0. -1.
</event>
<event>
 5    1  0.8778488E-005  0.9118800E+02  0.7818608E-02  0.1130116E+00
         25   -1    0    0    0    0  0.00000000000E+00  0.00000000000E+00  0.99999998245E-14  0.12500000000E+03  0.12500000000E+03 0.  0.
        -11    1    3    3    0    0 -0.14870041714E+02 -0.22232348676E+02 -0.32302475797E+02  0.41938590953E+02  0.51100000000E-03 0.  1.
         23    2    1    0    0    0  0.67892400779E+01  0.24035253666E+02 -0.14950984724E+02  0.95891253139E+02  0.91366368456E+02 0.  0.
         11    1    3    3    0    0  0.21659281792E+02  0.46267602342E+02  0.17351491074E+02  0.53952662186E+02  0.51100000000E-03 0. -1.
         22    1    1    0    0    0 -0.67892400779E+01 -0.24035253666E+02  0.14950984724E+02  0.29108746861E+02  0.00000000000E+00 0. -1.
</event>
<event>
 5    1  0.8778488E-005  0.9118800E+02  0.7818608E-02  0.1130116E+00
         25   -1    0    0    0    0  0.00000000000E+00  0.00000000000E+00  0.99999998245E-14  0.12500000000E+03  0.12500000000E+03 0.  0.
        -11    1    3    3    0    0  0.25864150578E+02  0.56499868616E+01 -0.56454718201E+02  0.62353924047E+02  0.51100000000E-03 0. -1.
         23    2    1    0    0    0  0.11613373314E+02  0.46409744798E+01 -0.31489666989E+02  0.91117730139E+02  0.84583878694E+02 0.  0.
         11    1    3    3    0    0 -0.14250777265E+02 -0.10090123818E+01  0.24965051212E+02  0.28763806092E+02  0.51100000000E-03 0.  1.
         22    1    1    0    0    0 -0.11613373314E+02 -0.46409744798E+01  0.31489666989E+02  0.33882269861E+02  0.00000000000E+00 0. -1.
</event>
<event>
 5    1  0.8778488E-005  0.9118800E+02  0.7818608E-02  0.1130116E+00
         25   -1    0    0    0    0  0.00000000000E+00  0.00000000000E+00  0.99999998245E-14  0.12500000000E+03  0.12500000000E+03 0.  0.
        -11    1    3    3    0    0 -0.16153789741E+02  0.32532653038E+02 -0.17764631932E+02  0.40433903901E+02  0.51100000000E-03 0. -1.
         23    2    1    0    0    0 -0.24668808447E+02 -0.14669686193E+02  0.84322382919E+01  0.95085915595E+02  0.90257846744E+02 0.  0.
         11    1    3    3    0    0 -0.85150187055E+01 -0.47202339231E+02  0.26196870224E+02  0.54652011694E+02  0.51100000000E-03 0.  1.
         22    1    1    0    0    0  0.24668808447E+02  0.14669686193E+02 -0.84322382919E+01  0.29914084405E+02  0.00000000000E+00 0.  1.
</event>
<event>
 5    1  0.8778488E-005  0.9118800E+02  0.7818608E-02  0.1130116E+00
         25   -1    0    0    0    0  0.00000000000E+00  0.00000000000E+00  0.99999998245E-14  0.12500000000E+03  0.12500000000E+03 0.  0.
        -11    1    3    3    0    0  0.35317262029E+02  0.12942334055E+01  0.61079642631E+01  0.35864902969E+02  0.51100000000E-03 0. -1.
         23    2    1    0    0    0 -0.23046769129E+02 -0.12477549029E+02  0.12106767478E+02  0.96131044082E+02  0.91693843962E+02 0.  0.
         11    1    3    3    0    0 -0.58364031157E+02 -0.13771782435E+02  0.59988032147E+01  0.60266141113E+02  0.51100000000E-03 0.  1.
         22    1    1    0    0    0  0.23046769129E+02  0.12477549029E+02 -0.12106767478E+02  0.28868955918E+02  0.00000000000E+00 0.  1.
</event>
<event>
 5    1  0.8778488E-005  0.9118800E+02  0.7818608E-02  0.1130116E+00
         25   -1    0    0    0    0  0.00000000000E+00  0.00000000000E+00  0.99999998245E-14  0.12500000000E+03  0.12500000000E+03 0.  0.
        -11    1    3    3    0    0 -0.25204913785E+02 -0.35316334766E+01 -0.25908995901E+02  0.36318537729E+02  0.51100000000E-03 0.  1.
         23    2    1    0    0    0  0.78936251669E+01  0.20925083618E+02  0.17847187777E+02  0.96387230923E+02  0.92042423538E+02 0.  0.
         11    1    3    3    0    0  0.33098538952E+02  0.24456717095E+02  0.43756183677E+02  0.60068693194E+02  0.51100000000E-03 0. -1.
         22    1    1    0    0    0 -0.78936251669E+01 -0.20925083618E+02 -0.17847187777E+02  0.28612769077E+02  0.00000000000E+00 0. -1.
</event>
<event>
 5    1  0.8778488E-005  0.9118800E+02  0.7818608E-02  0.1130116E+00
         25   -1    0    0    0    0  0.00000000000E+00  0.00000000000E+00  0.99999998245E-14  0.12500000000E+03  0.12500000000E+03 0.  0.
        -11    1    3    3    0    0 -0.26098878117E+02 -0.18409010042E+02  0.19039989954E+02  0.37182849640E+02  0.51100000000E-03 0. -1.
         23    2    1    0    0    0  0.22920886179E+02  0.50775463132E+01 -0.10763977246E+02  0.99173430232E+02  0.95751540761E+02 0.  0.
         11    1    3    3    0    0  0.49019764296E+02  0.23486556355E+02 -0.29803967200E+02  0.61990580592E+02  0.51100000000E-03 0.  1.
         22    1    1    0    0    0 -0.22920886179E+02 -0.50775463132E+01  0.10763977246E+02  0.25826569768E+02  0.00000000000E+00 0.  1.
</event>
<event>
 5    1  0.8778488E-005  0.9118800E+02  0.7818608E-02  0.1130116E+00
         25   -1    0    0    0    0  0.00000000000E+00  0.00000000000E+00  0.99999998245E-14  0.12500000000E+03  0.12500000000E+03 0.  0.
        -11    1    3    3    0    0 -0.91460681505E+01 -0.26935652779E+02 -0.28972620574E+02  0.40602865619E+02  0.51100000000E-03 0.  1.
         23    2    1    0    0    0 -0.25947850252E+02 -0.58560812656E-01  0.15167214270E+02  0.94944405666E+02  0.90061653419E+02 0.  0.
         11    1    3    3    0    0 -0.16801782101E+02  0.26877091966E+02  0.44139834844E+02  0.54341540047E+02  0.51100000000E-03 0. -1.
         22    1    1    0    0    0  0.25947850252E+02  0.58560812656E-01 -0.15167214270E+02  0.30055594334E+02  0.00000000000E+00 0. -1.
</event>
<event>
 5    1  0.8778488E-005  0.9118800E+02  0.7818608E-02  0.1130116E+00
         25   -1    0    0    0    0  0.00000000000E+00  0.00000000000E+00  0.99999998245E-14  0.12500000000E+03  0.12500000000E+03 0.  0.
        -11    1    3    3    0    0 -0.78731851584E+01 -0.50708719434E+02  0.35451451410E+02  0.62371200714E+02  0.51100000000E-03 0. -1.
         23    2    1    0    0    0 -0.30065256714E+01 -0.31125155815E+02  0.24070713232E+02  0.85538452176E+02  0.75892114505E+02 0.  0.
         11    1    3    3    0    0  0.48666594869E+01  0.19583563619E+02 -0.11380738177E+02  0.23167251462E+02  0.51100000000E-03 0.  1.
         22    1    1    0    0    0  0.30065256714E+01  0.31125155815E+02 -0.24070713232E+02  0.39461547824E+02  0.00000000000E+00 0. -1.
</event>
<event>
 5    1  0.8778488E-005  0.9118800E+02  0.7818608E-02  0.1130116E+00
         25   -1    0    0    0    0  0.00000000000E+00  0.00000000000E+00  0.99999998245E-14  0.12500000000E+03  0.12500000000E+03 0.  0.
        -11    1    3    3    0    0  0.24640678349E+02  0.52369404736E+02 -0.23474617976E+01  0.57924331322E+02  0.51100000000E-03 0.  1.
         23    2    1    0    0    0  0.24645761077E+02  0.15880724903E+02 -0.74007144272E+01  0.94761257689E+02  0.89807095612E+02 0.  0.
         11    1    3    3    0    0  0.50827281201E-02 -0.36488679833E+02 -0.50532526296E+01  0.36836926367E+02  0.51100000000E-03 0. -1.
         22    1    1    0    0    0 -0.24645761077E+02 -0.15880724903E+02  0.74007144272E+01  0.30238742311E+02  0.00000000000E+00 0.  1.
</event>
<event>
 5    1  0.8778488E-005  0.9118800E+02  0.7818608E-02  0.1130116E+00
         25   -1    0    0    0    0  0.00000000000E+00  0.00000000000E+00  0.99999998245E-14  0.12500000000E+03  0.12500000000E+03 0.  0.
        -11    1    3    3    0    0 -0.42190337510E+02 -0.22161224890E+02  0.27182589185E+02  0.54863809774E+02  0.51100000000E-03 0. -1.
         23    2    1    0    0    0 -0.29104764702E+02  0.30781623325E+01 -0.20752897580E+01  0.95659426739E+02  0.91048650099E+02 0.  0.
         11    1    3    3    0    0  0.13085572809E+02  0.25239387222E+02 -0.29257878943E+02  0.40795616966E+02  0.51100000000E-03 0.  1.
         22    1    1    0    0    0  0.29104764702E+02 -0.30781623325E+01  0.20752897580E+01  0.29340573261E+02  0.00000000000E+00 0. -1.
</event>
<event>
 5    1  0.8778488E-005  0.9118800E+02  0.7818608E-02  0.1130116E+00
         25   -1    0    0    0    0  0.00000000000E+00  0.00000000000E+00  0.99999998245E-14  0.12500000000E+03  0.12500000000E+03 0.  0.
        -11    1    3    3    0    0 -0.43416499936E+02  0.69748923283E+01 -0.41283283043E+02  0.60315429608E+02  0.51100000000E-03 0.  1.
         23    2    1    0    0    0 -0.24456251084E+02 -0.39822310646E+01 -0.33010511928E+02  0.83724580207E+02  0.72843291055E+02 0.  0.
         11    1    3    3    0    0  0.18960248852E+02 -0.10957123393E+02  0.82727711152E+01  0.23409150599E+02  0.51100000000E-03 0. -1.
         22    1    1    0    0    0  0.24456251084E+02  0.39822310646E+01  0.33010511928E+02  0.41275419793E+02  0.00000000000E+00 0.  1.
</event>
<event>
 5    1  0.8778488E-005  0.9118800E+02  0.7818608E-02  0.1130116E+00
         25   -1    0    0    0    0  0.00000000000E+00  0.00000000000E+00  0.99999998245E-14  0.12500000000E+03  0.12500000000E+03 0.  0.
        -11    1    3    3    0    0 -0.26365605920E+02 -0.22442631781E+02 -0.67593767627E+00  0.34630532609E+02  0.51100000000E-03 0.  1.
         23    2    1    0    0    0  0.26591262506E+02 -0.12455166859E+01  0.15850493897E+02  0.94017993766E+02  0.88766538974E+02 0.  0.
         11    1    3    3    0    0  0.52956868426E+02  0.21197115095E+02  0.16526431574E+02  0.59387461157E+02  0.51100000000E-03 0. -1.
         22    1    1    0    0    0 -0.26591262506E+02  0.12455166859E+01 -0.15850493897E+02  0.30982006234E+02  0.00000000000E+00 0. -1.
</event>
<event>
 5    1  0.8778488E-005  0.9118800E+02  0.7818608E-02  0.1130116E+00
         25   -1    0    0    0    0  0.00000000000E+00  0.00000000000E+00  0.99999998245E-14  0.12500000000E+03  0.12500000000E+03 0.  0.
        -11    1    3    3    0    0 -0.29413492309E+01 -0.51523757526E+02  0.30377143752E+02  0.59884221526E+02  0.51100000000E-03 0.  1.
         23    2    1    0    0    0  0.94129257489E+01 -0.19109906546E+02  0.19180774113E+02  0.96334798188E+02  0.91971188679E+02 0.  0.
         11    1    3    3    0    0  0.12354274980E+02  0.32413850980E+02 -0.11196369639E+02  0.36450576662E+02  0.51100000000E-03 0. -1.
         22    1    1    0    0    0 -0.94129257489E+01  0.19109906546E+02 -0.19180774113E+02  0.28665201812E+02  0.00000000000E+00 0.  1.
</event>
<event>
 5    1  0.8778488E-005  0.9118800E+02  0.7818608E-02  0.1130116E+00
         25   -1    0    0    0    0  0.00000000000E+00  0.00000000000E+00  0.99999998245E-14  0.12500000000E+03  0.12500000000E+03 0.  0.
        -11    1    3    3    0    0  0.42178810404E+02  0.12195770199E+02 -0.20703723102E+02  0.48543104643E+02  0.51100000000E-03 0. -1.
         23    2    1    0    0    0 -0.20171880956E+01  0.26077576841E+02 -0.13947731141E+02  0.95357998284E+02  0.90633876509E+02 0.  0.
         11    1    3    3    0    0 -0.44195998499E+02  0.13881806642E+02  0.67559919612E+01  0.46814893641E+02  0.51100000000E-03 0.  1.
         22    1    1    0    0    0  0.20171880956E+01 -0.26077576841E+02  0.13947731141E+02  0.29642001716E+02  0.00000000000E+00 0. -1.
</event>
<event>
 5    1  0.8778488E-005  0.9118800E+02  0.7818608E-02  0.1130116E+00
         25   -1    0    0    0    0  0.00000000000E+00  0.00000000000E+00  0.99999998245E-14  0.12500000000E+03  0.12500000000E+03 0.  0.
        -11    1    3    3    0    0  0.29161797986E+02 -0.48914916460E+00 -0.47640410512E+02  0.55859273561E+02  0.51100000000E-03 0. -1.
         23    2    1    0    0    0 -0.58085367888E+01  0.51524323795E+01 -0.27107221382E+02  0.96802693212E+02  0.92604931310E+02 0.  0.
         11    1    3    3    0    0 -0.34970334775E+02  0.56415815441E+01  0.20533189130E+02  0.40943419651E+02  0.51100000000E-03 0.  1.
         22    1    1    0    0    0  0.58085367888E+01 -0.51524323795E+01  0.27107221382E+02  0.28197306788E+02  0.00000000000E+00 0. -1.
</event>
<event>
 5    1  0.8778488E-005  0.9118800E+02  0.7818608E-02  0.1130116E+00
         25   -1    0    0    0    0  0.00000000000E+00  0.00000000000E+00  0.99999998245E-14  0.12500000000E+03  0.12500000000E+03 0.  0.
        -11    1    3    3    0    0 -0.34239115202E+02 -0.32295788672E+02 -0.26097987335E+02  0.53818583398E+02  0.51100000000E-03 0.  1.
         23    2    1    0    0    0 -0.20247320152E+01 -0.72342100698E+01 -0.29293782090E+02  0.94758323389E+02  0.89803011349E+02 0.  0.
         11    1    3    3    0    0  0.32214383187E+02  0.25061578603E+02 -0.31957947552E+01  0.40939739991E+02  0.51100000000E-03 0. -1.
         22    1    1    0    0    0  0.20247320152E+01  0.72342100698E+01  0.29293782090E+02  0.30241676611E+02  0.00000000000E+00 0. -1.
</event>
<event>
 5    1  0.8778488E-005  0.9118800E+02  0.7818608E-02  0.1130116E+00
         25   -1    0    0    0    0  0.00000000000E+00  0.00000000000E+00  0.99999998245E-14  0.12500000000E+03  0.12500000000E+03 0.  0.
        -11    1    3    3    0    0 -0.16306029435E+02  0.28001991220E+02 -0.11522091442E+02  0.34391229982E+02  0.51100000000E-03 0. -1.
         23    2    1    0    0    0 -0.24698764312E+01 -0.27225731832E+02  0.10883326344E+02  0.95575731859E+02  0.90933673436E+02 0.  0.
         11    1    3    3    0    0  0.13836153004E+02 -0.55227723052E+02  0.22405417786E+02  0.61184501876E+02  0.51100000000E-03 0.  1.
         22    1    1    0    0    0  0.24698764312E+01  0.27225731832E+02 -0.10883326344E+02  0.29424268141E+02  0.00000000000E+00 0.  1.
</event>
<event>
 5    1  0.8778488E-005  0.9118800E+02  0.7818608E-02  0.1130116E+00
         25   -1    0    0    0    0  0.00000000000E+00  0.00000000000E+00  0.99999998245E-14  0.12500000000E+03  0.12500000000E+03 0.  0.
        -11    1    3    3    0    0 -0.74753909612E+01 -0.38677092247E+02  0.31891406593E+01  0.39521760501E+02  0.51100000000E-03 0. -1.
         23    2    1    0    0    0 -0.13821842985E+02  0.16724757020E+02 -0.15500906953E+02  0.98334686252E+02  0.94650259181E+02 0.  0.
         11    1    3    3    0    0 -0.63464520240E+01  0.55401849266E+02 -0.18690047613E+02  0.58812925752E+02  0.51100000000E-03 0.  1.
         22    1    1    0    0    0  0.13821842985E+02 -0.16724757020E+02  0.15500906953E+02  0.26665313748E+02  0.00000000000E+00 0.  1.
</event>
<event>
 5    1  0.8778488E-005  0.9118800E+02  0.7818608E-02  0.1130116E+00
         25   -1    0    0    0    0  0.00000000000E+00  0.00000000000E+00  0.99999998245E-14  0.12500000000E+03  0.12500000000E+03 0.  0.
        -11    1    3    3    0    0 -0.26317032080E+02  0.21846440735E+02 -0.10657482874E+02  0.35825062342E+02  0.51100000000E-03 0.  1.
         23    2    1    0    0    0  0.61100964768E+01 -0.25768935800E+02  0.95087495496E+01  0.96861278472E+02  0.92683977137E+02 0.  0.
         11    1    3    3    0    0  0.32427128557E+02 -0.47615376536E+02  0.20166232423E+02  0.61036216130E+02  0.51100000000E-03 0. -1.
         22    1    1    0    0    0 -0.61100964768E+01  0.25768935800E+02 -0.95087495496E+01  0.28138721528E+02  0.00000000000E+00 0. -1.
</event>
<event>
 5    1  0.8778488E-005  0.9118800E+02  0.7818608E-02  0.1130116E+00
         25   -1    0    0    0    0  0.00000000000E+00  0.00000000000E+00  0.99999998245E-14  0.12500000000E+03  0.12500000000E+03 0.  0.
        -11    1    3    3    0    0  0.14128993017E+02 -0.32969231999E+02  0.49472602383E+02  0.61107586183E+02  0.51100000000E-03 0. -1.
         23    2    1    0    0    0  0.10488728382E+02 -0.66403533728E+01  0.24287319003E+02  0.97723974256E+02  0.93840255563E+02 0.  0.
         11    1    3    3    0    0 -0.36402646346E+01  0.26328878626E+02 -0.25185283380E+02  0.36616388073E+02  0.51100000000E-03 0.  1.
         22    1    1    0    0    0 -0.10488728382E+02  0.66403533728E+01 -0.24287319003E+02  0.27276025744E+02  0.00000000000E+00 0. -1.
</event>
<event>
 5    1  0.8778488E-005  0.9118800E+02  0.7818608E-02  0.1130116E+00
         25   -1    0    0    0    0  0.00000000000E+00  0.00000000000E+00  0.99999998245E-14  0.12500000000E+03  0.12500000000E+03 0.  0.
        -11    1    3    3    0    0 -0.37539613818E+02 -0.22301497883E+01 -0.20317435450E+02  0.42743354539E+02  0.51100000000E-03 0.  1.
         23    2    1    0    0    0  0.15119719109E+02 -0.41373753238E+01 -0.24836205364E+02  0.95630613262E+02  0.91009083698E+02 0.  0.
         11    1    3    3    0    0  0.52659332926E+02 -0.19072255355E+01 -0.45187699133E+01  0.52887258723E+02  0.51100000000E-03 0. -1.
         22    1    1    0    0    0 -0.15119719109E+02  0.41373753238E+01  0.24836205364E+02  0.29369386738E+02  0.00000000000E+00 0. -1.
</event>
<event>
 5    1  0.8778488E-005  0.9118800E+02  0.7818608E-02  0.1130116E+00
         25   -1    0    0    0    0  0.00000000000E+00  0.00000000000E+00  0.99999998245E-14  0.12500000000E+03  0.12500000000E+03 0.  0.
        -11    1    3    3    0    0  0.19428553610E+02 -0.21489809038E+02  0.21005914095E+02  0.35784480087E+02  0.51100000000E-03 0.  1.
         23    2    1    0    0    0  0.37336189062E+01  0.10952486500E+02 -0.26890630500E+02  0.95725388485E+02  0.91139163488E+02 0.  0.
         11    1    3    3    0    0 -0.15694934704E+02  0.32442295538E+02 -0.47896544595E+02  0.59940908398E+02  0.51100000000E-03 0. -1.
         22    1    1    0    0    0 -0.37336189062E+01 -0.10952486500E+02  0.26890630500E+02  0.29274611515E+02  0.00000000000E+00 0. -1.
</event>
<event>
 5    1  0.8778488E-005  0.9118800E+02  0.7818608E-02  0.1130116E+00
         25   -1    0    0    0    0  0.00000000000E+00  0.00000000000E+00  0.99999998245E-14  0.12500000000E+03  0.12500000000E+03 0.  0.
        -11    1    3    3    0    0 -0.47628859910E+02  0.22762199771E+02  0.43910258905E+01  0.52970814071E+02  0.51100000000E-03 0.  1.
         23    2    1    0    0    0 -0.65649776482E+01  0.22707427470E+01  0.21850012421E+02  0.10207232574E+03  0.99463970538E+02 0.  0.
         11    1    3    3    0    0  0.41063882261E+02 -0.20491457024E+02  0.17458986530E+02  0.49101511670E+02  0.51100000000E-03 0. -1.
         22    1    1    0    0    0  0.65649776482E+01 -0.22707427470E+01 -0.21850012421E+02  0.22927674259E+02  0.00000000000E+00 0. -1.
</event>
<event>
 5    1  0.8778488E-005  0.9118800E+02  0.7818608E-02  0.1130116E+00
         25   -1    0    0    0    0  0.00000000000E+00  0.00000000000E+00  0.99999998245E-14  0.12500000000E+03  0.12500000000E+03 0.  0.
        -11    1    3    3    0    0 -0.25588150596E+02  0.28983800730E+02 -0.22856721928E+01  0.38730329889E+02  0.51100000000E-03 0.  1.
         23    2    1    0    0    0  0.26390964828E+02  0.19532419860E+02 -0.57172164882E+01  0.91673058729E+02  0.85400612892E+02 0.  0.
         11    1    3    3    0    0  0.51979115423E+02 -0.94513808706E+01 -0.34315442954E+01  0.52942728840E+02  0.51100000000E-03 0. -1.
         22    1    1    0    0    0 -0.26390964828E+02 -0.19532419860E+02  0.57172164882E+01  0.33326941271E+02  0.00000000000E+00 0. -1.
</event>
<event>
 5    1  0.8778488E-005  0.9118800E+02  0.7818608E-02  0.1130116E+00
         25   -1    0    0    0    0  0.00000000000E+00  0.00000000000E+00  0.99999998245E-14  0.12500000000E+03  0.12500000000E+03 0.  0.
        -11    1    3    3    0    0  0.23798241770E+01  0.26175991602E+02 -0.20813066389E+02  0.33526554136E+02  0.51100000000E-03 0.  1.
         23    2    1    0    0    0  0.70480176191E+01 -0.28827147411E+02  0.57271026685E+01  0.94776190095E+02  0.89827877208E+02 0.  0.
         11    1    3    3    0    0  0.46681934422E+01 -0.55003139013E+02  0.26540169057E+02  0.61249635959E+02  0.51100000000E-03 0. -1.
         22    1    1    0    0    0 -0.70480176191E+01  0.28827147411E+02 -0.57271026685E+01  0.30223809905E+02  0.00000000000E+00 0. -1.
</event>
<event>
 5    1  0.8778488E-005  0.9118800E+02  0.7818608E-02  0.1130116E+00
         25   -1    0    0    0    0  0.00000000000E+00  0.00000000000E+00  0.99999998245E-14  0.12500000000E+03  0.12500000000E+03 0.  0.
        -11    1    3    3    0    0 -0.13647658074E+02  0.12536904282E+02  0.36756143182E+02  0.41163656321E+02  0.51100000000E-03 0. -1.
         23    2    1    0    0    0  0.28413724525E+02  0.93374504539E+01  0.34841488206E+01  0.94889088101E+02  0.89984843309E+02 0.  0.
         11    1    3    3    0    0  0.42061382599E+02 -0.31994538280E+01 -0.33271994361E+02  0.53725431780E+02  0.51100000000E-03 0.  1.
         22    1    1    0    0    0 -0.28413724525E+02 -0.93374504539E+01 -0.34841488206E+01  0.30110911899E+02  0.00000000000E+00 0.  1.
</event>
<event>
 5    1  0.8778488E-005  0.9118800E+02  0.7818608E-02  0.1130116E+00
         25   -1    0    0    0    0  0.00000000000E+00  0.00000000000E+00  0.99999998245E-14  0.12500000000E+03  0.12500000000E+03 0.  0.
        -11    1    3    3    0    0 -0.53161810137E+02  0.30219036280E+02  0.59847347220E+01  0.61442536249E+02  0.51100000000E-03 0.  1.
         23    2    1    0    0    0 -0.23839780178E+02  0.52488010408E+01 -0.92826540799E+00  0.10057160038E+03  0.97559725785E+02 0.  0.
         11    1    3    3    0    0  0.29322029959E+02 -0.24970235239E+02 -0.69130001300E+01  0.39129064132E+02  0.51100000000E-03 0. -1.
         22    1    1    0    0    0  0.23839780178E+02 -0.52488010408E+01  0.92826540799E+00  0.24428399619E+02  0.00000000000E+00 0.  1.
</event>
<event>
 5    1  0.8778488E-005  0.9118800E+02  0.7818608E-02  0.1130116E+00
         25   -1    0    0    0    0  0.00000000000E+00  0.00000000000E+00  0.99999998245E-14  0.12500000000E+03  0.12500000000E+03 0.  0.
        -11    1    3    3    0    0  0.23627001127E+02  0.36200537592E+02 -0.87398093599E+01  0.44103269404E+02  0.51100000000E-03 0. -1.
         23    2    1    0    0    0  0.25400442547E+02 -0.14538316373E+02  0.60994697358E+00  0.95726852580E+02  0.91141171515E+02 0.  0.
         11    1    3    3    0    0  0.17734414198E+01 -0.50738853965E+02  0.93497563335E+01  0.51623583176E+02  0.51100000000E-03 0.  1.
         22    1    1    0    0    0 -0.25400442547E+02  0.14538316373E+02 -0.60994697358E+00  0.29273147420E+02  0.00000000000E+00 0.  1.
</event>
<event>
 5    1  0.8778488E-005  0.9118800E+02  0.7818608E-02  0.1130116E+00
         25   -1    0    0    0    0  0.00000000000E+00  0.00000000000E+00  0.99999998245E-14  0.12500000000E+03  0.12500000000E+03 0.  0.
        -11    1    3    3    0    0  0.35404308221E+02  0.28962853071E+02  0.41605399454E+02  0.61833010299E+02  0.51100000000E-03 0. -1.
         23    2    1    0    0    0  0.21200467766E+02  0.13111592040E+02  0.14988289686E+02  0.95913533955E+02  0.91396846164E+02 0.  0.
         11    1    3    3    0    0 -0.14203840456E+02 -0.15851261032E+02 -0.26617109768E+02  0.34080523656E+02  0.51100000000E-03 0.  1.
         22    1    1    0    0    0 -0.21200467766E+02 -0.13111592040E+02 -0.14988289686E+02  0.29086466045E+02  0.00000000000E+00 0. -1.
</event>
<event>
 5    1  0.8778488E-005  0.9118800E+02  0.7818608E-02  0.1130116E+00
         25   -1    0    0    0    0  0.00000000000E+00  0.00000000000E+00  0.99999998245E-14  0.12500000000E+03  0.12500000000E+03 0.  0.
        -11    1    3    3    0    0 -0.35325575991E+02 -0.29387955883E+01  0.48160444968E+02  0.59799341956E+02  0.51100000000E-03 0.  1.
         23    2    1    0    0    0 -0.23007642188E+02 -0.12067159084E+02  0.18768579634E+02  0.92949609848E+02  0.87249082873E+02 0.  0.
         11    1    3    3    0    0  0.12317933803E+02 -0.91283634954E+01 -0.29391865334E+02  0.33150267893E+02  0.51100000000E-03 0. -1.
         22    1    1    0    0    0  0.23007642188E+02  0.12067159084E+02 -0.18768579634E+02  0.32050390152E+02  0.00000000000E+00 0.  1.
</event>
<event>
 5    1  0.8778488E-005  0.9118800E+02  0.7818608E-02  0.1130116E+00
         25   -1    0    0    0    0  0.00000000000E+00  0.00000000000E+00  0.99999998245E-14  0.12500000000E+03  0.12500000000E+03 0.  0.
        -11    1    3    3    0    0  0.31906845644E+02  0.12331175347E+01 -0.95694930225E+01  0.33333805285E+02  0.51100000000E-03 0.  1.
         23    2    1    0    0    0 -0.28002042665E+02  0.25627838108E+01  0.79729941425E+01  0.95772429285E+02  0.91203658486E+02 0.  0.
         11    1    3    3    0    0 -0.59908888309E+02  0.13296662761E+01  0.17542487165E+02  0.62438624000E+02  0.51100000000E-03 0. -1.
         22    1    1    0    0    0  0.28002042665E+02 -0.25627838108E+01 -0.79729941425E+01  0.29227570715E+02  0.00000000000E+00 0. -1.
</event>
<event>
 5    1  0.8778488E-005  0.9118800E+02  0.7818608E-02  0.1130116E+00
         25   -1    0    0    0    0  0.00000000000E+00  0.00000000000E+00  0.99999998245E-14  0.12500000000E+03  0.12500000000E+03 0.  0.
        -11    1    3    3    0    0  0.18605463601E+01 -0.29343076889E+02  0.27781193348E+02  0.40450865234E+02  0.51100000000E-03 0.  1.
         23    2    1    0    0    0 -0.19736313084E+02  0.18590809127E+02  0.12057967969E+02  0.95326192869E+02  0.90590000647E+02 0.  0.
         11    1    3    3    0    0 -0.21596859444E+02  0.47933886016E+02 -0.15723225380E+02  0.54875327635E+02  0.51100000000E-03 0. -1.
         22    1    1    0    0    0  0.19736313084E+02 -0.18590809127E+02 -0.12057967969E+02  0.29673807131E+02  0.00000000000E+00 0. -1.
</event>
<event>
 5    1  0.8778488E-005  0.9118800E+02  0.7818608E-02  0.1130116E+00
         25   -1    0    0    0    0  0.00000000000E+00  0.00000000000E+00  0.99999998245E-14  0.12500000000E+03  0.12500000000E+03 0.  0.
        -11    1    3    3    0    0  0.78310083616E+01 -0.27199281974E+02 -0.30966167259E+02  0.41952701305E+02  0.51100000000E-03 0.  1.
         23    2    1    0    0    0 -0.27297217303E+02  0.65166832377E+01 -0.78084931935E+01  0.95869641285E+02  0.91336796097E+02 0.  0.
         11    1    3    3    0    0 -0.35128225664E+02  0.33715965212E+02  0.23157674065E+02  0.53916939980E+02  0.51100000000E-03 0. -1.
         22    1    1    0    0    0  0.27297217303E+02 -0.65166832377E+01  0.78084931935E+01  0.29130358715E+02  0.00000000000E+00 0.  1.
</event>
<event>
 5    1  0.8778488E-005  0.9118800E+02  0.7818608E-02  0.1130116E+00
         25   -1    0    0    0    0  0.00000000000E+00  0.00000000000E+00  0.99999998245E-14  0.12500000000E+03  0.12500000000E+03 0.  0.
        -11    1    3    3    0    0 -0.19071922606E+02  0.23184842505E+02 -0.59364438281E+01  0.30602557401E+02  0.51100000000E-03 0.  1.
         23    2    1    0    0    0  0.16235615493E+02 -0.26542861335E+02  0.73693652154E+01  0.93024599424E+02  0.87356452859E+02 0.  0.
         11    1    3    3    0    0  0.35307538099E+02 -0.49727703840E+02  0.13305809044E+02  0.62422042024E+02  0.51100000000E-03 0. -1.
         22    1    1    0    0    0 -0.16235615493E+02  0.26542861335E+02 -0.73693652154E+01  0.31975400576E+02  0.00000000000E+00 0. -1.
</event>
<event>
 5    1  0.8778488E-005  0.9118800E+02  0.7818608E-02  0.1130116E+00
         25   -1    0    0    0    0  0.00000000000E+00  0.00000000000E+00  0.99999998245E-14  0.12500000000E+03  0.12500000000E+03 0.  0.
        -11    1    3    3    0    0 -0.51415256326E+01  0.10356159291E+02  0.38758646198E+02  0.40446482869E+02  0.51100000000E-03 0.  1.
         23    2    1    0    0    0  0.25606668594E+02 -0.14742465279E+02  0.68747540345E+00  0.95444723290E+02  0.90753406671E+02 0.  0.
         11    1    3    3    0    0  0.30748194226E+02 -0.25098624570E+02 -0.38071170795E+02  0.54998240421E+02  0.51100000000E-03 0. -1.
         22    1    1    0    0    0 -0.25606668594E+02  0.14742465279E+02 -0.68747540345E+00  0.29555276710E+02  0.00000000000E+00 0. -1.
</event>
<event>
 5    1  0.8778488E-005  0.9118800E+02  0.7818608E-02  0.1130116E+00
         25   -1    0    0    0    0  0.00000000000E+00  0.00000000000E+00  0.99999998245E-14  0.12500000000E+03  0.12500000000E+03 0.  0.
        -11    1    3    3    0    0 -0.32868816601E+02 -0.10251782404E+02  0.50280368460E+02  0.60939097466E+02  0.51100000000E-03 0.  1.
         23    2    1    0    0    0 -0.26665850216E+02 -0.83392445195E+01  0.23509971898E+02  0.88485217438E+02  0.80599654835E+02 0.  0.
         11    1    3    3    0    0  0.62029663845E+01  0.19125378844E+01 -0.26770396563E+02  0.27546119972E+02  0.51100000000E-03 0. -1.
         22    1    1    0    0    0  0.26665850216E+02  0.83392445195E+01 -0.23509971898E+02  0.36514782562E+02  0.00000000000E+00 0.  1.
</event>
<event>
 5    1  0.8778488E-005  0.9118800E+02  0.7818608E-02  0.1130116E+00
         25   -1    0    0    0    0  0.00000000000E+00  0.00000000000E+00  0.99999998245E-14  0.12500000000E+03  0.12500000000E+03 0.  0.
        -11    1    3    3    0    0 -0.30551826617E+02  0.73123828231E+01 -0.12770197150E+02  0.33911104195E+02  0.51100000000E-03 0. -1.
         23    2    1    0    0    0  0.11622551530E+02 -0.24069713362E+02  0.16010213629E+02  0.93842950303E+02  0.88519701625E+02 0.  0.
         11    1    3    3    0    0  0.42174378147E+02 -0.31382096185E+02  0.28780410779E+02  0.59931846108E+02  0.51100000000E-03 0.  1.
         22    1    1    0    0    0 -0.11622551530E+02  0.24069713362E+02 -0.16010213629E+02  0.31157049697E+02  0.00000000000E+00 0.  1.
</event>
<event>
 5    1  0.8778488E-005  0.9118800E+02  0.7818608E-02  0.1130116E+00
         25   -1    0    0    0    0  0.00000000000E+00  0.00000000000E+00  0.99999998245E-14  0.12500000000E+03  0.12500000000E+03 0.  0.
        -11    1    3    3    0    0 -0.23675008841E+02  0.24945315936E+02 -0.21053478153E+01  0.34455874978E+02  0.51100000000E-03 0.  1.
         23    2    1    0    0    0 -0.12273212937E+01 -0.29332601688E+02 -0.10565049833E+02  0.93798587895E+02  0.88457034620E+02 0.  0.
         11    1    3    3    0    0  0.22447687548E+02 -0.54277917625E+02 -0.84597020181E+01  0.59342712917E+02  0.51100000000E-03 0. -1.
         22    1    1    0    0    0  0.12273212937E+01  0.29332601688E+02  0.10565049833E+02  0.31201412105E+02  0.00000000000E+00 0. -1.
</event>
<event>
 5    1  0.8778488E-005  0.9118800E+02  0.7818608E-02  0.1130116E+00
         25   -1    0    0    0    0  0.00000000000E+00  0.00000000000E+00  0.99999998245E-14  0.12500000000E+03  0.12500000000E+03 0.  0.
        -11    1    3    3    0    0 -0.31212563517E+02  0.25538952030E+02 -0.24859216616E+02  0.47375551112E+02  0.51100000000E-03 0.  1.
         23    2    1    0    0    0  0.13913715310E+02  0.24314281532E+02 -0.13378812036E+02  0.93955380955E+02  0.88678324515E+02 0.  0.
         11    1    3    3    0    0  0.45126278827E+02 -0.12246704988E+01  0.11480404580E+02  0.46579829843E+02  0.51100000000E-03 0. -1.
         22    1    1    0    0    0 -0.13913715310E+02 -0.24314281532E+02  0.13378812036E+02  0.31044619045E+02  0.00000000000E+00 0.  1.
</event>
<event>
 5    1  0.8778488E-005  0.9118800E+02  0.7818608E-02  0.1130116E+00
         25   -1    0    0    0    0  0.00000000000E+00  0.00000000000E+00  0.99999998245E-14  0.12500000000E+03  0.12500000000E+03 0.  0.
        -11    1    3    3    0    0 -0.32323578637E+02  0.75809227104E+01 -0.35457957591E+02  0.48575208510E+02  0.51100000000E-03 0. -1.
         23    2    1    0    0    0  0.26243782012E+01 -0.15896550286E+02 -0.29890901832E+02  0.91043355815E+02  0.84473895103E+02 0.  0.
         11    1    3    3    0    0  0.34947956838E+02 -0.23477472996E+02  0.55670557589E+01  0.42468147305E+02  0.51100000000E-03 0.  1.
         22    1    1    0    0    0 -0.26243782012E+01  0.15896550286E+02  0.29890901832E+02  0.33956644185E+02  0.00000000000E+00 0.  1.
</event>
<event>
 5    1  0.8778488E-005  0.9118800E+02  0.7818608E-02  0.1130116E+00
         25   -1    0    0    0    0  0.00000000000E+00  0.00000000000E+00  0.99999998245E-14  0.12500000000E+03  0.12500000000E+03 0.  0.
        -11    1    3    3    0    0 -0.21812752738E+02  0.13153509438E+02 -0.24046082730E+02  0.35028917874E+02  0.51100000000E-03 0.  1.
         23    2    1    0    0    0  0.75915567369E+01  0.14118626886E+01  0.28003094725E+02  0.95951791723E+02  0.91449154893E+02 0.  0.
         11    1    3    3    0    0  0.29404309474E+02 -0.11741646749E+02  0.52049177455E+02  0.60922873849E+02  0.51100000000E-03 0. -1.
         22    1    1    0    0    0 -0.75915567369E+01 -0.14118626886E+01 -0.28003094725E+02  0.29048208277E+02  0.00000000000E+00 0. -1.
</event>
<event>
 5    1  0.8778488E-005  0.9118800E+02  0.7818608E-02  0.1130116E+00
         25   -1    0    0    0    0  0.00000000000E+00  0.00000000000E+00  0.99999998245E-14  0.12500000000E+03  0.12500000000E+03 0.  0.
        -11    1    3    3    0    0  0.99846801803E+01 -0.49304954261E+02 -0.22469739654E+02  0.55095930461E+02  0.51100000000E-03 0.  1.
         23    2    1    0    0    0  0.19372543655E+02 -0.93454049784E+01 -0.19019349001E+02  0.96288196185E+02  0.91907829080E+02 0.  0.
         11    1    3    3    0    0  0.93878634751E+01  0.39959549283E+02  0.34503906528E+01  0.41192265723E+02  0.51100000000E-03 0. -1.
         22    1    1    0    0    0 -0.19372543655E+02  0.93454049784E+01  0.19019349001E+02  0.28711803815E+02  0.00000000000E+00 0.  1.
</event>
<event>
 5    1  0.8778488E-005  0.9118800E+02  0.7818608E-02  0.1130116E+00
         25   -1    0    0    0    0  0.00000000000E+00  0.00000000000E+00  0.99999998245E-14  0.12500000000E+03  0.12500000000E+03 0.  0.
        -11    1    3    3    0    0  0.99709401746E+01 -0.60415155191E+02 -0.47933672196E+01  0.61419760617E+02  0.51100000000E-03 0.  1.
         23    2    1    0    0    0 -0.15591998124E+01 -0.28580176529E+02  0.31700457377E+01  0.96202312863E+02  0.91790948441E+02 0.  0.
         11    1    3    3    0    0 -0.11530139987E+02  0.31834978662E+02  0.79634129573E+01  0.34782552246E+02  0.51100000000E-03 0. -1.
         22    1    1    0    0    0  0.15591998124E+01  0.28580176529E+02 -0.31700457377E+01  0.28797687137E+02  0.00000000000E+00 0.  1.
</event>
<event>
 5    1  0.8778488E-005  0.9118800E+02  0.7818608E-02  0.1130116E+00
         25   -1    0    0    0    0  0.00000000000E+00  0.00000000000E+00  0.99999998245E-14  0.12500000000E+03  0.12500000000E+03 0.  0.
        -11    1    3    3    0    0 -0.25460260891E+02 -0.39455905691E+02 -0.40872958792E+02  0.62254253985E+02  0.51100000000E-03 0.  1.
         23    2    1    0    0    0 -0.11622274889E+02 -0.13102858325E+02 -0.18761493915E+02  0.99333761012E+02  0.95960618240E+02 0.  0.
         11    1    3    3    0    0  0.13837986002E+02  0.26353047366E+02  0.22111464877E+02  0.37079507027E+02  0.51100000000E-03 0. -1.
         22    1    1    0    0    0  0.11622274889E+02  0.13102858325E+02  0.18761493915E+02  0.25666238988E+02  0.00000000000E+00 0.  1.
</event>
<event>
 5    1  0.8778488E-005  0.9118800E+02  0.7818608E-02  0.1130116E+00
         25   -1    0    0    0    0  0.00000000000E+00  0.00000000000E+00  0.99999998245E-14  0.12500000000E+03  0.12500000000E+03 0.  0.
        -11    1    3    3    0    0 -0.52087329550E+02  0.90727198965E+01  0.18166305691E+02  0.55905445251E+02  0.51100000000E-03 0.  1.
         23    2    1    0    0    0 -0.11685149225E+02 -0.11849642296E+01  0.24273332629E+02  0.98034438082E+02  0.94252901921E+02 0.  0.
         11    1    3    3    0    0  0.40402180325E+02 -0.10257684126E+02  0.61070269373E+01  0.42128992831E+02  0.51100000000E-03 0. -1.
         22    1    1    0    0    0  0.11685149225E+02  0.11849642296E+01 -0.24273332629E+02  0.26965561918E+02  0.00000000000E+00 0. -1.
</event>
<event>
 5    1  0.8778488E-005  0.9118800E+02  0.7818608E-02  0.1130116E+00
         25   -1    0    0    0    0  0.00000000000E+00  0.00000000000E+00  0.99999998245E-14  0.12500000000E+03  0.12500000000E+03 0.  0.
        -11    1    3    3    0    0  0.34526001730E+02  0.38205476664E+02 -0.44143309194E+01  0.51683552126E+02  0.51100000000E-03 0. -1.
         23    2    1    0    0    0 -0.29318365966E+01  0.20592325810E+02 -0.20220751341E+02  0.95991064603E+02  0.91502820453E+02 0.  0.
         11    1    3    3    0    0 -0.37457838327E+02 -0.17613150855E+02 -0.15806420421E+02  0.44307512477E+02  0.51100000000E-03 0.  1.
         22    1    1    0    0    0  0.29318365966E+01 -0.20592325810E+02  0.20220751341E+02  0.29008935397E+02  0.00000000000E+00 0. -1.
</event>
<event>
 5    1  0.8778488E-005  0.9118800E+02  0.7818608E-02  0.1130116E+00
         25   -1    0    0    0    0  0.00000000000E+00  0.00000000000E+00  0.99999998245E-14  0.12500000000E+03  0.12500000000E+03 0.  0.
        -11    1    3    3    0    0  0.18956321699E+02 -0.58847296907E+01 -0.30044400034E+02  0.36008862098E+02  0.51100000000E-03 0.  1.
         23    2    1    0    0    0 -0.31815446775E+02 -0.82870200354E+00 -0.52263222416E+01  0.92747498629E+02  0.86959040113E+02 0.  0.
         11    1    3    3    0    0 -0.50771768474E+02  0.50560276872E+01  0.24818077793E+02  0.56738636532E+02  0.51100000000E-03 0. -1.
         22    1    1    0    0    0  0.31815446775E+02  0.82870200354E+00  0.52263222416E+01  0.32252501371E+02  0.00000000000E+00 0. -1.
</event>
<event>
 5    1  0.8778488E-005  0.9118800E+02  0.7818608E-02  0.1130116E+00
         25   -1    0    0    0    0  0.00000000000E+00  0.00000000000E+00  0.99999998245E-14  0.12500000000E+03  0.12500000000E+03 0.  0.
        -11    1    3    3    0    0 -0.22539329351E+02 -0.22825347633E+02 -0.10722880478E+01  0.32096225075E+02  0.51100000000E-03 0. -1.
         23    2    1    0    0    0  0.18042313433E+02  0.24415073337E+02  0.29187874234E+01  0.94501800052E+02  0.89445234713E+02 0.  0.
         11    1    3    3    0    0  0.40581642784E+02  0.47240420970E+02  0.39910754712E+01  0.62405574976E+02  0.51100000000E-03 0.  1.
         22    1    1    0    0    0 -0.18042313433E+02 -0.24415073337E+02 -0.29187874234E+01  0.30498199948E+02  0.00000000000E+00 0.  1.
</event>
<event>
 5    1  0.8778488E-005  0.9118800E+02  0.7818608E-02  0.1130116E+00
         25   -1    0    0    0    0  0.00000000000E+00  0.00000000000E+00  0.99999998245E-14  0.12500000000E+03  0.12500000000E+03 0.  0.
        -11    1    3    3    0    0  0.14617105827E+02  0.18418606865E+02  0.32527914496E+02  0.40136891800E+02  0.51100000000E-03 0. -1.
         23    2    1    0    0    0  0.16879900326E+02 -0.23173960971E+02 -0.46332063995E+01  0.95958131885E+02  0.91457820722E+02 0.  0.
         11    1    3    3    0    0  0.22627944981E+01 -0.41592567836E+02 -0.37161120896E+02  0.55821240085E+02  0.51100000000E-03 0.  1.
         22    1    1    0    0    0 -0.16879900326E+02  0.23173960971E+02  0.46332063995E+01  0.29041868115E+02  0.00000000000E+00 0.  1.
</event>
<event>
 5    1  0.8778488E-005  0.9118800E+02  0.7818608E-02  0.1130116E+00
         25   -1    0    0    0    0  0.00000000000E+00  0.00000000000E+00  0.99999998245E-14  0.12500000000E+03  0.12500000000E+03 0.  0.
        -11    1    3    3    0    0 -0.38232680216E+02  0.26951517266E+02 -0.81559833833E+01  0.47483072612E+02  0.51100000000E-03 0. -1.
         23    2    1    0    0    0 -0.16202130485E+02 -0.10208169754E+02 -0.24703544713E+02  0.93743306583E+02  0.88378881220E+02 0.  0.
         11    1    3    3    0    0  0.22030549731E+02 -0.37159687020E+02 -0.16547561330E+02  0.46260233971E+02  0.51100000000E-03 0.  1.
         22    1    1    0    0    0  0.16202130485E+02  0.10208169754E+02  0.24703544713E+02  0.31256693417E+02  0.00000000000E+00 0. -1.
</event>
<event>
 5    1  0.8778488E-005  0.9118800E+02  0.7818608E-02  0.1130116E+00
         25   -1    0    0    0    0  0.00000000000E+00  0.00000000000E+00  0.99999998245E-14  0.12500000000E+03  0.12500000000E+03 0.  0.
        -11    1    3    3    0    0 -0.26648034310E+01  0.32605991546E+02  0.47362885613E+01  0.33055775465E+02  0.51100000000E-03 0. -1.
         23    2    1    0    0    0 -0.10208567216E+02 -0.27294657507E+02 -0.80470549698E+01  0.94768091911E+02  0.89816607471E+02 0.  0.
         11    1    3    3    0    0 -0.75437637852E+01 -0.59900649053E+02 -0.12783343531E+02  0.61712316446E+02  0.51100000000E-03 0.  1.
         22    1    1    0    0    0  0.10208567216E+02  0.27294657507E+02  0.80470549698E+01  0.30231908089E+02  0.00000000000E+00 0.  1.
</event>
<event>
 5    1  0.8778488E-005  0.9118800E+02  0.7818608E-02  0.1130116E+00
         25   -1    0    0    0    0  0.00000000000E+00  0.00000000000E+00  0.99999998245E-14  0.12500000000E+03  0.12500000000E+03 0.  0.
        -11    1    3    3    0    0 -0.17805244058E+01 -0.51780986152E+02 -0.11820308398E+02  0.53142830984E+02  0.51100000000E-03 0.  1.
         23    2    1    0    0    0 -0.21671778724E+02 -0.14404022288E+02 -0.13830792336E+02  0.95530818339E+02  0.90871913069E+02 0.  0.
         11    1    3    3    0    0 -0.19891254318E+02  0.37376963865E+02 -0.20104839377E+01  0.42387987355E+02  0.51100000000E-03 0. -1.
         22    1    1    0    0    0  0.21671778724E+02  0.14404022288E+02  0.13830792336E+02  0.29469181661E+02  0.00000000000E+00 0.  1.
</event>
<event>
 5    1  0.8778488E-005  0.9118800E+02  0.7818608E-02  0.1130116E+00
         25   -1    0    0    0    0  0.00000000000E+00  0.00000000000E+00  0.99999998245E-14  0.12500000000E+03  0.12500000000E+03 0.  0.
        -11    1    3    3    0    0 -0.52934038192E+02  0.15613909166E+02 -0.97095494882E+01  0.56036433776E+02  0.51100000000E-03 0.  1.
         23    2    1    0    0    0 -0.15595473890E+02  0.24858553877E+02 -0.81922098828E+01  0.94532331735E+02  0.89487892666E+02 0.  0.
         11    1    3    3    0    0  0.37338564302E+02  0.92446447112E+01  0.15173396054E+01  0.38495897960E+02  0.51100000000E-03 0. -1.
         22    1    1    0    0    0  0.15595473890E+02 -0.24858553877E+02  0.81922098828E+01  0.30467668265E+02  0.00000000000E+00 0.  1.
</event>
<event>
 5    1  0.8778488E-005  0.9118800E+02  0.7818608E-02  0.1130116E+00
         25   -1    0    0    0    0  0.00000000000E+00  0.00000000000E+00  0.99999998245E-14  0.12500000000E+03  0.12500000000E+03 0.  0.
        -11    1    3    3    0    0  0.75837721598E+00 -0.54649342830E+02 -0.31653412396E+01  0.54746188846E+02  0.51100000000E-03 0.  1.
         23    2    1    0    0    0  0.21468847743E+02 -0.19360628689E+02 -0.47947705986E+01  0.95695816139E+02  0.91098595131E+02 0.  0.
         11    1    3    3    0    0  0.20710470527E+02  0.35288714141E+02 -0.16294293589E+01  0.40949627293E+02  0.51100000000E-03 0. -1.
         22    1    1    0    0    0 -0.21468847743E+02  0.19360628689E+02  0.47947705986E+01  0.29304183861E+02  0.00000000000E+00 0.  1.
</event>
<event>
 5    1  0.8778488E-005  0.9118800E+02  0.7818608E-02  0.1130116E+00
         25   -1    0    0    0    0  0.00000000000E+00  0.00000000000E+00  0.99999998245E-14  0.12500000000E+03  0.12500000000E+03 0.  0.
        -11    1    3    3    0    0  0.89303869082E+01 -0.36803693613E+02  0.77740794226E+01  0.38661350016E+02  0.51100000000E-03 0. -1.
         23    2    1    0    0    0  0.45033741312E+01  0.72333141043E+01 -0.28102042399E+02  0.95634612237E+02  0.91014576081E+02 0.  0.
         11    1    3    3    0    0 -0.44270127770E+01  0.44037007718E+02 -0.35876121822E+02  0.56973262221E+02  0.51100000000E-03 0.  1.
         22    1    1    0    0    0 -0.45033741312E+01 -0.72333141043E+01  0.28102042399E+02  0.29365387763E+02  0.00000000000E+00 0. -1.
</event>
<event>
 5    1  0.8778488E-005  0.9118800E+02  0.7818608E-02  0.1130116E+00
         25   -1    0    0    0    0  0.00000000000E+00  0.00000000000E+00  0.99999998245E-14  0.12500000000E+03  0.12500000000E+03 0.  0.
        -11    1    3    3    0    0  0.45007883841E+02  0.20035580847E+02 -0.14643694342E+02  0.51396224491E+02  0.51100000000E-03 0. -1.
         23    2    1    0    0    0  0.14522444659E+02 -0.10369622759E+02 -0.23638822101E+02  0.95382025975E+02  0.90667008849E+02 0.  0.
         11    1    3    3    0    0 -0.30485439182E+02 -0.30405203606E+02 -0.89951277588E+01  0.43985801483E+02  0.51100000000E-03 0.  1.
         22    1    1    0    0    0 -0.14522444659E+02  0.10369622759E+02  0.23638822101E+02  0.29617974025E+02  0.00000000000E+00 0. -1.
</event>
<event>
 5    1  0.8778488E-005  0.9118800E+02  0.7818608E-02  0.1130116E+00
         25   -1    0    0    0    0  0.00000000000E+00  0.00000000000E+00  0.99999998245E-14  0.12500000000E+03  0.12500000000E+03 0.  0.
        -11    1    3    3    0    0 -0.14448058419E+02  0.86610740860E+01 -0.40302223584E+02  0.43681000704E+02  0.51100000000E-03 0.  1.
         23    2    1    0    0    0 -0.23517606703E+02 -0.16729782347E+02  0.43210122053E+01  0.95817221022E+02  0.91265027559E+02 0.  0.
         11    1    3    3    0    0 -0.90695482838E+01 -0.25390856433E+02  0.44623235789E+02  0.52136220318E+02  0.51100000000E-03 0. -1.
         22    1    1    0    0    0  0.23517606703E+02  0.16729782347E+02 -0.43210122053E+01  0.29182778978E+02  0.00000000000E+00 0. -1.
</event>
<event>
 5    1  0.8778488E-005  0.9118800E+02  0.7818608E-02  0.1130116E+00
         25   -1    0    0    0    0  0.00000000000E+00  0.00000000000E+00  0.99999998245E-14  0.12500000000E+03  0.12500000000E+03 0.  0.
        -11    1    3    3    0    0  0.10362592138E+01  0.31652166239E+02  0.36154389277E+02  0.48063222167E+02  0.51100000000E-03 0.  1.
         23    2    1    0    0    0  0.19234165410E+02  0.36891621465E+02  0.70259631962E+01  0.82806291794E+02  0.71250073323E+02 0.  0.
         11    1    3    3    0    0  0.18197906196E+02  0.52394552255E+01 -0.29128426080E+02  0.34743069628E+02  0.51100000000E-03 0. -1.
         22    1    1    0    0    0 -0.19234165410E+02 -0.36891621465E+02 -0.70259631962E+01  0.42193708206E+02  0.00000000000E+00 0.  1.
</event>
<event>
 5    1  0.8778488E-005  0.9118800E+02  0.7818608E-02  0.1130116E+00
         25   -1    0    0    0    0  0.00000000000E+00  0.00000000000E+00  0.99999998245E-14  0.12500000000E+03  0.12500000000E+03 0.  0.
        -11    1    3    3    0    0  0.25616358472E+02  0.60550618387E+01 -0.47520861966E+02  0.54323971850E+02  0.51100000000E-03 0. -1.
         23    2    1    0    0    0  0.25737710013E+02 -0.10411710377E+02 -0.96725082014E+01  0.95599475437E+02  0.90966306176E+02 0.  0.
         11    1    3    3    0    0  0.12135154044E+00 -0.16466772216E+02  0.37848353765E+02  0.41275503587E+02  0.51100000000E-03 0.  1.
         22    1    1    0    0    0 -0.25737710013E+02  0.10411710377E+02  0.96725082014E+01  0.29400524563E+02  0.00000000000E+00 0. -1.
</event>
<event>
 5    1  0.8778488E-005  0.9118800E+02  0.7818608E-02  0.1130116E+00
         25   -1    0    0    0    0  0.00000000000E+00  0.00000000000E+00  0.99999998245E-14  0.12500000000E+03  0.12500000000E+03 0.  0.
        -11    1    3    3    0    0  0.15111470568E+01  0.34824109802E+02 -0.20027264014E+02  0.40200665331E+02  0.51100000000E-03 0.  1.
         23    2    1    0    0    0 -0.35545710240E+02  0.11975881214E+02 -0.16506883425E+01  0.87454773681E+02  0.78985400045E+02 0.  0.
         11    1    3    3    0    0 -0.37056857297E+02 -0.22848228588E+02  0.18376575671E+02  0.47254108350E+02  0.51100000000E-03 0. -1.
         22    1    1    0    0    0  0.35545710240E+02 -0.11975881214E+02  0.16506883425E+01  0.37545226319E+02  0.00000000000E+00 0. -1.
</event>
<event>
 5    1  0.8778488E-005  0.9118800E+02  0.7818608E-02  0.1130116E+00
         25   -1    0    0    0    0  0.00000000000E+00  0.00000000000E+00  0.99999998245E-14  0.12500000000E+03  0.12500000000E+03 0.  0.
        -11    1    3    3    0    0 -0.33643976570E+02  0.43611573617E+00  0.26485005884E+02  0.42820122528E+02  0.51100000000E-03 0.  1.
         23    2    1    0    0    0  0.12245793658E+02  0.19948773533E+02 -0.39809897588E+01  0.10125634175E+03  0.98433152123E+02 0.  0.
         11    1    3    3    0    0  0.45889770228E+02  0.19512657797E+02 -0.30465995643E+02  0.58436219219E+02  0.51100000000E-03 0. -1.
         22    1    1    0    0    0 -0.12245793658E+02 -0.19948773533E+02  0.39809897588E+01  0.23743658253E+02  0.00000000000E+00 0. -1.
</event>
<event>
 5    1  0.8778488E-005  0.9118800E+02  0.7818608E-02  0.1130116E+00
         25   -1    0    0    0    0  0.00000000000E+00  0.00000000000E+00  0.99999998245E-14  0.12500000000E+03  0.12500000000E+03 0.  0.
        -11    1    3    3    0    0  0.19668935474E+02  0.10992941617E+02  0.27149832452E+02  0.35282080303E+02  0.51100000000E-03 0. -1.
         23    2    1    0    0    0 -0.23142322571E+02  0.48279469738E+01 -0.16059872451E+02  0.96420362684E+02  0.92087407776E+02 0.  0.
         11    1    3    3    0    0 -0.42811258046E+02 -0.61649946430E+01 -0.43209704903E+02  0.61138282381E+02  0.51100000000E-03 0.  1.
         22    1    1    0    0    0  0.23142322571E+02 -0.48279469738E+01  0.16059872451E+02  0.28579637316E+02  0.00000000000E+00 0.  1.
</event>
<event>
 5    1  0.8778488E-005  0.9118800E+02  0.7818608E-02  0.1130116E+00
         25   -1    0    0    0    0  0.00000000000E+00  0.00000000000E+00  0.99999998245E-14  0.12500000000E+03  0.12500000000E+03 0.  0.
        -11    1    3    3    0    0 -0.33041261370E+02  0.32012106937E+02  0.39554207989E+01  0.46175158879E+02  0.51100000000E-03 0. -1.
         23    2    1    0    0    0 -0.12878610518E+02 -0.10050029471E+02  0.23192941501E+02  0.96631456916E+02  0.92373503934E+02 0.  0.
         11    1    3    3    0    0  0.20162650852E+02 -0.42062136408E+02  0.19237520702E+02  0.50456298037E+02  0.51100000000E-03 0.  1.
         22    1    1    0    0    0  0.12878610518E+02  0.10050029471E+02 -0.23192941501E+02  0.28368543084E+02  0.00000000000E+00 0. -1.
</event>
<event>
 5    1  0.8778488E-005  0.9118800E+02  0.7818608E-02  0.1130116E+00
         25   -1    0    0    0    0  0.00000000000E+00  0.00000000000E+00  0.99999998245E-14  0.12500000000E+03  0.12500000000E+03 0.  0.
        -11    1    3    3    0    0 -0.42665690552E+02  0.40440651717E+02 -0.19129661085E+02  0.61820315391E+02  0.51100000000E-03 0.  1.
         23    2    1    0    0    0 -0.15923280427E+02  0.23437480207E+02 -0.65364963550E+01  0.95920933257E+02  0.91406965349E+02 0.  0.
         11    1    3    3    0    0  0.26742410124E+02 -0.17003171510E+02  0.12593164730E+02  0.34100617866E+02  0.51100000000E-03 0. -1.
         22    1    1    0    0    0  0.15923280427E+02 -0.23437480207E+02  0.65364963550E+01  0.29079066743E+02  0.00000000000E+00 0.  1.
</event>
<event>
 5    1  0.8778488E-005  0.9118800E+02  0.7818608E-02  0.1130116E+00
         25   -1    0    0    0    0  0.00000000000E+00  0.00000000000E+00  0.99999998245E-14  0.12500000000E+03  0.12500000000E+03 0.  0.
        -11    1    3    3    0    0 -0.23325673836E+02 -0.27518924924E+02 -0.47976790129E+02  0.60026249926E+02  0.51100000000E-03 0. -1.
         23    2    1    0    0    0 -0.21248975415E+02 -0.12387115793E+02 -0.15467282603E+02  0.95944941491E+02  0.91439790971E+02 0.  0.
         11    1    3    3    0    0  0.20766984214E+01  0.15131809131E+02  0.32509507526E+02  0.35918691565E+02  0.51100000000E-03 0.  1.
         22    1    1    0    0    0  0.21248975415E+02  0.12387115793E+02  0.15467282603E+02  0.29055058509E+02  0.00000000000E+00 0. -1.
</event>
<event>
 5    1  0.8778488E-005  0.9118800E+02  0.7818608E-02  0.1130116E+00
         25   -1    0    0    0    0  0.00000000000E+00  0.00000000000E+00  0.99999998245E-14  0.12500000000E+03  0.12500000000E+03 0.  0.
        -11    1    3    3    0    0 -0.32085905822E+01 -0.26607016931E+02 -0.32205416112E+02  0.41897699587E+02  0.51100000000E-03 0. -1.
         23    2    1    0    0    0  0.29571479343E+02  0.53470719692E+01 -0.70445442970E+01  0.94134336658E+02  0.88930220760E+02 0.  0.
         11    1    3    3    0    0  0.32780069925E+02  0.31954088900E+02  0.25160871815E+02  0.52236637071E+02  0.51100000000E-03 0.  1.
         22    1    1    0    0    0 -0.29571479343E+02 -0.53470719692E+01  0.70445442970E+01  0.30865663342E+02  0.00000000000E+00 0.  1.
</event>
<event>
 5    1  0.8778488E-005  0.9118800E+02  0.7818608E-02  0.1130116E+00
         25   -1    0    0    0    0  0.00000000000E+00  0.00000000000E+00  0.99999998245E-14  0.12500000000E+03  0.12500000000E+03 0.  0.
        -11    1    3    3    0    0  0.82276875320E+01  0.33293372175E+02 -0.11910722698E+02  0.36304390758E+02  0.51100000000E-03 0.  1.
         23    2    1    0    0    0 -0.25598974127E+02  0.34614219238E+02  0.14852503103E+02  0.79458277391E+02  0.65111975455E+02 0.  0.
         11    1    3    3    0    0 -0.33826661659E+02  0.13208470633E+01  0.26763225800E+02  0.43153886632E+02  0.51100000000E-03 0. -1.
         22    1    1    0    0    0  0.25598974127E+02 -0.34614219238E+02 -0.14852503103E+02  0.45541722609E+02  0.00000000000E+00 0.  1.
</event>
<event>
 5    1  0.8778488E-005  0.9118800E+02  0.7818608E-02  0.1130116E+00
         25   -1    0    0    0    0  0.00000000000E+00  0.00000000000E+00  0.99999998245E-14  0.12500000000E+03  0.12500000000E+03 0.  0.
        -11    1    3    3    0    0  0.52943306891E+02 -0.18931950703E+02  0.10243662080E+02  0.57151947605E+02  0.51100000000E-03 0.  1.
         23    2    1    0    0    0  0.20195004575E+02 -0.14178943937E+02 -0.12532770727E+02  0.97324180174E+02  0.93306189739E+02 0.  0.
         11    1    3    3    0    0 -0.32748302316E+02  0.47530067659E+01 -0.22776432806E+02  0.40172232569E+02  0.51100000000E-03 0. -1.
         22    1    1    0    0    0 -0.20195004575E+02  0.14178943937E+02  0.12532770727E+02  0.27675819826E+02  0.00000000000E+00 0.  1.
</event>
<event>
 5    1  0.8778488E-005  0.9118800E+02  0.7818608E-02  0.1130116E+00
         25   -1    0    0    0    0  0.00000000000E+00  0.00000000000E+00  0.99999998245E-14  0.12500000000E+03  0.12500000000E+03 0.  0.
        -11    1    3    3    0    0  0.16259150141E+02 -0.29881177242E+02 -0.82812253400E+01  0.35011761025E+02  0.51100000000E-03 0.  1.
         23    2    1    0    0    0  0.21450647499E+01  0.27430568603E+02  0.81929323572E+01  0.96291786240E+02  0.91912711635E+02 0.  0.
         11    1    3    3    0    0 -0.14114085391E+02  0.57311745845E+02  0.16474157697E+02  0.61280025215E+02  0.51100000000E-03 0. -1.
         22    1    1    0    0    0 -0.21450647499E+01 -0.27430568603E+02 -0.81929323572E+01  0.28708213760E+02  0.00000000000E+00 0. -1.
</event>
<event>
 5    1  0.8778488E-005  0.9118800E+02  0.7818608E-02  0.1130116E+00
         25   -1    0    0    0    0  0.00000000000E+00  0.00000000000E+00  0.99999998245E-14  0.12500000000E+03  0.12500000000E+03 0.  0.
        -11    1    3    3    0    0  0.69362895932E+01 -0.16709145338E+02  0.59136848079E+02  0.61842335437E+02  0.51100000000E-03 0. -1.
         23    2    1    0    0    0  0.68612991853E+01 -0.16318172293E+01  0.20756770811E+02  0.10307777866E+03  0.10071963396E+03 0.  0.
         11    1    3    3    0    0 -0.74990407876E-01  0.15077328108E+02 -0.38380077269E+02  0.41235443224E+02  0.51100000000E-03 0.  1.
         22    1    1    0    0    0 -0.68612991853E+01  0.16318172293E+01 -0.20756770811E+02  0.21922221340E+02  0.00000000000E+00 0. -1.
</event>
<event>
 5    1  0.8778488E-005  0.9118800E+02  0.7818608E-02  0.1130116E+00
         25   -1    0    0    0    0  0.00000000000E+00  0.00000000000E+00  0.99999998245E-14  0.12500000000E+03  0.12500000000E+03 0.  0.
        -11    1    3    3    0    0  0.21667732839E+02 -0.52845367109E+02  0.23332082289E+02  0.61696916742E+02  0.51100000000E-03 0.  1.
         23    2    1    0    0    0  0.48742541645E+01 -0.28476853442E+02  0.80286247091E+01  0.95014197520E+02  0.90158468155E+02 0.  0.
         11    1    3    3    0    0 -0.16793478675E+02  0.24368513667E+02 -0.15303457580E+02  0.33317280778E+02  0.51100000000E-03 0. -1.
         22    1    1    0    0    0 -0.48742541645E+01  0.28476853442E+02 -0.80286247091E+01  0.29985802480E+02  0.00000000000E+00 0.  1.
</event>
<event>
 5    1  0.8778488E-005  0.9118800E+02  0.7818608E-02  0.1130116E+00
         25   -1    0    0    0    0  0.00000000000E+00  0.00000000000E+00  0.99999998245E-14  0.12500000000E+03  0.12500000000E+03 0.  0.
        -11    1    3    3    0    0  0.76140403178E+00 -0.10467014808E+02  0.37672817602E+02  0.39107279648E+02  0.51100000000E-03 0.  1.
         23    2    1    0    0    0 -0.27444511516E+02 -0.28157289777E+01 -0.10523767575E+02  0.95472398913E+02  0.90791517931E+02 0.  0.
         11    1    3    3    0    0 -0.28205915547E+02  0.76512858307E+01 -0.48196585177E+02  0.56365119265E+02  0.51100000000E-03 0. -1.
         22    1    1    0    0    0  0.27444511516E+02  0.28157289777E+01  0.10523767575E+02  0.29527601087E+02  0.00000000000E+00 0. -1.
</event>
<event>
 5    1  0.8778488E-005  0.9118800E+02  0.7818608E-02  0.1130116E+00
         25   -1    0    0    0    0  0.00000000000E+00  0.00000000000E+00  0.99999998245E-14  0.12500000000E+03  0.12500000000E+03 0.  0.
        -11    1    3    3    0    0 -0.22648517724E+02  0.22869405114E+02  0.27469080553E+02  0.42314482533E+02  0.51100000000E-03 0.  1.
         23    2    1    0    0    0 -0.66290050025E+01 -0.25744373486E+02  0.12359380266E+02  0.95683268360E+02  0.91081376197E+02 0.  0.
         11    1    3    3    0    0  0.16019512722E+02 -0.48613778600E+02 -0.15109700287E+02  0.53368785827E+02  0.51100000000E-03 0. -1.
         22    1    1    0    0    0  0.66290050025E+01  0.25744373486E+02 -0.12359380266E+02  0.29316731640E+02  0.00000000000E+00 0.  1.
</event>
<event>
 5    1  0.8778488E-005  0.9118800E+02  0.7818608E-02  0.1130116E+00
         25   -1    0    0    0    0  0.00000000000E+00  0.00000000000E+00  0.99999998245E-14  0.12500000000E+03  0.12500000000E+03 0.  0.
        -11    1    3    3    0    0  0.80861895849E+01  0.12166200992E-01 -0.36368090997E+02  0.37256202880E+02  0.51100000000E-03 0.  1.
         23    2    1    0    0    0  0.20205156379E+02  0.16964163392E+00  0.20980601270E+02  0.95871616038E+02  0.91339498628E+02 0.  0.
         11    1    3    3    0    0  0.12118966794E+02  0.15747543293E+00  0.57348692267E+02  0.58615413158E+02  0.51100000000E-03 0. -1.
         22    1    1    0    0    0 -0.20205156379E+02 -0.16964163392E+00 -0.20980601270E+02  0.29128383962E+02  0.00000000000E+00 0. -1.
</event>
<event>
 5    1  0.8778488E-005  0.9118800E+02  0.7818608E-02  0.1130116E+00
         25   -1    0    0    0    0  0.00000000000E+00  0.00000000000E+00  0.99999998245E-14  0.12500000000E+03  0.12500000000E+03 0.  0.
        -11    1    3    3    0    0 -0.27093505145E+02  0.53223209763E+02 -0.23528236531E+01  0.59768753191E+02  0.51100000000E-03 0.  1.
         23    2    1    0    0    0 -0.20828582314E+02  0.18712281409E+02 -0.92432499724E+01  0.95514122248E+02  0.90848943649E+02 0.  0.
         11    1    3    3    0    0  0.62649228316E+01 -0.34510928354E+02 -0.68904263193E+01  0.35745369058E+02  0.51100000000E-03 0. -1.
         22    1    1    0    0    0  0.20828582314E+02 -0.18712281409E+02  0.92432499724E+01  0.29485877752E+02  0.00000000000E+00 0.  1.
</event>
<event>
 5    1  0.8778488E-005  0.9118800E+02  0.7818608E-02  0.1130116E+00
         25   -1    0    0    0    0  0.00000000000E+00  0.00000000000E+00  0.99999998245E-14  0.12500000000E+03  0.12500000000E+03 0.  0.
        -11    1    3    3    0    0 -0.86212177426E+01  0.19815181498E+02  0.13194447520E+02  0.25319167814E+02  0.51100000000E-03 0. -1.
         23    2    1    0    0    0 -0.31425165697E+02  0.66450373130E+01 -0.33287555902E+02  0.78742471554E+02  0.63722977713E+02 0.  0.
         11    1    3    3    0    0 -0.22803947954E+02 -0.13170144185E+02 -0.46482003422E+02  0.53423303741E+02  0.51100000000E-03 0.  1.
         22    1    1    0    0    0  0.31425165697E+02 -0.66450373130E+01  0.33287555902E+02  0.46257528446E+02  0.00000000000E+00 0. -1.
</event>
<event>
 5    1  0.8778488E-005  0.9118800E+02  0.7818608E-02  0.1130116E+00
         25   -1    0    0    0    0  0.00000000000E+00  0.00000000000E+00  0.99999998245E-14  0.12500000000E+03  0.12500000000E+03 0.  0.
        -11    1    3    3    0    0 -0.29798440598E+02  0.22730857670E+02  0.46870793629E+02  0.60012584082E+02  0.51100000000E-03 0.  1.
         23    2    1    0    0    0 -0.19445341570E+01  0.12848495989E+02  0.25151269359E+02  0.96690082786E+02  0.92452802535E+02 0.  0.
         11    1    3    3    0    0  0.27853906441E+02 -0.98823616811E+01 -0.21719524270E+02  0.36677498704E+02  0.51100000000E-03 0. -1.
         22    1    1    0    0    0  0.19445341570E+01 -0.12848495989E+02 -0.25151269359E+02  0.28309917214E+02  0.00000000000E+00 0.  1.
</event>
<event>
 5    1  0.8778488E-005  0.9118800E+02  0.7818608E-02  0.1130116E+00
         25   -1    0    0    0    0  0.00000000000E+00  0.00000000000E+00  0.99999998245E-14  0.12500000000E+03  0.12500000000E+03 0.  0.
        -11    1    3    3    0    0  0.44427334273E+02 -0.98616382725E+01 -0.85224228542E+01  0.46299801637E+02  0.51100000000E-03 0.  1.
         23    2    1    0    0    0  0.98051983689E+00  0.22126477241E+01 -0.29052599092E+02  0.95846771309E+02  0.91305491769E+02 0.  0.
         11    1    3    3    0    0 -0.43446814437E+02  0.12074285997E+02 -0.20530176238E+02  0.49546969672E+02  0.51100000000E-03 0. -1.
         22    1    1    0    0    0 -0.98051983689E+00 -0.22126477241E+01  0.29052599092E+02  0.29153228691E+02  0.00000000000E+00 0. -1.
</event>
<event>
 5    1  0.8778488E-005  0.9118800E+02  0.7818608E-02  0.1130116E+00
         25   -1    0    0    0    0  0.00000000000E+00  0.00000000000E+00  0.99999998245E-14  0.12500000000E+03  0.12500000000E+03 0.  0.
        -11    1    3    3    0    0  0.39798186393E+02  0.82105290646E+01  0.39451757481E+02  0.56636998475E+02  0.51100000000E-03 0. -1.
         23    2    1    0    0    0  0.32301534956E+01  0.11127917209E+01  0.29647749266E+02  0.95156051978E+02  0.90354927892E+02 0.  0.
         11    1    3    3    0    0 -0.36568032897E+02 -0.70977373438E+01 -0.98040082144E+01  0.38519053502E+02  0.51100000000E-03 0.  1.
         22    1    1    0    0    0 -0.32301534956E+01 -0.11127917209E+01 -0.29647749266E+02  0.29843948022E+02  0.00000000000E+00 0. -1.
</event>
<event>
 5    1  0.8778488E-005  0.9118800E+02  0.7818608E-02  0.1130116E+00
         25   -1    0    0    0    0  0.00000000000E+00  0.00000000000E+00  0.99999998245E-14  0.12500000000E+03  0.12500000000E+03 0.  0.
        -11    1    3    3    0    0 -0.32867288136E+02 -0.33650736982E+02  0.34028136155E+02  0.58056393096E+02  0.51100000000E-03 0. -1.
         23    2    1    0    0    0 -0.31096621254E+02 -0.10702592695E+02  0.27895398241E+02  0.81875777261E+02  0.69598450524E+02 0.  0.
         11    1    3    3    0    0  0.17706668824E+01  0.22948144287E+02 -0.61327379137E+01  0.23819384165E+02  0.51100000000E-03 0.  1.
         22    1    1    0    0    0  0.31096621254E+02  0.10702592695E+02 -0.27895398241E+02  0.43124222739E+02  0.00000000000E+00 0. -1.
</event>
<event>
 5    1  0.8778488E-005  0.9118800E+02  0.7818608E-02  0.1130116E+00
         25   -1    0    0    0    0  0.00000000000E+00  0.00000000000E+00  0.99999998245E-14  0.12500000000E+03  0.12500000000E+03 0.  0.
        -11    1    3    3    0    0 -0.48456268574E+02 -0.23742739980E+02  0.19328967892E+02  0.57317856432E+02  0.51100000000E-03 0. -1.
         23    2    1    0    0    0 -0.15018592304E+02 -0.25999788182E+02  0.23629188326E+01  0.94881393032E+02  0.89974153277E+02 0.  0.
         11    1    3    3    0    0  0.33437676270E+02 -0.22570482011E+01 -0.16966049060E+02  0.37563536600E+02  0.51100000000E-03 0.  1.
         22    1    1    0    0    0  0.15018592304E+02  0.25999788182E+02 -0.23629188326E+01  0.30118606968E+02  0.00000000000E+00 0. -1.
</event>
<event>
 5    1  0.8778488E-005  0.9118800E+02  0.7818608E-02  0.1130116E+00
         25   -1    0    0    0    0  0.00000000000E+00  0.00000000000E+00  0.99999998245E-14  0.12500000000E+03  0.12500000000E+03 0.  0.
        -11    1    3    3    0    0 -0.61367355191E+02 -0.21790293013E+01  0.77639355634E+01  0.61894904051E+02  0.51100000000E-03 0. -1.
         23    2    1    0    0    0 -0.29110154139E+02  0.43304907971E+01  0.65107820803E+00  0.95562300916E+02  0.90915209008E+02 0.  0.
         11    1    3    3    0    0  0.32257201052E+02  0.65095200984E+01 -0.71128573554E+01  0.33667396865E+02  0.51100000000E-03 0.  1.
         22    1    1    0    0    0  0.29110154139E+02 -0.43304907971E+01 -0.65107820803E+00  0.29437699084E+02  0.00000000000E+00 0. -1.
</event>
<event>
 5    1  0.8778488E-005  0.9118800E+02  0.7818608E-02  0.1130116E+00
         25   -1    0    0    0    0  0.00000000000E+00  0.00000000000E+00  0.99999998245E-14  0.12500000000E+03  0.12500000000E+03 0.  0.
        -11    1    3    3    0    0  0.32325938829E+02  0.12806157496E+02  0.44313915739E+02  0.56326611113E+02  0.51100000000E-03 0.  1.
         23    2    1    0    0    0  0.16555515674E+02 -0.13703619590E+02  0.20548619366E+02  0.95265843766E+02  0.90506690037E+02 0.  0.
         11    1    3    3    0    0 -0.15770423156E+02 -0.26509777086E+02 -0.23765296373E+02  0.38939232654E+02  0.51100000000E-03 0. -1.
         22    1    1    0    0    0 -0.16555515674E+02  0.13703619590E+02 -0.20548619366E+02  0.29734156234E+02  0.00000000000E+00 0.  1.
</event>
<event>
 5    1  0.8778488E-005  0.9118800E+02  0.7818608E-02  0.1130116E+00
         25   -1    0    0    0    0  0.00000000000E+00  0.00000000000E+00  0.99999998245E-14  0.12500000000E+03  0.12500000000E+03 0.  0.
        -11    1    3    3    0    0  0.46022667333E+02  0.67475379133E+01  0.36173336110E+02  0.58924743715E+02  0.51100000000E-03 0. -1.
         23    2    1    0    0    0  0.29470159533E+02 -0.24726968140E+01  0.36685056660E+02  0.77878901599E+02  0.62005849721E+02 0.  0.
         11    1    3    3    0    0 -0.16552507800E+02 -0.92202347273E+01  0.51172054967E+00  0.18954157884E+02  0.51100000000E-03 0.  1.
         22    1    1    0    0    0 -0.29470159533E+02  0.24726968140E+01 -0.36685056660E+02  0.47121098401E+02  0.00000000000E+00 0. -1.
</event>
<event>
 5    1  0.8778488E-005  0.9118800E+02  0.7818608E-02  0.1130116E+00
         25   -1    0    0    0    0  0.00000000000E+00  0.00000000000E+00  0.99999998245E-14  0.12500000000E+03  0.12500000000E+03 0.  0.
        -11    1    3    3    0    0 -0.49291509333E+02  0.80622540025E+01  0.22400673727E+02  0.54739775443E+02  0.51100000000E-03 0.  1.
         23    2    1    0    0    0 -0.25123473027E+02 -0.15147780362E+02 -0.10592468793E+01  0.95644146226E+02  0.91027669181E+02 0.  0.
         11    1    3    3    0    0  0.24168036306E+02 -0.23210034364E+02 -0.23459920606E+02  0.40904370783E+02  0.51100000000E-03 0. -1.
         22    1    1    0    0    0  0.25123473027E+02  0.15147780362E+02  0.10592468793E+01  0.29355853774E+02  0.00000000000E+00 0.  1.
</event>
<event>
 5    1  0.8778488E-005  0.9118800E+02  0.7818608E-02  0.1130116E+00
         25   -1    0    0    0    0  0.00000000000E+00  0.00000000000E+00  0.99999998245E-14  0.12500000000E+03  0.12500000000E+03 0.  0.
        -11    1    3    3    0    0  0.43678763137E+02  0.28599068852E+02 -0.34064196365E+02  0.62338676298E+02  0.51100000000E-03 0. -1.
         23    2    1    0    0    0  0.18967288843E+02  0.10660314604E+02 -0.17497779690E+02  0.97079171796E+02  0.92977378695E+02 0.  0.
         11    1    3    3    0    0 -0.24711474294E+02 -0.17938754248E+02  0.16566416675E+02  0.34740495498E+02  0.51100000000E-03 0.  1.
         22    1    1    0    0    0 -0.18967288843E+02 -0.10660314604E+02  0.17497779690E+02  0.27920828204E+02  0.00000000000E+00 0. -1.
</event>
<event>
 5    1  0.8778488E-005  0.9118800E+02  0.7818608E-02  0.1130116E+00
         25   -1    0    0    0    0  0.00000000000E+00  0.00000000000E+00  0.99999998245E-14  0.12500000000E+03  0.12500000000E+03 0.  0.
        -11    1    3    3    0    0  0.12126963885E+02  0.44311406373E+02 -0.13581954016E+02  0.47906507522E+02  0.51100000000E-03 0.  1.
         23    2    1    0    0    0 -0.14681099995E+02  0.17324701229E+02  0.16933630957E+02  0.96672842939E+02  0.92429490612E+02 0.  0.
         11    1    3    3    0    0 -0.26808063880E+02 -0.26986705144E+02  0.30515584973E+02  0.48766335417E+02  0.51100000000E-03 0. -1.
         22    1    1    0    0    0  0.14681099995E+02 -0.17324701229E+02 -0.16933630957E+02  0.28327157061E+02  0.00000000000E+00 0.  1.
</event>
<event>
 5    1  0.8778488E-005  0.9118800E+02  0.7818608E-02  0.1130116E+00
         25   -1    0    0    0    0  0.00000000000E+00  0.00000000000E+00  0.99999998245E-14  0.12500000000E+03  0.12500000000E+03 0.  0.
        -11    1    3    3    0    0  0.44518324506E+02 -0.39932442759E+02 -0.64872615750E+01  0.60154515745E+02  0.51100000000E-03 0.  1.
         23    2    1    0    0    0  0.29246761363E+02 -0.10184581400E+02 -0.12114162717E+01  0.94006996307E+02  0.88751051131E+02 0.  0.
         11    1    3    3    0    0 -0.15271563143E+02  0.29747861359E+02  0.52758453033E+01  0.33852480562E+02  0.51100000000E-03 0. -1.
         22    1    1    0    0    0 -0.29246761363E+02  0.10184581400E+02  0.12114162717E+01  0.30993003693E+02  0.00000000000E+00 0.  1.
</event>
<event>
 5    1  0.8778488E-005  0.9118800E+02  0.7818608E-02  0.1130116E+00
         25   -1    0    0    0    0  0.00000000000E+00  0.00000000000E+00  0.99999998245E-14  0.12500000000E+03  0.12500000000E+03 0.  0.
        -11    1    3    3    0    0 -0.48866774410E+00  0.27647257858E+02 -0.55447247262E+02  0.61959719919E+02  0.51100000000E-03 0.  1.
         23    2    1    0    0    0 -0.27920454781E+01  0.16985562501E+02 -0.22467836258E+02  0.96696139529E+02  0.92460991138E+02 0.  0.
         11    1    3    3    0    0 -0.23033777340E+01 -0.10661695357E+02  0.32979411004E+02  0.34736419610E+02  0.51100000000E-03 0. -1.
         22    1    1    0    0    0  0.27920454781E+01 -0.16985562501E+02  0.22467836258E+02  0.28303860471E+02  0.00000000000E+00 0.  1.
</event>
<event>
 5    1  0.8778488E-005  0.9118800E+02  0.7818608E-02  0.1130116E+00
         25   -1    0    0    0    0  0.00000000000E+00  0.00000000000E+00  0.99999998245E-14  0.12500000000E+03  0.12500000000E+03 0.  0.
        -11    1    3    3    0    0  0.50244123772E+02  0.63445807734E+01  0.15753013341E+02  0.53036620447E+02  0.51100000000E-03 0.  1.
         23    2    1    0    0    0  0.11988752218E+02 -0.89490504865E+01  0.25557020111E+02  0.95386203194E+02  0.90672767678E+02 0.  0.
         11    1    3    3    0    0 -0.38255371554E+02 -0.15293631260E+02  0.98040067693E+01  0.42349582747E+02  0.51100000000E-03 0. -1.
         22    1    1    0    0    0 -0.11988752218E+02  0.89490504865E+01 -0.25557020111E+02  0.29613796806E+02  0.00000000000E+00 0.  1.
</event>
<event>
 5    1  0.8778488E-005  0.9118800E+02  0.7818608E-02  0.1130116E+00
         25   -1    0    0    0    0  0.00000000000E+00  0.00000000000E+00  0.99999998245E-14  0.12500000000E+03  0.12500000000E+03 0.  0.
        -11    1    3    3    0    0  0.15471126459E+02 -0.19128448561E+02  0.26658149326E+02  0.36275476896E+02  0.51100000000E-03 0. -1.
         23    2    1    0    0    0  0.28226779673E+01 -0.31322085221E+01 -0.29074247010E+02  0.95621605212E+02  0.90996710397E+02 0.  0.
         11    1    3    3    0    0 -0.12648448492E+02  0.15996240039E+02 -0.55732396335E+02  0.59346128317E+02  0.51100000000E-03 0.  1.
         22    1    1    0    0    0 -0.28226779673E+01  0.31322085221E+01  0.29074247010E+02  0.29378394788E+02  0.00000000000E+00 0.  1.
</event>
<event>
 5    1  0.8778488E-005  0.9118800E+02  0.7818608E-02  0.1130116E+00
         25   -1    0    0    0    0  0.00000000000E+00  0.00000000000E+00  0.99999998245E-14  0.12500000000E+03  0.12500000000E+03 0.  0.
        -11    1    3    3    0    0  0.34808842706E+02  0.22581797581E+02 -0.28917081228E+01  0.41592728796E+02  0.51100000000E-03 0.  1.
         23    2    1    0    0    0 -0.16068627159E+02 -0.84254725296E+01  0.12299481980E+02  0.10308045112E+03  0.10072295061E+03 0.  0.
         11    1    3    3    0    0 -0.50877469865E+02 -0.31007270111E+02  0.15191190103E+02  0.61487722324E+02  0.51100000000E-03 0. -1.
         22    1    1    0    0    0  0.16068627159E+02  0.84254725296E+01 -0.12299481980E+02  0.21919548880E+02  0.00000000000E+00 0. -1.
</event>
<event>
 5    1  0.8778488E-005  0.9118800E+02  0.7818608E-02  0.1130116E+00
         25   -1    0    0    0    0  0.00000000000E+00  0.00000000000E+00  0.99999998245E-14  0.12500000000E+03  0.12500000000E+03 0.  0.
        -11    1    3    3    0    0  0.28832189605E+02  0.49953841817E+02 -0.24046163286E+02  0.62489194576E+02  0.51100000000E-03 0.  1.
         23    2    1    0    0    0  0.13467921972E+02  0.22790471960E+02 -0.11873811461E+02  0.95986590462E+02  0.91496708222E+02 0.  0.
         11    1    3    3    0    0 -0.15364267633E+02 -0.27163369858E+02  0.12172351825E+02  0.33497395886E+02  0.51100000000E-03 0. -1.
         22    1    1    0    0    0 -0.13467921972E+02 -0.22790471960E+02  0.11873811461E+02  0.29013409538E+02  0.00000000000E+00 0.  1.
</event>
<event>
 5    1  0.8778488E-005  0.9118800E+02  0.7818608E-02  0.1130116E+00
         25   -1    0    0    0    0  0.00000000000E+00  0.00000000000E+00  0.99999998245E-14  0.12500000000E+03  0.12500000000E+03 0.  0.
        -11    1    3    3    0    0  0.35964221540E+02 -0.12554334765E+01 -0.92015097946E+01  0.37143897574E+02  0.51100000000E-03 0. -1.
         23    2    1    0    0    0 -0.19765890570E+02  0.17424048869E+02 -0.12126990669E+02  0.95993934915E+02  0.91506741439E+02 0.  0.
         11    1    3    3    0    0 -0.55730112110E+02  0.18679482345E+02 -0.29254808746E+01  0.58850037342E+02  0.51100000000E-03 0.  1.
         22    1    1    0    0    0  0.19765890570E+02 -0.17424048869E+02  0.12126990669E+02  0.29006065085E+02  0.00000000000E+00 0.  1.
</event>
<event>
 5    1  0.8778488E-005  0.9118800E+02  0.7818608E-02  0.1130116E+00
         25   -1    0    0    0    0  0.00000000000E+00  0.00000000000E+00  0.99999998245E-14  0.12500000000E+03  0.12500000000E+03 0.  0.
        -11    1    3    3    0    0 -0.29443053898E+02  0.15442034204E+02 -0.10596993036E+02  0.34894786213E+02  0.51100000000E-03 0.  1.
         23    2    1    0    0    0  0.11688943631E+02 -0.20298647017E+02  0.17079005205E+02  0.96011055681E+02  0.91530125753E+02 0.  0.
         11    1    3    3    0    0  0.41131997528E+02 -0.35740681221E+02  0.27675998241E+02  0.61116269468E+02  0.51100000000E-03 0. -1.
         22    1    1    0    0    0 -0.11688943631E+02  0.20298647017E+02 -0.17079005205E+02  0.28988944319E+02  0.00000000000E+00 0. -1.
</event>
<event>
 5    1  0.8778488E-005  0.9118800E+02  0.7818608E-02  0.1130116E+00
         25   -1    0    0    0    0  0.00000000000E+00  0.00000000000E+00  0.99999998245E-14  0.12500000000E+03  0.12500000000E+03 0.  0.
        -11    1    3    3    0    0  0.10207800784E+02 -0.39024564801E+02  0.18580769581E+02  0.44411269440E+02  0.51100000000E-03 0.  1.
         23    2    1    0    0    0  0.16442239360E+01  0.12605062797E+02  0.24817242937E+02  0.97116552805E+02  0.93027620636E+02 0.  0.
         11    1    3    3    0    0 -0.85635768484E+01  0.51629627598E+02  0.62364733560E+01  0.52705283365E+02  0.51100000000E-03 0. -1.
         22    1    1    0    0    0 -0.16442239360E+01 -0.12605062797E+02 -0.24817242937E+02  0.27883447195E+02  0.00000000000E+00 0. -1.
</event>
<event>
 5    1  0.8778488E-005  0.9118800E+02  0.7818608E-02  0.1130116E+00
         25   -1    0    0    0    0  0.00000000000E+00  0.00000000000E+00  0.99999998245E-14  0.12500000000E+03  0.12500000000E+03 0.  0.
        -11    1    3    3    0    0 -0.29770835254E+02 -0.24131236515E+01  0.51227314095E+02  0.59298933440E+02  0.51100000000E-03 0.  1.
         23    2    1    0    0    0 -0.17687211212E+01 -0.43146909519E+01  0.30388206757E+02  0.94256089346E+02  0.89101191554E+02 0.  0.
         11    1    3    3    0    0  0.28002114133E+02 -0.19015673004E+01 -0.20839107338E+02  0.34957155905E+02  0.51100000000E-03 0. -1.
         22    1    1    0    0    0  0.17687211212E+01  0.43146909519E+01 -0.30388206757E+02  0.30743910654E+02  0.00000000000E+00 0.  1.
</event>
<event>
 5    1  0.8778488E-005  0.9118800E+02  0.7818608E-02  0.1130116E+00
         25   -1    0    0    0    0  0.00000000000E+00  0.00000000000E+00  0.99999998245E-14  0.12500000000E+03  0.12500000000E+03 0.  0.
        -11    1    3    3    0    0  0.17685700993E+02 -0.12580965567E+02 -0.26662843476E+02  0.34379818741E+02  0.51100000000E-03 0. -1.
         23    2    1    0    0    0 -0.62420019033E+01  0.27806695754E+02  0.10885789142E+02  0.94493028309E+02  0.89432975335E+02 0.  0.
         11    1    3    3    0    0 -0.23927702896E+02  0.40387661321E+02  0.37548632618E+02  0.60113209568E+02  0.51100000000E-03 0.  1.
         22    1    1    0    0    0  0.62420019033E+01 -0.27806695754E+02 -0.10885789142E+02  0.30506971691E+02  0.00000000000E+00 0.  1.
</event>
<event>
 5    1  0.8778488E-005  0.9118800E+02  0.7818608E-02  0.1130116E+00
         25   -1    0    0    0    0  0.00000000000E+00  0.00000000000E+00  0.99999998245E-14  0.12500000000E+03  0.12500000000E+03 0.  0.
        -11    1    3    3    0    0  0.70811126044E+01  0.21824350218E+02  0.28738311391E+02  0.36774107195E+02  0.51100000000E-03 0.  1.
         23    2    1    0    0    0 -0.27908109829E+02 -0.13804735934E+01 -0.11365595962E+02  0.94834704160E+02  0.89909265595E+02 0.  0.
         11    1    3    3    0    0 -0.34989222433E+02 -0.23204823811E+02 -0.40103907353E+02  0.58060596964E+02  0.51100000000E-03 0. -1.
         22    1    1    0    0    0  0.27908109829E+02  0.13804735934E+01  0.11365595962E+02  0.30165295840E+02  0.00000000000E+00 0. -1.
</event>
<event>
 5    1  0.8778488E-005  0.9118800E+02  0.7818608E-02  0.1130116E+00
         25   -1    0    0    0    0  0.00000000000E+00  0.00000000000E+00  0.99999998245E-14  0.12500000000E+03  0.12500000000E+03 0.  0.
        -11    1    3    3    0    0 -0.23473729237E+02 -0.19129842635E+02  0.22789709704E+02  0.37899046323E+02  0.51100000000E-03 0. -1.
         23    2    1    0    0    0  0.25782887112E+01 -0.41594268672E+01 -0.27818194389E+02  0.96754640317E+02  0.92540045814E+02 0.  0.
         11    1    3    3    0    0  0.26052017948E+02  0.14970415768E+02 -0.50607904093E+02  0.58855593994E+02  0.51100000000E-03 0.  1.
         22    1    1    0    0    0 -0.25782887112E+01  0.41594268672E+01  0.27818194389E+02  0.28245359683E+02  0.00000000000E+00 0.  1.
</event>
<event>
 5    1  0.8778488E-005  0.9118800E+02  0.7818608E-02  0.1130116E+00
         25   -1    0    0    0    0  0.00000000000E+00  0.00000000000E+00  0.99999998245E-14  0.12500000000E+03  0.12500000000E+03 0.  0.
        -11    1    3    3    0    0 -0.60625641803E+01  0.11729366295E+02  0.50919180575E+02  0.52603190672E+02  0.51100000000E-03 0. -1.
         23    2    1    0    0    0  0.20114681831E+02  0.13417736228E+02  0.17185635326E+02  0.95335507214E+02  0.90602852072E+02 0.  0.
         11    1    3    3    0    0  0.26177246012E+02  0.16883699333E+01 -0.33733545249E+02  0.42732316543E+02  0.51100000000E-03 0.  1.
         22    1    1    0    0    0 -0.20114681831E+02 -0.13417736228E+02 -0.17185635326E+02  0.29664492786E+02  0.00000000000E+00 0. -1.
</event>
<event>
 5    1  0.8778488E-005  0.9118800E+02  0.7818608E-02  0.1130116E+00
         25   -1    0    0    0    0  0.00000000000E+00  0.00000000000E+00  0.99999998245E-14  0.12500000000E+03  0.12500000000E+03 0.  0.
        -11    1    3    3    0    0 -0.65748870649E+00  0.35375467099E+02  0.33204366449E+02  0.48522014751E+02  0.51100000000E-03 0.  1.
         23    2    1    0    0    0  0.44383043929E+01 -0.21646616580E+01  0.37974707670E+02  0.86705578362E+02  0.77790710181E+02 0.  0.
         11    1    3    3    0    0  0.50957930994E+01 -0.37540128757E+02  0.47703412209E+01  0.38183563611E+02  0.51100000000E-03 0. -1.
         22    1    1    0    0    0 -0.44383043929E+01  0.21646616580E+01 -0.37974707670E+02  0.38294421638E+02  0.00000000000E+00 0.  1.
</event>
<event>
 5    1  0.8778488E-005  0.9118800E+02  0.7818608E-02  0.1130116E+00
         25   -1    0    0    0    0  0.00000000000E+00  0.00000000000E+00  0.99999998245E-14  0.12500000000E+03  0.12500000000E+03 0.  0.
        -11    1    3    3    0    0  0.93759524409E+01  0.16283976618E+02 -0.55639693807E+02  0.58726926582E+02  0.51100000000E-03 0. -1.
         23    2    1    0    0    0  0.12633543740E+02 -0.56144204098E+01 -0.19873803197E+02  0.10079057627E+03  0.97839889957E+02 0.  0.
         11    1    3    3    0    0  0.32575912992E+01 -0.21898397027E+02  0.35765890610E+02  0.42063649685E+02  0.51100000000E-03 0.  1.
         22    1    1    0    0    0 -0.12633543740E+02  0.56144204098E+01  0.19873803197E+02  0.24209423733E+02  0.00000000000E+00 0. -1.
</event>
<event>
 5    1  0.8778488E-005  0.9118800E+02  0.7818608E-02  0.1130116E+00
         25   -1    0    0    0    0  0.00000000000E+00  0.00000000000E+00  0.99999998245E-14  0.12500000000E+03  0.12500000000E+03 0.  0.
        -11    1    3    3    0    0  0.26153757539E+02  0.26819710127E+02  0.21567644707E+02  0.43225908703E+02  0.51100000000E-03 0.  1.
         23    2    1    0    0    0 -0.14860558913E+02  0.21434230056E+02 -0.11800371434E+02  0.96372894046E+02  0.92022951004E+02 0.  0.
         11    1    3    3    0    0 -0.41014316452E+02 -0.53854800707E+01 -0.33368016141E+02  0.53146985343E+02  0.51100000000E-03 0. -1.
         22    1    1    0    0    0  0.14860558913E+02 -0.21434230056E+02  0.11800371434E+02  0.28627105954E+02  0.00000000000E+00 0. -1.
</event>
<event>
 5    1  0.8778488E-005  0.9118800E+02  0.7818608E-02  0.1130116E+00
         25   -1    0    0    0    0  0.00000000000E+00  0.00000000000E+00  0.99999998245E-14  0.12500000000E+03  0.12500000000E+03 0.  0.
        -11    1    3    3    0    0 -0.34933609483E+02 -0.14243431897E+01 -0.13012930826E+02  0.37305793035E+02  0.51100000000E-03 0. -1.
         23    2    1    0    0    0  0.17838865382E+02 -0.23431452660E+02 -0.24664367027E+01  0.95447649808E+02  0.90757437448E+02 0.  0.
         11    1    3    3    0    0  0.52772474864E+02 -0.22007109470E+02  0.10546494123E+02  0.58141856773E+02  0.51100000000E-03 0.  1.
         22    1    1    0    0    0 -0.17838865382E+02  0.23431452660E+02  0.24664367027E+01  0.29552350192E+02  0.00000000000E+00 0.  1.
</event>
<event>
 5    1  0.8778488E-005  0.9118800E+02  0.7818608E-02  0.1130116E+00
         25   -1    0    0    0    0  0.00000000000E+00  0.00000000000E+00  0.99999998245E-14  0.12500000000E+03  0.12500000000E+03 0.  0.
        -11    1    3    3    0    0 -0.58605963701E+02  0.17239584798E+02 -0.67588421253E+01  0.61461729658E+02  0.51100000000E-03 0. -1.
         23    2    1    0    0    0 -0.27000910286E+02  0.13978578970E+02  0.23217685299E+01  0.94506714913E+02  0.89452102984E+02 0.  0.
         11    1    3    3    0    0  0.31605053415E+02 -0.32610058283E+01  0.90806106551E+01  0.33044985255E+02  0.51100000000E-03 0.  1.
         22    1    1    0    0    0  0.27000910286E+02 -0.13978578970E+02 -0.23217685299E+01  0.30493285087E+02  0.00000000000E+00 0. -1.
</event>
<event>
 5    1  0.8778488E-005  0.9118800E+02  0.7818608E-02  0.1130116E+00
         25   -1    0    0    0    0  0.00000000000E+00  0.00000000000E+00  0.99999998245E-14  0.12500000000E+03  0.12500000000E+03 0.  0.
        -11    1    3    3    0    0  0.35405488254E+01 -0.15066060872E+02 -0.48024050916E+01  0.16204467628E+02  0.51100000000E-03 0.  1.
         23    2    1    0    0    0  0.12620710548E+02  0.17962080791E+02  0.43999722278E+02  0.75827911966E+02  0.57723288121E+02 0.  0.
         11    1    3    3    0    0  0.90801617221E+01  0.33028141663E+02  0.48802127370E+02  0.59623444338E+02  0.51100000000E-03 0. -1.
         22    1    1    0    0    0 -0.12620710548E+02 -0.17962080791E+02 -0.43999722278E+02  0.49172088034E+02  0.00000000000E+00 0. -1.
</event>
<event>
 5    1  0.8778488E-005  0.9118800E+02  0.7818608E-02  0.1130116E+00
         25   -1    0    0    0    0  0.00000000000E+00  0.00000000000E+00  0.99999998245E-14  0.12500000000E+03  0.12500000000E+03 0.  0.
        -11    1    3    3    0    0  0.28331755710E+01 -0.92203215586E+01  0.56476699930E+02  0.57294492307E+02  0.51100000000E-03 0. -1.
         23    2    1    0    0    0 -0.67980184729E+01 -0.16724067762E+02  0.12230730969E+02  0.10319407700E+03  0.10086386494E+03 0.  0.
         11    1    3    3    0    0 -0.96311940439E+01 -0.75037462030E+01 -0.44245968962E+02  0.45899584698E+02  0.51100000000E-03 0.  1.
         22    1    1    0    0    0  0.67980184729E+01  0.16724067762E+02 -0.12230730969E+02  0.21805922995E+02  0.00000000000E+00 0.  1.
</event>
<event>
 5    1  0.8778488E-005  0.9118800E+02  0.7818608E-02  0.1130116E+00
         25   -1    0    0    0    0  0.00000000000E+00  0.00000000000E+00  0.99999998245E-14  0.12500000000E+03  0.12500000000E+03 0.  0.
        -11    1    3    3    0    0  0.53643861516E+02  0.27686761752E+01 -0.12528727283E+01  0.53729871920E+02  0.51100000000E-03 0.  1.
         23    2    1    0    0    0  0.16365353492E+02  0.14139547748E+02 -0.18679351707E+02  0.96422565097E+02  0.92090397296E+02 0.  0.
         11    1    3    3    0    0 -0.37278508024E+02  0.11370871573E+02 -0.17426478979E+02  0.42692693177E+02  0.51100000000E-03 0. -1.
         22    1    1    0    0    0 -0.16365353492E+02 -0.14139547748E+02  0.18679351707E+02  0.28577434903E+02  0.00000000000E+00 0.  1.
</event>
<event>
 5    1  0.8778488E-005  0.9118800E+02  0.7818608E-02  0.1130116E+00
         25   -1    0    0    0    0  0.00000000000E+00  0.00000000000E+00  0.99999998245E-14  0.12500000000E+03  0.12500000000E+03 0.  0.
        -11    1    3    3    0    0  0.45235185373E+02  0.22406333783E+02 -0.64524397465E+01  0.50891057841E+02  0.51100000000E-03 0. -1.
         23    2    1    0    0    0  0.24470908911E+02 -0.14939251622E+02  0.66182155757E+01  0.95575394661E+02  0.90933209914E+02 0.  0.
         11    1    3    3    0    0 -0.20764276461E+02 -0.37345585405E+02  0.13070655322E+02  0.44684336819E+02  0.51100000000E-03 0.  1.
         22    1    1    0    0    0 -0.24470908911E+02  0.14939251622E+02 -0.66182155757E+01  0.29424605339E+02  0.00000000000E+00 0.  1.
</event>
<event>
 5    1  0.8778488E-005  0.9118800E+02  0.7818608E-02  0.1130116E+00
         25   -1    0    0    0    0  0.00000000000E+00  0.00000000000E+00  0.99999998245E-14  0.12500000000E+03  0.12500000000E+03 0.  0.
        -11    1    3    3    0    0  0.86096937430E+01  0.16154610119E+02  0.36293423455E+02  0.40648626555E+02  0.51100000000E-03 0.  1.
         23    2    1    0    0    0  0.16000105275E+02  0.17386131021E+02 -0.17899854734E+02  0.95357366511E+02  0.90633005178E+02 0.  0.
         11    1    3    3    0    0  0.73904115316E+01  0.12315209018E+01 -0.54193278190E+02  0.54708739956E+02  0.51100000000E-03 0. -1.
         22    1    1    0    0    0 -0.16000105275E+02 -0.17386131021E+02  0.17899854734E+02  0.29642633489E+02  0.00000000000E+00 0. -1.
</event>
<event>
 5    1  0.8778488E-005  0.9118800E+02  0.7818608E-02  0.1130116E+00
         25   -1    0    0    0    0  0.00000000000E+00  0.00000000000E+00  0.99999998245E-14  0.12500000000E+03  0.12500000000E+03 0.  0.
        -11    1    3    3    0    0  0.76355030643E+01  0.33344251740E+02 -0.22613151753E+01  0.34281971614E+02  0.51100000000E-03 0. -1.
         23    2    1    0    0    0  0.10388710047E+02 -0.26711176135E+02 -0.94342521342E+01  0.94826877187E+02  0.89898383171E+02 0.  0.
         11    1    3    3    0    0  0.27532069827E+01 -0.60055427875E+02 -0.71729369590E+01  0.60544905573E+02  0.51100000000E-03 0.  1.
         22    1    1    0    0    0 -0.10388710047E+02  0.26711176135E+02  0.94342521342E+01  0.30173122813E+02  0.00000000000E+00 0.  1.
</event>
<event>
 5    1  0.8778488E-005  0.9118800E+02  0.7818608E-02  0.1130116E+00
         25   -1    0    0    0    0  0.00000000000E+00  0.00000000000E+00  0.99999998245E-14  0.12500000000E+03  0.12500000000E+03 0.  0.
        -11    1    3    3    0    0 -0.16739533644E+02 -0.15005226870E+02 -0.21816676128E+02  0.31326285729E+02  0.51100000000E-03 0.  1.
         23    2    1    0    0    0  0.12717404846E+02  0.27212425166E+02  0.11710964108E+02  0.92760348175E+02  0.86977508839E+02 0.  0.
         11    1    3    3    0    0  0.29456938490E+02  0.42217652036E+02  0.33527640236E+02  0.61434062447E+02  0.51100000000E-03 0. -1.
         22    1    1    0    0    0 -0.12717404846E+02 -0.27212425166E+02 -0.11710964108E+02  0.32239651825E+02  0.00000000000E+00 0. -1.
</event>
<event>
 5    1  0.8778488E-005  0.9118800E+02  0.7818608E-02  0.1130116E+00
         25   -1    0    0    0    0  0.00000000000E+00  0.00000000000E+00  0.99999998245E-14  0.12500000000E+03  0.12500000000E+03 0.  0.
        -11    1    3    3    0    0  0.17279172414E+02 -0.27841506349E+02 -0.39898992230E+02  0.51629922103E+02  0.51100000000E-03 0. -1.
         23    2    1    0    0    0  0.12663835989E+01 -0.30284484278E+02 -0.27405094051E-02  0.94689049456E+02  0.89706534678E+02 0.  0.
         11    1    3    3    0    0 -0.16012788816E+02 -0.24429779287E+01  0.39896251720E+02  0.43059127353E+02  0.51100000000E-03 0.  1.
         22    1    1    0    0    0 -0.12663835989E+01  0.30284484278E+02  0.27405094051E-02  0.30310950544E+02  0.00000000000E+00 0. -1.
</event>
<event>
 5    1  0.8778488E-005  0.9118800E+02  0.7818608E-02  0.1130116E+00
         25   -1    0    0    0    0  0.00000000000E+00  0.00000000000E+00  0.99999998245E-14  0.12500000000E+03  0.12500000000E+03 0.  0.
        -11    1    3    3    0    0  0.30638440402E+02  0.78036374407E+01  0.21402201726E+02  0.38179379598E+02  0.51100000000E-03 0. -1.
         23    2    1    0    0    0 -0.15155193484E+01 -0.27507233309E+02 -0.10396722366E+02  0.95554516150E+02  0.90904505045E+02 0.  0.
         11    1    3    3    0    0 -0.32153959750E+02 -0.35310870750E+02 -0.31798924091E+02  0.57375136552E+02  0.51100000000E-03 0.  1.
         22    1    1    0    0    0  0.15155193484E+01  0.27507233309E+02  0.10396722366E+02  0.29445483850E+02  0.00000000000E+00 0.  1.
</event>
<event>
 5    1  0.8778488E-005  0.9118800E+02  0.7818608E-02  0.1130116E+00
         25   -1    0    0    0    0  0.00000000000E+00  0.00000000000E+00  0.99999998245E-14  0.12500000000E+03  0.12500000000E+03 0.  0.
        -11    1    3    3    0    0 -0.10615283468E+01  0.23816147669E+02 -0.39251090900E+02  0.45923674388E+02  0.51100000000E-03 0. -1.
         23    2    1    0    0    0  0.16706668083E+02 -0.14997345280E+02 -0.22108295060E+01  0.10244072495E+03  0.99925878712E+02 0.  0.
         11    1    3    3    0    0  0.17768196430E+02 -0.38813492949E+02  0.37040261394E+02  0.56517050557E+02  0.51100000000E-03 0.  1.
         22    1    1    0    0    0 -0.16706668083E+02  0.14997345280E+02  0.22108295060E+01  0.22559275055E+02  0.00000000000E+00 0.  1.
</event>
<event>
 5    1  0.8778488E-005  0.9118800E+02  0.7818608E-02  0.1130116E+00
         25   -1    0    0    0    0  0.00000000000E+00  0.00000000000E+00  0.99999998245E-14  0.12500000000E+03  0.12500000000E+03 0.  0.
        -11    1    3    3    0    0 -0.26213784243E+02  0.22113605931E+02  0.62317317510E+01  0.34856972509E+02  0.51100000000E-03 0. -1.
         23    2    1    0    0    0  0.24588353241E+02 -0.10014066974E+02  0.13168006060E+02  0.95364463291E+02  0.90642792447E+02 0.  0.
         11    1    3    3    0    0  0.50802137484E+02 -0.32127672904E+02  0.69362743088E+01  0.60507490782E+02  0.51100000000E-03 0.  1.
         22    1    1    0    0    0 -0.24588353241E+02  0.10014066974E+02 -0.13168006060E+02  0.29635536709E+02  0.00000000000E+00 0.  1.
</event>
<event>
 5    1  0.8778488E-005  0.9118800E+02  0.7818608E-02  0.1130116E+00
         25   -1    0    0    0    0  0.00000000000E+00  0.00000000000E+00  0.99999998245E-14  0.12500000000E+03  0.12500000000E+03 0.  0.
        -11    1    3    3    0    0  0.40166253472E+02 -0.29410913258E+02  0.34024485686E+01  0.49898961845E+02  0.51100000000E-03 0.  1.
         23    2    1    0    0    0  0.27676615656E+02  0.10273218128E+02  0.13233485390E+02  0.92647887234E+02  0.86815734798E+02 0.  0.
         11    1    3    3    0    0 -0.12489637816E+02  0.39684131386E+02  0.98310368210E+01  0.42748925389E+02  0.51100000000E-03 0. -1.
         22    1    1    0    0    0 -0.27676615656E+02 -0.10273218128E+02 -0.13233485390E+02  0.32352112766E+02  0.00000000000E+00 0.  1.
</event>
<event>
 5    1  0.8778488E-005  0.9118800E+02  0.7818608E-02  0.1130116E+00
         25   -1    0    0    0    0  0.00000000000E+00  0.00000000000E+00  0.99999998245E-14  0.12500000000E+03  0.12500000000E+03 0.  0.
        -11    1    3    3    0    0 -0.51237605393E+02 -0.27509709917E+02 -0.16689814730E+01  0.58179565533E+02  0.51100000000E-03 0. -1.
         23    2    1    0    0    0 -0.21792653137E+02 -0.15031551296E+02 -0.16890230564E+02  0.93597019988E+02  0.88171735817E+02 0.  0.
         11    1    3    3    0    0  0.29444952256E+02  0.12478158621E+02 -0.15221249091E+02  0.35417454455E+02  0.51100000000E-03 0.  1.
         22    1    1    0    0    0  0.21792653137E+02  0.15031551296E+02  0.16890230564E+02  0.31402980012E+02  0.00000000000E+00 0. -1.
</event>
<event>
 5    1  0.8778488E-005  0.9118800E+02  0.7818608E-02  0.1130116E+00
         25   -1    0    0    0    0  0.00000000000E+00  0.00000000000E+00  0.99999998245E-14  0.12500000000E+03  0.12500000000E+03 0.  0.
        -11    1    3    3    0    0 -0.39777181115E+02  0.28963573780E+02 -0.42390600030E+01  0.49387066865E+02  0.51100000000E-03 0. -1.
         23    2    1    0    0    0 -0.21041934483E+02 -0.11857190717E+02 -0.16261502055E+02  0.95883124694E+02  0.91355247105E+02 0.  0.
         11    1    3    3    0    0  0.18735246632E+02 -0.40820764497E+02 -0.12022442052E+02  0.46496057829E+02  0.51100000000E-03 0.  1.
         22    1    1    0    0    0  0.21041934483E+02  0.11857190717E+02  0.16261502055E+02  0.29116875306E+02  0.00000000000E+00 0. -1.
</event>
<event>
 5    1  0.8778488E-005  0.9118800E+02  0.7818608E-02  0.1130116E+00
         25   -1    0    0    0    0  0.00000000000E+00  0.00000000000E+00  0.99999998245E-14  0.12500000000E+03  0.12500000000E+03 0.  0.
        -11    1    3    3    0    0  0.55444209764E+00  0.29253667654E+02 -0.16202453498E+02  0.33445537473E+02  0.51100000000E-03 0. -1.
         23    2    1    0    0    0 -0.10179849578E+01 -0.25792807965E+02  0.13345952508E+02  0.95941099738E+02  0.91434539067E+02 0.  0.
         11    1    3    3    0    0 -0.15724270554E+01 -0.55046475619E+02  0.29548406006E+02  0.62495562264E+02  0.51100000000E-03 0.  1.
         22    1    1    0    0    0  0.10179849578E+01  0.25792807965E+02 -0.13345952508E+02  0.29058900262E+02  0.00000000000E+00 0.  1.
</event>
<event>
 5    1  0.8778488E-005  0.9118800E+02  0.7818608E-02  0.1130116E+00
         25   -1    0    0    0    0  0.00000000000E+00  0.00000000000E+00  0.99999998245E-14  0.12500000000E+03  0.12500000000E+03 0.  0.
        -11    1    3    3    0    0 -0.36497322181E+02 -0.67273555368E+01 -0.98423366117E+01  0.38395096421E+02  0.51100000000E-03 0.  1.
         23    2    1    0    0    0  0.86586386332E+00  0.32118113144E+02 -0.44888553805E+01  0.92558163819E+02  0.86686451968E+02 0.  0.
         11    1    3    3    0    0  0.37363186044E+02  0.38845468681E+02  0.53534812312E+01  0.54163067398E+02  0.51100000000E-03 0. -1.
         22    1    1    0    0    0 -0.86586386332E+00 -0.32118113144E+02  0.44888553805E+01  0.32441836181E+02  0.00000000000E+00 0. -1.
</event>
<event>
 5    1  0.8778488E-005  0.9118800E+02  0.7818608E-02  0.1130116E+00
         25   -1    0    0    0    0  0.00000000000E+00  0.00000000000E+00  0.99999998245E-14  0.12500000000E+03  0.12500000000E+03 0.  0.
        -11    1    3    3    0    0 -0.92468551987E+00 -0.33503848039E+02  0.97019084338E+01  0.34892547976E+02  0.51100000000E-03 0.  1.
         23    2    1    0    0    0  0.84541313643E+01  0.11287532674E+02 -0.27648432659E+02  0.93962658627E+02  0.88688582449E+02 0.  0.
         11    1    3    3    0    0  0.93788168842E+01  0.44791380713E+02 -0.37350341093E+02  0.59070110651E+02  0.51100000000E-03 0. -1.
         22    1    1    0    0    0 -0.84541313643E+01 -0.11287532674E+02  0.27648432659E+02  0.31037341373E+02  0.00000000000E+00 0. -1.
</event>
<event>
 5    1  0.8778488E-005  0.9118800E+02  0.7818608E-02  0.1130116E+00
         25   -1    0    0    0    0  0.00000000000E+00  0.00000000000E+00  0.99999998245E-14  0.12500000000E+03  0.12500000000E+03 0.  0.
        -11    1    3    3    0    0 -0.31692558325E+02 -0.42871659310E+02  0.13049610475E+02  0.54887974630E+02  0.51100000000E-03 0. -1.
         23    2    1    0    0    0 -0.28447067199E+02 -0.27211830614E+01  0.64108781934E+01  0.95712804356E+02  0.91121902356E+02 0.  0.
         11    1    3    3    0    0  0.32454911262E+01  0.40150476248E+02 -0.66387322814E+01  0.40824829726E+02  0.51100000000E-03 0.  1.
         22    1    1    0    0    0  0.28447067199E+02  0.27211830614E+01 -0.64108781934E+01  0.29287195644E+02  0.00000000000E+00 0. -1.
</event>
<event>
 5    1  0.8778488E-005  0.9118800E+02  0.7818608E-02  0.1130116E+00
         25   -1    0    0    0    0  0.00000000000E+00  0.00000000000E+00  0.99999998245E-14  0.12500000000E+03  0.12500000000E+03 0.  0.
        -11    1    3    3    0    0 -0.30047254743E+02 -0.13256092378E+02  0.21272133490E+02  0.39128827816E+02  0.51100000000E-03 0. -1.
         23    2    1    0    0    0  0.30020421070E+01  0.26213599573E+02 -0.67838710089E+01  0.97756909771E+02  0.93884117095E+02 0.  0.
         11    1    3    3    0    0  0.33049296850E+02  0.39469691951E+02 -0.28056004499E+02  0.58628081955E+02  0.51100000000E-03 0.  1.
         22    1    1    0    0    0 -0.30020421070E+01 -0.26213599573E+02  0.67838710089E+01  0.27243090229E+02  0.00000000000E+00 0.  1.
</event>
<event>
 5    1  0.8778488E-005  0.9118800E+02  0.7818608E-02  0.1130116E+00
         25   -1    0    0    0    0  0.00000000000E+00  0.00000000000E+00  0.99999998245E-14  0.12500000000E+03  0.12500000000E+03 0.  0.
        -11    1    3    3    0    0 -0.34551793332E+01  0.33547037616E+02  0.27687711867E+02  0.43634291397E+02  0.51100000000E-03 0.  1.
         23    2    1    0    0    0  0.30383202797E+02  0.28703772752E+01  0.74829801332E+01  0.93577506948E+02  0.88144068076E+02 0.  0.
         11    1    3    3    0    0  0.33838382131E+02 -0.30676660341E+02 -0.20204731734E+02  0.49943215551E+02  0.51100000000E-03 0. -1.
         22    1    1    0    0    0 -0.30383202797E+02 -0.28703772752E+01 -0.74829801332E+01  0.31422493052E+02  0.00000000000E+00 0. -1.
</event>
<event>
 5    1  0.8778488E-005  0.9118800E+02  0.7818608E-02  0.1130116E+00
         25   -1    0    0    0    0  0.00000000000E+00  0.00000000000E+00  0.99999998245E-14  0.12500000000E+03  0.12500000000E+03 0.  0.
        -11    1    3    3    0    0 -0.29546192733E+02 -0.70971773874E+00  0.16228908348E+02  0.33717334870E+02  0.51100000000E-03 0. -1.
         23    2    1    0    0    0  0.15756949701E+02  0.12908874488E+02 -0.22350379296E+02  0.94759960994E+02  0.89805290760E+02 0.  0.
         11    1    3    3    0    0  0.45303142434E+02  0.13618592227E+02 -0.38579287644E+02  0.61042626124E+02  0.51100000000E-03 0.  1.
         22    1    1    0    0    0 -0.15756949701E+02 -0.12908874488E+02  0.22350379296E+02  0.30240039006E+02  0.00000000000E+00 0.  1.
</event>
<event>
 5    1  0.8778488E-005  0.9118800E+02  0.7818608E-02  0.1130116E+00
         25   -1    0    0    0    0  0.00000000000E+00  0.00000000000E+00  0.99999998245E-14  0.12500000000E+03  0.12500000000E+03 0.  0.
        -11    1    3    3    0    0  0.11237005113E+02  0.39104445260E+01  0.49757348893E+02  0.51160098020E+02  0.51100000000E-03 0. -1.
         23    2    1    0    0    0  0.29279997414E+02  0.35732478691E+01  0.11722760928E+02  0.93258710286E+02  0.87690806653E+02 0.  0.
         11    1    3    3    0    0  0.18042992302E+02 -0.33719665686E+00 -0.38034587965E+02  0.42098612266E+02  0.51100000000E-03 0.  1.
         22    1    1    0    0    0 -0.29279997414E+02 -0.35732478691E+01 -0.11722760928E+02  0.31741289714E+02  0.00000000000E+00 0. -1.
</event>
<event>
 5    1  0.8778488E-005  0.9118800E+02  0.7818608E-02  0.1130116E+00
         25   -1    0    0    0    0  0.00000000000E+00  0.00000000000E+00  0.99999998245E-14  0.12500000000E+03  0.12500000000E+03 0.  0.
        -11    1    3    3    0    0 -0.18200195350E+02  0.24627756303E+02 -0.18090554392E+02  0.35567423997E+02  0.51100000000E-03 0. -1.
         23    2    1    0    0    0  0.19815793131E+02 -0.40584660556E+01  0.20002711373E+02  0.96552763467E+02  0.92266954359E+02 0.  0.
         11    1    3    3    0    0  0.38015988481E+02 -0.28686222358E+02  0.38093265765E+02  0.60985339470E+02  0.51100000000E-03 0.  1.
         22    1    1    0    0    0 -0.19815793131E+02  0.40584660556E+01 -0.20002711373E+02  0.28447236533E+02  0.00000000000E+00 0.  1.
</event>
<event>
 5    1  0.8778488E-005  0.9118800E+02  0.7818608E-02  0.1130116E+00
         25   -1    0    0    0    0  0.00000000000E+00  0.00000000000E+00  0.99999998245E-14  0.12500000000E+03  0.12500000000E+03 0.  0.
        -11    1    3    3    0    0 -0.23512835321E+02  0.12591460695E+02  0.27326307440E+02  0.38185408022E+02  0.51100000000E-03 0. -1.
         23    2    1    0    0    0  0.76647846168E+01 -0.29209652792E+02  0.11562012297E+02  0.92663753035E+02  0.86838575867E+02 0.  0.
         11    1    3    3    0    0  0.31177619938E+02 -0.41801113486E+02 -0.15764295142E+02  0.54478345013E+02  0.51100000000E-03 0.  1.
         22    1    1    0    0    0 -0.76647846168E+01  0.29209652792E+02 -0.11562012297E+02  0.32336246965E+02  0.00000000000E+00 0.  1.
</event>
<event>
 5    1  0.8778488E-005  0.9118800E+02  0.7818608E-02  0.1130116E+00
         25   -1    0    0    0    0  0.00000000000E+00  0.00000000000E+00  0.99999998245E-14  0.12500000000E+03  0.12500000000E+03 0.  0.
        -11    1    3    3    0    0  0.48249385212E+02 -0.33546326724E+02  0.18366355883E+02  0.61568516619E+02  0.51100000000E-03 0.  1.
         23    2    1    0    0    0  0.14955239015E+02 -0.18544502474E+02  0.10707478230E+02  0.98880891362E+02  0.95368877735E+02 0.  0.
         11    1    3    3    0    0 -0.33294146197E+02  0.15001824250E+02 -0.76588776535E+01  0.37312374743E+02  0.51100000000E-03 0. -1.
         22    1    1    0    0    0 -0.14955239015E+02  0.18544502474E+02 -0.10707478230E+02  0.26119108638E+02  0.00000000000E+00 0.  1.
</event>
<event>
 5    1  0.8778488E-005  0.9118800E+02  0.7818608E-02  0.1130116E+00
         25   -1    0    0    0    0  0.00000000000E+00  0.00000000000E+00  0.99999998245E-14  0.12500000000E+03  0.12500000000E+03 0.  0.
        -11    1    3    3    0    0 -0.26017007162E+01 -0.29552675937E+02  0.54316393388E+02  0.61890226147E+02  0.51100000000E-03 0. -1.
         23    2    1    0    0    0  0.45324175595E+01 -0.12101969499E+02  0.26819784835E+02  0.95229186553E+02  0.90456048102E+02 0.  0.
         11    1    3    3    0    0  0.71341182758E+01  0.17450706438E+02 -0.27496608553E+02  0.33338960406E+02  0.51100000000E-03 0.  1.
         22    1    1    0    0    0 -0.45324175595E+01  0.12101969499E+02 -0.26819784835E+02  0.29770813447E+02  0.00000000000E+00 0. -1.
</event>
<event>
 5    1  0.8778488E-005  0.9118800E+02  0.7818608E-02  0.1130116E+00
         25   -1    0    0    0    0  0.00000000000E+00  0.00000000000E+00  0.99999998245E-14  0.12500000000E+03  0.12500000000E+03 0.  0.
        -11    1    3    3    0    0  0.31765222419E+01 -0.54510306035E+02 -0.14291920445E+02  0.56442207149E+02  0.51100000000E-03 0.  1.
         23    2    1    0    0    0 -0.15182161218E+02 -0.19679723350E+02 -0.15273045519E+02  0.95827145327E+02  0.91278619247E+02 0.  0.
         11    1    3    3    0    0 -0.18358683460E+02  0.34830582685E+02 -0.98112507339E+00  0.39384938178E+02  0.51100000000E-03 0. -1.
         22    1    1    0    0    0  0.15182161218E+02  0.19679723350E+02  0.15273045519E+02  0.29172854673E+02  0.00000000000E+00 0.  1.
</event>
<event>
 5    1  0.8778488E-005  0.9118800E+02  0.7818608E-02  0.1130116E+00
         25   -1    0    0    0    0  0.00000000000E+00  0.00000000000E+00  0.99999998245E-14  0.12500000000E+03  0.12500000000E+03 0.  0.
        -11    1    3    3    0    0  0.42305399558E+02  0.53716654507E+01  0.33237836619E+01  0.42774398413E+02  0.51100000000E-03 0.  1.
         23    2    1    0    0    0 -0.65168292974E+01  0.17474757365E+02  0.21754926203E+02  0.96344930237E+02  0.91984958331E+02 0.  0.
         11    1    3    3    0    0 -0.48822228855E+02  0.12103091914E+02  0.18431142541E+02  0.53570531824E+02  0.51100000000E-03 0. -1.
         22    1    1    0    0    0  0.65168292974E+01 -0.17474757365E+02 -0.21754926203E+02  0.28655069763E+02  0.00000000000E+00 0. -1.
</event>
<event>
 5    1  0.8778488E-005  0.9118800E+02  0.7818608E-02  0.1130116E+00
         25   -1    0    0    0    0  0.00000000000E+00  0.00000000000E+00  0.99999998245E-14  0.12500000000E+03  0.12500000000E+03 0.  0.
        -11    1    3    3    0    0 -0.25383040427E+02  0.86606313222E+01 -0.54948487239E+02  0.61144431687E+02  0.51100000000E-03 0.  1.
         23    2    1    0    0    0 -0.89953085034E+01  0.12733702516E+02 -0.24558482954E+02  0.95910795132E+02  0.91393100303E+02 0.  0.
         11    1    3    3    0    0  0.16387731924E+02  0.40730711938E+01  0.30390004285E+02  0.34766363446E+02  0.51100000000E-03 0. -1.
         22    1    1    0    0    0  0.89953085034E+01 -0.12733702516E+02  0.24558482954E+02  0.29089204868E+02  0.00000000000E+00 0.  1.
</event>
<event>
 5    1  0.8778488E-005  0.9118800E+02  0.7818608E-02  0.1130116E+00
         25   -1    0    0    0    0  0.00000000000E+00  0.00000000000E+00  0.99999998245E-14  0.12500000000E+03  0.12500000000E+03 0.  0.
        -11    1    3    3    0    0  0.31641801615E+02 -0.72631628156E+00 -0.29739341008E+02  0.43429938391E+02  0.51100000000E-03 0.  1.
         23    2    1    0    0    0  0.19135475287E+02 -0.18562818675E+01  0.21483935132E+02  0.96169952036E+02  0.91746869205E+02 0.  0.
         11    1    3    3    0    0 -0.12506326328E+02 -0.11299655859E+01  0.51223276141E+02  0.52740013645E+02  0.51100000000E-03 0. -1.
         22    1    1    0    0    0 -0.19135475287E+02  0.18562818675E+01 -0.21483935132E+02  0.28830047964E+02  0.00000000000E+00 0. -1.
</event>
<event>
 5    1  0.8778488E-005  0.9118800E+02  0.7818608E-02  0.1130116E+00
         25   -1    0    0    0    0  0.00000000000E+00  0.00000000000E+00  0.99999998245E-14  0.12500000000E+03  0.12500000000E+03 0.  0.
        -11    1    3    3    0    0 -0.53911220868E+02  0.80196900814E+01  0.19947520771E+02  0.58039975445E+02  0.51100000000E-03 0.  1.
         23    2    1    0    0    0 -0.17686805112E+02  0.18042190615E+02  0.14066650639E+02  0.96082628448E+02  0.91627818440E+02 0.  0.
         11    1    3    3    0    0  0.36224415755E+02  0.10022500534E+02 -0.58808701328E+01  0.38042653003E+02  0.51100000000E-03 0. -1.
         22    1    1    0    0    0  0.17686805112E+02 -0.18042190615E+02 -0.14066650639E+02  0.28917371552E+02  0.00000000000E+00 0.  1.
</event>
<event>
 5    1  0.8778488E-005  0.9118800E+02  0.7818608E-02  0.1130116E+00
         25   -1    0    0    0    0  0.00000000000E+00  0.00000000000E+00  0.99999998245E-14  0.12500000000E+03  0.12500000000E+03 0.  0.
        -11    1    3    3    0    0  0.57554554657E+02 -0.15790136129E+02 -0.16805478520E+02  0.62002252130E+02  0.51100000000E-03 0. -1.
         23    2    1    0    0    0  0.26369412300E+02 -0.12743198680E+02 -0.98718875684E+01  0.94093864981E+02  0.88873315710E+02 0.  0.
         11    1    3    3    0    0 -0.31185142356E+02  0.30469374495E+01  0.69335909515E+01  0.32091612850E+02  0.51100000000E-03 0.  1.
         22    1    1    0    0    0 -0.26369412300E+02  0.12743198680E+02  0.98718875684E+01  0.30906135019E+02  0.00000000000E+00 0. -1.
</event>
<event>
 5    1  0.8778488E-005  0.9118800E+02  0.7818608E-02  0.1130116E+00
         25   -1    0    0    0    0  0.00000000000E+00  0.00000000000E+00  0.99999998245E-14  0.12500000000E+03  0.12500000000E+03 0.  0.
        -11    1    3    3    0    0 -0.25515595724E+02  0.54569570920E+02 -0.27795396866E+01  0.60304307778E+02  0.51100000000E-03 0.  1.
         23    2    1    0    0    0 -0.15805572038E+02  0.24571508144E+02  0.97018151291E+01  0.94215258054E+02  0.89043890938E+02 0.  0.
         11    1    3    3    0    0  0.97100236859E+01 -0.29998062776E+02  0.12481354816E+02  0.33910950276E+02  0.51100000000E-03 0. -1.
         22    1    1    0    0    0  0.15805572038E+02 -0.24571508144E+02 -0.97018151291E+01  0.30784741946E+02  0.00000000000E+00 0.  1.
</event>
<event>
 5    1  0.8778488E-005  0.9118800E+02  0.7818608E-02  0.1130116E+00
         25   -1    0    0    0    0  0.00000000000E+00  0.00000000000E+00  0.99999998245E-14  0.12500000000E+03  0.12500000000E+03 0.  0.
        -11    1    3    3    0    0  0.30091768992E+02 -0.31325676226E+02  0.15662652138E+01  0.43465684615E+02  0.51100000000E-03 0.  1.
         23    2    1    0    0    0  0.12468161520E+02  0.13826716562E+02  0.22097620352E+02  0.96104706823E+02  0.91657933130E+02 0.  0.
         11    1    3    3    0    0 -0.17623607471E+02  0.45152392789E+02  0.20531355138E+02  0.52639022207E+02  0.51100000000E-03 0. -1.
         22    1    1    0    0    0 -0.12468161520E+02 -0.13826716562E+02 -0.22097620352E+02  0.28895293177E+02  0.00000000000E+00 0. -1.
</event>
<event>
 5    1  0.8778488E-005  0.9118800E+02  0.7818608E-02  0.1130116E+00
         25   -1    0    0    0    0  0.00000000000E+00  0.00000000000E+00  0.99999998245E-14  0.12500000000E+03  0.12500000000E+03 0.  0.
        -11    1    3    3    0    0  0.20461729758E+02  0.13006479570E+02 -0.36260620140E+02  0.43619760072E+02  0.51100000000E-03 0.  1.
         23    2    1    0    0    0  0.22999071234E+02 -0.14990244897E+02  0.83116093135E+01  0.96316423357E+02  0.91946211663E+02 0.  0.
         11    1    3    3    0    0  0.25373414755E+01 -0.27996724467E+02  0.44572229454E+02  0.52696663285E+02  0.51100000000E-03 0. -1.
         22    1    1    0    0    0 -0.22999071234E+02  0.14990244897E+02 -0.83116093135E+01  0.28683576643E+02  0.00000000000E+00 0. -1.
</event>
<event>
 5    1  0.8778488E-005  0.9118800E+02  0.7818608E-02  0.1130116E+00
         25   -1    0    0    0    0  0.00000000000E+00  0.00000000000E+00  0.99999998245E-14  0.12500000000E+03  0.12500000000E+03 0.  0.
        -11    1    3    3    0    0  0.42384635454E+02  0.19848906217E+01 -0.20058176079E+02  0.46933224279E+02  0.51100000000E-03 0.  1.
         23    2    1    0    0    0  0.68597553027E+01 -0.27920576969E+02 -0.10824511683E+02  0.94278917430E+02  0.89133211305E+02 0.  0.
         11    1    3    3    0    0 -0.35524880151E+02 -0.29905467590E+02  0.92336643960E+01  0.47345693152E+02  0.51100000000E-03 0. -1.
         22    1    1    0    0    0 -0.68597553027E+01  0.27920576969E+02  0.10824511683E+02  0.30721082570E+02  0.00000000000E+00 0. -1.
</event>
<event>
 5    1  0.8778488E-005  0.9118800E+02  0.7818608E-02  0.1130116E+00
         25   -1    0    0    0    0  0.00000000000E+00  0.00000000000E+00  0.99999998245E-14  0.12500000000E+03  0.12500000000E+03 0.  0.
        -11    1    3    3    0    0 -0.28757520839E+02 -0.36609004452E+01 -0.16400614076E+02  0.33307316602E+02  0.51100000000E-03 0. -1.
         23    2    1    0    0    0  0.19510836894E+02  0.10771325464E+02  0.19674695061E+02  0.95271430672E+02  0.90514405859E+02 0.  0.
         11    1    3    3    0    0  0.48268357733E+02  0.14432225909E+02  0.36075309137E+02  0.61964114070E+02  0.51100000000E-03 0.  1.
         22    1    1    0    0    0 -0.19510836894E+02 -0.10771325464E+02 -0.19674695061E+02  0.29728569328E+02  0.00000000000E+00 0.  1.
</event>
<event>
 5    1  0.8778488E-005  0.9118800E+02  0.7818608E-02  0.1130116E+00
         25   -1    0    0    0    0  0.00000000000E+00  0.00000000000E+00  0.99999998245E-14  0.12500000000E+03  0.12500000000E+03 0.  0.
        -11    1    3    3    0    0  0.99843625214E+01  0.47499777144E+01  0.33720557656E+02  0.35486980600E+02  0.51100000000E-03 0. -1.
         23    2    1    0    0    0  0.16083959528E+02  0.83052240070E+01 -0.24724745028E+02  0.94357162067E+02  0.89242873758E+02 0.  0.
         11    1    3    3    0    0  0.60995970067E+01  0.35552462926E+01 -0.58445302684E+02  0.58870181467E+02  0.51100000000E-03 0.  1.
         22    1    1    0    0    0 -0.16083959528E+02 -0.83052240070E+01  0.24724745028E+02  0.30642837933E+02  0.00000000000E+00 0.  1.
</event>
<event>
 5    1  0.8778488E-005  0.9118800E+02  0.7818608E-02  0.1130116E+00
         25   -1    0    0    0    0  0.00000000000E+00  0.00000000000E+00  0.99999998245E-14  0.12500000000E+03  0.12500000000E+03 0.  0.
        -11    1    3    3    0    0 -0.16154975546E+01  0.34272773910E+02  0.13363867847E+02  0.36821540271E+02  0.51100000000E-03 0. -1.
         23    2    1    0    0    0 -0.10476593109E+02 -0.24483615514E+02  0.10693470950E+02  0.96302321474E+02  0.91927038289E+02 0.  0.
         11    1    3    3    0    0 -0.88610955542E+01 -0.58756389425E+02 -0.26703968966E+01  0.59480781203E+02  0.51100000000E-03 0.  1.
         22    1    1    0    0    0  0.10476593109E+02  0.24483615514E+02 -0.10693470950E+02  0.28697678526E+02  0.00000000000E+00 0.  1.
</event>
<event>
 5    1  0.8778488E-005  0.9118800E+02  0.7818608E-02  0.1130116E+00
         25   -1    0    0    0    0  0.00000000000E+00  0.00000000000E+00  0.99999998245E-14  0.12500000000E+03  0.12500000000E+03 0.  0.
        -11    1    3    3    0    0  0.49541259889E+02  0.52658618935E+01  0.19434821265E+02  0.53476892306E+02  0.51100000000E-03 0. -1.
         23    2    1    0    0    0  0.19546293626E+02 -0.19161413236E+02 -0.17336666551E+01  0.97573316792E+02  0.93639357099E+02 0.  0.
         11    1    3    3    0    0 -0.29994966263E+02 -0.24427275130E+02 -0.21168487920E+02  0.44096424486E+02  0.51100000000E-03 0.  1.
         22    1    1    0    0    0 -0.19546293626E+02  0.19161413236E+02  0.17336666551E+01  0.27426683208E+02  0.00000000000E+00 0. -1.
</event>
<event>
 5    1  0.8778488E-005  0.9118800E+02  0.7818608E-02  0.1130116E+00
         25   -1    0    0    0    0  0.00000000000E+00  0.00000000000E+00  0.99999998245E-14  0.12500000000E+03  0.12500000000E+03 0.  0.
        -11    1    3    3    0    0 -0.37725353471E+01  0.16299536715E+02  0.32885639914E+02  0.36896778082E+02  0.51100000000E-03 0. -1.
         23    2    1    0    0    0 -0.14035890092E+02 -0.11789968266E+02 -0.20135535527E+02  0.97770432369E+02  0.93902119743E+02 0.  0.
         11    1    3    3    0    0 -0.10263354745E+02 -0.28089504981E+02 -0.53021175441E+02  0.60873654286E+02  0.51100000000E-03 0.  1.
         22    1    1    0    0    0  0.14035890092E+02  0.11789968266E+02  0.20135535527E+02  0.27229567631E+02  0.00000000000E+00 0.  1.
</event>
<event>
 5    1  0.8778488E-005  0.9118800E+02  0.7818608E-02  0.1130116E+00
         25   -1    0    0    0    0  0.00000000000E+00  0.00000000000E+00  0.99999998245E-14  0.12500000000E+03  0.12500000000E+03 0.  0.
        -11    1    3    3    0    0 -0.21211144735E+02 -0.16067119953E+02 -0.44985820928E+02  0.52266519775E+02  0.51100000000E-03 0. -1.
         23    2    1    0    0    0  0.12519433671E+02  0.39447164591E+01 -0.26074285168E+02  0.95808128625E+02  0.91252573422E+02 0.  0.
         11    1    3    3    0    0  0.33730578406E+02  0.20011836412E+02  0.18911535760E+02  0.43541608850E+02  0.51100000000E-03 0.  1.
         22    1    1    0    0    0 -0.12519433671E+02 -0.39447164591E+01  0.26074285168E+02  0.29191871375E+02  0.00000000000E+00 0. -1.
</event>
<event>
 5    1  0.8778488E-005  0.9118800E+02  0.7818608E-02  0.1130116E+00
         25   -1    0    0    0    0  0.00000000000E+00  0.00000000000E+00  0.99999998245E-14  0.12500000000E+03  0.12500000000E+03 0.  0.
        -11    1    3    3    0    0  0.51976390683E+02  0.97485170902E+01 -0.24272889970E+01  0.52938365162E+02  0.51100000000E-03 0.  1.
         23    2    1    0    0    0  0.22223108972E+02 -0.19979385123E+02 -0.26543859073E+01  0.94998530589E+02  0.90136744158E+02 0.  0.
         11    1    3    3    0    0 -0.29753281711E+02 -0.29727902213E+02 -0.22709691027E+00  0.42060165428E+02  0.51100000000E-03 0. -1.
         22    1    1    0    0    0 -0.22223108972E+02  0.19979385123E+02  0.26543859073E+01  0.30001469411E+02  0.00000000000E+00 0.  1.
</event>
<event>
 5    1  0.8778488E-005  0.9118800E+02  0.7818608E-02  0.1130116E+00
         25   -1    0    0    0    0  0.00000000000E+00  0.00000000000E+00  0.99999998245E-14  0.12500000000E+03  0.12500000000E+03 0.  0.
        -11    1    3    3    0    0  0.58859352608E+01 -0.76116811255E+00  0.44742810620E+02  0.45134717383E+02  0.51100000000E-03 0. -1.
         23    2    1    0    0    0 -0.28000217155E+02  0.18475890921E+01  0.66954463151E+01  0.96151174243E+02  0.91721281940E+02 0.  0.
         11    1    3    3    0    0 -0.33886152416E+02  0.26087572046E+01 -0.38047364305E+02  0.51016456860E+02  0.51100000000E-03 0.  1.
         22    1    1    0    0    0  0.28000217155E+02 -0.18475890921E+01 -0.66954463151E+01  0.28848825757E+02  0.00000000000E+00 0. -1.
</event>
<event>
 5    1  0.8778488E-005  0.9118800E+02  0.7818608E-02  0.1130116E+00
         25   -1    0    0    0    0  0.00000000000E+00  0.00000000000E+00  0.99999998245E-14  0.12500000000E+03  0.12500000000E+03 0.  0.
        -11    1    3    3    0    0 -0.26121866729E+02  0.39557132266E+02 -0.43912026675E+00  0.47405816746E+02  0.51100000000E-03 0. -1.
         23    2    1    0    0    0 -0.15544978481E+02 -0.30696199583E+00  0.24778225397E+02  0.95747631968E+02  0.91169665964E+02 0.  0.
         11    1    3    3    0    0  0.10576888248E+02 -0.39864094262E+02  0.25217345664E+02  0.48341815222E+02  0.51100000000E-03 0.  1.
         22    1    1    0    0    0  0.15544978481E+02  0.30696199583E+00 -0.24778225397E+02  0.29252368032E+02  0.00000000000E+00 0.  1.
</event>
<event>
 5    1  0.8778488E-005  0.9118800E+02  0.7818608E-02  0.1130116E+00
         25   -1    0    0    0    0  0.00000000000E+00  0.00000000000E+00  0.99999998245E-14  0.12500000000E+03  0.12500000000E+03 0.  0.
        -11    1    3    3    0    0 -0.44575033897E+02  0.78810662766E+01  0.24323040309E+02  0.51387305268E+02  0.51100000000E-03 0.  1.
         23    2    1    0    0    0 -0.15395204951E+02 -0.17003173078E+02  0.26687779416E+02  0.89809691670E+02  0.82628221073E+02 0.  0.
         11    1    3    3    0    0  0.29179828946E+02 -0.24884239354E+02  0.23647391070E+01  0.38422386403E+02  0.51100000000E-03 0. -1.
         22    1    1    0    0    0  0.15395204951E+02  0.17003173078E+02 -0.26687779416E+02  0.35190308330E+02  0.00000000000E+00 0.  1.
</event>
<event>
 5    1  0.8778488E-005  0.9118800E+02  0.7818608E-02  0.1130116E+00
         25   -1    0    0    0    0  0.00000000000E+00  0.00000000000E+00  0.99999998245E-14  0.12500000000E+03  0.12500000000E+03 0.  0.
        -11    1    3    3    0    0 -0.22311818582E+02  0.22584223369E+02 -0.31238367516E+02  0.44538747164E+02  0.51100000000E-03 0.  1.
         23    2    1    0    0    0  0.19019246909E+02  0.20671029082E+02  0.84802999623E+00  0.96897645096E+02  0.92733010703E+02 0.  0.
         11    1    3    3    0    0  0.41331065491E+02 -0.19131942873E+01  0.32086397512E+02  0.52358897932E+02  0.51100000000E-03 0. -1.
         22    1    1    0    0    0 -0.19019246909E+02 -0.20671029082E+02 -0.84802999623E+00  0.28102354904E+02  0.00000000000E+00 0. -1.
</event>
<event>
 5    1  0.8778488E-005  0.9118800E+02  0.7818608E-02  0.1130116E+00
         25   -1    0    0    0    0  0.00000000000E+00  0.00000000000E+00  0.99999998245E-14  0.12500000000E+03  0.12500000000E+03 0.  0.
        -11    1    3    3    0    0  0.19329620658E+02  0.13682328506E+02 -0.46794831792E+02  0.52446130752E+02  0.51100000000E-03 0.  1.
         23    2    1    0    0    0  0.25505290379E+02  0.11368969590E+02 -0.27965527654E+01  0.96935894559E+02  0.92784554963E+02 0.  0.
         11    1    3    3    0    0  0.61756697210E+01 -0.23133589164E+01  0.43998279027E+02  0.44489763807E+02  0.51100000000E-03 0. -1.
         22    1    1    0    0    0 -0.25505290379E+02 -0.11368969590E+02  0.27965527654E+01  0.28064105441E+02  0.00000000000E+00 0. -1.
</event>
<event>
 5    1  0.8778488E-005  0.9118800E+02  0.7818608E-02  0.1130116E+00
         25   -1    0    0    0    0  0.00000000000E+00  0.00000000000E+00  0.99999998245E-14  0.12500000000E+03  0.12500000000E+03 0.  0.
        -11    1    3    3    0    0 -0.44187620308E+02  0.17640491182E+02 -0.60318159662E+01  0.47959519615E+02  0.51100000000E-03 0. -1.
         23    2    1    0    0    0 -0.10035880140E+02  0.78737740878E+00 -0.30268524884E+02  0.93101372255E+02  0.87466239566E+02 0.  0.
         11    1    3    3    0    0  0.34151740168E+02 -0.16853113773E+02 -0.24236708917E+02  0.45141852640E+02  0.51100000000E-03 0.  1.
         22    1    1    0    0    0  0.10035880140E+02 -0.78737740878E+00  0.30268524884E+02  0.31898627745E+02  0.00000000000E+00 0.  1.
</event>
<event>
 5    1  0.8778488E-005  0.9118800E+02  0.7818608E-02  0.1130116E+00
         25   -1    0    0    0    0  0.00000000000E+00  0.00000000000E+00  0.99999998245E-14  0.12500000000E+03  0.12500000000E+03 0.  0.
        -11    1    3    3    0    0  0.23179943254E+02 -0.35182485923E+02 -0.21562518469E+02  0.47329264604E+02  0.51100000000E-03 0.  1.
         23    2    1    0    0    0 -0.20888012511E+02 -0.16137275721E+02 -0.10486597317E+02  0.96597720908E+02  0.92327841017E+02 0.  0.
         11    1    3    3    0    0 -0.44067955765E+02  0.19045210202E+02  0.11075921152E+02  0.49268456304E+02  0.51100000000E-03 0. -1.
         22    1    1    0    0    0  0.20888012511E+02  0.16137275721E+02  0.10486597317E+02  0.28402279092E+02  0.00000000000E+00 0. -1.
</event>
<event>
 5    1  0.8778488E-005  0.9118800E+02  0.7818608E-02  0.1130116E+00
         25   -1    0    0    0    0  0.00000000000E+00  0.00000000000E+00  0.99999998245E-14  0.12500000000E+03  0.12500000000E+03 0.  0.
        -11    1    3    3    0    0  0.45454806155E+02  0.29308046090E+02  0.24953310326E+02  0.59563148546E+02  0.51100000000E-03 0.  1.
         23    2    1    0    0    0  0.11439416626E+02  0.96459328778E+01  0.21227477347E+02  0.99028668337E+02  0.95562372743E+02 0.  0.
         11    1    3    3    0    0 -0.34015389529E+02 -0.19662113212E+02 -0.37258329793E+01  0.39465519791E+02  0.51100000000E-03 0. -1.
         22    1    1    0    0    0 -0.11439416626E+02 -0.96459328778E+01 -0.21227477347E+02  0.25971331663E+02  0.00000000000E+00 0.  1.
</event>
<event>
 5    1  0.8778488E-005  0.9118800E+02  0.7818608E-02  0.1130116E+00
         25   -1    0    0    0    0  0.00000000000E+00  0.00000000000E+00  0.99999998245E-14  0.12500000000E+03  0.12500000000E+03 0.  0.
        -11    1    3    3    0    0 -0.34005153606E+02  0.90928968517E+01  0.72327303366E+01  0.35935270047E+02  0.51100000000E-03 0.  1.
         23    2    1    0    0    0  0.25074755620E+02  0.12356700439E+02 -0.56236078138E+01  0.96485856492E+02  0.92176266593E+02 0.  0.
         11    1    3    3    0    0  0.59079909226E+02  0.32638035868E+01 -0.12856338150E+02  0.60550586446E+02  0.51100000000E-03 0. -1.
         22    1    1    0    0    0 -0.25074755620E+02 -0.12356700439E+02  0.56236078138E+01  0.28514143508E+02  0.00000000000E+00 0. -1.
</event>
<event>
 5    1  0.8778488E-005  0.9118800E+02  0.7818608E-02  0.1130116E+00
         25   -1    0    0    0    0  0.00000000000E+00  0.00000000000E+00  0.99999998245E-14  0.12500000000E+03  0.12500000000E+03 0.  0.
        -11    1    3    3    0    0 -0.14549300096E+02  0.12936107879E+01  0.53709638584E+02  0.55660406387E+02  0.51100000000E-03 0.  1.
         23    2    1    0    0    0 -0.15814471468E+02 -0.16995763344E+02  0.18660825078E+02  0.95214435173E+02  0.90435661071E+02 0.  0.
         11    1    3    3    0    0 -0.12651713723E+01 -0.18289374132E+02 -0.35048813506E+02  0.39554028786E+02  0.51100000000E-03 0. -1.
         22    1    1    0    0    0  0.15814471468E+02  0.16995763344E+02 -0.18660825078E+02  0.29785564827E+02  0.00000000000E+00 0.  1.
</event>
<event>
 5    1  0.8778488E-005  0.9118800E+02  0.7818608E-02  0.1130116E+00
         25   -1    0    0    0    0  0.00000000000E+00  0.00000000000E+00  0.99999998245E-14  0.12500000000E+03  0.12500000000E+03 0.  0.
        -11    1    3    3    0    0 -0.15596724312E+02  0.83419521800E+01  0.55741132518E+02  0.58480080626E+02  0.51100000000E-03 0.  1.
         23    2    1    0    0    0 -0.15523313676E+02  0.16081000135E+02  0.20137214039E+02  0.94915465401E+02  0.90021477160E+02 0.  0.
         11    1    3    3    0    0  0.73410636401E-01  0.77390479547E+01 -0.35603918478E+02  0.36435384774E+02  0.51100000000E-03 0. -1.
         22    1    1    0    0    0  0.15523313676E+02 -0.16081000135E+02 -0.20137214039E+02  0.30084534599E+02  0.00000000000E+00 0.  1.
</event>
<event>
 5    1  0.8778488E-005  0.9118800E+02  0.7818608E-02  0.1130116E+00
         25   -1    0    0    0    0  0.00000000000E+00  0.00000000000E+00  0.99999998245E-14  0.12500000000E+03  0.12500000000E+03 0.  0.
        -11    1    3    3    0    0  0.20155008442E+02 -0.29904807911E+02 -0.50453684336E+02  0.62016902251E+02  0.51100000000E-03 0. -1.
         23    2    1    0    0    0  0.56268344063E+01 -0.11631557249E+02 -0.26785275446E+02  0.95261046249E+02  0.90500063879E+02 0.  0.
         11    1    3    3    0    0 -0.14528174035E+02  0.18273250662E+02  0.23668408889E+02  0.33244143998E+02  0.51100000000E-03 0.  1.
         22    1    1    0    0    0 -0.56268344063E+01  0.11631557249E+02  0.26785275446E+02  0.29738953751E+02  0.00000000000E+00 0. -1.
</event>
<event>
 5    1  0.8778488E-005  0.9118800E+02  0.7818608E-02  0.1130116E+00
         25   -1    0    0    0    0  0.00000000000E+00  0.00000000000E+00  0.99999998245E-14  0.12500000000E+03  0.12500000000E+03 0.  0.
        -11    1    3    3    0    0  0.28977706543E+02 -0.52197267049E+02  0.31328727455E+01  0.59783585170E+02  0.51100000000E-03 0. -1.
         23    2    1    0    0    0  0.20721757688E+02 -0.23992658182E+02  0.12930769432E+02  0.90761955570E+02  0.84056462526E+02 0.  0.
         11    1    3    3    0    0 -0.82559488552E+01  0.28204608867E+02  0.97978966862E+01  0.30978370399E+02  0.51100000000E-03 0.  1.
         22    1    1    0    0    0 -0.20721757688E+02  0.23992658182E+02 -0.12930769432E+02  0.34238044430E+02  0.00000000000E+00 0. -1.
</event>
<event>
 5    1  0.8778488E-005  0.9118800E+02  0.7818608E-02  0.1130116E+00
         25   -1    0    0    0    0  0.00000000000E+00  0.00000000000E+00  0.99999998245E-14  0.12500000000E+03  0.12500000000E+03 0.  0.
        -11    1    3    3    0    0 -0.38939860572E+02  0.24673031085E+02  0.41766867293E+02  0.62205646111E+02  0.51100000000E-03 0. -1.
         23    2    1    0    0    0 -0.15033334761E+02  0.90376687463E+01  0.21611032247E+02  0.97166255638E+02  0.93094381729E+02 0.  0.
         11    1    3    3    0    0  0.23906525811E+02 -0.15635362339E+02 -0.20155835046E+02  0.34960609527E+02  0.51100000000E-03 0.  1.
         22    1    1    0    0    0  0.15033334761E+02 -0.90376687463E+01 -0.21611032247E+02  0.27833744362E+02  0.00000000000E+00 0. -1.
</event>
<event>
 5    1  0.8778488E-005  0.9118800E+02  0.7818608E-02  0.1130116E+00
         25   -1    0    0    0    0  0.00000000000E+00  0.00000000000E+00  0.99999998245E-14  0.12500000000E+03  0.12500000000E+03 0.  0.
        -11    1    3    3    0    0 -0.91415716561E+01 -0.41335282905E+02 -0.10147695301E+02  0.43533316729E+02  0.51100000000E-03 0. -1.
         23    2    1    0    0    0  0.21908487917E+02 -0.87021908944E+01  0.16826765925E+02  0.96037092330E+02  0.91565676334E+02 0.  0.
         11    1    3    3    0    0  0.31050059573E+02  0.32633092011E+02  0.26974461226E+02  0.52503775602E+02  0.51100000000E-03 0.  1.
         22    1    1    0    0    0 -0.21908487917E+02  0.87021908944E+01 -0.16826765925E+02  0.28962907670E+02  0.00000000000E+00 0.  1.
</event>
<event>
 5    1  0.8778488E-005  0.9118800E+02  0.7818608E-02  0.1130116E+00
         25   -1    0    0    0    0  0.00000000000E+00  0.00000000000E+00  0.99999998245E-14  0.12500000000E+03  0.12500000000E+03 0.  0.
        -11    1    3    3    0    0  0.11358897125E+02  0.64559571319E+01 -0.26072676139E+02  0.29163133708E+02  0.51100000000E-03 0.  1.
         23    2    1    0    0    0 -0.11840319036E+02  0.57868065279E+01  0.31292611921E+02  0.91045503309E+02  0.84477072791E+02 0.  0.
         11    1    3    3    0    0 -0.23199216161E+02 -0.66915060393E+00  0.57365288060E+02  0.61882369601E+02  0.51100000000E-03 0. -1.
         22    1    1    0    0    0  0.11840319036E+02 -0.57868065279E+01 -0.31292611921E+02  0.33954496691E+02  0.00000000000E+00 0. -1.
</event>
<event>
 5    1  0.8778488E-005  0.9118800E+02  0.7818608E-02  0.1130116E+00
         25   -1    0    0    0    0  0.00000000000E+00  0.00000000000E+00  0.99999998245E-14  0.12500000000E+03  0.12500000000E+03 0.  0.
        -11    1    3    3    0    0  0.77046981440E+01 -0.48582218342E+02 -0.26509390631E+02  0.55877921439E+02  0.51100000000E-03 0.  1.
         23    2    1    0    0    0  0.62084152768E+01 -0.28426497069E+02  0.70573565664E+01  0.95059785612E+02  0.90221651520E+02 0.  0.
         11    1    3    3    0    0 -0.14962828672E+01  0.20155721272E+02  0.33566747197E+02  0.39181864173E+02  0.51100000000E-03 0. -1.
         22    1    1    0    0    0 -0.62084152768E+01  0.28426497069E+02 -0.70573565664E+01  0.29940214388E+02  0.00000000000E+00 0.  1.
</event>
<event>
 5    1  0.8778488E-005  0.9118800E+02  0.7818608E-02  0.1130116E+00
         25   -1    0    0    0    0  0.00000000000E+00  0.00000000000E+00  0.99999998245E-14  0.12500000000E+03  0.12500000000E+03 0.  0.
        -11    1    3    3    0    0 -0.15376351598E+02 -0.30615034145E+02 -0.39742022094E+01  0.34489227124E+02  0.51100000000E-03 0.  1.
         23    2    1    0    0    0  0.28811261723E+01  0.25121144461E+02  0.14338158380E+02  0.95931880474E+02  0.91421934559E+02 0.  0.
         11    1    3    3    0    0  0.18257477770E+02  0.55736178606E+02  0.18312360589E+02  0.61442653350E+02  0.51100000000E-03 0. -1.
         22    1    1    0    0    0 -0.28811261723E+01 -0.25121144461E+02 -0.14338158380E+02  0.29068119526E+02  0.00000000000E+00 0. -1.
</event>
<event>
 5    1  0.8778488E-005  0.9118800E+02  0.7818608E-02  0.1130116E+00
         25   -1    0    0    0    0  0.00000000000E+00  0.00000000000E+00  0.99999998245E-14  0.12500000000E+03  0.12500000000E+03 0.  0.
        -11    1    3    3    0    0  0.32727917879E+02  0.15316654865E+02 -0.26237313159E+01  0.36229828749E+02  0.51100000000E-03 0.  1.
         23    2    1    0    0    0 -0.14658862140E+02 -0.23309826209E+02  0.69769598045E+00  0.97455181670E+02  0.93481524472E+02 0.  0.
         11    1    3    3    0    0 -0.47386780019E+02 -0.38626481075E+02  0.33214272964E+01  0.61225352921E+02  0.51100000000E-03 0. -1.
         22    1    1    0    0    0  0.14658862140E+02  0.23309826209E+02 -0.69769598045E+00  0.27544818330E+02  0.00000000000E+00 0. -1.
</event>
<event>
 5    1  0.8778488E-005  0.9118800E+02  0.7818608E-02  0.1130116E+00
         25   -1    0    0    0    0  0.00000000000E+00  0.00000000000E+00  0.99999998245E-14  0.12500000000E+03  0.12500000000E+03 0.  0.
        -11    1    3    3    0    0  0.26213745378E+02  0.23444581054E+02 -0.47026571657E+01  0.35481316382E+02  0.51100000000E-03 0.  1.
         23    2    1    0    0    0  0.90052285271E+01 -0.30567750622E+02  0.41797723450E+01  0.92860429129E+02  0.87121221767E+02 0.  0.
         11    1    3    3    0    0 -0.17208516851E+02 -0.54012331676E+02  0.88824295107E+01  0.57379112747E+02  0.51100000000E-03 0. -1.
         22    1    1    0    0    0 -0.90052285271E+01  0.30567750622E+02 -0.41797723450E+01  0.32139570871E+02  0.00000000000E+00 0. -1.
</event>
<event>
 5    1  0.8778488E-005  0.9118800E+02  0.7818608E-02  0.1130116E+00
         25   -1    0    0    0    0  0.00000000000E+00  0.00000000000E+00  0.99999998245E-14  0.12500000000E+03  0.12500000000E+03 0.  0.
        -11    1    3    3    0    0 -0.20775552580E+02 -0.57028610730E+02 -0.88089294699E+00  0.60701416783E+02  0.51100000000E-03 0.  1.
         23    2    1    0    0    0 -0.13059814082E+01 -0.28331383017E+02  0.58866922767E+01  0.96034054529E+02  0.91561529215E+02 0.  0.
         11    1    3    3    0    0  0.19469571172E+02  0.28697227713E+02  0.67675852237E+01  0.35332637746E+02  0.51100000000E-03 0. -1.
         22    1    1    0    0    0  0.13059814082E+01  0.28331383017E+02 -0.58866922767E+01  0.28965945471E+02  0.00000000000E+00 0.  1.
</event>
<event>
 5    1  0.8778488E-005  0.9118800E+02  0.7818608E-02  0.1130116E+00
         25   -1    0    0    0    0  0.00000000000E+00  0.00000000000E+00  0.99999998245E-14  0.12500000000E+03  0.12500000000E+03 0.  0.
        -11    1    3    3    0    0 -0.14573919201E+02  0.35456253461E+02  0.28474291526E+02  0.47752804196E+02  0.51100000000E-03 0.  1.
         23    2    1    0    0    0  0.49613980768E+01  0.27423696936E+02 -0.12963597924E+02  0.94263547771E+02  0.89111654359E+02 0.  0.
         11    1    3    3    0    0  0.19535317278E+02 -0.80325565255E+01 -0.41437889451E+02  0.46510743575E+02  0.51100000000E-03 0. -1.
         22    1    1    0    0    0 -0.49613980768E+01 -0.27423696936E+02  0.12963597924E+02  0.30736452229E+02  0.00000000000E+00 0. -1.
</event>
<event>
 5    1  0.8778488E-005  0.9118800E+02  0.7818608E-02  0.1130116E+00
         25   -1    0    0    0    0  0.00000000000E+00  0.00000000000E+00  0.99999998245E-14  0.12500000000E+03  0.12500000000E+03 0.  0.
        -11    1    3    3    0    0 -0.33384743214E+02 -0.17860646413E+02  0.28082544595E+02  0.47139930855E+02  0.51100000000E-03 0.  1.
         23    2    1    0    0    0 -0.36892949398E+01  0.19642829099E+02  0.21861836271E+02  0.95379204647E+02  0.90663119083E+02 0.  0.
         11    1    3    3    0    0  0.29695448275E+02  0.37503475512E+02 -0.62207083234E+01  0.48239273793E+02  0.51100000000E-03 0. -1.
         22    1    1    0    0    0  0.36892949398E+01 -0.19642829099E+02 -0.21861836271E+02  0.29620795353E+02  0.00000000000E+00 0. -1.
</event>
<event>
 5    1  0.8778488E-005  0.9118800E+02  0.7818608E-02  0.1130116E+00
         25   -1    0    0    0    0  0.00000000000E+00  0.00000000000E+00  0.99999998245E-14  0.12500000000E+03  0.12500000000E+03 0.  0.
        -11    1    3    3    0    0 -0.26695301679E+02  0.78468844726E+01  0.38564167456E+02  0.47554261002E+02  0.51100000000E-03 0.  1.
         23    2    1    0    0    0  0.24824780223E+01  0.28444202734E+02  0.61345027619E+01  0.95796104876E+02  0.91236101511E+02 0.  0.
         11    1    3    3    0    0  0.29177779701E+02  0.20597318261E+02 -0.32429664694E+02  0.48241843873E+02  0.51100000000E-03 0. -1.
         22    1    1    0    0    0 -0.24824780223E+01 -0.28444202734E+02 -0.61345027619E+01  0.29203895124E+02  0.00000000000E+00 0.  1.
</event>
<event>
 5    1  0.8778488E-005  0.9118800E+02  0.7818608E-02  0.1130116E+00
         25   -1    0    0    0    0  0.00000000000E+00  0.00000000000E+00  0.99999998245E-14  0.12500000000E+03  0.12500000000E+03 0.  0.
        -11    1    3    3    0    0 -0.44518391914E+02  0.22203106115E+02  0.34936034867E+02  0.60789733279E+02  0.51100000000E-03 0. -1.
         23    2    1    0    0    0 -0.22763080414E+02  0.17360525380E+02  0.89904958702E+01  0.94993755860E+02  0.90130122406E+02 0.  0.
         11    1    3    3    0    0  0.21755311500E+02 -0.48425807349E+01 -0.25945538996E+02  0.34204022580E+02  0.51100000000E-03 0.  1.
         22    1    1    0    0    0  0.22763080414E+02 -0.17360525380E+02 -0.89904958702E+01  0.30006244140E+02  0.00000000000E+00 0. -1.
</event>
<event>
 5    1  0.8778488E-005  0.9118800E+02  0.7818608E-02  0.1130116E+00
         25   -1    0    0    0    0  0.00000000000E+00  0.00000000000E+00  0.99999998245E-14  0.12500000000E+03  0.12500000000E+03 0.  0.
        -11    1    3    3    0    0  0.55913833882E+00 -0.35057394827E+01 -0.58634444285E+02  0.58741815616E+02  0.51100000000E-03 0.  1.
         23    2    1    0    0    0  0.12396630088E+02  0.74268473267E+01 -0.23210736670E+02  0.97658222524E+02  0.93752629996E+02 0.  0.
         11    1    3    3    0    0  0.11837491749E+02  0.10932586809E+02  0.35423707614E+02  0.38916406908E+02  0.51100000000E-03 0. -1.
         22    1    1    0    0    0 -0.12396630088E+02 -0.74268473267E+01  0.23210736670E+02  0.27341777476E+02  0.00000000000E+00 0.  1.
</event>
<event>
 5    1  0.8778488E-005  0.9118800E+02  0.7818608E-02  0.1130116E+00
         25   -1    0    0    0    0  0.00000000000E+00  0.00000000000E+00  0.99999998245E-14  0.12500000000E+03  0.12500000000E+03 0.  0.
        -11    1    3    3    0    0 -0.26986137804E+02  0.13336808701E+02 -0.23861253123E+02  0.38411996834E+02  0.51100000000E-03 0.  1.
         23    2    1    0    0    0  0.27575770945E+02  0.36773960627E+01 -0.75235033899E+01  0.96180744488E+02  0.91761572142E+02 0.  0.
         11    1    3    3    0    0  0.54561908749E+02 -0.96594126384E+01  0.16337749733E+02  0.57768747654E+02  0.51100000000E-03 0. -1.
         22    1    1    0    0    0 -0.27575770945E+02 -0.36773960627E+01  0.75235033899E+01  0.28819255512E+02  0.00000000000E+00 0. -1.
</event>
<event>
 5    1  0.8778488E-005  0.9118800E+02  0.7818608E-02  0.1130116E+00
         25   -1    0    0    0    0  0.00000000000E+00  0.00000000000E+00  0.99999998245E-14  0.12500000000E+03  0.12500000000E+03 0.  0.
        -11    1    3    3    0    0  0.47724324679E+02  0.28891396494E+02 -0.30965880556E+01  0.55874079995E+02  0.51100000000E-03 0.  1.
         23    2    1    0    0    0  0.17423553429E+02  0.12983015670E+02  0.18602061594E+02  0.96396230921E+02  0.92054645348E+02 0.  0.
         11    1    3    3    0    0 -0.30300771249E+02 -0.15908380825E+02  0.21698649650E+02  0.40522150926E+02  0.51100000000E-03 0. -1.
         22    1    1    0    0    0 -0.17423553429E+02 -0.12983015670E+02 -0.18602061594E+02  0.28603769079E+02  0.00000000000E+00 0.  1.
</event>
<event>
 5    1  0.8778488E-005  0.9118800E+02  0.7818608E-02  0.1130116E+00
         25   -1    0    0    0    0  0.00000000000E+00  0.00000000000E+00  0.99999998245E-14  0.12500000000E+03  0.12500000000E+03 0.  0.
        -11    1    3    3    0    0 -0.55453976795E+02  0.18777690816E+02 -0.43434397784E+01  0.58707841760E+02  0.51100000000E-03 0.  1.
         23    2    1    0    0    0 -0.27682223156E+02 -0.73653117689E+00 -0.13962995400E+02  0.93986886684E+02  0.88722723532E+02 0.  0.
         11    1    3    3    0    0  0.27771753638E+02 -0.19514221993E+02 -0.96195556212E+01  0.35279044924E+02  0.51100000000E-03 0. -1.
         22    1    1    0    0    0  0.27682223156E+02  0.73653117689E+00  0.13962995400E+02  0.31013113316E+02  0.00000000000E+00 0.  1.
</event>
<event>
 5    1  0.8778488E-005  0.9118800E+02  0.7818608E-02  0.1130116E+00
         25   -1    0    0    0    0  0.00000000000E+00  0.00000000000E+00  0.99999998245E-14  0.12500000000E+03  0.12500000000E+03 0.  0.
        -11    1    3    3    0    0  0.24844541044E+02 -0.83038572776E+01 -0.23782760822E+02  0.35381138732E+02  0.51100000000E-03 0.  1.
         23    2    1    0    0    0 -0.23897854780E+02 -0.69099482120E+01  0.13438067453E+02  0.96725691798E+02  0.92500934858E+02 0.  0.
         11    1    3    3    0    0 -0.48742395824E+02  0.13939090657E+01  0.37220828276E+02  0.61344553067E+02  0.51100000000E-03 0. -1.
         22    1    1    0    0    0  0.23897854780E+02  0.69099482120E+01 -0.13438067453E+02  0.28274308202E+02  0.00000000000E+00 0. -1.
</event>
<event>
 5    1  0.8778488E-005  0.9118800E+02  0.7818608E-02  0.1130116E+00
         25   -1    0    0    0    0  0.00000000000E+00  0.00000000000E+00  0.99999998245E-14  0.12500000000E+03  0.12500000000E+03 0.  0.
        -11    1    3    3    0    0 -0.23027711338E+02  0.13479548196E+01 -0.24098135721E+02  0.33358846160E+02  0.51100000000E-03 0. -1.
         23    2    1    0    0    0  0.18743882571E+02  0.11788208879E+02  0.20123455313E+02  0.95079297198E+02  0.90248680321E+02 0.  0.
         11    1    3    3    0    0  0.41771593909E+02  0.10440254059E+02  0.44221591034E+02  0.61720451038E+02  0.51100000000E-03 0.  1.
         22    1    1    0    0    0 -0.18743882571E+02 -0.11788208879E+02 -0.20123455313E+02  0.29920702802E+02  0.00000000000E+00 0.  1.
</event>
<event>
 5    1  0.8778488E-005  0.9118800E+02  0.7818608E-02  0.1130116E+00
         25   -1    0    0    0    0  0.00000000000E+00  0.00000000000E+00  0.99999998245E-14  0.12500000000E+03  0.12500000000E+03 0.  0.
        -11    1    3    3    0    0 -0.91020072068E+01 -0.26677591706E+02 -0.35337682740E+02  0.45202790358E+02  0.51100000000E-03 0. -1.
         23    2    1    0    0    0  0.17479287458E+02 -0.47017704737E+01  0.11638712346E+02  0.10348043307E+03  0.10121812223E+03 0.  0.
         11    1    3    3    0    0  0.26581294665E+02  0.21975821232E+02  0.46976395087E+02  0.58277642716E+02  0.51100000000E-03 0.  1.
         22    1    1    0    0    0 -0.17479287458E+02  0.47017704737E+01 -0.11638712346E+02  0.21519566927E+02  0.00000000000E+00 0. -1.
</event>
<event>
 5    1  0.8778488E-005  0.9118800E+02  0.7818608E-02  0.1130116E+00
         25   -1    0    0    0    0  0.00000000000E+00  0.00000000000E+00  0.99999998245E-14  0.12500000000E+03  0.12500000000E+03 0.  0.
        -11    1    3    3    0    0  0.44921522027E+02  0.77909787680E+01 -0.30863326821E+01  0.45696476244E+02  0.51100000000E-03 0.  1.
         23    2    1    0    0    0  0.34848783045E+02 -0.12454306884E+02  0.23931791645E+02  0.80928715800E+02  0.67876203120E+02 0.  0.
         11    1    3    3    0    0 -0.10072738982E+02 -0.20245285652E+02  0.27018124327E+02  0.35232239556E+02  0.51100000000E-03 0. -1.
         22    1    1    0    0    0 -0.34848783045E+02  0.12454306884E+02 -0.23931791645E+02  0.44071284200E+02  0.00000000000E+00 0.  1.
</event>
<event>
 5    1  0.8778488E-005  0.9118800E+02  0.7818608E-02  0.1130116E+00
         25   -1    0    0    0    0  0.00000000000E+00  0.00000000000E+00  0.99999998245E-14  0.12500000000E+03  0.12500000000E+03 0.  0.
        -11    1    3    3    0    0  0.14703089843E+02 -0.48673460509E+01 -0.32396712236E+02  0.35908479117E+02  0.51100000000E-03 0. -1.
         23    2    1    0    0    0 -0.16436239607E+02  0.24567433132E+02  0.75525394626E+01  0.94491811010E+02  0.89431273906E+02 0.  0.
         11    1    3    3    0    0 -0.31139329450E+02  0.29434779183E+02  0.39949251699E+02  0.58583331893E+02  0.51100000000E-03 0.  1.
         22    1    1    0    0    0  0.16436239607E+02 -0.24567433132E+02 -0.75525394626E+01  0.30508188990E+02  0.00000000000E+00 0.  1.
</event>
<event>
 5    1  0.8778488E-005  0.9118800E+02  0.7818608E-02  0.1130116E+00
         25   -1    0    0    0    0  0.00000000000E+00  0.00000000000E+00  0.99999998245E-14  0.12500000000E+03  0.12500000000E+03 0.  0.
        -11    1    3    3    0    0 -0.45190791711E+02  0.39729127363E+01 -0.14989956643E+02  0.47777510311E+02  0.51100000000E-03 0. -1.
         23    2    1    0    0    0  0.12595931843E+02  0.11980005578E+02 -0.43818336151E+01  0.10707296738E+03  0.10556155477E+03 0.  0.
         11    1    3    3    0    0  0.57786723554E+02  0.80070928414E+01  0.10608123028E+02  0.59295457072E+02  0.51100000000E-03 0.  1.
         22    1    1    0    0    0 -0.12595931843E+02 -0.11980005578E+02  0.43818336151E+01  0.17927032617E+02  0.00000000000E+00 0.  1.
</event>
<event>
 5    1  0.8778488E-005  0.9118800E+02  0.7818608E-02  0.1130116E+00
         25   -1    0    0    0    0  0.00000000000E+00  0.00000000000E+00  0.99999998245E-14  0.12500000000E+03  0.12500000000E+03 0.  0.
        -11    1    3    3    0    0 -0.28738960384E+02  0.17326343444E+02  0.51149568161E+00  0.33561758732E+02  0.51100000000E-03 0.  1.
         23    2    1    0    0    0  0.19259830197E+02 -0.21221304190E+02 -0.67724568406E+01  0.95552572567E+02  0.90901832445E+02 0.  0.
         11    1    3    3    0    0  0.47998790581E+02 -0.38547647635E+02 -0.72839525222E+01  0.61990813835E+02  0.51100000000E-03 0. -1.
         22    1    1    0    0    0 -0.19259830197E+02  0.21221304190E+02  0.67724568406E+01  0.29447427433E+02  0.00000000000E+00 0. -1.
</event>
<event>
 5    1  0.8778488E-005  0.9118800E+02  0.7818608E-02  0.1130116E+00
         25   -1    0    0    0    0  0.00000000000E+00  0.00000000000E+00  0.99999998245E-14  0.12500000000E+03  0.12500000000E+03 0.  0.
        -11    1    3    3    0    0 -0.39965587144E+02  0.78618069043E+01 -0.25093097890E+02  0.47840565690E+02  0.51100000000E-03 0.  1.
         23    2    1    0    0    0  0.19812436832E+01  0.26584080650E+02 -0.13000933530E+02  0.95340887687E+02  0.90610274924E+02 0.  0.
         11    1    3    3    0    0  0.41946830827E+02  0.18722273746E+02  0.12092164361E+02  0.47500321997E+02  0.51100000000E-03 0. -1.
         22    1    1    0    0    0 -0.19812436832E+01 -0.26584080650E+02  0.13000933530E+02  0.29659112313E+02  0.00000000000E+00 0. -1.
</event>
<event>
 5    1  0.8778488E-005  0.9118800E+02  0.7818608E-02  0.1130116E+00
         25   -1    0    0    0    0  0.00000000000E+00  0.00000000000E+00  0.99999998245E-14  0.12500000000E+03  0.12500000000E+03 0.  0.
        -11    1    3    3    0    0  0.39083009945E+02  0.15687059453E+02  0.82378762386E+01  0.42911864395E+02  0.51100000000E-03 0.  1.
         23    2    1    0    0    0 -0.12943905639E+02  0.22678968061E+02  0.13381942653E+02  0.95657936768E+02  0.91046604506E+02 0.  0.
         11    1    3    3    0    0 -0.52026915585E+02  0.69919086089E+01  0.51440664141E+01  0.52746072373E+02  0.51100000000E-03 0. -1.
         22    1    1    0    0    0  0.12943905639E+02 -0.22678968061E+02 -0.13381942653E+02  0.29342063232E+02  0.00000000000E+00 0.  1.
</event>
<event>
 5    1  0.8778488E-005  0.9118800E+02  0.7818608E-02  0.1130116E+00
         25   -1    0    0    0    0  0.00000000000E+00  0.00000000000E+00  0.99999998245E-14  0.12500000000E+03  0.12500000000E+03 0.  0.
        -11    1    3    3    0    0  0.28469643802E+02  0.55578461814E+01  0.41927546059E+01  0.29308522034E+02  0.51100000000E-03 0.  1.
         23    2    1    0    0    0 -0.29702653941E+02 -0.15596528822E+02  0.40497544629E+01  0.91207990979E+02  0.84717163225E+02 0.  0.
         11    1    3    3    0    0 -0.58172297743E+02 -0.21154375003E+02 -0.14300014306E+00  0.61899468946E+02  0.51100000000E-03 0. -1.
         22    1    1    0    0    0  0.29702653941E+02  0.15596528822E+02 -0.40497544629E+01  0.33792009021E+02  0.00000000000E+00 0. -1.
</event>
<event>
 5    1  0.8778488E-005  0.9118800E+02  0.7818608E-02  0.1130116E+00
         25   -1    0    0    0    0  0.00000000000E+00  0.00000000000E+00  0.99999998245E-14  0.12500000000E+03  0.12500000000E+03 0.  0.
        -11    1    3    3    0    0  0.43945566163E+02 -0.89648994648E+01 -0.51881084506E+01  0.45149736182E+02  0.51100000000E-03 0.  1.
         23    2    1    0    0    0  0.98342384445E+01  0.25667342960E+02  0.94788807312E+01  0.95924685379E+02  0.91412096272E+02 0.  0.
         11    1    3    3    0    0 -0.34111327718E+02  0.34632242424E+02  0.14666989182E+02  0.50774949197E+02  0.51100000000E-03 0. -1.
         22    1    1    0    0    0 -0.98342384445E+01 -0.25667342960E+02 -0.94788807312E+01  0.29075314621E+02  0.00000000000E+00 0. -1.
</event>
<event>
 5    1  0.8778488E-005  0.9118800E+02  0.7818608E-02  0.1130116E+00
         25   -1    0    0    0    0  0.00000000000E+00  0.00000000000E+00  0.99999998245E-14  0.12500000000E+03  0.12500000000E+03 0.  0.
        -11    1    3    3    0    0  0.32052105748E+02 -0.16241206486E+02  0.97850361697E+01  0.37240585442E+02  0.51100000000E-03 0. -1.
         23    2    1    0    0    0 -0.49041329163E+01  0.26458522016E+02  0.15408720754E+02  0.93991411154E+02  0.88729097755E+02 0.  0.
         11    1    3    3    0    0 -0.36956238664E+02  0.42699728502E+02  0.56236845847E+01  0.56750825711E+02  0.51100000000E-03 0.  1.
         22    1    1    0    0    0  0.49041329163E+01 -0.26458522016E+02 -0.15408720754E+02  0.31008588846E+02  0.00000000000E+00 0.  1.
</event>
<event>
 5    1  0.8778488E-005  0.9118800E+02  0.7818608E-02  0.1130116E+00
         25   -1    0    0    0    0  0.00000000000E+00  0.00000000000E+00  0.99999998245E-14  0.12500000000E+03  0.12500000000E+03 0.  0.
        -11    1    3    3    0    0  0.28304879302E+02  0.34961449910E+02 -0.41553810605E+02  0.61238781406E+02  0.51100000000E-03 0.  1.
         23    2    1    0    0    0  0.77227498759E+01  0.12720906575E+02 -0.25356911153E+02  0.95598719876E+02  0.90965267926E+02 0.  0.
         11    1    3    3    0    0 -0.20582129426E+02 -0.22240543335E+02  0.16196899452E+02  0.34359938470E+02  0.51100000000E-03 0. -1.
         22    1    1    0    0    0 -0.77227498759E+01 -0.12720906575E+02  0.25356911153E+02  0.29401280124E+02  0.00000000000E+00 0.  1.
</event>
<event>
 5    1  0.8778488E-005  0.9118800E+02  0.7818608E-02  0.1130116E+00
         25   -1    0    0    0    0  0.00000000000E+00  0.00000000000E+00  0.99999998245E-14  0.12500000000E+03  0.12500000000E+03 0.  0.
        -11    1    3    3    0    0 -0.12518510611E+02 -0.37100499238E+02  0.43783117930E+02  0.58737735465E+02  0.51100000000E-03 0. -1.
         23    2    1    0    0    0  0.94961146355E+01 -0.17695247223E+02  0.21455939482E+02  0.95611987027E+02  0.90983497167E+02 0.  0.
         11    1    3    3    0    0  0.22014625247E+02  0.19405252015E+02 -0.22327178448E+02  0.36874251562E+02  0.51100000000E-03 0.  1.
         22    1    1    0    0    0 -0.94961146355E+01  0.17695247223E+02 -0.21455939482E+02  0.29388012973E+02  0.00000000000E+00 0. -1.
</event>
<event>
 5    1  0.8778488E-005  0.9118800E+02  0.7818608E-02  0.1130116E+00
         25   -1    0    0    0    0  0.00000000000E+00  0.00000000000E+00  0.99999998245E-14  0.12500000000E+03  0.12500000000E+03 0.  0.
        -11    1    3    3    0    0  0.27468881905E+02 -0.17928462969E+02  0.13179528975E+02  0.35350661123E+02  0.51100000000E-03 0.  1.
         23    2    1    0    0    0 -0.24909484263E+02 -0.31271917043E+01 -0.14070871335E+02  0.96220647083E+02  0.91815912405E+02 0.  0.
         11    1    3    3    0    0 -0.52378366168E+02  0.14801271265E+02 -0.27250400310E+02  0.60869985960E+02  0.51100000000E-03 0. -1.
         22    1    1    0    0    0  0.24909484263E+02  0.31271917043E+01  0.14070871335E+02  0.28779352917E+02  0.00000000000E+00 0. -1.
</event>
<event>
 5    1  0.8778488E-005  0.9118800E+02  0.7818608E-02  0.1130116E+00
         25   -1    0    0    0    0  0.00000000000E+00  0.00000000000E+00  0.99999998245E-14  0.12500000000E+03  0.12500000000E+03 0.  0.
        -11    1    3    3    0    0 -0.16483385936E+02 -0.10751441942E+01 -0.27610865094E+02  0.32174800986E+02  0.51100000000E-03 0.  1.
         23    2    1    0    0    0  0.23134585749E+02 -0.17571548302E+02  0.14701051101E+02  0.92440987868E+02  0.86517321775E+02 0.  0.
         11    1    3    3    0    0  0.39617971685E+02 -0.16496404108E+02  0.42311916196E+02  0.60266186882E+02  0.51100000000E-03 0. -1.
         22    1    1    0    0    0 -0.23134585749E+02  0.17571548302E+02 -0.14701051101E+02  0.32559012132E+02  0.00000000000E+00 0. -1.
</event>
<event>
 5    1  0.8778488E-005  0.9118800E+02  0.7818608E-02  0.1130116E+00
         25   -1    0    0    0    0  0.00000000000E+00  0.00000000000E+00  0.99999998245E-14  0.12500000000E+03  0.12500000000E+03 0.  0.
        -11    1    3    3    0    0  0.15549413631E+02  0.15172025239E+02 -0.35671152641E+02  0.41766083670E+02  0.51100000000E-03 0. -1.
         23    2    1    0    0    0  0.21527130017E+02  0.10471189248E+02  0.17416716708E+02  0.95395859210E+02  0.90686078328E+02 0.  0.
         11    1    3    3    0    0  0.59777163862E+01 -0.47008359916E+01  0.53087869349E+02  0.53629775540E+02  0.51100000000E-03 0.  1.
         22    1    1    0    0    0 -0.21527130017E+02 -0.10471189248E+02 -0.17416716708E+02  0.29604140790E+02  0.00000000000E+00 0.  1.
</event>
<event>
 5    1  0.8778488E-005  0.9118800E+02  0.7818608E-02  0.1130116E+00
         25   -1    0    0    0    0  0.00000000000E+00  0.00000000000E+00  0.99999998245E-14  0.12500000000E+03  0.12500000000E+03 0.  0.
        -11    1    3    3    0    0  0.19019890378E+02 -0.31525181894E+02 -0.17591556596E+02  0.40805100014E+02  0.51100000000E-03 0. -1.
         23    2    1    0    0    0 -0.23574880814E+02  0.41373971784E+01 -0.15670522010E+02  0.96391289424E+02  0.92047935098E+02 0.  0.
         11    1    3    3    0    0 -0.42594771192E+02  0.35662579072E+02  0.19210345866E+01  0.55586189410E+02  0.51100000000E-03 0.  1.
         22    1    1    0    0    0  0.23574880814E+02 -0.41373971784E+01  0.15670522010E+02  0.28608710576E+02  0.00000000000E+00 0.  1.
</event>
<event>
 5    1  0.8778488E-005  0.9118800E+02  0.7818608E-02  0.1130116E+00
         25   -1    0    0    0    0  0.00000000000E+00  0.00000000000E+00  0.99999998245E-14  0.12500000000E+03  0.12500000000E+03 0.  0.
        -11    1    3    3    0    0 -0.57952329205E+01  0.91758217537E+01 -0.42779730779E+02  0.44134859184E+02  0.51100000000E-03 0. -1.
         23    2    1    0    0    0  0.20278054263E+02  0.21387424645E+02 -0.20979826494E+00  0.95526869305E+02  0.90866480763E+02 0.  0.
         11    1    3    3    0    0  0.26073287184E+02  0.12211602891E+02  0.42569932514E+02  0.51392010121E+02  0.51100000000E-03 0.  1.
         22    1    1    0    0    0 -0.20278054263E+02 -0.21387424645E+02  0.20979826494E+00  0.29473130695E+02  0.00000000000E+00 0.  1.
</event>
<event>
 5    1  0.8778488E-005  0.9118800E+02  0.7818608E-02  0.1130116E+00
         25   -1    0    0    0    0  0.00000000000E+00  0.00000000000E+00  0.99999998245E-14  0.12500000000E+03  0.12500000000E+03 0.  0.
        -11    1    3    3    0    0 -0.42628045925E+02  0.22516719110E+02  0.13412821620E+02  0.50040550786E+02  0.51100000000E-03 0.  1.
         23    2    1    0    0    0 -0.92324828461E+01  0.23457452410E+02  0.28717099899E+02  0.86787925473E+02  0.77922919403E+02 0.  0.
         11    1    3    3    0    0  0.33395563079E+02  0.94073330006E+00  0.15304278279E+02  0.36747374687E+02  0.51100000000E-03 0. -1.
         22    1    1    0    0    0  0.92324828461E+01 -0.23457452410E+02 -0.28717099899E+02  0.38212074527E+02  0.00000000000E+00 0.  1.
</event>
<event>
 5    1  0.8778488E-005  0.9118800E+02  0.7818608E-02  0.1130116E+00
         25   -1    0    0    0    0  0.00000000000E+00  0.00000000000E+00  0.99999998245E-14  0.12500000000E+03  0.12500000000E+03 0.  0.
        -11    1    3    3    0    0  0.29504381148E+02 -0.15852361609E+02  0.15793878167E-01  0.33493374348E+02  0.51100000000E-03 0.  1.
         23    2    1    0    0    0 -0.19564141843E+02  0.21902900829E+02 -0.29965690704E+01  0.95479293081E+02  0.90801009192E+02 0.  0.
         11    1    3    3    0    0 -0.49068522992E+02  0.37755262438E+02 -0.30123629486E+01  0.61985918733E+02  0.51100000000E-03 0. -1.
         22    1    1    0    0    0  0.19564141843E+02 -0.21902900829E+02  0.29965690704E+01  0.29520706919E+02  0.00000000000E+00 0. -1.
</event>
<event>
 5    1  0.8778488E-005  0.9118800E+02  0.7818608E-02  0.1130116E+00
         25   -1    0    0    0    0  0.00000000000E+00  0.00000000000E+00  0.99999998245E-14  0.12500000000E+03  0.12500000000E+03 0.  0.
        -11    1    3    3    0    0 -0.17250727099E+02 -0.27594632516E+02 -0.21959116982E+02  0.39258809815E+02  0.51100000000E-03 0. -1.
         23    2    1    0    0    0  0.32053381536E+01  0.24531120576E+02 -0.15922807327E+02  0.95579159384E+02  0.90938384887E+02 0.  0.
         11    1    3    3    0    0  0.20456065252E+02  0.52125753093E+02  0.60363096554E+01  0.56320349569E+02  0.51100000000E-03 0.  1.
         22    1    1    0    0    0 -0.32053381536E+01 -0.24531120576E+02  0.15922807327E+02  0.29420840616E+02  0.00000000000E+00 0.  1.
</event>
<event>
 5    1  0.8778488E-005  0.9118800E+02  0.7818608E-02  0.1130116E+00
         25   -1    0    0    0    0  0.00000000000E+00  0.00000000000E+00  0.99999998245E-14  0.12500000000E+03  0.12500000000E+03 0.  0.
        -11    1    3    3    0    0  0.12737181395E+02 -0.21057681071E+02  0.24334579801E+02  0.34609731237E+02  0.51100000000E-03 0.  1.
         23    2    1    0    0    0 -0.97667748964E+01  0.21745121595E+02 -0.14905526693E+02  0.96885681032E+02  0.92716882270E+02 0.  0.
         11    1    3    3    0    0 -0.22503956292E+02  0.42802802666E+02 -0.39240106494E+02  0.62275949794E+02  0.51100000000E-03 0. -1.
         22    1    1    0    0    0  0.97667748964E+01 -0.21745121595E+02  0.14905526693E+02  0.28114318968E+02  0.00000000000E+00 0. -1.
</event>
<event>
 5    1  0.8778488E-005  0.9118800E+02  0.7818608E-02  0.1130116E+00
         25   -1    0    0    0    0  0.00000000000E+00  0.00000000000E+00  0.99999998245E-14  0.12500000000E+03  0.12500000000E+03 0.  0.
        -11    1    3    3    0    0  0.41874848085E+02  0.37829797077E+02 -0.10857857021E+02  0.57467290769E+02  0.51100000000E-03 0. -1.
         23    2    1    0    0    0  0.18870327944E+02  0.21059661887E+02  0.12298430345E+02  0.94164143850E+02  0.88972107778E+02 0.  0.
         11    1    3    3    0    0 -0.23004520140E+02 -0.16770135190E+02  0.23156287367E+02  0.36696853081E+02  0.51100000000E-03 0.  1.
         22    1    1    0    0    0 -0.18870327944E+02 -0.21059661887E+02 -0.12298430345E+02  0.30835856150E+02  0.00000000000E+00 0. -1.
</event>
<event>
 5    1  0.8778488E-005  0.9118800E+02  0.7818608E-02  0.1130116E+00
         25   -1    0    0    0    0  0.00000000000E+00  0.00000000000E+00  0.99999998245E-14  0.12500000000E+03  0.12500000000E+03 0.  0.
        -11    1    3    3    0    0  0.25475776662E+02 -0.29063196795E+02  0.15131784751E+02  0.41504885430E+02  0.51100000000E-03 0.  1.
         23    2    1    0    0    0 -0.25357645994E+02 -0.13469797922E+02  0.82863853824E+01  0.95115056481E+02  0.90298195554E+02 0.  0.
         11    1    3    3    0    0 -0.50833422657E+02  0.15593398873E+02 -0.68453993690E+01  0.53610171052E+02  0.51100000000E-03 0. -1.
         22    1    1    0    0    0  0.25357645994E+02  0.13469797922E+02 -0.82863853824E+01  0.29884943519E+02  0.00000000000E+00 0.  1.
</event>
<event>
 5    1  0.8778488E-005  0.9118800E+02  0.7818608E-02  0.1130116E+00
         25   -1    0    0    0    0  0.00000000000E+00  0.00000000000E+00  0.99999998245E-14  0.12500000000E+03  0.12500000000E+03 0.  0.
        -11    1    3    3    0    0 -0.46409295916E+02 -0.10859137665E+02 -0.56812888845E+01  0.48000215227E+02  0.51100000000E-03 0.  1.
         23    2    1    0    0    0 -0.46185701739E+01 -0.26041213225E+02  0.12136770457E+02  0.95900564029E+02  0.91379105967E+02 0.  0.
         11    1    3    3    0    0  0.41790725742E+02 -0.15182075560E+02  0.17818059341E+02  0.47900348802E+02  0.51100000000E-03 0. -1.
         22    1    1    0    0    0  0.46185701739E+01  0.26041213225E+02 -0.12136770457E+02  0.29099435971E+02  0.00000000000E+00 0.  1.
</event>
<event>
 5    1  0.8778488E-005  0.9118800E+02  0.7818608E-02  0.1130116E+00
         25   -1    0    0    0    0  0.00000000000E+00  0.00000000000E+00  0.99999998245E-14  0.12500000000E+03  0.12500000000E+03 0.  0.
        -11    1    3    3    0    0  0.21603574097E+02  0.64764134154E+00  0.33590879213E+02  0.39943472804E+02  0.51100000000E-03 0.  1.
         23    2    1    0    0    0 -0.67119889753E+01 -0.31137390097E+02  0.17560828197E+01  0.93099033166E+02  0.87462896656E+02 0.  0.
         11    1    3    3    0    0 -0.28315563072E+02 -0.31785031439E+02 -0.31834796394E+02  0.53155560362E+02  0.51100000000E-03 0. -1.
         22    1    1    0    0    0  0.67119889753E+01  0.31137390097E+02 -0.17560828197E+01  0.31900966834E+02  0.00000000000E+00 0.  1.
</event>
<event>
 5    1  0.8778488E-005  0.9118800E+02  0.7818608E-02  0.1130116E+00
         25   -1    0    0    0    0  0.00000000000E+00  0.00000000000E+00  0.99999998245E-14  0.12500000000E+03  0.12500000000E+03 0.  0.
        -11    1    3    3    0    0  0.18366079518E+02  0.18536236614E+02  0.32603108367E+02  0.41759641044E+02  0.51100000000E-03 0.  1.
         23    2    1    0    0    0  0.23123864078E+02 -0.68946151096E+00 -0.17732506742E+02  0.95851582505E+02  0.91312078206E+02 0.  0.
         11    1    3    3    0    0  0.47577845603E+01 -0.19225698125E+02 -0.50335615109E+02  0.54091941461E+02  0.51100000000E-03 0. -1.
         22    1    1    0    0    0 -0.23123864078E+02  0.68946151096E+00  0.17732506742E+02  0.29148417495E+02  0.00000000000E+00 0. -1.
</event>
<event>
 5    1  0.8778488E-005  0.9118800E+02  0.7818608E-02  0.1130116E+00
         25   -1    0    0    0    0  0.00000000000E+00  0.00000000000E+00  0.99999998245E-14  0.12500000000E+03  0.12500000000E+03 0.  0.
        -11    1    3    3    0    0  0.20449067667E+02 -0.25026709296E+02 -0.36869766615E+02  0.49029381366E+02  0.51100000000E-03 0.  1.
         23    2    1    0    0    0 -0.19475260171E+02 -0.12475604529E+02 -0.20912042990E+02  0.93819236553E+02  0.88486208746E+02 0.  0.
         11    1    3    3    0    0 -0.39924327838E+02  0.12551104766E+02  0.15957723625E+02  0.44789855187E+02  0.51100000000E-03 0. -1.
         22    1    1    0    0    0  0.19475260171E+02  0.12475604529E+02  0.20912042990E+02  0.31180763447E+02  0.00000000000E+00 0.  1.
</event>
<event>
 5    1  0.8778488E-005  0.9118800E+02  0.7818608E-02  0.1130116E+00
         25   -1    0    0    0    0  0.00000000000E+00  0.00000000000E+00  0.99999998245E-14  0.12500000000E+03  0.12500000000E+03 0.  0.
        -11    1    3    3    0    0 -0.12771243470E+02 -0.54709648333E+02  0.25447589855E+02  0.61675198501E+02  0.51100000000E-03 0. -1.
         23    2    1    0    0    0  0.12583736914E+01 -0.25930509078E+02  0.11947478402E+02  0.96421738234E+02  0.92089274937E+02 0.  0.
         11    1    3    3    0    0  0.14029617162E+02  0.28779139255E+02 -0.13500111453E+02  0.34746539733E+02  0.51100000000E-03 0.  1.
         22    1    1    0    0    0 -0.12583736914E+01  0.25930509078E+02 -0.11947478402E+02  0.28578261766E+02  0.00000000000E+00 0. -1.
</event>
<event>
 5    1  0.8778488E-005  0.9118800E+02  0.7818608E-02  0.1130116E+00
         25   -1    0    0    0    0  0.00000000000E+00  0.00000000000E+00  0.99999998245E-14  0.12500000000E+03  0.12500000000E+03 0.  0.
        -11    1    3    3    0    0 -0.21033240353E+02  0.37263002479E+02  0.19068644992E+02  0.46845936596E+02  0.51100000000E-03 0.  1.
         23    2    1    0    0    0  0.22276717590E+02  0.13163763274E+02  0.10148530518E+02  0.97205585421E+02  0.93147175778E+02 0.  0.
         11    1    3    3    0    0  0.43309957942E+02 -0.24099239206E+02 -0.89201144736E+01  0.50359648825E+02  0.51100000000E-03 0. -1.
         22    1    1    0    0    0 -0.22276717590E+02 -0.13163763274E+02 -0.10148530518E+02  0.27794414579E+02  0.00000000000E+00 0. -1.
</event>
<event>
 5    1  0.8778488E-005  0.9118800E+02  0.7818608E-02  0.1130116E+00
         25   -1    0    0    0    0  0.00000000000E+00  0.00000000000E+00  0.99999998245E-14  0.12500000000E+03  0.12500000000E+03 0.  0.
        -11    1    3    3    0    0 -0.25748773415E+02 -0.15357157838E+02 -0.26726330680E+02  0.40163893998E+02  0.51100000000E-03 0.  1.
         23    2    1    0    0    0  0.10993540556E+02  0.23952504189E+02 -0.12561398456E+02  0.95804638690E+02  0.91247792699E+02 0.  0.
         11    1    3    3    0    0  0.36742313971E+02  0.39309662027E+02  0.14164932224E+02  0.55640744691E+02  0.51100000000E-03 0. -1.
         22    1    1    0    0    0 -0.10993540556E+02 -0.23952504189E+02  0.12561398456E+02  0.29195361310E+02  0.00000000000E+00 0. -1.
</event>
<event>
 5    1  0.8778488E-005  0.9118800E+02  0.7818608E-02  0.1130116E+00
         25   -1    0    0    0    0  0.00000000000E+00  0.00000000000E+00  0.99999998245E-14  0.12500000000E+03  0.12500000000E+03 0.  0.
        -11    1    3    3    0    0  0.35456743586E+01  0.30111149199E+02 -0.31348041649E+02  0.43611384158E+02  0.51100000000E-03 0.  1.
         23    2    1    0    0    0 -0.21947747739E+02  0.16882243009E+02  0.11353292978E+02  0.95073239045E+02  0.90240289014E+02 0.  0.
         11    1    3    3    0    0 -0.25493422098E+02 -0.13228906190E+02  0.42701334626E+02  0.51461854887E+02  0.51100000000E-03 0. -1.
         22    1    1    0    0    0  0.21947747739E+02 -0.16882243009E+02 -0.11353292978E+02  0.29926760955E+02  0.00000000000E+00 0. -1.
</event>
<event>
 5    1  0.8778488E-005  0.9118800E+02  0.7818608E-02  0.1130116E+00
         25   -1    0    0    0    0  0.00000000000E+00  0.00000000000E+00  0.99999998245E-14  0.12500000000E+03  0.12500000000E+03 0.  0.
        -11    1    3    3    0    0  0.22901950354E+02  0.16877363171E+02  0.52118854925E+02  0.59377771570E+02  0.51100000000E-03 0. -1.
         23    2    1    0    0    0  0.15830612089E+02  0.18358127207E+02  0.16609718932E+02  0.95614427406E+02  0.90986849883E+02 0.  0.
         11    1    3    3    0    0 -0.70713382647E+01  0.14807640360E+01 -0.35509135993E+02  0.36236655837E+02  0.51100000000E-03 0.  1.
         22    1    1    0    0    0 -0.15830612089E+02 -0.18358127207E+02 -0.16609718932E+02  0.29385572594E+02  0.00000000000E+00 0. -1.
</event>
<event>
 5    1  0.8778488E-005  0.9118800E+02  0.7818608E-02  0.1130116E+00
         25   -1    0    0    0    0  0.00000000000E+00  0.00000000000E+00  0.99999998245E-14  0.12500000000E+03  0.12500000000E+03 0.  0.
        -11    1    3    3    0    0  0.23207540393E+02 -0.57017869085E+02  0.90690529194E+01  0.62224392703E+02  0.51100000000E-03 0. -1.
         23    2    1    0    0    0  0.79666063974E+01 -0.30158639101E+02  0.57090878346E+01  0.93288739952E+02  0.87733602388E+02 0.  0.
         11    1    3    3    0    0 -0.15240933995E+02  0.26859229984E+02 -0.33599650849E+01  0.31064347249E+02  0.51100000000E-03 0.  1.
         22    1    1    0    0    0 -0.79666063974E+01  0.30158639101E+02 -0.57090878346E+01  0.31711260048E+02  0.00000000000E+00 0. -1.
</event>
<event>
 5    1  0.8778488E-005  0.9118800E+02  0.7818608E-02  0.1130116E+00
         25   -1    0    0    0    0  0.00000000000E+00  0.00000000000E+00  0.99999998245E-14  0.12500000000E+03  0.12500000000E+03 0.  0.
        -11    1    3    3    0    0  0.32013600681E+02  0.14561465100E+02 -0.41999425597E+02  0.54780093512E+02  0.51100000000E-03 0.  1.
         23    2    1    0    0    0  0.30631602175E+01  0.25045853181E+02 -0.15631156750E+02  0.95318174358E+02  0.90578935684E+02 0.  0.
         11    1    3    3    0    0 -0.28950440464E+02  0.10484388081E+02  0.26368268847E+02  0.40538080847E+02  0.51100000000E-03 0. -1.
         22    1    1    0    0    0 -0.30631602175E+01 -0.25045853181E+02  0.15631156750E+02  0.29681825642E+02  0.00000000000E+00 0.  1.
</event>
<event>
 5    1  0.8778488E-005  0.9118800E+02  0.7818608E-02  0.1130116E+00
         25   -1    0    0    0    0  0.00000000000E+00  0.00000000000E+00  0.99999998245E-14  0.12500000000E+03  0.12500000000E+03 0.  0.
        -11    1    3    3    0    0  0.19885388642E+02 -0.21193089240E+02 -0.15675310022E+02  0.33019555683E+02  0.51100000000E-03 0. -1.
         23    2    1    0    0    0 -0.25694987703E+02  0.15068569023E+02  0.49408777010E+01  0.94805523056E+02  0.89868686226E+02 0.  0.
         11    1    3    3    0    0 -0.45580376344E+02  0.36261658264E+02  0.20616187723E+02  0.61785967373E+02  0.51100000000E-03 0.  1.
         22    1    1    0    0    0  0.25694987703E+02 -0.15068569023E+02 -0.49408777010E+01  0.30194476944E+02  0.00000000000E+00 0.  1.
</event>
<event>
 5    1  0.8778488E-005  0.9118800E+02  0.7818608E-02  0.1130116E+00
         25   -1    0    0    0    0  0.00000000000E+00  0.00000000000E+00  0.99999998245E-14  0.12500000000E+03  0.12500000000E+03 0.  0.
        -11    1    3    3    0    0 -0.46401407491E+02 -0.24000191622E+02  0.21046198299E+02  0.56320886696E+02  0.51100000000E-03 0. -1.
         23    2    1    0    0    0 -0.26470332786E+02  0.53187063745E+00 -0.59217720022E+01  0.97870149506E+02  0.94034766850E+02 0.  0.
         11    1    3    3    0    0  0.19931074705E+02  0.24532062260E+02 -0.26967970302E+02  0.41549262810E+02  0.51100000000E-03 0.  1.
         22    1    1    0    0    0  0.26470332786E+02 -0.53187063745E+00  0.59217720022E+01  0.27129850494E+02  0.00000000000E+00 0. -1.
</event>
<event>
 5    1  0.8778488E-005  0.9118800E+02  0.7818608E-02  0.1130116E+00
         25   -1    0    0    0    0  0.00000000000E+00  0.00000000000E+00  0.99999998245E-14  0.12500000000E+03  0.12500000000E+03 0.  0.
        -11    1    3    3    0    0 -0.50134409557E+01  0.16665103949E+02  0.30550404985E+02  0.35159458541E+02  0.51100000000E-03 0.  1.
         23    2    1    0    0    0  0.27845616437E+02 -0.47005970229E+00 -0.14587557351E+02  0.93561231889E+02  0.88120984857E+02 0.  0.
         11    1    3    3    0    0  0.32859057393E+02 -0.17135163651E+02 -0.45137962336E+02  0.58401773348E+02  0.51100000000E-03 0. -1.
         22    1    1    0    0    0 -0.27845616437E+02  0.47005970229E+00  0.14587557351E+02  0.31438768111E+02  0.00000000000E+00 0. -1.
</event>
<event>
 5    1  0.8778488E-005  0.9118800E+02  0.7818608E-02  0.1130116E+00
         25   -1    0    0    0    0  0.00000000000E+00  0.00000000000E+00  0.99999998245E-14  0.12500000000E+03  0.12500000000E+03 0.  0.
        -11    1    3    3    0    0 -0.83670977105E+01 -0.82158717692E+01 -0.33603793438E+02  0.35591063579E+02  0.51100000000E-03 0. -1.
         23    2    1    0    0    0  0.11839346157E+02 -0.20799131521E+02  0.19721709128E+02  0.93988392490E+02  0.88724845012E+02 0.  0.
         11    1    3    3    0    0  0.20206443867E+02 -0.12583259751E+02  0.53325502566E+02  0.58397328911E+02  0.51100000000E-03 0.  1.
         22    1    1    0    0    0 -0.11839346157E+02  0.20799131521E+02 -0.19721709128E+02  0.31011607510E+02  0.00000000000E+00 0.  1.
</event>
<event>
 5    1  0.8778488E-005  0.9118800E+02  0.7818608E-02  0.1130116E+00
         25   -1    0    0    0    0  0.00000000000E+00  0.00000000000E+00  0.99999998245E-14  0.12500000000E+03  0.12500000000E+03 0.  0.
        -11    1    3    3    0    0 -0.19657128433E+01  0.54001083757E+02  0.25927042505E+00  0.54037471215E+02  0.51100000000E-03 0. -1.
         23    2    1    0    0    0 -0.22282496980E+02  0.17043695919E+02 -0.48871857975E+01  0.96524013147E+02  0.92227996220E+02 0.  0.
         11    1    3    3    0    0 -0.20316784137E+02 -0.36957387838E+02 -0.51464562226E+01  0.42486541932E+02  0.51100000000E-03 0.  1.
         22    1    1    0    0    0  0.22282496980E+02 -0.17043695919E+02  0.48871857975E+01  0.28475986853E+02  0.00000000000E+00 0.  1.
</event>
<event>
 5    1  0.8778488E-005  0.9118800E+02  0.7818608E-02  0.1130116E+00
         25   -1    0    0    0    0  0.00000000000E+00  0.00000000000E+00  0.99999998245E-14  0.12500000000E+03  0.12500000000E+03 0.  0.
        -11    1    3    3    0    0  0.77679963994E+01 -0.12873600106E+02 -0.35840706066E+02  0.38866792500E+02  0.51100000000E-03 0.  1.
         23    2    1    0    0    0 -0.11525673588E+02  0.28935606360E+02 -0.74061889619E+01  0.92984970685E+02  0.87299728930E+02 0.  0.
         11    1    3    3    0    0 -0.19293669988E+02  0.41809206466E+02  0.28434517104E+02  0.54118178185E+02  0.51100000000E-03 0. -1.
         22    1    1    0    0    0  0.11525673588E+02 -0.28935606360E+02  0.74061889619E+01  0.32015029315E+02  0.00000000000E+00 0. -1.
</event>
<event>
 5    1  0.8778488E-005  0.9118800E+02  0.7818608E-02  0.1130116E+00
         25   -1    0    0    0    0  0.00000000000E+00  0.00000000000E+00  0.99999998245E-14  0.12500000000E+03  0.12500000000E+03 0.  0.
        -11    1    3    3    0    0  0.31649667823E+02 -0.13039917651E+02  0.59178571854E+01  0.34738479523E+02  0.51100000000E-03 0.  1.
         23    2    1    0    0    0 -0.14769252468E+02  0.23726569338E+02  0.12625279474E+02  0.94332776571E+02  0.89208711137E+02 0.  0.
         11    1    3    3    0    0 -0.46418920292E+02  0.36766486990E+02  0.67074222882E+01  0.59594297048E+02  0.51100000000E-03 0. -1.
         22    1    1    0    0    0  0.14769252468E+02 -0.23726569338E+02 -0.12625279474E+02  0.30667223429E+02  0.00000000000E+00 0. -1.
</event>
<event>
 5    1  0.8778488E-005  0.9118800E+02  0.7818608E-02  0.1130116E+00
         25   -1    0    0    0    0  0.00000000000E+00  0.00000000000E+00  0.99999998245E-14  0.12500000000E+03  0.12500000000E+03 0.  0.
        -11    1    3    3    0    0 -0.55845642433E+02  0.11923691459E+02 -0.97008148300E+01  0.57922499993E+02  0.51100000000E-03 0.  1.
         23    2    1    0    0    0 -0.24409457984E+02  0.17728886128E+02  0.70583258706E+01  0.94016859318E+02  0.88764941444E+02 0.  0.
         11    1    3    3    0    0  0.31436184449E+02  0.58051946690E+01  0.16759140701E+02  0.36094359326E+02  0.51100000000E-03 0. -1.
         22    1    1    0    0    0  0.24409457984E+02 -0.17728886128E+02 -0.70583258706E+01  0.30983140682E+02  0.00000000000E+00 0.  1.
</event>
<event>
 5    1  0.8778488E-005  0.9118800E+02  0.7818608E-02  0.1130116E+00
         25   -1    0    0    0    0  0.00000000000E+00  0.00000000000E+00  0.99999998245E-14  0.12500000000E+03  0.12500000000E+03 0.  0.
        -11    1    3    3    0    0  0.11217279717E+02 -0.34926537231E+02 -0.40083893894E+02  0.54336073810E+02  0.51100000000E-03 0. -1.
         23    2    1    0    0    0  0.91623361167E+01  0.50634351858E+01 -0.26313822370E+02  0.96680324389E+02  0.92439607838E+02 0.  0.
         11    1    3    3    0    0 -0.20549435999E+01  0.39989972416E+02  0.13770071524E+02  0.42344250579E+02  0.51100000000E-03 0.  1.
         22    1    1    0    0    0 -0.91623361167E+01 -0.50634351858E+01  0.26313822370E+02  0.28319675611E+02  0.00000000000E+00 0. -1.
</event>
<event>
 5    1  0.8778488E-005  0.9118800E+02  0.7818608E-02  0.1130116E+00
         25   -1    0    0    0    0  0.00000000000E+00  0.00000000000E+00  0.99999998245E-14  0.12500000000E+03  0.12500000000E+03 0.  0.
        -11    1    3    3    0    0  0.30411182425E+02  0.44792892693E+02  0.27125797442E+02  0.60556189934E+02  0.51100000000E-03 0.  1.
         23    2    1    0    0    0  0.12255988672E+02  0.18225955919E+02  0.23331571767E+02  0.92956951322E+02  0.87259600219E+02 0.  0.
         11    1    3    3    0    0 -0.18155193752E+02 -0.26566936774E+02 -0.37942256750E+01  0.32400761387E+02  0.51100000000E-03 0. -1.
         22    1    1    0    0    0 -0.12255988672E+02 -0.18225955919E+02 -0.23331571767E+02  0.32043048678E+02  0.00000000000E+00 0.  1.
</event>
<event>
 5    1  0.8778488E-005  0.9118800E+02  0.7818608E-02  0.1130116E+00
         25   -1    0    0    0    0  0.00000000000E+00  0.00000000000E+00  0.99999998245E-14  0.12500000000E+03  0.12500000000E+03 0.  0.
        -11    1    3    3    0    0  0.34912405486E+02  0.42439018588E+01  0.10916271468E+02  0.36824607844E+02  0.51100000000E-03 0.  1.
         23    2    1    0    0    0 -0.19787533864E+02 -0.17314203308E+02  0.13025607880E+02  0.95657290628E+02  0.91045717401E+02 0.  0.
         11    1    3    3    0    0 -0.54699939350E+02 -0.21558105167E+02  0.21093364121E+01  0.58832682785E+02  0.51100000000E-03 0. -1.
         22    1    1    0    0    0  0.19787533864E+02  0.17314203308E+02 -0.13025607880E+02  0.29342709372E+02  0.00000000000E+00 0. -1.
</event>
<event>
 5    1  0.8778488E-005  0.9118800E+02  0.7818608E-02  0.1130116E+00
         25   -1    0    0    0    0  0.00000000000E+00  0.00000000000E+00  0.99999998245E-14  0.12500000000E+03  0.12500000000E+03 0.  0.
        -11    1    3    3    0    0 -0.60226903344E+01  0.54197141801E+02  0.22395997582E+02  0.58950688598E+02  0.51100000000E-03 0.  1.
         23    2    1    0    0    0  0.73399715101E+00  0.29650630091E+02 -0.33411515784E+01  0.95152690063E+02  0.90350276789E+02 0.  0.
         11    1    3    3    0    0  0.67566874854E+01 -0.24546511710E+02 -0.25737149160E+02  0.36202001465E+02  0.51100000000E-03 0. -1.
         22    1    1    0    0    0 -0.73399715101E+00 -0.29650630091E+02  0.33411515784E+01  0.29847309937E+02  0.00000000000E+00 0.  1.
</event>
<event>
 5    1  0.8778488E-005  0.9118800E+02  0.7818608E-02  0.1130116E+00
         25   -1    0    0    0    0  0.00000000000E+00  0.00000000000E+00  0.99999998245E-14  0.12500000000E+03  0.12500000000E+03 0.  0.
        -11    1    3    3    0    0 -0.20916357780E+02 -0.43054508027E+02 -0.10624878695E-01  0.47866322163E+02  0.51100000000E-03 0. -1.
         23    2    1    0    0    0 -0.86922653267E+01 -0.64004205141E+01  0.27605225552E+02  0.95359329680E+02  0.90635712718E+02 0.  0.
         11    1    3    3    0    0  0.12224092453E+02  0.36654087513E+02  0.27615850431E+02  0.47493007517E+02  0.51100000000E-03 0.  1.
         22    1    1    0    0    0  0.86922653267E+01  0.64004205141E+01 -0.27605225552E+02  0.29640670320E+02  0.00000000000E+00 0.  1.
</event>
<event>
 5    1  0.8778488E-005  0.9118800E+02  0.7818608E-02  0.1130116E+00
         25   -1    0    0    0    0  0.00000000000E+00  0.00000000000E+00  0.99999998245E-14  0.12500000000E+03  0.12500000000E+03 0.  0.
        -11    1    3    3    0    0 -0.55735346220E+00  0.25691182462E+02 -0.27468481593E+02  0.37614691019E+02  0.51100000000E-03 0.  1.
         23    2    1    0    0    0 -0.16887308983E+02  0.39794162810E+01  0.23747329515E+02  0.95589923194E+02  0.90953179156E+02 0.  0.
         11    1    3    3    0    0 -0.16329955521E+02 -0.21711766181E+02  0.51215811108E+02  0.57975232175E+02  0.51100000000E-03 0. -1.
         22    1    1    0    0    0  0.16887308983E+02 -0.39794162810E+01 -0.23747329515E+02  0.29410076806E+02  0.00000000000E+00 0. -1.
</event>
<event>
 5    1  0.8778488E-005  0.9118800E+02  0.7818608E-02  0.1130116E+00
         25   -1    0    0    0    0  0.00000000000E+00  0.00000000000E+00  0.99999998245E-14  0.12500000000E+03  0.12500000000E+03 0.  0.
        -11    1    3    3    0    0  0.48119141574E+02  0.24357151097E+02 -0.32485968671E+01  0.54030324608E+02  0.51100000000E-03 0.  1.
         23    2    1    0    0    0  0.15374750226E+02  0.33318616025E+02  0.12993365394E+01  0.88282137946E+02  0.80284086135E+02 0.  0.
         11    1    3    3    0    0 -0.32744391348E+02  0.89614649286E+01  0.45479334065E+01  0.34251813338E+02  0.51100000000E-03 0. -1.
         22    1    1    0    0    0 -0.15374750226E+02 -0.33318616025E+02 -0.12993365394E+01  0.36717862054E+02  0.00000000000E+00 0.  1.
</event>
<event>
 5    1  0.8778488E-005  0.9118800E+02  0.7818608E-02  0.1130116E+00
         25   -1    0    0    0    0  0.00000000000E+00  0.00000000000E+00  0.99999998245E-14  0.12500000000E+03  0.12500000000E+03 0.  0.
        -11    1    3    3    0    0 -0.19735946618E+02 -0.52211806807E+02  0.24824811819E+02  0.61088883122E+02  0.51100000000E-03 0.  1.
         23    2    1    0    0    0 -0.11032037891E+02 -0.21777698978E+02  0.20665117842E+02  0.93015298529E+02  0.87343143017E+02 0.  0.
         11    1    3    3    0    0  0.87039087275E+01  0.30434107829E+02 -0.41596939770E+01  0.31926415407E+02  0.51100000000E-03 0. -1.
         22    1    1    0    0    0  0.11032037891E+02  0.21777698978E+02 -0.20665117842E+02  0.31984701471E+02  0.00000000000E+00 0.  1.
</event>
<event>
 5    1  0.8778488E-005  0.9118800E+02  0.7818608E-02  0.1130116E+00
         25   -1    0    0    0    0  0.00000000000E+00  0.00000000000E+00  0.99999998245E-14  0.12500000000E+03  0.12500000000E+03 0.  0.
        -11    1    3    3    0    0 -0.46685559865E+02  0.17577449695E+02 -0.33858593371E+02  0.60290236216E+02  0.51100000000E-03 0. -1.
         23    2    1    0    0    0 -0.28382035829E+02  0.68116616921E+01 -0.61991116313E+01  0.95160970561E+02  0.90361732168E+02 0.  0.
         11    1    3    3    0    0  0.18303524035E+02 -0.10765788003E+02  0.27659481740E+02  0.34870734345E+02  0.51100000000E-03 0.  1.
         22    1    1    0    0    0  0.28382035829E+02 -0.68116616921E+01  0.61991116313E+01  0.29839029439E+02  0.00000000000E+00 0. -1.
</event>
<event>
 5    1  0.8778488E-005  0.9118800E+02  0.7818608E-02  0.1130116E+00
         25   -1    0    0    0    0  0.00000000000E+00  0.00000000000E+00  0.99999998245E-14  0.12500000000E+03  0.12500000000E+03 0.  0.
        -11    1    3    3    0    0  0.27840088702E+02 -0.10655857945E+02 -0.42684221476E+02  0.52063044579E+02  0.51100000000E-03 0.  1.
         23    2    1    0    0    0  0.28494858548E+02 -0.61092762005E+01  0.85611389865E+00  0.95845014999E+02  0.91303087296E+02 0.  0.
         11    1    3    3    0    0  0.65476984617E+00  0.45465817444E+01  0.43540335375E+02  0.43781970421E+02  0.51100000000E-03 0. -1.
         22    1    1    0    0    0 -0.28494858548E+02  0.61092762005E+01 -0.85611389865E+00  0.29154985001E+02  0.00000000000E+00 0.  1.
</event>
<event>
 5    1  0.8778488E-005  0.9118800E+02  0.7818608E-02  0.1130116E+00
         25   -1    0    0    0    0  0.00000000000E+00  0.00000000000E+00  0.99999998245E-14  0.12500000000E+03  0.12500000000E+03 0.  0.
        -11    1    3    3    0    0  0.48045277725E+02 -0.29813719678E+02 -0.71381505714E+01  0.56992629230E+02  0.51100000000E-03 0.  1.
         23    2    1    0    0    0  0.11385630503E+02 -0.26780264427E+02  0.44543327039E+01  0.95560974463E+02  0.90913385239E+02 0.  0.
         11    1    3    3    0    0 -0.36659647223E+02  0.30334552503E+01  0.11592483275E+02  0.38568345233E+02  0.51100000000E-03 0. -1.
         22    1    1    0    0    0 -0.11385630503E+02  0.26780264427E+02 -0.44543327039E+01  0.29439025537E+02  0.00000000000E+00 0.  1.
</event>
<event>
 5    1  0.8778488E-005  0.9118800E+02  0.7818608E-02  0.1130116E+00
         25   -1    0    0    0    0  0.00000000000E+00  0.00000000000E+00  0.99999998245E-14  0.12500000000E+03  0.12500000000E+03 0.  0.
        -11    1    3    3    0    0  0.56928970511E+00 -0.18628624538E+02  0.22612734788E+02  0.29303336291E+02  0.51100000000E-03 0. -1.
         23    2    1    0    0    0 -0.19658136109E+02  0.32360621903E+02  0.56758622129E+01  0.86713349884E+02  0.77803197048E+02 0.  0.
         11    1    3    3    0    0 -0.20227425814E+02  0.50989246442E+02 -0.16936872575E+02  0.57410013592E+02  0.51100000000E-03 0.  1.
         22    1    1    0    0    0  0.19658136109E+02 -0.32360621903E+02 -0.56758622129E+01  0.38286650116E+02  0.00000000000E+00 0.  1.
</event>
<event>
 5    1  0.8778488E-005  0.9118800E+02  0.7818608E-02  0.1130116E+00
         25   -1    0    0    0    0  0.00000000000E+00  0.00000000000E+00  0.99999998245E-14  0.12500000000E+03  0.12500000000E+03 0.  0.
        -11    1    3    3    0    0 -0.36853707880E+02 -0.22561120596E+01 -0.45649951510E+02  0.58712893807E+02  0.51100000000E-03 0.  1.
         23    2    1    0    0    0 -0.13160609893E+02  0.13445121636E+02 -0.24332852778E+02  0.94241900695E+02  0.89081284082E+02 0.  0.
         11    1    3    3    0    0  0.23693097987E+02  0.15701233696E+02  0.21317098732E+02  0.35529006887E+02  0.51100000000E-03 0. -1.
         22    1    1    0    0    0  0.13160609893E+02 -0.13445121636E+02  0.24332852778E+02  0.30758099305E+02  0.00000000000E+00 0.  1.
</event>
<event>
 5    1  0.8778488E-005  0.9118800E+02  0.7818608E-02  0.1130116E+00
         25   -1    0    0    0    0  0.00000000000E+00  0.00000000000E+00  0.99999998245E-14  0.12500000000E+03  0.12500000000E+03 0.  0.
        -11    1    3    3    0    0  0.51749769525E+02  0.60856081005E+01  0.86247871932E+01  0.52815340823E+02  0.51100000000E-03 0. -1.
         23    2    1    0    0    0  0.16983902291E+02  0.18356093587E+02 -0.14263712695E+02  0.96210199573E+02  0.91801687856E+02 0.  0.
         11    1    3    3    0    0 -0.34765867234E+02  0.12270485486E+02 -0.22888499888E+02  0.43394858750E+02  0.51100000000E-03 0.  1.
         22    1    1    0    0    0 -0.16983902291E+02 -0.18356093587E+02  0.14263712695E+02  0.28789800427E+02  0.00000000000E+00 0. -1.
</event>
<event>
 5    1  0.8778488E-005  0.9118800E+02  0.7818608E-02  0.1130116E+00
         25   -1    0    0    0    0  0.00000000000E+00  0.00000000000E+00  0.99999998245E-14  0.12500000000E+03  0.12500000000E+03 0.  0.
        -11    1    3    3    0    0  0.26695641865E+00  0.21731299437E+02 -0.11178224636E+02  0.24439176484E+02  0.51100000000E-03 0.  1.
         23    2    1    0    0    0  0.72808718831E+01 -0.32204954945E+02  0.19268150705E+02  0.86771321630E+02  0.77896279805E+02 0.  0.
         11    1    3    3    0    0  0.70139154645E+01 -0.53936254382E+02  0.30446375340E+02  0.62332145146E+02  0.51100000000E-03 0. -1.
         22    1    1    0    0    0 -0.72808718831E+01  0.32204954945E+02 -0.19268150705E+02  0.38228678370E+02  0.00000000000E+00 0. -1.
</event>
<event>
 5    1  0.8778488E-005  0.9118800E+02  0.7818608E-02  0.1130116E+00
         25   -1    0    0    0    0  0.00000000000E+00  0.00000000000E+00  0.99999998245E-14  0.12500000000E+03  0.12500000000E+03 0.  0.
        -11    1    3    3    0    0  0.45914197474E+01  0.34978610108E+02  0.11454752890E+02  0.37091719621E+02  0.51100000000E-03 0. -1.
         23    2    1    0    0    0 -0.24555936573E+02 -0.15357527168E+02  0.48922946858E+01  0.95626845437E+02  0.91003908483E+02 0.  0.
         11    1    3    3    0    0 -0.29147356321E+02 -0.50336137276E+02 -0.65624582045E+01  0.58535125816E+02  0.51100000000E-03 0.  1.
         22    1    1    0    0    0  0.24555936573E+02  0.15357527168E+02 -0.48922946858E+01  0.29373154563E+02  0.00000000000E+00 0.  1.
</event>
<event>
 5    1  0.8778488E-005  0.9118800E+02  0.7818608E-02  0.1130116E+00
         25   -1    0    0    0    0  0.00000000000E+00  0.00000000000E+00  0.99999998245E-14  0.12500000000E+03  0.12500000000E+03 0.  0.
        -11    1    3    3    0    0 -0.86020855449E+01  0.29726402517E+02  0.11838004818E+02  0.33132963053E+02  0.51100000000E-03 0.  1.
         23    2    1    0    0    0  0.17433127443E+02 -0.22653989837E+02 -0.86878174232E+01  0.95123665561E+02  0.90310112336E+02 0.  0.
         11    1    3    3    0    0  0.26035212988E+02 -0.52380392354E+02 -0.20525822241E+02  0.61990702508E+02  0.51100000000E-03 0. -1.
         22    1    1    0    0    0 -0.17433127443E+02  0.22653989837E+02  0.86878174232E+01  0.29876334439E+02  0.00000000000E+00 0. -1.
</event>
<event>
 5    1  0.8778488E-005  0.9118800E+02  0.7818608E-02  0.1130116E+00
         25   -1    0    0    0    0  0.00000000000E+00  0.00000000000E+00  0.99999998245E-14  0.12500000000E+03  0.12500000000E+03 0.  0.
        -11    1    3    3    0    0  0.41793107622E+02  0.93464572283E+01  0.48577680621E+01  0.43100093019E+02  0.51100000000E-03 0. -1.
         23    2    1    0    0    0  0.85877565110E+00 -0.24553873259E+02  0.13529521384E+02  0.96952216905E+02  0.92806541937E+02 0.  0.
         11    1    3    3    0    0 -0.40934331971E+02 -0.33900330487E+02  0.86717533222E+01  0.53852123886E+02  0.51100000000E-03 0.  1.
         22    1    1    0    0    0 -0.85877565110E+00  0.24553873259E+02 -0.13529521384E+02  0.28047783095E+02  0.00000000000E+00 0.  1.
</event>
<event>
 5    1  0.8778488E-005  0.9118800E+02  0.7818608E-02  0.1130116E+00
         25   -1    0    0    0    0  0.00000000000E+00  0.00000000000E+00  0.99999998245E-14  0.12500000000E+03  0.12500000000E+03 0.  0.
        -11    1    3    3    0    0 -0.41446617773E+02 -0.17048942878E+02 -0.71226437162E+01  0.45378636293E+02  0.51100000000E-03 0. -1.
         23    2    1    0    0    0  0.13047569616E+02 -0.20823654160E+02 -0.32972353787E+00  0.10042415082E+03  0.97370620334E+02 0.  0.
         11    1    3    3    0    0  0.54494187388E+02 -0.37747112824E+01  0.67929201783E+01  0.55045514524E+02  0.51100000000E-03 0.  1.
         22    1    1    0    0    0 -0.13047569616E+02  0.20823654160E+02  0.32972353787E+00  0.24575849183E+02  0.00000000000E+00 0.  1.
</event>
<event>
 5    1  0.8778488E-005  0.9118800E+02  0.7818608E-02  0.1130116E+00
         25   -1    0    0    0    0  0.00000000000E+00  0.00000000000E+00  0.99999998245E-14  0.12500000000E+03  0.12500000000E+03 0.  0.
        -11    1    3    3    0    0 -0.24967036069E+02  0.44846052709E+02  0.15024233983E+02  0.53481295241E+02  0.51100000000E-03 0.  1.
         23    2    1    0    0    0  0.12060712371E+02  0.25061403285E+02  0.81131698417E+01  0.96028319993E+02  0.91553700080E+02 0.  0.
         11    1    3    3    0    0  0.37027748441E+02 -0.19784649423E+02 -0.69110641414E+01  0.42547024752E+02  0.51100000000E-03 0. -1.
         22    1    1    0    0    0 -0.12060712371E+02 -0.25061403285E+02 -0.81131698417E+01  0.28971680007E+02  0.00000000000E+00 0. -1.
</event>
<event>
 5    1  0.8778488E-005  0.9118800E+02  0.7818608E-02  0.1130116E+00
         25   -1    0    0    0    0  0.00000000000E+00  0.00000000000E+00  0.99999998245E-14  0.12500000000E+03  0.12500000000E+03 0.  0.
        -11    1    3    3    0    0 -0.61667729084E+01 -0.58471448064E+02  0.68200859391E+01  0.59189972963E+02  0.51100000000E-03 0.  1.
         23    2    1    0    0    0  0.27775067418E+00 -0.24548886025E+02  0.16940767161E+02  0.95171916881E+02  0.90376873260E+02 0.  0.
         11    1    3    3    0    0  0.64445235825E+01  0.33922562039E+02  0.10120681222E+02  0.35981943919E+02  0.51100000000E-03 0. -1.
         22    1    1    0    0    0 -0.27775067418E+00  0.24548886025E+02 -0.16940767161E+02  0.29828083119E+02  0.00000000000E+00 0.  1.
</event>
<event>
 5    1  0.8778488E-005  0.9118800E+02  0.7818608E-02  0.1130116E+00
         25   -1    0    0    0    0  0.00000000000E+00  0.00000000000E+00  0.99999998245E-14  0.12500000000E+03  0.12500000000E+03 0.  0.
        -11    1    3    3    0    0 -0.25023195524E+02  0.35519018154E+02  0.55593537682E+01  0.43802595579E+02  0.51100000000E-03 0. -1.
         23    2    1    0    0    0  0.11581420331E+02  0.56664750069E+01  0.26545419464E+02  0.95489026950E+02  0.90814408204E+02 0.  0.
         11    1    3    3    0    0  0.36604615855E+02 -0.29852543147E+02  0.20986065695E+02  0.51686431371E+02  0.51100000000E-03 0.  1.
         22    1    1    0    0    0 -0.11581420331E+02 -0.56664750069E+01 -0.26545419464E+02  0.29510973050E+02  0.00000000000E+00 0.  1.
</event>
<event>
 5    1  0.8778488E-005  0.9118800E+02  0.7818608E-02  0.1130116E+00
         25   -1    0    0    0    0  0.00000000000E+00  0.00000000000E+00  0.99999998245E-14  0.12500000000E+03  0.12500000000E+03 0.  0.
        -11    1    3    3    0    0 -0.31805275955E+02 -0.17349298093E+02 -0.43210402089E+02  0.56388940155E+02  0.51100000000E-03 0. -1.
         23    2    1    0    0    0 -0.59870094484E+01  0.83870650030E+01 -0.26646762194E+02  0.96430136911E+02  0.92100674416E+02 0.  0.
         11    1    3    3    0    0  0.25818266507E+02  0.25736363096E+02  0.16563639895E+02  0.40041196756E+02  0.51100000000E-03 0.  1.
         22    1    1    0    0    0  0.59870094484E+01 -0.83870650030E+01  0.26646762194E+02  0.28569863089E+02  0.00000000000E+00 0. -1.
</event>
<event>
 5    1  0.8778488E-005  0.9118800E+02  0.7818608E-02  0.1130116E+00
         25   -1    0    0    0    0  0.00000000000E+00  0.00000000000E+00  0.99999998245E-14  0.12500000000E+03  0.12500000000E+03 0.  0.
        -11    1    3    3    0    0 -0.18894292597E+01  0.86152283659E+00  0.47522593491E+02  0.47567941483E+02  0.51100000000E-03 0. -1.
         23    2    1    0    0    0 -0.19021494763E+02 -0.21515648118E+02  0.97997436494E+01  0.94655719608E+02  0.89660079756E+02 0.  0.
         11    1    3    3    0    0 -0.17132065503E+02 -0.22377170954E+02 -0.37722849842E+02  0.47087778125E+02  0.51100000000E-03 0.  1.
         22    1    1    0    0    0  0.19021494763E+02  0.21515648118E+02 -0.97997436494E+01  0.30344280392E+02  0.00000000000E+00 0. -1.
</event>
<event>
 5    1  0.8778488E-005  0.9118800E+02  0.7818608E-02  0.1130116E+00
         25   -1    0    0    0    0  0.00000000000E+00  0.00000000000E+00  0.99999998245E-14  0.12500000000E+03  0.12500000000E+03 0.  0.
        -11    1    3    3    0    0  0.17752605661E+02  0.14489147114E+02 -0.29853460337E+02  0.37634020330E+02  0.51100000000E-03 0.  1.
         23    2    1    0    0    0 -0.39908091795E+01 -0.27645662266E+02  0.51857373782E+01  0.96590475678E+02  0.92318031389E+02 0.  0.
         11    1    3    3    0    0 -0.21743414841E+02 -0.42134809380E+02  0.35039197715E+02  0.58956455348E+02  0.51100000000E-03 0. -1.
         22    1    1    0    0    0  0.39908091795E+01  0.27645662266E+02 -0.51857373782E+01  0.28409524322E+02  0.00000000000E+00 0. -1.
</event>
<event>
 5    1  0.8778488E-005  0.9118800E+02  0.7818608E-02  0.1130116E+00
         25   -1    0    0    0    0  0.00000000000E+00  0.00000000000E+00  0.99999998245E-14  0.12500000000E+03  0.12500000000E+03 0.  0.
        -11    1    3    3    0    0 -0.26608847252E+02  0.27245678869E+02 -0.39773629423E+02  0.55066317898E+02  0.51100000000E-03 0.  1.
         23    2    1    0    0    0 -0.24883765185E+02  0.13534590717E+02 -0.53366370437E+00  0.96668538467E+02  0.92423669137E+02 0.  0.
         11    1    3    3    0    0  0.17250820676E+01 -0.13711088152E+02  0.39239965718E+02  0.41602220569E+02  0.51100000000E-03 0. -1.
         22    1    1    0    0    0  0.24883765185E+02 -0.13534590717E+02  0.53366370437E+00  0.28331461533E+02  0.00000000000E+00 0.  1.
</event>
<event>
 5    1  0.8778488E-005  0.9118800E+02  0.7818608E-02  0.1130116E+00
         25   -1    0    0    0    0  0.00000000000E+00  0.00000000000E+00  0.99999998245E-14  0.12500000000E+03  0.12500000000E+03 0.  0.
        -11    1    3    3    0    0 -0.20264298546E-02 -0.45822052008E+02 -0.40417107348E+02  0.61099942889E+02  0.51100000000E-03 0. -1.
         23    2    1    0    0    0  0.56191810673E+01 -0.34122818876E+02 -0.20731125796E+02  0.84679762641E+02  0.74464358321E+02 0.  0.
         11    1    3    3    0    0  0.56212074972E+01  0.11699233132E+02  0.19685981552E+02  0.23579819752E+02  0.51100000000E-03 0.  1.
         22    1    1    0    0    0 -0.56191810673E+01  0.34122818876E+02  0.20731125796E+02  0.40320237359E+02  0.00000000000E+00 0. -1.
</event>
<event>
 5    1  0.8778488E-005  0.9118800E+02  0.7818608E-02  0.1130116E+00
         25   -1    0    0    0    0  0.00000000000E+00  0.00000000000E+00  0.99999998245E-14  0.12500000000E+03  0.12500000000E+03 0.  0.
        -11    1    3    3    0    0 -0.17066821155E+02  0.24612679011E+02 -0.20488164348E+02  0.36288086627E+02  0.51100000000E-03 0.  1.
         23    2    1    0    0    0  0.49234153605E+01 -0.28449292150E+02 -0.72180263741E+01  0.95239251565E+02  0.90469955738E+02 0.  0.
         11    1    3    3    0    0  0.21990236516E+02 -0.53061971161E+02  0.13270137974E+02  0.58951164938E+02  0.51100000000E-03 0. -1.
         22    1    1    0    0    0 -0.49234153605E+01  0.28449292150E+02  0.72180263741E+01  0.29760748435E+02  0.00000000000E+00 0. -1.
</event>
<event>
 5    1  0.8778488E-005  0.9118800E+02  0.7818608E-02  0.1130116E+00
         25   -1    0    0    0    0  0.00000000000E+00  0.00000000000E+00  0.99999998245E-14  0.12500000000E+03  0.12500000000E+03 0.  0.
        -11    1    3    3    0    0 -0.30353138221E+02 -0.20670810875E+02 -0.19102497053E+02  0.41394453928E+02  0.51100000000E-03 0.  1.
         23    2    1    0    0    0  0.16123268377E+02  0.83290358809E+01 -0.22275341143E+02  0.96268076206E+02  0.91880460663E+02 0.  0.
         11    1    3    3    0    0  0.46476406597E+02  0.28999846756E+02 -0.31728440897E+01  0.54873622278E+02  0.51100000000E-03 0. -1.
         22    1    1    0    0    0 -0.16123268377E+02 -0.83290358809E+01  0.22275341143E+02  0.28731923794E+02  0.00000000000E+00 0. -1.
</event>
<event>
 5    1  0.8778488E-005  0.9118800E+02  0.7818608E-02  0.1130116E+00
         25   -1    0    0    0    0  0.00000000000E+00  0.00000000000E+00  0.99999998245E-14  0.12500000000E+03  0.12500000000E+03 0.  0.
        -11    1    3    3    0    0  0.18033767470E+02  0.27995044331E+02 -0.12249652158E+02  0.35482294944E+02  0.51100000000E-03 0. -1.
         23    2    1    0    0    0  0.74149601731E+01 -0.28167011135E+02  0.55550639912E+01  0.95348340913E+02  0.90620556323E+02 0.  0.
         11    1    3    3    0    0 -0.10618807297E+02 -0.56162055466E+02  0.17804716149E+02  0.59866045969E+02  0.51100000000E-03 0.  1.
         22    1    1    0    0    0 -0.74149601731E+01  0.28167011135E+02 -0.55550639912E+01  0.29651659087E+02  0.00000000000E+00 0.  1.
</event>
<event>
 5    1  0.8778488E-005  0.9118800E+02  0.7818608E-02  0.1130116E+00
         25   -1    0    0    0    0  0.00000000000E+00  0.00000000000E+00  0.99999998245E-14  0.12500000000E+03  0.12500000000E+03 0.  0.
        -11    1    3    3    0    0  0.21730401983E+02 -0.16893021240E+02  0.19585785388E+02  0.33781467205E+02  0.51100000000E-03 0.  1.
         23    2    1    0    0    0 -0.11383728612E+02  0.12724206980E+02 -0.23688015458E+02  0.95800397319E+02  0.91241982276E+02 0.  0.
         11    1    3    3    0    0 -0.33114130595E+02  0.29617228220E+02 -0.43273800847E+02  0.62018930114E+02  0.51100000000E-03 0. -1.
         22    1    1    0    0    0  0.11383728612E+02 -0.12724206980E+02  0.23688015458E+02  0.29199602681E+02  0.00000000000E+00 0. -1.
</event>
<event>
 5    1  0.8778488E-005  0.9118800E+02  0.7818608E-02  0.1130116E+00
         25   -1    0    0    0    0  0.00000000000E+00  0.00000000000E+00  0.99999998245E-14  0.12500000000E+03  0.12500000000E+03 0.  0.
        -11    1    3    3    0    0 -0.20257924945E+02  0.34622094244E+02  0.17033930777E+02  0.43580130001E+02  0.51100000000E-03 0.  1.
         23    2    1    0    0    0  0.24200306245E+02  0.14169183932E+02 -0.36716457690E+01  0.96717468672E+02  0.92489821970E+02 0.  0.
         11    1    3    3    0    0  0.44458231190E+02 -0.20452910311E+02 -0.20705576546E+02  0.53137338672E+02  0.51100000000E-03 0. -1.
         22    1    1    0    0    0 -0.24200306245E+02 -0.14169183932E+02  0.36716457690E+01  0.28282531328E+02  0.00000000000E+00 0. -1.
</event>
<event>
 5    1  0.8778488E-005  0.9118800E+02  0.7818608E-02  0.1130116E+00
         25   -1    0    0    0    0  0.00000000000E+00  0.00000000000E+00  0.99999998245E-14  0.12500000000E+03  0.12500000000E+03 0.  0.
        -11    1    3    3    0    0 -0.16169980108E+02  0.26502034012E+02  0.51968257159E+02  0.60535327007E+02  0.51100000000E-03 0. -1.
         23    2    1    0    0    0 -0.12940253143E+02  0.26815736531E+02  0.30033491863E+02  0.82708812850E+02  0.71078852076E+02 0.  0.
         11    1    3    3    0    0  0.32297269650E+01  0.31370251956E+00 -0.21934765296E+02  0.22173485842E+02  0.51100000000E-03 0.  1.
         22    1    1    0    0    0  0.12940253143E+02 -0.26815736531E+02 -0.30033491863E+02  0.42291187150E+02  0.00000000000E+00 0. -1.
</event>
<event>
 5    1  0.8778488E-005  0.9118800E+02  0.7818608E-02  0.1130116E+00
         25   -1    0    0    0    0  0.00000000000E+00  0.00000000000E+00  0.99999998245E-14  0.12500000000E+03  0.12500000000E+03 0.  0.
        -11    1    3    3    0    0 -0.39416013055E+02  0.14768659532E+02  0.10141349727E+02  0.43296447476E+02  0.51100000000E-03 0.  1.
         23    2    1    0    0    0 -0.89239902403E+01 -0.14395768667E+02 -0.22638168410E+02  0.96727001816E+02  0.92502705118E+02 0.  0.
         11    1    3    3    0    0  0.30492022815E+02 -0.29164428200E+02 -0.32779518137E+02  0.53430554340E+02  0.51100000000E-03 0. -1.
         22    1    1    0    0    0  0.89239902403E+01  0.14395768667E+02  0.22638168410E+02  0.28272998184E+02  0.00000000000E+00 0. -1.
</event>
<event>
 5    1  0.8778488E-005  0.9118800E+02  0.7818608E-02  0.1130116E+00
         25   -1    0    0    0    0  0.00000000000E+00  0.00000000000E+00  0.99999998245E-14  0.12500000000E+03  0.12500000000E+03 0.  0.
        -11    1    3    3    0    0  0.26463076333E+02  0.55120774204E+01  0.29678106685E+02  0.40143086866E+02  0.51100000000E-03 0.  1.
         23    2    1    0    0    0 -0.11533321606E+02  0.14504197213E+02 -0.16199250411E+02  0.10038689459E+03  0.97322780722E+02 0.  0.
         11    1    3    3    0    0 -0.37996397939E+02  0.89921197923E+01 -0.45877357096E+02  0.60243807724E+02  0.51100000000E-03 0. -1.
         22    1    1    0    0    0  0.11533321606E+02 -0.14504197213E+02  0.16199250411E+02  0.24613105410E+02  0.00000000000E+00 0. -1.
</event>
<event>
 5    1  0.8778488E-005  0.9118800E+02  0.7818608E-02  0.1130116E+00
         25   -1    0    0    0    0  0.00000000000E+00  0.00000000000E+00  0.99999998245E-14  0.12500000000E+03  0.12500000000E+03 0.  0.
        -11    1    3    3    0    0  0.21513508253E+02 -0.44051211286E+02 -0.33005633291E+01  0.49134854957E+02  0.51100000000E-03 0.  1.
         23    2    1    0    0    0  0.13000178501E+01 -0.13543728816E+02  0.25760964795E+02  0.95866686700E+02  0.91332752477E+02 0.  0.
         11    1    3    3    0    0 -0.20213490403E+02  0.30507482470E+02  0.29061528124E+02  0.46731831743E+02  0.51100000000E-03 0. -1.
         22    1    1    0    0    0 -0.13000178501E+01  0.13543728816E+02 -0.25760964795E+02  0.29133313300E+02  0.00000000000E+00 0.  1.
</event>
<event>
 5    1  0.8778488E-005  0.9118800E+02  0.7818608E-02  0.1130116E+00
         25   -1    0    0    0    0  0.00000000000E+00  0.00000000000E+00  0.99999998245E-14  0.12500000000E+03  0.12500000000E+03 0.  0.
        -11    1    3    3    0    0  0.39217586111E+02  0.44613044490E+02 -0.18347900911E+02  0.62169029807E+02  0.51100000000E-03 0. -1.
         23    2    1    0    0    0  0.15688815650E+02  0.23436287654E+02 -0.58826455313E+01  0.96190209408E+02  0.91774464597E+02 0.  0.
         11    1    3    3    0    0 -0.23528770461E+02 -0.21176756837E+02  0.12465255379E+02  0.34021179601E+02  0.51100000000E-03 0.  1.
         22    1    1    0    0    0 -0.15688815650E+02 -0.23436287654E+02  0.58826455313E+01  0.28809790592E+02  0.00000000000E+00 0. -1.
</event>
<event>
 5    1  0.8778488E-005  0.9118800E+02  0.7818608E-02  0.1130116E+00
         25   -1    0    0    0    0  0.00000000000E+00  0.00000000000E+00  0.99999998245E-14  0.12500000000E+03  0.12500000000E+03 0.  0.
        -11    1    3    3    0    0 -0.19128637338E+01  0.27646962281E+02  0.35844199949E+01  0.27943901624E+02  0.51100000000E-03 0.  1.
         23    2    1    0    0    0 -0.95565259966E+01 -0.33489569848E+02  0.62644342842E+01  0.89614669500E+02  0.82332662868E+02 0.  0.
         11    1    3    3    0    0 -0.76436622629E+01 -0.61136532129E+02  0.26800142893E+01  0.61670767876E+02  0.51100000000E-03 0. -1.
         22    1    1    0    0    0  0.95565259966E+01  0.33489569848E+02 -0.62644342842E+01  0.35385330500E+02  0.00000000000E+00 0. -1.
</event>
<event>
 5    1  0.8778488E-005  0.9118800E+02  0.7818608E-02  0.1130116E+00
         25   -1    0    0    0    0  0.00000000000E+00  0.00000000000E+00  0.99999998245E-14  0.12500000000E+03  0.12500000000E+03 0.  0.
        -11    1    3    3    0    0 -0.20715595500E+02 -0.33752251763E+02 -0.29134982957E+02  0.49165004100E+02  0.51100000000E-03 0. -1.
         23    2    1    0    0    0 -0.37295209051E+02 -0.91910929957E+01 -0.74801853429E+01  0.85867379574E+02  0.76431962513E+02 0.  0.
         11    1    3    3    0    0 -0.16579613551E+02  0.24561158767E+02  0.21654797614E+02  0.36702375474E+02  0.51100000000E-03 0.  1.
         22    1    1    0    0    0  0.37295209051E+02  0.91910929957E+01  0.74801853429E+01  0.39132620426E+02  0.00000000000E+00 0.  1.
</event>
<event>
 5    1  0.8778488E-005  0.9118800E+02  0.7818608E-02  0.1130116E+00
         25   -1    0    0    0    0  0.00000000000E+00  0.00000000000E+00  0.99999998245E-14  0.12500000000E+03  0.12500000000E+03 0.  0.
        -11    1    3    3    0    0  0.44565652676E+02 -0.67108471631E+01  0.13938039547E+02  0.47174164696E+02  0.51100000000E-03 0.  1.
         23    2    1    0    0    0  0.17850223628E+02 -0.29293608792E+02  0.23475814580E+02  0.83432466157E+02  0.72340282963E+02 0.  0.
         11    1    3    3    0    0 -0.26715429048E+02 -0.22582761629E+02  0.95377750324E+01  0.36258301461E+02  0.51100000000E-03 0. -1.
         22    1    1    0    0    0 -0.17850223628E+02  0.29293608792E+02 -0.23475814580E+02  0.41567533843E+02  0.00000000000E+00 0. -1.
</event>
<event>
 5    1  0.8778488E-005  0.9118800E+02  0.7818608E-02  0.1130116E+00
         25   -1    0    0    0    0  0.00000000000E+00  0.00000000000E+00  0.99999998245E-14  0.12500000000E+03  0.12500000000E+03 0.  0.
        -11    1    3    3    0    0  0.33293887972E+02 -0.14753854786E+02 -0.99301142749E+01  0.37746077639E+02  0.51100000000E-03 0.  1.
         23    2    1    0    0    0 -0.14910746524E+02  0.19658923312E+02 -0.13110571187E+02  0.97059157054E+02  0.92950466720E+02 0.  0.
         11    1    3    3    0    0 -0.48204634496E+02  0.34412778098E+02 -0.31804569120E+01  0.59313079415E+02  0.51100000000E-03 0. -1.
         22    1    1    0    0    0  0.14910746524E+02 -0.19658923312E+02  0.13110571187E+02  0.27940842946E+02  0.00000000000E+00 0. -1.
</event>
<event>
 5    1  0.8778488E-005  0.9118800E+02  0.7818608E-02  0.1130116E+00
         25   -1    0    0    0    0  0.00000000000E+00  0.00000000000E+00  0.99999998245E-14  0.12500000000E+03  0.12500000000E+03 0.  0.
        -11    1    3    3    0    0  0.11039774708E+02  0.82579708314E+01 -0.60380417510E+02  0.61934364668E+02  0.51100000000E-03 0. -1.
         23    2    1    0    0    0  0.10048887856E+02  0.65575003837E+01 -0.26070729116E+02  0.96300455142E+02  0.91924500463E+02 0.  0.
         11    1    3    3    0    0 -0.99088685258E+00 -0.17004704477E+01  0.34309688394E+02  0.34366090474E+02  0.51100000000E-03 0.  1.
         22    1    1    0    0    0 -0.10048887856E+02 -0.65575003837E+01  0.26070729116E+02  0.28699544858E+02  0.00000000000E+00 0. -1.
</event>
<event>
 5    1  0.8778488E-005  0.9118800E+02  0.7818608E-02  0.1130116E+00
         25   -1    0    0    0    0  0.00000000000E+00  0.00000000000E+00  0.99999998245E-14  0.12500000000E+03  0.12500000000E+03 0.  0.
        -11    1    3    3    0    0 -0.46973878807E+02  0.20357162405E+02 -0.19609973588E+02  0.54822535655E+02  0.51100000000E-03 0. -1.
         23    2    1    0    0    0 -0.67762495081E+01 -0.11922294376E+02 -0.11687659460E+02  0.10698167477E+03  0.10545339583E+03 0.  0.
         11    1    3    3    0    0  0.40197629298E+02 -0.32279456781E+02  0.79223141272E+01  0.52159139110E+02  0.51100000000E-03 0.  1.
         22    1    1    0    0    0  0.67762495081E+01  0.11922294376E+02  0.11687659460E+02  0.18018325234E+02  0.00000000000E+00 0. -1.
</event>
<event>
 5    1  0.8778488E-005  0.9118800E+02  0.7818608E-02  0.1130116E+00
         25   -1    0    0    0    0  0.00000000000E+00  0.00000000000E+00  0.99999998245E-14  0.12500000000E+03  0.12500000000E+03 0.  0.
        -11    1    3    3    0    0  0.38434991255E+02 -0.24841783728E+02 -0.18764864533E+02  0.49461933978E+02  0.51100000000E-03 0. -1.
         23    2    1    0    0    0  0.25679047408E+02  0.14706390664E+02  0.81161795869E+00  0.95396788589E+02  0.90687359358E+02 0.  0.
         11    1    3    3    0    0 -0.12755943848E+02  0.39548174392E+02  0.19576482491E+02  0.45934854611E+02  0.51100000000E-03 0.  1.
         22    1    1    0    0    0 -0.25679047408E+02 -0.14706390664E+02 -0.81161795869E+00  0.29603211411E+02  0.00000000000E+00 0. -1.
</event>
<event>
 5    1  0.8778488E-005  0.9118800E+02  0.7818608E-02  0.1130116E+00
         25   -1    0    0    0    0  0.00000000000E+00  0.00000000000E+00  0.99999998245E-14  0.12500000000E+03  0.12500000000E+03 0.  0.
        -11    1    3    3    0    0  0.59355347585E+01  0.35332084416E+01 -0.25462511301E+02  0.26382828067E+02  0.51100000000E-03 0. -1.
         23    2    1    0    0    0 -0.13916174632E+02 -0.70890983524E+00  0.33486955505E+02  0.88729644908E+02  0.80977844049E+02 0.  0.
         11    1    3    3    0    0 -0.19851709391E+02 -0.42421182769E+01  0.58949466806E+02  0.62346816841E+02  0.51100000000E-03 0.  1.
         22    1    1    0    0    0  0.13916174632E+02  0.70890983524E+00 -0.33486955505E+02  0.36270355092E+02  0.00000000000E+00 0.  1.
</event>
<event>
 5    1  0.8778488E-005  0.9118800E+02  0.7818608E-02  0.1130116E+00
         25   -1    0    0    0    0  0.00000000000E+00  0.00000000000E+00  0.99999998245E-14  0.12500000000E+03  0.12500000000E+03 0.  0.
        -11    1    3    3    0    0 -0.27641568451E+02 -0.28858374313E+02  0.31356055881E+01  0.40083588875E+02  0.51100000000E-03 0.  1.
         23    2    1    0    0    0 -0.14935407158E+02  0.24790754802E+02 -0.43854943981E+01  0.95727479239E+02  0.91142030972E+02 0.  0.
         11    1    3    3    0    0  0.12706161293E+02  0.53649129115E+02 -0.75210999862E+01  0.55643890364E+02  0.51100000000E-03 0. -1.
         22    1    1    0    0    0  0.14935407158E+02 -0.24790754802E+02  0.43854943981E+01  0.29272520761E+02  0.00000000000E+00 0. -1.
</event>
<event>
 5    1  0.8778488E-005  0.9118800E+02  0.7818608E-02  0.1130116E+00
         25   -1    0    0    0    0  0.00000000000E+00  0.00000000000E+00  0.99999998245E-14  0.12500000000E+03  0.12500000000E+03 0.  0.
        -11    1    3    3    0    0 -0.20166595389E+02  0.46532209376E+02  0.34762899284E+02  0.61484935113E+02  0.51100000000E-03 0.  1.
         23    2    1    0    0    0 -0.61795316206E+01  0.18436273240E+02  0.22705791232E+02  0.95106259225E+02  0.90286016671E+02 0.  0.
         11    1    3    3    0    0  0.13987063768E+02 -0.28095936136E+02 -0.12057108052E+02  0.33621324112E+02  0.51100000000E-03 0. -1.
         22    1    1    0    0    0  0.61795316206E+01 -0.18436273240E+02 -0.22705791232E+02  0.29893740775E+02  0.00000000000E+00 0.  1.
</event>
<event>
 5    1  0.8778488E-005  0.9118800E+02  0.7818608E-02  0.1130116E+00
         25   -1    0    0    0    0  0.00000000000E+00  0.00000000000E+00  0.99999998245E-14  0.12500000000E+03  0.12500000000E+03 0.  0.
        -11    1    3    3    0    0 -0.17286024100E+02  0.49798856551E+01  0.35773277432E+02  0.40041644182E+02  0.51100000000E-03 0.  1.
         23    2    1    0    0    0 -0.63305292205E+01 -0.25269035373E+02 -0.10927210758E+02  0.96751041013E+02  0.92535183866E+02 0.  0.
         11    1    3    3    0    0  0.10955494880E+02 -0.30248921028E+02 -0.46700488190E+02  0.56709396831E+02  0.51100000000E-03 0. -1.
         22    1    1    0    0    0  0.63305292205E+01  0.25269035373E+02  0.10927210758E+02  0.28248958987E+02  0.00000000000E+00 0. -1.
</event>
<event>
 5    1  0.8778488E-005  0.9118800E+02  0.7818608E-02  0.1130116E+00
         25   -1    0    0    0    0  0.00000000000E+00  0.00000000000E+00  0.99999998245E-14  0.12500000000E+03  0.12500000000E+03 0.  0.
        -11    1    3    3    0    0 -0.26943825168E+02  0.14778969918E+01  0.56304910418E+02  0.62437143045E+02  0.51100000000E-03 0. -1.
         23    2    1    0    0    0 -0.10695565445E+02 -0.57776352119E+00  0.25900949946E+02  0.96971654723E+02  0.92832718805E+02 0.  0.
         11    1    3    3    0    0  0.16248259723E+02 -0.20556605130E+01 -0.30403960472E+02  0.34534511678E+02  0.51100000000E-03 0.  1.
         22    1    1    0    0    0  0.10695565445E+02  0.57776352119E+00 -0.25900949946E+02  0.28028345277E+02  0.00000000000E+00 0. -1.
</event>
<event>
 5    1  0.8778488E-005  0.9118800E+02  0.7818608E-02  0.1130116E+00
         25   -1    0    0    0    0  0.00000000000E+00  0.00000000000E+00  0.99999998245E-14  0.12500000000E+03  0.12500000000E+03 0.  0.
        -11    1    3    3    0    0  0.11276717032E+02 -0.11194307713E+02  0.46180745511E+02  0.48837875961E+02  0.51100000000E-03 0.  1.
         23    2    1    0    0    0  0.88780469663E+01  0.60588140612E+01 -0.11599184010E+02  0.10918639777E+03  0.10803517688E+03 0.  0.
         11    1    3    3    0    0 -0.23986700656E+01  0.17253121774E+02 -0.57779929520E+02  0.60348521810E+02  0.51100000000E-03 0. -1.
         22    1    1    0    0    0 -0.88780469663E+01 -0.60588140612E+01  0.11599184010E+02  0.15813602229E+02  0.00000000000E+00 0. -1.
</event>
<event>
 5    1  0.8778488E-005  0.9118800E+02  0.7818608E-02  0.1130116E+00
         25   -1    0    0    0    0  0.00000000000E+00  0.00000000000E+00  0.99999998245E-14  0.12500000000E+03  0.12500000000E+03 0.  0.
        -11    1    3    3    0    0 -0.18043980110E+02 -0.29439565878E+02 -0.15277671068E+02  0.37758184422E+02  0.51100000000E-03 0.  1.
         23    2    1    0    0    0  0.47303734628E+00  0.47547281560E+01  0.28378660418E+02  0.96221890763E+02  0.91817605560E+02 0.  0.
         11    1    3    3    0    0  0.18517017456E+02  0.34194294034E+02  0.43656331486E+02  0.58463706341E+02  0.51100000000E-03 0. -1.
         22    1    1    0    0    0 -0.47303734628E+00 -0.47547281560E+01 -0.28378660418E+02  0.28778109237E+02  0.00000000000E+00 0. -1.
</event>
<event>
 5    1  0.8778488E-005  0.9118800E+02  0.7818608E-02  0.1130116E+00
         25   -1    0    0    0    0  0.00000000000E+00  0.00000000000E+00  0.99999998245E-14  0.12500000000E+03  0.12500000000E+03 0.  0.
        -11    1    3    3    0    0 -0.13501770797E+02 -0.30972594932E+02 -0.36374052148E+02  0.49645454187E+02  0.51100000000E-03 0.  1.
         23    2    1    0    0    0  0.84886910751E+01 -0.26764447247E+02  0.48010172204E+01  0.96514156517E+02  0.92214636198E+02 0.  0.
         11    1    3    3    0    0  0.21990461872E+02  0.42081476851E+01  0.41175069369E+02  0.46868702330E+02  0.51100000000E-03 0. -1.
         22    1    1    0    0    0 -0.84886910751E+01  0.26764447247E+02 -0.48010172204E+01  0.28485843483E+02  0.00000000000E+00 0. -1.
</event>
<event>
 5    1  0.8778488E-005  0.9118800E+02  0.7818608E-02  0.1130116E+00
         25   -1    0    0    0    0  0.00000000000E+00  0.00000000000E+00  0.99999998245E-14  0.12500000000E+03  0.12500000000E+03 0.  0.
        -11    1    3    3    0    0  0.35963091764E+01 -0.20371644893E+02 -0.31315230538E+02  0.37531067388E+02  0.51100000000E-03 0.  1.
         23    2    1    0    0    0 -0.25730307050E+02  0.12689750156E+01  0.13996360956E+02  0.95681795443E+02  0.91079354744E+02 0.  0.
         11    1    3    3    0    0 -0.29326616226E+02  0.21640619909E+02  0.45311591494E+02  0.58150728055E+02  0.51100000000E-03 0. -1.
         22    1    1    0    0    0  0.25730307050E+02 -0.12689750156E+01 -0.13996360956E+02  0.29318204557E+02  0.00000000000E+00 0. -1.
</event>
<event>
 5    1  0.8778488E-005  0.9118800E+02  0.7818608E-02  0.1130116E+00
         25   -1    0    0    0    0  0.00000000000E+00  0.00000000000E+00  0.99999998245E-14  0.12500000000E+03  0.12500000000E+03 0.  0.
        -11    1    3    3    0    0 -0.33329033075E+02  0.14135303134E+02  0.16682972494E+02  0.39861670963E+02  0.51100000000E-03 0.  1.
         23    2    1    0    0    0  0.16299056926E+02 -0.11557203227E+02  0.21125515625E+02  0.95922248823E+02  0.91408764381E+02 0.  0.
         11    1    3    3    0    0  0.49628090001E+02 -0.25692506361E+02  0.44425431309E+01  0.56060577860E+02  0.51100000000E-03 0. -1.
         22    1    1    0    0    0 -0.16299056926E+02  0.11557203227E+02 -0.21125515625E+02  0.29077751177E+02  0.00000000000E+00 0. -1.
</event>
<event>
 5    1  0.8778488E-005  0.9118800E+02  0.7818608E-02  0.1130116E+00
         25   -1    0    0    0    0  0.00000000000E+00  0.00000000000E+00  0.99999998245E-14  0.12500000000E+03  0.12500000000E+03 0.  0.
        -11    1    3    3    0    0 -0.12364510667E+02 -0.11639608564E+02 -0.49725088203E+02  0.52544704858E+02  0.51100000000E-03 0.  1.
         23    2    1    0    0    0 -0.18681893246E+02  0.15411605622E+02 -0.17326993409E+02  0.95221561093E+02  0.90445509968E+02 0.  0.
         11    1    3    3    0    0 -0.63173825790E+01  0.27051214186E+02  0.32398094794E+02  0.42676856235E+02  0.51100000000E-03 0. -1.
         22    1    1    0    0    0  0.18681893246E+02 -0.15411605622E+02  0.17326993409E+02  0.29778438907E+02  0.00000000000E+00 0.  1.
</event>
<event>
 5    1  0.8778488E-005  0.9118800E+02  0.7818608E-02  0.1130116E+00
         25   -1    0    0    0    0  0.00000000000E+00  0.00000000000E+00  0.99999998245E-14  0.12500000000E+03  0.12500000000E+03 0.  0.
        -11    1    3    3    0    0  0.23541931534E+01  0.11559187399E+02  0.53600922087E+02  0.54883657746E+02  0.51100000000E-03 0.  1.
         23    2    1    0    0    0  0.21735867327E+02  0.33445681316E+00  0.18849599115E+02  0.96227318918E+02  0.91824995124E+02 0.  0.
         11    1    3    3    0    0  0.19381674174E+02 -0.11224730586E+02 -0.34751322972E+02  0.41343661172E+02  0.51100000000E-03 0. -1.
         22    1    1    0    0    0 -0.21735867327E+02 -0.33445681316E+00 -0.18849599115E+02  0.28772681082E+02  0.00000000000E+00 0.  1.
</event>
<event>
 5    1  0.8778488E-005  0.9118800E+02  0.7818608E-02  0.1130116E+00
         25   -1    0    0    0    0  0.00000000000E+00  0.00000000000E+00  0.99999998245E-14  0.12500000000E+03  0.12500000000E+03 0.  0.
        -11    1    3    3    0    0  0.29372470134E+02 -0.74487074237E+01 -0.45465222223E+02  0.54638005784E+02  0.51100000000E-03 0.  1.
         23    2    1    0    0    0  0.20367136607E+02 -0.19033546779E+02 -0.63575478575E+01  0.96407788275E+02  0.92070337617E+02 0.  0.
         11    1    3    3    0    0 -0.90053335265E+01 -0.11584839355E+02  0.39107674365E+02  0.41769782491E+02  0.51100000000E-03 0. -1.
         22    1    1    0    0    0 -0.20367136607E+02  0.19033546779E+02  0.63575478575E+01  0.28592211725E+02  0.00000000000E+00 0.  1.
</event>
<event>
 5    1  0.8778488E-005  0.9118800E+02  0.7818608E-02  0.1130116E+00
         25   -1    0    0    0    0  0.00000000000E+00  0.00000000000E+00  0.99999998245E-14  0.12500000000E+03  0.12500000000E+03 0.  0.
        -11    1    3    3    0    0  0.97674498834E+01 -0.48323151022E+01  0.37265963300E+02  0.38826619315E+02  0.51100000000E-03 0.  1.
         23    2    1    0    0    0  0.13482661978E+02  0.14493010533E+02 -0.18464981587E+02  0.97929996799E+02  0.94114287968E+02 0.  0.
         11    1    3    3    0    0  0.37152120943E+01  0.19325325635E+02 -0.55730944887E+02  0.59103377484E+02  0.51100000000E-03 0. -1.
         22    1    1    0    0    0 -0.13482661978E+02 -0.14493010533E+02  0.18464981587E+02  0.27070003201E+02  0.00000000000E+00 0. -1.
</event>
<event>
 5    1  0.8778488E-005  0.9118800E+02  0.7818608E-02  0.1130116E+00
         25   -1    0    0    0    0  0.00000000000E+00  0.00000000000E+00  0.99999998245E-14  0.12500000000E+03  0.12500000000E+03 0.  0.
        -11    1    3    3    0    0  0.30372529486E+01  0.33106965508E+02  0.38604564440E+02  0.50947114408E+02  0.51100000000E-03 0.  1.
         23    2    1    0    0    0 -0.36307088718E+01  0.27912526376E+02 -0.58944476413E+01  0.96241771811E+02  0.91844667525E+02 0.  0.
         11    1    3    3    0    0 -0.66679618204E+01 -0.51944391326E+01 -0.44499012081E+02  0.45294657403E+02  0.51100000000E-03 0. -1.
         22    1    1    0    0    0  0.36307088718E+01 -0.27912526376E+02  0.58944476413E+01  0.28758228189E+02  0.00000000000E+00 0.  1.
</event>
<event>
 5    1  0.8778488E-005  0.9118800E+02  0.7818608E-02  0.1130116E+00
         25   -1    0    0    0    0  0.00000000000E+00  0.00000000000E+00  0.99999998245E-14  0.12500000000E+03  0.12500000000E+03 0.  0.
        -11    1    3    3    0    0 -0.13449438743E+02 -0.66348276091E+01  0.44958085168E+02  0.47393435855E+02  0.51100000000E-03 0.  1.
         23    2    1    0    0    0 -0.19211617210E+02  0.20599186135E+02  0.45417746492E+01  0.96468606374E+02  0.92152870783E+02 0.  0.
         11    1    3    3    0    0 -0.57621784674E+01  0.27234013744E+02 -0.40416310519E+02  0.49075170519E+02  0.51100000000E-03 0. -1.
         22    1    1    0    0    0  0.19211617210E+02 -0.20599186135E+02 -0.45417746492E+01  0.28531393626E+02  0.00000000000E+00 0.  1.
</event>
<event>
 5    1  0.8778488E-005  0.9118800E+02  0.7818608E-02  0.1130116E+00
         25   -1    0    0    0    0  0.00000000000E+00  0.00000000000E+00  0.99999998245E-14  0.12500000000E+03  0.12500000000E+03 0.  0.
        -11    1    3    3    0    0  0.16048968027E+02  0.75874225201E+00  0.37047960995E+02  0.40381883050E+02  0.51100000000E-03 0.  1.
         23    2    1    0    0    0 -0.31607983542E+00 -0.35643028790E+02  0.22428113803E+02  0.82886514077E+02  0.71390675297E+02 0.  0.
         11    1    3    3    0    0 -0.16365047863E+02 -0.36401771042E+02 -0.14619847192E+02  0.42504631027E+02  0.51100000000E-03 0. -1.
         22    1    1    0    0    0  0.31607983542E+00  0.35643028790E+02 -0.22428113803E+02  0.42113485923E+02  0.00000000000E+00 0. -1.
</event>
<event>
 5    1  0.8778488E-005  0.9118800E+02  0.7818608E-02  0.1130116E+00
         25   -1    0    0    0    0  0.00000000000E+00  0.00000000000E+00  0.99999998245E-14  0.12500000000E+03  0.12500000000E+03 0.  0.
        -11    1    3    3    0    0  0.55808352635E+02  0.18508088058E+02  0.18206162542E+02  0.61551489845E+02  0.51100000000E-03 0. -1.
         23    2    1    0    0    0  0.36805244345E+02  0.14848366103E+02  0.19164651236E+02  0.80927516019E+02  0.67873993582E+02 0.  0.
         11    1    3    3    0    0 -0.19003108290E+02 -0.36597219546E+01  0.95848869396E+00  0.19376026174E+02  0.51100000000E-03 0.  1.
         22    1    1    0    0    0 -0.36805244345E+02 -0.14848366103E+02 -0.19164651236E+02  0.44072483981E+02  0.00000000000E+00 0. -1.
</event>
<event>
 5    1  0.8778488E-005  0.9118800E+02  0.7818608E-02  0.1130116E+00
         25   -1    0    0    0    0  0.00000000000E+00  0.00000000000E+00  0.99999998245E-14  0.12500000000E+03  0.12500000000E+03 0.  0.
        -11    1    3    3    0    0 -0.30587868969E+02  0.33272642995E+02  0.16507338017E+02  0.48116303979E+02  0.51100000000E-03 0.  1.
         23    2    1    0    0    0 -0.29419308178E+01 -0.35632080460E+01  0.28837612790E+02  0.95794532705E+02  0.91233947499E+02 0.  0.
         11    1    3    3    0    0  0.27645938151E+02 -0.36835851041E+02  0.12330274773E+02  0.47678228726E+02  0.51100000000E-03 0. -1.
         22    1    1    0    0    0  0.29419308178E+01  0.35632080460E+01 -0.28837612790E+02  0.29205467295E+02  0.00000000000E+00 0.  1.
</event>
<event>
 5    1  0.8778488E-005  0.9118800E+02  0.7818608E-02  0.1130116E+00
         25   -1    0    0    0    0  0.00000000000E+00  0.00000000000E+00  0.99999998245E-14  0.12500000000E+03  0.12500000000E+03 0.  0.
        -11    1    3    3    0    0 -0.19175101931E+02  0.18093413268E+02  0.54326026779E+02  0.60385207821E+02  0.51100000000E-03 0. -1.
         23    2    1    0    0    0  0.11270475135E+01  0.13718671391E+02  0.26851066331E+02  0.94826303774E+02  0.89897585860E+02 0.  0.
         11    1    3    3    0    0  0.20302149445E+02 -0.43747418770E+01 -0.27474960448E+02  0.34441095953E+02  0.51100000000E-03 0.  1.
         22    1    1    0    0    0 -0.11270475135E+01 -0.13718671391E+02 -0.26851066331E+02  0.30173696226E+02  0.00000000000E+00 0. -1.
</event>
<event>
 5    1  0.8778488E-005  0.9118800E+02  0.7818608E-02  0.1130116E+00
         25   -1    0    0    0    0  0.00000000000E+00  0.00000000000E+00  0.99999998245E-14  0.12500000000E+03  0.12500000000E+03 0.  0.
        -11    1    3    3    0    0  0.38755046564E+02 -0.24328703599E+02  0.17031070394E+02  0.48825165766E+02  0.51100000000E-03 0.  1.
         23    2    1    0    0    0  0.39361658282E+02 -0.15354883481E+02 -0.13493293196E+02  0.80647079569E+02  0.67355548341E+02 0.  0.
         11    1    3    3    0    0  0.60661171854E+00  0.89738201183E+01 -0.30524363590E+02  0.31821913804E+02  0.51100000000E-03 0. -1.
         22    1    1    0    0    0 -0.39361658282E+02  0.15354883481E+02  0.13493293196E+02  0.44352920431E+02  0.00000000000E+00 0.  1.
</event>
<event>
 5    1  0.8778488E-005  0.9118800E+02  0.7818608E-02  0.1130116E+00
         25   -1    0    0    0    0  0.00000000000E+00  0.00000000000E+00  0.99999998245E-14  0.12500000000E+03  0.12500000000E+03 0.  0.
        -11    1    3    3    0    0  0.19823560967E+02 -0.29653850973E+02  0.52532943584E+01  0.36054424816E+02  0.51100000000E-03 0. -1.
         23    2    1    0    0    0 -0.41920465171E+00  0.20903160638E+02 -0.19985017872E+02  0.96077365325E+02  0.91620638130E+02 0.  0.
         11    1    3    3    0    0 -0.20242765619E+02  0.50557011611E+02 -0.25238312230E+02  0.60022940509E+02  0.51100000000E-03 0.  1.
         22    1    1    0    0    0  0.41920465171E+00 -0.20903160638E+02  0.19985017872E+02  0.28922634675E+02  0.00000000000E+00 0.  1.
</event>
<event>
 5    1  0.8778488E-005  0.9118800E+02  0.7818608E-02  0.1130116E+00
         25   -1    0    0    0    0  0.00000000000E+00  0.00000000000E+00  0.99999998245E-14  0.12500000000E+03  0.12500000000E+03 0.  0.
        -11    1    3    3    0    0 -0.41464821897E+01 -0.58567796347E+02  0.23222637666E+00  0.58714853426E+02  0.51100000000E-03 0.  1.
         23    2    1    0    0    0 -0.12362581910E+02 -0.26180596558E+02  0.11310336678E+02  0.93916551295E+02  0.88623573748E+02 0.  0.
         11    1    3    3    0    0 -0.82160997200E+01  0.32387199789E+02  0.11078110301E+02  0.35201697869E+02  0.51100000000E-03 0. -1.
         22    1    1    0    0    0  0.12362581910E+02  0.26180596558E+02 -0.11310336678E+02  0.31083448705E+02  0.00000000000E+00 0.  1.
</event>
<event>
 5    1  0.8778488E-005  0.9118800E+02  0.7818608E-02  0.1130116E+00
         25   -1    0    0    0    0  0.00000000000E+00  0.00000000000E+00  0.99999998245E-14  0.12500000000E+03  0.12500000000E+03 0.  0.
        -11    1    3    3    0    0 -0.53756323030E+02 -0.27939431721E+02  0.44192197053E+01  0.60744412201E+02  0.51100000000E-03 0. -1.
         23    2    1    0    0    0 -0.27858446619E+02 -0.54627762816E+01 -0.46926836257E+01  0.96225771038E+02  0.91822887994E+02 0.  0.
         11    1    3    3    0    0  0.25897876411E+02  0.22476655439E+02 -0.91119033310E+01  0.35481358837E+02  0.51100000000E-03 0.  1.
         22    1    1    0    0    0  0.27858446619E+02  0.54627762816E+01  0.46926836257E+01  0.28774228962E+02  0.00000000000E+00 0. -1.
</event>
<event>
 5    1  0.8778488E-005  0.9118800E+02  0.7818608E-02  0.1130116E+00
         25   -1    0    0    0    0  0.00000000000E+00  0.00000000000E+00  0.99999998245E-14  0.12500000000E+03  0.12500000000E+03 0.  0.
        -11    1    3    3    0    0  0.99392976561E+01 -0.47046775680E+02 -0.33206445059E+02  0.58436775523E+02  0.51100000000E-03 0. -1.
         23    2    1    0    0    0  0.19767786678E+02 -0.17278699981E+02 -0.13337775882E+02  0.95551483422E+02  0.90900334738E+02 0.  0.
         11    1    3    3    0    0  0.98284890220E+01  0.29768075699E+02  0.19868669177E+02  0.37114707899E+02  0.51100000000E-03 0.  1.
         22    1    1    0    0    0 -0.19767786678E+02  0.17278699981E+02  0.13337775882E+02  0.29448516578E+02  0.00000000000E+00 0. -1.
</event>
<event>
 5    1  0.8778488E-005  0.9118800E+02  0.7818608E-02  0.1130116E+00
         25   -1    0    0    0    0  0.00000000000E+00  0.00000000000E+00  0.99999998245E-14  0.12500000000E+03  0.12500000000E+03 0.  0.
        -11    1    3    3    0    0 -0.30587773330E+02 -0.11613151159E+02 -0.27474344496E+02  0.42723725995E+02  0.51100000000E-03 0. -1.
         23    2    1    0    0    0  0.13366767509E+02 -0.26569365102E+02 -0.32839484439E+01  0.95076999600E+02  0.90245497949E+02 0.  0.
         11    1    3    3    0    0  0.43954540838E+02 -0.14956213943E+02  0.24190396052E+02  0.52353273606E+02  0.51100000000E-03 0.  1.
         22    1    1    0    0    0 -0.13366767509E+02  0.26569365102E+02  0.32839484439E+01  0.29923000400E+02  0.00000000000E+00 0.  1.
</event>
<event>
 5    1  0.8778488E-005  0.9118800E+02  0.7818608E-02  0.1130116E+00
         25   -1    0    0    0    0  0.00000000000E+00  0.00000000000E+00  0.99999998245E-14  0.12500000000E+03  0.12500000000E+03 0.  0.
        -11    1    3    3    0    0  0.12974180327E+02  0.37033810940E+02  0.23631279053E+00  0.39241411186E+02  0.51100000000E-03 0.  1.
         23    2    1    0    0    0  0.16393755023E+02 -0.17622812083E+02 -0.15683731526E+02  0.96271997214E+02  0.91885794895E+02 0.  0.
         11    1    3    3    0    0  0.34195746958E+01 -0.54656623023E+02 -0.15920044316E+02  0.57030586028E+02  0.51100000000E-03 0. -1.
         22    1    1    0    0    0 -0.16393755023E+02  0.17622812083E+02  0.15683731526E+02  0.28728002786E+02  0.00000000000E+00 0.  1.
</event>
<event>
 5    1  0.8778488E-005  0.9118800E+02  0.7818608E-02  0.1130116E+00
         25   -1    0    0    0    0  0.00000000000E+00  0.00000000000E+00  0.99999998245E-14  0.12500000000E+03  0.12500000000E+03 0.  0.
        -11    1    3    3    0    0 -0.76079882544E+01 -0.29055361886E+02  0.54733131105E+02  0.62432452942E+02  0.51100000000E-03 0.  1.
         23    2    1    0    0    0 -0.34015453122E+01 -0.16430582430E+02  0.26667599868E+02  0.93492930441E+02  0.88024045636E+02 0.  0.
         11    1    3    3    0    0  0.42064429422E+01  0.12624779456E+02 -0.28065531237E+02  0.31060477498E+02  0.51100000000E-03 0. -1.
         22    1    1    0    0    0  0.34015453122E+01  0.16430582430E+02 -0.26667599868E+02  0.31507069559E+02  0.00000000000E+00 0.  1.
</event>
<event>
 5    1  0.8778488E-005  0.9118800E+02  0.7818608E-02  0.1130116E+00
         25   -1    0    0    0    0  0.00000000000E+00  0.00000000000E+00  0.99999998245E-14  0.12500000000E+03  0.12500000000E+03 0.  0.
        -11    1    3    3    0    0 -0.39066236079E+02  0.24699233815E+02 -0.19239176946E+02  0.50063648312E+02  0.51100000000E-03 0.  1.
         23    2    1    0    0    0 -0.25476455588E+02 -0.90783916276E+01  0.93797213613E+01  0.96374030030E+02  0.92024494063E+02 0.  0.
         11    1    3    3    0    0  0.13589780491E+02 -0.33777625443E+02  0.28618898307E+02  0.46310381719E+02  0.51100000000E-03 0. -1.
         22    1    1    0    0    0  0.25476455588E+02  0.90783916276E+01 -0.93797213613E+01  0.28625969970E+02  0.00000000000E+00 0.  1.
</event>
<event>
 5    1  0.8778488E-005  0.9118800E+02  0.7818608E-02  0.1130116E+00
         25   -1    0    0    0    0  0.00000000000E+00  0.00000000000E+00  0.99999998245E-14  0.12500000000E+03  0.12500000000E+03 0.  0.
        -11    1    3    3    0    0  0.97595212625E+01  0.45171361995E+02 -0.20905573536E+01  0.46260897419E+02  0.51100000000E-03 0. -1.
         23    2    1    0    0    0  0.28269232292E+02 -0.60233427057E+00  0.54383323416E+01  0.96206115934E+02  0.91796127280E+02 0.  0.
         11    1    3    3    0    0  0.18509711029E+02 -0.45773696265E+02  0.75288896952E+01  0.49945218515E+02  0.51100000000E-03 0.  1.
         22    1    1    0    0    0 -0.28269232292E+02  0.60233427057E+00 -0.54383323416E+01  0.28793884066E+02  0.00000000000E+00 0.  1.
</event>
<event>
 5    1  0.8778488E-005  0.9118800E+02  0.7818608E-02  0.1130116E+00
         25   -1    0    0    0    0  0.00000000000E+00  0.00000000000E+00  0.99999998245E-14  0.12500000000E+03  0.12500000000E+03 0.  0.
        -11    1    3    3    0    0 -0.18064125743E+02  0.12401330336E+02  0.56377205261E+02  0.60485493354E+02  0.51100000000E-03 0. -1.
         23    2    1    0    0    0  0.27164339238E+00  0.12933814159E+02  0.25670947684E+02  0.96253610769E+02  0.91860778857E+02 0.  0.
         11    1    3    3    0    0  0.18335769135E+02  0.53248382285E+00 -0.30706257577E+02  0.35768117416E+02  0.51100000000E-03 0.  1.
         22    1    1    0    0    0 -0.27164339238E+00 -0.12933814159E+02 -0.25670947684E+02  0.28746389231E+02  0.00000000000E+00 0. -1.
</event>
<event>
 5    1  0.8778488E-005  0.9118800E+02  0.7818608E-02  0.1130116E+00
         25   -1    0    0    0    0  0.00000000000E+00  0.00000000000E+00  0.99999998245E-14  0.12500000000E+03  0.12500000000E+03 0.  0.
        -11    1    3    3    0    0 -0.30383744322E+02  0.21417105714E+02 -0.17610636487E+02  0.41133913671E+02  0.51100000000E-03 0. -1.
         23    2    1    0    0    0 -0.10737972513E+02 -0.27314502429E+02 -0.83455045905E+01  0.94487157728E+02  0.89424769679E+02 0.  0.
         11    1    3    3    0    0  0.19645771809E+02 -0.48731608143E+02  0.92651318967E+01  0.53353244057E+02  0.51100000000E-03 0.  1.
         22    1    1    0    0    0  0.10737972513E+02  0.27314502429E+02  0.83455045905E+01  0.30512842272E+02  0.00000000000E+00 0. -1.
</event>
<event>
 5    1  0.8778488E-005  0.9118800E+02  0.7818608E-02  0.1130116E+00
         25   -1    0    0    0    0  0.00000000000E+00  0.00000000000E+00  0.99999998245E-14  0.12500000000E+03  0.12500000000E+03 0.  0.
        -11    1    3    3    0    0  0.48774489566E+00 -0.24120286471E+02 -0.22853508114E+02  0.33231144246E+02  0.51100000000E-03 0. -1.
         23    2    1    0    0    0  0.54839767891E+01  0.20964793315E+02  0.19910254667E+02  0.95571870581E+02  0.90928365461E+02 0.  0.
         11    1    3    3    0    0  0.49962318934E+01  0.45085079786E+02  0.42763762782E+02  0.62340726335E+02  0.51100000000E-03 0.  1.
         22    1    1    0    0    0 -0.54839767891E+01 -0.20964793315E+02 -0.19910254667E+02  0.29428129419E+02  0.00000000000E+00 0.  1.
</event>
<event>
 5    1  0.8778488E-005  0.9118800E+02  0.7818608E-02  0.1130116E+00
         25   -1    0    0    0    0  0.00000000000E+00  0.00000000000E+00  0.99999998245E-14  0.12500000000E+03  0.12500000000E+03 0.  0.
        -11    1    3    3    0    0 -0.36422775868E+02  0.48371460073E+02  0.16046558596E+01  0.60572202142E+02  0.51100000000E-03 0. -1.
         23    2    1    0    0    0 -0.25777768337E+02  0.17329907095E+02  0.49040565680E+01  0.93553715781E+02  0.88110322581E+02 0.  0.
         11    1    3    3    0    0  0.10645007532E+02 -0.31041552978E+02  0.32994007084E+01  0.32981513639E+02  0.51100000000E-03 0.  1.
         22    1    1    0    0    0  0.25777768337E+02 -0.17329907095E+02 -0.49040565680E+01  0.31446284219E+02  0.00000000000E+00 0. -1.
</event>
<event>
 5    1  0.8778488E-005  0.9118800E+02  0.7818608E-02  0.1130116E+00
         25   -1    0    0    0    0  0.00000000000E+00  0.00000000000E+00  0.99999998245E-14  0.12500000000E+03  0.12500000000E+03 0.  0.
        -11    1    3    3    0    0 -0.26963266803E+02 -0.11575019359E+02  0.44746064358E+02  0.53508962853E+02  0.51100000000E-03 0.  1.
         23    2    1    0    0    0 -0.28057534779E+02  0.56697508074E+01  0.62561378612E+01  0.95699648585E+02  0.91103853630E+02 0.  0.
         11    1    3    3    0    0 -0.10942679764E+01  0.17244770167E+02 -0.38489926497E+02  0.42190685732E+02  0.51100000000E-03 0. -1.
         22    1    1    0    0    0  0.28057534779E+02 -0.56697508074E+01 -0.62561378612E+01  0.29300351415E+02  0.00000000000E+00 0.  1.
</event>
<event>
 5    1  0.8778488E-005  0.9118800E+02  0.7818608E-02  0.1130116E+00
         25   -1    0    0    0    0  0.00000000000E+00  0.00000000000E+00  0.99999998245E-14  0.12500000000E+03  0.12500000000E+03 0.  0.
        -11    1    3    3    0    0 -0.20828070033E+02  0.97593328819E+01 -0.23412726369E+02  0.32820859768E+02  0.51100000000E-03 0.  1.
         23    2    1    0    0    0  0.12885909916E+02 -0.21102450821E+02  0.17934971193E+02  0.94454569953E+02  0.89379206130E+02 0.  0.
         11    1    3    3    0    0  0.33713979948E+02 -0.30861783703E+02  0.41347697562E+02  0.61633710186E+02  0.51100000000E-03 0. -1.
         22    1    1    0    0    0 -0.12885909916E+02  0.21102450821E+02 -0.17934971193E+02  0.30545430047E+02  0.00000000000E+00 0. -1.
</event>
<event>
 5    1  0.8778488E-005  0.9118800E+02  0.7818608E-02  0.1130116E+00
         25   -1    0    0    0    0  0.00000000000E+00  0.00000000000E+00  0.99999998245E-14  0.12500000000E+03  0.12500000000E+03 0.  0.
        -11    1    3    3    0    0 -0.19143775802E+02  0.23236817667E+02 -0.44516375039E+02  0.53741431820E+02  0.51100000000E-03 0.  1.
         23    2    1    0    0    0  0.94275142903E+01  0.23816370735E+02 -0.13032301126E+02  0.96260855731E+02  0.91870636946E+02 0.  0.
         11    1    3    3    0    0  0.28571290092E+02  0.57955306801E+00  0.31484073913E+02  0.42519423911E+02  0.51100000000E-03 0. -1.
         22    1    1    0    0    0 -0.94275142903E+01 -0.23816370735E+02  0.13032301126E+02  0.28739144269E+02  0.00000000000E+00 0.  1.
</event>
<event>
 5    1  0.8778488E-005  0.9118800E+02  0.7818608E-02  0.1130116E+00
         25   -1    0    0    0    0  0.00000000000E+00  0.00000000000E+00  0.99999998245E-14  0.12500000000E+03  0.12500000000E+03 0.  0.
        -11    1    3    3    0    0  0.35781176680E+02 -0.93951952321E+01 -0.15059681417E+02  0.39941911605E+02  0.51100000000E-03 0.  1.
         23    2    1    0    0    0 -0.20950004566E+02  0.45440730609E+01 -0.15806888240E+02  0.98365266904E+02  0.94690636950E+02 0.  0.
         11    1    3    3    0    0 -0.56731181245E+02  0.13939268293E+02 -0.74720682301E+00  0.58423355299E+02  0.51100000000E-03 0. -1.
         22    1    1    0    0    0  0.20950004566E+02 -0.45440730609E+01  0.15806888240E+02  0.26634733096E+02  0.00000000000E+00 0. -1.
</event>
<event>
 5    1  0.8778488E-005  0.9118800E+02  0.7818608E-02  0.1130116E+00
         25   -1    0    0    0    0  0.00000000000E+00  0.00000000000E+00  0.99999998245E-14  0.12500000000E+03  0.12500000000E+03 0.  0.
        -11    1    3    3    0    0  0.39843618982E+00 -0.13379913151E+02  0.34085418137E+02  0.36619619839E+02  0.51100000000E-03 0. -1.
         23    2    1    0    0    0  0.19806905577E+02 -0.10534862867E+02 -0.20492226870E+02  0.94615329420E+02  0.89603751903E+02 0.  0.
         11    1    3    3    0    0  0.19408469387E+02  0.28450502838E+01 -0.54577645007E+02  0.57995709581E+02  0.51100000000E-03 0.  1.
         22    1    1    0    0    0 -0.19806905577E+02  0.10534862867E+02  0.20492226870E+02  0.30384670580E+02  0.00000000000E+00 0.  1.
</event>
<event>
 5    1  0.8778488E-005  0.9118800E+02  0.7818608E-02  0.1130116E+00
         25   -1    0    0    0    0  0.00000000000E+00  0.00000000000E+00  0.99999998245E-14  0.12500000000E+03  0.12500000000E+03 0.  0.
        -11    1    3    3    0    0  0.29187709892E+01 -0.52397062476E+02 -0.26240507403E+02  0.58673125102E+02  0.51100000000E-03 0. -1.
         23    2    1    0    0    0 -0.13254028857E+02 -0.14390986344E+02 -0.96572036037E+01  0.10318185731E+03  0.10084872001E+03 0.  0.
         11    1    3    3    0    0 -0.16172799847E+02  0.38006076132E+02  0.16583303799E+02  0.44508732210E+02  0.51100000000E-03 0.  1.
         22    1    1    0    0    0  0.13254028857E+02  0.14390986344E+02  0.96572036037E+01  0.21818142688E+02  0.00000000000E+00 0. -1.
</event>
<event>
 5    1  0.8778488E-005  0.9118800E+02  0.7818608E-02  0.1130116E+00
         25   -1    0    0    0    0  0.00000000000E+00  0.00000000000E+00  0.99999998245E-14  0.12500000000E+03  0.12500000000E+03 0.  0.
        -11    1    3    3    0    0  0.17818175808E+02 -0.81876491603E+01  0.34248937680E+02  0.39465361019E+02  0.51100000000E-03 0.  1.
         23    2    1    0    0    0 -0.18045985739E+02 -0.30212055072E+02  0.22752035215E+02  0.83094380098E+02  0.71753710876E+02 0.  0.
         11    1    3    3    0    0 -0.35864161547E+02 -0.22024405911E+02 -0.11496902465E+02  0.43629019079E+02  0.51100000000E-03 0. -1.
         22    1    1    0    0    0  0.18045985739E+02  0.30212055072E+02 -0.22752035215E+02  0.41905619902E+02  0.00000000000E+00 0.  1.
</event>
<event>
 5    1  0.8778488E-005  0.9118800E+02  0.7818608E-02  0.1130116E+00
         25   -1    0    0    0    0  0.00000000000E+00  0.00000000000E+00  0.99999998245E-14  0.12500000000E+03  0.12500000000E+03 0.  0.
        -11    1    3    3    0    0  0.17589599610E+00 -0.29192896857E+02  0.39759885996E+02  0.49326511137E+02  0.51100000000E-03 0. -1.
         23    2    1    0    0    0  0.25949965182E+02 -0.72259211727E+01  0.54843805108E+01  0.97510128059E+02  0.93554967878E+02 0.  0.
         11    1    3    3    0    0  0.25774069186E+02  0.21966975684E+02 -0.34275505485E+02  0.48183616922E+02  0.51100000000E-03 0.  1.
         22    1    1    0    0    0 -0.25949965182E+02  0.72259211727E+01 -0.54843805108E+01  0.27489871941E+02  0.00000000000E+00 0. -1.
</event>
<event>
 5    1  0.8778488E-005  0.9118800E+02  0.7818608E-02  0.1130116E+00
         25   -1    0    0    0    0  0.00000000000E+00  0.00000000000E+00  0.99999998245E-14  0.12500000000E+03  0.12500000000E+03 0.  0.
        -11    1    3    3    0    0  0.60869168405E+02 -0.79281541151E+01  0.38258296251E+01  0.61502424851E+02  0.51100000000E-03 0. -1.
         23    2    1    0    0    0  0.29769678355E+02 -0.90282623771E+01  0.79452283841E+01  0.92892836859E+02  0.87167707408E+02 0.  0.
         11    1    3    3    0    0 -0.31099490051E+02 -0.11001082620E+01  0.41193987590E+01  0.31390412007E+02  0.51100000000E-03 0.  1.
         22    1    1    0    0    0 -0.29769678355E+02  0.90282623771E+01 -0.79452283841E+01  0.32107163141E+02  0.00000000000E+00 0. -1.
</event>
<event>
 5    1  0.8778488E-005  0.9118800E+02  0.7818608E-02  0.1130116E+00
         25   -1    0    0    0    0  0.00000000000E+00  0.00000000000E+00  0.99999998245E-14  0.12500000000E+03  0.12500000000E+03 0.  0.
        -11    1    3    3    0    0 -0.69044880853E+00 -0.29197475925E+01 -0.41623511770E+02  0.41731503422E+02  0.51100000000E-03 0.  1.
         23    2    1    0    0    0 -0.71609699531E+01  0.30377473867E+02 -0.22387271721E+01  0.93709709037E+02  0.88331349244E+02 0.  0.
         11    1    3    3    0    0 -0.64705211446E+01  0.33297221460E+02  0.39384784598E+02  0.51978205614E+02  0.51100000000E-03 0. -1.
         22    1    1    0    0    0  0.71609699531E+01 -0.30377473867E+02  0.22387271721E+01  0.31290290963E+02  0.00000000000E+00 0. -1.
</event>
<event>
 5    1  0.8778488E-005  0.9118800E+02  0.7818608E-02  0.1130116E+00
         25   -1    0    0    0    0  0.00000000000E+00  0.00000000000E+00  0.99999998245E-14  0.12500000000E+03  0.12500000000E+03 0.  0.
        -11    1    3    3    0    0  0.38251914392E+02  0.17468759961E+02 -0.22812499634E+02  0.47841160824E+02  0.51100000000E-03 0.  1.
         23    2    1    0    0    0  0.11840845097E+01  0.29546622736E+02  0.40044680865E+01  0.95159746384E+02  0.90360038711E+02 0.  0.
         11    1    3    3    0    0 -0.37067829882E+02  0.12077862775E+02  0.26816967721E+02  0.47318585560E+02  0.51100000000E-03 0. -1.
         22    1    1    0    0    0 -0.11840845097E+01 -0.29546622736E+02 -0.40044680865E+01  0.29840253616E+02  0.00000000000E+00 0.  1.
</event>
<event>
 5    1  0.8778488E-005  0.9118800E+02  0.7818608E-02  0.1130116E+00
         25   -1    0    0    0    0  0.00000000000E+00  0.00000000000E+00  0.99999998245E-14  0.12500000000E+03  0.12500000000E+03 0.  0.
        -11    1    3    3    0    0  0.32142829339E+02  0.32541677225E+01 -0.50703474416E+02  0.60121488700E+02  0.51100000000E-03 0.  1.
         23    2    1    0    0    0  0.90845138727E+01 -0.85672518973E+01 -0.27054114045E+02  0.95203166542E+02  0.90420084248E+02 0.  0.
         11    1    3    3    0    0 -0.23058315466E+02 -0.11821419620E+02  0.23649360371E+02  0.35081677841E+02  0.51100000000E-03 0. -1.
         22    1    1    0    0    0 -0.90845138727E+01  0.85672518973E+01  0.27054114045E+02  0.29796833458E+02  0.00000000000E+00 0.  1.
</event>
<event>
 5    1  0.8778488E-005  0.9118800E+02  0.7818608E-02  0.1130116E+00
         25   -1    0    0    0    0  0.00000000000E+00  0.00000000000E+00  0.99999998245E-14  0.12500000000E+03  0.12500000000E+03 0.  0.
        -11    1    3    3    0    0 -0.13292938330E+02  0.18668427732E+02 -0.37339523413E+02  0.43811555694E+02  0.51100000000E-03 0. -1.
         23    2    1    0    0    0 -0.23694052852E+01  0.26792180217E+02  0.12401580266E+02  0.95381860367E+02  0.90666780531E+02 0.  0.
         11    1    3    3    0    0  0.10923533045E+02  0.81237524852E+01  0.49741103679E+02  0.51570304673E+02  0.51100000000E-03 0.  1.
         22    1    1    0    0    0  0.23694052852E+01 -0.26792180217E+02 -0.12401580266E+02  0.29618139633E+02  0.00000000000E+00 0.  1.
</event>
<event>
 5    1  0.8778488E-005  0.9118800E+02  0.7818608E-02  0.1130116E+00
         25   -1    0    0    0    0  0.00000000000E+00  0.00000000000E+00  0.99999998245E-14  0.12500000000E+03  0.12500000000E+03 0.  0.
        -11    1    3    3    0    0 -0.19692532386E+02  0.67270049125E-01 -0.42668290777E+02  0.46993439916E+02  0.51100000000E-03 0.  1.
         23    2    1    0    0    0 -0.25024329540E+01 -0.26738603776E+02 -0.28285179385E+01  0.97996007401E+02  0.94201920629E+02 0.  0.
         11    1    3    3    0    0  0.17190099432E+02 -0.26805873825E+02  0.39839772838E+02  0.51002567485E+02  0.51100000000E-03 0. -1.
         22    1    1    0    0    0  0.25024329540E+01  0.26738603776E+02  0.28285179385E+01  0.27003992599E+02  0.00000000000E+00 0.  1.
</event>
<event>
 5    1  0.8778488E-005  0.9118800E+02  0.7818608E-02  0.1130116E+00
         25   -1    0    0    0    0  0.00000000000E+00  0.00000000000E+00  0.99999998245E-14  0.12500000000E+03  0.12500000000E+03 0.  0.
        -11    1    3    3    0    0  0.21840746133E+02  0.29063647233E+02  0.37410628601E+01  0.36547357411E+02  0.51100000000E-03 0. -1.
         23    2    1    0    0    0 -0.17282930155E+02 -0.79446055546E+01  0.24254706730E+02  0.94176190522E+02  0.88989030956E+02 0.  0.
         11    1    3    3    0    0 -0.39123676289E+02 -0.37008252787E+02  0.20513643870E+02  0.57628833111E+02  0.51100000000E-03 0.  1.
         22    1    1    0    0    0  0.17282930155E+02  0.79446055546E+01 -0.24254706730E+02  0.30823809478E+02  0.00000000000E+00 0.  1.
</event>
<event>
 5    1  0.8778488E-005  0.9118800E+02  0.7818608E-02  0.1130116E+00
         25   -1    0    0    0    0  0.00000000000E+00  0.00000000000E+00  0.99999998245E-14  0.12500000000E+03  0.12500000000E+03 0.  0.
        -11    1    3    3    0    0  0.17509426312E+01  0.60990924192E+02 -0.36581263952E+01  0.61125612658E+02  0.51100000000E-03 0. -1.
         23    2    1    0    0    0 -0.32825512650E+01  0.27347740202E+02  0.66382003432E+01  0.96667337917E+02  0.92422045417E+02 0.  0.
         11    1    3    3    0    0 -0.50334938962E+01 -0.33643183990E+02  0.10296326738E+02  0.35541725259E+02  0.51100000000E-03 0.  1.
         22    1    1    0    0    0  0.32825512650E+01 -0.27347740202E+02 -0.66382003432E+01  0.28332662083E+02  0.00000000000E+00 0. -1.
</event>
<event>
 5    1  0.8778488E-005  0.9118800E+02  0.7818608E-02  0.1130116E+00
         25   -1    0    0    0    0  0.00000000000E+00  0.00000000000E+00  0.99999998245E-14  0.12500000000E+03  0.12500000000E+03 0.  0.
        -11    1    3    3    0    0 -0.26949184171E+02 -0.36626938866E+02  0.13891802630E+02  0.47547590462E+02  0.51100000000E-03 0.  1.
         23    2    1    0    0    0  0.26539106363E+01  0.49268097832E+01  0.24677997440E+02  0.99695449936E+02  0.96430609684E+02 0.  0.
         11    1    3    3    0    0  0.29603094808E+02  0.41553748649E+02  0.10786194810E+02  0.52147859474E+02  0.51100000000E-03 0. -1.
         22    1    1    0    0    0 -0.26539106363E+01 -0.49268097832E+01 -0.24677997440E+02  0.25304550064E+02  0.00000000000E+00 0. -1.
</event>
<event>
 5    1  0.8778488E-005  0.9118800E+02  0.7818608E-02  0.1130116E+00
         25   -1    0    0    0    0  0.00000000000E+00  0.00000000000E+00  0.99999998245E-14  0.12500000000E+03  0.12500000000E+03 0.  0.
        -11    1    3    3    0    0 -0.48679574865E+02 -0.29978149992E+02 -0.23457074285E+02  0.61795022617E+02  0.51100000000E-03 0.  1.
         23    2    1    0    0    0 -0.21807989294E+02 -0.16795919225E+02 -0.48171614209E+01  0.97055477391E+02  0.92945518170E+02 0.  0.
         11    1    3    3    0    0  0.26871585571E+02  0.13182230767E+02  0.18639912864E+02  0.35260454775E+02  0.51100000000E-03 0. -1.
         22    1    1    0    0    0  0.21807989294E+02  0.16795919225E+02  0.48171614209E+01  0.27944522609E+02  0.00000000000E+00 0.  1.
</event>
<event>
 5    1  0.8778488E-005  0.9118800E+02  0.7818608E-02  0.1130116E+00
         25   -1    0    0    0    0  0.00000000000E+00  0.00000000000E+00  0.99999998245E-14  0.12500000000E+03  0.12500000000E+03 0.  0.
        -11    1    3    3    0    0  0.36212597985E+02  0.14500306002E+01 -0.24012100485E+01  0.36321077235E+02  0.51100000000E-03 0. -1.
         23    2    1    0    0    0 -0.19772404954E+02 -0.17930805073E+02 -0.10892177840E+02  0.96171172304E+02  0.91748531738E+02 0.  0.
         11    1    3    3    0    0 -0.55985002939E+02 -0.19380835673E+02 -0.84909677911E+01  0.59850095069E+02  0.51100000000E-03 0.  1.
         22    1    1    0    0    0  0.19772404954E+02  0.17930805073E+02  0.10892177840E+02  0.28828827696E+02  0.00000000000E+00 0.  1.
</event>
<event>
 5    1  0.8778488E-005  0.9118800E+02  0.7818608E-02  0.1130116E+00
         25   -1    0    0    0    0  0.00000000000E+00  0.00000000000E+00  0.99999998245E-14  0.12500000000E+03  0.12500000000E+03 0.  0.
        -11    1    3    3    0    0 -0.29263735479E+02  0.19645306342E+02 -0.36634190241E+02  0.50836681347E+02  0.51100000000E-03 0.  1.
         23    2    1    0    0    0 -0.22432361678E+02  0.25233264737E+02  0.26815474380E+01  0.91130851850E+02  0.84603268036E+02 0.  0.
         11    1    3    3    0    0  0.68313738008E+01  0.55879583952E+01  0.39315737679E+02  0.40294170503E+02  0.51100000000E-03 0. -1.
         22    1    1    0    0    0  0.22432361678E+02 -0.25233264737E+02 -0.26815474380E+01  0.33869148150E+02  0.00000000000E+00 0.  1.
</event>
<event>
 5    1  0.8778488E-005  0.9118800E+02  0.7818608E-02  0.1130116E+00
         25   -1    0    0    0    0  0.00000000000E+00  0.00000000000E+00  0.99999998245E-14  0.12500000000E+03  0.12500000000E+03 0.  0.
        -11    1    3    3    0    0 -0.45414726076E+02 -0.38657993382E+02 -0.15231426640E+02  0.61554318732E+02  0.51100000000E-03 0. -1.
         23    2    1    0    0    0 -0.24519848331E+02 -0.11540564745E+02 -0.96100884422E+01  0.96246541136E+02  0.91851158315E+02 0.  0.
         11    1    3    3    0    0  0.20894877745E+02  0.27117428637E+02  0.56213381980E+01  0.34692222403E+02  0.51100000000E-03 0.  1.
         22    1    1    0    0    0  0.24519848331E+02  0.11540564745E+02  0.96100884422E+01  0.28753458864E+02  0.00000000000E+00 0. -1.
</event>
<event>
 5    1  0.8778488E-005  0.9118800E+02  0.7818608E-02  0.1130116E+00
         25   -1    0    0    0    0  0.00000000000E+00  0.00000000000E+00  0.99999998245E-14  0.12500000000E+03  0.12500000000E+03 0.  0.
        -11    1    3    3    0    0  0.47602654206E+02 -0.94475976377E+01 -0.15342100795E+02  0.50898426750E+02  0.51100000000E-03 0.  1.
         23    2    1    0    0    0  0.10007962118E+02 -0.26066492896E+02  0.47940313220E+01  0.96669731840E+02  0.92425283121E+02 0.  0.
         11    1    3    3    0    0 -0.37594692088E+02 -0.16618895259E+02  0.20136132117E+02  0.45771305090E+02  0.51100000000E-03 0. -1.
         22    1    1    0    0    0 -0.10007962118E+02  0.26066492896E+02 -0.47940313220E+01  0.28330268160E+02  0.00000000000E+00 0. -1.
</event>
<event>
 5    1  0.8778488E-005  0.9118800E+02  0.7818608E-02  0.1130116E+00
         25   -1    0    0    0    0  0.00000000000E+00  0.00000000000E+00  0.99999998245E-14  0.12500000000E+03  0.12500000000E+03 0.  0.
        -11    1    3    3    0    0 -0.29875855778E+02 -0.35890183691E+00  0.51389926990E+02  0.59444260995E+02  0.51100000000E-03 0. -1.
         23    2    1    0    0    0 -0.11118396827E+02  0.13387227805E+02  0.23519649039E+02  0.95742342759E+02  0.91162413800E+02 0.  0.
         11    1    3    3    0    0  0.18757458951E+02  0.13746129642E+02 -0.27870277951E+02  0.36298081764E+02  0.51100000000E-03 0.  1.
         22    1    1    0    0    0  0.11118396827E+02 -0.13387227805E+02 -0.23519649039E+02  0.29257657241E+02  0.00000000000E+00 0. -1.
</event>
<event>
 5    1  0.8778488E-005  0.9118800E+02  0.7818608E-02  0.1130116E+00
         25   -1    0    0    0    0  0.00000000000E+00  0.00000000000E+00  0.99999998245E-14  0.12500000000E+03  0.12500000000E+03 0.  0.
        -11    1    3    3    0    0 -0.23775981166E+02 -0.20204692199E+01 -0.25558389667E+02  0.34965852755E+02  0.51100000000E-03 0. -1.
         23    2    1    0    0    0  0.90093440657E+01  0.14342666869E+02  0.23397252840E+02  0.96115543733E+02  0.91672710951E+02 0.  0.
         11    1    3    3    0    0  0.32785325232E+02  0.16363136088E+02  0.48955642507E+02  0.61149690978E+02  0.51100000000E-03 0.  1.
         22    1    1    0    0    0 -0.90093440657E+01 -0.14342666869E+02 -0.23397252840E+02  0.28884456267E+02  0.00000000000E+00 0.  1.
</event>
<event>
 5    1  0.8778488E-005  0.9118800E+02  0.7818608E-02  0.1130116E+00
         25   -1    0    0    0    0  0.00000000000E+00  0.00000000000E+00  0.99999998245E-14  0.12500000000E+03  0.12500000000E+03 0.  0.
        -11    1    3    3    0    0 -0.21015146753E+02 -0.22824417060E+02  0.44083491938E+02  0.53906814679E+02  0.51100000000E-03 0.  1.
         23    2    1    0    0    0 -0.14793912379E+02 -0.14298261177E-01  0.45063362091E+02  0.77570403218E+02  0.61380785304E+02 0.  0.
         11    1    3    3    0    0  0.62212343742E+01  0.22810118798E+02  0.97987015344E+00  0.23663588538E+02  0.51100000000E-03 0. -1.
         22    1    1    0    0    0  0.14793912379E+02  0.14298261177E-01 -0.45063362091E+02  0.47429596782E+02  0.00000000000E+00 0.  1.
</event>
<event>
 5    1  0.8778488E-005  0.9118800E+02  0.7818608E-02  0.1130116E+00
         25   -1    0    0    0    0  0.00000000000E+00  0.00000000000E+00  0.99999998245E-14  0.12500000000E+03  0.12500000000E+03 0.  0.
        -11    1    3    3    0    0  0.48241015920E+02  0.36015069013E+02 -0.11196559858E+02  0.61234334862E+02  0.51100000000E-03 0.  1.
         23    2    1    0    0    0  0.22178026020E+02  0.71683484969E+01  0.30898081495E-02  0.10169227450E+03  0.98985193972E+02 0.  0.
         11    1    3    3    0    0 -0.26062989900E+02 -0.28846720516E+02  0.11199649666E+02  0.40457939641E+02  0.51100000000E-03 0. -1.
         22    1    1    0    0    0 -0.22178026020E+02 -0.71683484969E+01 -0.30898081495E-02  0.23307725497E+02  0.00000000000E+00 0.  1.
</event>
<event>
 5    1  0.8778488E-005  0.9118800E+02  0.7818608E-02  0.1130116E+00
         25   -1    0    0    0    0  0.00000000000E+00  0.00000000000E+00  0.99999998245E-14  0.12500000000E+03  0.12500000000E+03 0.  0.
        -11    1    3    3    0    0  0.44510065500E+02 -0.12601458872E+02 -0.36802593724E+02  0.59113226960E+02  0.51100000000E-03 0. -1.
         23    2    1    0    0    0  0.22477801391E+02  0.84331073223E+01 -0.13572288578E+02  0.97421459942E+02  0.93436422157E+02 0.  0.
         11    1    3    3    0    0 -0.22032264109E+02  0.21034566194E+02  0.23230305146E+02  0.38308232982E+02  0.51100000000E-03 0.  1.
         22    1    1    0    0    0 -0.22477801391E+02 -0.84331073223E+01  0.13572288578E+02  0.27578540058E+02  0.00000000000E+00 0. -1.
</event>
<event>
 5    1  0.8778488E-005  0.9118800E+02  0.7818608E-02  0.1130116E+00
         25   -1    0    0    0    0  0.00000000000E+00  0.00000000000E+00  0.99999998245E-14  0.12500000000E+03  0.12500000000E+03 0.  0.
        -11    1    3    3    0    0  0.50405400793E+02  0.77481105511E+01 -0.93532429943E+01  0.51848054939E+02  0.51100000000E-03 0.  1.
         23    2    1    0    0    0  0.16887889835E+02  0.28504307363E+01  0.21393906607E+02  0.97595164325E+02  0.93668517023E+02 0.  0.
         11    1    3    3    0    0 -0.33517510957E+02 -0.48976798148E+01  0.30747149601E+02  0.45747109386E+02  0.51100000000E-03 0. -1.
         22    1    1    0    0    0 -0.16887889835E+02 -0.28504307363E+01 -0.21393906607E+02  0.27404835675E+02  0.00000000000E+00 0. -1.
</event>
<event>
 5    1  0.8778488E-005  0.9118800E+02  0.7818608E-02  0.1130116E+00
         25   -1    0    0    0    0  0.00000000000E+00  0.00000000000E+00  0.99999998245E-14  0.12500000000E+03  0.12500000000E+03 0.  0.
        -11    1    3    3    0    0  0.34939944283E+02  0.18340090552E+02 -0.68186086717E+01  0.40045624635E+02  0.51100000000E-03 0. -1.
         23    2    1    0    0    0 -0.22861283286E+02 -0.86008751738E+00 -0.74011910407E+01  0.10095513250E+03  0.98049901205E+02 0.  0.
         11    1    3    3    0    0 -0.57801227569E+02 -0.19200178069E+02 -0.58258236906E+00  0.60909507870E+02  0.51100000000E-03 0.  1.
         22    1    1    0    0    0  0.22861283286E+02  0.86008751738E+00  0.74011910407E+01  0.24044867495E+02  0.00000000000E+00 0.  1.
</event>
<event>
 5    1  0.8778488E-005  0.9118800E+02  0.7818608E-02  0.1130116E+00
         25   -1    0    0    0    0  0.00000000000E+00  0.00000000000E+00  0.99999998245E-14  0.12500000000E+03  0.12500000000E+03 0.  0.
        -11    1    3    3    0    0  0.20446459566E+02  0.19602080612E+02  0.19307116730E+02  0.34279206960E+02  0.51100000000E-03 0. -1.
         23    2    1    0    0    0 -0.74429356412E+01 -0.18691065087E+02 -0.20588871937E+02  0.96213634257E+02  0.91806364508E+02 0.  0.
         11    1    3    3    0    0 -0.27889395208E+02 -0.38293145699E+02 -0.39895988668E+02  0.61934427297E+02  0.51100000000E-03 0.  1.
         22    1    1    0    0    0  0.74429356412E+01  0.18691065087E+02  0.20588871937E+02  0.28786365743E+02  0.00000000000E+00 0.  1.
</event>
<event>
 5    1  0.8778488E-005  0.9118800E+02  0.7818608E-02  0.1130116E+00
         25   -1    0    0    0    0  0.00000000000E+00  0.00000000000E+00  0.99999998245E-14  0.12500000000E+03  0.12500000000E+03 0.  0.
        -11    1    3    3    0    0  0.16755116194E+02  0.54497002529E+01 -0.36881819804E+02  0.40874219061E+02  0.51100000000E-03 0. -1.
         23    2    1    0    0    0 -0.20086932237E+02 -0.21170946424E+02 -0.79550729516E+01  0.94751413177E+02  0.89793392263E+02 0.  0.
         11    1    3    3    0    0 -0.36842048431E+02 -0.26620646677E+02  0.28926746853E+02  0.53877194116E+02  0.51100000000E-03 0.  1.
         22    1    1    0    0    0  0.20086932237E+02  0.21170946424E+02  0.79550729516E+01  0.30248586823E+02  0.00000000000E+00 0.  1.
</event>
<event>
 5    1  0.8778488E-005  0.9118800E+02  0.7818608E-02  0.1130116E+00
         25   -1    0    0    0    0  0.00000000000E+00  0.00000000000E+00  0.99999998245E-14  0.12500000000E+03  0.12500000000E+03 0.  0.
        -11    1    3    3    0    0  0.31050096436E+02  0.17446275514E+02 -0.39819433939E+01  0.35837646288E+02  0.51100000000E-03 0. -1.
         23    2    1    0    0    0 -0.10057456294E+02 -0.26138180717E+02 -0.79686062455E+01  0.95882039842E+02  0.91353762705E+02 0.  0.
         11    1    3    3    0    0 -0.41107552729E+02 -0.43584456231E+02 -0.39866628516E+01  0.60044393554E+02  0.51100000000E-03 0.  1.
         22    1    1    0    0    0  0.10057456294E+02  0.26138180717E+02  0.79686062455E+01  0.29117960158E+02  0.00000000000E+00 0.  1.
</event>
<event>
 5    1  0.8778488E-005  0.9118800E+02  0.7818608E-02  0.1130116E+00
         25   -1    0    0    0    0  0.00000000000E+00  0.00000000000E+00  0.99999998245E-14  0.12500000000E+03  0.12500000000E+03 0.  0.
        -11    1    3    3    0    0  0.39528537089E+01  0.22531792659E+01 -0.39072894677E+02  0.39336916096E+02  0.51100000000E-03 0.  1.
         23    2    1    0    0    0  0.18263302770E+02  0.21468574445E+02  0.10918626952E+02  0.94773119062E+02  0.89823603610E+02 0.  0.
         11    1    3    3    0    0  0.14310449061E+02  0.19215395179E+02  0.49991521629E+02  0.55436202965E+02  0.51100000000E-03 0. -1.
         22    1    1    0    0    0 -0.18263302770E+02 -0.21468574445E+02 -0.10918626952E+02  0.30226880938E+02  0.00000000000E+00 0. -1.
</event>
<event>
 5    1  0.8778488E-005  0.9118800E+02  0.7818608E-02  0.1130116E+00
         25   -1    0    0    0    0  0.00000000000E+00  0.00000000000E+00  0.99999998245E-14  0.12500000000E+03  0.12500000000E+03 0.  0.
        -11    1    3    3    0    0 -0.58034630462E+02  0.33057198684E+01 -0.84975499240E+01  0.58746527316E+02  0.51100000000E-03 0. -1.
         23    2    1    0    0    0 -0.26740068858E+02 -0.13740286321E+02 -0.43592103618E+01  0.94621891670E+02  0.89612905977E+02 0.  0.
         11    1    3    3    0    0  0.31294561604E+02 -0.17046006190E+02  0.41383395622E+01  0.35875364355E+02  0.51100000000E-03 0.  1.
         22    1    1    0    0    0  0.26740068858E+02  0.13740286321E+02  0.43592103618E+01  0.30378108330E+02  0.00000000000E+00 0. -1.
</event>
<event>
 5    1  0.8778488E-005  0.9118800E+02  0.7818608E-02  0.1130116E+00
         25   -1    0    0    0    0  0.00000000000E+00  0.00000000000E+00  0.99999998245E-14  0.12500000000E+03  0.12500000000E+03 0.  0.
        -11    1    3    3    0    0  0.10182903389E+02 -0.27577693868E+02  0.14765747568E+02  0.32897538237E+02  0.51100000000E-03 0.  1.
         23    2    1    0    0    0 -0.35853500484E+01  0.30501526272E+02  0.42247013684E+00  0.94285568198E+02  0.89142537823E+02 0.  0.
         11    1    3    3    0    0 -0.13768253438E+02  0.58079220140E+02 -0.14343277431E+02  0.61388029962E+02  0.51100000000E-03 0. -1.
         22    1    1    0    0    0  0.35853500484E+01 -0.30501526272E+02 -0.42247013684E+00  0.30714431802E+02  0.00000000000E+00 0. -1.
</event>
<event>
 5    1  0.8778488E-005  0.9118800E+02  0.7818608E-02  0.1130116E+00
         25   -1    0    0    0    0  0.00000000000E+00  0.00000000000E+00  0.99999998245E-14  0.12500000000E+03  0.12500000000E+03 0.  0.
        -11    1    3    3    0    0  0.20568816082E+02  0.29060927479E+02 -0.16835744935E+02  0.39383448411E+02  0.51100000000E-03 0. -1.
         23    2    1    0    0    0 -0.23308579775E+02 -0.43935974402E+01 -0.19010647089E+02  0.94602659782E+02  0.89586075622E+02 0.  0.
         11    1    3    3    0    0 -0.43877395857E+02 -0.33454524919E+02 -0.21749021543E+01  0.55219211371E+02  0.51100000000E-03 0.  1.
         22    1    1    0    0    0  0.23308579775E+02  0.43935974402E+01  0.19010647089E+02  0.30397340218E+02  0.00000000000E+00 0.  1.
</event>
<event>
 5    1  0.8778488E-005  0.9118800E+02  0.7818608E-02  0.1130116E+00
         25   -1    0    0    0    0  0.00000000000E+00  0.00000000000E+00  0.99999998245E-14  0.12500000000E+03  0.12500000000E+03 0.  0.
        -11    1    3    3    0    0  0.21110784495E+02 -0.30757055573E+02  0.15583247946E+02  0.40428941444E+02  0.51100000000E-03 0. -1.
         23    2    1    0    0    0  0.17871919473E+01 -0.46861724665E+01 -0.28998600562E+02  0.95570880034E+02  0.90927003736E+02 0.  0.
         11    1    3    3    0    0 -0.19323592547E+02  0.26070883106E+02 -0.44581848507E+02  0.55141938590E+02  0.51100000000E-03 0.  1.
         22    1    1    0    0    0 -0.17871919473E+01  0.46861724665E+01  0.28998600562E+02  0.29429119966E+02  0.00000000000E+00 0.  1.
</event>
<event>
 5    1  0.8778488E-005  0.9118800E+02  0.7818608E-02  0.1130116E+00
         25   -1    0    0    0    0  0.00000000000E+00  0.00000000000E+00  0.99999998245E-14  0.12500000000E+03  0.12500000000E+03 0.  0.
        -11    1    3    3    0    0 -0.17377200519E+02 -0.28354703597E+02 -0.14809423098E+02  0.36404331153E+02  0.51100000000E-03 0.  1.
         23    2    1    0    0    0 -0.46484783619E+01  0.23737077525E+02  0.13767928920E+02  0.97168128571E+02  0.93096896526E+02 0.  0.
         11    1    3    3    0    0  0.12728722157E+02  0.52091781121E+02  0.28577352018E+02  0.60763797419E+02  0.51100000000E-03 0. -1.
         22    1    1    0    0    0  0.46484783619E+01 -0.23737077525E+02 -0.13767928920E+02  0.27831871429E+02  0.00000000000E+00 0. -1.
</event>
<event>
 5    1  0.8778488E-005  0.9118800E+02  0.7818608E-02  0.1130116E+00
         25   -1    0    0    0    0  0.00000000000E+00  0.00000000000E+00  0.99999998245E-14  0.12500000000E+03  0.12500000000E+03 0.  0.
        -11    1    3    3    0    0  0.39302078183E+02  0.26906505600E+02  0.18845574854E+02  0.51222739920E+02  0.51100000000E-03 0.  1.
         23    2    1    0    0    0 -0.54763455239E+01  0.17259110752E+02  0.21237753222E+02  0.97091051145E+02  0.92993348076E+02 0.  0.
         11    1    3    3    0    0 -0.44778423707E+02 -0.96473948488E+01  0.23921783689E+01  0.45868311225E+02  0.51100000000E-03 0. -1.
         22    1    1    0    0    0  0.54763455239E+01 -0.17259110752E+02 -0.21237753222E+02  0.27908948855E+02  0.00000000000E+00 0. -1.
</event>
<event>
 5    1  0.8778488E-005  0.9118800E+02  0.7818608E-02  0.1130116E+00
         25   -1    0    0    0    0  0.00000000000E+00  0.00000000000E+00  0.99999998245E-14  0.12500000000E+03  0.12500000000E+03 0.  0.
        -11    1    3    3    0    0  0.46042726485E+02 -0.16540160700E+02 -0.37419764513E+02  0.61593411617E+02  0.51100000000E-03 0. -1.
         23    2    1    0    0    0  0.22100776023E+02 -0.21677613878E+01 -0.23029544991E+02  0.93007759805E+02  0.87332353404E+02 0.  0.
         11    1    3    3    0    0 -0.23941950462E+02  0.14372399312E+02  0.14390219522E+02  0.31414348188E+02  0.51100000000E-03 0.  1.
         22    1    1    0    0    0 -0.22100776023E+02  0.21677613878E+01  0.23029544991E+02  0.31992240195E+02  0.00000000000E+00 0. -1.
</event>
<event>
 5    1  0.8778488E-005  0.9118800E+02  0.7818608E-02  0.1130116E+00
         25   -1    0    0    0    0  0.00000000000E+00  0.00000000000E+00  0.99999998245E-14  0.12500000000E+03  0.12500000000E+03 0.  0.
        -11    1    3    3    0    0  0.14721937798E+02  0.45512614681E+02  0.39652051242E+02  0.62132267910E+02  0.51100000000E-03 0.  1.
         23    2    1    0    0    0  0.30676095830E+01  0.21710675825E+02  0.21762437046E+02  0.94107163622E+02  0.88892018232E+02 0.  0.
         11    1    3    3    0    0 -0.11654328215E+02 -0.23801938856E+02 -0.17889614196E+02  0.31974895712E+02  0.51100000000E-03 0. -1.
         22    1    1    0    0    0 -0.30676095830E+01 -0.21710675825E+02 -0.21762437046E+02  0.30892836378E+02  0.00000000000E+00 0.  1.
</event>
<event>
 5    1  0.8778488E-005  0.9118800E+02  0.7818608E-02  0.1130116E+00
         25   -1    0    0    0    0  0.00000000000E+00  0.00000000000E+00  0.99999998245E-14  0.12500000000E+03  0.12500000000E+03 0.  0.
        -11    1    3    3    0    0 -0.15019433347E+02 -0.26401012034E+02 -0.51692044736E+02  0.59955519376E+02  0.51100000000E-03 0.  1.
         23    2    1    0    0    0 -0.39046716667E+00 -0.22063898749E+02 -0.19621448162E+02  0.95470873351E+02  0.90789417543E+02 0.  0.
         11    1    3    3    0    0  0.14628966180E+02  0.43371132845E+01  0.32070596573E+02  0.35515353975E+02  0.51100000000E-03 0. -1.
         22    1    1    0    0    0  0.39046716667E+00  0.22063898749E+02  0.19621448162E+02  0.29529126649E+02  0.00000000000E+00 0.  1.
</event>
<event>
 5    1  0.8778488E-005  0.9118800E+02  0.7818608E-02  0.1130116E+00
         25   -1    0    0    0    0  0.00000000000E+00  0.00000000000E+00  0.99999998245E-14  0.12500000000E+03  0.12500000000E+03 0.  0.
        -11    1    3    3    0    0 -0.24587294659E+02  0.16286952762E-01 -0.53753095757E+02  0.59109480015E+02  0.51100000000E-03 0. -1.
         23    2    1    0    0    0 -0.69010101728E+01  0.13828789007E+02 -0.25383641774E+02  0.95281510528E+02  0.90528325025E+02 0.  0.
         11    1    3    3    0    0  0.17686284486E+02  0.13812502054E+02  0.28369453982E+02  0.36172030513E+02  0.51100000000E-03 0.  1.
         22    1    1    0    0    0  0.69010101728E+01 -0.13828789007E+02  0.25383641774E+02  0.29718489472E+02  0.00000000000E+00 0. -1.
</event>
<event>
 5    1  0.8778488E-005  0.9118800E+02  0.7818608E-02  0.1130116E+00
         25   -1    0    0    0    0  0.00000000000E+00  0.00000000000E+00  0.99999998245E-14  0.12500000000E+03  0.12500000000E+03 0.  0.
        -11    1    3    3    0    0  0.60860275967E+01 -0.14820901822E+02  0.58867553833E+02  0.61008915391E+02  0.51100000000E-03 0.  1.
         23    2    1    0    0    0 -0.43762164738E+01 -0.53149897729E+00  0.28481721750E+02  0.96179135412E+02  0.91759380190E+02 0.  0.
         11    1    3    3    0    0 -0.10462244071E+02  0.14289402845E+02 -0.30385832083E+02  0.35170220020E+02  0.51100000000E-03 0. -1.
         22    1    1    0    0    0  0.43762164738E+01  0.53149897729E+00 -0.28481721750E+02  0.28820864588E+02  0.00000000000E+00 0.  1.
</event>
<event>
 5    1  0.8778488E-005  0.9118800E+02  0.7818608E-02  0.1130116E+00
         25   -1    0    0    0    0  0.00000000000E+00  0.00000000000E+00  0.99999998245E-14  0.12500000000E+03  0.12500000000E+03 0.  0.
        -11    1    3    3    0    0 -0.17169945369E+02 -0.94438541652E+00 -0.30505858591E+02  0.35018656405E+02  0.51100000000E-03 0.  1.
         23    2    1    0    0    0  0.23198781459E+02  0.78670638913E+01  0.14834362056E+02  0.96362045236E+02  0.92008213269E+02 0.  0.
         11    1    3    3    0    0  0.40368726828E+02  0.88114493078E+01  0.45340220647E+02  0.61343388831E+02  0.51100000000E-03 0. -1.
         22    1    1    0    0    0 -0.23198781459E+02 -0.78670638913E+01 -0.14834362056E+02  0.28637954764E+02  0.00000000000E+00 0. -1.
</event>
<event>
 5    1  0.8778488E-005  0.9118800E+02  0.7818608E-02  0.1130116E+00
         25   -1    0    0    0    0  0.00000000000E+00  0.00000000000E+00  0.99999998245E-14  0.12500000000E+03  0.12500000000E+03 0.  0.
        -11    1    3    3    0    0  0.34797596273E+02  0.47603896827E+02  0.18734372244E+02  0.61870674824E+02  0.51100000000E-03 0.  1.
         23    2    1    0    0    0  0.14408097394E+02  0.25433403956E+02  0.36979950686E+01  0.95536013935E+02  0.90879059654E+02 0.  0.
         11    1    3    3    0    0 -0.20389498878E+02 -0.22170492871E+02 -0.15036377175E+02  0.33665339111E+02  0.51100000000E-03 0. -1.
         22    1    1    0    0    0 -0.14408097394E+02 -0.25433403956E+02 -0.36979950686E+01  0.29463986065E+02  0.00000000000E+00 0.  1.
</event>
<event>
 5    1  0.8778488E-005  0.9118800E+02  0.7818608E-02  0.1130116E+00
         25   -1    0    0    0    0  0.00000000000E+00  0.00000000000E+00  0.99999998245E-14  0.12500000000E+03  0.12500000000E+03 0.  0.
        -11    1    3    3    0    0 -0.23237226991E+02 -0.22327849072E+02 -0.17353220684E+02  0.36601035925E+02  0.51100000000E-03 0. -1.
         23    2    1    0    0    0  0.14326471285E+02  0.23362038509E+02 -0.77120386999E+01  0.96530574932E+02  0.92236889220E+02 0.  0.
         11    1    3    3    0    0  0.37563698276E+02  0.45689887581E+02  0.96411819842E+01  0.59929539007E+02  0.51100000000E-03 0.  1.
         22    1    1    0    0    0 -0.14326471285E+02 -0.23362038509E+02  0.77120386999E+01  0.28469425068E+02  0.00000000000E+00 0.  1.
</event>
<event>
 5    1  0.8778488E-005  0.9118800E+02  0.7818608E-02  0.1130116E+00
         25   -1    0    0    0    0  0.00000000000E+00  0.00000000000E+00  0.99999998245E-14  0.12500000000E+03  0.12500000000E+03 0.  0.
        -11    1    3    3    0    0 -0.52980675564E+02 -0.16964178214E+02 -0.25427846792E+02  0.61166254736E+02  0.51100000000E-03 0.  1.
         23    2    1    0    0    0 -0.25369474643E+02 -0.12049623915E+02 -0.36415721288E+01  0.96679252698E+02  0.92438158650E+02 0.  0.
         11    1    3    3    0    0  0.27611200921E+02  0.49145542992E+01  0.21786274663E+02  0.35512997962E+02  0.51100000000E-03 0. -1.
         22    1    1    0    0    0  0.25369474643E+02  0.12049623915E+02  0.36415721288E+01  0.28320747302E+02  0.00000000000E+00 0.  1.
</event>
<event>
 5    1  0.8778488E-005  0.9118800E+02  0.7818608E-02  0.1130116E+00
         25   -1    0    0    0    0  0.00000000000E+00  0.00000000000E+00  0.99999998245E-14  0.12500000000E+03  0.12500000000E+03 0.  0.
        -11    1    3    3    0    0  0.23808656635E+02  0.49500229405E+02  0.10682630141E+02  0.55957514499E+02  0.51100000000E-03 0. -1.
         23    2    1    0    0    0 -0.72063184092E+01  0.30067775086E+02  0.13548288765E-01  0.94080713023E+02  0.88854815602E+02 0.  0.
         11    1    3    3    0    0 -0.31014975045E+02 -0.19432454319E+02 -0.10669081852E+02  0.38123198524E+02  0.51100000000E-03 0.  1.
         22    1    1    0    0    0  0.72063184092E+01 -0.30067775086E+02 -0.13548288765E-01  0.30919286977E+02  0.00000000000E+00 0. -1.
</event>
<event>
 5    1  0.8778488E-005  0.9118800E+02  0.7818608E-02  0.1130116E+00
         25   -1    0    0    0    0  0.00000000000E+00  0.00000000000E+00  0.99999998245E-14  0.12500000000E+03  0.12500000000E+03 0.  0.
        -11    1    3    3    0    0  0.55461844498E+01  0.28182998990E+02 -0.16224079371E+02  0.32988821527E+02  0.51100000000E-03 0.  1.
         23    2    1    0    0    0  0.20365959289E+02 -0.22354395926E+02  0.11670673105E+02  0.92585559920E+02  0.86725947559E+02 0.  0.
         11    1    3    3    0    0  0.14819774839E+02 -0.50537394916E+02  0.27894752477E+02  0.59596738393E+02  0.51100000000E-03 0. -1.
         22    1    1    0    0    0 -0.20365959289E+02  0.22354395926E+02 -0.11670673105E+02  0.32414440080E+02  0.00000000000E+00 0. -1.
</event>
<event>
 5    1  0.8778488E-005  0.9118800E+02  0.7818608E-02  0.1130116E+00
         25   -1    0    0    0    0  0.00000000000E+00  0.00000000000E+00  0.99999998245E-14  0.12500000000E+03  0.12500000000E+03 0.  0.
        -11    1    3    3    0    0  0.87419497464E+01 -0.14801639443E+02  0.57502577490E+02  0.60017136168E+02  0.51100000000E-03 0. -1.
         23    2    1    0    0    0  0.90090791111E+01 -0.18673802212E+02  0.26059967470E+02  0.91698403942E+02  0.85437702366E+02 0.  0.
         11    1    3    3    0    0  0.26712936462E+00 -0.38721627696E+01 -0.31442610020E+02  0.31681267774E+02  0.51100000000E-03 0.  1.
         22    1    1    0    0    0 -0.90090791111E+01  0.18673802212E+02 -0.26059967470E+02  0.33301596058E+02  0.00000000000E+00 0. -1.
</event>
<event>
 5    1  0.8778488E-005  0.9118800E+02  0.7818608E-02  0.1130116E+00
         25   -1    0    0    0    0  0.00000000000E+00  0.00000000000E+00  0.99999998245E-14  0.12500000000E+03  0.12500000000E+03 0.  0.
        -11    1    3    3    0    0  0.10860035395E+02 -0.54353494604E+02 -0.27672312789E+02  0.61951591099E+02  0.51100000000E-03 0. -1.
         23    2    1    0    0    0  0.68861935440E+01 -0.27735341411E+02 -0.78889258981E+01  0.95353685279E+02  0.90627927923E+02 0.  0.
         11    1    3    3    0    0 -0.39738418515E+01  0.26618153192E+02  0.19783386891E+02  0.33402094179E+02  0.51100000000E-03 0.  1.
         22    1    1    0    0    0 -0.68861935440E+01  0.27735341411E+02  0.78889258981E+01  0.29646314721E+02  0.00000000000E+00 0. -1.
</event>
<event>
 5    1  0.8778488E-005  0.9118800E+02  0.7818608E-02  0.1130116E+00
         25   -1    0    0    0    0  0.00000000000E+00  0.00000000000E+00  0.99999998245E-14  0.12500000000E+03  0.12500000000E+03 0.  0.
        -11    1    3    3    0    0  0.12985705368E+02  0.13307380728E+02  0.30674780560E+02  0.35870002626E+02  0.51100000000E-03 0.  1.
         23    2    1    0    0    0 -0.20604364023E+02 -0.16518217968E+02 -0.10283608868E+02  0.96660205488E+02  0.92412398367E+02 0.  0.
         11    1    3    3    0    0 -0.33590069391E+02 -0.29825598696E+02 -0.40958389427E+02  0.60790202862E+02  0.51100000000E-03 0. -1.
         22    1    1    0    0    0  0.20604364023E+02  0.16518217968E+02  0.10283608868E+02  0.28339794512E+02  0.00000000000E+00 0. -1.
</event>
<event>
 5    1  0.8778488E-005  0.9118800E+02  0.7818608E-02  0.1130116E+00
         25   -1    0    0    0    0  0.00000000000E+00  0.00000000000E+00  0.99999998245E-14  0.12500000000E+03  0.12500000000E+03 0.  0.
        -11    1    3    3    0    0  0.15740017036E+02  0.10189116806E+02 -0.29695928447E+02  0.35120000060E+02  0.51100000000E-03 0. -1.
         23    2    1    0    0    0 -0.20883398125E+02 -0.76674924353E+01  0.16932885064E+02  0.97042365013E+02  0.92927882001E+02 0.  0.
         11    1    3    3    0    0 -0.36623415161E+02 -0.17856609241E+02  0.46628813511E+02  0.61922364953E+02  0.51100000000E-03 0.  1.
         22    1    1    0    0    0  0.20883398125E+02  0.76674924353E+01 -0.16932885064E+02  0.27957634987E+02  0.00000000000E+00 0.  1.
</event>
<event>
 5    1  0.8778488E-005  0.9118800E+02  0.7818608E-02  0.1130116E+00
         25   -1    0    0    0    0  0.00000000000E+00  0.00000000000E+00  0.99999998245E-14  0.12500000000E+03  0.12500000000E+03 0.  0.
        -11    1    3    3    0    0 -0.47831067460E+02  0.16086932164E+02  0.22158525023E+02  0.55114432159E+02  0.51100000000E-03 0. -1.
         23    2    1    0    0    0 -0.99158496290E+01  0.25358015102E+02  0.82704392096E+01  0.96543837777E+02  0.92254861358E+02 0.  0.
         11    1    3    3    0    0  0.37915217831E+02  0.92710829378E+01 -0.13888085814E+02  0.41429405617E+02  0.51100000000E-03 0.  1.
         22    1    1    0    0    0  0.99158496290E+01 -0.25358015102E+02 -0.82704392096E+01  0.28456162223E+02  0.00000000000E+00 0. -1.
</event>
<event>
 5    1  0.8778488E-005  0.9118800E+02  0.7818608E-02  0.1130116E+00
         25   -1    0    0    0    0  0.00000000000E+00  0.00000000000E+00  0.99999998245E-14  0.12500000000E+03  0.12500000000E+03 0.  0.
        -11    1    3    3    0    0 -0.63412050335E+00 -0.34729954225E+02 -0.10966565484E+02  0.36425779169E+02  0.51100000000E-03 0.  1.
         23    2    1    0    0    0  0.10244692832E+02  0.12200543767E+02  0.24169227598E+02  0.96052486081E+02  0.91586688553E+02 0.  0.
         11    1    3    3    0    0  0.10878813335E+02  0.46930497992E+02  0.35135793082E+02  0.59626706912E+02  0.51100000000E-03 0. -1.
         22    1    1    0    0    0 -0.10244692832E+02 -0.12200543767E+02 -0.24169227598E+02  0.28947513919E+02  0.00000000000E+00 0. -1.
</event>
<event>
 5    1  0.8778488E-005  0.9118800E+02  0.7818608E-02  0.1130116E+00
         25   -1    0    0    0    0  0.00000000000E+00  0.00000000000E+00  0.99999998245E-14  0.12500000000E+03  0.12500000000E+03 0.  0.
        -11    1    3    3    0    0 -0.20178665994E+01  0.10431741925E+02  0.32067167227E+02  0.33781596164E+02  0.51100000000E-03 0.  1.
         23    2    1    0    0    0  0.10246697084E+02  0.36416273389E+00 -0.27618115210E+02  0.95540066134E+02  0.90884633098E+02 0.  0.
         11    1    3    3    0    0  0.12264563684E+02 -0.10067579191E+02 -0.59685282437E+02  0.61758469969E+02  0.51100000000E-03 0. -1.
         22    1    1    0    0    0 -0.10246697084E+02 -0.36416273389E+00  0.27618115210E+02  0.29459933866E+02  0.00000000000E+00 0. -1.
</event>
<event>
 5    1  0.8778488E-005  0.9118800E+02  0.7818608E-02  0.1130116E+00
         25   -1    0    0    0    0  0.00000000000E+00  0.00000000000E+00  0.99999998245E-14  0.12500000000E+03  0.12500000000E+03 0.  0.
        -11    1    3    3    0    0 -0.59204925595E+01  0.36161686654E+02  0.45615973867E+01  0.36925979808E+02  0.51100000000E-03 0.  1.
         23    2    1    0    0    0 -0.11645796585E+01 -0.58998891858E+01  0.35269798312E+02  0.89221184884E+02  0.81733079111E+02 0.  0.
         11    1    3    3    0    0  0.47559129011E+01 -0.42061575839E+02  0.30708200925E+02  0.52295205076E+02  0.51100000000E-03 0. -1.
         22    1    1    0    0    0  0.11645796585E+01  0.58998891858E+01 -0.35269798312E+02  0.35778815116E+02  0.00000000000E+00 0. -1.
</event>
<event>
 5    1  0.8778488E-005  0.9118800E+02  0.7818608E-02  0.1130116E+00
         25   -1    0    0    0    0  0.00000000000E+00  0.00000000000E+00  0.99999998245E-14  0.12500000000E+03  0.12500000000E+03 0.  0.
        -11    1    3    3    0    0  0.85204607671E+01  0.99464659358E+01 -0.28125965294E+02  0.31025801525E+02  0.51100000000E-03 0. -1.
         23    2    1    0    0    0 -0.17725558304E+02  0.68174043477E+00  0.26950486490E+02  0.92735640263E+02  0.86941992533E+02 0.  0.
         11    1    3    3    0    0 -0.26246019071E+02 -0.92647255010E+01  0.55076451784E+02  0.61709838738E+02  0.51100000000E-03 0.  1.
         22    1    1    0    0    0  0.17725558304E+02 -0.68174043477E+00 -0.26950486490E+02  0.32264359737E+02  0.00000000000E+00 0.  1.
</event>
<event>
 5    1  0.8778488E-005  0.9118800E+02  0.7818608E-02  0.1130116E+00
         25   -1    0    0    0    0  0.00000000000E+00  0.00000000000E+00  0.99999998245E-14  0.12500000000E+03  0.12500000000E+03 0.  0.
        -11    1    3    3    0    0  0.19993462896E+00  0.52566436708E+02 -0.25380506304E+02  0.58373284493E+02  0.51100000000E-03 0.  1.
         23    2    1    0    0    0 -0.15883825565E+02  0.23122433372E+02 -0.11485041823E+02  0.94687477418E+02  0.89704344123E+02 0.  0.
         11    1    3    3    0    0 -0.16083760194E+02 -0.29444003336E+02  0.13895464481E+02  0.36314192925E+02  0.51100000000E-03 0. -1.
         22    1    1    0    0    0  0.15883825565E+02 -0.23122433372E+02  0.11485041823E+02  0.30312522582E+02  0.00000000000E+00 0.  1.
</event>
<event>
 5    1  0.8778488E-005  0.9118800E+02  0.7818608E-02  0.1130116E+00
         25   -1    0    0    0    0  0.00000000000E+00  0.00000000000E+00  0.99999998245E-14  0.12500000000E+03  0.12500000000E+03 0.  0.
        -11    1    3    3    0    0  0.10197988588E+02  0.23045079439E+02 -0.54703045646E+02  0.60228712927E+02  0.51100000000E-03 0. -1.
         23    2    1    0    0    0  0.17012884041E+02  0.10104319415E+02 -0.27402127607E+02  0.91200412849E+02  0.84705980971E+02 0.  0.
         11    1    3    3    0    0  0.68148954522E+01 -0.12940760023E+02  0.27300918039E+02  0.30971699922E+02  0.51100000000E-03 0.  1.
         22    1    1    0    0    0 -0.17012884041E+02 -0.10104319415E+02  0.27402127607E+02  0.33799587151E+02  0.00000000000E+00 0. -1.
</event>
<event>
 5    1  0.8778488E-005  0.9118800E+02  0.7818608E-02  0.1130116E+00
         25   -1    0    0    0    0  0.00000000000E+00  0.00000000000E+00  0.99999998245E-14  0.12500000000E+03  0.12500000000E+03 0.  0.
        -11    1    3    3    0    0  0.28590924267E+02  0.41884112557E+02 -0.15897136509E+02  0.53145449331E+02  0.51100000000E-03 0. -1.
         23    2    1    0    0    0  0.28270766664E+02  0.82558997988E-01 -0.63146427223E+01  0.96032470307E+02  0.91559366407E+02 0.  0.
         11    1    3    3    0    0 -0.32015760275E+00 -0.41801553559E+02  0.95824937871E+01  0.42887020977E+02  0.51100000000E-03 0.  1.
         22    1    1    0    0    0 -0.28270766664E+02 -0.82558997988E-01  0.63146427223E+01  0.28967529693E+02  0.00000000000E+00 0. -1.
</event>
<event>
 5    1  0.8778488E-005  0.9118800E+02  0.7818608E-02  0.1130116E+00
         25   -1    0    0    0    0  0.00000000000E+00  0.00000000000E+00  0.99999998245E-14  0.12500000000E+03  0.12500000000E+03 0.  0.
        -11    1    3    3    0    0  0.66674204757E+01 -0.31315114007E+02 -0.97641758112E+01  0.33472824658E+02  0.51100000000E-03 0.  1.
         23    2    1    0    0    0  0.33164682540E+00  0.27571204608E+02  0.96299376726E+01  0.95793545016E+02  0.91232594252E+02 0.  0.
         11    1    3    3    0    0 -0.63357736503E+01  0.58886318615E+02  0.19394113484E+02  0.62320720358E+02  0.51100000000E-03 0. -1.
         22    1    1    0    0    0 -0.33164682540E+00 -0.27571204608E+02 -0.96299376726E+01  0.29206454984E+02  0.00000000000E+00 0. -1.
</event>
<event>
 5    1  0.8778488E-005  0.9118800E+02  0.7818608E-02  0.1130116E+00
         25   -1    0    0    0    0  0.00000000000E+00  0.00000000000E+00  0.99999998245E-14  0.12500000000E+03  0.12500000000E+03 0.  0.
        -11    1    3    3    0    0  0.12481473554E+02  0.30124526942E+02  0.36658181139E+02  0.49062170256E+02  0.51100000000E-03 0.  1.
         23    2    1    0    0    0  0.23598428502E+02 -0.94292822935E+01  0.14448360428E+02  0.95767273282E+02  0.91196591606E+02 0.  0.
         11    1    3    3    0    0  0.11116954948E+02 -0.39553809236E+02 -0.22209820711E+02  0.46705103026E+02  0.51100000000E-03 0. -1.
         22    1    1    0    0    0 -0.23598428502E+02  0.94292822935E+01 -0.14448360428E+02  0.29232726718E+02  0.00000000000E+00 0. -1.
</event>
<event>
 5    1  0.8778488E-005  0.9118800E+02  0.7818608E-02  0.1130116E+00
         25   -1    0    0    0    0  0.00000000000E+00  0.00000000000E+00  0.99999998245E-14  0.12500000000E+03  0.12500000000E+03 0.  0.
        -11    1    3    3    0    0  0.32366196659E+01  0.30553845058E+02 -0.74942174504E+01  0.31625566401E+02  0.51100000000E-03 0.  1.
         23    2    1    0    0    0 -0.13055270719E+02 -0.22922904308E+02 -0.23388877794E+02  0.89744656576E+02  0.82529777317E+02 0.  0.
         11    1    3    3    0    0 -0.16291890385E+02 -0.53476749367E+02 -0.15894660344E+02  0.58119090176E+02  0.51100000000E-03 0. -1.
         22    1    1    0    0    0  0.13055270719E+02  0.22922904308E+02  0.23388877794E+02  0.35255343424E+02  0.00000000000E+00 0. -1.
</event>
<event>
 5    1  0.8778488E-005  0.9118800E+02  0.7818608E-02  0.1130116E+00
         25   -1    0    0    0    0  0.00000000000E+00  0.00000000000E+00  0.99999998245E-14  0.12500000000E+03  0.12500000000E+03 0.  0.
        -11    1    3    3    0    0  0.77129355464E+01 -0.61870951580E+01  0.41756337131E+02  0.42911084956E+02  0.51100000000E-03 0. -1.
         23    2    1    0    0    0 -0.13595278975E+02  0.10609525675E+02 -0.12586115180E+02  0.10365043465E+03  0.10142784954E+03 0.  0.
         11    1    3    3    0    0 -0.21308214522E+02  0.16796620833E+02 -0.54342452310E+02  0.60739349691E+02  0.51100000000E-03 0.  1.
         22    1    1    0    0    0  0.13595278975E+02 -0.10609525675E+02  0.12586115180E+02  0.21349565354E+02  0.00000000000E+00 0.  1.
</event>
<event>
 5    1  0.8778488E-005  0.9118800E+02  0.7818608E-02  0.1130116E+00
         25   -1    0    0    0    0  0.00000000000E+00  0.00000000000E+00  0.99999998245E-14  0.12500000000E+03  0.12500000000E+03 0.  0.
        -11    1    3    3    0    0  0.28113694662E+02 -0.19352393926E+02  0.54349438128E+00  0.34134884863E+02  0.51100000000E-03 0.  1.
         23    2    1    0    0    0 -0.18953043439E+02  0.13227185718E+02 -0.19474785381E+02  0.94776771131E+02  0.89828685745E+02 0.  0.
         11    1    3    3    0    0 -0.47066738101E+02  0.32579579644E+02 -0.20018279762E+02  0.60641886268E+02  0.51100000000E-03 0. -1.
         22    1    1    0    0    0  0.18953043439E+02 -0.13227185718E+02  0.19474785381E+02  0.30223228869E+02  0.00000000000E+00 0. -1.
</event>
<event>
 5    1  0.8778488E-005  0.9118800E+02  0.7818608E-02  0.1130116E+00
         25   -1    0    0    0    0  0.00000000000E+00  0.00000000000E+00  0.99999998245E-14  0.12500000000E+03  0.12500000000E+03 0.  0.
        -11    1    3    3    0    0  0.44846708904E+02 -0.11480088953E+02 -0.20013623148E+02  0.50433766999E+02  0.51100000000E-03 0. -1.
         23    2    1    0    0    0  0.50587418165E+01  0.65167604522E+01 -0.28855146797E+02  0.94988693260E+02  0.90123100896E+02 0.  0.
         11    1    3    3    0    0 -0.39787967088E+02  0.17996849405E+02 -0.88415236490E+01  0.44554926262E+02  0.51100000000E-03 0.  1.
         22    1    1    0    0    0 -0.50587418165E+01 -0.65167604522E+01  0.28855146797E+02  0.30011306740E+02  0.00000000000E+00 0.  1.
</event>
<event>
 5    1  0.8778488E-005  0.9118800E+02  0.7818608E-02  0.1130116E+00
         25   -1    0    0    0    0  0.00000000000E+00  0.00000000000E+00  0.99999998245E-14  0.12500000000E+03  0.12500000000E+03 0.  0.
        -11    1    3    3    0    0 -0.14047918993E+02  0.15119889206E+02 -0.10508025281E+01  0.20665412259E+02  0.51100000000E-03 0.  1.
         23    2    1    0    0    0 -0.15623498230E+02 -0.42857249226E+02 -0.65155211827E+01  0.78920834160E+02  0.64071901331E+02 0.  0.
         11    1    3    3    0    0 -0.15755792370E+01 -0.57977138432E+02 -0.54647186547E+01  0.58255421901E+02  0.51100000000E-03 0. -1.
         22    1    1    0    0    0  0.15623498230E+02  0.42857249226E+02  0.65155211827E+01  0.46079165840E+02  0.00000000000E+00 0. -1.
</event>
<event>
 5    1  0.8778488E-005  0.9118800E+02  0.7818608E-02  0.1130116E+00
         25   -1    0    0    0    0  0.00000000000E+00  0.00000000000E+00  0.99999998245E-14  0.12500000000E+03  0.12500000000E+03 0.  0.
        -11    1    3    3    0    0 -0.23178847496E+02  0.41682654810E+02 -0.29270012615E+02  0.55959238040E+02  0.51100000000E-03 0.  1.
         23    2    1    0    0    0 -0.21989255953E+02  0.35265490147E+01 -0.19584377848E+02  0.95343436123E+02  0.90613790511E+02 0.  0.
         11    1    3    3    0    0  0.11895915426E+01 -0.38156105795E+02  0.96856347676E+01  0.39384198083E+02  0.51100000000E-03 0. -1.
         22    1    1    0    0    0  0.21989255953E+02 -0.35265490147E+01  0.19584377848E+02  0.29656563877E+02  0.00000000000E+00 0. -1.
</event>
<event>
 5    1  0.8778488E-005  0.9118800E+02  0.7818608E-02  0.1130116E+00
         25   -1    0    0    0    0  0.00000000000E+00  0.00000000000E+00  0.99999998245E-14  0.12500000000E+03  0.12500000000E+03 0.  0.
        -11    1    3    3    0    0 -0.15556081467E+02 -0.39226623407E+02 -0.40261627928E+02  0.58324251716E+02  0.51100000000E-03 0. -1.
         23    2    1    0    0    0 -0.33695354983E+01 -0.26604201164E+02 -0.49840803680E+01  0.97724033543E+02  0.93840334535E+02 0.  0.
         11    1    3    3    0    0  0.12186545969E+02  0.12622422243E+02  0.35277547560E+02  0.39399781827E+02  0.51100000000E-03 0.  1.
         22    1    1    0    0    0  0.33695354983E+01  0.26604201164E+02  0.49840803680E+01  0.27275966457E+02  0.00000000000E+00 0. -1.
</event>
<event>
 5    1  0.8778488E-005  0.9118800E+02  0.7818608E-02  0.1130116E+00
         25   -1    0    0    0    0  0.00000000000E+00  0.00000000000E+00  0.99999998245E-14  0.12500000000E+03  0.12500000000E+03 0.  0.
        -11    1    3    3    0    0  0.20111434537E+02  0.23327155377E+02  0.40170795566E+02  0.50619351969E+02  0.51100000000E-03 0.  1.
         23    2    1    0    0    0 -0.17549133110E+02  0.53125196832E+01  0.22558258891E+02  0.95929912582E+02  0.91419243846E+02 0.  0.
         11    1    3    3    0    0 -0.37660567647E+02 -0.18014635694E+02 -0.17612536675E+02  0.45310560613E+02  0.51100000000E-03 0. -1.
         22    1    1    0    0    0  0.17549133110E+02 -0.53125196832E+01 -0.22558258891E+02  0.29070087418E+02  0.00000000000E+00 0. -1.
</event>
<event>
 5    1  0.8778488E-005  0.9118800E+02  0.7818608E-02  0.1130116E+00
         25   -1    0    0    0    0  0.00000000000E+00  0.00000000000E+00  0.99999998245E-14  0.12500000000E+03  0.12500000000E+03 0.  0.
        -11    1    3    3    0    0  0.17695928472E+02 -0.57568979356E+02 -0.39605010265E+01  0.60357425701E+02  0.51100000000E-03 0.  1.
         23    2    1    0    0    0  0.12326033055E+02 -0.24096827260E+02  0.87383618477E+01  0.96558003891E+02  0.92274053627E+02 0.  0.
         11    1    3    3    0    0 -0.53698954168E+01  0.33472152096E+02  0.12698862874E+02  0.36200578190E+02  0.51100000000E-03 0. -1.
         22    1    1    0    0    0 -0.12326033055E+02  0.24096827260E+02 -0.87383618477E+01  0.28441996109E+02  0.00000000000E+00 0.  1.
</event>
<event>
 5    1  0.8778488E-005  0.9118800E+02  0.7818608E-02  0.1130116E+00
         25   -1    0    0    0    0  0.00000000000E+00  0.00000000000E+00  0.99999998245E-14  0.12500000000E+03  0.12500000000E+03 0.  0.
        -11    1    3    3    0    0  0.24036631272E+02  0.31722698225E+02  0.16476315413E+02  0.43076190587E+02  0.51100000000E-03 0. -1.
         23    2    1    0    0    0  0.22028782343E+02 -0.58032976506E+01 -0.19435062354E+02  0.95055598790E+02  0.90215850589E+02 0.  0.
         11    1    3    3    0    0 -0.20078489290E+01 -0.37525995876E+02 -0.35911377767E+02  0.51979408203E+02  0.51100000000E-03 0.  1.
         22    1    1    0    0    0 -0.22028782343E+02  0.58032976506E+01  0.19435062354E+02  0.29944401210E+02  0.00000000000E+00 0.  1.
</event>
<event>
 5    1  0.8778488E-005  0.9118800E+02  0.7818608E-02  0.1130116E+00
         25   -1    0    0    0    0  0.00000000000E+00  0.00000000000E+00  0.99999998245E-14  0.12500000000E+03  0.12500000000E+03 0.  0.
        -11    1    3    3    0    0  0.14435380223E+02 -0.27896699043E+02 -0.18911014696E+02  0.36663776357E+02  0.51100000000E-03 0. -1.
         23    2    1    0    0    0  0.96157801631E+01  0.27770598135E+02 -0.12928615620E+00  0.95611463734E+02  0.90982778225E+02 0.  0.
         11    1    3    3    0    0 -0.48196000596E+01  0.55667297178E+02  0.18781728540E+02  0.58947687377E+02  0.51100000000E-03 0.  1.
         22    1    1    0    0    0 -0.96157801631E+01 -0.27770598135E+02  0.12928615620E+00  0.29388536266E+02  0.00000000000E+00 0.  1.
</event>
<event>
 5    1  0.8778488E-005  0.9118800E+02  0.7818608E-02  0.1130116E+00
         25   -1    0    0    0    0  0.00000000000E+00  0.00000000000E+00  0.99999998245E-14  0.12500000000E+03  0.12500000000E+03 0.  0.
        -11    1    3    3    0    0 -0.15796264310E+02  0.50849510659E+02 -0.18007714085E+02  0.56209184901E+02  0.51100000000E-03 0.  1.
         23    2    1    0    0    0 -0.24003662998E+02  0.14013989370E+02 -0.13122713165E+02  0.94262834610E+02  0.89110653979E+02 0.  0.
         11    1    3    3    0    0 -0.82073986888E+01 -0.36835521290E+02  0.48850009200E+01  0.38053649709E+02  0.51100000000E-03 0. -1.
         22    1    1    0    0    0  0.24003662998E+02 -0.14013989370E+02  0.13122713165E+02  0.30737165390E+02  0.00000000000E+00 0.  1.
</event>
<event>
 5    1  0.8778488E-005  0.9118800E+02  0.7818608E-02  0.1130116E+00
         25   -1    0    0    0    0  0.00000000000E+00  0.00000000000E+00  0.99999998245E-14  0.12500000000E+03  0.12500000000E+03 0.  0.
        -11    1    3    3    0    0 -0.26657469889E+02  0.74887718803E+01  0.61706770019E+01  0.28368638671E+02  0.51100000000E-03 0.  1.
         23    2    1    0    0    0  0.20490115336E+02  0.35692179363E+02  0.66538769656E+01  0.83310066289E+02  0.72128472687E+02 0.  0.
         11    1    3    3    0    0  0.47147585225E+02  0.28203407483E+02  0.48319996369E+00  0.54941427617E+02  0.51100000000E-03 0. -1.
         22    1    1    0    0    0 -0.20490115336E+02 -0.35692179363E+02 -0.66538769656E+01  0.41689933711E+02  0.00000000000E+00 0. -1.
</event>
<event>
 5    1  0.8778488E-005  0.9118800E+02  0.7818608E-02  0.1130116E+00
         25   -1    0    0    0    0  0.00000000000E+00  0.00000000000E+00  0.99999998245E-14  0.12500000000E+03  0.12500000000E+03 0.  0.
        -11    1    3    3    0    0  0.53083368720E+02  0.24409430377E+02  0.25914474565E+01  0.58484014279E+02  0.51100000000E-03 0. -1.
         23    2    1    0    0    0  0.16527837579E+02  0.24874166724E+02  0.23472053163E+01  0.95043315302E+02  0.90198829403E+02 0.  0.
         11    1    3    3    0    0 -0.36555531141E+02  0.46473634729E+00 -0.24424214021E+00  0.36559301024E+02  0.51100000000E-03 0.  1.
         22    1    1    0    0    0 -0.16527837579E+02 -0.24874166724E+02 -0.23472053163E+01  0.29956684698E+02  0.00000000000E+00 0. -1.
</event>
<event>
 5    1  0.8778488E-005  0.9118800E+02  0.7818608E-02  0.1130116E+00
         25   -1    0    0    0    0  0.00000000000E+00  0.00000000000E+00  0.99999998245E-14  0.12500000000E+03  0.12500000000E+03 0.  0.
        -11    1    3    3    0    0 -0.28977547608E+02  0.30314740820E+02  0.12759493769E+02  0.43834763121E+02  0.51100000000E-03 0.  1.
         23    2    1    0    0    0  0.20334615608E+02  0.21686647983E+02  0.10225711277E+01  0.95253522152E+02  0.90489670891E+02 0.  0.
         11    1    3    3    0    0  0.49312163215E+02 -0.86280928371E+01 -0.11736922642E+02  0.51418759031E+02  0.51100000000E-03 0. -1.
         22    1    1    0    0    0 -0.20334615608E+02 -0.21686647983E+02 -0.10225711277E+01  0.29746477848E+02  0.00000000000E+00 0. -1.
</event>
<event>
 5    1  0.8778488E-005  0.9118800E+02  0.7818608E-02  0.1130116E+00
         25   -1    0    0    0    0  0.00000000000E+00  0.00000000000E+00  0.99999998245E-14  0.12500000000E+03  0.12500000000E+03 0.  0.
        -11    1    3    3    0    0  0.14129441138E+02 -0.89708685688E+01  0.31566085563E+02  0.35728634843E+02  0.51100000000E-03 0. -1.
         23    2    1    0    0    0 -0.13135152284E+02 -0.14294986674E+02 -0.21749072533E+02  0.95846937972E+02  0.91305719936E+02 0.  0.
         11    1    3    3    0    0 -0.27264593422E+02 -0.53241181052E+01 -0.53315158096E+02  0.60118303129E+02  0.51100000000E-03 0.  1.
         22    1    1    0    0    0  0.13135152284E+02  0.14294986674E+02  0.21749072533E+02  0.29153062028E+02  0.00000000000E+00 0.  1.
</event>
<event>
 5    1  0.8778488E-005  0.9118800E+02  0.7818608E-02  0.1130116E+00
         25   -1    0    0    0    0  0.00000000000E+00  0.00000000000E+00  0.99999998245E-14  0.12500000000E+03  0.12500000000E+03 0.  0.
        -11    1    3    3    0    0  0.16923719429E+02 -0.26495816511E+02  0.51276779410E+02  0.60147723804E+02  0.51100000000E-03 0.  1.
         23    2    1    0    0    0 -0.41574099087E+01 -0.13093391230E+02  0.25449657979E+02  0.96079314630E+02  0.91623297569E+02 0.  0.
         11    1    3    3    0    0 -0.21081129338E+02  0.13402425281E+02 -0.25827121431E+02  0.35931590826E+02  0.51100000000E-03 0. -1.
         22    1    1    0    0    0  0.41574099087E+01  0.13093391230E+02 -0.25449657979E+02  0.28920685370E+02  0.00000000000E+00 0.  1.
</event>
<event>
 5    1  0.8778488E-005  0.9118800E+02  0.7818608E-02  0.1130116E+00
         25   -1    0    0    0    0  0.00000000000E+00  0.00000000000E+00  0.99999998245E-14  0.12500000000E+03  0.12500000000E+03 0.  0.
        -11    1    3    3    0    0 -0.26804761773E+02 -0.44657308757E+01 -0.19654620588E+02  0.33537175145E+02  0.51100000000E-03 0. -1.
         23    2    1    0    0    0  0.24112092280E+02  0.11287680701E+02  0.12291558808E+02  0.95676167583E+02  0.91071630575E+02 0.  0.
         11    1    3    3    0    0  0.50916854052E+02  0.15753411577E+02  0.31946179397E+02  0.62138992438E+02  0.51100000000E-03 0.  1.
         22    1    1    0    0    0 -0.24112092280E+02 -0.11287680701E+02 -0.12291558808E+02  0.29323832417E+02  0.00000000000E+00 0.  1.
</event>
<event>
 5    1  0.8778488E-005  0.9118800E+02  0.7818608E-02  0.1130116E+00
         25   -1    0    0    0    0  0.00000000000E+00  0.00000000000E+00  0.99999998245E-14  0.12500000000E+03  0.12500000000E+03 0.  0.
        -11    1    3    3    0    0  0.12181540902E+02  0.25687948116E+02 -0.46522832793E+02  0.54521872569E+02  0.51100000000E-03 0. -1.
         23    2    1    0    0    0  0.15069291419E+02 -0.82524591870E+01 -0.24471088179E+02  0.95099819680E+02  0.90277100751E+02 0.  0.
         11    1    3    3    0    0  0.28877505168E+01 -0.33940407303E+02  0.22051744613E+02  0.40577947111E+02  0.51100000000E-03 0.  1.
         22    1    1    0    0    0 -0.15069291419E+02  0.82524591870E+01  0.24471088179E+02  0.29900180320E+02  0.00000000000E+00 0. -1.
</event>
<event>
 5    1  0.8778488E-005  0.9118800E+02  0.7818608E-02  0.1130116E+00
         25   -1    0    0    0    0  0.00000000000E+00  0.00000000000E+00  0.99999998245E-14  0.12500000000E+03  0.12500000000E+03 0.  0.
        -11    1    3    3    0    0 -0.28778828804E+01 -0.26284830242E+02 -0.25564082233E+02  0.36779026787E+02  0.51100000000E-03 0.  1.
         23    2    1    0    0    0 -0.74484207433E+01  0.28311745402E+02 -0.49880005161E+01  0.95302962296E+02  0.90557940425E+02 0.  0.
         11    1    3    3    0    0 -0.45705378629E+01  0.54596575644E+02  0.20576081717E+02  0.58523935509E+02  0.51100000000E-03 0. -1.
         22    1    1    0    0    0  0.74484207433E+01 -0.28311745402E+02  0.49880005161E+01  0.29697037704E+02  0.00000000000E+00 0. -1.
</event>
<event>
 5    1  0.8778488E-005  0.9118800E+02  0.7818608E-02  0.1130116E+00
         25   -1    0    0    0    0  0.00000000000E+00  0.00000000000E+00  0.99999998245E-14  0.12500000000E+03  0.12500000000E+03 0.  0.
        -11    1    3    3    0    0  0.10474694696E+02 -0.41008863988E+02  0.37262914113E+02  0.56391230906E+02  0.51100000000E-03 0.  1.
         23    2    1    0    0    0  0.22441139281E+02 -0.10383633025E+02  0.16140302167E+02  0.95471472758E+02  0.90790242810E+02 0.  0.
         11    1    3    3    0    0  0.11966444585E+02  0.30625230963E+02 -0.21122611946E+02  0.39080241852E+02  0.51100000000E-03 0. -1.
         22    1    1    0    0    0 -0.22441139281E+02  0.10383633025E+02 -0.16140302167E+02  0.29528527242E+02  0.00000000000E+00 0.  1.
</event>
<event>
 5    1  0.8778488E-005  0.9118800E+02  0.7818608E-02  0.1130116E+00
         25   -1    0    0    0    0  0.00000000000E+00  0.00000000000E+00  0.99999998245E-14  0.12500000000E+03  0.12500000000E+03 0.  0.
        -11    1    3    3    0    0  0.33885252937E+02 -0.68464642350E+01  0.12727176332E+02  0.36838369355E+02  0.51100000000E-03 0.  1.
         23    2    1    0    0    0 -0.51917824064E+01  0.30276691297E+02 -0.56134067696E+01  0.93772720644E+02  0.88420473652E+02 0.  0.
         11    1    3    3    0    0 -0.39077035343E+02  0.37123155532E+02 -0.18340583102E+02  0.56934351288E+02  0.51100000000E-03 0. -1.
         22    1    1    0    0    0  0.51917824064E+01 -0.30276691297E+02  0.56134067696E+01  0.31227279356E+02  0.00000000000E+00 0. -1.
</event>
<event>
 5    1  0.8778488E-005  0.9118800E+02  0.7818608E-02  0.1130116E+00
         25   -1    0    0    0    0  0.00000000000E+00  0.00000000000E+00  0.99999998245E-14  0.12500000000E+03  0.12500000000E+03 0.  0.
        -11    1    3    3    0    0  0.40381057231E+02 -0.69391572038E+01 -0.24191407966E+02  0.47581571070E+02  0.51100000000E-03 0.  1.
         23    2    1    0    0    0  0.25767355392E+02 -0.33701619209E+02 -0.19013592191E+02  0.78510512702E+02  0.63266327344E+02 0.  0.
         11    1    3    3    0    0 -0.14613701839E+02 -0.26762462005E+02  0.51778157757E+01  0.30928941632E+02  0.51100000000E-03 0. -1.
         22    1    1    0    0    0 -0.25767355392E+02  0.33701619209E+02  0.19013592191E+02  0.46489487298E+02  0.00000000000E+00 0.  1.
</event>
<event>
 5    1  0.8778488E-005  0.9118800E+02  0.7818608E-02  0.1130116E+00
         25   -1    0    0    0    0  0.00000000000E+00  0.00000000000E+00  0.99999998245E-14  0.12500000000E+03  0.12500000000E+03 0.  0.
        -11    1    3    3    0    0  0.34540779543E+02  0.25365990812E+02  0.22788186891E+02  0.48536588295E+02  0.51100000000E-03 0.  1.
         23    2    1    0    0    0  0.22125245545E+02  0.70190809165E+00  0.38707636821E+02  0.80409638780E+02  0.66913449284E+02 0.  0.
         11    1    3    3    0    0 -0.12415533998E+02 -0.24664082720E+02  0.15919449930E+02  0.31873050485E+02  0.51100000000E-03 0. -1.
         22    1    1    0    0    0 -0.22125245545E+02 -0.70190809165E+00 -0.38707636821E+02  0.44590361220E+02  0.00000000000E+00 0.  1.
</event>
<event>
 5    1  0.8778488E-005  0.9118800E+02  0.7818608E-02  0.1130116E+00
         25   -1    0    0    0    0  0.00000000000E+00  0.00000000000E+00  0.99999998245E-14  0.12500000000E+03  0.12500000000E+03 0.  0.
        -11    1    3    3    0    0 -0.24294256224E+02  0.29065794045E+01 -0.24191780139E+02  0.34407867064E+02  0.51100000000E-03 0.  1.
         23    2    1    0    0    0  0.20427626543E+01  0.35834052119E+01  0.30028252786E+02  0.94689776682E+02  0.89707548014E+02 0.  0.
         11    1    3    3    0    0  0.26337018878E+02  0.67682580740E+00  0.54220032925E+02  0.60281909619E+02  0.51100000000E-03 0. -1.
         22    1    1    0    0    0 -0.20427626543E+01 -0.35834052119E+01 -0.30028252786E+02  0.30310223318E+02  0.00000000000E+00 0. -1.
</event>
<event>
 5    1  0.8778488E-005  0.9118800E+02  0.7818608E-02  0.1130116E+00
         25   -1    0    0    0    0  0.00000000000E+00  0.00000000000E+00  0.99999998245E-14  0.12500000000E+03  0.12500000000E+03 0.  0.
        -11    1    3    3    0    0 -0.34016659242E+02 -0.51831723789E+01 -0.18690763628E+02  0.39157924194E+02  0.51100000000E-03 0. -1.
         23    2    1    0    0    0  0.19011314865E+02  0.15268459922E+02 -0.15550703424E+02  0.96079759021E+02  0.91623903842E+02 0.  0.
         11    1    3    3    0    0  0.53027974108E+02  0.20451632301E+02  0.31400602042E+01  0.56921834827E+02  0.51100000000E-03 0.  1.
         22    1    1    0    0    0 -0.19011314865E+02 -0.15268459922E+02  0.15550703424E+02  0.28920240979E+02  0.00000000000E+00 0.  1.
</event>
<event>
 5    1  0.8778488E-005  0.9118800E+02  0.7818608E-02  0.1130116E+00
         25   -1    0    0    0    0  0.00000000000E+00  0.00000000000E+00  0.99999998245E-14  0.12500000000E+03  0.12500000000E+03 0.  0.
        -11    1    3    3    0    0  0.12069859997E+02  0.85408237636E+01  0.16811436353E+02  0.22388648539E+02  0.51100000000E-03 0. -1.
         23    2    1    0    0    0 -0.10470309002E+02  0.11221539193E+02 -0.39241884883E+02  0.82863604311E+02  0.71350550648E+02 0.  0.
         11    1    3    3    0    0 -0.22540168999E+02  0.26807154296E+01 -0.56053321236E+02  0.60474955772E+02  0.51100000000E-03 0.  1.
         22    1    1    0    0    0  0.10470309002E+02 -0.11221539193E+02  0.39241884883E+02  0.42136395689E+02  0.00000000000E+00 0.  1.
</event>
<event>
 5    1  0.8778488E-005  0.9118800E+02  0.7818608E-02  0.1130116E+00
         25   -1    0    0    0    0  0.00000000000E+00  0.00000000000E+00  0.99999998245E-14  0.12500000000E+03  0.12500000000E+03 0.  0.
        -11    1    3    3    0    0  0.44416575110E+02  0.40714577504E+02 -0.33893478626E+01  0.60348957282E+02  0.51100000000E-03 0.  1.
         23    2    1    0    0    0  0.29579158131E+02  0.12282775092E+02  0.21735007035E+01  0.92898329249E+02  0.87175583234E+02 0.  0.
         11    1    3    3    0    0 -0.14837416979E+02 -0.28431802412E+02  0.55628485661E+01  0.32549371967E+02  0.51100000000E-03 0. -1.
         22    1    1    0    0    0 -0.29579158131E+02 -0.12282775092E+02 -0.21735007035E+01  0.32101670751E+02  0.00000000000E+00 0.  1.
</event>
<event>
 5    1  0.8778488E-005  0.9118800E+02  0.7818608E-02  0.1130116E+00
         25   -1    0    0    0    0  0.00000000000E+00  0.00000000000E+00  0.99999998245E-14  0.12500000000E+03  0.12500000000E+03 0.  0.
        -11    1    3    3    0    0 -0.70835077573E+01  0.42189653544E+02  0.22110383262E+02  0.48156121071E+02  0.51100000000E-03 0. -1.
         23    2    1    0    0    0  0.35021352747E+01 -0.34391653613E+01  0.29076667186E+02  0.95511945054E+02  0.90845947975E+02 0.  0.
         11    1    3    3    0    0  0.10585643032E+02 -0.45628818906E+02  0.69662839243E+01  0.47355823983E+02  0.51100000000E-03 0.  1.
         22    1    1    0    0    0 -0.35021352747E+01  0.34391653613E+01 -0.29076667186E+02  0.29488054946E+02  0.00000000000E+00 0. -1.
</event>
<event>
 5    1  0.8778488E-005  0.9118800E+02  0.7818608E-02  0.1130116E+00
         25   -1    0    0    0    0  0.00000000000E+00  0.00000000000E+00  0.99999998245E-14  0.12500000000E+03  0.12500000000E+03 0.  0.
        -11    1    3    3    0    0  0.25365202949E+02 -0.81382209213E+01 -0.22828241597E+02  0.35082086242E+02  0.51100000000E-03 0.  1.
         23    2    1    0    0    0 -0.27438215205E+02  0.10995929979E+02 -0.74464660668E+00  0.95431086792E+02  0.90734622378E+02 0.  0.
         11    1    3    3    0    0 -0.52803418154E+02  0.19134150900E+02  0.22083594991E+02  0.60349000550E+02  0.51100000000E-03 0. -1.
         22    1    1    0    0    0  0.27438215205E+02 -0.10995929979E+02  0.74464660668E+00  0.29568913208E+02  0.00000000000E+00 0. -1.
</event>
<event>
 5    1  0.8778488E-005  0.9118800E+02  0.7818608E-02  0.1130116E+00
         25   -1    0    0    0    0  0.00000000000E+00  0.00000000000E+00  0.99999998245E-14  0.12500000000E+03  0.12500000000E+03 0.  0.
        -11    1    3    3    0    0  0.49114376154E+02  0.30891651696E+01 -0.24480085157E+02  0.54963983262E+02  0.51100000000E-03 0. -1.
         23    2    1    0    0    0  0.23101601478E+02  0.18519021091E+02  0.22211089268E+01  0.95308730949E+02  0.90565902729E+02 0.  0.
         11    1    3    3    0    0 -0.26012774676E+02  0.15429855921E+02  0.26701194084E+02  0.40344747687E+02  0.51100000000E-03 0.  1.
         22    1    1    0    0    0 -0.23101601478E+02 -0.18519021091E+02 -0.22211089268E+01  0.29691269051E+02  0.00000000000E+00 0. -1.
</event>
<event>
 5    1  0.8778488E-005  0.9118800E+02  0.7818608E-02  0.1130116E+00
         25   -1    0    0    0    0  0.00000000000E+00  0.00000000000E+00  0.99999998245E-14  0.12500000000E+03  0.12500000000E+03 0.  0.
        -11    1    3    3    0    0 -0.36719699285E+02 -0.35677814871E+01 -0.97707430782E+01  0.38164549007E+02  0.51100000000E-03 0.  1.
         23    2    1    0    0    0  0.16446319060E+02 -0.12323136382E+01  0.19947570416E+02  0.99117465869E+02  0.95678453516E+02 0.  0.
         11    1    3    3    0    0  0.53166018345E+02  0.23354678489E+01  0.29718313495E+02  0.60952916862E+02  0.51100000000E-03 0. -1.
         22    1    1    0    0    0 -0.16446319060E+02  0.12323136382E+01 -0.19947570416E+02  0.25882534131E+02  0.00000000000E+00 0. -1.
</event>
<event>
 5    1  0.8778488E-005  0.9118800E+02  0.7818608E-02  0.1130116E+00
         25   -1    0    0    0    0  0.00000000000E+00  0.00000000000E+00  0.99999998245E-14  0.12500000000E+03  0.12500000000E+03 0.  0.
        -11    1    3    3    0    0 -0.14508146247E+02  0.26591797376E+02 -0.15800489636E+02  0.34165266986E+02  0.51100000000E-03 0. -1.
         23    2    1    0    0    0 -0.67834209650E+01 -0.17163387051E+02  0.24619264429E+02  0.94231431037E+02  0.89066591712E+02 0.  0.
         11    1    3    3    0    0  0.77247252819E+01 -0.43755184426E+02  0.40419754065E+02  0.60066164051E+02  0.51100000000E-03 0.  1.
         22    1    1    0    0    0  0.67834209650E+01  0.17163387051E+02 -0.24619264429E+02  0.30768568963E+02  0.00000000000E+00 0.  1.
</event>
<event>
 5    1  0.8778488E-005  0.9118800E+02  0.7818608E-02  0.1130116E+00
         25   -1    0    0    0    0  0.00000000000E+00  0.00000000000E+00  0.99999998245E-14  0.12500000000E+03  0.12500000000E+03 0.  0.
        -11    1    3    3    0    0 -0.26097370617E+02 -0.30586410203E+01  0.46394259135E+02  0.53318433201E+02  0.51100000000E-03 0.  1.
         23    2    1    0    0    0  0.10676777982E+02  0.44748069512E+01  0.27113663065E+02  0.95518341123E+02  0.90854748256E+02 0.  0.
         11    1    3    3    0    0  0.36774148599E+02  0.75334479716E+01 -0.19280596070E+02  0.42199907922E+02  0.51100000000E-03 0. -1.
         22    1    1    0    0    0 -0.10676777982E+02 -0.44748069512E+01 -0.27113663065E+02  0.29481658877E+02  0.00000000000E+00 0.  1.
</event>
<event>
 5    1  0.8778488E-005  0.9118800E+02  0.7818608E-02  0.1130116E+00
         25   -1    0    0    0    0  0.00000000000E+00  0.00000000000E+00  0.99999998245E-14  0.12500000000E+03  0.12500000000E+03 0.  0.
        -11    1    3    3    0    0  0.30826347980E+02  0.78882250326E+01  0.15024204757E+01  0.31855063828E+02  0.51100000000E-03 0. -1.
         23    2    1    0    0    0 -0.25676186040E+02  0.79193119821E+01  0.20214511382E+02  0.91375477665E+02  0.84963930090E+02 0.  0.
         11    1    3    3    0    0 -0.56502534020E+02  0.31086949478E-01  0.18712090906E+02  0.59520413838E+02  0.51100000000E-03 0.  1.
         22    1    1    0    0    0  0.25676186040E+02 -0.79193119821E+01 -0.20214511382E+02  0.33624522335E+02  0.00000000000E+00 0.  1.
</event>
<event>
 5    1  0.8778488E-005  0.9118800E+02  0.7818608E-02  0.1130116E+00
         25   -1    0    0    0    0  0.00000000000E+00  0.00000000000E+00  0.99999998245E-14  0.12500000000E+03  0.12500000000E+03 0.  0.
        -11    1    3    3    0    0  0.15313565386E+02  0.10208123775E+02  0.46104700452E+02  0.49642265055E+02  0.51100000000E-03 0. -1.
         23    2    1    0    0    0  0.41516966167E+01 -0.23468871531E+02  0.14890345254E+02  0.96897564207E+02  0.92732901668E+02 0.  0.
         11    1    3    3    0    0 -0.11161868769E+02 -0.33676995306E+02 -0.31214355197E+02  0.47255299151E+02  0.51100000000E-03 0.  1.
         22    1    1    0    0    0 -0.41516966167E+01  0.23468871531E+02 -0.14890345254E+02  0.28102435793E+02  0.00000000000E+00 0. -1.
</event>
<event>
 5    1  0.8778488E-005  0.9118800E+02  0.7818608E-02  0.1130116E+00
         25   -1    0    0    0    0  0.00000000000E+00  0.00000000000E+00  0.99999998245E-14  0.12500000000E+03  0.12500000000E+03 0.  0.
        -11    1    3    3    0    0  0.18759804072E+02 -0.72858295924E+00  0.50567479286E+02  0.53940068999E+02  0.51100000000E-03 0.  1.
         23    2    1    0    0    0 -0.37487244295E+01  0.19322663795E+02  0.22160655410E+02  0.95360281391E+02  0.90637025259E+02 0.  0.
         11    1    3    3    0    0 -0.22508528501E+02  0.20051246754E+02 -0.28406823876E+02  0.41420212393E+02  0.51100000000E-03 0. -1.
         22    1    1    0    0    0  0.37487244295E+01 -0.19322663795E+02 -0.22160655410E+02  0.29639718609E+02  0.00000000000E+00 0.  1.
</event>
<event>
 5    1  0.8778488E-005  0.9118800E+02  0.7818608E-02  0.1130116E+00
         25   -1    0    0    0    0  0.00000000000E+00  0.00000000000E+00  0.99999998245E-14  0.12500000000E+03  0.12500000000E+03 0.  0.
        -11    1    3    3    0    0 -0.22098942716E+00 -0.54802790392E+02  0.20891533946E+02  0.58650241790E+02  0.51100000000E-03 0.  1.
         23    2    1    0    0    0 -0.98397185765E+01 -0.27782338298E+02 -0.21609327834E+01  0.95447537945E+02  0.90757283379E+02 0.  0.
         11    1    3    3    0    0 -0.96187291494E+01  0.27020452094E+02 -0.23052466729E+02  0.36797296156E+02  0.51100000000E-03 0. -1.
         22    1    1    0    0    0  0.98397185765E+01  0.27782338298E+02  0.21609327834E+01  0.29552462055E+02  0.00000000000E+00 0.  1.
</event>
<event>
 5    1  0.8778488E-005  0.9118800E+02  0.7818608E-02  0.1130116E+00
         25   -1    0    0    0    0  0.00000000000E+00  0.00000000000E+00  0.99999998245E-14  0.12500000000E+03  0.12500000000E+03 0.  0.
        -11    1    3    3    0    0  0.19796151216E+01  0.45464694491E+02  0.17803074145E+02  0.48866212975E+02  0.51100000000E-03 0.  1.
         23    2    1    0    0    0  0.21861605990E+02  0.14721777487E+02 -0.11967116747E+02  0.96053973812E+02  0.91588719027E+02 0.  0.
         11    1    3    3    0    0  0.19881990869E+02 -0.30742917004E+02 -0.29770190892E+02  0.47187760837E+02  0.51100000000E-03 0. -1.
         22    1    1    0    0    0 -0.21861605990E+02 -0.14721777487E+02  0.11967116747E+02  0.28946026188E+02  0.00000000000E+00 0.  1.
</event>
<event>
 4    1  0.8778488E-005  0.9118800E+02  0.7818608E-02  0.1130116E+00
         25   -1    0    0    0    0  0.00000000000E+00  0.00000000000E+00  0.99999998245E-14  0.12500000000E+03  0.12500000000E+03 0.  0.
        -11    1    1    0    0    0  0.24230023776E+00 -0.12831935846E+02  0.25037029429E+02  0.28134856137E+02  0.51100000000E-03 0. -1.
         11    1    1    0    0    0  0.23506787070E+02 -0.33591858204E+02 -0.15627750787E+02  0.43877198758E+02  0.51100000000E-03 0.  1.
         22    1    1    0    0    0 -0.23749087307E+02  0.46423794050E+02 -0.94092786421E+01  0.52987945105E+02  0.00000000000E+00 0.  1.
</event>
<event>
 5    1  0.8778488E-005  0.9118800E+02  0.7818608E-02  0.1130116E+00
         25   -1    0    0    0    0  0.00000000000E+00  0.00000000000E+00  0.99999998245E-14  0.12500000000E+03  0.12500000000E+03 0.  0.
        -11    1    3    3    0    0 -0.16735266069E+02 -0.54712785727E+01 -0.34392650536E+02  0.38637526199E+02  0.51100000000E-03 0.  1.
         23    2    1    0    0    0 -0.11155696700E+02 -0.13336384786E+02  0.22625523733E+02  0.96465406044E+02  0.92148529619E+02 0.  0.
         11    1    3    3    0    0  0.55795693689E+01 -0.78651062134E+01  0.57018174269E+02  0.57827879845E+02  0.51100000000E-03 0. -1.
         22    1    1    0    0    0  0.11155696700E+02  0.13336384786E+02 -0.22625523733E+02  0.28534593956E+02  0.00000000000E+00 0. -1.
</event>
<event>
 5    1  0.8778488E-005  0.9118800E+02  0.7818608E-02  0.1130116E+00
         25   -1    0    0    0    0  0.00000000000E+00  0.00000000000E+00  0.99999998245E-14  0.12500000000E+03  0.12500000000E+03 0.  0.
        -11    1    3    3    0    0 -0.12796912066E+02 -0.18399213195E+02 -0.28227976727E+02  0.36043177926E+02  0.51100000000E-03 0. -1.
         23    2    1    0    0    0  0.76028899917E+01  0.63545797305E+00  0.26473328266E+02  0.97449231362E+02  0.93473567604E+02 0.  0.
         11    1    3    3    0    0  0.20399802058E+02  0.19034671168E+02  0.54701304993E+02  0.61406053437E+02  0.51100000000E-03 0.  1.
         22    1    1    0    0    0 -0.76028899917E+01 -0.63545797305E+00 -0.26473328266E+02  0.27550768638E+02  0.00000000000E+00 0.  1.
</event>
<event>
 5    1  0.8778488E-005  0.9118800E+02  0.7818608E-02  0.1130116E+00
         25   -1    0    0    0    0  0.00000000000E+00  0.00000000000E+00  0.99999998245E-14  0.12500000000E+03  0.12500000000E+03 0.  0.
        -11    1    3    3    0    0  0.32050405343E+02 -0.40872563276E+02  0.15968881496E+02  0.54339673240E+02  0.51100000000E-03 0. -1.
         23    2    1    0    0    0  0.27102129944E+02 -0.77653696149E-01  0.11068344249E+02  0.95724759233E+02  0.91138300446E+02 0.  0.
         11    1    3    3    0    0 -0.49482753990E+01  0.40794909579E+02 -0.49005372475E+01  0.41385085992E+02  0.51100000000E-03 0.  1.
         22    1    1    0    0    0 -0.27102129944E+02  0.77653696149E-01 -0.11068344249E+02  0.29275240767E+02  0.00000000000E+00 0. -1.
</event>
<event>
 5    1  0.8778488E-005  0.9118800E+02  0.7818608E-02  0.1130116E+00
         25   -1    0    0    0    0  0.00000000000E+00  0.00000000000E+00  0.99999998245E-14  0.12500000000E+03  0.12500000000E+03 0.  0.
        -11    1    3    3    0    0  0.61687622262E+01 -0.34597993723E+02  0.21932834001E+02  0.41426127077E+02  0.51100000000E-03 0.  1.
         23    2    1    0    0    0  0.80410519281E+01  0.22296820450E+02  0.72190601019E+01  0.10022255972E+03  0.97111481963E+02 0.  0.
         11    1    3    3    0    0  0.18722897019E+01  0.56894814172E+02 -0.14713773899E+02  0.58796432639E+02  0.51100000000E-03 0. -1.
         22    1    1    0    0    0 -0.80410519281E+01 -0.22296820450E+02 -0.72190601019E+01  0.24777440284E+02  0.00000000000E+00 0. -1.
</event>
<event>
 5    1  0.8778488E-005  0.9118800E+02  0.7818608E-02  0.1130116E+00
         25   -1    0    0    0    0  0.00000000000E+00  0.00000000000E+00  0.99999998245E-14  0.12500000000E+03  0.12500000000E+03 0.  0.
        -11    1    3    3    0    0 -0.43371971291E+02  0.29774777188E+01 -0.31425805717E+02  0.53643028740E+02  0.51100000000E-03 0. -1.
         23    2    1    0    0    0 -0.25711653008E+02 -0.11078643551E+02  0.50633175414E+01  0.96548943291E+02  0.92261778775E+02 0.  0.
         11    1    3    3    0    0  0.17660318283E+02 -0.14056121270E+02  0.36489123258E+02  0.42905914550E+02  0.51100000000E-03 0.  1.
         22    1    1    0    0    0  0.25711653008E+02  0.11078643551E+02 -0.50633175414E+01  0.28451056709E+02  0.00000000000E+00 0. -1.
</event>
<event>
 5    1  0.8778488E-005  0.9118800E+02  0.7818608E-02  0.1130116E+00
         25   -1    0    0    0    0  0.00000000000E+00  0.00000000000E+00  0.99999998245E-14  0.12500000000E+03  0.12500000000E+03 0.  0.
        -11    1    3    3    0    0  0.80271743980E+01  0.29499674702E+02 -0.29886402304E+02  0.42753518911E+02  0.51100000000E-03 0.  1.
         23    2    1    0    0    0  0.37468432234E+01 -0.23283500288E+02 -0.74344429779E+01  0.10027286587E+03  0.97176213489E+02 0.  0.
         11    1    3    3    0    0 -0.42803311745E+01 -0.52783174990E+02  0.22451959326E+02  0.57519346961E+02  0.51100000000E-03 0. -1.
         22    1    1    0    0    0 -0.37468432234E+01  0.23283500288E+02  0.74344429779E+01  0.24727134128E+02  0.00000000000E+00 0. -1.
</event>
<event>
 5    1  0.8778488E-005  0.9118800E+02  0.7818608E-02  0.1130116E+00
         25   -1    0    0    0    0  0.00000000000E+00  0.00000000000E+00  0.99999998245E-14  0.12500000000E+03  0.12500000000E+03 0.  0.
        -11    1    3    3    0    0 -0.58532696654E+02 -0.84908123157E+01  0.75621120222E+01  0.59626806135E+02  0.51100000000E-03 0.  1.
         23    2    1    0    0    0 -0.24537125780E+02 -0.56157815396E+01  0.16509305599E+02  0.94897430090E+02  0.89996430610E+02 0.  0.
         11    1    3    3    0    0  0.33995570874E+02  0.28750307761E+01  0.89471935768E+01  0.35270623955E+02  0.51100000000E-03 0. -1.
         22    1    1    0    0    0  0.24537125780E+02  0.56157815396E+01 -0.16509305599E+02  0.30102569910E+02  0.00000000000E+00 0.  1.
</event>
<event>
 5    1  0.8778488E-005  0.9118800E+02  0.7818608E-02  0.1130116E+00
         25   -1    0    0    0    0  0.00000000000E+00  0.00000000000E+00  0.99999998245E-14  0.12500000000E+03  0.12500000000E+03 0.  0.
        -11    1    3    3    0    0 -0.58677032403E+01  0.42304135149E+02 -0.31005486033E+01  0.42821527225E+02  0.51100000000E-03 0. -1.
         23    2    1    0    0    0  0.25628158994E+02  0.53599728873E+01  0.15224855703E+02  0.94712575647E+02  0.89739310850E+02 0.  0.
         11    1    3    3    0    0  0.31495862234E+02 -0.36944162261E+02  0.18325404306E+02  0.51891048422E+02  0.51100000000E-03 0.  1.
         22    1    1    0    0    0 -0.25628158994E+02 -0.53599728873E+01 -0.15224855703E+02  0.30287424353E+02  0.00000000000E+00 0.  1.
</event>
<event>
 4    1  0.8778488E-005  0.9118800E+02  0.7818608E-02  0.1130116E+00
         25   -1    0    0    0    0  0.00000000000E+00  0.00000000000E+00  0.99999998245E-14  0.12500000000E+03  0.12500000000E+03 0.  0.
        -11    1    1    0    0    0  0.37067840894E+01  0.12599127793E+02 -0.16931576664E+02  0.21427938725E+02  0.51100000000E-03 0.  1.
         11    1    1    0    0    0  0.47561584515E+02  0.57198969795E+00 -0.13122540574E+01  0.47583122057E+02  0.51100000000E-03 0. -1.
         22    1    1    0    0    0 -0.51268368604E+02 -0.13171117491E+02  0.18243830722E+02  0.55988939217E+02  0.00000000000E+00 0. -1.
</event>
<event>
 5    1  0.8778488E-005  0.9118800E+02  0.7818608E-02  0.1130116E+00
         25   -1    0    0    0    0  0.00000000000E+00  0.00000000000E+00  0.99999998245E-14  0.12500000000E+03  0.12500000000E+03 0.  0.
        -11    1    3    3    0    0 -0.33475004352E+02  0.23133425695E+02  0.97594563236E+00  0.40702380408E+02  0.51100000000E-03 0.  1.
         23    2    1    0    0    0 -0.21270187833E+01 -0.12301898689E+02  0.27397974356E+02  0.94891696842E+02  0.89988467097E+02 0.  0.
         11    1    3    3    0    0  0.31347985569E+02 -0.35435324384E+02  0.26422028724E+02  0.54189316434E+02  0.51100000000E-03 0. -1.
         22    1    1    0    0    0  0.21270187833E+01  0.12301898689E+02 -0.27397974356E+02  0.30108303158E+02  0.00000000000E+00 0. -1.
</event>
<event>
 5    1  0.8778488E-005  0.9118800E+02  0.7818608E-02  0.1130116E+00
         25   -1    0    0    0    0  0.00000000000E+00  0.00000000000E+00  0.99999998245E-14  0.12500000000E+03  0.12500000000E+03 0.  0.
        -11    1    3    3    0    0  0.18850214293E+02 -0.10110548471E+02  0.54211132681E+02  0.58278646828E+02  0.51100000000E-03 0.  1.
         23    2    1    0    0    0 -0.17043572229E+01 -0.17068233581E+02  0.22390583055E+02  0.96794191367E+02  0.92593454637E+02 0.  0.
         11    1    3    3    0    0 -0.20554571516E+02 -0.69576851104E+01 -0.31820549626E+02  0.38515544538E+02  0.51100000000E-03 0. -1.
         22    1    1    0    0    0  0.17043572229E+01  0.17068233581E+02 -0.22390583055E+02  0.28205808633E+02  0.00000000000E+00 0.  1.
</event>
<event>
 5    1  0.8778488E-005  0.9118800E+02  0.7818608E-02  0.1130116E+00
         25   -1    0    0    0    0  0.00000000000E+00  0.00000000000E+00  0.99999998245E-14  0.12500000000E+03  0.12500000000E+03 0.  0.
        -11    1    3    3    0    0  0.16109159389E+02  0.28034893849E+02 -0.94548928219E+01  0.33687613271E+02  0.51100000000E-03 0.  1.
         23    2    1    0    0    0  0.38190115026E+01 -0.30412566723E+02  0.10526514502E+01  0.94330517797E+02  0.89205546068E+02 0.  0.
         11    1    3    3    0    0 -0.12290147886E+02 -0.58447460572E+02  0.10507544272E+02  0.60642904526E+02  0.51100000000E-03 0. -1.
         22    1    1    0    0    0 -0.38190115026E+01  0.30412566723E+02 -0.10526514502E+01  0.30669482203E+02  0.00000000000E+00 0. -1.
</event>
<event>
 5    1  0.8778488E-005  0.9118800E+02  0.7818608E-02  0.1130116E+00
         25   -1    0    0    0    0  0.00000000000E+00  0.00000000000E+00  0.99999998245E-14  0.12500000000E+03  0.12500000000E+03 0.  0.
        -11    1    3    3    0    0 -0.86764859748E+01  0.48226528096E+02  0.37267221164E+02  0.61562368331E+02  0.51100000000E-03 0. -1.
         23    2    1    0    0    0  0.19738784215E+01  0.25315552828E+02  0.13536751109E+02  0.96224714743E+02  0.91821450031E+02 0.  0.
         11    1    3    3    0    0  0.10650364396E+02 -0.22910975267E+02 -0.23730470055E+02  0.34662346412E+02  0.51100000000E-03 0.  1.
         22    1    1    0    0    0 -0.19738784215E+01 -0.25315552828E+02 -0.13536751109E+02  0.28775285257E+02  0.00000000000E+00 0. -1.
</event>
<event>
 5    1  0.8778488E-005  0.9118800E+02  0.7818608E-02  0.1130116E+00
         25   -1    0    0    0    0  0.00000000000E+00  0.00000000000E+00  0.99999998245E-14  0.12500000000E+03  0.12500000000E+03 0.  0.
        -11    1    3    3    0    0 -0.20990107310E+02  0.23293389261E+01 -0.55712386473E+02  0.59580873034E+02  0.51100000000E-03 0.  1.
         23    2    1    0    0    0 -0.11011160086E+02 -0.12259807615E+02 -0.23983343950E+02  0.95901042695E+02  0.91379760745E+02 0.  0.
         11    1    3    3    0    0  0.99789472237E+01 -0.14589146541E+02  0.31729042523E+02  0.36320169661E+02  0.51100000000E-03 0. -1.
         22    1    1    0    0    0  0.11011160086E+02  0.12259807615E+02  0.23983343950E+02  0.29098957305E+02  0.00000000000E+00 0.  1.
</event>
<event>
 5    1  0.8778488E-005  0.9118800E+02  0.7818608E-02  0.1130116E+00
         25   -1    0    0    0    0  0.00000000000E+00  0.00000000000E+00  0.99999998245E-14  0.12500000000E+03  0.12500000000E+03 0.  0.
        -11    1    3    3    0    0 -0.36093125016E+02 -0.10815777626E+02  0.19198834166E+02  0.42288177457E+02  0.51100000000E-03 0.  1.
         23    2    1    0    0    0 -0.14281248484E+02 -0.26561220797E+00 -0.26999642725E+02  0.94454864293E+02  0.89379617773E+02 0.  0.
         11    1    3    3    0    0  0.21811876531E+02  0.10550165418E+02 -0.46198476891E+02  0.52166686836E+02  0.51100000000E-03 0. -1.
         22    1    1    0    0    0  0.14281248484E+02  0.26561220797E+00  0.26999642725E+02  0.30545135707E+02  0.00000000000E+00 0. -1.
</event>
<event>
 5    1  0.8778488E-005  0.9118800E+02  0.7818608E-02  0.1130116E+00
         25   -1    0    0    0    0  0.00000000000E+00  0.00000000000E+00  0.99999998245E-14  0.12500000000E+03  0.12500000000E+03 0.  0.
        -11    1    3    3    0    0 -0.29806358731E+02 -0.27638691630E+00  0.10548885891E+02  0.31619209420E+02  0.51100000000E-03 0.  1.
         23    2    1    0    0    0  0.13452561889E+02 -0.31940599254E+02 -0.98359475292E+01  0.88973354779E+02  0.81353172617E+02 0.  0.
         11    1    3    3    0    0  0.43258920620E+02 -0.31664212337E+02 -0.20384833420E+02  0.57354145360E+02  0.51100000000E-03 0. -1.
         22    1    1    0    0    0 -0.13452561889E+02  0.31940599254E+02  0.98359475292E+01  0.36026645221E+02  0.00000000000E+00 0. -1.
</event>
<event>
 5    1  0.8778488E-005  0.9118800E+02  0.7818608E-02  0.1130116E+00
         25   -1    0    0    0    0  0.00000000000E+00  0.00000000000E+00  0.99999998245E-14  0.12500000000E+03  0.12500000000E+03 0.  0.
        -11    1    3    3    0    0 -0.25343364337E+02 -0.43651152601E+02  0.35667592676E+02  0.61805229607E+02  0.51100000000E-03 0.  1.
         23    2    1    0    0    0 -0.15968659607E+02 -0.15062784122E+02  0.17253075244E+02  0.97079502860E+02  0.92977823781E+02 0.  0.
         11    1    3    3    0    0  0.93747047302E+01  0.28588368478E+02 -0.18414517432E+02  0.35274273253E+02  0.51100000000E-03 0. -1.
         22    1    1    0    0    0  0.15968659607E+02  0.15062784122E+02 -0.17253075244E+02  0.27920497140E+02  0.00000000000E+00 0.  1.
</event>
<event>
 5    1  0.8778488E-005  0.9118800E+02  0.7818608E-02  0.1130116E+00
         25   -1    0    0    0    0  0.00000000000E+00  0.00000000000E+00  0.99999998245E-14  0.12500000000E+03  0.12500000000E+03 0.  0.
        -11    1    3    3    0    0  0.59317830598E+01  0.58819160384E+02 -0.18408346629E+02  0.61917258535E+02  0.51100000000E-03 0.  1.
         23    2    1    0    0    0  0.82925463515E+01  0.26523776193E+02 -0.61766867646E+01  0.96531974289E+02  0.92238785618E+02 0.  0.
         11    1    3    3    0    0  0.23607632917E+01 -0.32295384192E+02  0.12231659865E+02  0.34614715754E+02  0.51100000000E-03 0. -1.
         22    1    1    0    0    0 -0.82925463515E+01 -0.26523776193E+02  0.61766867646E+01  0.28468025711E+02  0.00000000000E+00 0.  1.
</event>
<event>
 5    1  0.8778488E-005  0.9118800E+02  0.7818608E-02  0.1130116E+00
         25   -1    0    0    0    0  0.00000000000E+00  0.00000000000E+00  0.99999998245E-14  0.12500000000E+03  0.12500000000E+03 0.  0.
        -11    1    3    3    0    0  0.28437008891E+02  0.19910881794E+02 -0.74440551918E+01  0.35503811717E+02  0.51100000000E-03 0. -1.
         23    2    1    0    0    0  0.19875176557E+01 -0.30699445747E+02  0.46818971266E+01  0.93882057326E+02  0.88574908024E+02 0.  0.
         11    1    3    3    0    0 -0.26449491235E+02 -0.50610327541E+02  0.12125952318E+02  0.58378245608E+02  0.51100000000E-03 0.  1.
         22    1    1    0    0    0 -0.19875176557E+01  0.30699445747E+02 -0.46818971266E+01  0.31117942674E+02  0.00000000000E+00 0.  1.
</event>
<event>
 5    1  0.8778488E-005  0.9118800E+02  0.7818608E-02  0.1130116E+00
         25   -1    0    0    0    0  0.00000000000E+00  0.00000000000E+00  0.99999998245E-14  0.12500000000E+03  0.12500000000E+03 0.  0.
        -11    1    3    3    0    0 -0.32329499661E+02 -0.14693873949E+02  0.16717299221E+02  0.39250153802E+02  0.51100000000E-03 0.  1.
         23    2    1    0    0    0  0.23256410188E+02 -0.13985533843E+02  0.12846577334E+02  0.94975171592E+02  0.90104344502E+02 0.  0.
         11    1    3    3    0    0  0.55585909850E+02  0.70834010595E+00 -0.38707218874E+01  0.55725017790E+02  0.51100000000E-03 0. -1.
         22    1    1    0    0    0 -0.23256410188E+02  0.13985533843E+02 -0.12846577334E+02  0.30024828408E+02  0.00000000000E+00 0. -1.
</event>
<event>
 5    1  0.8778488E-005  0.9118800E+02  0.7818608E-02  0.1130116E+00
         25   -1    0    0    0    0  0.00000000000E+00  0.00000000000E+00  0.99999998245E-14  0.12500000000E+03  0.12500000000E+03 0.  0.
        -11    1    3    3    0    0  0.28036508629E+02 -0.45541049728E+02 -0.14534279267E+02  0.55419114938E+02  0.51100000000E-03 0. -1.
         23    2    1    0    0    0  0.26727105801E+02 -0.11230230025E+02  0.59557054045E+01  0.95403941516E+02  0.90697218144E+02 0.  0.
         11    1    3    3    0    0 -0.13094028281E+01  0.34310819703E+02  0.20489984671E+02  0.39984826579E+02  0.51100000000E-03 0.  1.
         22    1    1    0    0    0 -0.26727105801E+02  0.11230230025E+02 -0.59557054045E+01  0.29596058484E+02  0.00000000000E+00 0. -1.
</event>
<event>
 5    1  0.8778488E-005  0.9118800E+02  0.7818608E-02  0.1130116E+00
         25   -1    0    0    0    0  0.00000000000E+00  0.00000000000E+00  0.99999998245E-14  0.12500000000E+03  0.12500000000E+03 0.  0.
        -11    1    3    3    0    0  0.34660026094E+02 -0.14875314694E+02  0.20915362223E+02  0.43128236380E+02  0.51100000000E-03 0.  1.
         23    2    1    0    0    0 -0.25600943635E+01  0.36212509642E+01 -0.21815361587E+02  0.10273842901E+03  0.10029759346E+03 0.  0.
         11    1    3    3    0    0 -0.37220120458E+02  0.18496565659E+02 -0.42730723810E+02  0.59610192632E+02  0.51100000000E-03 0. -1.
         22    1    1    0    0    0  0.25600943635E+01 -0.36212509642E+01  0.21815361587E+02  0.22261570988E+02  0.00000000000E+00 0. -1.
</event>
<event>
 5    1  0.8778488E-005  0.9118800E+02  0.7818608E-02  0.1130116E+00
         25   -1    0    0    0    0  0.00000000000E+00  0.00000000000E+00  0.99999998245E-14  0.12500000000E+03  0.12500000000E+03 0.  0.
        -11    1    3    3    0    0 -0.88606311290E+01  0.36119731534E+02  0.54731027513E+01  0.37591230947E+02  0.51100000000E-03 0.  1.
         23    2    1    0    0    0 -0.21205986702E+02 -0.20130279832E+02  0.58509580110E+01  0.95181285277E+02  0.90389829733E+02 0.  0.
         11    1    3    3    0    0 -0.12345355573E+02 -0.56250011366E+02  0.37785525972E+00  0.57590054330E+02  0.51100000000E-03 0. -1.
         22    1    1    0    0    0  0.21205986702E+02  0.20130279832E+02 -0.58509580110E+01  0.29818714723E+02  0.00000000000E+00 0. -1.
</event>
<event>
 5    1  0.8778488E-005  0.9118800E+02  0.7818608E-02  0.1130116E+00
         25   -1    0    0    0    0  0.00000000000E+00  0.00000000000E+00  0.99999998245E-14  0.12500000000E+03  0.12500000000E+03 0.  0.
        -11    1    3    3    0    0  0.11407532025E+02 -0.40851611140E+02  0.14164598299E+02  0.44717130552E+02  0.51100000000E-03 0. -1.
         23    2    1    0    0    0 -0.21986572252E+02 -0.23805560785E+01  0.18939381175E+02  0.95883397074E+02  0.91355619797E+02 0.  0.
         11    1    3    3    0    0 -0.33394104277E+02  0.38471055061E+02  0.47747828764E+01  0.51166266522E+02  0.51100000000E-03 0.  1.
         22    1    1    0    0    0  0.21986572252E+02  0.23805560785E+01 -0.18939381175E+02  0.29116602926E+02  0.00000000000E+00 0.  1.
</event>
<event>
 5    1  0.8778488E-005  0.9118800E+02  0.7818608E-02  0.1130116E+00
         25   -1    0    0    0    0  0.00000000000E+00  0.00000000000E+00  0.99999998245E-14  0.12500000000E+03  0.12500000000E+03 0.  0.
        -11    1    3    3    0    0 -0.19776179299E+02  0.19495113284E+02  0.18328000185E+02  0.33272696023E+02  0.51100000000E-03 0.  1.
         23    2    1    0    0    0  0.13975275184E+02 -0.18642007316E+02 -0.17771728131E+02  0.95696978415E+02  0.91100189922E+02 0.  0.
         11    1    3    3    0    0  0.33751454484E+02 -0.38137120600E+02 -0.36099728315E+02  0.62424282392E+02  0.51100000000E-03 0. -1.
         22    1    1    0    0    0 -0.13975275184E+02  0.18642007316E+02  0.17771728131E+02  0.29303021585E+02  0.00000000000E+00 0. -1.
</event>
<event>
 5    1  0.8778488E-005  0.9118800E+02  0.7818608E-02  0.1130116E+00
         25   -1    0    0    0    0  0.00000000000E+00  0.00000000000E+00  0.99999998245E-14  0.12500000000E+03  0.12500000000E+03 0.  0.
        -11    1    3    3    0    0  0.28335398104E+02  0.13098072936E+02  0.13418854982E+02  0.33978227877E+02  0.51100000000E-03 0.  1.
         23    2    1    0    0    0 -0.22228923931E+02 -0.84376933273E+01 -0.16024483902E+02  0.96327647251E+02  0.91961469175E+02 0.  0.
         11    1    3    3    0    0 -0.50564322035E+02 -0.21535766263E+02 -0.29443338885E+02  0.62349419374E+02  0.51100000000E-03 0. -1.
         22    1    1    0    0    0  0.22228923931E+02  0.84376933273E+01  0.16024483902E+02  0.28672352749E+02  0.00000000000E+00 0. -1.
</event>
<event>
 5    1  0.8778488E-005  0.9118800E+02  0.7818608E-02  0.1130116E+00
         25   -1    0    0    0    0  0.00000000000E+00  0.00000000000E+00  0.99999998245E-14  0.12500000000E+03  0.12500000000E+03 0.  0.
        -11    1    3    3    0    0 -0.24483661570E+02  0.24067466559E+02  0.16208361957E+02  0.37965821840E+02  0.51100000000E-03 0. -1.
         23    2    1    0    0    0 -0.38018310276E+01 -0.28433354292E+02  0.15223060297E+01  0.96273235979E+02  0.91887480076E+02 0.  0.
         11    1    3    3    0    0  0.20681830542E+02 -0.52500820851E+02 -0.14686055928E+02  0.58307414139E+02  0.51100000000E-03 0.  1.
         22    1    1    0    0    0  0.38018310276E+01  0.28433354292E+02 -0.15223060297E+01  0.28726764021E+02  0.00000000000E+00 0.  1.
</event>
<event>
 5    1  0.8778488E-005  0.9118800E+02  0.7818608E-02  0.1130116E+00
         25   -1    0    0    0    0  0.00000000000E+00  0.00000000000E+00  0.99999998245E-14  0.12500000000E+03  0.12500000000E+03 0.  0.
        -11    1    3    3    0    0  0.21528674075E+01 -0.13987907748E+01  0.37437033763E+02  0.37524964370E+02  0.51100000000E-03 0. -1.
         23    2    1    0    0    0 -0.14627504538E+02  0.17115508539E+02 -0.16578632066E+02  0.97040107963E+02  0.92924845928E+02 0.  0.
         11    1    3    3    0    0 -0.16780371945E+02  0.18514299313E+02 -0.54015665829E+02  0.59515143593E+02  0.51100000000E-03 0.  1.
         22    1    1    0    0    0  0.14627504538E+02 -0.17115508539E+02  0.16578632066E+02  0.27959892037E+02  0.00000000000E+00 0.  1.
</event>
<event>
 5    1  0.8778488E-005  0.9118800E+02  0.7818608E-02  0.1130116E+00
         25   -1    0    0    0    0  0.00000000000E+00  0.00000000000E+00  0.99999998245E-14  0.12500000000E+03  0.12500000000E+03 0.  0.
        -11    1    3    3    0    0 -0.27605944595E+02 -0.39510344113E+02  0.12718989393E+02  0.49849053756E+02  0.51100000000E-03 0.  1.
         23    2    1    0    0    0 -0.19327184686E+01 -0.32524134826E+01  0.27935393151E+02  0.96809579913E+02  0.92614226652E+02 0.  0.
         11    1    3    3    0    0  0.25673226126E+02  0.36257930631E+02  0.15216403759E+02  0.46960526157E+02  0.51100000000E-03 0. -1.
         22    1    1    0    0    0  0.19327184686E+01  0.32524134826E+01 -0.27935393151E+02  0.28190420087E+02  0.00000000000E+00 0. -1.
</event>
<event>
 5    1  0.8778488E-005  0.9118800E+02  0.7818608E-02  0.1130116E+00
         25   -1    0    0    0    0  0.00000000000E+00  0.00000000000E+00  0.99999998245E-14  0.12500000000E+03  0.12500000000E+03 0.  0.
        -11    1    3    3    0    0 -0.28683124372E+02 -0.16865491999E+02  0.21078690180E+02  0.39388800744E+02  0.51100000000E-03 0. -1.
         23    2    1    0    0    0  0.21043406506E+02  0.50319844739E+00 -0.11191194985E+02  0.10116051571E+03  0.98311387577E+02 0.  0.
         11    1    3    3    0    0  0.49726530878E+02  0.17368690447E+02 -0.32269885164E+02  0.61771714965E+02  0.51100000000E-03 0.  1.
         22    1    1    0    0    0 -0.21043406506E+02 -0.50319844739E+00  0.11191194985E+02  0.23839484290E+02  0.00000000000E+00 0.  1.
</event>
<event>
 5    1  0.8778488E-005  0.9118800E+02  0.7818608E-02  0.1130116E+00
         25   -1    0    0    0    0  0.00000000000E+00  0.00000000000E+00  0.99999998245E-14  0.12500000000E+03  0.12500000000E+03 0.  0.
        -11    1    3    3    0    0 -0.57025756957E+02 -0.18442759092E+02 -0.97800415643E+01  0.60726613051E+02  0.51100000000E-03 0.  1.
         23    2    1    0    0    0 -0.27325954909E+02 -0.74399708260E+01  0.59052856114E+01  0.96070199175E+02  0.91610860676E+02 0.  0.
         11    1    3    3    0    0  0.29699802047E+02  0.11002788266E+02  0.15685327176E+02  0.35343586124E+02  0.51100000000E-03 0. -1.
         22    1    1    0    0    0  0.27325954909E+02  0.74399708260E+01 -0.59052856114E+01  0.28929800825E+02  0.00000000000E+00 0.  1.
</event>
<event>
 5    1  0.8778488E-005  0.9118800E+02  0.7818608E-02  0.1130116E+00
         25   -1    0    0    0    0  0.00000000000E+00  0.00000000000E+00  0.99999998245E-14  0.12500000000E+03  0.12500000000E+03 0.  0.
        -11    1    3    3    0    0  0.37020182747E+01 -0.24246229520E+02 -0.29505133206E+02  0.38368443688E+02  0.51100000000E-03 0. -1.
         23    2    1    0    0    0  0.14597420649E+02  0.21119628925E+02  0.78686898416E+01  0.98147817679E+02  0.94403148358E+02 0.  0.
         11    1    3    3    0    0  0.10895402374E+02  0.45365858445E+02  0.37373823048E+02  0.59779373992E+02  0.51100000000E-03 0.  1.
         22    1    1    0    0    0 -0.14597420649E+02 -0.21119628925E+02 -0.78686898416E+01  0.26852182321E+02  0.00000000000E+00 0.  1.
</event>
<event>
 5    1  0.8778488E-005  0.9118800E+02  0.7818608E-02  0.1130116E+00
         25   -1    0    0    0    0  0.00000000000E+00  0.00000000000E+00  0.99999998245E-14  0.12500000000E+03  0.12500000000E+03 0.  0.
        -11    1    3    3    0    0 -0.16821133240E+02  0.85657599107E+01  0.53053108486E+02  0.56311234107E+02  0.51100000000E-03 0. -1.
         23    2    1    0    0    0 -0.11134627367E+01 -0.14703998152E+02  0.24837419035E+02  0.96114973684E+02  0.91671933661E+02 0.  0.
         11    1    3    3    0    0  0.15707670503E+02 -0.23269758062E+02 -0.28215689451E+02  0.39803739578E+02  0.51100000000E-03 0.  1.
         22    1    1    0    0    0  0.11134627367E+01  0.14703998152E+02 -0.24837419035E+02  0.28885026316E+02  0.00000000000E+00 0. -1.
</event>
<event>
 5    1  0.8778488E-005  0.9118800E+02  0.7818608E-02  0.1130116E+00
         25   -1    0    0    0    0  0.00000000000E+00  0.00000000000E+00  0.99999998245E-14  0.12500000000E+03  0.12500000000E+03 0.  0.
        -11    1    3    3    0    0  0.13099382328E+02 -0.38390390191E+02  0.46603629654E+02  0.61784416915E+02  0.51100000000E-03 0.  1.
         23    2    1    0    0    0  0.13056173969E+02 -0.17935713690E+02  0.22401964175E+02  0.93472210620E+02  0.87994617194E+02 0.  0.
         11    1    3    3    0    0 -0.43208358603E-01  0.20454676500E+02 -0.24201665479E+02  0.31687793705E+02  0.51100000000E-03 0. -1.
         22    1    1    0    0    0 -0.13056173969E+02  0.17935713690E+02 -0.22401964175E+02  0.31527789380E+02  0.00000000000E+00 0.  1.
</event>
<event>
 5    1  0.8778488E-005  0.9118800E+02  0.7818608E-02  0.1130116E+00
         25   -1    0    0    0    0  0.00000000000E+00  0.00000000000E+00  0.99999998245E-14  0.12500000000E+03  0.12500000000E+03 0.  0.
        -11    1    3    3    0    0  0.39958707782E+02  0.42499425906E+02  0.16474535773E+01  0.58357635606E+02  0.51100000000E-03 0.  1.
         23    2    1    0    0    0  0.27391501538E+02  0.69132498950E+01 -0.38228949524E+01  0.96492072919E+02  0.92184696289E+02 0.  0.
         11    1    3    3    0    0 -0.12567206244E+02 -0.35586176011E+02 -0.54703485297E+01  0.38134437313E+02  0.51100000000E-03 0. -1.
         22    1    1    0    0    0 -0.27391501538E+02 -0.69132498950E+01  0.38228949524E+01  0.28507927081E+02  0.00000000000E+00 0.  1.
</event>
<event>
 5    1  0.8778488E-005  0.9118800E+02  0.7818608E-02  0.1130116E+00
         25   -1    0    0    0    0  0.00000000000E+00  0.00000000000E+00  0.99999998245E-14  0.12500000000E+03  0.12500000000E+03 0.  0.
        -11    1    3    3    0    0  0.81978187038E+01  0.33155803416E+01  0.34185532680E+02  0.35310734195E+02  0.51100000000E-03 0. -1.
         23    2    1    0    0    0  0.14349320316E+02 -0.31520008442E+01 -0.25451828716E+02  0.95612354844E+02  0.90984002501E+02 0.  0.
         11    1    3    3    0    0  0.61515016120E+01 -0.64675811858E+01 -0.59637361395E+02  0.60301620649E+02  0.51100000000E-03 0.  1.
         22    1    1    0    0    0 -0.14349320316E+02  0.31520008442E+01  0.25451828716E+02  0.29387645156E+02  0.00000000000E+00 0.  1.
</event>
<event>
 5    1  0.8778488E-005  0.9118800E+02  0.7818608E-02  0.1130116E+00
         25   -1    0    0    0    0  0.00000000000E+00  0.00000000000E+00  0.99999998245E-14  0.12500000000E+03  0.12500000000E+03 0.  0.
        -11    1    3    3    0    0 -0.50358986409E+02  0.20917764967E+02 -0.75100895242E+01  0.55045270899E+02  0.51100000000E-03 0. -1.
         23    2    1    0    0    0 -0.15742528521E+02  0.61252821572E+01 -0.23594372899E+02  0.95982062130E+02  0.91490521545E+02 0.  0.
         11    1    3    3    0    0  0.34616457888E+02 -0.14792482810E+02 -0.16084283374E+02  0.40936791231E+02  0.51100000000E-03 0.  1.
         22    1    1    0    0    0  0.15742528521E+02 -0.61252821572E+01  0.23594372899E+02  0.29017937870E+02  0.00000000000E+00 0. -1.
</event>
<event>
 5    1  0.8778488E-005  0.9118800E+02  0.7818608E-02  0.1130116E+00
         25   -1    0    0    0    0  0.00000000000E+00  0.00000000000E+00  0.99999998245E-14  0.12500000000E+03  0.12500000000E+03 0.  0.
        -11    1    3    3    0    0 -0.57104207060E+01 -0.41567275759E+02 -0.84813244943E+01  0.42806310097E+02  0.51100000000E-03 0.  1.
         23    2    1    0    0    0 -0.19858313170E+02  0.13506836528E+02 -0.80504395146E+01  0.99670238624E+02  0.96397923505E+02 0.  0.
         11    1    3    3    0    0 -0.14147892464E+02  0.55074112287E+02  0.43088497976E+00  0.56863928527E+02  0.51100000000E-03 0. -1.
         22    1    1    0    0    0  0.19858313170E+02 -0.13506836528E+02  0.80504395146E+01  0.25329761376E+02  0.00000000000E+00 0. -1.
</event>
<event>
 5    1  0.8778488E-005  0.9118800E+02  0.7818608E-02  0.1130116E+00
         25   -1    0    0    0    0  0.00000000000E+00  0.00000000000E+00  0.99999998245E-14  0.12500000000E+03  0.12500000000E+03 0.  0.
        -11    1    3    3    0    0  0.31812368810E+02  0.37539836629E+02 -0.11456476252E+02  0.50522440477E+02  0.51100000000E-03 0.  1.
         23    2    1    0    0    0 -0.12164772416E+01  0.13122734537E+02 -0.27410070969E+02  0.94586220736E+02  0.89563135185E+02 0.  0.
         11    1    3    3    0    0 -0.33028846052E+02 -0.24417102092E+02 -0.15953594717E+02  0.44063780259E+02  0.51100000000E-03 0. -1.
         22    1    1    0    0    0  0.12164772416E+01 -0.13122734537E+02  0.27410070969E+02  0.30413779264E+02  0.00000000000E+00 0.  1.
</event>
<event>
 5    1  0.8778488E-005  0.9118800E+02  0.7818608E-02  0.1130116E+00
         25   -1    0    0    0    0  0.00000000000E+00  0.00000000000E+00  0.99999998245E-14  0.12500000000E+03  0.12500000000E+03 0.  0.
        -11    1    3    3    0    0  0.91772170157E+01  0.29139548847E+02 -0.18846336745E+02  0.35895947239E+02  0.51100000000E-03 0.  1.
         23    2    1    0    0    0 -0.13329961553E+01 -0.28481868846E+02 -0.58235260690E+01  0.95898330158E+02  0.91376050142E+02 0.  0.
         11    1    3    3    0    0 -0.10510213171E+02 -0.57621417693E+02  0.13022810676E+02  0.60002382920E+02  0.51100000000E-03 0. -1.
         22    1    1    0    0    0  0.13329961553E+01  0.28481868846E+02  0.58235260690E+01  0.29101669842E+02  0.00000000000E+00 0. -1.
</event>
<event>
 5    1  0.8778488E-005  0.9118800E+02  0.7818608E-02  0.1130116E+00
         25   -1    0    0    0    0  0.00000000000E+00  0.00000000000E+00  0.99999998245E-14  0.12500000000E+03  0.12500000000E+03 0.  0.
        -11    1    3    3    0    0 -0.44056297822E+02  0.10767182214E+02  0.35719527673E+02  0.57730184895E+02  0.51100000000E-03 0. -1.
         23    2    1    0    0    0 -0.24881359703E+02 -0.11456063721E+02  0.14048918351E+02  0.94215335579E+02  0.89043999768E+02 0.  0.
         11    1    3    3    0    0  0.19174938118E+02 -0.22223245935E+02 -0.21670609322E+02  0.36485150684E+02  0.51100000000E-03 0.  1.
         22    1    1    0    0    0  0.24881359703E+02  0.11456063721E+02 -0.14048918351E+02  0.30784664421E+02  0.00000000000E+00 0. -1.
</event>
<event>
 5    1  0.8778488E-005  0.9118800E+02  0.7818608E-02  0.1130116E+00
         25   -1    0    0    0    0  0.00000000000E+00  0.00000000000E+00  0.99999998245E-14  0.12500000000E+03  0.12500000000E+03 0.  0.
        -11    1    3    3    0    0 -0.16036694354E+02 -0.28971003736E+02 -0.21354939922E+02  0.39402132970E+02  0.51100000000E-03 0.  1.
         23    2    1    0    0    0  0.25025078117E+02  0.91604961455E+01 -0.97199176925E+01  0.96633716769E+02  0.92376561921E+02 0.  0.
         11    1    3    3    0    0  0.41061772470E+02  0.38131499882E+02  0.11635022229E+02  0.57231583799E+02  0.51100000000E-03 0. -1.
         22    1    1    0    0    0 -0.25025078117E+02 -0.91604961455E+01  0.97199176925E+01  0.28366283231E+02  0.00000000000E+00 0. -1.
</event>
<event>
 5    1  0.8778488E-005  0.9118800E+02  0.7818608E-02  0.1130116E+00
         25   -1    0    0    0    0  0.00000000000E+00  0.00000000000E+00  0.99999998245E-14  0.12500000000E+03  0.12500000000E+03 0.  0.
        -11    1    3    3    0    0  0.39022271185E+02 -0.35718333359E+02  0.20645960069E+02  0.56787257847E+02  0.51100000000E-03 0.  1.
         23    2    1    0    0    0  0.26027557902E+02 -0.52970498264E+01 -0.41333284824E+01  0.98119209246E+02  0.94365260088E+02 0.  0.
         11    1    3    3    0    0 -0.12994713282E+02  0.30421283533E+02 -0.24779288552E+02  0.41331951399E+02  0.51100000000E-03 0. -1.
         22    1    1    0    0    0 -0.26027557902E+02  0.52970498264E+01  0.41333284824E+01  0.26880790754E+02  0.00000000000E+00 0.  1.
</event>
<event>
 5    1  0.8778488E-005  0.9118800E+02  0.7818608E-02  0.1130116E+00
         25   -1    0    0    0    0  0.00000000000E+00  0.00000000000E+00  0.99999998245E-14  0.12500000000E+03  0.12500000000E+03 0.  0.
        -11    1    3    3    0    0 -0.25072664147E+02 -0.15279229572E+01 -0.24169965905E+02  0.34859149274E+02  0.51100000000E-03 0.  1.
         23    2    1    0    0    0  0.33191609395E+01  0.17022625203E+01  0.29288206886E+02  0.95475203817E+02  0.90795379587E+02 0.  0.
         11    1    3    3    0    0  0.28391825086E+02  0.32301854775E+01  0.53458172791E+02  0.60616054543E+02  0.51100000000E-03 0. -1.
         22    1    1    0    0    0 -0.33191609395E+01 -0.17022625203E+01 -0.29288206886E+02  0.29524796183E+02  0.00000000000E+00 0. -1.
</event>
<event>
 5    1  0.8778488E-005  0.9118800E+02  0.7818608E-02  0.1130116E+00
         25   -1    0    0    0    0  0.00000000000E+00  0.00000000000E+00  0.99999998245E-14  0.12500000000E+03  0.12500000000E+03 0.  0.
        -11    1    3    3    0    0 -0.58317036636E+02 -0.21185603213E+01  0.16735926354E+02  0.60707959042E+02  0.51100000000E-03 0.  1.
         23    2    1    0    0    0 -0.24814866929E+02 -0.49708891011E+01  0.17314014991E+02  0.94336300382E+02  0.89213648594E+02 0.  0.
         11    1    3    3    0    0  0.33502169707E+02 -0.28523287798E+01  0.57808863644E+00  0.33628341340E+02  0.51100000000E-03 0. -1.
         22    1    1    0    0    0  0.24814866929E+02  0.49708891011E+01 -0.17314014991E+02  0.30663699618E+02  0.00000000000E+00 0.  1.
</event>
<event>
 5    1  0.8778488E-005  0.9118800E+02  0.7818608E-02  0.1130116E+00
         25   -1    0    0    0    0  0.00000000000E+00  0.00000000000E+00  0.99999998245E-14  0.12500000000E+03  0.12500000000E+03 0.  0.
        -11    1    3    3    0    0  0.12146381330E+02 -0.54205288449E+01  0.34433288759E+02  0.36912979931E+02  0.51100000000E-03 0. -1.
         23    2    1    0    0    0 -0.18032494910E+02 -0.14535878147E+02 -0.16324080606E+02  0.96663835231E+02  0.92417307945E+02 0.  0.
         11    1    3    3    0    0 -0.30178876240E+02 -0.91153493025E+01 -0.50757369365E+02  0.59750855300E+02  0.51100000000E-03 0.  1.
         22    1    1    0    0    0  0.18032494910E+02  0.14535878147E+02  0.16324080606E+02  0.28336164769E+02  0.00000000000E+00 0.  1.
</event>
<event>
 5    1  0.8778488E-005  0.9118800E+02  0.7818608E-02  0.1130116E+00
         25   -1    0    0    0    0  0.00000000000E+00  0.00000000000E+00  0.99999998245E-14  0.12500000000E+03  0.12500000000E+03 0.  0.
        -11    1    3    3    0    0  0.20846269810E+02 -0.27705189378E+02  0.30957669117E+02  0.46481413069E+02  0.51100000000E-03 0. -1.
         23    2    1    0    0    0 -0.22440089827E+02 -0.85465087180E+01  0.16078792380E+02  0.96101418597E+02  0.91653448649E+02 0.  0.
         11    1    3    3    0    0 -0.43286359637E+02  0.19158680660E+02 -0.14878876737E+02  0.49620005527E+02  0.51100000000E-03 0.  1.
         22    1    1    0    0    0  0.22440089827E+02  0.85465087180E+01 -0.16078792380E+02  0.28898581403E+02  0.00000000000E+00 0.  1.
</event>
<event>
 5    1  0.8778488E-005  0.9118800E+02  0.7818608E-02  0.1130116E+00
         25   -1    0    0    0    0  0.00000000000E+00  0.00000000000E+00  0.99999998245E-14  0.12500000000E+03  0.12500000000E+03 0.  0.
        -11    1    3    3    0    0  0.11894175847E+02  0.15033894303E+02 -0.27593633271E+02  0.33599077285E+02  0.51100000000E-03 0.  1.
         23    2    1    0    0    0  0.32227424764E+01 -0.38460619851E+01  0.29874283729E+02  0.94707243602E+02  0.89731883412E+02 0.  0.
         11    1    3    3    0    0 -0.86714333706E+01 -0.18879956288E+02  0.57467917000E+02  0.61108166318E+02  0.51100000000E-03 0. -1.
         22    1    1    0    0    0 -0.32227424764E+01  0.38460619851E+01 -0.29874283729E+02  0.30292756398E+02  0.00000000000E+00 0. -1.
</event>
<event>
 5    1  0.8778488E-005  0.9118800E+02  0.7818608E-02  0.1130116E+00
         25   -1    0    0    0    0  0.00000000000E+00  0.00000000000E+00  0.99999998245E-14  0.12500000000E+03  0.12500000000E+03 0.  0.
        -11    1    3    3    0    0  0.16233943395E+02 -0.19733706616E+01  0.41492133638E+02  0.44598567960E+02  0.51100000000E-03 0. -1.
         23    2    1    0    0    0 -0.96413807501E+01  0.27680529774E+02  0.14696643926E+02  0.92210378257E+02  0.86183493572E+02 0.  0.
         11    1    3    3    0    0 -0.25875324145E+02  0.29653900435E+02 -0.26795489712E+02  0.47611810298E+02  0.51100000000E-03 0.  1.
         22    1    1    0    0    0  0.96413807501E+01 -0.27680529774E+02 -0.14696643926E+02  0.32789621743E+02  0.00000000000E+00 0. -1.
</event>
<event>
 5    1  0.8778488E-005  0.9118800E+02  0.7818608E-02  0.1130116E+00
         25   -1    0    0    0    0  0.00000000000E+00  0.00000000000E+00  0.99999998245E-14  0.12500000000E+03  0.12500000000E+03 0.  0.
        -11    1    3    3    0    0 -0.33855540268E+02 -0.27261228996E+01  0.50495528158E+02  0.60855794442E+02  0.51100000000E-03 0. -1.
         23    2    1    0    0    0 -0.13372318121E+02 -0.11120149041E+02  0.23413961481E+02  0.95833406114E+02  0.91287192577E+02 0.  0.
         11    1    3    3    0    0  0.20483222146E+02 -0.83940261419E+01 -0.27081566677E+02  0.34977611673E+02  0.51100000000E-03 0.  1.
         22    1    1    0    0    0  0.13372318121E+02  0.11120149041E+02 -0.23413961481E+02  0.29166593886E+02  0.00000000000E+00 0. -1.
</event>
<event>
 5    1  0.8778488E-005  0.9118800E+02  0.7818608E-02  0.1130116E+00
         25   -1    0    0    0    0  0.00000000000E+00  0.00000000000E+00  0.99999998245E-14  0.12500000000E+03  0.12500000000E+03 0.  0.
        -11    1    3    3    0    0  0.13069408377E+01  0.14875031896E+02  0.59814566415E+02  0.61650279999E+02  0.51100000000E-03 0. -1.
         23    2    1    0    0    0  0.45476915838E+01  0.12069940063E+02  0.23706924426E+02  0.98011424313E+02  0.94222375677E+02 0.  0.
         11    1    3    3    0    0  0.32407507461E+01 -0.28050918336E+01 -0.36107641989E+02  0.36361144314E+02  0.51100000000E-03 0.  1.
         22    1    1    0    0    0 -0.45476915838E+01 -0.12069940063E+02 -0.23706924426E+02  0.26988575687E+02  0.00000000000E+00 0. -1.
</event>
<event>
 5    1  0.8778488E-005  0.9118800E+02  0.7818608E-02  0.1130116E+00
         25   -1    0    0    0    0  0.00000000000E+00  0.00000000000E+00  0.99999998245E-14  0.12500000000E+03  0.12500000000E+03 0.  0.
        -11    1    3    3    0    0  0.11066555802E+02  0.20451199823E+02  0.36021947177E+02  0.42875411487E+02  0.51100000000E-03 0.  1.
         23    2    1    0    0    0  0.87027866657E+01 -0.25919752770E+02  0.12223971676E+02  0.95050082422E+02  0.90208206974E+02 0.  0.
         11    1    3    3    0    0 -0.23637691364E+01 -0.46370952593E+02 -0.23797975501E+02  0.52174670934E+02  0.51100000000E-03 0. -1.
         22    1    1    0    0    0 -0.87027866657E+01  0.25919752770E+02 -0.12223971676E+02  0.29949917578E+02  0.00000000000E+00 0. -1.
</event>
<event>
 4    1  0.8778488E-005  0.9118800E+02  0.7818608E-02  0.1130116E+00
         25   -1    0    0    0    0  0.00000000000E+00  0.00000000000E+00  0.99999998245E-14  0.12500000000E+03  0.12500000000E+03 0.  0.
        -11    1    1    0    0    0  0.20059936044E+02 -0.55404551482E+01  0.36623083038E+01  0.21130787484E+02  0.51100000000E-03 0. -1.
         11    1    1    0    0    0  0.18382966156E+02  0.37386530375E+02 -0.26074803970E+02  0.49148565600E+02  0.51100000000E-03 0.  1.
         22    1    1    0    0    0 -0.38442902200E+02 -0.31846075227E+02  0.22412495666E+02  0.54720646916E+02  0.00000000000E+00 0.  1.
</event>
<event>
 5    1  0.8778488E-005  0.9118800E+02  0.7818608E-02  0.1130116E+00
         25   -1    0    0    0    0  0.00000000000E+00  0.00000000000E+00  0.99999998245E-14  0.12500000000E+03  0.12500000000E+03 0.  0.
        -11    1    3    3    0    0  0.53765222442E+02  0.25612779113E+01  0.24973111003E+02  0.59337303294E+02  0.51100000000E-03 0.  1.
         23    2    1    0    0    0  0.17805889250E+02  0.10087037814E+02  0.19954903907E+02  0.96416854376E+02  0.92082645455E+02 0.  0.
         11    1    3    3    0    0 -0.35959333192E+02  0.75257599029E+01 -0.50182070970E+01  0.37079551082E+02  0.51100000000E-03 0. -1.
         22    1    1    0    0    0 -0.17805889250E+02 -0.10087037814E+02 -0.19954903907E+02  0.28583145624E+02  0.00000000000E+00 0.  1.
</event>
<event>
 5    1  0.8778488E-005  0.9118800E+02  0.7818608E-02  0.1130116E+00
         25   -1    0    0    0    0  0.00000000000E+00  0.00000000000E+00  0.99999998245E-14  0.12500000000E+03  0.12500000000E+03 0.  0.
        -11    1    3    3    0    0 -0.23046199900E+02  0.20155956602E+02 -0.17892884904E+02  0.35461884423E+02  0.51100000000E-03 0. -1.
         23    2    1    0    0    0  0.78956680692E+01  0.44322865858E+01  0.29464237919E+02  0.94175852732E+02  0.88988556473E+02 0.  0.
         11    1    3    3    0    0  0.30941867969E+02 -0.15723670017E+02  0.47357122823E+02  0.58713968309E+02  0.51100000000E-03 0.  1.
         22    1    1    0    0    0 -0.78956680692E+01 -0.44322865858E+01 -0.29464237919E+02  0.30824147268E+02  0.00000000000E+00 0.  1.
</event>
<event>
 5    1  0.8778488E-005  0.9118800E+02  0.7818608E-02  0.1130116E+00
         25   -1    0    0    0    0  0.00000000000E+00  0.00000000000E+00  0.99999998245E-14  0.12500000000E+03  0.12500000000E+03 0.  0.
        -11    1    3    3    0    0  0.18778750829E+02  0.35360046450E+02  0.34592306700E+02  0.52911265821E+02  0.51100000000E-03 0.  1.
         23    2    1    0    0    0 -0.15705457389E+02  0.17176177370E+02  0.19213880103E+02  0.94819614823E+02  0.89888284585E+02 0.  0.
         11    1    3    3    0    0 -0.34484208218E+02 -0.18183869080E+02 -0.15378426598E+02  0.41908349002E+02  0.51100000000E-03 0. -1.
         22    1    1    0    0    0  0.15705457389E+02 -0.17176177370E+02 -0.19213880103E+02  0.30180385177E+02  0.00000000000E+00 0.  1.
</event>
<event>
 5    1  0.8778488E-005  0.9118800E+02  0.7818608E-02  0.1130116E+00
         25   -1    0    0    0    0  0.00000000000E+00  0.00000000000E+00  0.99999998245E-14  0.12500000000E+03  0.12500000000E+03 0.  0.
        -11    1    3    3    0    0 -0.26263530193E+02 -0.20035014045E+02 -0.40281464734E+02  0.52093869192E+02  0.51100000000E-03 0. -1.
         23    2    1    0    0    0  0.91797604765E+01  0.23149150640E+01 -0.27522166834E+02  0.95895077712E+02  0.91371600774E+02 0.  0.
         11    1    3    3    0    0  0.35443290670E+02  0.22349929109E+02  0.12759297900E+02  0.43801208520E+02  0.51100000000E-03 0.  1.
         22    1    1    0    0    0 -0.91797604765E+01 -0.23149150640E+01  0.27522166834E+02  0.29104922288E+02  0.00000000000E+00 0. -1.
</event>
<event>
 5    1  0.8778488E-005  0.9118800E+02  0.7818608E-02  0.1130116E+00
         25   -1    0    0    0    0  0.00000000000E+00  0.00000000000E+00  0.99999998245E-14  0.12500000000E+03  0.12500000000E+03 0.  0.
        -11    1    3    3    0    0 -0.18655421323E+01  0.39289794341E+02  0.17391607119E+02  0.43007396866E+02  0.51100000000E-03 0.  1.
         23    2    1    0    0    0  0.28279513642E+02  0.42519247951E+01 -0.74046049332E+01  0.95459554328E+02  0.90773832033E+02 0.  0.
         11    1    3    3    0    0  0.30145055774E+02 -0.35037869546E+02 -0.24796212052E+02  0.52452157461E+02  0.51100000000E-03 0. -1.
         22    1    1    0    0    0 -0.28279513642E+02 -0.42519247951E+01  0.74046049332E+01  0.29540445672E+02  0.00000000000E+00 0. -1.
</event>
<event>
 5    1  0.8778488E-005  0.9118800E+02  0.7818608E-02  0.1130116E+00
         25   -1    0    0    0    0  0.00000000000E+00  0.00000000000E+00  0.99999998245E-14  0.12500000000E+03  0.12500000000E+03 0.  0.
        -11    1    3    3    0    0  0.12096007331E+01  0.30386588164E+02  0.18846254572E+02  0.35776936507E+02  0.51100000000E-03 0. -1.
         23    2    1    0    0    0 -0.21200038455E+02 -0.17825520202E+02 -0.91064986787E+01  0.95843197721E+02  0.91300599287E+02 0.  0.
         11    1    3    3    0    0 -0.22409639188E+02 -0.48212108366E+02 -0.27952753251E+02  0.60066261214E+02  0.51100000000E-03 0.  1.
         22    1    1    0    0    0  0.21200038455E+02  0.17825520202E+02  0.91064986787E+01  0.29156802279E+02  0.00000000000E+00 0.  1.
</event>
<event>
 5    1  0.8778488E-005  0.9118800E+02  0.7818608E-02  0.1130116E+00
         25   -1    0    0    0    0  0.00000000000E+00  0.00000000000E+00  0.99999998245E-14  0.12500000000E+03  0.12500000000E+03 0.  0.
        -11    1    3    3    0    0 -0.27684259441E+02  0.26055197230E+02 -0.47579935924E+02  0.60902724293E+02  0.51100000000E-03 0.  1.
         23    2    1    0    0    0 -0.69739386565E+01  0.76828473739E+01 -0.28882814707E+02  0.94309953575E+02  0.89176725628E+02 0.  0.
         11    1    3    3    0    0  0.20710320784E+02 -0.18372349857E+02  0.18697121217E+02  0.33407229282E+02  0.51100000000E-03 0. -1.
         22    1    1    0    0    0  0.69739386565E+01 -0.76828473739E+01  0.28882814707E+02  0.30690046425E+02  0.00000000000E+00 0.  1.
</event>
<event>
 5    1  0.8778488E-005  0.9118800E+02  0.7818608E-02  0.1130116E+00
         25   -1    0    0    0    0  0.00000000000E+00  0.00000000000E+00  0.99999998245E-14  0.12500000000E+03  0.12500000000E+03 0.  0.
        -11    1    3    3    0    0 -0.11712460140E+02 -0.48727533529E+02  0.29679778822E+02  0.58244686603E+02  0.51100000000E-03 0.  1.
         23    2    1    0    0    0 -0.39354607505E+01 -0.28559445382E+02 -0.14397248288E+01  0.96134751353E+02  0.91698897694E+02 0.  0.
         11    1    3    3    0    0  0.77769993893E+01  0.20168088147E+02 -0.31119503651E+02  0.37890064750E+02  0.51100000000E-03 0. -1.
         22    1    1    0    0    0  0.39354607505E+01  0.28559445382E+02  0.14397248288E+01  0.28865248647E+02  0.00000000000E+00 0.  1.
</event>
<event>
 5    1  0.8778488E-005  0.9118800E+02  0.7818608E-02  0.1130116E+00
         25   -1    0    0    0    0  0.00000000000E+00  0.00000000000E+00  0.99999998245E-14  0.12500000000E+03  0.12500000000E+03 0.  0.
        -11    1    3    3    0    0 -0.30880101704E+02  0.52437683233E+02 -0.33014554923E+01  0.60944162253E+02  0.51100000000E-03 0. -1.
         23    2    1    0    0    0 -0.58226121680E+01  0.28734063322E+02  0.73910036524E+00  0.95672615582E+02  0.91066755160E+02 0.  0.
         11    1    3    3    0    0  0.25057489536E+02 -0.23703619911E+02  0.40405558575E+01  0.34728453329E+02  0.51100000000E-03 0.  1.
         22    1    1    0    0    0  0.58226121680E+01 -0.28734063322E+02 -0.73910036524E+00  0.29327384418E+02  0.00000000000E+00 0. -1.
</event>
<event>
 5    1  0.8778488E-005  0.9118800E+02  0.7818608E-02  0.1130116E+00
         25   -1    0    0    0    0  0.00000000000E+00  0.00000000000E+00  0.99999998245E-14  0.12500000000E+03  0.12500000000E+03 0.  0.
        -11    1    3    3    0    0  0.48415338864E+02  0.74203126840E+01  0.33266093134E+02  0.59209281623E+02  0.51100000000E-03 0.  1.
         23    2    1    0    0    0  0.22635673875E+02  0.15568736536E+02  0.75838299348E+01  0.96499583063E+02  0.92194879282E+02 0.  0.
         11    1    3    3    0    0 -0.25779664989E+02  0.81484238516E+01 -0.25682263199E+02  0.37290301440E+02  0.51100000000E-03 0. -1.
         22    1    1    0    0    0 -0.22635673875E+02 -0.15568736536E+02 -0.75838299348E+01  0.28500416937E+02  0.00000000000E+00 0.  1.
</event>
<event>
 5    1  0.8778488E-005  0.9118800E+02  0.7818608E-02  0.1130116E+00
         25   -1    0    0    0    0  0.00000000000E+00  0.00000000000E+00  0.99999998245E-14  0.12500000000E+03  0.12500000000E+03 0.  0.
        -11    1    3    3    0    0 -0.33022545675E+01  0.57120971873E+02  0.16805623585E+02  0.59633374023E+02  0.51100000000E-03 0.  1.
         23    2    1    0    0    0 -0.14663709548E+02  0.23921577760E+02  0.83141894374E+01  0.95735823841E+02  0.91153474757E+02 0.  0.
         11    1    3    3    0    0 -0.11361454981E+02 -0.33199394113E+02 -0.84914341476E+01  0.36102449819E+02  0.51100000000E-03 0. -1.
         22    1    1    0    0    0  0.14663709548E+02 -0.23921577760E+02 -0.83141894374E+01  0.29264176159E+02  0.00000000000E+00 0.  1.
</event>
<event>
 5    1  0.8778488E-005  0.9118800E+02  0.7818608E-02  0.1130116E+00
         25   -1    0    0    0    0  0.00000000000E+00  0.00000000000E+00  0.99999998245E-14  0.12500000000E+03  0.12500000000E+03 0.  0.
        -11    1    3    3    0    0  0.17793231415E+01  0.48849980090E+02 -0.28165584283E+02  0.56416191682E+02  0.51100000000E-03 0. -1.
         23    2    1    0    0    0 -0.18483181290E+02  0.19557043275E+02 -0.12601322249E+02  0.95286379307E+02  0.90535047505E+02 0.  0.
         11    1    3    3    0    0 -0.20262504432E+02 -0.29292936815E+02  0.15564262034E+02  0.38870187625E+02  0.51100000000E-03 0.  1.
         22    1    1    0    0    0  0.18483181290E+02 -0.19557043275E+02  0.12601322249E+02  0.29713620693E+02  0.00000000000E+00 0.  1.
</event>
<event>
 5    1  0.8778488E-005  0.9118800E+02  0.7818608E-02  0.1130116E+00
         25   -1    0    0    0    0  0.00000000000E+00  0.00000000000E+00  0.99999998245E-14  0.12500000000E+03  0.12500000000E+03 0.  0.
        -11    1    3    3    0    0  0.56034631159E+02  0.83243773763E+01  0.17401519087E+01  0.56676302604E+02  0.51100000000E-03 0.  1.
         23    2    1    0    0    0  0.20483238177E+02  0.30890977227E+01  0.19313835901E+02  0.96678103380E+02  0.92436604465E+02 0.  0.
         11    1    3    3    0    0 -0.35551392983E+02 -0.52352796536E+01  0.17573683992E+02  0.40001800777E+02  0.51100000000E-03 0. -1.
         22    1    1    0    0    0 -0.20483238177E+02 -0.30890977227E+01 -0.19313835901E+02  0.28321896620E+02  0.00000000000E+00 0. -1.
</event>
<event>
 5    1  0.8778488E-005  0.9118800E+02  0.7818608E-02  0.1130116E+00
         25   -1    0    0    0    0  0.00000000000E+00  0.00000000000E+00  0.99999998245E-14  0.12500000000E+03  0.12500000000E+03 0.  0.
        -11    1    3    3    0    0  0.87434206445E+01  0.33783739264E+02  0.51157699494E+02  0.61926558608E+02  0.51100000000E-03 0.  1.
         23    2    1    0    0    0  0.57243997485E+01  0.17594180324E+02  0.16881400209E+02  0.99953930313E+02  0.96765089667E+02 0.  0.
         11    1    3    3    0    0 -0.30190208960E+01 -0.16189558939E+02 -0.34276299286E+02  0.38027371705E+02  0.51100000000E-03 0. -1.
         22    1    1    0    0    0 -0.57243997485E+01 -0.17594180324E+02 -0.16881400209E+02  0.25046069687E+02  0.00000000000E+00 0.  1.
</event>
<event>
 5    1  0.8778488E-005  0.9118800E+02  0.7818608E-02  0.1130116E+00
         25   -1    0    0    0    0  0.00000000000E+00  0.00000000000E+00  0.99999998245E-14  0.12500000000E+03  0.12500000000E+03 0.  0.
        -11    1    3    3    0    0 -0.11072969797E+02  0.48674757092E+02 -0.36085565368E+02  0.61595540961E+02  0.51100000000E-03 0.  1.
         23    2    1    0    0    0 -0.12381013684E+02  0.21346711313E+02 -0.15182413203E+02  0.96026266129E+02  0.91550895857E+02 0.  0.
         11    1    3    3    0    0 -0.13080438872E+01 -0.27328045779E+02  0.20903152165E+02  0.34430725168E+02  0.51100000000E-03 0. -1.
         22    1    1    0    0    0  0.12381013684E+02 -0.21346711313E+02  0.15182413203E+02  0.28973733871E+02  0.00000000000E+00 0.  1.
</event>
<event>
 5    1  0.8778488E-005  0.9118800E+02  0.7818608E-02  0.1130116E+00
         25   -1    0    0    0    0  0.00000000000E+00  0.00000000000E+00  0.99999998245E-14  0.12500000000E+03  0.12500000000E+03 0.  0.
        -11    1    3    3    0    0  0.38192031934E+02 -0.45116718603E+02 -0.12695192416E+02  0.60459221890E+02  0.51100000000E-03 0. -1.
         23    2    1    0    0    0  0.25515236717E+02 -0.13458837201E+02 -0.25387272216E+01  0.96041188915E+02  0.91571268577E+02 0.  0.
         11    1    3    3    0    0 -0.12676795217E+02  0.31657881402E+02  0.10156465194E+02  0.35581967025E+02  0.51100000000E-03 0.  1.
         22    1    1    0    0    0 -0.25515236717E+02  0.13458837201E+02  0.25387272216E+01  0.28958811085E+02  0.00000000000E+00 0. -1.
</event>
<event>
 5    1  0.8778488E-005  0.9118800E+02  0.7818608E-02  0.1130116E+00
         25   -1    0    0    0    0  0.00000000000E+00  0.00000000000E+00  0.99999998245E-14  0.12500000000E+03  0.12500000000E+03 0.  0.
        -11    1    3    3    0    0  0.13845552945E+02  0.36361872045E+02 -0.26119543920E+02  0.46862731993E+02  0.51100000000E-03 0.  1.
         23    2    1    0    0    0  0.16846939951E+02 -0.11882411668E+02 -0.21165686094E+02  0.95453471260E+02  0.90765454965E+02 0.  0.
         11    1    3    3    0    0  0.30013870059E+01 -0.48244283713E+02  0.49538578257E+01  0.48590739267E+02  0.51100000000E-03 0. -1.
         22    1    1    0    0    0 -0.16846939951E+02  0.11882411668E+02  0.21165686094E+02  0.29546528740E+02  0.00000000000E+00 0. -1.
</event>
<event>
 5    1  0.8778488E-005  0.9118800E+02  0.7818608E-02  0.1130116E+00
         25   -1    0    0    0    0  0.00000000000E+00  0.00000000000E+00  0.99999998245E-14  0.12500000000E+03  0.12500000000E+03 0.  0.
        -11    1    3    3    0    0  0.67628141456E+01 -0.49746708803E+02  0.31841548246E+01  0.50305164090E+02  0.51100000000E-03 0. -1.
         23    2    1    0    0    0  0.41904632584E+01 -0.11323159739E+02  0.26888247633E+02  0.95525404336E+02  0.90864465464E+02 0.  0.
         11    1    3    3    0    0 -0.25723508872E+01  0.38423549064E+02  0.23704092808E+02  0.45220240246E+02  0.51100000000E-03 0.  1.
         22    1    1    0    0    0 -0.41904632584E+01  0.11323159739E+02 -0.26888247633E+02  0.29474595664E+02  0.00000000000E+00 0.  1.
</event>
<event>
 5    1  0.8778488E-005  0.9118800E+02  0.7818608E-02  0.1130116E+00
         25   -1    0    0    0    0  0.00000000000E+00  0.00000000000E+00  0.99999998245E-14  0.12500000000E+03  0.12500000000E+03 0.  0.
        -11    1    3    3    0    0  0.15247557088E+02 -0.31473656669E+02  0.28977704161E+02  0.45417908362E+02  0.51100000000E-03 0. -1.
         23    2    1    0    0    0  0.26493352769E+02  0.11468106153E+02  0.55800058287E+01  0.95596740576E+02  0.90962548029E+02 0.  0.
         11    1    3    3    0    0  0.11245795682E+02  0.42941762822E+02 -0.23397698333E+02  0.50178832214E+02  0.51100000000E-03 0.  1.
         22    1    1    0    0    0 -0.26493352769E+02 -0.11468106153E+02 -0.55800058287E+01  0.29403259424E+02  0.00000000000E+00 0. -1.
</event>
<event>
 5    1  0.8778488E-005  0.9118800E+02  0.7818608E-02  0.1130116E+00
         25   -1    0    0    0    0  0.00000000000E+00  0.00000000000E+00  0.99999998245E-14  0.12500000000E+03  0.12500000000E+03 0.  0.
        -11    1    3    3    0    0 -0.49694801233E+02  0.84338278518E+01 -0.25058252395E+02  0.56290485299E+02  0.51100000000E-03 0.  1.
         23    2    1    0    0    0 -0.25205806577E+02 -0.17840695643E+01  0.78273400618E+01  0.98546591111E+02  0.94929699134E+02 0.  0.
         11    1    3    3    0    0  0.24488994656E+02 -0.10217897416E+02  0.32885592457E+02  0.42256105812E+02  0.51100000000E-03 0. -1.
         22    1    1    0    0    0  0.25205806577E+02  0.17840695643E+01 -0.78273400618E+01  0.26453408889E+02  0.00000000000E+00 0.  1.
</event>
<event>
 5    1  0.8778488E-005  0.9118800E+02  0.7818608E-02  0.1130116E+00
         25   -1    0    0    0    0  0.00000000000E+00  0.00000000000E+00  0.99999998245E-14  0.12500000000E+03  0.12500000000E+03 0.  0.
        -11    1    3    3    0    0 -0.16774842619E+02 -0.55010034821E+02  0.14055792443E+02  0.59203585849E+02  0.51100000000E-03 0.  1.
         23    2    1    0    0    0 -0.20584023580E+02 -0.19428104324E+02  0.37174722519E+01  0.96452270417E+02  0.92130709345E+02 0.  0.
         11    1    3    3    0    0 -0.38091809615E+01  0.35581930497E+02 -0.10338320191E+02  0.37248684569E+02  0.51100000000E-03 0. -1.
         22    1    1    0    0    0  0.20584023580E+02  0.19428104324E+02 -0.37174722519E+01  0.28547729583E+02  0.00000000000E+00 0.  1.
</event>
<event>
 5    1  0.8778488E-005  0.9118800E+02  0.7818608E-02  0.1130116E+00
         25   -1    0    0    0    0  0.00000000000E+00  0.00000000000E+00  0.99999998245E-14  0.12500000000E+03  0.12500000000E+03 0.  0.
        -11    1    3    3    0    0  0.31797692593E+02 -0.14260782218E+02  0.12109222618E+02  0.36893040487E+02  0.51100000000E-03 0. -1.
         23    2    1    0    0    0  0.43252503365E+01  0.22478632989E+02 -0.21369086789E+02  0.93684914151E+02  0.88296254381E+02 0.  0.
         11    1    3    3    0    0 -0.27472442256E+02  0.36739415207E+02 -0.33478309407E+02  0.56791873664E+02  0.51100000000E-03 0.  1.
         22    1    1    0    0    0 -0.43252503365E+01 -0.22478632989E+02  0.21369086789E+02  0.31315085849E+02  0.00000000000E+00 0.  1.
</event>
<event>
 5    1  0.8778488E-005  0.9118800E+02  0.7818608E-02  0.1130116E+00
         25   -1    0    0    0    0  0.00000000000E+00  0.00000000000E+00  0.99999998245E-14  0.12500000000E+03  0.12500000000E+03 0.  0.
        -11    1    3    3    0    0  0.17338708722E+02 -0.44029064408E+02  0.27900645355E+02  0.54933007785E+02  0.51100000000E-03 0. -1.
         23    2    1    0    0    0 -0.12613395589E+02 -0.24235581781E+02  0.58696263820E+01  0.97055167089E+02  0.92945100852E+02 0.  0.
         11    1    3    3    0    0 -0.29952104311E+02  0.19793482628E+02 -0.22031018973E+02  0.42122159304E+02  0.51100000000E-03 0.  1.
         22    1    1    0    0    0  0.12613395589E+02  0.24235581781E+02 -0.58696263820E+01  0.27944832911E+02  0.00000000000E+00 0. -1.
</event>
<event>
 5    1  0.8778488E-005  0.9118800E+02  0.7818608E-02  0.1130116E+00
         25   -1    0    0    0    0  0.00000000000E+00  0.00000000000E+00  0.99999998245E-14  0.12500000000E+03  0.12500000000E+03 0.  0.
        -11    1    3    3    0    0 -0.45658344127E+02  0.15517801492E+02  0.19015842752E+02  0.51837137531E+02  0.51100000000E-03 0. -1.
         23    2    1    0    0    0 -0.83046729689E+01  0.26673818541E+02 -0.34818637247E+01  0.96847139334E+02  0.92664906160E+02 0.  0.
         11    1    3    3    0    0  0.37353671158E+02  0.11156017048E+02 -0.22497706477E+02  0.45010001803E+02  0.51100000000E-03 0.  1.
         22    1    1    0    0    0  0.83046729689E+01 -0.26673818541E+02  0.34818637247E+01  0.28152860666E+02  0.00000000000E+00 0. -1.
</event>
<event>
 5    1  0.8778488E-005  0.9118800E+02  0.7818608E-02  0.1130116E+00
         25   -1    0    0    0    0  0.00000000000E+00  0.00000000000E+00  0.99999998245E-14  0.12500000000E+03  0.12500000000E+03 0.  0.
        -11    1    3    3    0    0 -0.22896376161E+02 -0.29104121201E+02 -0.91575890517E-01  0.37031099074E+02  0.51100000000E-03 0.  1.
         23    2    1    0    0    0  0.34228547596E+01  0.23158735262E+02  0.14660716695E+02  0.97377915219E+02  0.93378149503E+02 0.  0.
         11    1    3    3    0    0  0.26319230921E+02  0.52262856464E+02  0.14752292586E+02  0.60346816145E+02  0.51100000000E-03 0. -1.
         22    1    1    0    0    0 -0.34228547596E+01 -0.23158735262E+02 -0.14660716695E+02  0.27622084781E+02  0.00000000000E+00 0. -1.
</event>
<event>
 5    1  0.8778488E-005  0.9118800E+02  0.7818608E-02  0.1130116E+00
         25   -1    0    0    0    0  0.00000000000E+00  0.00000000000E+00  0.99999998245E-14  0.12500000000E+03  0.12500000000E+03 0.  0.
        -11    1    3    3    0    0 -0.41352294875E+02  0.36979938153E+02  0.21809873872E+02  0.59608713422E+02  0.51100000000E-03 0.  1.
         23    2    1    0    0    0 -0.24259247260E+02  0.44086288026E+01  0.61458689628E+01  0.99589002561E+02  0.96292526398E+02 0.  0.
         11    1    3    3    0    0  0.17093047615E+02 -0.32571309350E+02 -0.15664004909E+02  0.39980289139E+02  0.51100000000E-03 0. -1.
         22    1    1    0    0    0  0.24259247260E+02 -0.44086288026E+01 -0.61458689628E+01  0.25410997439E+02  0.00000000000E+00 0.  1.
</event>
<event>
 5    1  0.8778488E-005  0.9118800E+02  0.7818608E-02  0.1130116E+00
         25   -1    0    0    0    0  0.00000000000E+00  0.00000000000E+00  0.99999998245E-14  0.12500000000E+03  0.12500000000E+03 0.  0.
        -11    1    3    3    0    0 -0.20040158076E+02  0.27864327135E+02 -0.49177339695E+02  0.59970321011E+02  0.51100000000E-03 0.  1.
         23    2    1    0    0    0  0.15899779797E+01  0.15685685149E+02 -0.29127843068E+02  0.91879009822E+02  0.85701531232E+02 0.  0.
         11    1    3    3    0    0  0.21630136056E+02 -0.12178641986E+02  0.20049496627E+02  0.31908688812E+02  0.51100000000E-03 0. -1.
         22    1    1    0    0    0 -0.15899779797E+01 -0.15685685149E+02  0.29127843068E+02  0.33120990178E+02  0.00000000000E+00 0.  1.
</event>
<event>
 5    1  0.8778488E-005  0.9118800E+02  0.7818608E-02  0.1130116E+00
         25   -1    0    0    0    0  0.00000000000E+00  0.00000000000E+00  0.99999998245E-14  0.12500000000E+03  0.12500000000E+03 0.  0.
        -11    1    3    3    0    0  0.48963390981E+01 -0.38527065083E+02 -0.43362511879E+02  0.58211822830E+02  0.51100000000E-03 0. -1.
         23    2    1    0    0    0 -0.11698853525E+02 -0.10623681381E+02 -0.24753418063E+02  0.95632373509E+02  0.91011501346E+02 0.  0.
         11    1    3    3    0    0 -0.16595192623E+02  0.27903383702E+02  0.18609093816E+02  0.37420550679E+02  0.51100000000E-03 0.  1.
         22    1    1    0    0    0  0.11698853525E+02  0.10623681381E+02  0.24753418063E+02  0.29367626491E+02  0.00000000000E+00 0. -1.
</event>
<event>
 5    1  0.8778488E-005  0.9118800E+02  0.7818608E-02  0.1130116E+00
         25   -1    0    0    0    0  0.00000000000E+00  0.00000000000E+00  0.99999998245E-14  0.12500000000E+03  0.12500000000E+03 0.  0.
        -11    1    3    3    0    0 -0.53285742606E+01  0.30511089808E+02  0.29358400339E+02  0.42675941415E+02  0.51100000000E-03 0. -1.
         23    2    1    0    0    0 -0.12779248193E+02 -0.20725170626E+02  0.14987898430E+02  0.96408410656E+02  0.92071182592E+02 0.  0.
         11    1    3    3    0    0 -0.74506739329E+01 -0.51236260434E+02 -0.14370501909E+02  0.53732469241E+02  0.51100000000E-03 0.  1.
         22    1    1    0    0    0  0.12779248193E+02  0.20725170626E+02 -0.14987898430E+02  0.28591589344E+02  0.00000000000E+00 0.  1.
</event>
<event>
 5    1  0.8778488E-005  0.9118800E+02  0.7818608E-02  0.1130116E+00
         25   -1    0    0    0    0  0.00000000000E+00  0.00000000000E+00  0.99999998245E-14  0.12500000000E+03  0.12500000000E+03 0.  0.
        -11    1    3    3    0    0  0.13104058074E+02 -0.34749683974E+02 -0.33032170007E+02  0.49702928786E+02  0.51100000000E-03 0.  1.
         23    2    1    0    0    0 -0.20806597898E+02 -0.58030595927E+01 -0.18391296649E+02  0.96630477460E+02  0.92372178522E+02 0.  0.
         11    1    3    3    0    0 -0.33910655972E+02  0.28946624381E+02  0.14640873358E+02  0.46927548673E+02  0.51100000000E-03 0. -1.
         22    1    1    0    0    0  0.20806597898E+02  0.58030595927E+01  0.18391296649E+02  0.28369522540E+02  0.00000000000E+00 0. -1.
</event>
<event>
 5    1  0.8778488E-005  0.9118800E+02  0.7818608E-02  0.1130116E+00
         25   -1    0    0    0    0  0.00000000000E+00  0.00000000000E+00  0.99999998245E-14  0.12500000000E+03  0.12500000000E+03 0.  0.
        -11    1    3    3    0    0  0.40045478103E+02 -0.34488026757E+02 -0.10967626114E+02  0.53975486371E+02  0.51100000000E-03 0.  1.
         23    2    1    0    0    0  0.23655342347E+02  0.62627052011E+01  0.36319324968E+01  0.10026161623E+03  0.97161741735E+02 0.  0.
         11    1    3    3    0    0 -0.16390135756E+02  0.40750731958E+02  0.14599558611E+02  0.46286129857E+02  0.51100000000E-03 0. -1.
         22    1    1    0    0    0 -0.23655342347E+02 -0.62627052011E+01 -0.36319324968E+01  0.24738383772E+02  0.00000000000E+00 0.  1.
</event>
<event>
 5    1  0.8778488E-005  0.9118800E+02  0.7818608E-02  0.1130116E+00
         25   -1    0    0    0    0  0.00000000000E+00  0.00000000000E+00  0.99999998245E-14  0.12500000000E+03  0.12500000000E+03 0.  0.
        -11    1    3    3    0    0  0.13262006546E+01  0.30657469655E+02  0.13510969378E+02  0.33528876325E+02  0.51100000000E-03 0.  1.
         23    2    1    0    0    0  0.18764731997E+01 -0.88221904153E+00 -0.34206682943E+02  0.90730529329E+02  0.84009715701E+02 0.  0.
         11    1    3    3    0    0  0.55027254515E+00 -0.31539688697E+02 -0.47717652322E+02  0.57201653003E+02  0.51100000000E-03 0. -1.
         22    1    1    0    0    0 -0.18764731997E+01  0.88221904153E+00  0.34206682943E+02  0.34269470671E+02  0.00000000000E+00 0. -1.
</event>
<event>
 5    1  0.8778488E-005  0.9118800E+02  0.7818608E-02  0.1130116E+00
         25   -1    0    0    0    0  0.00000000000E+00  0.00000000000E+00  0.99999998245E-14  0.12500000000E+03  0.12500000000E+03 0.  0.
        -11    1    3    3    0    0 -0.90713736826E-01 -0.26428577606E+02  0.49855225182E+02  0.56427133734E+02  0.51100000000E-03 0. -1.
         23    2    1    0    0    0  0.11399174247E+02  0.32050650571E+01  0.26826919621E+02  0.95675995637E+02  0.91071394572E+02 0.  0.
         11    1    3    3    0    0  0.11489887984E+02  0.29633642663E+02 -0.23028305561E+02  0.39248861903E+02  0.51100000000E-03 0.  1.
         22    1    1    0    0    0 -0.11399174247E+02 -0.32050650571E+01 -0.26826919621E+02  0.29324004363E+02  0.00000000000E+00 0. -1.
</event>
<event>
 5    1  0.8778488E-005  0.9118800E+02  0.7818608E-02  0.1130116E+00
         25   -1    0    0    0    0  0.00000000000E+00  0.00000000000E+00  0.99999998245E-14  0.12500000000E+03  0.12500000000E+03 0.  0.
        -11    1    3    3    0    0  0.30033372443E+02  0.38709674431E+01 -0.47509271549E+02  0.56339317822E+02  0.51100000000E-03 0. -1.
         23    2    1    0    0    0  0.35208316935E+02 -0.58454869992E+01 -0.24912649193E+02  0.81474887829E+02  0.68874682992E+02 0.  0.
         11    1    3    3    0    0  0.51749444927E+01 -0.97164544423E+01  0.22596622356E+02  0.25135570007E+02  0.51100000000E-03 0.  1.
         22    1    1    0    0    0 -0.35208316935E+02  0.58454869992E+01  0.24912649193E+02  0.43525112171E+02  0.00000000000E+00 0. -1.
</event>
<event>
 5    1  0.8778488E-005  0.9118800E+02  0.7818608E-02  0.1130116E+00
         25   -1    0    0    0    0  0.00000000000E+00  0.00000000000E+00  0.99999998245E-14  0.12500000000E+03  0.12500000000E+03 0.  0.
        -11    1    3    3    0    0 -0.25755972692E+02  0.31164638099E+02 -0.80391451543E+01  0.41221749747E+02  0.51100000000E-03 0. -1.
         23    2    1    0    0    0 -0.15942893466E+02 -0.22586256430E+02 -0.91695801074E+01  0.95872761357E+02  0.91341066007E+02 0.  0.
         11    1    3    3    0    0  0.98130792256E+01 -0.53750894529E+02 -0.11304349531E+01  0.54651011610E+02  0.51100000000E-03 0.  1.
         22    1    1    0    0    0  0.15942893466E+02  0.22586256430E+02  0.91695801074E+01  0.29127238643E+02  0.00000000000E+00 0.  1.
</event>
<event>
 5    1  0.8778488E-005  0.9118800E+02  0.7818608E-02  0.1130116E+00
         25   -1    0    0    0    0  0.00000000000E+00  0.00000000000E+00  0.99999998245E-14  0.12500000000E+03  0.12500000000E+03 0.  0.
        -11    1    3    3    0    0  0.18889303643E+02  0.28718622290E+02 -0.12858582857E+02  0.36700248115E+02  0.51100000000E-03 0. -1.
         23    2    1    0    0    0 -0.17314242049E+02 -0.15619380545E+02  0.11609175499E+02  0.98951564690E+02  0.95461464333E+02 0.  0.
         11    1    3    3    0    0 -0.36203545691E+02 -0.44338002835E+02  0.24467758356E+02  0.62251316575E+02  0.51100000000E-03 0.  1.
         22    1    1    0    0    0  0.17314242049E+02  0.15619380545E+02 -0.11609175499E+02  0.26048435310E+02  0.00000000000E+00 0.  1.
</event>
<event>
 5    1  0.8778488E-005  0.9118800E+02  0.7818608E-02  0.1130116E+00
         25   -1    0    0    0    0  0.00000000000E+00  0.00000000000E+00  0.99999998245E-14  0.12500000000E+03  0.12500000000E+03 0.  0.
        -11    1    3    3    0    0  0.28508432070E+01  0.13935371534E+02 -0.36960458236E+02  0.39602996857E+02  0.51100000000E-03 0. -1.
         23    2    1    0    0    0  0.17852986322E+01 -0.28601933149E+02  0.56513668884E+00  0.96336831115E+02  0.91973951632E+02 0.  0.
         11    1    3    3    0    0 -0.10655445748E+01 -0.42537304683E+02  0.37525594925E+02  0.56733834258E+02  0.51100000000E-03 0.  1.
         22    1    1    0    0    0 -0.17852986322E+01  0.28601933149E+02 -0.56513668884E+00  0.28663168885E+02  0.00000000000E+00 0.  1.
</event>
<event>
 5    1  0.8778488E-005  0.9118800E+02  0.7818608E-02  0.1130116E+00
         25   -1    0    0    0    0  0.00000000000E+00  0.00000000000E+00  0.99999998245E-14  0.12500000000E+03  0.12500000000E+03 0.  0.
        -11    1    3    3    0    0 -0.21904806295E+02  0.45834690951E+02 -0.14509593056E+02  0.52831503142E+02  0.51100000000E-03 0.  1.
         23    2    1    0    0    0  0.12939164047E+02  0.26941122715E+02  0.20694191444E+00  0.95112061223E+02  0.90294049116E+02 0.  0.
         11    1    3    3    0    0  0.34843970341E+02 -0.18893568235E+02  0.14716534971E+02  0.42280558081E+02  0.51100000000E-03 0. -1.
         22    1    1    0    0    0 -0.12939164047E+02 -0.26941122715E+02 -0.20694191444E+00  0.29887938777E+02  0.00000000000E+00 0.  1.
</event>
<event>
 5    1  0.8778488E-005  0.9118800E+02  0.7818608E-02  0.1130116E+00
         25   -1    0    0    0    0  0.00000000000E+00  0.00000000000E+00  0.99999998245E-14  0.12500000000E+03  0.12500000000E+03 0.  0.
        -11    1    3    3    0    0  0.77881482800E+01 -0.55793915303E+02  0.23891883100E+02  0.61191815767E+02  0.51100000000E-03 0.  1.
         23    2    1    0    0    0  0.85860152397E+01 -0.28401286478E+02  0.39859660065E+01  0.95062721294E+02  0.90225718748E+02 0.  0.
         11    1    3    3    0    0  0.79786695976E+00  0.27392628825E+02 -0.19905917094E+02  0.33870905528E+02  0.51100000000E-03 0. -1.
         22    1    1    0    0    0 -0.85860152397E+01  0.28401286478E+02 -0.39859660065E+01  0.29937278706E+02  0.00000000000E+00 0.  1.
</event>
<event>
 5    1  0.8778488E-005  0.9118800E+02  0.7818608E-02  0.1130116E+00
         25   -1    0    0    0    0  0.00000000000E+00  0.00000000000E+00  0.99999998245E-14  0.12500000000E+03  0.12500000000E+03 0.  0.
        -11    1    3    3    0    0 -0.68340894971E-01 -0.57560675239E+02 -0.21927747713E+02  0.61595958670E+02  0.51100000000E-03 0.  1.
         23    2    1    0    0    0  0.56911336595E+01 -0.24067743556E+02 -0.14321040611E+02  0.96421380607E+02  0.92088789501E+02 0.  0.
         11    1    3    3    0    0  0.57594745545E+01  0.33492931683E+02  0.76067071024E+01  0.34825421937E+02  0.51100000000E-03 0. -1.
         22    1    1    0    0    0 -0.56911336595E+01  0.24067743556E+02  0.14321040611E+02  0.28578619393E+02  0.00000000000E+00 0.  1.
</event>
<event>
 5    1  0.8778488E-005  0.9118800E+02  0.7818608E-02  0.1130116E+00
         25   -1    0    0    0    0  0.00000000000E+00  0.00000000000E+00  0.99999998245E-14  0.12500000000E+03  0.12500000000E+03 0.  0.
        -11    1    3    3    0    0 -0.16032656775E+02 -0.35921366399E+02  0.61916930287E+01  0.39821196744E+02  0.51100000000E-03 0. -1.
         23    2    1    0    0    0  0.10773776101E+02  0.10407010997E+02  0.24409008821E+02  0.96361217885E+02  0.92007089245E+02 0.  0.
         11    1    3    3    0    0  0.26806432876E+02  0.46328377397E+02  0.18217315793E+02  0.56540021142E+02  0.51100000000E-03 0.  1.
         22    1    1    0    0    0 -0.10773776101E+02 -0.10407010997E+02 -0.24409008821E+02  0.28638782115E+02  0.00000000000E+00 0.  1.
</event>
<event>
 5    1  0.8778488E-005  0.9118800E+02  0.7818608E-02  0.1130116E+00
         25   -1    0    0    0    0  0.00000000000E+00  0.00000000000E+00  0.99999998245E-14  0.12500000000E+03  0.12500000000E+03 0.  0.
        -11    1    3    3    0    0 -0.45754685165E+02 -0.88421974235E+01 -0.22608717336E+02  0.51796040097E+02  0.51100000000E-03 0.  1.
         23    2    1    0    0    0 -0.26355171083E+02  0.67327072010E+01  0.12692626010E+02  0.94982885813E+02  0.90115045655E+02 0.  0.
         11    1    3    3    0    0  0.19399514082E+02  0.15574904624E+02  0.35301343346E+02  0.43186845717E+02  0.51100000000E-03 0. -1.
         22    1    1    0    0    0  0.26355171083E+02 -0.67327072010E+01 -0.12692626010E+02  0.30017114187E+02  0.00000000000E+00 0.  1.
</event>
<event>
 5    1  0.8778488E-005  0.9118800E+02  0.7818608E-02  0.1130116E+00
         25   -1    0    0    0    0  0.00000000000E+00  0.00000000000E+00  0.99999998245E-14  0.12500000000E+03  0.12500000000E+03 0.  0.
        -11    1    3    3    0    0  0.25274580703E+02  0.12600768999E+02  0.25002949224E+02  0.37719110266E+02  0.51100000000E-03 0.  1.
         23    2    1    0    0    0 -0.62911469142E+01  0.18595564188E+02 -0.22545639686E+02  0.95105528842E+02  0.90285005458E+02 0.  0.
         11    1    3    3    0    0 -0.31565727618E+02  0.59947951893E+01 -0.47548588910E+02  0.57386418576E+02  0.51100000000E-03 0. -1.
         22    1    1    0    0    0  0.62911469142E+01 -0.18595564188E+02  0.22545639686E+02  0.29894471158E+02  0.00000000000E+00 0. -1.
</event>
<event>
 5    1  0.8778488E-005  0.9118800E+02  0.7818608E-02  0.1130116E+00
         25   -1    0    0    0    0  0.00000000000E+00  0.00000000000E+00  0.99999998245E-14  0.12500000000E+03  0.12500000000E+03 0.  0.
        -11    1    3    3    0    0  0.15419706698E+02  0.15826557402E+02 -0.39314915276E+02  0.45098889534E+02  0.51100000000E-03 0.  1.
         23    2    1    0    0    0  0.52161794583E+01  0.28303796906E+02  0.80366664165E+01  0.95118543300E+02  0.90303022236E+02 0.  0.
         11    1    3    3    0    0 -0.10203527240E+02  0.12477239504E+02  0.47351581692E+02  0.50019653765E+02  0.51100000000E-03 0. -1.
         22    1    1    0    0    0 -0.52161794583E+01 -0.28303796906E+02 -0.80366664165E+01  0.29881456700E+02  0.00000000000E+00 0.  1.
</event>
<event>
 5    1  0.8778488E-005  0.9118800E+02  0.7818608E-02  0.1130116E+00
         25   -1    0    0    0    0  0.00000000000E+00  0.00000000000E+00  0.99999998245E-14  0.12500000000E+03  0.12500000000E+03 0.  0.
        -11    1    3    3    0    0  0.11241508463E+02  0.32526327006E+01 -0.54454938198E+02  0.55698217444E+02  0.51100000000E-03 0. -1.
         23    2    1    0    0    0 -0.15320552972E+02 -0.44917750791E+00 -0.26138928307E+02  0.94698767734E+02  0.89720075421E+02 0.  0.
         11    1    3    3    0    0 -0.26562061435E+02 -0.37018102085E+01  0.28316009891E+02  0.39000550290E+02  0.51100000000E-03 0.  1.
         22    1    1    0    0    0  0.15320552972E+02  0.44917750791E+00  0.26138928307E+02  0.30301232266E+02  0.00000000000E+00 0. -1.
</event>
<event>
 5    1  0.8778488E-005  0.9118800E+02  0.7818608E-02  0.1130116E+00
         25   -1    0    0    0    0  0.00000000000E+00  0.00000000000E+00  0.99999998245E-14  0.12500000000E+03  0.12500000000E+03 0.  0.
        -11    1    3    3    0    0  0.28220120022E+02  0.87792976138E+01  0.25512079393E+02  0.39042508063E+02  0.51100000000E-03 0.  1.
         23    2    1    0    0    0  0.81673868768E+01  0.17588380384E+00 -0.27469472121E+02  0.96341510122E+02  0.91980310558E+02 0.  0.
         11    1    3    3    0    0 -0.20052733146E+02 -0.86034138100E+01 -0.52981551514E+02  0.57299002058E+02  0.51100000000E-03 0. -1.
         22    1    1    0    0    0 -0.81673868768E+01 -0.17588380384E+00  0.27469472121E+02  0.28658489878E+02  0.00000000000E+00 0. -1.
</event>
<event>
 5    1  0.8778488E-005  0.9118800E+02  0.7818608E-02  0.1130116E+00
         25   -1    0    0    0    0  0.00000000000E+00  0.00000000000E+00  0.99999998245E-14  0.12500000000E+03  0.12500000000E+03 0.  0.
        -11    1    3    3    0    0 -0.38127278800E+01 -0.15118673490E+02  0.32285323260E+02  0.35853218548E+02  0.51100000000E-03 0.  1.
         23    2    1    0    0    0  0.23321526719E+02  0.36919629547E+00 -0.18330093168E+02  0.95334831368E+02  0.90601919638E+02 0.  0.
         11    1    3    3    0    0  0.27134254599E+02  0.15487869785E+02 -0.50615416428E+02  0.59481612820E+02  0.51100000000E-03 0. -1.
         22    1    1    0    0    0 -0.23321526719E+02 -0.36919629547E+00  0.18330093168E+02  0.29665168632E+02  0.00000000000E+00 0. -1.
</event>
<event>
 5    1  0.8778488E-005  0.9118800E+02  0.7818608E-02  0.1130116E+00
         25   -1    0    0    0    0  0.00000000000E+00  0.00000000000E+00  0.99999998245E-14  0.12500000000E+03  0.12500000000E+03 0.  0.
        -11    1    3    3    0    0  0.27808348198E+02  0.16345125438E+02  0.53344545451E+02  0.62338654820E+02  0.51100000000E-03 0.  1.
         23    2    1    0    0    0  0.15375550817E+02  0.85322860839E+01  0.23010360150E+02  0.96039956095E+02  0.91569585692E+02 0.  0.
         11    1    3    3    0    0 -0.12432797381E+02 -0.78128393542E+01 -0.30334185301E+02  0.33701301275E+02  0.51100000000E-03 0. -1.
         22    1    1    0    0    0 -0.15375550817E+02 -0.85322860839E+01 -0.23010360150E+02  0.28960043905E+02  0.00000000000E+00 0.  1.
</event>
<event>
 5    1  0.8778488E-005  0.9118800E+02  0.7818608E-02  0.1130116E+00
         25   -1    0    0    0    0  0.00000000000E+00  0.00000000000E+00  0.99999998245E-14  0.12500000000E+03  0.12500000000E+03 0.  0.
        -11    1    3    3    0    0  0.47926875756E+02 -0.27959580096E+02 -0.18928099586E+02  0.58625902919E+02  0.51100000000E-03 0.  1.
         23    2    1    0    0    0  0.25398743921E+02  0.22298617143E+01 -0.11546517281E+02  0.97010885377E+02  0.92885528175E+02 0.  0.
         11    1    3    3    0    0 -0.22528131835E+02  0.30189441810E+02  0.73815823050E+01  0.38384982459E+02  0.51100000000E-03 0. -1.
         22    1    1    0    0    0 -0.25398743921E+02 -0.22298617143E+01  0.11546517281E+02  0.27989114623E+02  0.00000000000E+00 0.  1.
</event>
<event>
 5    1  0.8778488E-005  0.9118800E+02  0.7818608E-02  0.1130116E+00
         25   -1    0    0    0    0  0.00000000000E+00  0.00000000000E+00  0.99999998245E-14  0.12500000000E+03  0.12500000000E+03 0.  0.
        -11    1    3    3    0    0 -0.12951831639E+02 -0.47949050466E+02  0.24060649335E+02  0.55188551622E+02  0.51100000000E-03 0. -1.
         23    2    1    0    0    0 -0.18243931633E+02 -0.21858892654E+02 -0.65789799135E+01  0.95777830227E+02  0.91211060496E+02 0.  0.
         11    1    3    3    0    0 -0.52920999942E+01  0.26090157812E+02 -0.30639629249E+02  0.40589278606E+02  0.51100000000E-03 0.  1.
         22    1    1    0    0    0  0.18243931633E+02  0.21858892654E+02  0.65789799135E+01  0.29222169773E+02  0.00000000000E+00 0. -1.
</event>
<event>
 5    1  0.8778488E-005  0.9118800E+02  0.7818608E-02  0.1130116E+00
         25   -1    0    0    0    0  0.00000000000E+00  0.00000000000E+00  0.99999998245E-14  0.12500000000E+03  0.12500000000E+03 0.  0.
        -11    1    3    3    0    0 -0.85892670552E+01 -0.40181472685E+01  0.55686937411E+02  0.56488547640E+02  0.51100000000E-03 0.  1.
         23    2    1    0    0    0  0.15040756816E+02  0.24926034307E+01  0.24321699335E+02  0.96294904703E+02  0.91916952603E+02 0.  0.
         11    1    3    3    0    0  0.23630023871E+02  0.65107506992E+01 -0.31365238076E+02  0.39806357063E+02  0.51100000000E-03 0. -1.
         22    1    1    0    0    0 -0.15040756816E+02 -0.24926034307E+01 -0.24321699335E+02  0.28705095297E+02  0.00000000000E+00 0.  1.
</event>
<event>
 5    1  0.8778488E-005  0.9118800E+02  0.7818608E-02  0.1130116E+00
         25   -1    0    0    0    0  0.00000000000E+00  0.00000000000E+00  0.99999998245E-14  0.12500000000E+03  0.12500000000E+03 0.  0.
        -11    1    3    3    0    0 -0.36672801109E+02  0.17988683779E+02 -0.28736450742E+02  0.49942674005E+02  0.51100000000E-03 0.  1.
         23    2    1    0    0    0 -0.37645056115E+01  0.31706453902E+02 -0.21997193153E+02  0.86226978088E+02  0.77017819510E+02 0.  0.
         11    1    3    3    0    0  0.32908295497E+02  0.13717770124E+02  0.67392575888E+01  0.36284304083E+02  0.51100000000E-03 0. -1.
         22    1    1    0    0    0  0.37645056115E+01 -0.31706453902E+02  0.21997193153E+02  0.38773021912E+02  0.00000000000E+00 0.  1.
</event>
<event>
 5    1  0.8778488E-005  0.9118800E+02  0.7818608E-02  0.1130116E+00
         25   -1    0    0    0    0  0.00000000000E+00  0.00000000000E+00  0.99999998245E-14  0.12500000000E+03  0.12500000000E+03 0.  0.
        -11    1    3    3    0    0  0.76735908293E+00 -0.42273992704E+02 -0.19407960329E+01  0.42325476826E+02  0.51100000000E-03 0.  1.
         23    2    1    0    0    0  0.27097951326E+02  0.40113458997E+01  0.79273260727E+01  0.96482770810E+02  0.92172082012E+02 0.  0.
         11    1    3    3    0    0  0.26330592243E+02  0.46285338603E+02  0.98681221056E+01  0.54157293984E+02  0.51100000000E-03 0. -1.
         22    1    1    0    0    0 -0.27097951326E+02 -0.40113458997E+01 -0.79273260727E+01  0.28517229190E+02  0.00000000000E+00 0. -1.
</event>
<event>
 5    1  0.8778488E-005  0.9118800E+02  0.7818608E-02  0.1130116E+00
         25   -1    0    0    0    0  0.00000000000E+00  0.00000000000E+00  0.99999998245E-14  0.12500000000E+03  0.12500000000E+03 0.  0.
        -11    1    3    3    0    0  0.11175680802E+02 -0.13322198004E+02  0.57741666242E+02  0.60303207391E+02  0.51100000000E-03 0. -1.
         23    2    1    0    0    0  0.67069644570E+00 -0.16408365508E+02  0.22931161689E+02  0.96794992133E+02  0.92594535656E+02 0.  0.
         11    1    3    3    0    0 -0.10504984356E+02 -0.30861675037E+01 -0.34810504553E+02  0.36491784742E+02  0.51100000000E-03 0.  1.
         22    1    1    0    0    0 -0.67069644570E+00  0.16408365508E+02 -0.22931161689E+02  0.28205007867E+02  0.00000000000E+00 0. -1.
</event>
<event>
 5    1  0.8778488E-005  0.9118800E+02  0.7818608E-02  0.1130116E+00
         25   -1    0    0    0    0  0.00000000000E+00  0.00000000000E+00  0.99999998245E-14  0.12500000000E+03  0.12500000000E+03 0.  0.
        -11    1    3    3    0    0  0.26040008685E+02  0.36700603716E+02  0.25249182173E+02  0.51599782617E+02  0.51100000000E-03 0.  1.
         23    2    1    0    0    0 -0.13753599193E+02  0.21579510281E+02  0.14820716773E+02  0.95428216145E+02  0.90730667562E+02 0.  0.
         11    1    3    3    0    0 -0.39793607878E+02 -0.15121093435E+02 -0.10428465401E+02  0.43828433528E+02  0.51100000000E-03 0. -1.
         22    1    1    0    0    0  0.13753599193E+02 -0.21579510281E+02 -0.14820716773E+02  0.29571783855E+02  0.00000000000E+00 0.  1.
</event>
<event>
 5    1  0.8778488E-005  0.9118800E+02  0.7818608E-02  0.1130116E+00
         25   -1    0    0    0    0  0.00000000000E+00  0.00000000000E+00  0.99999998245E-14  0.12500000000E+03  0.12500000000E+03 0.  0.
        -11    1    3    3    0    0 -0.17696648519E+02  0.30481871914E+02 -0.32801067242E+02  0.48147958386E+02  0.51100000000E-03 0. -1.
         23    2    1    0    0    0 -0.17095010615E+02 -0.14691301704E+02 -0.19372039242E+02  0.95278801538E+02  0.90524584420E+02 0.  0.
         11    1    3    3    0    0  0.60163790387E+00 -0.45173173618E+02  0.13429028001E+02  0.47130843152E+02  0.51100000000E-03 0.  1.
         22    1    1    0    0    0  0.17095010615E+02  0.14691301704E+02  0.19372039242E+02  0.29721198462E+02  0.00000000000E+00 0. -1.
</event>
<event>
 5    1  0.8778488E-005  0.9118800E+02  0.7818608E-02  0.1130116E+00
         25   -1    0    0    0    0  0.00000000000E+00  0.00000000000E+00  0.99999998245E-14  0.12500000000E+03  0.12500000000E+03 0.  0.
        -11    1    3    3    0    0 -0.37614527366E+02 -0.29838004501E+01  0.13672294257E+02  0.40133369714E+02  0.51100000000E-03 0.  1.
         23    2    1    0    0    0  0.49079385901E+01  0.29663547912E+02  0.67119627008E+01  0.94193111498E+02  0.89012796127E+02 0.  0.
         11    1    3    3    0    0  0.42522465956E+02  0.32647348362E+02 -0.69603315563E+01  0.54059741783E+02  0.51100000000E-03 0. -1.
         22    1    1    0    0    0 -0.49079385901E+01 -0.29663547912E+02 -0.67119627008E+01  0.30806888502E+02  0.00000000000E+00 0.  1.
</event>
<event>
 5    1  0.8778488E-005  0.9118800E+02  0.7818608E-02  0.1130116E+00
         25   -1    0    0    0    0  0.00000000000E+00  0.00000000000E+00  0.99999998245E-14  0.12500000000E+03  0.12500000000E+03 0.  0.
        -11    1    3    3    0    0 -0.61828850207E+00  0.36724774157E+02  0.32852969099E+02  0.49278888953E+02  0.51100000000E-03 0.  1.
         23    2    1    0    0    0 -0.27058681106E+02  0.91417873973E+01  0.64593080813E+01  0.95717459794E+02  0.91128288410E+02 0.  0.
         11    1    3    3    0    0 -0.26440392604E+02 -0.27582986760E+02 -0.26393661017E+02  0.46438570842E+02  0.51100000000E-03 0. -1.
         22    1    1    0    0    0  0.27058681106E+02 -0.91417873973E+01 -0.64593080813E+01  0.29282540206E+02  0.00000000000E+00 0.  1.
</event>
<event>
 5    1  0.8778488E-005  0.9118800E+02  0.7818608E-02  0.1130116E+00
         25   -1    0    0    0    0  0.00000000000E+00  0.00000000000E+00  0.99999998245E-14  0.12500000000E+03  0.12500000000E+03 0.  0.
        -11    1    3    3    0    0  0.30088996432E+02  0.43963874675E+02 -0.31292548865E+02  0.61785059662E+02  0.51100000000E-03 0.  1.
         23    2    1    0    0    0  0.11518787473E+02  0.18008491464E+02 -0.20245378197E+02  0.95557453099E+02  0.90908543465E+02 0.  0.
         11    1    3    3    0    0 -0.18570208960E+02 -0.25955383211E+02  0.11047170668E+02  0.33772393437E+02  0.51100000000E-03 0. -1.
         22    1    1    0    0    0 -0.11518787473E+02 -0.18008491464E+02  0.20245378197E+02  0.29442546901E+02  0.00000000000E+00 0.  1.
</event>
<event>
 5    1  0.8778488E-005  0.9118800E+02  0.7818608E-02  0.1130116E+00
         25   -1    0    0    0    0  0.00000000000E+00  0.00000000000E+00  0.99999998245E-14  0.12500000000E+03  0.12500000000E+03 0.  0.
        -11    1    3    3    0    0  0.39429955014E+02 -0.25022485218E+02  0.12276274644E+02  0.48286157833E+02  0.51100000000E-03 0.  1.
         23    2    1    0    0    0 -0.63108553043E+01 -0.28475648191E+02 -0.23399105290E+00  0.95832480627E+02  0.91285925294E+02 0.  0.
         11    1    3    3    0    0 -0.45740810319E+02 -0.34531629733E+01 -0.12510265697E+02  0.47546322794E+02  0.51100000000E-03 0. -1.
         22    1    1    0    0    0  0.63108553043E+01  0.28475648191E+02  0.23399105290E+00  0.29167519373E+02  0.00000000000E+00 0.  1.
</event>
<event>
 5    1  0.8778488E-005  0.9118800E+02  0.7818608E-02  0.1130116E+00
         25   -1    0    0    0    0  0.00000000000E+00  0.00000000000E+00  0.99999998245E-14  0.12500000000E+03  0.12500000000E+03 0.  0.
        -11    1    3    3    0    0  0.19412630631E+02  0.26399007075E+02 -0.40396428244E+01  0.33016306834E+02  0.51100000000E-03 0.  1.
         23    2    1    0    0    0 -0.11910025032E+02 -0.26363100184E+02  0.66935289248E+01  0.95307154447E+02  0.90563726799E+02 0.  0.
         11    1    3    3    0    0 -0.31322655663E+02 -0.52762107259E+02  0.10733171749E+02  0.62290847612E+02  0.51100000000E-03 0. -1.
         22    1    1    0    0    0  0.11910025032E+02  0.26363100184E+02 -0.66935289248E+01  0.29692845553E+02  0.00000000000E+00 0. -1.
</event>
<event>
 5    1  0.8778488E-005  0.9118800E+02  0.7818608E-02  0.1130116E+00
         25   -1    0    0    0    0  0.00000000000E+00  0.00000000000E+00  0.99999998245E-14  0.12500000000E+03  0.12500000000E+03 0.  0.
        -11    1    3    3    0    0 -0.48754082348E+02 -0.77371994723E+01 -0.27728535185E+02  0.56618870220E+02  0.51100000000E-03 0.  1.
         23    2    1    0    0    0 -0.26576925366E+02 -0.80514880591E+01  0.56178702781E+01  0.96667688263E+02  0.92422519257E+02 0.  0.
         11    1    3    3    0    0  0.22177156982E+02 -0.31428858680E+00  0.33346405463E+02  0.40048818043E+02  0.51100000000E-03 0. -1.
         22    1    1    0    0    0  0.26576925366E+02  0.80514880591E+01 -0.56178702781E+01  0.28332311737E+02  0.00000000000E+00 0.  1.
</event>
<event>
 5    1  0.8778488E-005  0.9118800E+02  0.7818608E-02  0.1130116E+00
         25   -1    0    0    0    0  0.00000000000E+00  0.00000000000E+00  0.99999998245E-14  0.12500000000E+03  0.12500000000E+03 0.  0.
        -11    1    3    3    0    0 -0.21420122034E+02 -0.45456987849E+02  0.24024690753E+02  0.55698699610E+02  0.51100000000E-03 0.  1.
         23    2    1    0    0    0 -0.14852395314E+02 -0.25305057303E+02 -0.84389008399E+01  0.94468792702E+02  0.89399094937E+02 0.  0.
         11    1    3    3    0    0  0.65677267206E+01  0.20151930546E+02 -0.32463591593E+02  0.38770093092E+02  0.51100000000E-03 0. -1.
         22    1    1    0    0    0  0.14852395314E+02  0.25305057303E+02  0.84389008399E+01  0.30531207298E+02  0.00000000000E+00 0.  1.
</event>
<event>
 5    1  0.8778488E-005  0.9118800E+02  0.7818608E-02  0.1130116E+00
         25   -1    0    0    0    0  0.00000000000E+00  0.00000000000E+00  0.99999998245E-14  0.12500000000E+03  0.12500000000E+03 0.  0.
        -11    1    3    3    0    0  0.22289285111E+02  0.38056934994E+02 -0.19885625166E+02  0.48379547542E+02  0.51100000000E-03 0.  1.
         23    2    1    0    0    0  0.26978761236E+02 -0.76544712773E+01 -0.75017589291E+01  0.95970344897E+02  0.91474511336E+02 0.  0.
         11    1    3    3    0    0  0.46894761251E+01 -0.45711406271E+02  0.12383866237E+02  0.47590797355E+02  0.51100000000E-03 0. -1.
         22    1    1    0    0    0 -0.26978761236E+02  0.76544712773E+01  0.75017589291E+01  0.29029655103E+02  0.00000000000E+00 0.  1.
</event>
<event>
 5    1  0.8778488E-005  0.9118800E+02  0.7818608E-02  0.1130116E+00
         25   -1    0    0    0    0  0.00000000000E+00  0.00000000000E+00  0.99999998245E-14  0.12500000000E+03  0.12500000000E+03 0.  0.
        -11    1    3    3    0    0  0.38075229549E+02 -0.35985639295E+02 -0.19223973611E+02  0.55805470183E+02  0.51100000000E-03 0.  1.
         23    2    1    0    0    0  0.13666625738E+01 -0.27255676110E+02 -0.15228153638E+02  0.93748819062E+02  0.88386677534E+02 0.  0.
         11    1    3    3    0    0 -0.36708566976E+02  0.87299631844E+01  0.39958199732E+01  0.37943348879E+02  0.51100000000E-03 0. -1.
         22    1    1    0    0    0 -0.13666625738E+01  0.27255676110E+02  0.15228153638E+02  0.31251180938E+02  0.00000000000E+00 0.  1.
</event>
<event>
 5    1  0.8778488E-005  0.9118800E+02  0.7818608E-02  0.1130116E+00
         25   -1    0    0    0    0  0.00000000000E+00  0.00000000000E+00  0.99999998245E-14  0.12500000000E+03  0.12500000000E+03 0.  0.
        -11    1    3    3    0    0 -0.54171944204E+01  0.34486447278E+02  0.10557406724E+02  0.36470808577E+02  0.51100000000E-03 0.  1.
         23    2    1    0    0    0  0.29330624200E+02  0.19630278269E+01 -0.16572424783E+02  0.91254122364E+02  0.84785202665E+02 0.  0.
         11    1    3    3    0    0  0.34747818621E+02 -0.32523419451E+02 -0.27129831507E+02  0.54783313788E+02  0.51100000000E-03 0. -1.
         22    1    1    0    0    0 -0.29330624200E+02 -0.19630278269E+01  0.16572424783E+02  0.33745877636E+02  0.00000000000E+00 0. -1.
</event>
<event>
 5    1  0.8778488E-005  0.9118800E+02  0.7818608E-02  0.1130116E+00
         25   -1    0    0    0    0  0.00000000000E+00  0.00000000000E+00  0.99999998245E-14  0.12500000000E+03  0.12500000000E+03 0.  0.
        -11    1    3    3    0    0 -0.17585262918E+02 -0.98180925448E+01  0.20491485982E+02  0.28732166837E+02  0.51100000000E-03 0.  1.
         23    2    1    0    0    0  0.71536510202E+01 -0.12768989089E+02 -0.33635591912E+02  0.88317921971E+02  0.80339781507E+02 0.  0.
         11    1    3    3    0    0  0.24738913938E+02 -0.29508965445E+01 -0.54127077894E+02  0.59585755134E+02  0.51100000000E-03 0. -1.
         22    1    1    0    0    0 -0.71536510202E+01  0.12768989089E+02  0.33635591912E+02  0.36682078029E+02  0.00000000000E+00 0. -1.
</event>
<event>
 5    1  0.8778488E-005  0.9118800E+02  0.7818608E-02  0.1130116E+00
         25   -1    0    0    0    0  0.00000000000E+00  0.00000000000E+00  0.99999998245E-14  0.12500000000E+03  0.12500000000E+03 0.  0.
        -11    1    3    3    0    0  0.49676879023E+02  0.13164323702E+02 -0.11300948575E+02  0.52619418155E+02  0.51100000000E-03 0. -1.
         23    2    1    0    0    0  0.13606267073E+02 -0.79369020825E+01  0.16008731469E+02  0.10254105075E+03  0.10005130027E+03 0.  0.
         11    1    3    3    0    0 -0.36070611950E+02 -0.21101225785E+02  0.27309680045E+02  0.49921632591E+02  0.51100000000E-03 0.  1.
         22    1    1    0    0    0 -0.13606267073E+02  0.79369020825E+01 -0.16008731469E+02  0.22458949254E+02  0.00000000000E+00 0. -1.
</event>
<event>
 5    1  0.8778488E-005  0.9118800E+02  0.7818608E-02  0.1130116E+00
         25   -1    0    0    0    0  0.00000000000E+00  0.00000000000E+00  0.99999998245E-14  0.12500000000E+03  0.12500000000E+03 0.  0.
        -11    1    3    3    0    0  0.34151573093E+02  0.16177478594E+02  0.19948855708E+02  0.42731693188E+02  0.51100000000E-03 0. -1.
         23    2    1    0    0    0 -0.20215744727E+02  0.11988662058E+02  0.14145953026E+02  0.97568041633E+02  0.93632314979E+02 0.  0.
         11    1    3    3    0    0 -0.54367317821E+02 -0.41888165366E+01 -0.58029026821E+01  0.54836348445E+02  0.51100000000E-03 0.  1.
         22    1    1    0    0    0  0.20215744727E+02 -0.11988662058E+02 -0.14145953026E+02  0.27431958367E+02  0.00000000000E+00 0. -1.
</event>
<event>
 5    1  0.8778488E-005  0.9118800E+02  0.7818608E-02  0.1130116E+00
         25   -1    0    0    0    0  0.00000000000E+00  0.00000000000E+00  0.99999998245E-14  0.12500000000E+03  0.12500000000E+03 0.  0.
        -11    1    3    3    0    0  0.16092377807E+02  0.33998792783E+02 -0.31278120248E+02  0.48920377561E+02  0.51100000000E-03 0. -1.
         23    2    1    0    0    0  0.25429647639E+02  0.11283707042E+02  0.87097193989E+01  0.95847843379E+02  0.91306959454E+02 0.  0.
         11    1    3    3    0    0  0.93372698316E+01 -0.22715085742E+02  0.39987839647E+02  0.46927465818E+02  0.51100000000E-03 0.  1.
         22    1    1    0    0    0 -0.25429647639E+02 -0.11283707042E+02 -0.87097193989E+01  0.29152156621E+02  0.00000000000E+00 0. -1.
</event>
<event>
 5    1  0.8778488E-005  0.9118800E+02  0.7818608E-02  0.1130116E+00
         25   -1    0    0    0    0  0.00000000000E+00  0.00000000000E+00  0.99999998245E-14  0.12500000000E+03  0.12500000000E+03 0.  0.
        -11    1    3    3    0    0  0.19142665965E+02 -0.27258602774E+02  0.69974485208E+01  0.34035824825E+02  0.51100000000E-03 0.  1.
         23    2    1    0    0    0  0.82074411353E+01  0.30600561988E+02  0.47647105452E+01  0.92961601936E+02  0.87266262003E+02 0.  0.
         11    1    3    3    0    0 -0.10935224830E+02  0.57859164761E+02 -0.22327379757E+01  0.58925777111E+02  0.51100000000E-03 0. -1.
         22    1    1    0    0    0 -0.82074411353E+01 -0.30600561988E+02 -0.47647105452E+01  0.32038398064E+02  0.00000000000E+00 0. -1.
</event>
<event>
 5    1  0.8778488E-005  0.9118800E+02  0.7818608E-02  0.1130116E+00
         25   -1    0    0    0    0  0.00000000000E+00  0.00000000000E+00  0.99999998245E-14  0.12500000000E+03  0.12500000000E+03 0.  0.
        -11    1    3    3    0    0 -0.36704696836E+02 -0.10265383481E+02 -0.23633179823E+02  0.44845736215E+02  0.51100000000E-03 0.  1.
         23    2    1    0    0    0 -0.94214220646E+01 -0.25173832231E+02  0.14828329126E+02  0.94302046199E+02  0.89165641083E+02 0.  0.
         11    1    3    3    0    0  0.27283274772E+02 -0.14908448750E+02  0.38461508948E+02  0.49456309984E+02  0.51100000000E-03 0. -1.
         22    1    1    0    0    0  0.94214220646E+01  0.25173832231E+02 -0.14828329126E+02  0.30697953801E+02  0.00000000000E+00 0. -1.
</event>
<event>
 5    1  0.8778488E-005  0.9118800E+02  0.7818608E-02  0.1130116E+00
         25   -1    0    0    0    0  0.00000000000E+00  0.00000000000E+00  0.99999998245E-14  0.12500000000E+03  0.12500000000E+03 0.  0.
        -11    1    3    3    0    0 -0.36273686377E+01  0.20543732556E+02 -0.18787266620E+02  0.28074261128E+02  0.51100000000E-03 0. -1.
         23    2    1    0    0    0 -0.44820845994E+02 -0.72293345813E+01 -0.84288937145E+01  0.78824056443E+02  0.63882815457E+02 0.  0.
         11    1    3    3    0    0 -0.41193477357E+02 -0.27773067138E+02  0.10358372906E+02  0.50749795315E+02  0.51100000000E-03 0.  1.
         22    1    1    0    0    0  0.44820845994E+02  0.72293345813E+01  0.84288937145E+01  0.46175943557E+02  0.00000000000E+00 0.  1.
</event>
<event>
 5    1  0.8778488E-005  0.9118800E+02  0.7818608E-02  0.1130116E+00
         25   -1    0    0    0    0  0.00000000000E+00  0.00000000000E+00  0.99999998245E-14  0.12500000000E+03  0.12500000000E+03 0.  0.
        -11    1    3    3    0    0 -0.20321374963E+02 -0.29747722718E+02  0.14797242388E+02  0.38946677263E+02  0.51100000000E-03 0. -1.
         23    2    1    0    0    0 -0.14531697838E+02  0.49502535112E+01 -0.27222303239E+02  0.93747335385E+02  0.88384579233E+02 0.  0.
         11    1    3    3    0    0  0.57896771249E+01  0.34697976229E+02 -0.42019545627E+02  0.54800658122E+02  0.51100000000E-03 0.  1.
         22    1    1    0    0    0  0.14531697838E+02 -0.49502535112E+01  0.27222303239E+02  0.31252664615E+02  0.00000000000E+00 0.  1.
</event>
<event>
 5    1  0.8778488E-005  0.9118800E+02  0.7818608E-02  0.1130116E+00
         25   -1    0    0    0    0  0.00000000000E+00  0.00000000000E+00  0.99999998245E-14  0.12500000000E+03  0.12500000000E+03 0.  0.
        -11    1    3    3    0    0  0.25233910311E+02 -0.44246770173E+02 -0.17430138697E+01  0.50966312383E+02  0.51100000000E-03 0.  1.
         23    2    1    0    0    0  0.32340311619E+02 -0.34956881897E+01  0.13104593397E+01  0.92444925200E+02  0.86523010235E+02 0.  0.
         11    1    3    3    0    0  0.71064013077E+01  0.40751081983E+02  0.30534732094E+01  0.41478612817E+02  0.51100000000E-03 0. -1.
         22    1    1    0    0    0 -0.32340311619E+02  0.34956881897E+01 -0.13104593397E+01  0.32555074800E+02  0.00000000000E+00 0.  1.
</event>
<event>
 5    1  0.8778488E-005  0.9118800E+02  0.7818608E-02  0.1130116E+00
         25   -1    0    0    0    0  0.00000000000E+00  0.00000000000E+00  0.99999998245E-14  0.12500000000E+03  0.12500000000E+03 0.  0.
        -11    1    3    3    0    0  0.48459562813E+01  0.44814197236E+02 -0.11373893696E+02  0.46488289109E+02  0.51100000000E-03 0.  1.
         23    2    1    0    0    0 -0.77538487016E+00  0.13891605284E+02  0.26115653586E+02  0.95409371733E+02  0.90704701825E+02 0.  0.
         11    1    3    3    0    0 -0.56213411515E+01 -0.30922591953E+02  0.37489547282E+02  0.48921082624E+02  0.51100000000E-03 0. -1.
         22    1    1    0    0    0  0.77538487016E+00 -0.13891605284E+02 -0.26115653586E+02  0.29590628267E+02  0.00000000000E+00 0. -1.
</event>
<event>
 5    1  0.8778488E-005  0.9118800E+02  0.7818608E-02  0.1130116E+00
         25   -1    0    0    0    0  0.00000000000E+00  0.00000000000E+00  0.99999998245E-14  0.12500000000E+03  0.12500000000E+03 0.  0.
        -11    1    3    3    0    0  0.38654061774E+02  0.35322248603E+02  0.23416021269E+02  0.57359461210E+02  0.51100000000E-03 0.  1.
         23    2    1    0    0    0  0.26406287733E+02  0.81204976796E+00  0.60034491343E+01  0.97907697437E+02  0.94084665910E+02 0.  0.
         11    1    3    3    0    0 -0.12247774041E+02 -0.34510198835E+02 -0.17412572134E+02  0.40548236228E+02  0.51100000000E-03 0. -1.
         22    1    1    0    0    0 -0.26406287733E+02 -0.81204976796E+00 -0.60034491343E+01  0.27092302563E+02  0.00000000000E+00 0.  1.
</event>
<event>
 5    1  0.8778488E-005  0.9118800E+02  0.7818608E-02  0.1130116E+00
         25   -1    0    0    0    0  0.00000000000E+00  0.00000000000E+00  0.99999998245E-14  0.12500000000E+03  0.12500000000E+03 0.  0.
        -11    1    3    3    0    0  0.27411963156E+02  0.12900686821E+02  0.49281352909E+02  0.57848899638E+02  0.51100000000E-03 0.  1.
         23    2    1    0    0    0  0.36773515988E+01 -0.70348023800E+01  0.29101899993E+02  0.94834921805E+02  0.89909568185E+02 0.  0.
         11    1    3    3    0    0 -0.23734611557E+02 -0.19935489201E+02 -0.20179452916E+02  0.36986022166E+02  0.51100000000E-03 0. -1.
         22    1    1    0    0    0 -0.36773515988E+01  0.70348023800E+01 -0.29101899993E+02  0.30165078195E+02  0.00000000000E+00 0.  1.
</event>
<event>
 5    1  0.8778488E-005  0.9118800E+02  0.7818608E-02  0.1130116E+00
         25   -1    0    0    0    0  0.00000000000E+00  0.00000000000E+00  0.99999998245E-14  0.12500000000E+03  0.12500000000E+03 0.  0.
        -11    1    3    3    0    0  0.27557659963E+02  0.22164745396E+02  0.48948147642E+02  0.60387264542E+02  0.51100000000E-03 0.  1.
         23    2    1    0    0    0  0.19609008972E+02  0.13930356782E+02  0.13983833555E+02  0.97177065686E+02  0.93108895502E+02 0.  0.
         11    1    3    3    0    0 -0.79486509907E+01 -0.82343886138E+01 -0.34964314086E+02  0.36789801144E+02  0.51100000000E-03 0. -1.
         22    1    1    0    0    0 -0.19609008972E+02 -0.13930356782E+02 -0.13983833555E+02  0.27822934314E+02  0.00000000000E+00 0.  1.
</event>
<event>
 5    1  0.8778488E-005  0.9118800E+02  0.7818608E-02  0.1130116E+00
         25   -1    0    0    0    0  0.00000000000E+00  0.00000000000E+00  0.99999998245E-14  0.12500000000E+03  0.12500000000E+03 0.  0.
        -11    1    3    3    0    0  0.50190710370E+02  0.15990549356E+02 -0.34839624883E+01  0.52791505671E+02  0.51100000000E-03 0.  1.
         23    2    1    0    0    0  0.30768946362E+02 -0.82920655388E+01  0.15852793649E+02  0.89407901473E+02  0.82018140482E+02 0.  0.
         11    1    3    3    0    0 -0.19421764008E+02 -0.24282614895E+02  0.19336756137E+02  0.36616395802E+02  0.51100000000E-03 0. -1.
         22    1    1    0    0    0 -0.30768946362E+02  0.82920655388E+01 -0.15852793649E+02  0.35592098527E+02  0.00000000000E+00 0.  1.
</event>
<event>
 5    1  0.8778488E-005  0.9118800E+02  0.7818608E-02  0.1130116E+00
         25   -1    0    0    0    0  0.00000000000E+00  0.00000000000E+00  0.99999998245E-14  0.12500000000E+03  0.12500000000E+03 0.  0.
        -11    1    3    3    0    0  0.10510727177E+02 -0.32120579687E+02 -0.40479629969E+02  0.52733362001E+02  0.51100000000E-03 0.  1.
         23    2    1    0    0    0  0.15121404085E+02  0.76095354492E+01 -0.23145146623E+02  0.96324928885E+02  0.91957774121E+02 0.  0.
         11    1    3    3    0    0  0.46106769080E+01  0.39730115136E+02  0.17334483346E+02  0.43591566884E+02  0.51100000000E-03 0. -1.
         22    1    1    0    0    0 -0.15121404085E+02 -0.76095354492E+01  0.23145146623E+02  0.28675071115E+02  0.00000000000E+00 0.  1.
</event>
<event>
 5    1  0.8778488E-005  0.9118800E+02  0.7818608E-02  0.1130116E+00
         25   -1    0    0    0    0  0.00000000000E+00  0.00000000000E+00  0.99999998245E-14  0.12500000000E+03  0.12500000000E+03 0.  0.
        -11    1    3    3    0    0  0.71509914796E+01 -0.32461509025E+02 -0.96363347655E-01  0.33239968915E+02  0.51100000000E-03 0. -1.
         23    2    1    0    0    0 -0.11341589401E+02  0.27076223606E+02 -0.15891363542E+01  0.95601379466E+02  0.90968922532E+02 0.  0.
         11    1    3    3    0    0 -0.18492580881E+02  0.59537732631E+02 -0.14927730065E+01  0.62361410552E+02  0.51100000000E-03 0.  1.
         22    1    1    0    0    0  0.11341589401E+02 -0.27076223606E+02  0.15891363542E+01  0.29398620534E+02  0.00000000000E+00 0.  1.
</event>
<event>
 5    1  0.8778488E-005  0.9118800E+02  0.7818608E-02  0.1130116E+00
         25   -1    0    0    0    0  0.00000000000E+00  0.00000000000E+00  0.99999998245E-14  0.12500000000E+03  0.12500000000E+03 0.  0.
        -11    1    3    3    0    0  0.79262051905E+01  0.10803592281E+02 -0.39773763081E+02  0.41970162792E+02  0.51100000000E-03 0.  1.
         23    2    1    0    0    0  0.24215913125E+02 -0.19772447276E+02 -0.13475074533E+01  0.93708213600E+02  0.88329232987E+02 0.  0.
         11    1    3    3    0    0  0.16289707934E+02 -0.30576039558E+02  0.38426255628E+02  0.51738050808E+02  0.51100000000E-03 0. -1.
         22    1    1    0    0    0 -0.24215913125E+02  0.19772447276E+02  0.13475074533E+01  0.31291786400E+02  0.00000000000E+00 0. -1.
</event>
<event>
 5    1  0.8778488E-005  0.9118800E+02  0.7818608E-02  0.1130116E+00
         25   -1    0    0    0    0  0.00000000000E+00  0.00000000000E+00  0.99999998245E-14  0.12500000000E+03  0.12500000000E+03 0.  0.
        -11    1    3    3    0    0 -0.17574648424E+02  0.27301936512E+02  0.41785408918E+02  0.52917713511E+02  0.51100000000E-03 0. -1.
         23    2    1    0    0    0  0.16267659443E+02  0.16524142509E+02  0.17639470286E+02  0.95865227967E+02  0.91330756002E+02 0.  0.
         11    1    3    3    0    0  0.33842307867E+02 -0.10777794003E+02 -0.24145938632E+02  0.42947514456E+02  0.51100000000E-03 0.  1.
         22    1    1    0    0    0 -0.16267659443E+02 -0.16524142509E+02 -0.17639470286E+02  0.29134772033E+02  0.00000000000E+00 0. -1.
</event>
<event>
 5    1  0.8778488E-005  0.9118800E+02  0.7818608E-02  0.1130116E+00
         25   -1    0    0    0    0  0.00000000000E+00  0.00000000000E+00  0.99999998245E-14  0.12500000000E+03  0.12500000000E+03 0.  0.
        -11    1    3    3    0    0 -0.28294073616E+02  0.29616849561E+02  0.41947721525E+02  0.58628693667E+02  0.51100000000E-03 0. -1.
         23    2    1    0    0    0 -0.21662679865E+02  0.25283144141E+02  0.11995653408E+02  0.89610668596E+02  0.82326588348E+02 0.  0.
         11    1    3    3    0    0  0.66313937515E+01 -0.43337054201E+01 -0.29952068117E+02  0.30981974929E+02  0.51100000000E-03 0.  1.
         22    1    1    0    0    0  0.21662679865E+02 -0.25283144141E+02 -0.11995653408E+02  0.35389331404E+02  0.00000000000E+00 0. -1.
</event>
<event>
 5    1  0.8778488E-005  0.9118800E+02  0.7818608E-02  0.1130116E+00
         25   -1    0    0    0    0  0.00000000000E+00  0.00000000000E+00  0.99999998245E-14  0.12500000000E+03  0.12500000000E+03 0.  0.
        -11    1    3    3    0    0  0.87539898600E+01 -0.65821070110E+01  0.45638850410E+02  0.46934647524E+02  0.51100000000E-03 0.  1.
         23    2    1    0    0    0  0.23842949189E+02 -0.17684711996E+02  0.10535711256E+01  0.95295702726E+02  0.90547919256E+02 0.  0.
         11    1    3    3    0    0  0.15088959329E+02 -0.11102604985E+02 -0.44585279285E+02  0.48361055202E+02  0.51100000000E-03 0. -1.
         22    1    1    0    0    0 -0.23842949189E+02  0.17684711996E+02 -0.10535711256E+01  0.29704297274E+02  0.00000000000E+00 0. -1.
</event>
<event>
 5    1  0.8778488E-005  0.9118800E+02  0.7818608E-02  0.1130116E+00
         25   -1    0    0    0    0  0.00000000000E+00  0.00000000000E+00  0.99999998245E-14  0.12500000000E+03  0.12500000000E+03 0.  0.
        -11    1    3    3    0    0 -0.19783800756E+02  0.21866078847E+02  0.49942439866E+02  0.57998029937E+02  0.51100000000E-03 0.  1.
         23    2    1    0    0    0 -0.17709059804E+02  0.18692452834E+02  0.11208505322E+02  0.96917101580E+02  0.92759233475E+02 0.  0.
         11    1    3    3    0    0  0.20747409516E+01 -0.31736260124E+01 -0.38733934544E+02  0.38919071643E+02  0.51100000000E-03 0. -1.
         22    1    1    0    0    0  0.17709059804E+02 -0.18692452834E+02 -0.11208505322E+02  0.28082898420E+02  0.00000000000E+00 0.  1.
</event>
<event>
 4    1  0.8778488E-005  0.9118800E+02  0.7818608E-02  0.1130116E+00
         25   -1    0    0    0    0  0.00000000000E+00  0.00000000000E+00  0.99999998245E-14  0.12500000000E+03  0.12500000000E+03 0.  0.
        -11    1    1    0    0    0  0.22363366752E+02  0.38092185108E+02 -0.63951402060E+00  0.44176280029E+02  0.51100000000E-03 0.  1.
         11    1    1    0    0    0  0.19463663824E+02 -0.11553313224E+02 -0.16928644991E+02  0.28264682510E+02  0.51100000000E-03 0. -1.
         22    1    1    0    0    0 -0.41827030576E+02 -0.26538871884E+02  0.17568159012E+02  0.52559037460E+02  0.00000000000E+00 0.  1.
</event>
<event>
 5    1  0.8778488E-005  0.9118800E+02  0.7818608E-02  0.1130116E+00
         25   -1    0    0    0    0  0.00000000000E+00  0.00000000000E+00  0.99999998245E-14  0.12500000000E+03  0.12500000000E+03 0.  0.
        -11    1    3    3    0    0 -0.22126102098E+02  0.16918655404E+02  0.25159109892E+02  0.37533799508E+02  0.51100000000E-03 0.  1.
         23    2    1    0    0    0  0.78938148251E+01 -0.28007962171E+02  0.37236695006E+01  0.95663606697E+02  0.91054388551E+02 0.  0.
         11    1    3    3    0    0  0.30019916923E+02 -0.44926617575E+02 -0.21435440391E+02  0.58129807189E+02  0.51100000000E-03 0. -1.
         22    1    1    0    0    0 -0.78938148251E+01  0.28007962171E+02 -0.37236695006E+01  0.29336393303E+02  0.00000000000E+00 0. -1.
</event>
<event>
 5    1  0.8778488E-005  0.9118800E+02  0.7818608E-02  0.1130116E+00
         25   -1    0    0    0    0  0.00000000000E+00  0.00000000000E+00  0.99999998245E-14  0.12500000000E+03  0.12500000000E+03 0.  0.
        -11    1    3    3    0    0 -0.29431851907E+02  0.26663852403E+02 -0.37919313608E+02  0.54909646479E+02  0.51100000000E-03 0.  1.
         23    2    1    0    0    0 -0.96650204330E+01 -0.66754749694E+01 -0.27578632749E+02  0.95024083495E+02  0.90172173500E+02 0.  0.
         11    1    3    3    0    0  0.19766831474E+02 -0.33339327373E+02  0.10340680859E+02  0.40114437016E+02  0.51100000000E-03 0. -1.
         22    1    1    0    0    0  0.96650204330E+01  0.66754749694E+01  0.27578632749E+02  0.29975916505E+02  0.00000000000E+00 0. -1.
</event>
<event>
 5    1  0.8778488E-005  0.9118800E+02  0.7818608E-02  0.1130116E+00
         25   -1    0    0    0    0  0.00000000000E+00  0.00000000000E+00  0.99999998245E-14  0.12500000000E+03  0.12500000000E+03 0.  0.
        -11    1    3    3    0    0 -0.20937044615E+02  0.28418879040E+02 -0.21377668771E+02  0.41267387189E+02  0.51100000000E-03 0. -1.
         23    2    1    0    0    0 -0.21238894900E+02 -0.83485456683E+01  0.18582993905E+02  0.95570142138E+02  0.90925989323E+02 0.  0.
         11    1    3    3    0    0 -0.30185028502E+00 -0.36767424708E+02  0.39960662676E+02  0.54302754949E+02  0.51100000000E-03 0.  1.
         22    1    1    0    0    0  0.21238894900E+02  0.83485456683E+01 -0.18582993905E+02  0.29429857862E+02  0.00000000000E+00 0.  1.
</event>
<event>
 5    1  0.8778488E-005  0.9118800E+02  0.7818608E-02  0.1130116E+00
         25   -1    0    0    0    0  0.00000000000E+00  0.00000000000E+00  0.99999998245E-14  0.12500000000E+03  0.12500000000E+03 0.  0.
        -11    1    3    3    0    0 -0.54685961709E+02  0.93153186961E+01  0.88462315127E+01  0.56174597308E+02  0.51100000000E-03 0. -1.
         23    2    1    0    0    0 -0.16558324524E+02  0.22450298760E+02  0.46486974269E+01  0.96719186482E+02  0.92492143562E+02 0.  0.
         11    1    3    3    0    0  0.38127637186E+02  0.13134980064E+02 -0.41975340858E+01  0.40544589174E+02  0.51100000000E-03 0.  1.
         22    1    1    0    0    0  0.16558324524E+02 -0.22450298760E+02 -0.46486974269E+01  0.28280813518E+02  0.00000000000E+00 0. -1.
</event>
<event>
 5    1  0.8778488E-005  0.9118800E+02  0.7818608E-02  0.1130116E+00
         25   -1    0    0    0    0  0.00000000000E+00  0.00000000000E+00  0.99999998245E-14  0.12500000000E+03  0.12500000000E+03 0.  0.
        -11    1    3    3    0    0  0.19475652556E+02  0.94948636471E+01 -0.31594636676E+02  0.38310240735E+02  0.51100000000E-03 0.  1.
         23    2    1    0    0    0 -0.10183497081E+02 -0.16410633360E+02  0.15883255397E+02  0.99994194632E+02  0.96817088667E+02 0.  0.
         11    1    3    3    0    0 -0.29659149637E+02 -0.25905497007E+02  0.47477892074E+02  0.61683953898E+02  0.51100000000E-03 0. -1.
         22    1    1    0    0    0  0.10183497081E+02  0.16410633360E+02 -0.15883255397E+02  0.25005805368E+02  0.00000000000E+00 0. -1.
</event>
<event>
 5    1  0.8778488E-005  0.9118800E+02  0.7818608E-02  0.1130116E+00
         25   -1    0    0    0    0  0.00000000000E+00  0.00000000000E+00  0.99999998245E-14  0.12500000000E+03  0.12500000000E+03 0.  0.
        -11    1    3    3    0    0 -0.31684052527E+02 -0.31607512910E+01 -0.34905507773E+02  0.47246841232E+02  0.51100000000E-03 0.  1.
         23    2    1    0    0    0 -0.63466542124E+01  0.24687480343E+02  0.12949268880E+01  0.99476901814E+02  0.96146895184E+02 0.  0.
         11    1    3    3    0    0  0.25337398314E+02  0.27848231634E+02  0.36200434661E+02  0.52230060582E+02  0.51100000000E-03 0. -1.
         22    1    1    0    0    0  0.63466542124E+01 -0.24687480343E+02 -0.12949268880E+01  0.25523098186E+02  0.00000000000E+00 0. -1.
</event>
<event>
 5    1  0.8778488E-005  0.9118800E+02  0.7818608E-02  0.1130116E+00
         25   -1    0    0    0    0  0.00000000000E+00  0.00000000000E+00  0.99999998245E-14  0.12500000000E+03  0.12500000000E+03 0.  0.
        -11    1    3    3    0    0 -0.97405129845E+01 -0.22671392079E+02  0.29702109931E+02  0.38614569098E+02  0.51100000000E-03 0.  1.
         23    2    1    0    0    0 -0.84738346711E+01  0.70621116608E+01 -0.23198842298E+02  0.99312151139E+02  0.95932464707E+02 0.  0.
         11    1    3    3    0    0  0.12666783134E+01  0.29733503740E+02 -0.52900952229E+02  0.60697582041E+02  0.51100000000E-03 0. -1.
         22    1    1    0    0    0  0.84738346711E+01 -0.70621116608E+01  0.23198842298E+02  0.25687848861E+02  0.00000000000E+00 0. -1.
</event>
<event>
 5    1  0.8778488E-005  0.9118800E+02  0.7818608E-02  0.1130116E+00
         25   -1    0    0    0    0  0.00000000000E+00  0.00000000000E+00  0.99999998245E-14  0.12500000000E+03  0.12500000000E+03 0.  0.
        -11    1    3    3    0    0  0.37862154567E+02  0.25745704821E+02 -0.21483039673E+02  0.50575735873E+02  0.51100000000E-03 0. -1.
         23    2    1    0    0    0  0.37079478798E+01  0.26394833514E+02  0.95096827431E+01  0.96700350186E+02  0.92466683441E+02 0.  0.
         11    1    3    3    0    0 -0.34154206687E+02  0.64912869301E+00  0.30992722416E+02  0.46124614313E+02  0.51100000000E-03 0.  1.
         22    1    1    0    0    0 -0.37079478798E+01 -0.26394833514E+02 -0.95096827431E+01  0.28299649814E+02  0.00000000000E+00 0.  1.
</event>
<event>
 5    1  0.8778488E-005  0.9118800E+02  0.7818608E-02  0.1130116E+00
         25   -1    0    0    0    0  0.00000000000E+00  0.00000000000E+00  0.99999998245E-14  0.12500000000E+03  0.12500000000E+03 0.  0.
        -11    1    3    3    0    0  0.14922688972E+02 -0.49471337638E+02  0.41410709578E+01  0.51838676322E+02  0.51100000000E-03 0. -1.
         23    2    1    0    0    0  0.16483879470E+01 -0.18634696690E+02 -0.23243514223E+02  0.95163276705E+02  0.90364922267E+02 0.  0.
         11    1    3    3    0    0 -0.13274301025E+02  0.30836640948E+02 -0.27384585180E+02  0.43324600384E+02  0.51100000000E-03 0.  1.
         22    1    1    0    0    0 -0.16483879470E+01  0.18634696690E+02  0.23243514223E+02  0.29836723295E+02  0.00000000000E+00 0. -1.
</event>
<event>
 5    1  0.8778488E-005  0.9118800E+02  0.7818608E-02  0.1130116E+00
         25   -1    0    0    0    0  0.00000000000E+00  0.00000000000E+00  0.99999998245E-14  0.12500000000E+03  0.12500000000E+03 0.  0.
        -11    1    3    3    0    0 -0.49251690094E+02 -0.32015722767E+02 -0.15365208523E+02  0.60719231835E+02  0.51100000000E-03 0. -1.
         23    2    1    0    0    0 -0.18199645248E+02 -0.14822564799E+02 -0.16626626668E+02  0.96235782146E+02  0.91836515268E+02 0.  0.
         11    1    3    3    0    0  0.31052044845E+02  0.17193157969E+02 -0.12614181446E+01  0.35516550311E+02  0.51100000000E-03 0.  1.
         22    1    1    0    0    0  0.18199645248E+02  0.14822564799E+02  0.16626626668E+02  0.28764217854E+02  0.00000000000E+00 0. -1.
</event>
<event>
 5    1  0.8778488E-005  0.9118800E+02  0.7818608E-02  0.1130116E+00
         25   -1    0    0    0    0  0.00000000000E+00  0.00000000000E+00  0.99999998245E-14  0.12500000000E+03  0.12500000000E+03 0.  0.
        -11    1    3    3    0    0 -0.30368147965E+02 -0.12020668610E+02 -0.22318340296E+02  0.39557922070E+02  0.51100000000E-03 0.  1.
         23    2    1    0    0    0 -0.30334081219E+01 -0.16845425443E+02  0.25168876483E+02  0.94562485867E+02  0.89530003165E+02 0.  0.
         11    1    3    3    0    0  0.27334739843E+02 -0.48247568334E+01  0.47487216779E+02  0.55004563797E+02  0.51100000000E-03 0. -1.
         22    1    1    0    0    0  0.30334081219E+01  0.16845425443E+02 -0.25168876483E+02  0.30437514133E+02  0.00000000000E+00 0. -1.
</event>
<event>
 5    1  0.8778488E-005  0.9118800E+02  0.7818608E-02  0.1130116E+00
         25   -1    0    0    0    0  0.00000000000E+00  0.00000000000E+00  0.99999998245E-14  0.12500000000E+03  0.12500000000E+03 0.  0.
        -11    1    3    3    0    0 -0.84758702075E+01 -0.32230095771E+02  0.55384176024E+01  0.33783035965E+02  0.51100000000E-03 0.  1.
         23    2    1    0    0    0 -0.52587386592E+01  0.28841922889E+02 -0.29857739316E+01  0.95530936659E+02  0.90872075825E+02 0.  0.
         11    1    3    3    0    0  0.32171315483E+01  0.61072018660E+02 -0.85241915340E+01  0.61747900695E+02  0.51100000000E-03 0. -1.
         22    1    1    0    0    0  0.52587386592E+01 -0.28841922889E+02  0.29857739316E+01  0.29469063341E+02  0.00000000000E+00 0. -1.
</event>
<event>
 5    1  0.8778488E-005  0.9118800E+02  0.7818608E-02  0.1130116E+00
         25   -1    0    0    0    0  0.00000000000E+00  0.00000000000E+00  0.99999998245E-14  0.12500000000E+03  0.12500000000E+03 0.  0.
        -11    1    3    3    0    0 -0.39354863880E+02 -0.36924117205E+02 -0.13446730622E+02  0.55614838910E+02  0.51100000000E-03 0. -1.
         23    2    1    0    0    0 -0.25395063993E+02  0.12125758064E+00 -0.15485582468E+02  0.95255635106E+02  0.90492589622E+02 0.  0.
         11    1    3    3    0    0  0.13959799887E+02  0.37045374785E+02 -0.20388518457E+01  0.39640796195E+02  0.51100000000E-03 0.  1.
         22    1    1    0    0    0  0.25395063993E+02 -0.12125758064E+00  0.15485582468E+02  0.29744364894E+02  0.00000000000E+00 0. -1.
</event>
<event>
 5    1  0.8778488E-005  0.9118800E+02  0.7818608E-02  0.1130116E+00
         25   -1    0    0    0    0  0.00000000000E+00  0.00000000000E+00  0.99999998245E-14  0.12500000000E+03  0.12500000000E+03 0.  0.
        -11    1    3    3    0    0 -0.27199244364E+02 -0.29192424242E+01 -0.23435998029E+02  0.36021755567E+02  0.51100000000E-03 0. -1.
         23    2    1    0    0    0  0.26919992943E+02 -0.81673678757E+01  0.34121163037E+01  0.96662137417E+02  0.92415011521E+02 0.  0.
         11    1    3    3    0    0  0.54119237307E+02 -0.52481254515E+01  0.26848114332E+02  0.60640381850E+02  0.51100000000E-03 0.  1.
         22    1    1    0    0    0 -0.26919992943E+02  0.81673678757E+01 -0.34121163037E+01  0.28337862583E+02  0.00000000000E+00 0.  1.
</event>
<event>
 5    1  0.8778488E-005  0.9118800E+02  0.7818608E-02  0.1130116E+00
         25   -1    0    0    0    0  0.00000000000E+00  0.00000000000E+00  0.99999998245E-14  0.12500000000E+03  0.12500000000E+03 0.  0.
        -11    1    3    3    0    0  0.49735077874E+01 -0.15942242127E+02 -0.24190337497E+02  0.29394953516E+02  0.51100000000E-03 0.  1.
         23    2    1    0    0    0 -0.78406673513E+01  0.62023354493E+01  0.32181680624E+02  0.91301252289E+02  0.84854658518E+02 0.  0.
         11    1    3    3    0    0 -0.12814175139E+02  0.22144577576E+02  0.56372018121E+02  0.61906298773E+02  0.51100000000E-03 0. -1.
         22    1    1    0    0    0  0.78406673513E+01 -0.62023354493E+01 -0.32181680624E+02  0.33698747711E+02  0.00000000000E+00 0. -1.
</event>
<event>
 5    1  0.8778488E-005  0.9118800E+02  0.7818608E-02  0.1130116E+00
         25   -1    0    0    0    0  0.00000000000E+00  0.00000000000E+00  0.99999998245E-14  0.12500000000E+03  0.12500000000E+03 0.  0.
        -11    1    3    3    0    0 -0.44175990545E+02  0.27640829135E+02 -0.12902462163E+02  0.53684328309E+02  0.51100000000E-03 0.  1.
         23    2    1    0    0    0 -0.31023486010E+02 -0.58744976287E+01  0.34686097957E+01  0.93235276477E+02  0.87657396261E+02 0.  0.
         11    1    3    3    0    0  0.13152504536E+02 -0.33515326763E+02  0.16371071959E+02  0.39550948168E+02  0.51100000000E-03 0. -1.
         22    1    1    0    0    0  0.31023486010E+02  0.58744976287E+01 -0.34686097957E+01  0.31764723523E+02  0.00000000000E+00 0.  1.
</event>
<event>
 5    1  0.8778488E-005  0.9118800E+02  0.7818608E-02  0.1130116E+00
         25   -1    0    0    0    0  0.00000000000E+00  0.00000000000E+00  0.99999998245E-14  0.12500000000E+03  0.12500000000E+03 0.  0.
        -11    1    3    3    0    0 -0.24630090964E+02 -0.30472653140E+02 -0.29694475952E+02  0.49162850534E+02  0.51100000000E-03 0.  1.
         23    2    1    0    0    0 -0.30537802248E+00 -0.28487026327E+02  0.91846976472E+01  0.95067365710E+02  0.90232152958E+02 0.  0.
         11    1    3    3    0    0  0.24324712942E+02  0.19856268132E+01  0.38879173599E+02  0.45904515176E+02  0.51100000000E-03 0. -1.
         22    1    1    0    0    0  0.30537802248E+00  0.28487026327E+02 -0.91846976472E+01  0.29932634290E+02  0.00000000000E+00 0.  1.
</event>
<event>
 5    1  0.8778488E-005  0.9118800E+02  0.7818608E-02  0.1130116E+00
         25   -1    0    0    0    0  0.00000000000E+00  0.00000000000E+00  0.99999998245E-14  0.12500000000E+03  0.12500000000E+03 0.  0.
        -11    1    3    3    0    0 -0.23430449929E+02  0.24717452751E+02 -0.82182852008E+01  0.35035391624E+02  0.51100000000E-03 0.  1.
         23    2    1    0    0    0  0.18657314338E+00 -0.29626565350E+02  0.25628571135E+01  0.95262205520E+02  0.90501665067E+02 0.  0.
         11    1    3    3    0    0  0.23617023073E+02 -0.54344018100E+02  0.10781142314E+02  0.60226813895E+02  0.51100000000E-03 0. -1.
         22    1    1    0    0    0 -0.18657314338E+00  0.29626565350E+02 -0.25628571135E+01  0.29737794480E+02  0.00000000000E+00 0. -1.
</event>
<event>
 5    1  0.8778488E-005  0.9118800E+02  0.7818608E-02  0.1130116E+00
         25   -1    0    0    0    0  0.00000000000E+00  0.00000000000E+00  0.99999998245E-14  0.12500000000E+03  0.12500000000E+03 0.  0.
        -11    1    3    3    0    0 -0.31693243518E+02  0.23866834294E+02  0.17842813745E+02  0.43502338633E+02  0.51100000000E-03 0. -1.
         23    2    1    0    0    0  0.17235874804E+02  0.23729300786E+02 -0.25251138935E+00  0.95670512141E+02  0.91063867891E+02 0.  0.
         11    1    3    3    0    0  0.48929118322E+02 -0.13753350743E+00 -0.18095325134E+02  0.52168173508E+02  0.51100000000E-03 0.  1.
         22    1    1    0    0    0 -0.17235874804E+02 -0.23729300786E+02  0.25251138935E+00  0.29329487859E+02  0.00000000000E+00 0.  1.
</event>
<event>
 5    1  0.8778488E-005  0.9118800E+02  0.7818608E-02  0.1130116E+00
         25   -1    0    0    0    0  0.00000000000E+00  0.00000000000E+00  0.99999998245E-14  0.12500000000E+03  0.12500000000E+03 0.  0.
        -11    1    3    3    0    0 -0.25029737967E+01 -0.39563704832E+02 -0.90096176400E+01  0.40653718503E+02  0.51100000000E-03 0. -1.
         23    2    1    0    0    0 -0.21341893223E+02  0.42573878525E+01  0.19121747832E+02  0.96030308979E+02  0.91556415640E+02 0.  0.
         11    1    3    3    0    0 -0.18838919427E+02  0.43821092684E+02  0.28131365472E+02  0.55376590476E+02  0.51100000000E-03 0.  1.
         22    1    1    0    0    0  0.21341893223E+02 -0.42573878525E+01 -0.19121747832E+02  0.28969691021E+02  0.00000000000E+00 0.  1.
</event>
<event>
 5    1  0.8778488E-005  0.9118800E+02  0.7818608E-02  0.1130116E+00
         25   -1    0    0    0    0  0.00000000000E+00  0.00000000000E+00  0.99999998245E-14  0.12500000000E+03  0.12500000000E+03 0.  0.
        -11    1    3    3    0    0  0.16877241397E+02  0.26646164569E+02  0.53878441034E+02  0.62431929107E+02  0.51100000000E-03 0. -1.
         23    2    1    0    0    0  0.69597245185E+01  0.12148703344E+02  0.27785977623E+02  0.93885866382E+02  0.88580283334E+02 0.  0.
         11    1    3    3    0    0 -0.99175168784E+01 -0.14497461225E+02 -0.26092463411E+02  0.31453937276E+02  0.51100000000E-03 0.  1.
         22    1    1    0    0    0 -0.69597245185E+01 -0.12148703344E+02 -0.27785977623E+02  0.31114133618E+02  0.00000000000E+00 0. -1.
</event>
<event>
 5    1  0.8778488E-005  0.9118800E+02  0.7818608E-02  0.1130116E+00
         25   -1    0    0    0    0  0.00000000000E+00  0.00000000000E+00  0.99999998245E-14  0.12500000000E+03  0.12500000000E+03 0.  0.
        -11    1    3    3    0    0 -0.95395761639E+01 -0.11572566995E+02 -0.26131976205E+02  0.30129852321E+02  0.51100000000E-03 0.  1.
         23    2    1    0    0    0 -0.28106323445E+02  0.24290333555E+02  0.12290224337E+02  0.85871553365E+02  0.76438788198E+02 0.  0.
         11    1    3    3    0    0 -0.18566747282E+02  0.35862900550E+02  0.38422200542E+02  0.55741701044E+02  0.51100000000E-03 0. -1.
         22    1    1    0    0    0  0.28106323445E+02 -0.24290333555E+02 -0.12290224337E+02  0.39128446635E+02  0.00000000000E+00 0. -1.
</event>
<event>
 5    1  0.8778488E-005  0.9118800E+02  0.7818608E-02  0.1130116E+00
         25   -1    0    0    0    0  0.00000000000E+00  0.00000000000E+00  0.99999998245E-14  0.12500000000E+03  0.12500000000E+03 0.  0.
        -11    1    3    3    0    0 -0.11587921658E+02  0.20236510353E+02  0.28472631900E+02  0.36803356466E+02  0.51100000000E-03 0.  1.
         23    2    1    0    0    0  0.23278011515E+02  0.47960496222E+01 -0.16725327186E+02  0.95937920213E+02  0.91430192240E+02 0.  0.
         11    1    3    3    0    0  0.34865933173E+02 -0.15440460730E+02 -0.45197959086E+02  0.59134563746E+02  0.51100000000E-03 0. -1.
         22    1    1    0    0    0 -0.23278011515E+02 -0.47960496222E+01  0.16725327186E+02  0.29062079787E+02  0.00000000000E+00 0. -1.
</event>
<event>
 5    1  0.8778488E-005  0.9118800E+02  0.7818608E-02  0.1130116E+00
         25   -1    0    0    0    0  0.00000000000E+00  0.00000000000E+00  0.99999998245E-14  0.12500000000E+03  0.12500000000E+03 0.  0.
        -11    1    3    3    0    0  0.34468921126E+02 -0.19681908064E+02  0.23600692324E+02  0.46178747353E+02  0.51100000000E-03 0.  1.
         23    2    1    0    0    0 -0.12424217981E+02 -0.24943837560E+02  0.11185931549E+02  0.94971991586E+02  0.90099932833E+02 0.  0.
         11    1    3    3    0    0 -0.46893139108E+02 -0.52619294965E+01 -0.12414760776E+02  0.48793244233E+02  0.51100000000E-03 0. -1.
         22    1    1    0    0    0  0.12424217981E+02  0.24943837560E+02 -0.11185931549E+02  0.30028008414E+02  0.00000000000E+00 0.  1.
</event>
<event>
 5    1  0.8778488E-005  0.9118800E+02  0.7818608E-02  0.1130116E+00
         25   -1    0    0    0    0  0.00000000000E+00  0.00000000000E+00  0.99999998245E-14  0.12500000000E+03  0.12500000000E+03 0.  0.
        -11    1    3    3    0    0  0.54556643391E+02 -0.31087943538E+01 -0.16977434160E+01  0.54671512448E+02  0.51100000000E-03 0. -1.
         23    2    1    0    0    0  0.17004198294E+02 -0.20967943329E+02 -0.82585897874E+01  0.96768781246E+02  0.92559144937E+02 0.  0.
         11    1    3    3    0    0 -0.37552445097E+02 -0.17859148975E+02 -0.65608463714E+01  0.42097268798E+02  0.51100000000E-03 0.  1.
         22    1    1    0    0    0 -0.17004198294E+02  0.20967943329E+02  0.82585897874E+01  0.28231218754E+02  0.00000000000E+00 0.  1.
</event>
<event>
 5    1  0.8778488E-005  0.9118800E+02  0.7818608E-02  0.1130116E+00
         25   -1    0    0    0    0  0.00000000000E+00  0.00000000000E+00  0.99999998245E-14  0.12500000000E+03  0.12500000000E+03 0.  0.
        -11    1    3    3    0    0  0.26268461086E+02  0.22531344839E+02  0.92831007672E+01  0.35831124853E+02  0.51100000000E-03 0. -1.
         23    2    1    0    0    0 -0.26159205417E+02 -0.49129303924E+01  0.13496091195E+02  0.95157322663E+02  0.90356685783E+02 0.  0.
         11    1    3    3    0    0 -0.52427666503E+02 -0.27444275232E+02  0.42129904278E+01  0.59326197810E+02  0.51100000000E-03 0.  1.
         22    1    1    0    0    0  0.26159205417E+02  0.49129303924E+01 -0.13496091195E+02  0.29842677337E+02  0.00000000000E+00 0.  1.
</event>
<event>
 5    1  0.8778488E-005  0.9118800E+02  0.7818608E-02  0.1130116E+00
         25   -1    0    0    0    0  0.00000000000E+00  0.00000000000E+00  0.99999998245E-14  0.12500000000E+03  0.12500000000E+03 0.  0.
        -11    1    3    3    0    0 -0.46399776610E+01 -0.83860187302E+01 -0.35153278929E+02  0.36436351663E+02  0.51100000000E-03 0.  1.
         23    2    1    0    0    0  0.27995623996E+02  0.60385298139E+01  0.10603379800E+02  0.94460673413E+02  0.89387741627E+02 0.  0.
         11    1    3    3    0    0  0.32635601657E+02  0.14424548544E+02  0.45756658728E+02  0.58024321749E+02  0.51100000000E-03 0. -1.
         22    1    1    0    0    0 -0.27995623996E+02 -0.60385298139E+01 -0.10603379800E+02  0.30539326587E+02  0.00000000000E+00 0. -1.
</event>
<event>
 5    1  0.8778488E-005  0.9118800E+02  0.7818608E-02  0.1130116E+00
         25   -1    0    0    0    0  0.00000000000E+00  0.00000000000E+00  0.99999998245E-14  0.12500000000E+03  0.12500000000E+03 0.  0.
        -11    1    3    3    0    0  0.28221989282E+02  0.13938292747E+02 -0.49511520614E+02  0.58669816409E+02  0.51100000000E-03 0.  1.
         23    2    1    0    0    0  0.22391420950E+02  0.12551695910E+02 -0.11987484822E+02  0.96669440621E+02  0.92424889263E+02 0.  0.
         11    1    3    3    0    0 -0.58305683317E+01 -0.13865968369E+01  0.37524035792E+02  0.37999624212E+02  0.51100000000E-03 0. -1.
         22    1    1    0    0    0 -0.22391420950E+02 -0.12551695910E+02  0.11987484822E+02  0.28330559379E+02  0.00000000000E+00 0.  1.
</event>
<event>
 5    1  0.8778488E-005  0.9118800E+02  0.7818608E-02  0.1130116E+00
         25   -1    0    0    0    0  0.00000000000E+00  0.00000000000E+00  0.99999998245E-14  0.12500000000E+03  0.12500000000E+03 0.  0.
        -11    1    3    3    0    0 -0.35350901099E+02 -0.36152707919E+01  0.27265224777E+02  0.44790053291E+02  0.51100000000E-03 0.  1.
         23    2    1    0    0    0 -0.15335175433E+02 -0.12687227746E+02 -0.19919443973E+02  0.96841207383E+02  0.92656903930E+02 0.  0.
         11    1    3    3    0    0  0.20015725666E+02 -0.90719569539E+01 -0.47184668751E+02  0.52051154092E+02  0.51100000000E-03 0. -1.
         22    1    1    0    0    0  0.15335175433E+02  0.12687227746E+02  0.19919443973E+02  0.28158792617E+02  0.00000000000E+00 0. -1.
</event>
<event>
 5    1  0.8778488E-005  0.9118800E+02  0.7818608E-02  0.1130116E+00
         25   -1    0    0    0    0  0.00000000000E+00  0.00000000000E+00  0.99999998245E-14  0.12500000000E+03  0.12500000000E+03 0.  0.
        -11    1    3    3    0    0  0.19240879921E+02 -0.41283435110E+02  0.13780144756E+01  0.45567887802E+02  0.51100000000E-03 0.  1.
         23    2    1    0    0    0 -0.22930967121E+02 -0.15506142403E+02  0.96565866987E+01  0.95682439187E+02  0.91080238235E+02 0.  0.
         11    1    3    3    0    0 -0.42171847042E+02  0.25777292707E+02  0.82785722231E+01  0.50114551385E+02  0.51100000000E-03 0. -1.
         22    1    1    0    0    0  0.22930967121E+02  0.15506142403E+02 -0.96565866987E+01  0.29317560813E+02  0.00000000000E+00 0. -1.
</event>
<event>
 5    1  0.8778488E-005  0.9118800E+02  0.7818608E-02  0.1130116E+00
         25   -1    0    0    0    0  0.00000000000E+00  0.00000000000E+00  0.99999998245E-14  0.12500000000E+03  0.12500000000E+03 0.  0.
        -11    1    3    3    0    0  0.10441119914E+02 -0.43283078246E+02  0.33488238532E+02  0.55712691263E+02  0.51100000000E-03 0. -1.
         23    2    1    0    0    0  0.48460165754E+01 -0.34490815416E+01  0.28076772313E+02  0.96300083909E+02  0.91923995655E+02 0.  0.
         11    1    3    3    0    0 -0.55951033389E+01  0.39833996705E+02 -0.54114662193E+01  0.40587392645E+02  0.51100000000E-03 0.  1.
         22    1    1    0    0    0 -0.48460165754E+01  0.34490815416E+01 -0.28076772313E+02  0.28699916091E+02  0.00000000000E+00 0. -1.
</event>
<event>
 5    1  0.8778488E-005  0.9118800E+02  0.7818608E-02  0.1130116E+00
         25   -1    0    0    0    0  0.00000000000E+00  0.00000000000E+00  0.99999998245E-14  0.12500000000E+03  0.12500000000E+03 0.  0.
        -11    1    3    3    0    0  0.33513892491E+02  0.94860958678E+01  0.42468185101E+02  0.54924618804E+02  0.51100000000E-03 0.  1.
         23    2    1    0    0    0  0.95110361814E+01  0.24439548795E+02  0.13136585231E+02  0.95668767055E+02  0.91061472444E+02 0.  0.
         11    1    3    3    0    0 -0.24002856309E+02  0.14953452928E+02 -0.29331599870E+02  0.40744148251E+02  0.51100000000E-03 0. -1.
         22    1    1    0    0    0 -0.95110361814E+01 -0.24439548795E+02 -0.13136585231E+02  0.29331232945E+02  0.00000000000E+00 0.  1.
</event>
<event>
 5    1  0.8778488E-005  0.9118800E+02  0.7818608E-02  0.1130116E+00
         25   -1    0    0    0    0  0.00000000000E+00  0.00000000000E+00  0.99999998245E-14  0.12500000000E+03  0.12500000000E+03 0.  0.
        -11    1    3    3    0    0  0.35423305733E+02 -0.29974832395E+02 -0.51837529786E+01  0.46692316941E+02  0.51100000000E-03 0.  1.
         23    2    1    0    0    0 -0.14277098043E+02 -0.22826698174E+02 -0.77903592027E+01  0.96971739716E+02  0.92832833248E+02 0.  0.
         11    1    3    3    0    0 -0.49700403775E+02  0.71481342202E+01 -0.26066062242E+01  0.50279422775E+02  0.51100000000E-03 0. -1.
         22    1    1    0    0    0  0.14277098043E+02  0.22826698174E+02  0.77903592027E+01  0.28028260284E+02  0.00000000000E+00 0.  1.
</event>
<event>
 5    1  0.8778488E-005  0.9118800E+02  0.7818608E-02  0.1130116E+00
         25   -1    0    0    0    0  0.00000000000E+00  0.00000000000E+00  0.99999998245E-14  0.12500000000E+03  0.12500000000E+03 0.  0.
        -11    1    3    3    0    0 -0.10755905314E+02  0.21442942391E+02  0.36962352562E+02  0.44064779413E+02  0.51100000000E-03 0.  1.
         23    2    1    0    0    0 -0.14624378135E+00 -0.24051368506E+02  0.56797183233E+01  0.10028666525E+03  0.97193962325E+02 0.  0.
         11    1    3    3    0    0  0.10609661533E+02 -0.45494310897E+02 -0.31282634239E+02  0.56221885837E+02  0.51100000000E-03 0. -1.
         22    1    1    0    0    0  0.14624378135E+00  0.24051368506E+02 -0.56797183233E+01  0.24713334751E+02  0.00000000000E+00 0. -1.
</event>
<event>
 5    1  0.8778488E-005  0.9118800E+02  0.7818608E-02  0.1130116E+00
         25   -1    0    0    0    0  0.00000000000E+00  0.00000000000E+00  0.99999998245E-14  0.12500000000E+03  0.12500000000E+03 0.  0.
        -11    1    3    3    0    0  0.43372819155E+01  0.51436725894E+01  0.34023408450E+02  0.34682296708E+02  0.51100000000E-03 0.  1.
         23    2    1    0    0    0 -0.11525386074E+02 -0.16058861296E+02 -0.21254123032E+02  0.95974850627E+02  0.91480668214E+02 0.  0.
         11    1    3    3    0    0 -0.15862667989E+02 -0.21202533885E+02 -0.55277531482E+02  0.61292553919E+02  0.51100000000E-03 0. -1.
         22    1    1    0    0    0  0.11525386074E+02  0.16058861296E+02  0.21254123032E+02  0.29025149373E+02  0.00000000000E+00 0. -1.
</event>
<event>
 5    1  0.8778488E-005  0.9118800E+02  0.7818608E-02  0.1130116E+00
         25   -1    0    0    0    0  0.00000000000E+00  0.00000000000E+00  0.99999998245E-14  0.12500000000E+03  0.12500000000E+03 0.  0.
        -11    1    3    3    0    0 -0.42820428518E+02 -0.18009664737E+02 -0.10030443479E+02  0.47524171945E+02  0.51100000000E-03 0.  1.
         23    2    1    0    0    0 -0.18972538103E+02  0.22074546446E+02 -0.10172298480E+02  0.94166277241E+02  0.88975105002E+02 0.  0.
         11    1    3    3    0    0  0.23847890415E+02  0.40084211182E+02 -0.14185500048E+00  0.46642105296E+02  0.51100000000E-03 0. -1.
         22    1    1    0    0    0  0.18972538103E+02 -0.22074546446E+02  0.10172298480E+02  0.30833722759E+02  0.00000000000E+00 0. -1.
</event>
<event>
 5    1  0.8778488E-005  0.9118800E+02  0.7818608E-02  0.1130116E+00
         25   -1    0    0    0    0  0.00000000000E+00  0.00000000000E+00  0.99999998245E-14  0.12500000000E+03  0.12500000000E+03 0.  0.
        -11    1    3    3    0    0  0.50537566909E+02  0.13941134312E+00  0.12285923379E+02  0.52009701193E+02  0.51100000000E-03 0.  1.
         23    2    1    0    0    0  0.22067369822E+02 -0.42036248593E+01 -0.19750518837E+02  0.95088091549E+02  0.90260860218E+02 0.  0.
         11    1    3    3    0    0 -0.28470197087E+02 -0.43430362024E+01 -0.32036442216E+02  0.43078390357E+02  0.51100000000E-03 0. -1.
         22    1    1    0    0    0 -0.22067369822E+02  0.42036248593E+01  0.19750518837E+02  0.29911908451E+02  0.00000000000E+00 0.  1.
</event>
<event>
 5    1  0.8778488E-005  0.9118800E+02  0.7818608E-02  0.1130116E+00
         25   -1    0    0    0    0  0.00000000000E+00  0.00000000000E+00  0.99999998245E-14  0.12500000000E+03  0.12500000000E+03 0.  0.
        -11    1    3    3    0    0  0.15720447629E+02 -0.25668669039E+02 -0.19909040125E+02  0.36088542820E+02  0.51100000000E-03 0. -1.
         23    2    1    0    0    0 -0.21067473879E+02  0.18358410038E+02  0.68844968955E+00  0.97047475289E+02  0.92934755728E+02 0.  0.
         11    1    3    3    0    0 -0.36787921508E+02  0.44027079077E+02  0.20597489814E+02  0.60958932469E+02  0.51100000000E-03 0.  1.
         22    1    1    0    0    0  0.21067473879E+02 -0.18358410038E+02 -0.68844968955E+00  0.27952524711E+02  0.00000000000E+00 0.  1.
</event>
<event>
 5    1  0.8778488E-005  0.9118800E+02  0.7818608E-02  0.1130116E+00
         25   -1    0    0    0    0  0.00000000000E+00  0.00000000000E+00  0.99999998245E-14  0.12500000000E+03  0.12500000000E+03 0.  0.
        -11    1    3    3    0    0  0.33634073438E+02  0.20169929163E+02 -0.16439684568E+02  0.42524583095E+02  0.51100000000E-03 0.  1.
         23    2    1    0    0    0 -0.14404406734E+02  0.37099322571E+01 -0.26798164246E+02  0.94350495311E+02  0.89233535331E+02 0.  0.
         11    1    3    3    0    0 -0.48038480173E+02 -0.16459996906E+02 -0.10358479679E+02  0.51825912215E+02  0.51100000000E-03 0. -1.
         22    1    1    0    0    0  0.14404406734E+02 -0.37099322571E+01  0.26798164246E+02  0.30649504689E+02  0.00000000000E+00 0. -1.
</event>
<event>
 5    1  0.8778488E-005  0.9118800E+02  0.7818608E-02  0.1130116E+00
         25   -1    0    0    0    0  0.00000000000E+00  0.00000000000E+00  0.99999998245E-14  0.12500000000E+03  0.12500000000E+03 0.  0.
        -11    1    3    3    0    0 -0.41596674063E+02 -0.31705769738E+02 -0.98575287157E+01  0.53223209227E+02  0.51100000000E-03 0.  1.
         23    2    1    0    0    0 -0.20359868203E+02 -0.24813552762E+02 -0.28320044139E+02  0.82195075822E+02  0.70169572861E+02 0.  0.
         11    1    3    3    0    0  0.21236805860E+02  0.68922169760E+01 -0.18462515423E+02  0.28971866595E+02  0.51100000000E-03 0. -1.
         22    1    1    0    0    0  0.20359868203E+02  0.24813552762E+02  0.28320044139E+02  0.42804924178E+02  0.00000000000E+00 0.  1.
</event>
<event>
 5    1  0.8778488E-005  0.9118800E+02  0.7818608E-02  0.1130116E+00
         25   -1    0    0    0    0  0.00000000000E+00  0.00000000000E+00  0.99999998245E-14  0.12500000000E+03  0.12500000000E+03 0.  0.
        -11    1    3    3    0    0  0.17908861785E+02  0.26722403700E+02  0.39673610528E+02  0.51076506953E+02  0.51100000000E-03 0.  1.
         23    2    1    0    0    0 -0.11383680196E+02 -0.89550954896E+01  0.17487461039E+02  0.10229332249E+03  0.99741318530E+02 0.  0.
         11    1    3    3    0    0 -0.29292541981E+02 -0.35677499190E+02 -0.22186149489E+02  0.51216815535E+02  0.51100000000E-03 0. -1.
         22    1    1    0    0    0  0.11383680196E+02  0.89550954896E+01 -0.17487461039E+02  0.22706677512E+02  0.00000000000E+00 0. -1.
</event>
<event>
 5    1  0.8778488E-005  0.9118800E+02  0.7818608E-02  0.1130116E+00
         25   -1    0    0    0    0  0.00000000000E+00  0.00000000000E+00  0.99999998245E-14  0.12500000000E+03  0.12500000000E+03 0.  0.
        -11    1    3    3    0    0 -0.35672507503E+02 -0.41957660311E+02 -0.14431075243E+02  0.56931792377E+02  0.51100000000E-03 0. -1.
         23    2    1    0    0    0 -0.14417504526E+02  0.46801387405E+00 -0.14727437045E+02  0.10438493571E+03  0.10232904733E+03 0.  0.
         11    1    3    3    0    0  0.21255002976E+02  0.42425674186E+02 -0.29636180273E+00  0.47453143333E+02  0.51100000000E-03 0.  1.
         22    1    1    0    0    0  0.14417504526E+02 -0.46801387405E+00  0.14727437045E+02  0.20615064290E+02  0.00000000000E+00 0. -1.
</event>
<event>
 5    1  0.8778488E-005  0.9118800E+02  0.7818608E-02  0.1130116E+00
         25   -1    0    0    0    0  0.00000000000E+00  0.00000000000E+00  0.99999998245E-14  0.12500000000E+03  0.12500000000E+03 0.  0.
        -11    1    3    3    0    0  0.32392302017E+02 -0.87144592157E+01  0.20597410974E+01  0.33607224863E+02  0.51100000000E-03 0.  1.
         23    2    1    0    0    0 -0.29039035628E+02 -0.34192599965E+01 -0.36650679781E+01  0.95531548184E+02  0.90872917011E+02 0.  0.
         11    1    3    3    0    0 -0.61431337645E+02  0.52951992192E+01 -0.57248090755E+01  0.61924323321E+02  0.51100000000E-03 0. -1.
         22    1    1    0    0    0  0.29039035628E+02  0.34192599965E+01  0.36650679781E+01  0.29468451816E+02  0.00000000000E+00 0. -1.
</event>
<event>
 5    1  0.8778488E-005  0.9118800E+02  0.7818608E-02  0.1130116E+00
         25   -1    0    0    0    0  0.00000000000E+00  0.00000000000E+00  0.99999998245E-14  0.12500000000E+03  0.12500000000E+03 0.  0.
        -11    1    3    3    0    0  0.45864089588E-01  0.28911060242E+02 -0.21620180993E+02  0.36101021236E+02  0.51100000000E-03 0. -1.
         23    2    1    0    0    0  0.16299037206E+01 -0.12392497409E+02  0.24171074524E+02  0.97788395457E+02  0.93926028683E+02 0.  0.
         11    1    3    3    0    0  0.15840396310E+01 -0.41303557651E+02  0.45791255517E+02  0.61687374221E+02  0.51100000000E-03 0.  1.
         22    1    1    0    0    0 -0.16299037206E+01  0.12392497409E+02 -0.24171074524E+02  0.27211604543E+02  0.00000000000E+00 0.  1.
</event>
<event>
 5    1  0.8778488E-005  0.9118800E+02  0.7818608E-02  0.1130116E+00
         25   -1    0    0    0    0  0.00000000000E+00  0.00000000000E+00  0.99999998245E-14  0.12500000000E+03  0.12500000000E+03 0.  0.
        -11    1    3    3    0    0  0.28586869030E+02 -0.15674201192E+02 -0.21073925621E+02  0.38820097956E+02  0.51100000000E-03 0. -1.
         23    2    1    0    0    0 -0.24761626310E+02  0.60959419938E+01 -0.10599758506E+02  0.97383817667E+02  0.93386050439E+02 0.  0.
         11    1    3    3    0    0 -0.53348495340E+02  0.21770143186E+02  0.10474167115E+02  0.58563719711E+02  0.51100000000E-03 0.  1.
         22    1    1    0    0    0  0.24761626310E+02 -0.60959419938E+01  0.10599758506E+02  0.27616182333E+02  0.00000000000E+00 0.  1.
</event>
<event>
 5    1  0.8778488E-005  0.9118800E+02  0.7818608E-02  0.1130116E+00
         25   -1    0    0    0    0  0.00000000000E+00  0.00000000000E+00  0.99999998245E-14  0.12500000000E+03  0.12500000000E+03 0.  0.
        -11    1    3    3    0    0 -0.39844657956E+02  0.35043351447E+02 -0.40103639221E+01  0.53213872884E+02  0.51100000000E-03 0. -1.
         23    2    1    0    0    0  0.32779438002E+01  0.27413169258E+02 -0.46037263494E+01  0.97010340112E+02  0.92884794386E+02 0.  0.
         11    1    3    3    0    0  0.43122601756E+02 -0.76301821890E+01 -0.59336242732E+00  0.43796467228E+02  0.51100000000E-03 0.  1.
         22    1    1    0    0    0 -0.32779438002E+01 -0.27413169258E+02  0.46037263494E+01  0.27989659888E+02  0.00000000000E+00 0. -1.
</event>
<event>
 5    1  0.8778488E-005  0.9118800E+02  0.7818608E-02  0.1130116E+00
         25   -1    0    0    0    0  0.00000000000E+00  0.00000000000E+00  0.99999998245E-14  0.12500000000E+03  0.12500000000E+03 0.  0.
        -11    1    3    3    0    0 -0.23866661247E+02  0.17717382638E+02 -0.28069017493E+02  0.40882672489E+02  0.51100000000E-03 0.  1.
         23    2    1    0    0    0 -0.13671539513E+02 -0.65695723128E+01  0.22479235367E+02  0.97881993147E+02  0.94050509231E+02 0.  0.
         11    1    3    3    0    0  0.10195121733E+02 -0.24286954950E+02  0.50548252860E+02  0.56999320657E+02  0.51100000000E-03 0. -1.
         22    1    1    0    0    0  0.13671539513E+02  0.65695723128E+01 -0.22479235367E+02  0.27118006853E+02  0.00000000000E+00 0. -1.
</event>
<event>
 5    1  0.8778488E-005  0.9118800E+02  0.7818608E-02  0.1130116E+00
         25   -1    0    0    0    0  0.00000000000E+00  0.00000000000E+00  0.99999998245E-14  0.12500000000E+03  0.12500000000E+03 0.  0.
        -11    1    3    3    0    0 -0.55883581416E+00 -0.33901695682E+02 -0.18910145508E+01  0.33958992975E+02  0.51100000000E-03 0. -1.
         23    2    1    0    0    0  0.31357707512E+02  0.13218588749E+02 -0.25470439305E+01  0.90874872283E+02  0.84224213091E+02 0.  0.
         11    1    3    3    0    0  0.31916543326E+02  0.47120284430E+02 -0.65602937970E+00  0.56915879309E+02  0.51100000000E-03 0.  1.
         22    1    1    0    0    0 -0.31357707512E+02 -0.13218588749E+02  0.25470439305E+01  0.34125127717E+02  0.00000000000E+00 0.  1.
</event>
<event>
 4    1  0.8778488E-005  0.9118800E+02  0.7818608E-02  0.1130116E+00
         25   -1    0    0    0    0  0.00000000000E+00  0.00000000000E+00  0.99999998245E-14  0.12500000000E+03  0.12500000000E+03 0.  0.
        -11    1    1    0    0    0 -0.40368535717E+01 -0.15421119987E+01  0.51129661389E+01  0.66945290480E+01  0.51100000000E-03 0.  1.
         11    1    1    0    0    0  0.24295787897E+01 -0.42653289891E+02 -0.42598811507E+02  0.60331291497E+02  0.51100000000E-03 0. -1.
         22    1    1    0    0    0  0.16072747820E+01  0.44195401890E+02  0.37485845368E+02  0.57974179455E+02  0.00000000000E+00 0. -1.
</event>
<event>
 5    1  0.8778488E-005  0.9118800E+02  0.7818608E-02  0.1130116E+00
         25   -1    0    0    0    0  0.00000000000E+00  0.00000000000E+00  0.99999998245E-14  0.12500000000E+03  0.12500000000E+03 0.  0.
        -11    1    3    3    0    0 -0.17587190687E+02 -0.62937937093E+01  0.54768338694E+01  0.19465786010E+02  0.51100000000E-03 0.  1.
         23    2    1    0    0    0 -0.17060331627E+02  0.44339602167E+02 -0.16558282220E+02  0.74688649932E+02  0.55201109437E+02 0.  0.
         11    1    3    3    0    0  0.52685905975E+00  0.50633395876E+02 -0.22035116090E+02  0.55222863922E+02  0.51100000000E-03 0. -1.
         22    1    1    0    0    0  0.17060331627E+02 -0.44339602167E+02  0.16558282220E+02  0.50311350068E+02  0.00000000000E+00 0. -1.
</event>
<event>
 5    1  0.8778488E-005  0.9118800E+02  0.7818608E-02  0.1130116E+00
         25   -1    0    0    0    0  0.00000000000E+00  0.00000000000E+00  0.99999998245E-14  0.12500000000E+03  0.12500000000E+03 0.  0.
        -11    1    3    3    0    0 -0.14868654499E+02 -0.87294455252E+01 -0.32986355638E+02  0.37220690003E+02  0.51100000000E-03 0. -1.
         23    2    1    0    0    0  0.57951943788E+00  0.26974072584E+02  0.10930271041E+02  0.95889739616E+02  0.91364297754E+02 0.  0.
         11    1    3    3    0    0  0.15448173937E+02  0.35703518110E+02  0.43916626679E+02  0.58669049613E+02  0.51100000000E-03 0.  1.
         22    1    1    0    0    0 -0.57951943788E+00 -0.26974072584E+02 -0.10930271041E+02  0.29110260384E+02  0.00000000000E+00 0.  1.
</event>
<event>
 5    1  0.8778488E-005  0.9118800E+02  0.7818608E-02  0.1130116E+00
         25   -1    0    0    0    0  0.00000000000E+00  0.00000000000E+00  0.99999998245E-14  0.12500000000E+03  0.12500000000E+03 0.  0.
        -11    1    3    3    0    0 -0.31936329350E+02  0.49338073647E+02  0.78153079846E+01  0.59289574823E+02  0.51100000000E-03 0.  1.
         23    2    1    0    0    0 -0.17858160039E+02  0.16206291344E+02  0.15808220659E+02  0.96164993506E+02  0.91740113236E+02 0.  0.
         11    1    3    3    0    0  0.14078169311E+02 -0.33131782303E+02  0.79929126741E+01  0.36875418683E+02  0.51100000000E-03 0. -1.
         22    1    1    0    0    0  0.17858160039E+02 -0.16206291344E+02 -0.15808220659E+02  0.28835006494E+02  0.00000000000E+00 0.  1.
</event>
<event>
 5    1  0.8778488E-005  0.9118800E+02  0.7818608E-02  0.1130116E+00
         25   -1    0    0    0    0  0.00000000000E+00  0.00000000000E+00  0.99999998245E-14  0.12500000000E+03  0.12500000000E+03 0.  0.
        -11    1    3    3    0    0 -0.30071377118E+02 -0.11561593836E+01 -0.16340108623E+02  0.34243591756E+02  0.51100000000E-03 0.  1.
         23    2    1    0    0    0  0.28768028915E+02 -0.40849818284E+01  0.18063216992E+01  0.95887298953E+02  0.91360958501E+02 0.  0.
         11    1    3    3    0    0  0.58839406033E+02 -0.29288224448E+01  0.18146430322E+02  0.61643707197E+02  0.51100000000E-03 0. -1.
         22    1    1    0    0    0 -0.28768028915E+02  0.40849818284E+01 -0.18063216992E+01  0.29112701047E+02  0.00000000000E+00 0. -1.
</event>
<event>
 5    1  0.8778488E-005  0.9118800E+02  0.7818608E-02  0.1130116E+00
         25   -1    0    0    0    0  0.00000000000E+00  0.00000000000E+00  0.99999998245E-14  0.12500000000E+03  0.12500000000E+03 0.  0.
        -11    1    3    3    0    0  0.25436789663E+02 -0.28282625341E+02 -0.19519903918E+02  0.42754693471E+02  0.51100000000E-03 0. -1.
         23    2    1    0    0    0 -0.60580643572E+01 -0.18179643856E+02  0.21990951106E+02  0.95831497724E+02  0.91284579371E+02 0.  0.
         11    1    3    3    0    0 -0.31494854020E+02  0.10102981485E+02  0.41510855024E+02  0.53076804253E+02  0.51100000000E-03 0.  1.
         22    1    1    0    0    0  0.60580643572E+01  0.18179643856E+02 -0.21990951106E+02  0.29168502276E+02  0.00000000000E+00 0.  1.
</event>
<event>
 5    1  0.8778488E-005  0.9118800E+02  0.7818608E-02  0.1130116E+00
         25   -1    0    0    0    0  0.00000000000E+00  0.00000000000E+00  0.99999998245E-14  0.12500000000E+03  0.12500000000E+03 0.  0.
        -11    1    3    3    0    0  0.17987906713E+02  0.30758449049E+02 -0.46216016105E+02  0.58357237089E+02  0.51100000000E-03 0.  1.
         23    2    1    0    0    0 -0.71225548063E+01  0.18795667229E+02 -0.21519524147E+02  0.95553475365E+02  0.90903073883E+02 0.  0.
         11    1    3    3    0    0 -0.25110461519E+02 -0.11962781820E+02  0.24696491958E+02  0.37196238276E+02  0.51100000000E-03 0. -1.
         22    1    1    0    0    0  0.71225548063E+01 -0.18795667229E+02  0.21519524147E+02  0.29446524635E+02  0.00000000000E+00 0.  1.
</event>
<event>
 5    1  0.8778488E-005  0.9118800E+02  0.7818608E-02  0.1130116E+00
         25   -1    0    0    0    0  0.00000000000E+00  0.00000000000E+00  0.99999998245E-14  0.12500000000E+03  0.12500000000E+03 0.  0.
        -11    1    3    3    0    0  0.67404163741E+01  0.30839343364E+02  0.31343404771E+02  0.44484911317E+02  0.51100000000E-03 0.  1.
         23    2    1    0    0    0  0.16487199768E+02  0.39065294535E+01 -0.17204907208E+02  0.10085258688E+03  0.97919082507E+02 0.  0.
         11    1    3    3    0    0  0.97467833938E+01 -0.26932813910E+02 -0.48548311979E+02  0.56367675559E+02  0.51100000000E-03 0. -1.
         22    1    1    0    0    0 -0.16487199768E+02 -0.39065294535E+01  0.17204907208E+02  0.24147413124E+02  0.00000000000E+00 0. -1.
</event>
<event>
 5    1  0.8778488E-005  0.9118800E+02  0.7818608E-02  0.1130116E+00
         25   -1    0    0    0    0  0.00000000000E+00  0.00000000000E+00  0.99999998245E-14  0.12500000000E+03  0.12500000000E+03 0.  0.
        -11    1    3    3    0    0  0.33102174365E+02  0.40619885158E+02  0.18000149453E+02  0.55405183860E+02  0.51100000000E-03 0.  1.
         23    2    1    0    0    0  0.26207883443E+02  0.14147327337E+02 -0.90463302698E+01  0.93873867624E+02  0.88563349677E+02 0.  0.
         11    1    3    3    0    0 -0.68942909223E+01 -0.26472557821E+02 -0.27046479723E+02  0.38468683764E+02  0.51100000000E-03 0. -1.
         22    1    1    0    0    0 -0.26207883443E+02 -0.14147327337E+02  0.90463302698E+01  0.31126132376E+02  0.00000000000E+00 0.  1.
</event>
<event>
 5    1  0.8778488E-005  0.9118800E+02  0.7818608E-02  0.1130116E+00
         25   -1    0    0    0    0  0.00000000000E+00  0.00000000000E+00  0.99999998245E-14  0.12500000000E+03  0.12500000000E+03 0.  0.
        -11    1    3    3    0    0 -0.21649420916E+02  0.30258940168E+02  0.13229926174E+02  0.39488375921E+02  0.51100000000E-03 0. -1.
         23    2    1    0    0    0 -0.12201312490E+02 -0.25296415119E+02  0.56988086098E+01  0.96342416991E+02  0.91981542973E+02 0.  0.
         11    1    3    3    0    0  0.94481084258E+01 -0.55555355287E+02 -0.75311175643E+01  0.56854041069E+02  0.51100000000E-03 0.  1.
         22    1    1    0    0    0  0.12201312490E+02  0.25296415119E+02 -0.56988086098E+01  0.28657583009E+02  0.00000000000E+00 0.  1.
</event>
<event>
 5    1  0.8778488E-005  0.9118800E+02  0.7818608E-02  0.1130116E+00
         25   -1    0    0    0    0  0.00000000000E+00  0.00000000000E+00  0.99999998245E-14  0.12500000000E+03  0.12500000000E+03 0.  0.
        -11    1    3    3    0    0  0.32110794350E+02 -0.10802550986E+02  0.84391574113E+01  0.34914432541E+02  0.51100000000E-03 0.  1.
         23    2    1    0    0    0  0.42879343233E+01  0.35181456644E+02 -0.12934085711E+01  0.89534605908E+02  0.82211017978E+02 0.  0.
         11    1    3    3    0    0 -0.27822860027E+02  0.45984007630E+02 -0.97325659824E+01  0.54620173367E+02  0.51100000000E-03 0. -1.
         22    1    1    0    0    0 -0.42879343233E+01 -0.35181456644E+02  0.12934085711E+01  0.35465394092E+02  0.00000000000E+00 0. -1.
</event>
<event>
 5    1  0.8778488E-005  0.9118800E+02  0.7818608E-02  0.1130116E+00
         25   -1    0    0    0    0  0.00000000000E+00  0.00000000000E+00  0.99999998245E-14  0.12500000000E+03  0.12500000000E+03 0.  0.
        -11    1    3    3    0    0 -0.30865167703E+02 -0.47636425694E+02 -0.23007674312E+02  0.61247373068E+02  0.51100000000E-03 0. -1.
         23    2    1    0    0    0 -0.20807347562E+02 -0.18076889930E+02 -0.15564352128E+02  0.93346110519E+02  0.87815304075E+02 0.  0.
         11    1    3    3    0    0  0.10057820141E+02  0.29559535764E+02  0.74433221835E+01  0.32098737451E+02  0.51100000000E-03 0.  1.
         22    1    1    0    0    0  0.20807347562E+02  0.18076889930E+02  0.15564352128E+02  0.31653889481E+02  0.00000000000E+00 0. -1.
</event>
<event>
 5    1  0.8778488E-005  0.9118800E+02  0.7818608E-02  0.1130116E+00
         25   -1    0    0    0    0  0.00000000000E+00  0.00000000000E+00  0.99999998245E-14  0.12500000000E+03  0.12500000000E+03 0.  0.
        -11    1    3    3    0    0  0.28387324204E+02  0.32705786188E+02 -0.30396284772E+01  0.43413684101E+02  0.51100000000E-03 0. -1.
         23    2    1    0    0    0 -0.22584907120E+02  0.14873550115E+02 -0.52160640999E+01  0.97458978825E+02  0.93486601748E+02 0.  0.
         11    1    3    3    0    0 -0.50972231325E+02 -0.17832236073E+02 -0.21764356227E+01  0.54045294725E+02  0.51100000000E-03 0.  1.
         22    1    1    0    0    0  0.22584907120E+02 -0.14873550115E+02  0.52160640999E+01  0.27541021175E+02  0.00000000000E+00 0.  1.
</event>
<event>
 5    1  0.8778488E-005  0.9118800E+02  0.7818608E-02  0.1130116E+00
         25   -1    0    0    0    0  0.00000000000E+00  0.00000000000E+00  0.99999998245E-14  0.12500000000E+03  0.12500000000E+03 0.  0.
        -11    1    3    3    0    0 -0.22370614459E+02  0.45740991790E+01 -0.42253594350E+02  0.48028460420E+02  0.51100000000E-03 0. -1.
         23    2    1    0    0    0  0.18776270622E+02 -0.68906664207E+01 -0.21890641579E+02  0.95348190427E+02  0.90620348746E+02 0.  0.
         11    1    3    3    0    0  0.41146885081E+02 -0.11464765600E+02  0.20362952771E+02  0.47319730007E+02  0.51100000000E-03 0.  1.
         22    1    1    0    0    0 -0.18776270622E+02  0.68906664207E+01  0.21890641579E+02  0.29651809573E+02  0.00000000000E+00 0. -1.
</event>
<event>
 5    1  0.8778488E-005  0.9118800E+02  0.7818608E-02  0.1130116E+00
         25   -1    0    0    0    0  0.00000000000E+00  0.00000000000E+00  0.99999998245E-14  0.12500000000E+03  0.12500000000E+03 0.  0.
        -11    1    3    3    0    0 -0.14325669042E+02 -0.51942303718E+02  0.28055506879E+02  0.60748161911E+02  0.51100000000E-03 0.  1.
         23    2    1    0    0    0 -0.15218841722E+01 -0.27676480790E+02  0.44807043482E+01  0.96921886961E+02  0.92765681910E+02 0.  0.
         11    1    3    3    0    0  0.12803784870E+02  0.24265822928E+02 -0.23574802531E+02  0.36173725050E+02  0.51100000000E-03 0. -1.
         22    1    1    0    0    0  0.15218841722E+01  0.27676480790E+02 -0.44807043482E+01  0.28078113039E+02  0.00000000000E+00 0.  1.
</event>
<event>
 5    1  0.8778488E-005  0.9118800E+02  0.7818608E-02  0.1130116E+00
         25   -1    0    0    0    0  0.00000000000E+00  0.00000000000E+00  0.99999998245E-14  0.12500000000E+03  0.12500000000E+03 0.  0.
        -11    1    3    3    0    0  0.12971340409E+02  0.23873204489E+02 -0.16429944719E+02  0.31751041688E+02  0.51100000000E-03 0.  1.
         23    2    1    0    0    0 -0.33000502801E+02 -0.40244202975E+01  0.79866452170E+01  0.90809129205E+02  0.84126584986E+02 0.  0.
         11    1    3    3    0    0 -0.45971843210E+02 -0.27897624786E+02  0.24416589936E+02  0.59058087517E+02  0.51100000000E-03 0. -1.
         22    1    1    0    0    0  0.33000502801E+02  0.40244202975E+01 -0.79866452170E+01  0.34190870795E+02  0.00000000000E+00 0. -1.
</event>
<event>
 5    1  0.8778488E-005  0.9118800E+02  0.7818608E-02  0.1130116E+00
         25   -1    0    0    0    0  0.00000000000E+00  0.00000000000E+00  0.99999998245E-14  0.12500000000E+03  0.12500000000E+03 0.  0.
        -11    1    3    3    0    0  0.19795067627E+02  0.36446724962E+01  0.53923545654E+02  0.57557598248E+02  0.51100000000E-03 0.  1.
         23    2    1    0    0    0 -0.65483458249E+01  0.83020568778E+01  0.29046100175E+02  0.94089145647E+02  0.88866677735E+02 0.  0.
         11    1    3    3    0    0 -0.26343413452E+02  0.46573843816E+01 -0.24877445478E+02  0.36531547399E+02  0.51100000000E-03 0. -1.
         22    1    1    0    0    0  0.65483458249E+01 -0.83020568778E+01 -0.29046100175E+02  0.30910854353E+02  0.00000000000E+00 0.  1.
</event>
<event>
 5    1  0.8778488E-005  0.9118800E+02  0.7818608E-02  0.1130116E+00
         25   -1    0    0    0    0  0.00000000000E+00  0.00000000000E+00  0.99999998245E-14  0.12500000000E+03  0.12500000000E+03 0.  0.
        -11    1    3    3    0    0 -0.51189292137E+02 -0.22668686303E+02 -0.12227933694E+00  0.55984175627E+02  0.51100000000E-03 0.  1.
         23    2    1    0    0    0 -0.16765306154E+02 -0.29287833476E+02  0.26564197499E+01  0.91148718695E+02  0.84629661902E+02 0.  0.
         11    1    3    3    0    0  0.34423985983E+02 -0.66191471727E+01  0.27786990868E+01  0.35164543067E+02  0.51100000000E-03 0. -1.
         22    1    1    0    0    0  0.16765306154E+02  0.29287833476E+02 -0.26564197499E+01  0.33851281305E+02  0.00000000000E+00 0.  1.
</event>
<event>
 5    1  0.8778488E-005  0.9118800E+02  0.7818608E-02  0.1130116E+00
         25   -1    0    0    0    0  0.00000000000E+00  0.00000000000E+00  0.99999998245E-14  0.12500000000E+03  0.12500000000E+03 0.  0.
        -11    1    3    3    0    0 -0.56958367907E+01  0.18761382585E+02  0.39178344272E+02  0.43810668716E+02  0.51100000000E-03 0. -1.
         23    2    1    0    0    0 -0.31106233786E+02 -0.17946423685E+01  0.13361030316E+01  0.93813405238E+02  0.88477970758E+02 0.  0.
         11    1    3    3    0    0 -0.25410396995E+02 -0.20556024953E+02 -0.37842241240E+02  0.50002736522E+02  0.51100000000E-03 0.  1.
         22    1    1    0    0    0  0.31106233786E+02  0.17946423685E+01 -0.13361030316E+01  0.31186594762E+02  0.00000000000E+00 0.  1.
</event>
<event>
 5    1  0.8778488E-005  0.9118800E+02  0.7818608E-02  0.1130116E+00
         25   -1    0    0    0    0  0.00000000000E+00  0.00000000000E+00  0.99999998245E-14  0.12500000000E+03  0.12500000000E+03 0.  0.
        -11    1    3    3    0    0  0.50360185423E+01  0.43847925443E+01 -0.37380422922E+02  0.37972146456E+02  0.51100000000E-03 0.  1.
         23    2    1    0    0    0 -0.19430139763E+02  0.20604088971E+02  0.11046717906E+02  0.94601171239E+02  0.89583998626E+02 0.  0.
         11    1    3    3    0    0 -0.24466158306E+02  0.16219296427E+02  0.48427140828E+02  0.56629024783E+02  0.51100000000E-03 0. -1.
         22    1    1    0    0    0  0.19430139763E+02 -0.20604088971E+02 -0.11046717906E+02  0.30398828761E+02  0.00000000000E+00 0. -1.
</event>
<event>
 5    1  0.8778488E-005  0.9118800E+02  0.7818608E-02  0.1130116E+00
         25   -1    0    0    0    0  0.00000000000E+00  0.00000000000E+00  0.99999998245E-14  0.12500000000E+03  0.12500000000E+03 0.  0.
        -11    1    3    3    0    0  0.31359920473E+02  0.32436311600E+02 -0.39777153224E+02  0.60147991164E+02  0.51100000000E-03 0.  1.
         23    2    1    0    0    0  0.14284808035E+02  0.42742988131E+01 -0.24188348787E+02  0.96585187173E+02  0.92310870396E+02 0.  0.
         11    1    3    3    0    0 -0.17075112438E+02 -0.28162012787E+02  0.15588804436E+02  0.36437196009E+02  0.51100000000E-03 0. -1.
         22    1    1    0    0    0 -0.14284808035E+02 -0.42742988131E+01  0.24188348787E+02  0.28414812827E+02  0.00000000000E+00 0.  1.
</event>
<event>
 5    1  0.8778488E-005  0.9118800E+02  0.7818608E-02  0.1130116E+00
         25   -1    0    0    0    0  0.00000000000E+00  0.00000000000E+00  0.99999998245E-14  0.12500000000E+03  0.12500000000E+03 0.  0.
        -11    1    3    3    0    0 -0.10549562918E+02  0.22935927247E+02  0.25245744559E+02  0.35702908216E+02  0.51100000000E-03 0.  1.
         23    2    1    0    0    0  0.26354706797E+02 -0.13396645018E+02 -0.39814252930E+01  0.95168935395E+02  0.90372749481E+02 0.  0.
         11    1    3    3    0    0  0.36904269715E+02 -0.36332572266E+02 -0.29227169853E+02  0.59466027179E+02  0.51100000000E-03 0. -1.
         22    1    1    0    0    0 -0.26354706797E+02  0.13396645018E+02  0.39814252930E+01  0.29831064605E+02  0.00000000000E+00 0. -1.
</event>
<event>
 5    1  0.8778488E-005  0.9118800E+02  0.7818608E-02  0.1130116E+00
         25   -1    0    0    0    0  0.00000000000E+00  0.00000000000E+00  0.99999998245E-14  0.12500000000E+03  0.12500000000E+03 0.  0.
        -11    1    3    3    0    0 -0.11533733484E+02  0.44883440465E+02 -0.37763660969E+02  0.59779965926E+02  0.51100000000E-03 0.  1.
         23    2    1    0    0    0 -0.99321104682E+01  0.10340203657E+02 -0.24091245789E+02  0.96965115415E+02  0.92823913157E+02 0.  0.
         11    1    3    3    0    0  0.16016230160E+01 -0.34543236808E+02  0.13672415180E+02  0.37185149489E+02  0.51100000000E-03 0. -1.
         22    1    1    0    0    0  0.99321104682E+01 -0.10340203657E+02  0.24091245789E+02  0.28034884585E+02  0.00000000000E+00 0.  1.
</event>
<event>
 5    1  0.8778488E-005  0.9118800E+02  0.7818608E-02  0.1130116E+00
         25   -1    0    0    0    0  0.00000000000E+00  0.00000000000E+00  0.99999998245E-14  0.12500000000E+03  0.12500000000E+03 0.  0.
        -11    1    3    3    0    0 -0.49144686145E+02  0.18144882020E+02 -0.17928670515E+02  0.55370336341E+02  0.51100000000E-03 0. -1.
         23    2    1    0    0    0 -0.56923217858E+01  0.20233489687E+02 -0.15394193155E+02  0.98946635244E+02  0.95455009355E+02 0.  0.
         11    1    3    3    0    0  0.43452364359E+02  0.20886076670E+01  0.25344773602E+01  0.43576298903E+02  0.51100000000E-03 0.  1.
         22    1    1    0    0    0  0.56923217858E+01 -0.20233489687E+02  0.15394193155E+02  0.26053364756E+02  0.00000000000E+00 0. -1.
</event>
<event>
 5    1  0.8778488E-005  0.9118800E+02  0.7818608E-02  0.1130116E+00
         25   -1    0    0    0    0  0.00000000000E+00  0.00000000000E+00  0.99999998245E-14  0.12500000000E+03  0.12500000000E+03 0.  0.
        -11    1    3    3    0    0 -0.50543478242E+01  0.18840307925E+02  0.53545101016E+02  0.56987555463E+02  0.51100000000E-03 0.  1.
         23    2    1    0    0    0  0.86268791011E+01 -0.34361715600E+01  0.34341609901E+02  0.89425058136E+02  0.82044283982E+02 0.  0.
         11    1    3    3    0    0  0.13681226925E+02 -0.22276479485E+02 -0.19203491115E+02  0.32437502673E+02  0.51100000000E-03 0. -1.
         22    1    1    0    0    0 -0.86268791011E+01  0.34361715600E+01 -0.34341609901E+02  0.35574941864E+02  0.00000000000E+00 0.  1.
</event>
<event>
 5    1  0.8778488E-005  0.9118800E+02  0.7818608E-02  0.1130116E+00
         25   -1    0    0    0    0  0.00000000000E+00  0.00000000000E+00  0.99999998245E-14  0.12500000000E+03  0.12500000000E+03 0.  0.
        -11    1    3    3    0    0  0.23792340029E+02 -0.22818420909E+02 -0.46211457057E+02  0.56764905887E+02  0.51100000000E-03 0. -1.
         23    2    1    0    0    0 -0.21464982972E+01 -0.23684609340E+02 -0.17463027814E+02  0.95495330624E+02  0.90823084378E+02 0.  0.
         11    1    3    3    0    0 -0.25938838326E+02 -0.86618843170E+00  0.28748429243E+02  0.38730424737E+02  0.51100000000E-03 0.  1.
         22    1    1    0    0    0  0.21464982972E+01  0.23684609340E+02  0.17463027814E+02  0.29504669376E+02  0.00000000000E+00 0. -1.
</event>
<event>
 5    1  0.8778488E-005  0.9118800E+02  0.7818608E-02  0.1130116E+00
         25   -1    0    0    0    0  0.00000000000E+00  0.00000000000E+00  0.99999998245E-14  0.12500000000E+03  0.12500000000E+03 0.  0.
        -11    1    3    3    0    0  0.37893154126E+02 -0.12996657981E+02  0.39360959983E+02  0.56161280428E+02  0.51100000000E-03 0.  1.
         23    2    1    0    0    0  0.82823891492E+01  0.92893148636E+01  0.27069378472E+02  0.95206702239E+02  0.90424971992E+02 0.  0.
         11    1    3    3    0    0 -0.29610764976E+02  0.22285972844E+02 -0.12291581511E+02  0.39045421811E+02  0.51100000000E-03 0. -1.
         22    1    1    0    0    0 -0.82823891492E+01 -0.92893148636E+01 -0.27069378472E+02  0.29793297761E+02  0.00000000000E+00 0.  1.
</event>
<event>
 5    1  0.8778488E-005  0.9118800E+02  0.7818608E-02  0.1130116E+00
         25   -1    0    0    0    0  0.00000000000E+00  0.00000000000E+00  0.99999998245E-14  0.12500000000E+03  0.12500000000E+03 0.  0.
        -11    1    3    3    0    0 -0.45364302962E+01  0.32811781854E+02  0.12682585371E+02  0.35468862404E+02  0.51100000000E-03 0. -1.
         23    2    1    0    0    0  0.39306152295E+01 -0.15232996466E+02 -0.23858500741E+02  0.96421651989E+02  0.92089157871E+02 0.  0.
         11    1    3    3    0    0  0.84670455256E+01 -0.48044778320E+02 -0.36541086112E+02  0.60952789586E+02  0.51100000000E-03 0.  1.
         22    1    1    0    0    0 -0.39306152295E+01  0.15232996466E+02  0.23858500741E+02  0.28578348011E+02  0.00000000000E+00 0.  1.
</event>
<event>
 5    1  0.8778488E-005  0.9118800E+02  0.7818608E-02  0.1130116E+00
         25   -1    0    0    0    0  0.00000000000E+00  0.00000000000E+00  0.99999998245E-14  0.12500000000E+03  0.12500000000E+03 0.  0.
        -11    1    3    3    0    0 -0.36114863903E+02  0.31846205592E+01  0.75115831586E+01  0.37024979198E+02  0.51100000000E-03 0. -1.
         23    2    1    0    0    0  0.49202557274E+01 -0.10945997808E+02 -0.28919858270E+02  0.93688947849E+02  0.88301964657E+02 0.  0.
         11    1    3    3    0    0  0.41035119630E+02 -0.14130618367E+02 -0.36431441428E+02  0.56663968651E+02  0.51100000000E-03 0.  1.
         22    1    1    0    0    0 -0.49202557274E+01  0.10945997808E+02  0.28919858270E+02  0.31311052151E+02  0.00000000000E+00 0.  1.
</event>
<event>
 5    1  0.8778488E-005  0.9118800E+02  0.7818608E-02  0.1130116E+00
         25   -1    0    0    0    0  0.00000000000E+00  0.00000000000E+00  0.99999998245E-14  0.12500000000E+03  0.12500000000E+03 0.  0.
        -11    1    3    3    0    0 -0.42481894376E+02  0.41868066506E+02  0.23049727328E+01  0.59690528916E+02  0.51100000000E-03 0. -1.
         23    2    1    0    0    0 -0.28032519978E+02  0.91370091596E+01  0.14890690538E+01  0.95478407235E+02  0.90799789696E+02 0.  0.
         11    1    3    3    0    0  0.14449374397E+02 -0.32731057347E+02 -0.81590367904E+00  0.35787878319E+02  0.51100000000E-03 0.  1.
         22    1    1    0    0    0  0.28032519978E+02 -0.91370091596E+01 -0.14890690538E+01  0.29521592765E+02  0.00000000000E+00 0. -1.
</event>
<event>
 5    1  0.8778488E-005  0.9118800E+02  0.7818608E-02  0.1130116E+00
         25   -1    0    0    0    0  0.00000000000E+00  0.00000000000E+00  0.99999998245E-14  0.12500000000E+03  0.12500000000E+03 0.  0.
        -11    1    3    3    0    0 -0.44638123006E+02 -0.15386422532E+01 -0.16706398870E+02  0.47686824270E+02  0.51100000000E-03 0.  1.
         23    2    1    0    0    0 -0.19532884804E+02 -0.12197103750E+02  0.20737244201E+02  0.94010707886E+02  0.88756278491E+02 0.  0.
         11    1    3    3    0    0  0.25105238202E+02 -0.10658461497E+02  0.37443643071E+02  0.46323883617E+02  0.51100000000E-03 0. -1.
         22    1    1    0    0    0  0.19532884804E+02  0.12197103750E+02 -0.20737244201E+02  0.30989292114E+02  0.00000000000E+00 0.  1.
</event>
<event>
 5    1  0.8778488E-005  0.9118800E+02  0.7818608E-02  0.1130116E+00
         25   -1    0    0    0    0  0.00000000000E+00  0.00000000000E+00  0.99999998245E-14  0.12500000000E+03  0.12500000000E+03 0.  0.
        -11    1    3    3    0    0 -0.10202844266E+02 -0.32803376577E+02 -0.38862297950E+00  0.34355648357E+02  0.51100000000E-03 0.  1.
         23    2    1    0    0    0  0.10591833421E+02  0.25051978556E+02  0.85674529810E+01  0.96483516777E+02  0.92173093657E+02 0.  0.
         11    1    3    3    0    0  0.20794677687E+02  0.57855355133E+02  0.89560759605E+01  0.62127868421E+02  0.51100000000E-03 0. -1.
         22    1    1    0    0    0 -0.10591833421E+02 -0.25051978556E+02 -0.85674529810E+01  0.28516483223E+02  0.00000000000E+00 0. -1.
</event>
<event>
 5    1  0.8778488E-005  0.9118800E+02  0.7818608E-02  0.1130116E+00
         25   -1    0    0    0    0  0.00000000000E+00  0.00000000000E+00  0.99999998245E-14  0.12500000000E+03  0.12500000000E+03 0.  0.
        -11    1    3    3    0    0  0.28813108046E+02 -0.43172977718E+02  0.14902559200E+02  0.54001735817E+02  0.51100000000E-03 0.  1.
         23    2    1    0    0    0  0.25126849633E+02 -0.10159423362E+02 -0.10617464501E+02  0.95891530305E+02  0.91366747651E+02 0.  0.
         11    1    3    3    0    0 -0.36862584132E+01  0.33013554356E+02 -0.25520023701E+02  0.41889794488E+02  0.51100000000E-03 0. -1.
         22    1    1    0    0    0 -0.25126849633E+02  0.10159423362E+02  0.10617464501E+02  0.29108469695E+02  0.00000000000E+00 0.  1.
</event>
<event>
 5    1  0.8778488E-005  0.9118800E+02  0.7818608E-02  0.1130116E+00
         25   -1    0    0    0    0  0.00000000000E+00  0.00000000000E+00  0.99999998245E-14  0.12500000000E+03  0.12500000000E+03 0.  0.
        -11    1    3    3    0    0  0.34045735840E+02 -0.32931934278E+02  0.29435106693E+02  0.55767821640E+02  0.51100000000E-03 0.  1.
         23    2    1    0    0    0  0.21174991307E+02  0.38968589398E+01  0.19322878756E+02  0.96070094886E+02  0.91610718377E+02 0.  0.
         11    1    3    3    0    0 -0.12870744533E+02  0.36828793217E+02 -0.10112227937E+02  0.40302273246E+02  0.51100000000E-03 0. -1.
         22    1    1    0    0    0 -0.21174991307E+02 -0.38968589398E+01 -0.19322878756E+02  0.28929905114E+02  0.00000000000E+00 0.  1.
</event>
<event>
 5    1  0.8778488E-005  0.9118800E+02  0.7818608E-02  0.1130116E+00
         25   -1    0    0    0    0  0.00000000000E+00  0.00000000000E+00  0.99999998245E-14  0.12500000000E+03  0.12500000000E+03 0.  0.
        -11    1    3    3    0    0  0.88152657425E+01 -0.27320261771E+02 -0.39675284008E+02  0.48971765076E+02  0.51100000000E-03 0.  1.
         23    2    1    0    0    0  0.22036500825E+02  0.10732646854E+02 -0.16596320872E+02  0.95398734088E+02  0.90690040919E+02 0.  0.
         11    1    3    3    0    0  0.13221235083E+02  0.38052908625E+02  0.23078963135E+02  0.46426969011E+02  0.51100000000E-03 0. -1.
         22    1    1    0    0    0 -0.22036500825E+02 -0.10732646854E+02  0.16596320872E+02  0.29601265912E+02  0.00000000000E+00 0. -1.
</event>
<event>
 5    1  0.8778488E-005  0.9118800E+02  0.7818608E-02  0.1130116E+00
         25   -1    0    0    0    0  0.00000000000E+00  0.00000000000E+00  0.99999998245E-14  0.12500000000E+03  0.12500000000E+03 0.  0.
        -11    1    3    3    0    0  0.54257063436E+01 -0.48595576491E+02 -0.38507932931E+02  0.62240093530E+02  0.51100000000E-03 0. -1.
         23    2    1    0    0    0  0.18527225322E+01 -0.19917605871E+02 -0.20842728040E+02  0.96111197384E+02  0.91666784312E+02 0.  0.
         11    1    3    3    0    0 -0.35729838114E+01  0.28677970620E+02  0.17665204891E+02  0.33871103854E+02  0.51100000000E-03 0.  1.
         22    1    1    0    0    0 -0.18527225322E+01  0.19917605871E+02  0.20842728040E+02  0.28888802616E+02  0.00000000000E+00 0. -1.
</event>
<event>
 5    1  0.8778488E-005  0.9118800E+02  0.7818608E-02  0.1130116E+00
         25   -1    0    0    0    0  0.00000000000E+00  0.00000000000E+00  0.99999998245E-14  0.12500000000E+03  0.12500000000E+03 0.  0.
        -11    1    3    3    0    0 -0.30395979336E+02 -0.28963935987E+02 -0.53579616713E+01  0.42326503531E+02  0.51100000000E-03 0. -1.
         23    2    1    0    0    0 -0.16582127661E+02  0.21660494611E+02  0.81818203447E+01  0.96520425412E+02  0.92223133502E+02 0.  0.
         11    1    3    3    0    0  0.13813851675E+02  0.50624430598E+02  0.13539782016E+02  0.54193921881E+02  0.51100000000E-03 0.  1.
         22    1    1    0    0    0  0.16582127661E+02 -0.21660494611E+02 -0.81818203447E+01  0.28479574588E+02  0.00000000000E+00 0. -1.
</event>
<event>
 5    1  0.8778488E-005  0.9118800E+02  0.7818608E-02  0.1130116E+00
         25   -1    0    0    0    0  0.00000000000E+00  0.00000000000E+00  0.99999998245E-14  0.12500000000E+03  0.12500000000E+03 0.  0.
        -11    1    3    3    0    0  0.13007752896E+02  0.31342535328E+02  0.33436499365E+02  0.47639853549E+02  0.51100000000E-03 0.  1.
         23    2    1    0    0    0  0.26924462267E+02 -0.67536345500E+01  0.21410263733E+02  0.89943793115E+02  0.82830841350E+02 0.  0.
         11    1    3    3    0    0  0.13916709371E+02 -0.38096169878E+02 -0.12026235631E+02  0.42303939566E+02  0.51100000000E-03 0. -1.
         22    1    1    0    0    0 -0.26924462267E+02  0.67536345500E+01 -0.21410263733E+02  0.35056206885E+02  0.00000000000E+00 0. -1.
</event>
<event>
 5    1  0.8778488E-005  0.9118800E+02  0.7818608E-02  0.1130116E+00
         25   -1    0    0    0    0  0.00000000000E+00  0.00000000000E+00  0.99999998245E-14  0.12500000000E+03  0.12500000000E+03 0.  0.
        -11    1    3    3    0    0 -0.34951870386E+02 -0.67492379609E+01 -0.16338693688E+02  0.39168078434E+02  0.51100000000E-03 0. -1.
         23    2    1    0    0    0  0.20270315497E+02  0.28888033147E+01 -0.21313117042E+02  0.95445307767E+02  0.90754211702E+02 0.  0.
         11    1    3    3    0    0  0.55222185883E+02  0.96380412756E+01 -0.49744233546E+01  0.56277229332E+02  0.51100000000E-03 0.  1.
         22    1    1    0    0    0 -0.20270315497E+02 -0.28888033147E+01  0.21313117042E+02  0.29554692233E+02  0.00000000000E+00 0.  1.
</event>
<event>
 5    1  0.8778488E-005  0.9118800E+02  0.7818608E-02  0.1130116E+00
         25   -1    0    0    0    0  0.00000000000E+00  0.00000000000E+00  0.99999998245E-14  0.12500000000E+03  0.12500000000E+03 0.  0.
        -11    1    3    3    0    0 -0.61200799202E+02 -0.15602804870E+01 -0.12847060045E+01  0.61234163406E+02  0.51100000000E-03 0.  1.
         23    2    1    0    0    0 -0.27523205490E+02 -0.58548770326E+00 -0.94367651371E+01  0.95898072701E+02  0.91375697946E+02 0.  0.
         11    1    3    3    0    0  0.33677593713E+02  0.97479278376E+00 -0.81520591327E+01  0.34663909295E+02  0.51100000000E-03 0. -1.
         22    1    1    0    0    0  0.27523205490E+02  0.58548770326E+00  0.94367651371E+01  0.29101927299E+02  0.00000000000E+00 0.  1.
</event>
<event>
 5    1  0.8778488E-005  0.9118800E+02  0.7818608E-02  0.1130116E+00
         25   -1    0    0    0    0  0.00000000000E+00  0.00000000000E+00  0.99999998245E-14  0.12500000000E+03  0.12500000000E+03 0.  0.
        -11    1    3    3    0    0  0.76303226221E+01 -0.17283304468E+02  0.44354064704E+02  0.48210138899E+02  0.51100000000E-03 0.  1.
         23    2    1    0    0    0  0.27208215954E+02  0.64265907160E+01  0.34701581236E+02  0.80437820701E+02  0.66966074808E+02 0.  0.
         11    1    3    3    0    0  0.19577893332E+02  0.23709895184E+02 -0.96524834677E+01  0.32227681802E+02  0.51100000000E-03 0. -1.
         22    1    1    0    0    0 -0.27208215954E+02 -0.64265907160E+01 -0.34701581236E+02  0.44562179299E+02  0.00000000000E+00 0.  1.
</event>
<event>
 5    1  0.8778488E-005  0.9118800E+02  0.7818608E-02  0.1130116E+00
         25   -1    0    0    0    0  0.00000000000E+00  0.00000000000E+00  0.99999998245E-14  0.12500000000E+03  0.12500000000E+03 0.  0.
        -11    1    3    3    0    0  0.24094386607E+02 -0.32143265934E+02  0.41076017573E+02  0.57454053214E+02  0.51100000000E-03 0. -1.
         23    2    1    0    0    0  0.27986666110E+01 -0.45734176449E+01  0.30745730231E+02  0.93790248140E+02  0.88445248798E+02 0.  0.
         11    1    3    3    0    0 -0.21295719996E+02  0.27569848289E+02 -0.10330287342E+02  0.36336194925E+02  0.51100000000E-03 0.  1.
         22    1    1    0    0    0 -0.27986666110E+01  0.45734176449E+01 -0.30745730231E+02  0.31209751860E+02  0.00000000000E+00 0. -1.
</event>
<event>
 5    1  0.8778488E-005  0.9118800E+02  0.7818608E-02  0.1130116E+00
         25   -1    0    0    0    0  0.00000000000E+00  0.00000000000E+00  0.99999998245E-14  0.12500000000E+03  0.12500000000E+03 0.  0.
        -11    1    3    3    0    0  0.19763052827E+02  0.35540418131E+02 -0.15976946882E+02  0.43691674377E+02  0.51100000000E-03 0. -1.
         23    2    1    0    0    0  0.19315932673E+02 -0.19815563959E+01  0.21017454247E+02  0.96385926473E+02  0.92040651988E+02 0.  0.
         11    1    3    3    0    0 -0.44712015367E+00 -0.37521974527E+02  0.36994401129E+02  0.52694252096E+02  0.51100000000E-03 0.  1.
         22    1    1    0    0    0 -0.19315932673E+02  0.19815563959E+01 -0.21017454247E+02  0.28614073527E+02  0.00000000000E+00 0.  1.
</event>
<event>
 5    1  0.8778488E-005  0.9118800E+02  0.7818608E-02  0.1130116E+00
         25   -1    0    0    0    0  0.00000000000E+00  0.00000000000E+00  0.99999998245E-14  0.12500000000E+03  0.12500000000E+03 0.  0.
        -11    1    3    3    0    0 -0.45903192760E+02  0.18265568144E+02  0.34747811521E+02  0.60399871614E+02  0.51100000000E-03 0. -1.
         23    2    1    0    0    0 -0.14808043368E+02  0.91063687012E+01  0.25552284556E+02  0.94094930103E+02  0.88874813788E+02 0.  0.
         11    1    3    3    0    0  0.31095149392E+02 -0.91591994430E+01 -0.91955269648E+01  0.33695058489E+02  0.51100000000E-03 0.  1.
         22    1    1    0    0    0  0.14808043368E+02 -0.91063687012E+01 -0.25552284556E+02  0.30905069897E+02  0.00000000000E+00 0. -1.
</event>
<event>
 5    1  0.8778488E-005  0.9118800E+02  0.7818608E-02  0.1130116E+00
         25   -1    0    0    0    0  0.00000000000E+00  0.00000000000E+00  0.99999998245E-14  0.12500000000E+03  0.12500000000E+03 0.  0.
        -11    1    3    3    0    0  0.25165802342E+02  0.25196991914E+01 -0.28060423381E+02  0.37776366316E+02  0.51100000000E-03 0.  1.
         23    2    1    0    0    0 -0.14115660426E+02 -0.17249261843E+02 -0.36189999233E+02  0.82497000719E+02  0.70705375890E+02 0.  0.
         11    1    3    3    0    0 -0.39281462768E+02 -0.19768961035E+02 -0.81295758519E+01  0.44720634403E+02  0.51100000000E-03 0. -1.
         22    1    1    0    0    0  0.14115660426E+02  0.17249261843E+02  0.36189999233E+02  0.42502999281E+02  0.00000000000E+00 0. -1.
</event>
<event>
 5    1  0.8778488E-005  0.9118800E+02  0.7818608E-02  0.1130116E+00
         25   -1    0    0    0    0  0.00000000000E+00  0.00000000000E+00  0.99999998245E-14  0.12500000000E+03  0.12500000000E+03 0.  0.
        -11    1    3    3    0    0 -0.48620143498E+02 -0.14520290107E+01  0.20600036863E+02  0.52824125748E+02  0.51100000000E-03 0.  1.
         23    2    1    0    0    0 -0.63952212016E+01 -0.90779786622E+01  0.26624100742E+02  0.96152967377E+02  0.91723725634E+02 0.  0.
         11    1    3    3    0    0  0.42224922297E+02 -0.76259496515E+01  0.60240638797E+01  0.43328841629E+02  0.51100000000E-03 0. -1.
         22    1    1    0    0    0  0.63952212016E+01  0.90779786622E+01 -0.26624100742E+02  0.28847032623E+02  0.00000000000E+00 0.  1.
</event>
<event>
 5    1  0.8778488E-005  0.9118800E+02  0.7818608E-02  0.1130116E+00
         25   -1    0    0    0    0  0.00000000000E+00  0.00000000000E+00  0.99999998245E-14  0.12500000000E+03  0.12500000000E+03 0.  0.
        -11    1    3    3    0    0 -0.85502253237E+01 -0.39169133848E+02  0.13464236786E+01  0.40114090498E+02  0.51100000000E-03 0. -1.
         23    2    1    0    0    0  0.20008819208E+01  0.63676993050E+01 -0.28602743819E+02  0.95628788298E+02  0.91006577094E+02 0.  0.
         11    1    3    3    0    0  0.10551107244E+02  0.45536833153E+02 -0.29949167497E+02  0.55514697799E+02  0.51100000000E-03 0.  1.
         22    1    1    0    0    0 -0.20008819208E+01 -0.63676993050E+01  0.28602743819E+02  0.29371211702E+02  0.00000000000E+00 0. -1.
</event>
<event>
 5    1  0.8778488E-005  0.9118800E+02  0.7818608E-02  0.1130116E+00
         25   -1    0    0    0    0  0.00000000000E+00  0.00000000000E+00  0.99999998245E-14  0.12500000000E+03  0.12500000000E+03 0.  0.
        -11    1    3    3    0    0  0.12802843730E+02 -0.17021413909E+02  0.25914254396E+02  0.33543850706E+02  0.51100000000E-03 0. -1.
         23    2    1    0    0    0 -0.82377060753E+01  0.25558899377E+02 -0.13205092804E+02  0.95075234091E+02  0.90243052490E+02 0.  0.
         11    1    3    3    0    0 -0.21040549805E+02  0.42580313286E+02 -0.39119347200E+02  0.61531383385E+02  0.51100000000E-03 0.  1.
         22    1    1    0    0    0  0.82377060753E+01 -0.25558899377E+02  0.13205092804E+02  0.29924765909E+02  0.00000000000E+00 0.  1.
</event>
<event>
 5    1  0.8778488E-005  0.9118800E+02  0.7818608E-02  0.1130116E+00
         25   -1    0    0    0    0  0.00000000000E+00  0.00000000000E+00  0.99999998245E-14  0.12500000000E+03  0.12500000000E+03 0.  0.
        -11    1    3    3    0    0  0.14663792236E+01 -0.21754255944E+02 -0.47438096730E+02  0.52208916302E+02  0.51100000000E-03 0. -1.
         23    2    1    0    0    0 -0.47117185633E+00  0.15443422134E+02 -0.24751308331E+02  0.95822122178E+02  0.91271740119E+02 0.  0.
         11    1    3    3    0    0 -0.19375510800E+01  0.37197678079E+02  0.22686788400E+02  0.43613205876E+02  0.51100000000E-03 0.  1.
         22    1    1    0    0    0  0.47117185633E+00 -0.15443422134E+02  0.24751308331E+02  0.29177877822E+02  0.00000000000E+00 0. -1.
</event>
<event>
 5    1  0.8778488E-005  0.9118800E+02  0.7818608E-02  0.1130116E+00
         25   -1    0    0    0    0  0.00000000000E+00  0.00000000000E+00  0.99999998245E-14  0.12500000000E+03  0.12500000000E+03 0.  0.
        -11    1    3    3    0    0 -0.58221347614E+01  0.26422777746E+02  0.30935015726E+02  0.41097878720E+02  0.51100000000E-03 0. -1.
         23    2    1    0    0    0  0.29741458935E+02  0.11331335694E+02 -0.36684824363E+01  0.92962345411E+02  0.87267326948E+02 0.  0.
         11    1    3    3    0    0  0.35563593696E+02 -0.15091442052E+02 -0.34603498163E+02  0.51864466691E+02  0.51100000000E-03 0.  1.
         22    1    1    0    0    0 -0.29741458935E+02 -0.11331335694E+02  0.36684824363E+01  0.32037654589E+02  0.00000000000E+00 0. -1.
</event>
<event>
 5    1  0.8778488E-005  0.9118800E+02  0.7818608E-02  0.1130116E+00
         25   -1    0    0    0    0  0.00000000000E+00  0.00000000000E+00  0.99999998245E-14  0.12500000000E+03  0.12500000000E+03 0.  0.
        -11    1    3    3    0    0 -0.80959839546E+01  0.14182292701E+02  0.60087149541E+02  0.62266748130E+02  0.51100000000E-03 0.  1.
         23    2    1    0    0    0 -0.39426026762E+01  0.30655715713E+01  0.29590375075E+02  0.94991132278E+02  0.90126483729E+02 0.  0.
         11    1    3    3    0    0  0.41533812784E+01 -0.11116721130E+02 -0.30496774467E+02  0.32724384148E+02  0.51100000000E-03 0. -1.
         22    1    1    0    0    0  0.39426026762E+01 -0.30655715713E+01 -0.29590375075E+02  0.30008867722E+02  0.00000000000E+00 0.  1.
</event>
<event>
 5    1  0.8778488E-005  0.9118800E+02  0.7818608E-02  0.1130116E+00
         25   -1    0    0    0    0  0.00000000000E+00  0.00000000000E+00  0.99999998245E-14  0.12500000000E+03  0.12500000000E+03 0.  0.
        -11    1    3    3    0    0  0.51403548350E+02  0.21521324800E+02 -0.27202492240E+02  0.62011835874E+02  0.51100000000E-03 0. -1.
         23    2    1    0    0    0  0.27628810638E+02  0.99869414537E+01 -0.83973947837E+01  0.94445026329E+02  0.89365858035E+02 0.  0.
         11    1    3    3    0    0 -0.23774737712E+02 -0.11534383346E+02  0.18805097456E+02  0.32433190455E+02  0.51100000000E-03 0.  1.
         22    1    1    0    0    0 -0.27628810638E+02 -0.99869414537E+01  0.83973947837E+01  0.30554973671E+02  0.00000000000E+00 0. -1.
</event>
<event>
 5    1  0.8778488E-005  0.9118800E+02  0.7818608E-02  0.1130116E+00
         25   -1    0    0    0    0  0.00000000000E+00  0.00000000000E+00  0.99999998245E-14  0.12500000000E+03  0.12500000000E+03 0.  0.
        -11    1    3    3    0    0 -0.11640492698E+02 -0.32471874769E+02  0.13713951128E+02  0.37121370894E+02  0.51100000000E-03 0. -1.
         23    2    1    0    0    0 -0.13581062957E+02  0.14954554041E+02 -0.20949671139E+02  0.95897204972E+02  0.91374510904E+02 0.  0.
         11    1    3    3    0    0 -0.19405702584E+01  0.47426428810E+02 -0.34663622267E+02  0.58775834078E+02  0.51100000000E-03 0.  1.
         22    1    1    0    0    0  0.13581062957E+02 -0.14954554041E+02  0.20949671139E+02  0.29102795028E+02  0.00000000000E+00 0.  1.
</event>
<event>
 5    1  0.8778488E-005  0.9118800E+02  0.7818608E-02  0.1130116E+00
         25   -1    0    0    0    0  0.00000000000E+00  0.00000000000E+00  0.99999998245E-14  0.12500000000E+03  0.12500000000E+03 0.  0.
        -11    1    3    3    0    0  0.37050926378E+02 -0.24830854679E+02  0.14714346008E+02  0.46966524975E+02  0.51100000000E-03 0.  1.
         23    2    1    0    0    0  0.19991632920E+02 -0.95532931048E+00 -0.22843842452E+02  0.94628645423E+02  0.89622326212E+02 0.  0.
         11    1    3    3    0    0 -0.17059293458E+02  0.23875525368E+02 -0.37558188460E+02  0.47662120448E+02  0.51100000000E-03 0. -1.
         22    1    1    0    0    0 -0.19991632920E+02  0.95532931048E+00  0.22843842452E+02  0.30371354577E+02  0.00000000000E+00 0.  1.
</event>
<event>
 5    1  0.8778488E-005  0.9118800E+02  0.7818608E-02  0.1130116E+00
         25   -1    0    0    0    0  0.00000000000E+00  0.00000000000E+00  0.99999998245E-14  0.12500000000E+03  0.12500000000E+03 0.  0.
        -11    1    3    3    0    0 -0.36856447495E+02  0.11085202010E+02 -0.28719873551E+02  0.48021979995E+02  0.51100000000E-03 0. -1.
         23    2    1    0    0    0 -0.48228965469E+01  0.28689334301E+02  0.20988159913E+01  0.95832496468E+02  0.91285946985E+02 0.  0.
         11    1    3    3    0    0  0.32033550949E+02  0.17604132291E+02  0.30818689542E+02  0.47810516473E+02  0.51100000000E-03 0.  1.
         22    1    1    0    0    0  0.48228965469E+01 -0.28689334301E+02 -0.20988159913E+01  0.29167503532E+02  0.00000000000E+00 0. -1.
</event>
<event>
 5    1  0.8778488E-005  0.9118800E+02  0.7818608E-02  0.1130116E+00
         25   -1    0    0    0    0  0.00000000000E+00  0.00000000000E+00  0.99999998245E-14  0.12500000000E+03  0.12500000000E+03 0.  0.
        -11    1    3    3    0    0 -0.51512158550E+01 -0.70606052336E+01  0.61822061107E+02  0.62436803337E+02  0.51100000000E-03 0.  1.
         23    2    1    0    0    0 -0.17748148670E+01 -0.52548857450E+01  0.29673262961E+02  0.94812811877E+02  0.89878823809E+02 0.  0.
         11    1    3    3    0    0  0.33764009880E+01  0.18057194887E+01 -0.32148798147E+02  0.32376008541E+02  0.51100000000E-03 0. -1.
         22    1    1    0    0    0  0.17748148670E+01  0.52548857450E+01 -0.29673262961E+02  0.30187188123E+02  0.00000000000E+00 0.  1.
</event>
<event>
 5    1  0.8778488E-005  0.9118800E+02  0.7818608E-02  0.1130116E+00
         25   -1    0    0    0    0  0.00000000000E+00  0.00000000000E+00  0.99999998245E-14  0.12500000000E+03  0.12500000000E+03 0.  0.
        -11    1    3    3    0    0 -0.26985762153E+02 -0.17666160593E+02 -0.22444273466E+02  0.39294656135E+02  0.51100000000E-03 0. -1.
         23    2    1    0    0    0  0.23838768173E+02  0.58387372629E+01 -0.16094801460E+02  0.95650036544E+02  0.91035757459E+02 0.  0.
         11    1    3    3    0    0  0.50824530326E+02  0.23504897855E+02  0.63494720062E+01  0.56355380409E+02  0.51100000000E-03 0.  1.
         22    1    1    0    0    0 -0.23838768173E+02 -0.58387372629E+01  0.16094801460E+02  0.29349963456E+02  0.00000000000E+00 0.  1.
</event>
<event>
 5    1  0.8778488E-005  0.9118800E+02  0.7818608E-02  0.1130116E+00
         25   -1    0    0    0    0  0.00000000000E+00  0.00000000000E+00  0.99999998245E-14  0.12500000000E+03  0.12500000000E+03 0.  0.
        -11    1    3    3    0    0 -0.89802319369E+01  0.50542159930E+02 -0.16502163760E+01  0.51360273660E+02  0.51100000000E-03 0.  1.
         23    2    1    0    0    0  0.75607515961E+01  0.15417379088E+02  0.22206485962E+02  0.96928866046E+02  0.92775085619E+02 0.  0.
         11    1    3    3    0    0  0.16540983533E+02 -0.35124780842E+02  0.23856702338E+02  0.45568592387E+02  0.51100000000E-03 0. -1.
         22    1    1    0    0    0 -0.75607515961E+01 -0.15417379088E+02 -0.22206485962E+02  0.28071133954E+02  0.00000000000E+00 0.  1.
</event>
<event>
 5    1  0.8778488E-005  0.9118800E+02  0.7818608E-02  0.1130116E+00
         25   -1    0    0    0    0  0.00000000000E+00  0.00000000000E+00  0.99999998245E-14  0.12500000000E+03  0.12500000000E+03 0.  0.
        -11    1    3    3    0    0 -0.47068057161E+01 -0.25620922592E+02  0.54841029675E+02  0.60713460044E+02  0.51100000000E-03 0. -1.
         23    2    1    0    0    0 -0.15011706111E+01 -0.20167351587E+02  0.18530523172E+02  0.97570893703E+02  0.93636122441E+02 0.  0.
         11    1    3    3    0    0  0.32056351050E+01  0.54535710053E+01 -0.36310506503E+02  0.36857433659E+02  0.51100000000E-03 0.  1.
         22    1    1    0    0    0  0.15011706111E+01  0.20167351587E+02 -0.18530523172E+02  0.27429106297E+02  0.00000000000E+00 0. -1.
</event>
<event>
 5    1  0.8778488E-005  0.9118800E+02  0.7818608E-02  0.1130116E+00
         25   -1    0    0    0    0  0.00000000000E+00  0.00000000000E+00  0.99999998245E-14  0.12500000000E+03  0.12500000000E+03 0.  0.
        -11    1    3    3    0    0  0.18842633046E+02 -0.35183306775E+02  0.44777779924E+02  0.59982993180E+02  0.51100000000E-03 0.  1.
         23    2    1    0    0    0  0.44144378859E+01 -0.68498755699E+01  0.27805720608E+02  0.96024732000E+02  0.91548801193E+02 0.  0.
         11    1    3    3    0    0 -0.14428195161E+02  0.28333431205E+02 -0.16972059316E+02  0.36041738819E+02  0.51100000000E-03 0. -1.
         22    1    1    0    0    0 -0.44144378859E+01  0.68498755699E+01 -0.27805720608E+02  0.28975268000E+02  0.00000000000E+00 0.  1.
</event>
<event>
 5    1  0.8778488E-005  0.9118800E+02  0.7818608E-02  0.1130116E+00
         25   -1    0    0    0    0  0.00000000000E+00  0.00000000000E+00  0.99999998245E-14  0.12500000000E+03  0.12500000000E+03 0.  0.
        -11    1    3    3    0    0  0.47191994137E+02  0.15432805732E+02 -0.19981153939E+02  0.53521045547E+02  0.51100000000E-03 0.  1.
         23    2    1    0    0    0  0.53282890271E+01  0.24909551631E+02 -0.10307280059E+02  0.97520617754E+02  0.93568982246E+02 0.  0.
         11    1    3    3    0    0 -0.41863705110E+02  0.94767458983E+01  0.96738738804E+01  0.43999572208E+02  0.51100000000E-03 0. -1.
         22    1    1    0    0    0 -0.53282890271E+01 -0.24909551631E+02  0.10307280059E+02  0.27479382246E+02  0.00000000000E+00 0. -1.
</event>
<event>
 5    1  0.8778488E-005  0.9118800E+02  0.7818608E-02  0.1130116E+00
         25   -1    0    0    0    0  0.00000000000E+00  0.00000000000E+00  0.99999998245E-14  0.12500000000E+03  0.12500000000E+03 0.  0.
        -11    1    3    3    0    0  0.26877808244E+02 -0.14849918563E+02 -0.44248978974E+02  0.53860085386E+02  0.51100000000E-03 0. -1.
         23    2    1    0    0    0 -0.73866299939E+01 -0.19753842046E+02 -0.16900334771E+02  0.97974125479E+02  0.94172880224E+02 0.  0.
         11    1    3    3    0    0 -0.34264438238E+02 -0.49039234836E+01  0.27348644203E+02  0.44114040093E+02  0.51100000000E-03 0.  1.
         22    1    1    0    0    0  0.73866299939E+01  0.19753842046E+02  0.16900334771E+02  0.27025874521E+02  0.00000000000E+00 0. -1.
</event>
<event>
 5    1  0.8778488E-005  0.9118800E+02  0.7818608E-02  0.1130116E+00
         25   -1    0    0    0    0  0.00000000000E+00  0.00000000000E+00  0.99999998245E-14  0.12500000000E+03  0.12500000000E+03 0.  0.
        -11    1    3    3    0    0 -0.45927321014E+01  0.18376385609E+02 -0.54905995547E+02  0.58081434930E+02  0.51100000000E-03 0.  1.
         23    2    1    0    0    0  0.52862970912E+01 -0.60051354926E+01 -0.28668997462E+02  0.95235625243E+02  0.90464945204E+02 0.  0.
         11    1    3    3    0    0  0.98790291925E+01 -0.24381521102E+02  0.26236998086E+02  0.37154190313E+02  0.51100000000E-03 0. -1.
         22    1    1    0    0    0 -0.52862970912E+01  0.60051354926E+01  0.28668997462E+02  0.29764374757E+02  0.00000000000E+00 0.  1.
</event>
<event>
 5    1  0.8778488E-005  0.9118800E+02  0.7818608E-02  0.1130116E+00
         25   -1    0    0    0    0  0.00000000000E+00  0.00000000000E+00  0.99999998245E-14  0.12500000000E+03  0.12500000000E+03 0.  0.
        -11    1    3    3    0    0 -0.11287120759E+01 -0.41349950728E+02 -0.39206845170E+02  0.56993588452E+02  0.51100000000E-03 0. -1.
         23    2    1    0    0    0 -0.86587181740E+01 -0.28723745496E+02 -0.45280576116E+01  0.94659758381E+02  0.89665710254E+02 0.  0.
         11    1    3    3    0    0 -0.75300060981E+01  0.12626205232E+02  0.34678787558E+02  0.37666169929E+02  0.51100000000E-03 0.  1.
         22    1    1    0    0    0  0.86587181740E+01  0.28723745496E+02  0.45280576116E+01  0.30340241619E+02  0.00000000000E+00 0. -1.
</event>
<event>
 5    1  0.8778488E-005  0.9118800E+02  0.7818608E-02  0.1130116E+00
         25   -1    0    0    0    0  0.00000000000E+00  0.00000000000E+00  0.99999998245E-14  0.12500000000E+03  0.12500000000E+03 0.  0.
        -11    1    3    3    0    0  0.37786075414E+02 -0.25590095524E+02  0.29337221615E+02  0.54252309227E+02  0.51100000000E-03 0.  1.
         23    2    1    0    0    0  0.28456019712E+02  0.51018355260E+01  0.26711395176E+01  0.95967108826E+02  0.91470089136E+02 0.  0.
         11    1    3    3    0    0 -0.93300557013E+01  0.30691931050E+02 -0.26666082097E+02  0.41714799599E+02  0.51100000000E-03 0. -1.
         22    1    1    0    0    0 -0.28456019712E+02 -0.51018355260E+01 -0.26711395176E+01  0.29032891174E+02  0.00000000000E+00 0.  1.
</event>
<event>
 5    1  0.8778488E-005  0.9118800E+02  0.7818608E-02  0.1130116E+00
         25   -1    0    0    0    0  0.00000000000E+00  0.00000000000E+00  0.99999998245E-14  0.12500000000E+03  0.12500000000E+03 0.  0.
        -11    1    3    3    0    0 -0.20433623744E+02 -0.26479753436E+02  0.19508531141E+00  0.33447696182E+02  0.51100000000E-03 0. -1.
         23    2    1    0    0    0  0.27868270530E+02 -0.12129752679E+02 -0.20942223400E+02  0.88089999684E+02  0.79984372980E+02 0.  0.
         11    1    3    3    0    0  0.48301894274E+02  0.14350000757E+02 -0.21137308711E+02  0.54642303502E+02  0.51100000000E-03 0.  1.
         22    1    1    0    0    0 -0.27868270530E+02  0.12129752679E+02  0.20942223400E+02  0.36910000316E+02  0.00000000000E+00 0.  1.
</event>
<event>
 5    1  0.8778488E-005  0.9118800E+02  0.7818608E-02  0.1130116E+00
         25   -1    0    0    0    0  0.00000000000E+00  0.00000000000E+00  0.99999998245E-14  0.12500000000E+03  0.12500000000E+03 0.  0.
        -11    1    3    3    0    0  0.10981698144E+02 -0.32828662955E+02  0.36485565491E+02  0.50294286902E+02  0.51100000000E-03 0.  1.
         23    2    1    0    0    0  0.26021240512E+02  0.27952900842E+01  0.10967178757E+02  0.96623995800E+02  0.92363406986E+02 0.  0.
         11    1    3    3    0    0  0.15039542368E+02  0.35623953039E+02 -0.25518386734E+02  0.46329708898E+02  0.51100000000E-03 0. -1.
         22    1    1    0    0    0 -0.26021240512E+02 -0.27952900842E+01 -0.10967178757E+02  0.28376004200E+02  0.00000000000E+00 0. -1.
</event>
<event>
 5    1  0.8778488E-005  0.9118800E+02  0.7818608E-02  0.1130116E+00
         25   -1    0    0    0    0  0.00000000000E+00  0.00000000000E+00  0.99999998245E-14  0.12500000000E+03  0.12500000000E+03 0.  0.
        -11    1    3    3    0    0 -0.42392614153E+01 -0.38543268025E+02  0.40706071297E+02  0.56218672059E+02  0.51100000000E-03 0.  1.
         23    2    1    0    0    0 -0.21755907240E+02 -0.17685926708E+02  0.17972450981E+02  0.91696539255E+02  0.85434974183E+02 0.  0.
         11    1    3    3    0    0 -0.17516645825E+02  0.20857341318E+02 -0.22733620316E+02  0.35477867195E+02  0.51100000000E-03 0. -1.
         22    1    1    0    0    0  0.21755907240E+02  0.17685926708E+02 -0.17972450981E+02  0.33303460745E+02  0.00000000000E+00 0.  1.
</event>
<event>
 5    1  0.8778488E-005  0.9118800E+02  0.7818608E-02  0.1130116E+00
         25   -1    0    0    0    0  0.00000000000E+00  0.00000000000E+00  0.99999998245E-14  0.12500000000E+03  0.12500000000E+03 0.  0.
        -11    1    3    3    0    0 -0.22265463124E+02  0.60344991914E+01  0.13370587941E+02  0.26663432839E+02  0.51100000000E-03 0. -1.
         23    2    1    0    0    0  0.21950611047E+02  0.18159597072E+02 -0.25495558241E+02  0.86768811408E+02  0.77892251553E+02 0.  0.
         11    1    3    3    0    0  0.44216074171E+02  0.12125097880E+02 -0.38866146181E+02  0.60105378569E+02  0.51100000000E-03 0.  1.
         22    1    1    0    0    0 -0.21950611047E+02 -0.18159597072E+02  0.25495558241E+02  0.38231188592E+02  0.00000000000E+00 0.  1.
</event>
<event>
 5    1  0.8778488E-005  0.9118800E+02  0.7818608E-02  0.1130116E+00
         25   -1    0    0    0    0  0.00000000000E+00  0.00000000000E+00  0.99999998245E-14  0.12500000000E+03  0.12500000000E+03 0.  0.
        -11    1    3    3    0    0  0.60320418824E+00 -0.32257054506E+02 -0.43722773938E+02  0.54337485972E+02  0.51100000000E-03 0. -1.
         23    2    1    0    0    0 -0.20987372273E+02 -0.72416762710E+01 -0.20996644433E+02  0.94442337334E+02  0.89362096738E+02 0.  0.
         11    1    3    3    0    0 -0.21590576462E+02  0.25015378235E+02  0.22726129505E+02  0.40104851361E+02  0.51100000000E-03 0.  1.
         22    1    1    0    0    0  0.20987372273E+02  0.72416762710E+01  0.20996644433E+02  0.30557662666E+02  0.00000000000E+00 0. -1.
</event>
<event>
 5    1  0.8778488E-005  0.9118800E+02  0.7818608E-02  0.1130116E+00
         25   -1    0    0    0    0  0.00000000000E+00  0.00000000000E+00  0.99999998245E-14  0.12500000000E+03  0.12500000000E+03 0.  0.
        -11    1    3    3    0    0  0.29299365183E+02  0.31528305601E+02 -0.28856774228E+01  0.43137153228E+02  0.51100000000E-03 0.  1.
         23    2    1    0    0    0  0.99070374355E+01 -0.79909016212E+01  0.26181382276E+02  0.95888684720E+02  0.91362854486E+02 0.  0.
         11    1    3    3    0    0 -0.19392327747E+02 -0.39519207222E+02  0.29067059699E+02  0.52751531492E+02  0.51100000000E-03 0. -1.
         22    1    1    0    0    0 -0.99070374355E+01  0.79909016212E+01 -0.26181382276E+02  0.29111315280E+02  0.00000000000E+00 0.  1.
</event>
<event>
 5    1  0.8778488E-005  0.9118800E+02  0.7818608E-02  0.1130116E+00
         25   -1    0    0    0    0  0.00000000000E+00  0.00000000000E+00  0.99999998245E-14  0.12500000000E+03  0.12500000000E+03 0.  0.
        -11    1    3    3    0    0  0.12450491377E+01 -0.35252504552E+02 -0.37366627934E+02  0.51386322187E+02  0.51100000000E-03 0. -1.
         23    2    1    0    0    0  0.23159123783E+02 -0.28986679149E+02 -0.10867600031E+02  0.86338943199E+02  0.77199325126E+02 0.  0.
         11    1    3    3    0    0  0.21914074645E+02  0.62658254027E+01  0.26499027903E+02  0.34952621012E+02  0.51100000000E-03 0.  1.
         22    1    1    0    0    0 -0.23159123783E+02  0.28986679149E+02  0.10867600031E+02  0.38661056801E+02  0.00000000000E+00 0. -1.
</event>
<event>
 5    1  0.8778488E-005  0.9118800E+02  0.7818608E-02  0.1130116E+00
         25   -1    0    0    0    0  0.00000000000E+00  0.00000000000E+00  0.99999998245E-14  0.12500000000E+03  0.12500000000E+03 0.  0.
        -11    1    3    3    0    0  0.32854522157E+02  0.22829063836E+02  0.64795684868E+01  0.40528639131E+02  0.51100000000E-03 0.  1.
         23    2    1    0    0    0  0.75427526764E+01 -0.10877039905E+02 -0.27375132191E+02  0.94592747945E+02  0.89572244509E+02 0.  0.
         11    1    3    3    0    0 -0.25311769481E+02 -0.33706103741E+02 -0.33854700678E+02  0.54064108814E+02  0.51100000000E-03 0. -1.
         22    1    1    0    0    0 -0.75427526764E+01  0.10877039905E+02  0.27375132191E+02  0.30407252055E+02  0.00000000000E+00 0. -1.
</event>
<event>
 5    1  0.8778488E-005  0.9118800E+02  0.7818608E-02  0.1130116E+00
         25   -1    0    0    0    0  0.00000000000E+00  0.00000000000E+00  0.99999998245E-14  0.12500000000E+03  0.12500000000E+03 0.  0.
        -11    1    3    3    0    0 -0.40639311563E+01  0.61448093746E+02 -0.27622260900E+01  0.61644250784E+02  0.51100000000E-03 0.  1.
         23    2    1    0    0    0 -0.77075865090E+01  0.26186718381E+02 -0.53330122326E+01  0.97186475792E+02  0.93121527844E+02 0.  0.
         11    1    3    3    0    0 -0.36436553527E+01 -0.35261375364E+02 -0.25707861426E+01  0.35542225009E+02  0.51100000000E-03 0. -1.
         22    1    1    0    0    0  0.77075865090E+01 -0.26186718381E+02  0.53330122326E+01  0.27813524208E+02  0.00000000000E+00 0.  1.
</event>
<event>
 5    1  0.8778488E-005  0.9118800E+02  0.7818608E-02  0.1130116E+00
         25   -1    0    0    0    0  0.00000000000E+00  0.00000000000E+00  0.99999998245E-14  0.12500000000E+03  0.12500000000E+03 0.  0.
        -11    1    3    3    0    0  0.17385292347E+02  0.73156925232E+01 -0.57105641553E+02  0.60140020323E+02  0.51100000000E-03 0. -1.
         23    2    1    0    0    0  0.18154198094E+02  0.68586085001E+01 -0.20446682697E+02  0.96809890878E+02  0.92614646355E+02 0.  0.
         11    1    3    3    0    0  0.76890574742E+00 -0.45708402307E+00  0.36658958856E+02  0.36669870555E+02  0.51100000000E-03 0.  1.
         22    1    1    0    0    0 -0.18154198094E+02 -0.68586085001E+01  0.20446682697E+02  0.28190109122E+02  0.00000000000E+00 0. -1.
</event>
<event>
 5    1  0.8778488E-005  0.9118800E+02  0.7818608E-02  0.1130116E+00
         25   -1    0    0    0    0  0.00000000000E+00  0.00000000000E+00  0.99999998245E-14  0.12500000000E+03  0.12500000000E+03 0.  0.
        -11    1    3    3    0    0 -0.30058195356E+02 -0.50197827750E+02  0.34282495059E+01  0.58609469489E+02  0.51100000000E-03 0.  1.
         23    2    1    0    0    0 -0.14785382838E+02 -0.17665316691E+02  0.16295624131E+02  0.96782659139E+02  0.92577884965E+02 0.  0.
         11    1    3    3    0    0  0.15272812518E+02  0.32532511059E+02  0.12867374625E+02  0.38173189649E+02  0.51100000000E-03 0. -1.
         22    1    1    0    0    0  0.14785382838E+02  0.17665316691E+02 -0.16295624131E+02  0.28217340861E+02  0.00000000000E+00 0.  1.
</event>
<event>
 5    1  0.8778488E-005  0.9118800E+02  0.7818608E-02  0.1130116E+00
         25   -1    0    0    0    0  0.00000000000E+00  0.00000000000E+00  0.99999998245E-14  0.12500000000E+03  0.12500000000E+03 0.  0.
        -11    1    3    3    0    0  0.38186320792E+02  0.11928500918E+02 -0.47034925836E+02  0.61747619212E+02  0.51100000000E-03 0. -1.
         23    2    1    0    0    0  0.22008076508E+02  0.12977452816E+01 -0.18550994428E+02  0.96187173539E+02  0.91770329545E+02 0.  0.
         11    1    3    3    0    0 -0.16178244284E+02 -0.10630755636E+02  0.28483931408E+02  0.34439554327E+02  0.51100000000E-03 0.  1.
         22    1    1    0    0    0 -0.22008076508E+02 -0.12977452816E+01  0.18550994428E+02  0.28812826461E+02  0.00000000000E+00 0. -1.
</event>
<event>
 5    1  0.8778488E-005  0.9118800E+02  0.7818608E-02  0.1130116E+00
         25   -1    0    0    0    0  0.00000000000E+00  0.00000000000E+00  0.99999998245E-14  0.12500000000E+03  0.12500000000E+03 0.  0.
        -11    1    3    3    0    0  0.25969775519E+02  0.14429492721E+02  0.20918181286E+02  0.36334691540E+02  0.51100000000E-03 0. -1.
         23    2    1    0    0    0 -0.23346218721E+02 -0.14560331027E+02  0.14498272916E+02  0.93899371619E+02  0.88599339189E+02 0.  0.
         11    1    3    3    0    0 -0.49315994240E+02 -0.28989823748E+02 -0.64199083708E+01  0.57564680079E+02  0.51100000000E-03 0.  1.
         22    1    1    0    0    0  0.23346218721E+02  0.14560331027E+02 -0.14498272916E+02  0.31100628381E+02  0.00000000000E+00 0.  1.
</event>
<event>
 5    1  0.8778488E-005  0.9118800E+02  0.7818608E-02  0.1130116E+00
         25   -1    0    0    0    0  0.00000000000E+00  0.00000000000E+00  0.99999998245E-14  0.12500000000E+03  0.12500000000E+03 0.  0.
        -11    1    3    3    0    0  0.56274731750E+01 -0.22275702980E+02  0.54870885191E+02  0.59486884601E+02  0.51100000000E-03 0.  1.
         23    2    1    0    0    0  0.48148452701E+01  0.24945949535E+01  0.29692232003E+02  0.94816653925E+02  0.89884167022E+02 0.  0.
         11    1    3    3    0    0 -0.81262790494E+00  0.24770297934E+02 -0.25178653188E+02  0.35329769324E+02  0.51100000000E-03 0. -1.
         22    1    1    0    0    0 -0.48148452701E+01 -0.24945949535E+01 -0.29692232003E+02  0.30183346075E+02  0.00000000000E+00 0.  1.
</event>
<event>
 5    1  0.8778488E-005  0.9118800E+02  0.7818608E-02  0.1130116E+00
         25   -1    0    0    0    0  0.00000000000E+00  0.00000000000E+00  0.99999998245E-14  0.12500000000E+03  0.12500000000E+03 0.  0.
        -11    1    3    3    0    0  0.60985276532E+02 -0.85302380355E+01 -0.44912022198E+01  0.61742528392E+02  0.51100000000E-03 0.  1.
         23    2    1    0    0    0  0.30017735523E+02  0.27192885523E+01 -0.15933772349E+01  0.94817259449E+02  0.89885009108E+02 0.  0.
         11    1    3    3    0    0 -0.30967541009E+02  0.11249526588E+02  0.28978249850E+01  0.33074731057E+02  0.51100000000E-03 0. -1.
         22    1    1    0    0    0 -0.30017735523E+02 -0.27192885523E+01  0.15933772349E+01  0.30182740551E+02  0.00000000000E+00 0.  1.
</event>
<event>
 5    1  0.8778488E-005  0.9118800E+02  0.7818608E-02  0.1130116E+00
         25   -1    0    0    0    0  0.00000000000E+00  0.00000000000E+00  0.99999998245E-14  0.12500000000E+03  0.12500000000E+03 0.  0.
        -11    1    3    3    0    0 -0.30363911094E+02 -0.34789295342E+02 -0.17732194947E+02  0.49464056700E+02  0.51100000000E-03 0.  1.
         23    2    1    0    0    0 -0.20867463775E+02 -0.80252669981E+01  0.18836776979E+02  0.95765087280E+02  0.91193595280E+02 0.  0.
         11    1    3    3    0    0  0.94964473191E+01  0.26764028344E+02  0.36568971925E+02  0.46301030581E+02  0.51100000000E-03 0. -1.
         22    1    1    0    0    0  0.20867463775E+02  0.80252669981E+01 -0.18836776979E+02  0.29234912720E+02  0.00000000000E+00 0.  1.
</event>
<event>
 5    1  0.8778488E-005  0.9118800E+02  0.7818608E-02  0.1130116E+00
         25   -1    0    0    0    0  0.00000000000E+00  0.00000000000E+00  0.99999998245E-14  0.12500000000E+03  0.12500000000E+03 0.  0.
        -11    1    3    3    0    0  0.38019087594E+02  0.30594954262E+02  0.25845617990E+02  0.55222261972E+02  0.51100000000E-03 0.  1.
         23    2    1    0    0    0  0.13004723466E+02 -0.20695608525E+01  0.25425568266E+02  0.96366707556E+02  0.92014547160E+02 0.  0.
         11    1    3    3    0    0 -0.25014364128E+02 -0.32664515115E+02 -0.42004972400E+00  0.41144445584E+02  0.51100000000E-03 0. -1.
         22    1    1    0    0    0 -0.13004723466E+02  0.20695608525E+01 -0.25425568266E+02  0.28633292444E+02  0.00000000000E+00 0.  1.
</event>
<event>
 5    1  0.8778488E-005  0.9118800E+02  0.7818608E-02  0.1130116E+00
         25   -1    0    0    0    0  0.00000000000E+00  0.00000000000E+00  0.99999998245E-14  0.12500000000E+03  0.12500000000E+03 0.  0.
        -11    1    3    3    0    0  0.25731018940E+02 -0.29456735417E+02  0.41652236165E+02  0.57137495351E+02  0.51100000000E-03 0. -1.
         23    2    1    0    0    0  0.20844628429E+02  0.15560115329E+01  0.24069714656E+02  0.93120996411E+02  0.87494280400E+02 0.  0.
         11    1    3    3    0    0 -0.48863905106E+01  0.31012746950E+02 -0.17582521509E+02  0.35983501060E+02  0.51100000000E-03 0.  1.
         22    1    1    0    0    0 -0.20844628429E+02 -0.15560115329E+01 -0.24069714656E+02  0.31879003589E+02  0.00000000000E+00 0. -1.
</event>
<event>
 5    1  0.8778488E-005  0.9118800E+02  0.7818608E-02  0.1130116E+00
         25   -1    0    0    0    0  0.00000000000E+00  0.00000000000E+00  0.99999998245E-14  0.12500000000E+03  0.12500000000E+03 0.  0.
        -11    1    3    3    0    0 -0.46231879074E+02  0.25679930521E+02 -0.77846325093E+00  0.52890939485E+02  0.51100000000E-03 0.  1.
         23    2    1    0    0    0 -0.20506526783E+02 -0.11153842083E+01 -0.21369584426E+02  0.95361834383E+02  0.90639167007E+02 0.  0.
         11    1    3    3    0    0  0.25725352291E+02 -0.26795314729E+02 -0.20591121175E+02  0.42470894898E+02  0.51100000000E-03 0. -1.
         22    1    1    0    0    0  0.20506526783E+02  0.11153842083E+01  0.21369584426E+02  0.29638165617E+02  0.00000000000E+00 0.  1.
</event>
<event>
 5    1  0.8778488E-005  0.9118800E+02  0.7818608E-02  0.1130116E+00
         25   -1    0    0    0    0  0.00000000000E+00  0.00000000000E+00  0.99999998245E-14  0.12500000000E+03  0.12500000000E+03 0.  0.
        -11    1    3    3    0    0 -0.79613512905E+00  0.96793036380E+01 -0.56474074945E+02  0.57303087973E+02  0.51100000000E-03 0.  1.
         23    2    1    0    0    0 -0.12888932248E+02  0.16278494431E+02 -0.20512548370E+02  0.95813040650E+02  0.91259301787E+02 0.  0.
         11    1    3    3    0    0 -0.12092797119E+02  0.65991907935E+01  0.35961526576E+02  0.38509952677E+02  0.51100000000E-03 0. -1.
         22    1    1    0    0    0  0.12888932248E+02 -0.16278494431E+02  0.20512548370E+02  0.29186959350E+02  0.00000000000E+00 0.  1.
</event>
<event>
 5    1  0.8778488E-005  0.9118800E+02  0.7818608E-02  0.1130116E+00
         25   -1    0    0    0    0  0.00000000000E+00  0.00000000000E+00  0.99999998245E-14  0.12500000000E+03  0.12500000000E+03 0.  0.
        -11    1    3    3    0    0 -0.10676209615E+02 -0.32105798856E+02 -0.27770606930E+02  0.43771798928E+02  0.51100000000E-03 0. -1.
         23    2    1    0    0    0 -0.23149922416E+02  0.14297856209E+02 -0.36185545527E+01  0.97551110458E+02  0.93609708976E+02 0.  0.
         11    1    3    3    0    0 -0.12473712802E+02  0.46403655064E+02  0.24152052377E+02  0.53779311530E+02  0.51100000000E-03 0.  1.
         22    1    1    0    0    0  0.23149922416E+02 -0.14297856209E+02  0.36185545527E+01  0.27448889542E+02  0.00000000000E+00 0. -1.
</event>
<event>
 5    1  0.8778488E-005  0.9118800E+02  0.7818608E-02  0.1130116E+00
         25   -1    0    0    0    0  0.00000000000E+00  0.00000000000E+00  0.99999998245E-14  0.12500000000E+03  0.12500000000E+03 0.  0.
        -11    1    3    3    0    0 -0.14230827151E+02  0.32032666394E+02  0.57314400802E+01  0.35517003862E+02  0.51100000000E-03 0. -1.
         23    2    1    0    0    0 -0.41975641328E+01 -0.19700936328E+02 -0.22087618233E+02  0.95106701152E+02  0.90286628511E+02 0.  0.
         11    1    3    3    0    0  0.10033263018E+02 -0.51733602722E+02 -0.27819058313E+02  0.59589697289E+02  0.51100000000E-03 0.  1.
         22    1    1    0    0    0  0.41975641328E+01  0.19700936328E+02  0.22087618233E+02  0.29893298848E+02  0.00000000000E+00 0.  1.
</event>
<event>
 5    1  0.8778488E-005  0.9118800E+02  0.7818608E-02  0.1130116E+00
         25   -1    0    0    0    0  0.00000000000E+00  0.00000000000E+00  0.99999998245E-14  0.12500000000E+03  0.12500000000E+03 0.  0.
        -11    1    3    3    0    0 -0.20946142355E+02 -0.27139209128E+02  0.52176881070E+02  0.62431598331E+02  0.51100000000E-03 0.  1.
         23    2    1    0    0    0 -0.11555734113E+02 -0.12686508739E+02  0.23269483962E+02  0.96087176224E+02  0.91634022371E+02 0.  0.
         11    1    3    3    0    0  0.93904082413E+01  0.14452700389E+02 -0.28907397108E+02  0.33655577893E+02  0.51100000000E-03 0. -1.
         22    1    1    0    0    0  0.11555734113E+02  0.12686508739E+02 -0.23269483962E+02  0.28912823776E+02  0.00000000000E+00 0.  1.
</event>
<event>
 5    1  0.8778488E-005  0.9118800E+02  0.7818608E-02  0.1130116E+00
         25   -1    0    0    0    0  0.00000000000E+00  0.00000000000E+00  0.99999998245E-14  0.12500000000E+03  0.12500000000E+03 0.  0.
        -11    1    3    3    0    0 -0.42263384859E+02  0.15050807665E+02  0.31397196157E+01  0.44973084735E+02  0.51100000000E-03 0. -1.
         23    2    1    0    0    0 -0.83603718199E+01 -0.10917598690E+02 -0.25246004588E+02  0.96251947443E+02  0.91858515451E+02 0.  0.
         11    1    3    3    0    0  0.33903013039E+02 -0.25968406355E+02 -0.28385724204E+02  0.51278862708E+02  0.51100000000E-03 0.  1.
         22    1    1    0    0    0  0.83603718199E+01  0.10917598690E+02  0.25246004588E+02  0.28748052557E+02  0.00000000000E+00 0.  1.
</event>
<event>
 5    1  0.8778488E-005  0.9118800E+02  0.7818608E-02  0.1130116E+00
         25   -1    0    0    0    0  0.00000000000E+00  0.00000000000E+00  0.99999998245E-14  0.12500000000E+03  0.12500000000E+03 0.  0.
        -11    1    3    3    0    0  0.20601256802E+02  0.14603665311E+02 -0.24927332355E+02  0.35483104725E+02  0.51100000000E-03 0. -1.
         23    2    1    0    0    0 -0.10419688648E+02 -0.20301043150E+02  0.15636034777E+02  0.97337971006E+02  0.93324663147E+02 0.  0.
         11    1    3    3    0    0 -0.31020945450E+02 -0.34904708461E+02  0.40563367132E+02  0.61854866281E+02  0.51100000000E-03 0.  1.
         22    1    1    0    0    0  0.10419688648E+02  0.20301043150E+02 -0.15636034777E+02  0.27662028994E+02  0.00000000000E+00 0.  1.
</event>
<event>
 5    1  0.8778488E-005  0.9118800E+02  0.7818608E-02  0.1130116E+00
         25   -1    0    0    0    0  0.00000000000E+00  0.00000000000E+00  0.99999998245E-14  0.12500000000E+03  0.12500000000E+03 0.  0.
        -11    1    3    3    0    0  0.31753540713E+02 -0.50303413325E+02 -0.54561277406E+01  0.59736840142E+02  0.51100000000E-03 0. -1.
         23    2    1    0    0    0  0.14505119656E+02 -0.20524808087E+02 -0.15357650118E+02  0.95546245394E+02  0.90893131470E+02 0.  0.
         11    1    3    3    0    0 -0.17248421056E+02  0.29778605238E+02 -0.99015223778E+01  0.35809405252E+02  0.51100000000E-03 0.  1.
         22    1    1    0    0    0 -0.14505119656E+02  0.20524808087E+02  0.15357650118E+02  0.29453754606E+02  0.00000000000E+00 0. -1.
</event>
<event>
 5    1  0.8778488E-005  0.9118800E+02  0.7818608E-02  0.1130116E+00
         25   -1    0    0    0    0  0.00000000000E+00  0.00000000000E+00  0.99999998245E-14  0.12500000000E+03  0.12500000000E+03 0.  0.
        -11    1    3    3    0    0 -0.15610232993E+02 -0.52189840946E+02  0.89182515717E+01  0.55199584088E+02  0.51100000000E-03 0.  1.
         23    2    1    0    0    0  0.13380099433E+01 -0.17885795917E+02  0.22878432447E+02  0.95929144536E+02  0.91418193671E+02 0.  0.
         11    1    3    3    0    0  0.16948242936E+02  0.34304045029E+02  0.13960180875E+02  0.40729560449E+02  0.51100000000E-03 0. -1.
         22    1    1    0    0    0 -0.13380099433E+01  0.17885795917E+02 -0.22878432447E+02  0.29070855464E+02  0.00000000000E+00 0.  1.
</event>
<event>
 5    1  0.8778488E-005  0.9118800E+02  0.7818608E-02  0.1130116E+00
         25   -1    0    0    0    0  0.00000000000E+00  0.00000000000E+00  0.99999998245E-14  0.12500000000E+03  0.12500000000E+03 0.  0.
        -11    1    3    3    0    0  0.56784102171E+02  0.12107131557E+02 -0.19628946814E+02  0.61288762813E+02  0.51100000000E-03 0.  1.
         23    2    1    0    0    0  0.26295571231E+02  0.12279733668E+02 -0.35373136209E+01  0.95763695292E+02  0.91191687248E+02 0.  0.
         11    1    3    3    0    0 -0.30488530940E+02  0.17260211078E+00  0.16091633193E+02  0.34474932479E+02  0.51100000000E-03 0. -1.
         22    1    1    0    0    0 -0.26295571231E+02 -0.12279733668E+02  0.35373136209E+01  0.29236304708E+02  0.00000000000E+00 0.  1.
</event>
<event>
 5    1  0.8778488E-005  0.9118800E+02  0.7818608E-02  0.1130116E+00
         25   -1    0    0    0    0  0.00000000000E+00  0.00000000000E+00  0.99999998245E-14  0.12500000000E+03  0.12500000000E+03 0.  0.
        -11    1    3    3    0    0 -0.54733196273E+02 -0.23173639333E+01  0.14581253278E+02  0.56689557215E+02  0.51100000000E-03 0.  1.
         23    2    1    0    0    0 -0.23338257679E+02  0.17604306925E+02  0.31064140596E+01  0.95602113986E+02  0.90969931827E+02 0.  0.
         11    1    3    3    0    0  0.31394938594E+02  0.19921670858E+02 -0.11474839218E+02  0.38912556771E+02  0.51100000000E-03 0. -1.
         22    1    1    0    0    0  0.23338257679E+02 -0.17604306925E+02 -0.31064140596E+01  0.29397886014E+02  0.00000000000E+00 0.  1.
</event>
<event>
 5    1  0.8778488E-005  0.9118800E+02  0.7818608E-02  0.1130116E+00
         25   -1    0    0    0    0  0.00000000000E+00  0.00000000000E+00  0.99999998245E-14  0.12500000000E+03  0.12500000000E+03 0.  0.
        -11    1    3    3    0    0  0.17991128045E+02  0.28997485486E+02  0.25116961613E+02  0.42372120714E+02  0.51100000000E-03 0.  1.
         23    2    1    0    0    0 -0.14892613360E+02  0.16653736838E+02 -0.16790564936E+02  0.97052550130E+02  0.92941581289E+02 0.  0.
         11    1    3    3    0    0 -0.32883741405E+02 -0.12343748648E+02 -0.41907526548E+02  0.54680429416E+02  0.51100000000E-03 0. -1.
         22    1    1    0    0    0  0.14892613360E+02 -0.16653736838E+02  0.16790564936E+02  0.27947449870E+02  0.00000000000E+00 0.  1.
</event>
<event>
 5    1  0.8778488E-005  0.9118800E+02  0.7818608E-02  0.1130116E+00
         25   -1    0    0    0    0  0.00000000000E+00  0.00000000000E+00  0.99999998245E-14  0.12500000000E+03  0.12500000000E+03 0.  0.
        -11    1    3    3    0    0 -0.13814020460E+01  0.19558173597E+02 -0.51871244324E+02  0.55453191198E+02  0.51100000000E-03 0. -1.
         23    2    1    0    0    0  0.16646279866E+02 -0.30620309098E+01 -0.24086636159E+02  0.95561237999E+02  0.90913747585E+02 0.  0.
         11    1    3    3    0    0  0.18027681912E+02 -0.22620204507E+02  0.27784608165E+02  0.40108046801E+02  0.51100000000E-03 0.  1.
         22    1    1    0    0    0 -0.16646279866E+02  0.30620309098E+01  0.24086636159E+02  0.29438762001E+02  0.00000000000E+00 0. -1.
</event>
<event>
 5    1  0.8778488E-005  0.9118800E+02  0.7818608E-02  0.1130116E+00
         25   -1    0    0    0    0  0.00000000000E+00  0.00000000000E+00  0.99999998245E-14  0.12500000000E+03  0.12500000000E+03 0.  0.
        -11    1    3    3    0    0 -0.20641624251E+02  0.39835140217E+02  0.39852332499E+02  0.60009361384E+02  0.51100000000E-03 0.  1.
         23    2    1    0    0    0  0.20190895975E+01  0.18509881719E+02  0.23036563881E+02  0.95379471317E+02  0.90663486747E+02 0.  0.
         11    1    3    3    0    0  0.22660713848E+02 -0.21325258498E+02 -0.16815768618E+02  0.35370109932E+02  0.51100000000E-03 0. -1.
         22    1    1    0    0    0 -0.20190895975E+01 -0.18509881719E+02 -0.23036563881E+02  0.29620528683E+02  0.00000000000E+00 0.  1.
</event>
<event>
 5    1  0.8778488E-005  0.9118800E+02  0.7818608E-02  0.1130116E+00
         25   -1    0    0    0    0  0.00000000000E+00  0.00000000000E+00  0.99999998245E-14  0.12500000000E+03  0.12500000000E+03 0.  0.
        -11    1    3    3    0    0 -0.33833389451E+02  0.48600436810E+01 -0.98079791644E+00  0.34194739817E+02  0.51100000000E-03 0.  1.
         23    2    1    0    0    0  0.25978794119E+02  0.79756010696E+01 -0.12337213525E+02  0.95155154652E+02  0.90353686494E+02 0.  0.
         11    1    3    3    0    0  0.59812183569E+02  0.31155573885E+01 -0.11356415608E+02  0.60960414836E+02  0.51100000000E-03 0. -1.
         22    1    1    0    0    0 -0.25978794119E+02 -0.79756010696E+01  0.12337213525E+02  0.29844845348E+02  0.00000000000E+00 0. -1.
</event>
<event>
 5    1  0.8778488E-005  0.9118800E+02  0.7818608E-02  0.1130116E+00
         25   -1    0    0    0    0  0.00000000000E+00  0.00000000000E+00  0.99999998245E-14  0.12500000000E+03  0.12500000000E+03 0.  0.
        -11    1    3    3    0    0 -0.43747000623E+02  0.10185346653E+02  0.13318546804E+02  0.46850027099E+02  0.51100000000E-03 0. -1.
         23    2    1    0    0    0  0.15160041397E+01 -0.21355183983E+02  0.74600583276E+01  0.10232855052E+03  0.99785458003E+02 0.  0.
         11    1    3    3    0    0  0.45263004763E+02 -0.31540530636E+02 -0.58584884768E+01  0.55478523416E+02  0.51100000000E-03 0.  1.
         22    1    1    0    0    0 -0.15160041397E+01  0.21355183983E+02 -0.74600583276E+01  0.22671449485E+02  0.00000000000E+00 0.  1.
</event>
<event>
 5    1  0.8778488E-005  0.9118800E+02  0.7818608E-02  0.1130116E+00
         25   -1    0    0    0    0  0.00000000000E+00  0.00000000000E+00  0.99999998245E-14  0.12500000000E+03  0.12500000000E+03 0.  0.
        -11    1    3    3    0    0  0.10946032150E+02 -0.37496939877E+02 -0.38988761959E+02  0.55190213619E+02  0.51100000000E-03 0.  1.
         23    2    1    0    0    0 -0.14592635897E+02 -0.21375044521E+02 -0.94168145029E+01  0.97458868105E+02  0.93486453704E+02 0.  0.
         11    1    3    3    0    0 -0.25538668047E+02  0.16121895356E+02  0.29571947456E+02  0.42268654486E+02  0.51100000000E-03 0. -1.
         22    1    1    0    0    0  0.14592635897E+02  0.21375044521E+02  0.94168145029E+01  0.27541131895E+02  0.00000000000E+00 0.  1.
</event>
<event>
 5    1  0.8778488E-005  0.9118800E+02  0.7818608E-02  0.1130116E+00
         25   -1    0    0    0    0  0.00000000000E+00  0.00000000000E+00  0.99999998245E-14  0.12500000000E+03  0.12500000000E+03 0.  0.
        -11    1    3    3    0    0  0.47241207263E+01  0.53262230811E+02  0.27219298611E+02  0.60000606370E+02  0.51100000000E-03 0. -1.
         23    2    1    0    0    0 -0.22853568401E+01  0.28588076197E+02  0.15657710508E+01  0.96278011985E+02  0.91893976931E+02 0.  0.
         11    1    3    3    0    0 -0.70094775663E+01 -0.24674154613E+02 -0.25653527560E+02  0.36277405615E+02  0.51100000000E-03 0.  1.
         22    1    1    0    0    0  0.22853568401E+01 -0.28588076197E+02 -0.15657710508E+01  0.28721988015E+02  0.00000000000E+00 0. -1.
</event>
<event>
 5    1  0.8778488E-005  0.9118800E+02  0.7818608E-02  0.1130116E+00
         25   -1    0    0    0    0  0.00000000000E+00  0.00000000000E+00  0.99999998245E-14  0.12500000000E+03  0.12500000000E+03 0.  0.
        -11    1    3    3    0    0 -0.48690100178E+02  0.15436307519E+01  0.31847894896E+02  0.58201349304E+02  0.51100000000E-03 0. -1.
         23    2    1    0    0    0 -0.25197164846E+02 -0.12780716801E+02  0.56632149585E+01  0.96184798424E+02  0.91767094353E+02 0.  0.
         11    1    3    3    0    0  0.23492935332E+02 -0.14324347553E+02 -0.26184679938E+02  0.37983449120E+02  0.51100000000E-03 0.  1.
         22    1    1    0    0    0  0.25197164846E+02  0.12780716801E+02 -0.56632149585E+01  0.28815201576E+02  0.00000000000E+00 0. -1.
</event>
<event>
 5    1  0.8778488E-005  0.9118800E+02  0.7818608E-02  0.1130116E+00
         25   -1    0    0    0    0  0.00000000000E+00  0.00000000000E+00  0.99999998245E-14  0.12500000000E+03  0.12500000000E+03 0.  0.
        -11    1    3    3    0    0  0.38678572616E+02 -0.39347234968E+02 -0.12526255574E+02  0.56578652849E+02  0.51100000000E-03 0. -1.
         23    2    1    0    0    0  0.23494416025E+02 -0.12544974623E+02  0.11837984980E+02  0.95853784790E+02  0.91315092934E+02 0.  0.
         11    1    3    3    0    0 -0.15184156590E+02  0.26802260346E+02  0.24364240554E+02  0.39275131941E+02  0.51100000000E-03 0.  1.
         22    1    1    0    0    0 -0.23494416025E+02  0.12544974623E+02 -0.11837984980E+02  0.29146215210E+02  0.00000000000E+00 0. -1.
</event>
<event>
 5    1  0.8778488E-005  0.9118800E+02  0.7818608E-02  0.1130116E+00
         25   -1    0    0    0    0  0.00000000000E+00  0.00000000000E+00  0.99999998245E-14  0.12500000000E+03  0.12500000000E+03 0.  0.
        -11    1    3    3    0    0 -0.33474103311E+02  0.31369817793E+02  0.47698491447E+01  0.46123015100E+02  0.51100000000E-03 0. -1.
         23    2    1    0    0    0 -0.31055037692E+01  0.96938324883E+01 -0.27640353541E+02  0.95544886932E+02  0.90891263239E+02 0.  0.
         11    1    3    3    0    0  0.30368599541E+02 -0.21675985305E+02 -0.32410202685E+02  0.49421871832E+02  0.51100000000E-03 0.  1.
         22    1    1    0    0    0  0.31055037692E+01 -0.96938324883E+01  0.27640353541E+02  0.29455113068E+02  0.00000000000E+00 0.  1.
</event>
<event>
 5    1  0.8778488E-005  0.9118800E+02  0.7818608E-02  0.1130116E+00
         25   -1    0    0    0    0  0.00000000000E+00  0.00000000000E+00  0.99999998245E-14  0.12500000000E+03  0.12500000000E+03 0.  0.
        -11    1    3    3    0    0  0.83822697177E-01 -0.12612707199E+02 -0.34834860932E+02  0.37048008658E+02  0.51100000000E-03 0. -1.
         23    2    1    0    0    0  0.17939307059E+02  0.24809948771E+02  0.43234998074E+01  0.94080023506E+02  0.88853845593E+02 0.  0.
         11    1    3    3    0    0  0.17855484362E+02  0.37422655970E+02  0.39158360739E+02  0.57032014849E+02  0.51100000000E-03 0.  1.
         22    1    1    0    0    0 -0.17939307059E+02 -0.24809948771E+02 -0.43234998074E+01  0.30919976494E+02  0.00000000000E+00 0.  1.
</event>
<event>
 5    1  0.8778488E-005  0.9118800E+02  0.7818608E-02  0.1130116E+00
         25   -1    0    0    0    0  0.00000000000E+00  0.00000000000E+00  0.99999998245E-14  0.12500000000E+03  0.12500000000E+03 0.  0.
        -11    1    3    3    0    0  0.21495587303E+02 -0.23394118231E+02 -0.17074797273E+02  0.36067904617E+02  0.51100000000E-03 0.  1.
         23    2    1    0    0    0 -0.26731283246E+01  0.21842304162E+02  0.16610976745E+02  0.97429065766E+02  0.93446596735E+02 0.  0.
         11    1    3    3    0    0 -0.24168715627E+02  0.45236422393E+02  0.33685774018E+02  0.61361161148E+02  0.51100000000E-03 0. -1.
         22    1    1    0    0    0  0.26731283246E+01 -0.21842304162E+02 -0.16610976745E+02  0.27570934234E+02  0.00000000000E+00 0. -1.
</event>
<event>
 5    1  0.8778488E-005  0.9118800E+02  0.7818608E-02  0.1130116E+00
         25   -1    0    0    0    0  0.00000000000E+00  0.00000000000E+00  0.99999998245E-14  0.12500000000E+03  0.12500000000E+03 0.  0.
        -11    1    3    3    0    0  0.38877704721E+02  0.46080653860E+02 -0.11898925640E+02  0.61453128612E+02  0.51100000000E-03 0.  1.
         23    2    1    0    0    0  0.13830025353E+02  0.27570900418E+02 -0.21853497726E+01  0.94077517811E+02  0.88850320498E+02 0.  0.
         11    1    3    3    0    0 -0.25047679369E+02 -0.18509753441E+02  0.97135758671E+01  0.32624389199E+02  0.51100000000E-03 0. -1.
         22    1    1    0    0    0 -0.13830025353E+02 -0.27570900418E+02  0.21853497726E+01  0.30922482189E+02  0.00000000000E+00 0.  1.
</event>
<event>
 5    1  0.8778488E-005  0.9118800E+02  0.7818608E-02  0.1130116E+00
         25   -1    0    0    0    0  0.00000000000E+00  0.00000000000E+00  0.99999998245E-14  0.12500000000E+03  0.12500000000E+03 0.  0.
        -11    1    3    3    0    0 -0.17300069782E+02  0.27501917985E+02  0.47048227355E+02  0.57176775047E+02  0.51100000000E-03 0. -1.
         23    2    1    0    0    0  0.60916876992E+01  0.23130293901E+02  0.16312285947E+02  0.96048146385E+02  0.91580765427E+02 0.  0.
         11    1    3    3    0    0  0.23391757481E+02 -0.43716240844E+01 -0.30735941408E+02  0.38871371337E+02  0.51100000000E-03 0.  1.
         22    1    1    0    0    0 -0.60916876992E+01 -0.23130293901E+02 -0.16312285947E+02  0.28951853615E+02  0.00000000000E+00 0. -1.
</event>
<event>
 5    1  0.8778488E-005  0.9118800E+02  0.7818608E-02  0.1130116E+00
         25   -1    0    0    0    0  0.00000000000E+00  0.00000000000E+00  0.99999998245E-14  0.12500000000E+03  0.12500000000E+03 0.  0.
        -11    1    3    3    0    0 -0.30289066906E+02 -0.22658422003E+02  0.33446376963E+02  0.50492492451E+02  0.51100000000E-03 0.  1.
         23    2    1    0    0    0  0.11627026169E+02 -0.10811291277E+02  0.25784588947E+02  0.94719366193E+02  0.89748769063E+02 0.  0.
         11    1    3    3    0    0  0.41916093075E+02  0.11847130726E+02 -0.76617880162E+01  0.44226873742E+02  0.51100000000E-03 0. -1.
         22    1    1    0    0    0 -0.11627026169E+02  0.10811291277E+02 -0.25784588947E+02  0.30280633807E+02  0.00000000000E+00 0.  1.
</event>
<event>
 5    1  0.8778488E-005  0.9118800E+02  0.7818608E-02  0.1130116E+00
         25   -1    0    0    0    0  0.00000000000E+00  0.00000000000E+00  0.99999998245E-14  0.12500000000E+03  0.12500000000E+03 0.  0.
        -11    1    3    3    0    0 -0.50281697358E+00  0.31890955160E+02 -0.18236155013E+02  0.36740212246E+02  0.51100000000E-03 0. -1.
         23    2    1    0    0    0 -0.73524418179E+01 -0.65737153646E+01  0.26847978223E+02  0.96397796081E+02  0.92056770637E+02 0.  0.
         11    1    3    3    0    0 -0.68496248444E+01 -0.38464670525E+02  0.45084133236E+02  0.59657583835E+02  0.51100000000E-03 0.  1.
         22    1    1    0    0    0  0.73524418179E+01  0.65737153646E+01 -0.26847978223E+02  0.28602203919E+02  0.00000000000E+00 0.  1.
</event>
<event>
 5    1  0.8778488E-005  0.9118800E+02  0.7818608E-02  0.1130116E+00
         25   -1    0    0    0    0  0.00000000000E+00  0.00000000000E+00  0.99999998245E-14  0.12500000000E+03  0.12500000000E+03 0.  0.
        -11    1    3    3    0    0  0.44497377595E+02 -0.26760435944E+02 -0.27843808553E+02  0.58918717058E+02  0.51100000000E-03 0.  1.
         23    2    1    0    0    0  0.30152179939E+02 -0.79073797429E+01 -0.23205817411E+01  0.93741949692E+02  0.88376962060E+02 0.  0.
         11    1    3    3    0    0 -0.14345197656E+02  0.18853056201E+02  0.25523226812E+02  0.34823232634E+02  0.51100000000E-03 0. -1.
         22    1    1    0    0    0 -0.30152179939E+02  0.79073797429E+01  0.23205817411E+01  0.31258050308E+02  0.00000000000E+00 0.  1.
</event>
<event>
 5    1  0.8778488E-005  0.9118800E+02  0.7818608E-02  0.1130116E+00
         25   -1    0    0    0    0  0.00000000000E+00  0.00000000000E+00  0.99999998245E-14  0.12500000000E+03  0.12500000000E+03 0.  0.
        -11    1    3    3    0    0  0.12569239002E+01 -0.35845464609E+01 -0.38683255501E+02  0.38869307782E+02  0.51100000000E-03 0.  1.
         23    2    1    0    0    0 -0.18211315527E+02 -0.18723756127E+02  0.12768744587E+02  0.95926439931E+02  0.91414495474E+02 0.  0.
         11    1    3    3    0    0 -0.19468239427E+02 -0.15139209666E+02  0.51452000089E+02  0.57057132149E+02  0.51100000000E-03 0. -1.
         22    1    1    0    0    0  0.18211315527E+02  0.18723756127E+02 -0.12768744587E+02  0.29073560069E+02  0.00000000000E+00 0. -1.
</event>
<event>
 5    1  0.8778488E-005  0.9118800E+02  0.7818608E-02  0.1130116E+00
         25   -1    0    0    0    0  0.00000000000E+00  0.00000000000E+00  0.99999998245E-14  0.12500000000E+03  0.12500000000E+03 0.  0.
        -11    1    3    3    0    0 -0.27571114685E+02  0.52342407371E+02 -0.10071010983E+02  0.60010992634E+02  0.51100000000E-03 0. -1.
         23    2    1    0    0    0 -0.16158486319E+02  0.18853574364E+02 -0.15387369229E+02  0.95788271564E+02  0.91225368681E+02 0.  0.
         11    1    3    3    0    0  0.11412628366E+02 -0.33488833007E+02 -0.53163582457E+01  0.35777278930E+02  0.51100000000E-03 0.  1.
         22    1    1    0    0    0  0.16158486319E+02 -0.18853574364E+02  0.15387369229E+02  0.29211728436E+02  0.00000000000E+00 0. -1.
</event>
<event>
 5    1  0.8778488E-005  0.9118800E+02  0.7818608E-02  0.1130116E+00
         25   -1    0    0    0    0  0.00000000000E+00  0.00000000000E+00  0.99999998245E-14  0.12500000000E+03  0.12500000000E+03 0.  0.
        -11    1    3    3    0    0 -0.36265008041E+02  0.28471230835E+02  0.37777366789E+02  0.59606134208E+02  0.51100000000E-03 0. -1.
         23    2    1    0    0    0 -0.51461027166E+01  0.15966587416E+02  0.23666347673E+02  0.95991203074E+02  0.91503009615E+02 0.  0.
         11    1    3    3    0    0  0.31118905325E+02 -0.12504643419E+02 -0.14111019116E+02  0.36385068866E+02  0.51100000000E-03 0.  1.
         22    1    1    0    0    0  0.51461027166E+01 -0.15966587416E+02 -0.23666347673E+02  0.29008796926E+02  0.00000000000E+00 0. -1.
</event>
<event>
 5    1  0.8778488E-005  0.9118800E+02  0.7818608E-02  0.1130116E+00
         25   -1    0    0    0    0  0.00000000000E+00  0.00000000000E+00  0.99999998245E-14  0.12500000000E+03  0.12500000000E+03 0.  0.
        -11    1    3    3    0    0  0.28636585745E+02  0.23670200137E+02  0.43889888802E+02  0.57503519518E+02  0.51100000000E-03 0.  1.
         23    2    1    0    0    0  0.12740655452E+02 -0.59834390073E+01  0.25566307907E+02  0.95815039083E+02  0.91262039046E+02 0.  0.
         11    1    3    3    0    0 -0.15895930292E+02 -0.29653639145E+02 -0.18323580894E+02  0.38311519566E+02  0.51100000000E-03 0. -1.
         22    1    1    0    0    0 -0.12740655452E+02  0.59834390073E+01 -0.25566307907E+02  0.29184960917E+02  0.00000000000E+00 0.  1.
</event>
<event>
 5    1  0.8778488E-005  0.9118800E+02  0.7818608E-02  0.1130116E+00
         25   -1    0    0    0    0  0.00000000000E+00  0.00000000000E+00  0.99999998245E-14  0.12500000000E+03  0.12500000000E+03 0.  0.
        -11    1    3    3    0    0  0.11333756907E+02 -0.24908493730E+02  0.25029377414E+02  0.37085803747E+02  0.51100000000E-03 0.  1.
         23    2    1    0    0    0  0.14541335888E+02  0.10412242062E+02 -0.22417048315E+02  0.96322669418E+02  0.91954702732E+02 0.  0.
         11    1    3    3    0    0  0.32075789808E+01  0.35320735792E+02 -0.47446425729E+02  0.59236865671E+02  0.51100000000E-03 0. -1.
         22    1    1    0    0    0 -0.14541335888E+02 -0.10412242062E+02  0.22417048315E+02  0.28677330582E+02  0.00000000000E+00 0. -1.
</event>
<event>
 5    1  0.8778488E-005  0.9118800E+02  0.7818608E-02  0.1130116E+00
         25   -1    0    0    0    0  0.00000000000E+00  0.00000000000E+00  0.99999998245E-14  0.12500000000E+03  0.12500000000E+03 0.  0.
        -11    1    3    3    0    0 -0.27055868380E+02  0.20738534317E+01 -0.38037178612E+02  0.46724167611E+02  0.51100000000E-03 0.  1.
         23    2    1    0    0    0 -0.30360594906E+02  0.20789846300E+01  0.85197165593E+01  0.93398204634E+02  0.87889425749E+02 0.  0.
         11    1    3    3    0    0 -0.33047265259E+01  0.51311982195E-02  0.46556895172E+02  0.46674037023E+02  0.51100000000E-03 0. -1.
         22    1    1    0    0    0  0.30360594906E+02 -0.20789846300E+01 -0.85197165593E+01  0.31601795366E+02  0.00000000000E+00 0. -1.
</event>
<event>
 5    1  0.8778488E-005  0.9118800E+02  0.7818608E-02  0.1130116E+00
         25   -1    0    0    0    0  0.00000000000E+00  0.00000000000E+00  0.99999998245E-14  0.12500000000E+03  0.12500000000E+03 0.  0.
        -11    1    3    3    0    0  0.33012392156E+02  0.36447786381E+02 -0.31851195657E+02  0.58589741704E+02  0.51100000000E-03 0. -1.
         23    2    1    0    0    0  0.38341228031E+01  0.14793667231E+02 -0.25198623943E+02  0.95529273229E+02  0.90869787649E+02 0.  0.
         11    1    3    3    0    0 -0.29178269353E+02 -0.21654119150E+02  0.66525717143E+01  0.36939531525E+02  0.51100000000E-03 0.  1.
         22    1    1    0    0    0 -0.38341228031E+01 -0.14793667231E+02  0.25198623943E+02  0.29470726771E+02  0.00000000000E+00 0. -1.
</event>
<event>
 5    1  0.8778488E-005  0.9118800E+02  0.7818608E-02  0.1130116E+00
         25   -1    0    0    0    0  0.00000000000E+00  0.00000000000E+00  0.99999998245E-14  0.12500000000E+03  0.12500000000E+03 0.  0.
        -11    1    3    3    0    0 -0.28920185651E+02 -0.42504784394E+01  0.20782962298E+02  0.35866073484E+02  0.51100000000E-03 0. -1.
         23    2    1    0    0    0  0.99877812055E+01  0.28444893078E+02 -0.73706400925E+01  0.93964632256E+02  0.88691364089E+02 0.  0.
         11    1    3    3    0    0  0.38907966856E+02  0.32695371518E+02 -0.28153602390E+02  0.58098558772E+02  0.51100000000E-03 0.  1.
         22    1    1    0    0    0 -0.99877812055E+01 -0.28444893078E+02  0.73706400925E+01  0.31035367744E+02  0.00000000000E+00 0.  1.
</event>
<event>
 5    1  0.8778488E-005  0.9118800E+02  0.7818608E-02  0.1130116E+00
         25   -1    0    0    0    0  0.00000000000E+00  0.00000000000E+00  0.99999998245E-14  0.12500000000E+03  0.12500000000E+03 0.  0.
        -11    1    3    3    0    0  0.23786211385E+02 -0.29603720974E+02  0.20599294990E+02  0.43202952467E+02  0.51100000000E-03 0.  1.
         23    2    1    0    0    0 -0.83319414011E+01 -0.20016723566E+02 -0.19759319844E+02  0.95665358524E+02  0.91056793437E+02 0.  0.
         11    1    3    3    0    0 -0.32118152786E+02  0.95869974077E+01 -0.40358614834E+02  0.52462406057E+02  0.51100000000E-03 0. -1.
         22    1    1    0    0    0  0.83319414011E+01  0.20016723566E+02  0.19759319844E+02  0.29334641476E+02  0.00000000000E+00 0. -1.
</event>
<event>
 5    1  0.8778488E-005  0.9118800E+02  0.7818608E-02  0.1130116E+00
         25   -1    0    0    0    0  0.00000000000E+00  0.00000000000E+00  0.99999998245E-14  0.12500000000E+03  0.12500000000E+03 0.  0.
        -11    1    3    3    0    0  0.55374859801E+01 -0.30259757550E+02 -0.28097142540E+02  0.41662526293E+02  0.51100000000E-03 0.  1.
         23    2    1    0    0    0 -0.25764324095E+02  0.92080224126E+01 -0.45660663267E+01  0.97261271937E+02  0.93221875031E+02 0.  0.
         11    1    3    3    0    0 -0.31301810075E+02  0.39467779962E+02  0.23531076213E+02  0.55598745644E+02  0.51100000000E-03 0. -1.
         22    1    1    0    0    0  0.25764324095E+02 -0.92080224126E+01  0.45660663267E+01  0.27738728063E+02  0.00000000000E+00 0. -1.
</event>
<event>
 5    1  0.8778488E-005  0.9118800E+02  0.7818608E-02  0.1130116E+00
         25   -1    0    0    0    0  0.00000000000E+00  0.00000000000E+00  0.99999998245E-14  0.12500000000E+03  0.12500000000E+03 0.  0.
        -11    1    3    3    0    0  0.69275467445E+01  0.20192367157E+02  0.48076412018E+02  0.52602889542E+02  0.51100000000E-03 0. -1.
         23    2    1    0    0    0  0.80642395907E+01 -0.15075691555E+02  0.24810688830E+02  0.94868974192E+02  0.89956898279E+02 0.  0.
         11    1    3    3    0    0  0.11366928463E+01 -0.35268058712E+02 -0.23265723188E+02  0.42266084650E+02  0.51100000000E-03 0.  1.
         22    1    1    0    0    0 -0.80642395907E+01  0.15075691555E+02 -0.24810688830E+02  0.30131025808E+02  0.00000000000E+00 0. -1.
</event>
<event>
 5    1  0.8778488E-005  0.9118800E+02  0.7818608E-02  0.1130116E+00
         25   -1    0    0    0    0  0.00000000000E+00  0.00000000000E+00  0.99999998245E-14  0.12500000000E+03  0.12500000000E+03 0.  0.
        -11    1    3    3    0    0  0.32094081954E+02 -0.33472086356E+02 -0.14140097470E+02  0.48480439543E+02  0.51100000000E-03 0.  1.
         23    2    1    0    0    0  0.20691648693E+02  0.10396081182E+02 -0.20277786733E+02  0.94219950221E+02  0.89050477569E+02 0.  0.
         11    1    3    3    0    0 -0.11402433261E+02  0.43868167538E+02 -0.61376892630E+01  0.45739510679E+02  0.51100000000E-03 0. -1.
         22    1    1    0    0    0 -0.20691648693E+02 -0.10396081182E+02  0.20277786733E+02  0.30780049779E+02  0.00000000000E+00 0. -1.
</event>
<event>
 5    1  0.8778488E-005  0.9118800E+02  0.7818608E-02  0.1130116E+00
         25   -1    0    0    0    0  0.00000000000E+00  0.00000000000E+00  0.99999998245E-14  0.12500000000E+03  0.12500000000E+03 0.  0.
        -11    1    3    3    0    0  0.56836425813E+01  0.31726551974E+02 -0.10596080578E+02  0.33928672491E+02  0.51100000000E-03 0. -1.
         23    2    1    0    0    0 -0.22226724936E+02 -0.63465473788E+01  0.23403862966E+02  0.92105520725E+02  0.86031274437E+02 0.  0.
         11    1    3    3    0    0 -0.27910367517E+02 -0.38073099352E+02  0.33999943544E+02  0.58176848234E+02  0.51100000000E-03 0.  1.
         22    1    1    0    0    0  0.22226724936E+02  0.63465473788E+01 -0.23403862966E+02  0.32894479275E+02  0.00000000000E+00 0.  1.
</event>
<event>
 5    1  0.8778488E-005  0.9118800E+02  0.7818608E-02  0.1130116E+00
         25   -1    0    0    0    0  0.00000000000E+00  0.00000000000E+00  0.99999998245E-14  0.12500000000E+03  0.12500000000E+03 0.  0.
        -11    1    3    3    0    0 -0.95293185035E+01  0.14450524849E+02  0.59904523959E+02  0.62355252951E+02  0.51100000000E-03 0. -1.
         23    2    1    0    0    0 -0.62179848939E+01  0.82223064661E+01  0.25133571572E+02  0.97834468904E+02  0.93987324815E+02 0.  0.
         11    1    3    3    0    0  0.33113336095E+01 -0.62282183826E+01 -0.34770952387E+02  0.35479215953E+02  0.51100000000E-03 0.  1.
         22    1    1    0    0    0  0.62179848939E+01 -0.82223064661E+01 -0.25133571572E+02  0.27165531096E+02  0.00000000000E+00 0. -1.
</event>
<event>
 5    1  0.8778488E-005  0.9118800E+02  0.7818608E-02  0.1130116E+00
         25   -1    0    0    0    0  0.00000000000E+00  0.00000000000E+00  0.99999998245E-14  0.12500000000E+03  0.12500000000E+03 0.  0.
        -11    1    3    3    0    0 -0.23337219893E+02 -0.10797492647E+02  0.30854170491E+02  0.40164555478E+02  0.51100000000E-03 0. -1.
         23    2    1    0    0    0  0.53506403464E+01  0.29029952218E+02  0.73814291752E+01  0.94572167765E+02  0.89543519817E+02 0.  0.
         11    1    3    3    0    0  0.28687860239E+02  0.39827444865E+02 -0.23472741316E+02  0.54407612286E+02  0.51100000000E-03 0.  1.
         22    1    1    0    0    0 -0.53506403464E+01 -0.29029952218E+02 -0.73814291752E+01  0.30427832235E+02  0.00000000000E+00 0.  1.
</event>
<event>
 5    1  0.8778488E-005  0.9118800E+02  0.7818608E-02  0.1130116E+00
         25   -1    0    0    0    0  0.00000000000E+00  0.00000000000E+00  0.99999998245E-14  0.12500000000E+03  0.12500000000E+03 0.  0.
        -11    1    3    3    0    0  0.26018212603E+02 -0.19498361293E+02  0.30758931462E+02  0.44757628904E+02  0.51100000000E-03 0.  1.
         23    2    1    0    0    0 -0.22531447435E+02 -0.77627795225E+01  0.13543946586E+02  0.97588955537E+02  0.93660231071E+02 0.  0.
         11    1    3    3    0    0 -0.48549660038E+02  0.11735581770E+02 -0.17214984877E+02  0.52831326633E+02  0.51100000000E-03 0. -1.
         22    1    1    0    0    0  0.22531447435E+02  0.77627795225E+01 -0.13543946586E+02  0.27411044463E+02  0.00000000000E+00 0.  1.
</event>
<event>
 5    1  0.8778488E-005  0.9118800E+02  0.7818608E-02  0.1130116E+00
         25   -1    0    0    0    0  0.00000000000E+00  0.00000000000E+00  0.99999998245E-14  0.12500000000E+03  0.12500000000E+03 0.  0.
        -11    1    3    3    0    0 -0.36633521524E+02 -0.27835862375E+02 -0.29384386270E+01  0.46102977727E+02  0.51100000000E-03 0. -1.
         23    2    1    0    0    0 -0.14754409345E+02  0.10331863512E+02  0.21915644167E+02  0.96632140405E+02  0.92374428827E+02 0.  0.
         11    1    3    3    0    0  0.21879112179E+02  0.38167725887E+02  0.24854082794E+02  0.50529162678E+02  0.51100000000E-03 0.  1.
         22    1    1    0    0    0  0.14754409345E+02 -0.10331863512E+02 -0.21915644167E+02  0.28367859595E+02  0.00000000000E+00 0.  1.
</event>
<event>
 5    1  0.8778488E-005  0.9118800E+02  0.7818608E-02  0.1130116E+00
         25   -1    0    0    0    0  0.00000000000E+00  0.00000000000E+00  0.99999998245E-14  0.12500000000E+03  0.12500000000E+03 0.  0.
        -11    1    3    3    0    0 -0.13315725453E+02  0.33770179326E+02 -0.99533409370E+01  0.37640437724E+02  0.51100000000E-03 0.  1.
         23    2    1    0    0    0 -0.16026305297E+02 -0.21307913270E+02  0.10343394447E+02  0.96401828064E+02  0.92062245334E+02 0.  0.
         11    1    3    3    0    0 -0.27105798444E+01 -0.55078092596E+02  0.20296735384E+02  0.58761390339E+02  0.51100000000E-03 0. -1.
         22    1    1    0    0    0  0.16026305297E+02  0.21307913270E+02 -0.10343394447E+02  0.28598171936E+02  0.00000000000E+00 0. -1.
</event>
<event>
 5    1  0.8778488E-005  0.9118800E+02  0.7818608E-02  0.1130116E+00
         25   -1    0    0    0    0  0.00000000000E+00  0.00000000000E+00  0.99999998245E-14  0.12500000000E+03  0.12500000000E+03 0.  0.
        -11    1    3    3    0    0 -0.21330291562E+02 -0.88857322875E+01 -0.32047932870E+02  0.39509588430E+02  0.51100000000E-03 0. -1.
         23    2    1    0    0    0  0.22770388118E+02 -0.18643846082E+02  0.11236500625E+01  0.95549258732E+02  0.90897275444E+02 0.  0.
         11    1    3    3    0    0  0.44100679680E+02 -0.97581137946E+01  0.33171582933E+02  0.56039670302E+02  0.51100000000E-03 0.  1.
         22    1    1    0    0    0 -0.22770388118E+02  0.18643846082E+02 -0.11236500625E+01  0.29450741268E+02  0.00000000000E+00 0. -1.
</event>
<event>
 5    1  0.8778488E-005  0.9118800E+02  0.7818608E-02  0.1130116E+00
         25   -1    0    0    0    0  0.00000000000E+00  0.00000000000E+00  0.99999998245E-14  0.12500000000E+03  0.12500000000E+03 0.  0.
        -11    1    3    3    0    0  0.15101367590E+01 -0.22726402729E+02  0.10070432043E+02  0.24903483608E+02  0.51100000000E-03 0. -1.
         23    2    1    0    0    0 -0.12550357171E+01  0.38155750401E+02 -0.82523303346E+00  0.86814696376E+02  0.77965852102E+02 0.  0.
         11    1    3    3    0    0 -0.27651724761E+01  0.60882153130E+02 -0.10895665076E+02  0.61911212767E+02  0.51100000000E-03 0.  1.
         22    1    1    0    0    0  0.12550357171E+01 -0.38155750401E+02  0.82523303346E+00  0.38185303624E+02  0.00000000000E+00 0.  1.
</event>
<event>
 5    1  0.8778488E-005  0.9118800E+02  0.7818608E-02  0.1130116E+00
         25   -1    0    0    0    0  0.00000000000E+00  0.00000000000E+00  0.99999998245E-14  0.12500000000E+03  0.12500000000E+03 0.  0.
        -11    1    3    3    0    0 -0.22578907553E+02 -0.19601975388E+01 -0.15576226040E+02  0.27500331973E+02  0.51100000000E-03 0. -1.
         23    2    1    0    0    0  0.32964580549E+02  0.16991790732E+02 -0.10755003522E+02  0.86385823538E+02  0.77275195791E+02 0.  0.
         11    1    3    3    0    0  0.55543488103E+02  0.18951988271E+02  0.48212225185E+01  0.58885491565E+02  0.51100000000E-03 0.  1.
         22    1    1    0    0    0 -0.32964580549E+02 -0.16991790732E+02  0.10755003522E+02  0.38614176462E+02  0.00000000000E+00 0.  1.
</event>
<event>
 5    1  0.8778488E-005  0.9118800E+02  0.7818608E-02  0.1130116E+00
         25   -1    0    0    0    0  0.00000000000E+00  0.00000000000E+00  0.99999998245E-14  0.12500000000E+03  0.12500000000E+03 0.  0.
        -11    1    3    3    0    0  0.38127592381E+02  0.27080496782E+02 -0.27342775846E+02  0.54172816042E+02  0.51100000000E-03 0.  1.
         23    2    1    0    0    0  0.10837241333E+02  0.22603747903E+00 -0.30539909561E+02  0.92593473363E+02  0.86737352627E+02 0.  0.
         11    1    3    3    0    0 -0.27290351048E+02 -0.26854459303E+02 -0.31971337152E+01  0.38420657321E+02  0.51100000000E-03 0. -1.
         22    1    1    0    0    0 -0.10837241333E+02 -0.22603747903E+00  0.30539909561E+02  0.32406526637E+02  0.00000000000E+00 0.  1.
</event>
<event>
 5    1  0.8778488E-005  0.9118800E+02  0.7818608E-02  0.1130116E+00
         25   -1    0    0    0    0  0.00000000000E+00  0.00000000000E+00  0.99999998245E-14  0.12500000000E+03  0.12500000000E+03 0.  0.
        -11    1    3    3    0    0 -0.30549555811E+02  0.17507962546E+02 -0.46984462378E+02  0.58714085346E+02  0.51100000000E-03 0. -1.
         23    2    1    0    0    0 -0.20958460223E+02  0.18171082232E+02 -0.12389656881E+02  0.94619926234E+02  0.89610164371E+02 0.  0.
         11    1    3    3    0    0  0.95910955879E+01  0.66311968578E+00  0.34594805497E+02  0.35905840889E+02  0.51100000000E-03 0.  1.
         22    1    1    0    0    0  0.20958460223E+02 -0.18171082232E+02  0.12389656881E+02  0.30380073766E+02  0.00000000000E+00 0. -1.
</event>
<event>
 5    1  0.8778488E-005  0.9118800E+02  0.7818608E-02  0.1130116E+00
         25   -1    0    0    0    0  0.00000000000E+00  0.00000000000E+00  0.99999998245E-14  0.12500000000E+03  0.12500000000E+03 0.  0.
        -11    1    3    3    0    0  0.28403816473E+02 -0.31684160605E+02  0.20340803179E+02  0.47163662895E+02  0.51100000000E-03 0.  1.
         23    2    1    0    0    0  0.16978771334E+02 -0.93758088019E+01 -0.21566941893E+02  0.95994527252E+02  0.91507550579E+02 0.  0.
         11    1    3    3    0    0 -0.11425045139E+02  0.22308351803E+02 -0.41907745072E+02  0.48830864357E+02  0.51100000000E-03 0. -1.
         22    1    1    0    0    0 -0.16978771334E+02  0.93758088019E+01  0.21566941893E+02  0.29005472748E+02  0.00000000000E+00 0. -1.
</event>
<event>
 5    1  0.8778488E-005  0.9118800E+02  0.7818608E-02  0.1130116E+00
         25   -1    0    0    0    0  0.00000000000E+00  0.00000000000E+00  0.99999998245E-14  0.12500000000E+03  0.12500000000E+03 0.  0.
        -11    1    3    3    0    0  0.32823380491E+02  0.14921195203E+02 -0.48339596726E+01  0.36378338878E+02  0.51100000000E-03 0.  1.
         23    2    1    0    0    0 -0.31191163486E+01 -0.58727921538E+01 -0.36059176307E+02  0.88332810710E+02  0.80362943435E+02 0.  0.
         11    1    3    3    0    0 -0.35942496839E+02 -0.20793987357E+02 -0.31225216635E+02  0.51954471832E+02  0.51100000000E-03 0. -1.
         22    1    1    0    0    0  0.31191163486E+01  0.58727921538E+01  0.36059176307E+02  0.36667189290E+02  0.00000000000E+00 0. -1.
</event>
<event>
 5    1  0.8778488E-005  0.9118800E+02  0.7818608E-02  0.1130116E+00
         25   -1    0    0    0    0  0.00000000000E+00  0.00000000000E+00  0.99999998245E-14  0.12500000000E+03  0.12500000000E+03 0.  0.
        -11    1    3    3    0    0  0.32054124274E+02  0.15828040621E+02  0.11432846831E+02  0.37532702271E+02  0.51100000000E-03 0.  1.
         23    2    1    0    0    0 -0.29265810663E+01 -0.25767400179E+02 -0.11637229046E+02  0.96575558254E+02  0.92297830762E+02 0.  0.
         11    1    3    3    0    0 -0.34980705340E+02 -0.41595440799E+02 -0.23070075877E+02  0.59042855983E+02  0.51100000000E-03 0. -1.
         22    1    1    0    0    0  0.29265810663E+01  0.25767400179E+02  0.11637229046E+02  0.28424441746E+02  0.00000000000E+00 0. -1.
</event>
<event>
 5    1  0.8778488E-005  0.9118800E+02  0.7818608E-02  0.1130116E+00
         25   -1    0    0    0    0  0.00000000000E+00  0.00000000000E+00  0.99999998245E-14  0.12500000000E+03  0.12500000000E+03 0.  0.
        -11    1    3    3    0    0 -0.19853077123E+02 -0.13864772746E+02 -0.30497172489E+02  0.38941675935E+02  0.51100000000E-03 0.  1.
         23    2    1    0    0    0  0.16326561259E+02 -0.21921460590E+02  0.11840755531E+02  0.95212241969E+02  0.90432629578E+02 0.  0.
         11    1    3    3    0    0  0.36179638383E+02 -0.80566878442E+01  0.42337928020E+02  0.56270566034E+02  0.51100000000E-03 0. -1.
         22    1    1    0    0    0 -0.16326561259E+02  0.21921460590E+02 -0.11840755531E+02  0.29787758031E+02  0.00000000000E+00 0. -1.
</event>
<event>
 5    1  0.8778488E-005  0.9118800E+02  0.7818608E-02  0.1130116E+00
         25   -1    0    0    0    0  0.00000000000E+00  0.00000000000E+00  0.99999998245E-14  0.12500000000E+03  0.12500000000E+03 0.  0.
        -11    1    3    3    0    0  0.33210944825E+02 -0.40323327711E+02 -0.27237534998E+02  0.58913673514E+02  0.51100000000E-03 0. -1.
         23    2    1    0    0    0  0.19432743937E+02 -0.60717428121E+01 -0.19851994718E+02  0.96564119638E+02  0.92282338014E+02 0.  0.
         11    1    3    3    0    0 -0.13778200889E+02  0.34251584899E+02  0.73855402799E+01  0.37650446123E+02  0.51100000000E-03 0.  1.
         22    1    1    0    0    0 -0.19432743937E+02  0.60717428121E+01  0.19851994718E+02  0.28435880362E+02  0.00000000000E+00 0. -1.
</event>
<event>
 5    1  0.8778488E-005  0.9118800E+02  0.7818608E-02  0.1130116E+00
         25   -1    0    0    0    0  0.00000000000E+00  0.00000000000E+00  0.99999998245E-14  0.12500000000E+03  0.12500000000E+03 0.  0.
        -11    1    3    3    0    0 -0.30698361040E+02 -0.47375251587E+02 -0.24370330493E+02  0.61487534038E+02  0.51100000000E-03 0.  1.
         23    2    1    0    0    0 -0.20426604700E+02 -0.19269463552E+02 -0.71101147415E+01  0.96032567653E+02  0.91559499306E+02 0.  0.
         11    1    3    3    0    0  0.10271756339E+02  0.28105788035E+02  0.17260215751E+02  0.34545033614E+02  0.51100000000E-03 0. -1.
         22    1    1    0    0    0  0.20426604700E+02  0.19269463552E+02  0.71101147415E+01  0.28967432347E+02  0.00000000000E+00 0.  1.
</event>
<event>
 5    1  0.8778488E-005  0.9118800E+02  0.7818608E-02  0.1130116E+00
         25   -1    0    0    0    0  0.00000000000E+00  0.00000000000E+00  0.99999998245E-14  0.12500000000E+03  0.12500000000E+03 0.  0.
        -11    1    3    3    0    0  0.13971461134E+02 -0.33605333750E+02  0.13046582652E+02  0.38661783479E+02  0.51100000000E-03 0.  1.
         23    2    1    0    0    0  0.59990112723E+01  0.25147217869E+02  0.67108705805E+01  0.98290329715E+02  0.94591661518E+02 0.  0.
         11    1    3    3    0    0 -0.79724498620E+01  0.58752551618E+02 -0.63357120710E+01  0.59628546236E+02  0.51100000000E-03 0. -1.
         22    1    1    0    0    0 -0.59990112723E+01 -0.25147217869E+02 -0.67108705805E+01  0.26709670285E+02  0.00000000000E+00 0. -1.
</event>
<event>
 5    1  0.8778488E-005  0.9118800E+02  0.7818608E-02  0.1130116E+00
         25   -1    0    0    0    0  0.00000000000E+00  0.00000000000E+00  0.99999998245E-14  0.12500000000E+03  0.12500000000E+03 0.  0.
        -11    1    3    3    0    0 -0.13247623423E+02  0.30200415533E+02 -0.23064035865E+02  0.40243190422E+02  0.51100000000E-03 0.  1.
         23    2    1    0    0    0  0.30730559201E+02  0.88522220362E+01 -0.14552533084E+02  0.89864472070E+02  0.82711051362E+02 0.  0.
         11    1    3    3    0    0  0.43978182624E+02 -0.21348193497E+02  0.85115027809E+01  0.49621281647E+02  0.51100000000E-03 0. -1.
         22    1    1    0    0    0 -0.30730559201E+02 -0.88522220362E+01  0.14552533084E+02  0.35135527930E+02  0.00000000000E+00 0. -1.
</event>
<event>
 5    1  0.8778488E-005  0.9118800E+02  0.7818608E-02  0.1130116E+00
         25   -1    0    0    0    0  0.00000000000E+00  0.00000000000E+00  0.99999998245E-14  0.12500000000E+03  0.12500000000E+03 0.  0.
        -11    1    3    3    0    0  0.10325472711E+02 -0.39131898030E+02 -0.10181680847E+02  0.41732331055E+02  0.51100000000E-03 0. -1.
         23    2    1    0    0    0  0.65584286436E+01  0.10051951254E+02 -0.28282292085E+02  0.94276348592E+02  0.89129608705E+02 0.  0.
         11    1    3    3    0    0 -0.37670440676E+01  0.49183849284E+02 -0.18100611238E+02  0.52544017537E+02  0.51100000000E-03 0.  1.
         22    1    1    0    0    0 -0.65584286436E+01 -0.10051951254E+02  0.28282292085E+02  0.30723651408E+02  0.00000000000E+00 0.  1.
</event>
<event>
 5    1  0.8778488E-005  0.9118800E+02  0.7818608E-02  0.1130116E+00
         25   -1    0    0    0    0  0.00000000000E+00  0.00000000000E+00  0.99999998245E-14  0.12500000000E+03  0.12500000000E+03 0.  0.
        -11    1    3    3    0    0  0.13587932254E+02  0.49527058528E+02 -0.21052661356E+01  0.51400326605E+02  0.51100000000E-03 0.  1.
         23    2    1    0    0    0  0.23707392773E+02  0.46484565907E+01 -0.11321840736E+02  0.98319807002E+02  0.94630606837E+02 0.  0.
         11    1    3    3    0    0  0.10119460519E+02 -0.44878601937E+02 -0.92165746006E+01  0.46919480396E+02  0.51100000000E-03 0. -1.
         22    1    1    0    0    0 -0.23707392773E+02 -0.46484565907E+01  0.11321840736E+02  0.26680192998E+02  0.00000000000E+00 0.  1.
</event>
<event>
 5    1  0.8778488E-005  0.9118800E+02  0.7818608E-02  0.1130116E+00
         25   -1    0    0    0    0  0.00000000000E+00  0.00000000000E+00  0.99999998245E-14  0.12500000000E+03  0.12500000000E+03 0.  0.
        -11    1    3    3    0    0 -0.10989172043E+02 -0.45006061440E+02  0.70507159453E+01  0.46861712134E+02  0.51100000000E-03 0.  1.
         23    2    1    0    0    0 -0.21674153531E+01 -0.16258096175E+02 -0.27694592418E+02  0.92812831287E+02  0.87052902432E+02 0.  0.
         11    1    3    3    0    0  0.88217566896E+01  0.28747965265E+02 -0.34745308363E+02  0.45951119154E+02  0.51100000000E-03 0. -1.
         22    1    1    0    0    0  0.21674153531E+01  0.16258096175E+02  0.27694592418E+02  0.32187168713E+02  0.00000000000E+00 0.  1.
</event>
<event>
 5    1  0.8778488E-005  0.9118800E+02  0.7818608E-02  0.1130116E+00
         25   -1    0    0    0    0  0.00000000000E+00  0.00000000000E+00  0.99999998245E-14  0.12500000000E+03  0.12500000000E+03 0.  0.
        -11    1    3    3    0    0 -0.15979433709E+02 -0.44509569281E+02 -0.30974978022E+01  0.47392389180E+02  0.51100000000E-03 0.  1.
         23    2    1    0    0    0  0.23209263975E+02 -0.10833108242E+02 -0.40323878409E+01  0.99071515275E+02  0.95618402092E+02 0.  0.
         11    1    3    3    0    0  0.39188697684E+02  0.33676461039E+02 -0.93489003876E+00  0.51679126095E+02  0.51100000000E-03 0. -1.
         22    1    1    0    0    0 -0.23209263975E+02  0.10833108242E+02  0.40323878409E+01  0.25928484725E+02  0.00000000000E+00 0. -1.
</event>
<event>
 5    1  0.8778488E-005  0.9118800E+02  0.7818608E-02  0.1130116E+00
         25   -1    0    0    0    0  0.00000000000E+00  0.00000000000E+00  0.99999998245E-14  0.12500000000E+03  0.12500000000E+03 0.  0.
        -11    1    3    3    0    0 -0.22757812982E+02 -0.19382761954E+02 -0.54729723682E+02  0.62361463800E+02  0.51100000000E-03 0. -1.
         23    2    1    0    0    0 -0.13210325524E+02 -0.87350725283E+01 -0.24147413790E+02  0.96122469197E+02  0.91682153657E+02 0.  0.
         11    1    3    3    0    0  0.95474874572E+01  0.10647689426E+02  0.30582309892E+02  0.33761005397E+02  0.51100000000E-03 0.  1.
         22    1    1    0    0    0  0.13210325524E+02  0.87350725283E+01  0.24147413790E+02  0.28877530803E+02  0.00000000000E+00 0. -1.
</event>
<event>
 5    1  0.8778488E-005  0.9118800E+02  0.7818608E-02  0.1130116E+00
         25   -1    0    0    0    0  0.00000000000E+00  0.00000000000E+00  0.99999998245E-14  0.12500000000E+03  0.12500000000E+03 0.  0.
        -11    1    3    3    0    0  0.37355853042E+02 -0.67012408337E+01 -0.14957442788E+02  0.40793277390E+02  0.51100000000E-03 0.  1.
         23    2    1    0    0    0  0.26658062727E+01  0.27314521407E+02  0.10466009256E+02  0.95627786047E+02  0.91005200465E+02 0.  0.
         11    1    3    3    0    0 -0.34690046769E+02  0.34015762240E+02  0.25423452043E+02  0.54834508657E+02  0.51100000000E-03 0. -1.
         22    1    1    0    0    0 -0.26658062727E+01 -0.27314521407E+02 -0.10466009256E+02  0.29372213953E+02  0.00000000000E+00 0. -1.
</event>
<event>
 5    1  0.8778488E-005  0.9118800E+02  0.7818608E-02  0.1130116E+00
         25   -1    0    0    0    0  0.00000000000E+00  0.00000000000E+00  0.99999998245E-14  0.12500000000E+03  0.12500000000E+03 0.  0.
        -11    1    3    3    0    0  0.78987244361E+00 -0.40235413554E+02 -0.40301748161E+02  0.56953869996E+02  0.51100000000E-03 0.  1.
         23    2    1    0    0    0 -0.30167638200E+01 -0.70006857326E+01 -0.32917707930E+02  0.91211156278E+02  0.84721833488E+02 0.  0.
         11    1    3    3    0    0 -0.38066362636E+01  0.33234727822E+02  0.73840402310E+01  0.34257286282E+02  0.51100000000E-03 0. -1.
         22    1    1    0    0    0  0.30167638200E+01  0.70006857326E+01  0.32917707930E+02  0.33788843722E+02  0.00000000000E+00 0.  1.
</event>
<event>
 5    1  0.8778488E-005  0.9118800E+02  0.7818608E-02  0.1130116E+00
         25   -1    0    0    0    0  0.00000000000E+00  0.00000000000E+00  0.99999998245E-14  0.12500000000E+03  0.12500000000E+03 0.  0.
        -11    1    3    3    0    0  0.98397364129E+01 -0.41791333805E+02 -0.20413369101E+02  0.47539895164E+02  0.51100000000E-03 0.  1.
         23    2    1    0    0    0 -0.17250421421E+02 -0.25259054959E+02  0.11287018508E+02  0.92396416096E+02  0.86452900610E+02 0.  0.
         11    1    3    3    0    0 -0.27090157834E+02  0.16532278846E+02  0.31700387609E+02  0.44856520932E+02  0.51100000000E-03 0. -1.
         22    1    1    0    0    0  0.17250421421E+02  0.25259054959E+02 -0.11287018508E+02  0.32603583904E+02  0.00000000000E+00 0.  1.
</event>
<event>
 5    1  0.8778488E-005  0.9118800E+02  0.7818608E-02  0.1130116E+00
         25   -1    0    0    0    0  0.00000000000E+00  0.00000000000E+00  0.99999998245E-14  0.12500000000E+03  0.12500000000E+03 0.  0.
        -11    1    3    3    0    0 -0.18249455415E+02 -0.27286183786E+02  0.29385961024E+01  0.32957757749E+02  0.51100000000E-03 0. -1.
         23    2    1    0    0    0 -0.24597658493E+01  0.31132558335E+02 -0.22161122455E+01  0.93691889389E+02  0.88306128594E+02 0.  0.
         11    1    3    3    0    0  0.15789689566E+02  0.58418742121E+02 -0.51547083479E+01  0.60734131640E+02  0.51100000000E-03 0.  1.
         22    1    1    0    0    0  0.24597658493E+01 -0.31132558335E+02  0.22161122455E+01  0.31308110611E+02  0.00000000000E+00 0.  1.
</event>
<event>
 5    1  0.8778488E-005  0.9118800E+02  0.7818608E-02  0.1130116E+00
         25   -1    0    0    0    0  0.00000000000E+00  0.00000000000E+00  0.99999998245E-14  0.12500000000E+03  0.12500000000E+03 0.  0.
        -11    1    3    3    0    0 -0.44460857397E+02 -0.28348789680E+02 -0.98184857520E+01  0.53636036202E+02  0.51100000000E-03 0. -1.
         23    2    1    0    0    0 -0.37419319599E+01 -0.27713044152E+02  0.42350096988E+01  0.96716609501E+02  0.92488660793E+02 0.  0.
         11    1    3    3    0    0  0.40718925437E+02  0.63574552799E+00  0.14053495451E+02  0.43080573299E+02  0.51100000000E-03 0.  1.
         22    1    1    0    0    0  0.37419319599E+01  0.27713044152E+02 -0.42350096988E+01  0.28283390499E+02  0.00000000000E+00 0. -1.
</event>
<event>
 5    1  0.8778488E-005  0.9118800E+02  0.7818608E-02  0.1130116E+00
         25   -1    0    0    0    0  0.00000000000E+00  0.00000000000E+00  0.99999998245E-14  0.12500000000E+03  0.12500000000E+03 0.  0.
        -11    1    3    3    0    0 -0.15731871173E+02  0.26401307360E+02 -0.17206728393E+02  0.35222042859E+02  0.51100000000E-03 0. -1.
         23    2    1    0    0    0  0.48004545998E+01 -0.28739231509E+02 -0.33521051072E+01  0.95670417651E+02  0.91063738188E+02 0.  0.
         11    1    3    3    0    0  0.20532325773E+02 -0.55140538869E+02  0.13854623286E+02  0.60448374792E+02  0.51100000000E-03 0.  1.
         22    1    1    0    0    0 -0.48004545998E+01  0.28739231509E+02  0.33521051072E+01  0.29329582349E+02  0.00000000000E+00 0.  1.
</event>
<event>
 5    1  0.8778488E-005  0.9118800E+02  0.7818608E-02  0.1130116E+00
         25   -1    0    0    0    0  0.00000000000E+00  0.00000000000E+00  0.99999998245E-14  0.12500000000E+03  0.12500000000E+03 0.  0.
        -11    1    3    3    0    0  0.33121774362E+02  0.23230648129E+01  0.42964986777E+02  0.54299527217E+02  0.51100000000E-03 0.  1.
         23    2    1    0    0    0 -0.48042851776E+01 -0.58016750236E+01  0.28216267733E+02  0.95795576467E+02  0.91235377550E+02 0.  0.
         11    1    3    3    0    0 -0.37926059539E+02 -0.81247398366E+01 -0.14748719045E+02  0.41496049250E+02  0.51100000000E-03 0. -1.
         22    1    1    0    0    0  0.48042851776E+01  0.58016750236E+01 -0.28216267733E+02  0.29204423533E+02  0.00000000000E+00 0. -1.
</event>
<event>
 5    1  0.8778488E-005  0.9118800E+02  0.7818608E-02  0.1130116E+00
         25   -1    0    0    0    0  0.00000000000E+00  0.00000000000E+00  0.99999998245E-14  0.12500000000E+03  0.12500000000E+03 0.  0.
        -11    1    3    3    0    0 -0.29826722975E+02 -0.70780708438E+00 -0.20169523669E+02  0.36013109829E+02  0.51100000000E-03 0. -1.
         23    2    1    0    0    0  0.23524905387E+02  0.41153438632E+01  0.11763397353E+02  0.98377927468E+02  0.94707348538E+02 0.  0.
         11    1    3    3    0    0  0.53351628362E+02  0.48231509476E+01  0.31932921022E+02  0.62364817639E+02  0.51100000000E-03 0.  1.
         22    1    1    0    0    0 -0.23524905387E+02 -0.41153438632E+01 -0.11763397353E+02  0.26622072532E+02  0.00000000000E+00 0.  1.
</event>
<event>
 5    1  0.8778488E-005  0.9118800E+02  0.7818608E-02  0.1130116E+00
         25   -1    0    0    0    0  0.00000000000E+00  0.00000000000E+00  0.99999998245E-14  0.12500000000E+03  0.12500000000E+03 0.  0.
        -11    1    3    3    0    0  0.28577495100E+02  0.38832709492E+02  0.39142490379E+02  0.62103036205E+02  0.51100000000E-03 0. -1.
         23    2    1    0    0    0  0.88712429763E+01  0.20413730788E+02  0.17490839663E+02  0.96691894646E+02  0.92455252212E+02 0.  0.
         11    1    3    3    0    0 -0.19706252124E+02 -0.18418978704E+02 -0.21651650716E+02  0.34588858441E+02  0.51100000000E-03 0.  1.
         22    1    1    0    0    0 -0.88712429763E+01 -0.20413730788E+02 -0.17490839663E+02  0.28308105354E+02  0.00000000000E+00 0. -1.
</event>
<event>
 5    1  0.8778488E-005  0.9118800E+02  0.7818608E-02  0.1130116E+00
         25   -1    0    0    0    0  0.00000000000E+00  0.00000000000E+00  0.99999998245E-14  0.12500000000E+03  0.12500000000E+03 0.  0.
        -11    1    3    3    0    0 -0.73313617640E+01  0.35683018848E+02 -0.21730030676E+01  0.36493131436E+02  0.51100000000E-03 0. -1.
         23    2    1    0    0    0 -0.79734912435E+01 -0.21342560095E+02 -0.18320583423E+02  0.95764316136E+02  0.91192538259E+02 0.  0.
         11    1    3    3    0    0 -0.64212947953E+00 -0.57025578944E+02 -0.16147580355E+02  0.59271184700E+02  0.51100000000E-03 0.  1.
         22    1    1    0    0    0  0.79734912435E+01  0.21342560095E+02  0.18320583423E+02  0.29235683864E+02  0.00000000000E+00 0.  1.
</event>
<event>
 5    1  0.8778488E-005  0.9118800E+02  0.7818608E-02  0.1130116E+00
         25   -1    0    0    0    0  0.00000000000E+00  0.00000000000E+00  0.99999998245E-14  0.12500000000E+03  0.12500000000E+03 0.  0.
        -11    1    3    3    0    0  0.31242080246E+02 -0.44707686350E+01  0.25444641853E+01  0.31662748594E+02  0.51100000000E-03 0. -1.
         23    2    1    0    0    0 -0.21180196596E+02 -0.15484097265E+02 -0.22165206202E+02  0.90653903251E+02  0.83895624515E+02 0.  0.
         11    1    3    3    0    0 -0.52422276842E+02 -0.11013328630E+02 -0.24709670387E+02  0.58991154656E+02  0.51100000000E-03 0.  1.
         22    1    1    0    0    0  0.21180196596E+02  0.15484097265E+02  0.22165206202E+02  0.34346096749E+02  0.00000000000E+00 0.  1.
</event>
<event>
 5    1  0.8778488E-005  0.9118800E+02  0.7818608E-02  0.1130116E+00
         25   -1    0    0    0    0  0.00000000000E+00  0.00000000000E+00  0.99999998245E-14  0.12500000000E+03  0.12500000000E+03 0.  0.
        -11    1    3    3    0    0 -0.42336742075E+02  0.22146938248E+02  0.24290096559E+02  0.53599397332E+02  0.51100000000E-03 0. -1.
         23    2    1    0    0    0 -0.24907768840E+02 -0.12650223494E+02  0.69095068794E+01  0.96222119808E+02  0.91817917379E+02 0.  0.
         11    1    3    3    0    0  0.17428973235E+02 -0.34797161742E+02 -0.17380589680E+02  0.42622722475E+02  0.51100000000E-03 0.  1.
         22    1    1    0    0    0  0.24907768840E+02  0.12650223494E+02 -0.69095068794E+01  0.28777880192E+02  0.00000000000E+00 0. -1.
</event>
<event>
 5    1  0.8778488E-005  0.9118800E+02  0.7818608E-02  0.1130116E+00
         25   -1    0    0    0    0  0.00000000000E+00  0.00000000000E+00  0.99999998245E-14  0.12500000000E+03  0.12500000000E+03 0.  0.
        -11    1    3    3    0    0 -0.11767351856E+01 -0.53313486795E+02  0.84398574703E+00  0.53333150030E+02  0.51100000000E-03 0. -1.
         23    2    1    0    0    0 -0.74125610433E+01 -0.16130101423E+02  0.22130214583E+02  0.96629722761E+02  0.92371157242E+02 0.  0.
         11    1    3    3    0    0 -0.62358258578E+01  0.37183385373E+02  0.21286228836E+02  0.43296572731E+02  0.51100000000E-03 0.  1.
         22    1    1    0    0    0  0.74125610433E+01  0.16130101423E+02 -0.22130214583E+02  0.28370277239E+02  0.00000000000E+00 0. -1.
</event>
<event>
 5    1  0.8778488E-005  0.9118800E+02  0.7818608E-02  0.1130116E+00
         25   -1    0    0    0    0  0.00000000000E+00  0.00000000000E+00  0.99999998245E-14  0.12500000000E+03  0.12500000000E+03 0.  0.
        -11    1    3    3    0    0 -0.14692942290E+02  0.55645074690E+02  0.23382751665E+02  0.62120930178E+02  0.51100000000E-03 0.  1.
         23    2    1    0    0    0 -0.69120941394E+01  0.25366179542E+02  0.54898561966E+01  0.98141879608E+02  0.94395285380E+02 0.  0.
         11    1    3    3    0    0  0.77808481504E+01 -0.30278895149E+02 -0.17892895469E+02  0.36020949430E+02  0.51100000000E-03 0. -1.
         22    1    1    0    0    0  0.69120941394E+01 -0.25366179542E+02 -0.54898561966E+01  0.26858120392E+02  0.00000000000E+00 0.  1.
</event>
<event>
 5    1  0.8778488E-005  0.9118800E+02  0.7818608E-02  0.1130116E+00
         25   -1    0    0    0    0  0.00000000000E+00  0.00000000000E+00  0.99999998245E-14  0.12500000000E+03  0.12500000000E+03 0.  0.
        -11    1    3    3    0    0 -0.53777470802E+02 -0.69719172688E+01 -0.10049222844E+02  0.55150801230E+02  0.51100000000E-03 0. -1.
         23    2    1    0    0    0 -0.17537816052E+02 -0.23450767418E+02 -0.32628575166E+01  0.95535449714E+02  0.90878283592E+02 0.  0.
         11    1    3    3    0    0  0.36239654750E+02 -0.16478850149E+02  0.67863653279E+01  0.40384648485E+02  0.51100000000E-03 0.  1.
         22    1    1    0    0    0  0.17537816052E+02  0.23450767418E+02  0.32628575166E+01  0.29464550286E+02  0.00000000000E+00 0. -1.
</event>
<event>
 5    1  0.8778488E-005  0.9118800E+02  0.7818608E-02  0.1130116E+00
         25   -1    0    0    0    0  0.00000000000E+00  0.00000000000E+00  0.99999998245E-14  0.12500000000E+03  0.12500000000E+03 0.  0.
        -11    1    3    3    0    0 -0.35609621311E+02 -0.37071938685E+02  0.24530947597E+02  0.56957362633E+02  0.51100000000E-03 0.  1.
         23    2    1    0    0    0 -0.73913700572E+01 -0.10187265192E+02  0.26163442650E+02  0.95966597603E+02  0.91469390513E+02 0.  0.
         11    1    3    3    0    0  0.28218251253E+02  0.26884673493E+02  0.16324950527E+01  0.39009234971E+02  0.51100000000E-03 0. -1.
         22    1    1    0    0    0  0.73913700572E+01  0.10187265192E+02 -0.26163442650E+02  0.29033402397E+02  0.00000000000E+00 0.  1.
</event>
<event>
 5    1  0.8778488E-005  0.9118800E+02  0.7818608E-02  0.1130116E+00
         25   -1    0    0    0    0  0.00000000000E+00  0.00000000000E+00  0.99999998245E-14  0.12500000000E+03  0.12500000000E+03 0.  0.
        -11    1    3    3    0    0 -0.49423814779E+02 -0.53101743616E+01 -0.36604515177E+02  0.61731693243E+02  0.51100000000E-03 0.  1.
         23    2    1    0    0    0 -0.27432803178E+02  0.69514627251E+00 -0.12704387108E+02  0.94760235280E+02  0.89805672537E+02 0.  0.
         11    1    3    3    0    0  0.21991011601E+02  0.60053206341E+01  0.23900128069E+02  0.33028542037E+02  0.51100000000E-03 0. -1.
         22    1    1    0    0    0  0.27432803178E+02 -0.69514627251E+00  0.12704387108E+02  0.30239764720E+02  0.00000000000E+00 0.  1.
</event>
<event>
 5    1  0.8778488E-005  0.9118800E+02  0.7818608E-02  0.1130116E+00
         25   -1    0    0    0    0  0.00000000000E+00  0.00000000000E+00  0.99999998245E-14  0.12500000000E+03  0.12500000000E+03 0.  0.
        -11    1    3    3    0    0 -0.11968211866E+02  0.42487800838E+02  0.12428330397E+01  0.44158758469E+02  0.51100000000E-03 0.  1.
         23    2    1    0    0    0  0.27299181520E+02  0.10220397657E+02 -0.52011097310E+01  0.95389978346E+02  0.90677971892E+02 0.  0.
         11    1    3    3    0    0  0.39267393386E+02 -0.32267403181E+02 -0.64439427707E+01  0.51231219876E+02  0.51100000000E-03 0. -1.
         22    1    1    0    0    0 -0.27299181520E+02 -0.10220397657E+02  0.52011097310E+01  0.29610021654E+02  0.00000000000E+00 0. -1.
</event>
<event>
 5    1  0.8778488E-005  0.9118800E+02  0.7818608E-02  0.1130116E+00
         25   -1    0    0    0    0  0.00000000000E+00  0.00000000000E+00  0.99999998245E-14  0.12500000000E+03  0.12500000000E+03 0.  0.
        -11    1    3    3    0    0 -0.30679358447E+02 -0.10106407015E+02 -0.80009547420E+01  0.33277286165E+02  0.51100000000E-03 0.  1.
         23    2    1    0    0    0  0.28586938232E+02  0.64719830938E+01  0.19802268966E+01  0.95622782616E+02  0.90998327754E+02 0.  0.
         11    1    3    3    0    0  0.59266296679E+02  0.16578390109E+02  0.99811816386E+01  0.62345496451E+02  0.51100000000E-03 0. -1.
         22    1    1    0    0    0 -0.28586938232E+02 -0.64719830938E+01 -0.19802268966E+01  0.29377217384E+02  0.00000000000E+00 0. -1.
</event>
<event>
 5    1  0.8778488E-005  0.9118800E+02  0.7818608E-02  0.1130116E+00
         25   -1    0    0    0    0  0.00000000000E+00  0.00000000000E+00  0.99999998245E-14  0.12500000000E+03  0.12500000000E+03 0.  0.
        -11    1    3    3    0    0 -0.44301619182E+02  0.18180062857E+02 -0.29458291000E+02  0.56222229203E+02  0.51100000000E-03 0.  1.
         23    2    1    0    0    0 -0.74117629661E+01  0.12322485095E+02 -0.27906569512E+02  0.93606457812E+02  0.88185114690E+02 0.  0.
         11    1    3    3    0    0  0.36889856215E+02 -0.58575777620E+01  0.15517214881E+01  0.37384228609E+02  0.51100000000E-03 0. -1.
         22    1    1    0    0    0  0.74117629661E+01 -0.12322485095E+02  0.27906569512E+02  0.31393542188E+02  0.00000000000E+00 0.  1.
</event>
<event>
 5    1  0.8778488E-005  0.9118800E+02  0.7818608E-02  0.1130116E+00
         25   -1    0    0    0    0  0.00000000000E+00  0.00000000000E+00  0.99999998245E-14  0.12500000000E+03  0.12500000000E+03 0.  0.
        -11    1    3    3    0    0  0.16168305420E+02  0.28272658024E+02  0.34725433754E+01  0.32753867705E+02  0.51100000000E-03 0.  1.
         23    2    1    0    0    0 -0.10791841113E+02 -0.27872395318E+02  0.17459997319E+01  0.95060347857E+02  0.90222430495E+02 0.  0.
         11    1    3    3    0    0 -0.26960146533E+02 -0.56145053341E+02 -0.17265436435E+01  0.62306480153E+02  0.51100000000E-03 0. -1.
         22    1    1    0    0    0  0.10791841113E+02  0.27872395318E+02 -0.17459997319E+01  0.29939652143E+02  0.00000000000E+00 0. -1.
</event>
<event>
 5    1  0.8778488E-005  0.9118800E+02  0.7818608E-02  0.1130116E+00
         25   -1    0    0    0    0  0.00000000000E+00  0.00000000000E+00  0.99999998245E-14  0.12500000000E+03  0.12500000000E+03 0.  0.
        -11    1    3    3    0    0 -0.22948103241E+02 -0.19934307267E+02 -0.21715370426E+02  0.37357052367E+02  0.51100000000E-03 0.  1.
         23    2    1    0    0    0  0.29104035797E+02 -0.12936860206E+02 -0.34454535205E+01  0.92964419755E+02  0.87270298147E+02 0.  0.
         11    1    3    3    0    0  0.52052139038E+02  0.69974470605E+01  0.18269916905E+02  0.55607367388E+02  0.51100000000E-03 0. -1.
         22    1    1    0    0    0 -0.29104035797E+02  0.12936860206E+02  0.34454535205E+01  0.32035580245E+02  0.00000000000E+00 0. -1.
</event>
<event>
 5    1  0.8778488E-005  0.9118800E+02  0.7818608E-02  0.1130116E+00
         25   -1    0    0    0    0  0.00000000000E+00  0.00000000000E+00  0.99999998245E-14  0.12500000000E+03  0.12500000000E+03 0.  0.
        -11    1    3    3    0    0 -0.27573836300E+02  0.38734533515E+02  0.39265524059E+02  0.61664105562E+02  0.51100000000E-03 0. -1.
         23    2    1    0    0    0 -0.16057340108E+02  0.12503805497E+02  0.11191708988E+02  0.10177420242E+03  0.99088599770E+02 0.  0.
         11    1    3    3    0    0  0.11516496193E+02 -0.26230728017E+02 -0.28073815071E+02  0.40110096856E+02  0.51100000000E-03 0.  1.
         22    1    1    0    0    0  0.16057340108E+02 -0.12503805497E+02 -0.11191708988E+02  0.23225797582E+02  0.00000000000E+00 0. -1.
</event>
<event>
 5    1  0.8778488E-005  0.9118800E+02  0.7818608E-02  0.1130116E+00
         25   -1    0    0    0    0  0.00000000000E+00  0.00000000000E+00  0.99999998245E-14  0.12500000000E+03  0.12500000000E+03 0.  0.
        -11    1    3    3    0    0  0.21696327617E+02  0.23130199857E+02  0.20275581909E+02  0.37640882024E+02  0.51100000000E-03 0.  1.
         23    2    1    0    0    0 -0.12968432312E+02  0.10631646109E+02 -0.24299941874E+02  0.95475445631E+02  0.90795712497E+02 0.  0.
         11    1    3    3    0    0 -0.34664759929E+02 -0.12498553749E+02 -0.44575523783E+02  0.57834563607E+02  0.51100000000E-03 0. -1.
         22    1    1    0    0    0  0.12968432312E+02 -0.10631646109E+02  0.24299941874E+02  0.29524554369E+02  0.00000000000E+00 0. -1.
</event>
<event>
 5    1  0.8778488E-005  0.9118800E+02  0.7818608E-02  0.1130116E+00
         25   -1    0    0    0    0  0.00000000000E+00  0.00000000000E+00  0.99999998245E-14  0.12500000000E+03  0.12500000000E+03 0.  0.
        -11    1    3    3    0    0 -0.41995469964E+02 -0.17777114194E+02 -0.22587761201E+02  0.50890590907E+02  0.51100000000E-03 0.  1.
         23    2    1    0    0    0 -0.14677233682E+02 -0.22666712518E+02  0.12180020179E+02  0.95376463133E+02  0.90659339195E+02 0.  0.
         11    1    3    3    0    0  0.27318236281E+02 -0.48895983236E+01  0.34767781381E+02  0.44485872226E+02  0.51100000000E-03 0. -1.
         22    1    1    0    0    0  0.14677233682E+02  0.22666712518E+02 -0.12180020179E+02  0.29623536867E+02  0.00000000000E+00 0.  1.
</event>
<event>
 5    1  0.8778488E-005  0.9118800E+02  0.7818608E-02  0.1130116E+00
         25   -1    0    0    0    0  0.00000000000E+00  0.00000000000E+00  0.99999998245E-14  0.12500000000E+03  0.12500000000E+03 0.  0.
        -11    1    3    3    0    0 -0.28682313088E+02  0.17844319172E+02  0.23163448942E+02  0.40959006066E+02  0.51100000000E-03 0. -1.
         23    2    1    0    0    0 -0.12368679384E+02 -0.10913473457E+02 -0.22355059422E+02  0.97218048766E+02  0.93163899615E+02 0.  0.
         11    1    3    3    0    0  0.16313633704E+02 -0.28757792629E+02 -0.45518508364E+02  0.56259042700E+02  0.51100000000E-03 0.  1.
         22    1    1    0    0    0  0.12368679384E+02  0.10913473457E+02  0.22355059422E+02  0.27781951234E+02  0.00000000000E+00 0.  1.
</event>
<event>
 5    1  0.8778488E-005  0.9118800E+02  0.7818608E-02  0.1130116E+00
         25   -1    0    0    0    0  0.00000000000E+00  0.00000000000E+00  0.99999998245E-14  0.12500000000E+03  0.12500000000E+03 0.  0.
        -11    1    3    3    0    0 -0.58690978627E+02  0.11673755546E+02 -0.84659412988E+01  0.60436575871E+02  0.51100000000E-03 0.  1.
         23    2    1    0    0    0 -0.84111522604E+01  0.48207732330E+01 -0.98218941077E+01  0.11119938622E+03  0.11033968712E+03 0.  0.
         11    1    3    3    0    0  0.50279826366E+02 -0.68529823126E+01 -0.13559528089E+01  0.50762810346E+02  0.51100000000E-03 0. -1.
         22    1    1    0    0    0  0.84111522604E+01 -0.48207732330E+01  0.98218941077E+01  0.13800613783E+02  0.00000000000E+00 0.  1.
</event>
<event>
 5    1  0.8778488E-005  0.9118800E+02  0.7818608E-02  0.1130116E+00
         25   -1    0    0    0    0  0.00000000000E+00  0.00000000000E+00  0.99999998245E-14  0.12500000000E+03  0.12500000000E+03 0.  0.
        -11    1    3    3    0    0  0.23732784718E+02 -0.23358122974E+02  0.81272918635E+01  0.34276812171E+02  0.51100000000E-03 0.  1.
         23    2    1    0    0    0 -0.11487842757E+02  0.24791281205E+02 -0.88107889424E+01  0.96290974297E+02  0.91911607397E+02 0.  0.
         11    1    3    3    0    0 -0.35220627475E+02  0.48149404179E+02 -0.16938080806E+02  0.62014162126E+02  0.51100000000E-03 0. -1.
         22    1    1    0    0    0  0.11487842757E+02 -0.24791281205E+02  0.88107889424E+01  0.28709025703E+02  0.00000000000E+00 0. -1.
</event>
<event>
 5    1  0.8778488E-005  0.9118800E+02  0.7818608E-02  0.1130116E+00
         25   -1    0    0    0    0  0.00000000000E+00  0.00000000000E+00  0.99999998245E-14  0.12500000000E+03  0.12500000000E+03 0.  0.
        -11    1    3    3    0    0  0.43872340237E+02  0.36616890171E+02  0.12422434099E+02  0.58479874768E+02  0.51100000000E-03 0.  1.
         23    2    1    0    0    0  0.16615966326E+02  0.22063794531E+02 -0.88538386400E+01  0.95994968976E+02  0.91508153975E+02 0.  0.
         11    1    3    3    0    0 -0.27256373911E+02 -0.14553095640E+02 -0.21276272739E+02  0.37515094208E+02  0.51100000000E-03 0. -1.
         22    1    1    0    0    0 -0.16615966326E+02 -0.22063794531E+02  0.88538386400E+01  0.29005031024E+02  0.00000000000E+00 0.  1.
</event>
<event>
 5    1  0.8778488E-005  0.9118800E+02  0.7818608E-02  0.1130116E+00
         25   -1    0    0    0    0  0.00000000000E+00  0.00000000000E+00  0.99999998245E-14  0.12500000000E+03  0.12500000000E+03 0.  0.
        -11    1    3    3    0    0  0.20711969583E+02 -0.22378894366E+02 -0.13940667961E+02  0.33528239150E+02  0.51100000000E-03 0.  1.
         23    2    1    0    0    0 -0.21066833058E+02  0.91811856093E+01  0.18823820929E+02  0.95294077044E+02  0.90545674999E+02 0.  0.
         11    1    3    3    0    0 -0.41778802642E+02  0.31560079975E+02  0.32764488890E+02  0.61765837894E+02  0.51100000000E-03 0. -1.
         22    1    1    0    0    0  0.21066833058E+02 -0.91811856093E+01 -0.18823820929E+02  0.29705922956E+02  0.00000000000E+00 0. -1.
</event>
<event>
 5    1  0.8778488E-005  0.9118800E+02  0.7818608E-02  0.1130116E+00
         25   -1    0    0    0    0  0.00000000000E+00  0.00000000000E+00  0.99999998245E-14  0.12500000000E+03  0.12500000000E+03 0.  0.
        -11    1    3    3    0    0 -0.34608636534E+02 -0.19569091809E+02  0.22849442661E+02  0.45856342061E+02  0.51100000000E-03 0.  1.
         23    2    1    0    0    0  0.20147634015E+01  0.15272965675E+02  0.24072044518E+02  0.96420530457E+02  0.92087635512E+02 0.  0.
         11    1    3    3    0    0  0.36623399936E+02  0.34842057485E+02  0.12226018574E+01  0.50564188396E+02  0.51100000000E-03 0. -1.
         22    1    1    0    0    0 -0.20147634015E+01 -0.15272965675E+02 -0.24072044518E+02  0.28579469543E+02  0.00000000000E+00 0.  1.
</event>
<event>
 5    1  0.8778488E-005  0.9118800E+02  0.7818608E-02  0.1130116E+00
         25   -1    0    0    0    0  0.00000000000E+00  0.00000000000E+00  0.99999998245E-14  0.12500000000E+03  0.12500000000E+03 0.  0.
        -11    1    3    3    0    0 -0.27619457702E+02  0.29384557961E+02  0.23270070346E+02  0.46559455156E+02  0.51100000000E-03 0.  1.
         23    2    1    0    0    0 -0.23393697546E+02 -0.16341016329E+02  0.47612131057E+01  0.96069686318E+02  0.91610160896E+02 0.  0.
         11    1    3    3    0    0  0.42257601569E+01 -0.45725574290E+02 -0.18508857240E+02  0.49510231161E+02  0.51100000000E-03 0. -1.
         22    1    1    0    0    0  0.23393697546E+02  0.16341016329E+02 -0.47612131057E+01  0.28930313682E+02  0.00000000000E+00 0.  1.
</event>
<event>
 5    1  0.8778488E-005  0.9118800E+02  0.7818608E-02  0.1130116E+00
         25   -1    0    0    0    0  0.00000000000E+00  0.00000000000E+00  0.99999998245E-14  0.12500000000E+03  0.12500000000E+03 0.  0.
        -11    1    3    3    0    0 -0.58247491139E+02 -0.11571731171E+02 -0.11064314299E+02  0.60407733258E+02  0.51100000000E-03 0. -1.
         23    2    1    0    0    0 -0.31556159115E+02 -0.50362919957E+01  0.56173038716E+01  0.92554514676E+02  0.86681189822E+02 0.  0.
         11    1    3    3    0    0  0.26691332024E+02  0.65354391755E+01  0.16681618171E+02  0.32146781417E+02  0.51100000000E-03 0.  1.
         22    1    1    0    0    0  0.31556159115E+02  0.50362919957E+01 -0.56173038716E+01  0.32445485324E+02  0.00000000000E+00 0. -1.
</event>
<event>
 5    1  0.8778488E-005  0.9118800E+02  0.7818608E-02  0.1130116E+00
         25   -1    0    0    0    0  0.00000000000E+00  0.00000000000E+00  0.99999998245E-14  0.12500000000E+03  0.12500000000E+03 0.  0.
        -11    1    3    3    0    0 -0.75974122421E+00  0.29370299773E+02  0.29475507825E+02  0.41617271382E+02  0.51100000000E-03 0. -1.
         23    2    1    0    0    0 -0.25180045933E+02 -0.13424048087E+02  0.80070780029E+01  0.95362977909E+02  0.90640744025E+02 0.  0.
         11    1    3    3    0    0 -0.24420304709E+02 -0.42794347860E+02 -0.21468429822E+02  0.53745706528E+02  0.51100000000E-03 0.  1.
         22    1    1    0    0    0  0.25180045933E+02  0.13424048087E+02 -0.80070780029E+01  0.29637022091E+02  0.00000000000E+00 0.  1.
</event>
<event>
 5    1  0.8778488E-005  0.9118800E+02  0.7818608E-02  0.1130116E+00
         25   -1    0    0    0    0  0.00000000000E+00  0.00000000000E+00  0.99999998245E-14  0.12500000000E+03  0.12500000000E+03 0.  0.
        -11    1    3    3    0    0 -0.24322662666E+02  0.28139467923E+02  0.46809171604E+02  0.59787290628E+02  0.51100000000E-03 0.  1.
         23    2    1    0    0    0  0.14374744721E+01  0.14326734284E+02  0.24594777622E+02  0.96500443260E+02  0.92196045550E+02 0.  0.
         11    1    3    3    0    0  0.25760137138E+02 -0.13812733638E+02 -0.22214393982E+02  0.36713152632E+02  0.51100000000E-03 0. -1.
         22    1    1    0    0    0 -0.14374744721E+01 -0.14326734284E+02 -0.24594777622E+02  0.28499556740E+02  0.00000000000E+00 0.  1.
</event>
<event>
 5    1  0.8778488E-005  0.9118800E+02  0.7818608E-02  0.1130116E+00
         25   -1    0    0    0    0  0.00000000000E+00  0.00000000000E+00  0.99999998245E-14  0.12500000000E+03  0.12500000000E+03 0.  0.
        -11    1    3    3    0    0 -0.13962770944E+02  0.49365763218E+02 -0.15859966800E+02  0.53698008321E+02  0.51100000000E-03 0. -1.
         23    2    1    0    0    0  0.11425661219E+02  0.17673767582E+02 -0.21755468854E+02  0.94731068405E+02  0.89765066152E+02 0.  0.
         11    1    3    3    0    0  0.25388432164E+02 -0.31691995636E+02 -0.58955020543E+01  0.41033060084E+02  0.51100000000E-03 0.  1.
         22    1    1    0    0    0 -0.11425661219E+02 -0.17673767582E+02  0.21755468854E+02  0.30268931595E+02  0.00000000000E+00 0. -1.
</event>
<event>
 5    1  0.8778488E-005  0.9118800E+02  0.7818608E-02  0.1130116E+00
         25   -1    0    0    0    0  0.00000000000E+00  0.00000000000E+00  0.99999998245E-14  0.12500000000E+03  0.12500000000E+03 0.  0.
        -11    1    3    3    0    0 -0.33845297091E+02  0.10382822169E+02  0.28357692778E+02  0.45359297518E+02  0.51100000000E-03 0.  1.
         23    2    1    0    0    0 -0.23982792022E+02  0.82536771412E+01 -0.18701135709E+02  0.93487621856E+02  0.88016506770E+02 0.  0.
         11    1    3    3    0    0  0.98625050687E+01 -0.21291450281E+01 -0.47058828487E+02  0.48128324338E+02  0.51100000000E-03 0. -1.
         22    1    1    0    0    0  0.23982792022E+02 -0.82536771412E+01  0.18701135709E+02  0.31512378144E+02  0.00000000000E+00 0. -1.
</event>
<event>
 5    1  0.8778488E-005  0.9118800E+02  0.7818608E-02  0.1130116E+00
         25   -1    0    0    0    0  0.00000000000E+00  0.00000000000E+00  0.99999998245E-14  0.12500000000E+03  0.12500000000E+03 0.  0.
        -11    1    3    3    0    0  0.34444297735E+02  0.14188342590E+02  0.36206452930E+02  0.51948300703E+02  0.51100000000E-03 0.  1.
         23    2    1    0    0    0 -0.66628193280E+01  0.70004642077E+01  0.29173243305E+02  0.94267642697E+02  0.89117398268E+02 0.  0.
         11    1    3    3    0    0 -0.41107117063E+02 -0.71878783828E+01 -0.70332096251E+01  0.42319341994E+02  0.51100000000E-03 0. -1.
         22    1    1    0    0    0  0.66628193280E+01 -0.70004642077E+01 -0.29173243305E+02  0.30732357303E+02  0.00000000000E+00 0.  1.
</event>
<event>
 5    1  0.8778488E-005  0.9118800E+02  0.7818608E-02  0.1130116E+00
         25   -1    0    0    0    0  0.00000000000E+00  0.00000000000E+00  0.99999998245E-14  0.12500000000E+03  0.12500000000E+03 0.  0.
        -11    1    3    3    0    0  0.50675917434E+01  0.49298912695E+02 -0.32817618549E+02  0.59439543794E+02  0.51100000000E-03 0.  1.
         23    2    1    0    0    0 -0.75276616872E+01  0.18636085330E+02 -0.23910185775E+02  0.93764341680E+02  0.88408627521E+02 0.  0.
         11    1    3    3    0    0 -0.12595253431E+02 -0.30662827365E+02  0.89074327745E+01  0.34324797886E+02  0.51100000000E-03 0. -1.
         22    1    1    0    0    0  0.75276616872E+01 -0.18636085330E+02  0.23910185775E+02  0.31235658320E+02  0.00000000000E+00 0.  1.
</event>
<event>
 5    1  0.8778488E-005  0.9118800E+02  0.7818608E-02  0.1130116E+00
         25   -1    0    0    0    0  0.00000000000E+00  0.00000000000E+00  0.99999998245E-14  0.12500000000E+03  0.12500000000E+03 0.  0.
        -11    1    3    3    0    0  0.38252193268E+02 -0.13113615107E+02 -0.28713688254E+01  0.40539387639E+02  0.51100000000E-03 0. -1.
         23    2    1    0    0    0 -0.11708306936E+02 -0.24664669784E+02  0.13731711955E+02  0.94438745116E+02  0.89357071790E+02 0.  0.
         11    1    3    3    0    0 -0.49960500203E+02 -0.11551054677E+02  0.16603080781E+02  0.53899357477E+02  0.51100000000E-03 0.  1.
         22    1    1    0    0    0  0.11708306936E+02  0.24664669784E+02 -0.13731711955E+02  0.30561254884E+02  0.00000000000E+00 0.  1.
</event>
<event>
 5    1  0.8778488E-005  0.9118800E+02  0.7818608E-02  0.1130116E+00
         25   -1    0    0    0    0  0.00000000000E+00  0.00000000000E+00  0.99999998245E-14  0.12500000000E+03  0.12500000000E+03 0.  0.
        -11    1    3    3    0    0  0.27009693402E+02  0.51993497807E+02 -0.21023124309E+02  0.62248045012E+02  0.51100000000E-03 0. -1.
         23    2    1    0    0    0  0.15696409321E+02  0.23227944898E+02 -0.12452848211E+02  0.94324470366E+02  0.89197071653E+02 0.  0.
         11    1    3    3    0    0 -0.11313284081E+02 -0.28765552908E+02  0.85702760981E+01  0.32076425354E+02  0.51100000000E-03 0.  1.
         22    1    1    0    0    0 -0.15696409321E+02 -0.23227944898E+02  0.12452848211E+02  0.30675529634E+02  0.00000000000E+00 0. -1.
</event>
<event>
 5    1  0.8778488E-005  0.9118800E+02  0.7818608E-02  0.1130116E+00
         25   -1    0    0    0    0  0.00000000000E+00  0.00000000000E+00  0.99999998245E-14  0.12500000000E+03  0.12500000000E+03 0.  0.
        -11    1    3    3    0    0  0.41551446733E+01  0.33926907593E+01 -0.49949091254E+02  0.50236314507E+02  0.51100000000E-03 0. -1.
         23    2    1    0    0    0 -0.20797818054E+02 -0.14105562742E+02 -0.23648496649E+02  0.90492500383E+02  0.83654797207E+02 0.  0.
         11    1    3    3    0    0 -0.24952962727E+02 -0.17498253501E+02  0.26300594606E+02  0.40256185876E+02  0.51100000000E-03 0.  1.
         22    1    1    0    0    0  0.20797818054E+02  0.14105562742E+02  0.23648496649E+02  0.34507499617E+02  0.00000000000E+00 0. -1.
</event>
<event>
 5    1  0.8778488E-005  0.9118800E+02  0.7818608E-02  0.1130116E+00
         25   -1    0    0    0    0  0.00000000000E+00  0.00000000000E+00  0.99999998245E-14  0.12500000000E+03  0.12500000000E+03 0.  0.
        -11    1    3    3    0    0  0.10798651703E+02  0.19467308475E+02 -0.15652675130E+02  0.27213842376E+02  0.51100000000E-03 0.  1.
         23    2    1    0    0    0  0.29414219339E+02 -0.20166391437E+02  0.20382631463E+02  0.83922861489E+02  0.73182753243E+02 0.  0.
         11    1    3    3    0    0  0.18615567636E+02 -0.39633699912E+02  0.36035306594E+02  0.56709019113E+02  0.51100000000E-03 0. -1.
         22    1    1    0    0    0 -0.29414219339E+02  0.20166391437E+02 -0.20382631463E+02  0.41077138511E+02  0.00000000000E+00 0. -1.
</event>
<event>
 5    1  0.8778488E-005  0.9118800E+02  0.7818608E-02  0.1130116E+00
         25   -1    0    0    0    0  0.00000000000E+00  0.00000000000E+00  0.99999998245E-14  0.12500000000E+03  0.12500000000E+03 0.  0.
        -11    1    3    3    0    0 -0.33777354317E+02 -0.18513016944E+02  0.16431766161E+02  0.41876537589E+02  0.51100000000E-03 0.  1.
         23    2    1    0    0    0 -0.51058376774E+01  0.27106003311E+02  0.47025407728E+01  0.97019312310E+02  0.92896867964E+02 0.  0.
         11    1    3    3    0    0  0.28671516640E+02  0.45619020255E+02 -0.11729225389E+02  0.55142774721E+02  0.51100000000E-03 0. -1.
         22    1    1    0    0    0  0.51058376774E+01 -0.27106003311E+02 -0.47025407728E+01  0.27980687690E+02  0.00000000000E+00 0. -1.
</event>
<event>
 5    1  0.8778488E-005  0.9118800E+02  0.7818608E-02  0.1130116E+00
         25   -1    0    0    0    0  0.00000000000E+00  0.00000000000E+00  0.99999998245E-14  0.12500000000E+03  0.12500000000E+03 0.  0.
        -11    1    3    3    0    0  0.15472408174E+02  0.24743473871E+02 -0.45134454187E+02  0.53747128937E+02  0.51100000000E-03 0. -1.
         23    2    1    0    0    0 -0.13162953034E+02 -0.72959297124E+00 -0.24261347609E+02  0.97388252024E+02  0.93391985770E+02 0.  0.
         11    1    3    3    0    0 -0.28635361208E+02 -0.25473066842E+02  0.20873106579E+02  0.43641123088E+02  0.51100000000E-03 0.  1.
         22    1    1    0    0    0  0.13162953034E+02  0.72959297124E+00  0.24261347609E+02  0.27611747976E+02  0.00000000000E+00 0. -1.
</event>
<event>
 5    1  0.8778488E-005  0.9118800E+02  0.7818608E-02  0.1130116E+00
         25   -1    0    0    0    0  0.00000000000E+00  0.00000000000E+00  0.99999998245E-14  0.12500000000E+03  0.12500000000E+03 0.  0.
        -11    1    3    3    0    0 -0.10960299512E+02 -0.31032426158E+02  0.31196818187E+01  0.33058615421E+02  0.51100000000E-03 0.  1.
         23    2    1    0    0    0 -0.38997182565E+01  0.24556611272E+02  0.21600819648E+02  0.92063236815E+02  0.85969815655E+02 0.  0.
         11    1    3    3    0    0  0.70605812556E+01  0.55589037430E+02  0.18481137830E+02  0.59004621394E+02  0.51100000000E-03 0. -1.
         22    1    1    0    0    0  0.38997182565E+01 -0.24556611272E+02 -0.21600819648E+02  0.32936763185E+02  0.00000000000E+00 0. -1.
</event>
<event>
 5    1  0.8778488E-005  0.9118800E+02  0.7818608E-02  0.1130116E+00
         25   -1    0    0    0    0  0.00000000000E+00  0.00000000000E+00  0.99999998245E-14  0.12500000000E+03  0.12500000000E+03 0.  0.
        -11    1    3    3    0    0  0.43061847500E+02  0.53133268988E+01  0.18457672356E+02  0.47151244118E+02  0.51100000000E-03 0.  1.
         23    2    1    0    0    0  0.51447012485E+01 -0.23641222719E+02  0.17970123068E+02  0.94861972764E+02  0.89947168888E+02 0.  0.
         11    1    3    3    0    0 -0.37917146251E+02 -0.28954549618E+02 -0.48754928779E+00  0.47710728646E+02  0.51100000000E-03 0. -1.
         22    1    1    0    0    0 -0.51447012485E+01  0.23641222719E+02 -0.17970123068E+02  0.30138027236E+02  0.00000000000E+00 0.  1.
</event>
<event>
 5    1  0.8778488E-005  0.9118800E+02  0.7818608E-02  0.1130116E+00
         25   -1    0    0    0    0  0.00000000000E+00  0.00000000000E+00  0.99999998245E-14  0.12500000000E+03  0.12500000000E+03 0.  0.
        -11    1    3    3    0    0 -0.45806820955E+02  0.20001876359E+02 -0.25754171842E+02  0.56228260434E+02  0.51100000000E-03 0.  1.
         23    2    1    0    0    0 -0.13568861427E+02  0.25786373536E+02 -0.39025526032E+01  0.95601343953E+02  0.90968873733E+02 0.  0.
         11    1    3    3    0    0  0.32237959528E+02  0.57844971775E+01  0.21851619239E+02  0.39373083519E+02  0.51100000000E-03 0. -1.
         22    1    1    0    0    0  0.13568861427E+02 -0.25786373536E+02  0.39025526032E+01  0.29398656047E+02  0.00000000000E+00 0.  1.
</event>
<event>
 5    1  0.8778488E-005  0.9118800E+02  0.7818608E-02  0.1130116E+00
         25   -1    0    0    0    0  0.00000000000E+00  0.00000000000E+00  0.99999998245E-14  0.12500000000E+03  0.12500000000E+03 0.  0.
        -11    1    3    3    0    0  0.16186426882E+02  0.42357215873E+02 -0.13163337162E+02  0.47216602983E+02  0.51100000000E-03 0. -1.
         23    2    1    0    0    0 -0.12746398190E+02  0.47576741961E+01 -0.25376522051E+02  0.96206354833E+02  0.91796452591E+02 0.  0.
         11    1    3    3    0    0 -0.28932825072E+02 -0.37599541677E+02 -0.12213184889E+02  0.48989751850E+02  0.51100000000E-03 0.  1.
         22    1    1    0    0    0  0.12746398190E+02 -0.47576741961E+01  0.25376522051E+02  0.28793645167E+02  0.00000000000E+00 0.  1.
</event>
<event>
 5    1  0.8778488E-005  0.9118800E+02  0.7818608E-02  0.1130116E+00
         25   -1    0    0    0    0  0.00000000000E+00  0.00000000000E+00  0.99999998245E-14  0.12500000000E+03  0.12500000000E+03 0.  0.
        -11    1    3    3    0    0  0.31162591728E+02  0.10210056536E+02 -0.89902934759E+01  0.34002613939E+02  0.51100000000E-03 0. -1.
         23    2    1    0    0    0 -0.18429981778E+02 -0.23931994243E+02 -0.64469651687E+00  0.94787085371E+02  0.89843037252E+02 0.  0.
         11    1    3    3    0    0 -0.49592573506E+02 -0.34142050779E+02  0.83455969590E+01  0.60784471431E+02  0.51100000000E-03 0.  1.
         22    1    1    0    0    0  0.18429981778E+02  0.23931994243E+02  0.64469651687E+00  0.30212914629E+02  0.00000000000E+00 0.  1.
</event>
<event>
 5    1  0.8778488E-005  0.9118800E+02  0.7818608E-02  0.1130116E+00
         25   -1    0    0    0    0  0.00000000000E+00  0.00000000000E+00  0.99999998245E-14  0.12500000000E+03  0.12500000000E+03 0.  0.
        -11    1    3    3    0    0  0.37492868068E+02 -0.39890090619E+02 -0.23669095734E+02  0.59641936410E+02  0.51100000000E-03 0.  1.
         23    2    1    0    0    0  0.19918426398E+02 -0.20862672783E+02  0.19714935753E+01  0.96088382738E+02  0.91635668189E+02 0.  0.
         11    1    3    3    0    0 -0.17574441671E+02  0.19027417836E+02  0.25640589310E+02  0.36446446328E+02  0.51100000000E-03 0. -1.
         22    1    1    0    0    0 -0.19918426398E+02  0.20862672783E+02 -0.19714935753E+01  0.28911617262E+02  0.00000000000E+00 0.  1.
</event>
<event>
 5    1  0.8778488E-005  0.9118800E+02  0.7818608E-02  0.1130116E+00
         25   -1    0    0    0    0  0.00000000000E+00  0.00000000000E+00  0.99999998245E-14  0.12500000000E+03  0.12500000000E+03 0.  0.
        -11    1    3    3    0    0 -0.34360044042E+01 -0.13428408432E+02 -0.46652991570E+02  0.48668572015E+02  0.51100000000E-03 0. -1.
         23    2    1    0    0    0  0.17078378549E+02 -0.29497603272E+02 -0.22829586322E+02  0.83975987223E+02  0.73273438610E+02 0.  0.
         11    1    3    3    0    0  0.20514382953E+02 -0.16069194840E+02  0.23823405248E+02  0.35307415208E+02  0.51100000000E-03 0.  1.
         22    1    1    0    0    0 -0.17078378549E+02  0.29497603272E+02  0.22829586322E+02  0.41024012777E+02  0.00000000000E+00 0. -1.
</event>
<event>
 5    1  0.8778488E-005  0.9118800E+02  0.7818608E-02  0.1130116E+00
         25   -1    0    0    0    0  0.00000000000E+00  0.00000000000E+00  0.99999998245E-14  0.12500000000E+03  0.12500000000E+03 0.  0.
        -11    1    3    3    0    0 -0.11966049356E+02  0.17264976820E+02  0.38099531485E+02  0.43506781786E+02  0.51100000000E-03 0.  1.
         23    2    1    0    0    0  0.22952509025E+02 -0.97089335762E+01  0.29795591295E+01  0.99901019257E+02  0.96696715634E+02 0.  0.
         11    1    3    3    0    0  0.34918558381E+02 -0.26973910396E+02 -0.35119972355E+02  0.56394237471E+02  0.51100000000E-03 0. -1.
         22    1    1    0    0    0 -0.22952509025E+02  0.97089335762E+01 -0.29795591295E+01  0.25098980743E+02  0.00000000000E+00 0. -1.
</event>
<event>
 5    1  0.8778488E-005  0.9118800E+02  0.7818608E-02  0.1130116E+00
         25   -1    0    0    0    0  0.00000000000E+00  0.00000000000E+00  0.99999998245E-14  0.12500000000E+03  0.12500000000E+03 0.  0.
        -11    1    3    3    0    0  0.34627164164E+02 -0.54653729286E+01  0.19739435209E+02  0.40231282628E+02  0.51100000000E-03 0.  1.
         23    2    1    0    0    0 -0.18355346045E+02  0.50851877254E+01 -0.11612417174E+02  0.10269246550E+03  0.10024029318E+03 0.  0.
         11    1    3    3    0    0 -0.52982510209E+02  0.10550560654E+02 -0.31351852383E+02  0.62461182876E+02  0.51100000000E-03 0. -1.
         22    1    1    0    0    0  0.18355346045E+02 -0.50851877254E+01  0.11612417174E+02  0.22307534496E+02  0.00000000000E+00 0. -1.
</event>
<event>
 5    1  0.8778488E-005  0.9118800E+02  0.7818608E-02  0.1130116E+00
         25   -1    0    0    0    0  0.00000000000E+00  0.00000000000E+00  0.99999998245E-14  0.12500000000E+03  0.12500000000E+03 0.  0.
        -11    1    3    3    0    0 -0.19749120473E+02 -0.42537953238E+02 -0.28557385982E+02  0.54909284456E+02  0.51100000000E-03 0. -1.
         23    2    1    0    0    0 -0.96793053643E+00 -0.33358404436E+02  0.15835834824E+01  0.91590004898E+02  0.85278961207E+02 0.  0.
         11    1    3    3    0    0  0.18781189936E+02  0.91795488016E+01  0.30140969464E+02  0.36680720442E+02  0.51100000000E-03 0.  1.
         22    1    1    0    0    0  0.96793053643E+00  0.33358404436E+02 -0.15835834824E+01  0.33409995102E+02  0.00000000000E+00 0. -1.
</event>
<event>
 5    1  0.8778488E-005  0.9118800E+02  0.7818608E-02  0.1130116E+00
         25   -1    0    0    0    0  0.00000000000E+00  0.00000000000E+00  0.99999998245E-14  0.12500000000E+03  0.12500000000E+03 0.  0.
        -11    1    3    3    0    0 -0.25349911946E+02  0.12830185661E+02  0.50909013164E+02  0.58300594519E+02  0.51100000000E-03 0.  1.
         23    2    1    0    0    0 -0.11561613740E+02  0.22180835061E+02  0.21894121692E+02  0.91758265374E+02  0.85525238050E+02 0.  0.
         11    1    3    3    0    0  0.13788298205E+02  0.93506494006E+01 -0.29014891472E+02  0.33457670855E+02  0.51100000000E-03 0. -1.
         22    1    1    0    0    0  0.11561613740E+02 -0.22180835061E+02 -0.21894121692E+02  0.33241734626E+02  0.00000000000E+00 0.  1.
</event>
<event>
 5    1  0.8778488E-005  0.9118800E+02  0.7818608E-02  0.1130116E+00
         25   -1    0    0    0    0  0.00000000000E+00  0.00000000000E+00  0.99999998245E-14  0.12500000000E+03  0.12500000000E+03 0.  0.
        -11    1    3    3    0    0 -0.40019493536E+02  0.10026940807E+02 -0.58383696605E+01  0.41667564908E+02  0.51100000000E-03 0.  1.
         23    2    1    0    0    0 -0.73752287470E+00  0.10507183603E+02  0.28982247935E+02  0.94163081499E+02  0.88970615232E+02 0.  0.
         11    1    3    3    0    0  0.39281970661E+02  0.48024279643E+00  0.34820617595E+02  0.52495516591E+02  0.51100000000E-03 0. -1.
         22    1    1    0    0    0  0.73752287470E+00 -0.10507183603E+02 -0.28982247935E+02  0.30836918501E+02  0.00000000000E+00 0. -1.
</event>
<event>
 5    1  0.8778488E-005  0.9118800E+02  0.7818608E-02  0.1130116E+00
         25   -1    0    0    0    0  0.00000000000E+00  0.00000000000E+00  0.99999998245E-14  0.12500000000E+03  0.12500000000E+03 0.  0.
        -11    1    3    3    0    0  0.19030050506E+01  0.21770820182E+02  0.54204477519E+02  0.58444122228E+02  0.51100000000E-03 0.  1.
         23    2    1    0    0    0  0.58470238946E+01 -0.48706438880E+01  0.27863516891E+02  0.96115983073E+02  0.91673310011E+02 0.  0.
         11    1    3    3    0    0  0.39440188440E+01 -0.26641464070E+02 -0.26340960629E+02  0.37671860845E+02  0.51100000000E-03 0. -1.
         22    1    1    0    0    0 -0.58470238946E+01  0.48706438880E+01 -0.27863516891E+02  0.28884016927E+02  0.00000000000E+00 0. -1.
</event>
<event>
 5    1  0.8778488E-005  0.9118800E+02  0.7818608E-02  0.1130116E+00
         25   -1    0    0    0    0  0.00000000000E+00  0.00000000000E+00  0.99999998245E-14  0.12500000000E+03  0.12500000000E+03 0.  0.
        -11    1    3    3    0    0 -0.45834360989E+01 -0.58898257049E+02 -0.16703724345E+02  0.61392401624E+02  0.51100000000E-03 0.  1.
         23    2    1    0    0    0 -0.48716286117E+01 -0.25957101407E+02 -0.15543391507E+02  0.94355246806E+02  0.89240191066E+02 0.  0.
         11    1    3    3    0    0 -0.28819251279E+00  0.32941155642E+02  0.11603328382E+01  0.32962845182E+02  0.51100000000E-03 0. -1.
         22    1    1    0    0    0  0.48716286117E+01  0.25957101407E+02  0.15543391507E+02  0.30644753194E+02  0.00000000000E+00 0.  1.
</event>
<event>
 5    1  0.8778488E-005  0.9118800E+02  0.7818608E-02  0.1130116E+00
         25   -1    0    0    0    0  0.00000000000E+00  0.00000000000E+00  0.99999998245E-14  0.12500000000E+03  0.12500000000E+03 0.  0.
        -11    1    3    3    0    0  0.16408329352E+02 -0.20001030111E+02  0.31025441446E+02  0.40396194063E+02  0.51100000000E-03 0.  1.
         23    2    1    0    0    0 -0.24911326561E+02 -0.15800402337E+02 -0.46360416832E+01  0.95138322426E+02  0.90330396913E+02 0.  0.
         11    1    3    3    0    0 -0.41319655913E+02  0.42006277745E+01 -0.35661483129E+02  0.54742128363E+02  0.51100000000E-03 0. -1.
         22    1    1    0    0    0  0.24911326561E+02  0.15800402337E+02  0.46360416832E+01  0.29861677574E+02  0.00000000000E+00 0. -1.
</event>
<event>
 5    1  0.8778488E-005  0.9118800E+02  0.7818608E-02  0.1130116E+00
         25   -1    0    0    0    0  0.00000000000E+00  0.00000000000E+00  0.99999998245E-14  0.12500000000E+03  0.12500000000E+03 0.  0.
        -11    1    3    3    0    0 -0.14825915752E+01  0.75444002217E+01 -0.36026369390E+02  0.36837689180E+02  0.51100000000E-03 0. -1.
         23    2    1    0    0    0  0.10245671861E+02  0.12373339569E+02  0.22851823292E+02  0.97066522742E+02  0.92960371586E+02 0.  0.
         11    1    3    3    0    0  0.11728263437E+02  0.48289393474E+01  0.58878192681E+02  0.60228833561E+02  0.51100000000E-03 0.  1.
         22    1    1    0    0    0 -0.10245671861E+02 -0.12373339569E+02 -0.22851823292E+02  0.27933477258E+02  0.00000000000E+00 0.  1.
</event>
<event>
 5    1  0.8778488E-005  0.9118800E+02  0.7818608E-02  0.1130116E+00
         25   -1    0    0    0    0  0.00000000000E+00  0.00000000000E+00  0.99999998245E-14  0.12500000000E+03  0.12500000000E+03 0.  0.
        -11    1    3    3    0    0 -0.33070242828E+02  0.20693806875E+02  0.21311620521E+01  0.39069380026E+02  0.51100000000E-03 0. -1.
         23    2    1    0    0    0  0.38064850425E+01 -0.11534329673E+02  0.28016203684E+02  0.94464156173E+02  0.89392611793E+02 0.  0.
         11    1    3    3    0    0  0.36876727870E+02 -0.32228136548E+02  0.25885041632E+02  0.55394776147E+02  0.51100000000E-03 0.  1.
         22    1    1    0    0    0 -0.38064850425E+01  0.11534329673E+02 -0.28016203684E+02  0.30535843827E+02  0.00000000000E+00 0.  1.
</event>
<event>
 5    1  0.8778488E-005  0.9118800E+02  0.7818608E-02  0.1130116E+00
         25   -1    0    0    0    0  0.00000000000E+00  0.00000000000E+00  0.99999998245E-14  0.12500000000E+03  0.12500000000E+03 0.  0.
        -11    1    3    3    0    0 -0.25962831267E+02  0.43109164490E+02  0.28321870227E+02  0.57745969590E+02  0.51100000000E-03 0. -1.
         23    2    1    0    0    0 -0.19419244051E+02  0.53989345038E+01  0.19354658512E+02  0.97056157397E+02  0.92946432687E+02 0.  0.
         11    1    3    3    0    0  0.65435872162E+01 -0.37710229986E+02 -0.89672117155E+01  0.39310187808E+02  0.51100000000E-03 0.  1.
         22    1    1    0    0    0  0.19419244051E+02 -0.53989345038E+01 -0.19354658512E+02  0.27943842603E+02  0.00000000000E+00 0. -1.
</event>
<event>
 5    1  0.8778488E-005  0.9118800E+02  0.7818608E-02  0.1130116E+00
         25   -1    0    0    0    0  0.00000000000E+00  0.00000000000E+00  0.99999998245E-14  0.12500000000E+03  0.12500000000E+03 0.  0.
        -11    1    3    3    0    0  0.21584284391E+02  0.31011722580E+02 -0.18771877355E+02  0.42189947259E+02  0.51100000000E-03 0. -1.
         23    2    1    0    0    0 -0.24772725601E+02  0.53805801467E+01 -0.15553454792E+02  0.95258639366E+02  0.90496739397E+02 0.  0.
         11    1    3    3    0    0 -0.46357009992E+02 -0.25631142434E+02  0.32184225626E+01  0.53068692106E+02  0.51100000000E-03 0.  1.
         22    1    1    0    0    0  0.24772725601E+02 -0.53805801467E+01  0.15553454792E+02  0.29741360634E+02  0.00000000000E+00 0.  1.
</event>
<event>
 5    1  0.8778488E-005  0.9118800E+02  0.7818608E-02  0.1130116E+00
         25   -1    0    0    0    0  0.00000000000E+00  0.00000000000E+00  0.99999998245E-14  0.12500000000E+03  0.12500000000E+03 0.  0.
        -11    1    3    3    0    0  0.45433204781E+02 -0.93062198530E+01 -0.38205749253E+02  0.60087112602E+02  0.51100000000E-03 0. -1.
         23    2    1    0    0    0  0.25170227879E+02  0.59747567452E+00 -0.64984909205E+01  0.98997543714E+02  0.95521651621E+02 0.  0.
         11    1    3    3    0    0 -0.20262976902E+02  0.99036955275E+01  0.31707258333E+02  0.38910431111E+02  0.51100000000E-03 0.  1.
         22    1    1    0    0    0 -0.25170227879E+02 -0.59747567452E+00  0.64984909205E+01  0.26002456286E+02  0.00000000000E+00 0. -1.
</event>
<event>
 5    1  0.8778488E-005  0.9118800E+02  0.7818608E-02  0.1130116E+00
         25   -1    0    0    0    0  0.00000000000E+00  0.00000000000E+00  0.99999998245E-14  0.12500000000E+03  0.12500000000E+03 0.  0.
        -11    1    3    3    0    0  0.17388589959E+02  0.32769604525E+02  0.94739413868E+01  0.38287930306E+02  0.51100000000E-03 0.  1.
         23    2    1    0    0    0 -0.65575209289E+01 -0.57627348828E+01 -0.27079163813E+02  0.96548439289E+02  0.92261095930E+02 0.  0.
         11    1    3    3    0    0 -0.23946110888E+02 -0.38532339408E+02 -0.36553105200E+02  0.58260508983E+02  0.51100000000E-03 0. -1.
         22    1    1    0    0    0  0.65575209289E+01  0.57627348828E+01  0.27079163813E+02  0.28451560711E+02  0.00000000000E+00 0. -1.
</event>
<event>
 5    1  0.8778488E-005  0.9118800E+02  0.7818608E-02  0.1130116E+00
         25   -1    0    0    0    0  0.00000000000E+00  0.00000000000E+00  0.99999998245E-14  0.12500000000E+03  0.12500000000E+03 0.  0.
        -11    1    3    3    0    0  0.32400053735E+02  0.34003078717E+02 -0.11659280785E+02  0.48393301943E+02  0.51100000000E-03 0. -1.
         23    2    1    0    0    0 -0.74115268103E+01  0.14294535888E+02 -0.25429484640E+02  0.94901442311E+02  0.90002003187E+02 0.  0.
         11    1    3    3    0    0 -0.39811580546E+02 -0.19708542829E+02 -0.13770203855E+02  0.46508140368E+02  0.51100000000E-03 0.  1.
         22    1    1    0    0    0  0.74115268103E+01 -0.14294535888E+02  0.25429484640E+02  0.30098557689E+02  0.00000000000E+00 0. -1.
</event>
<event>
 5    1  0.8778488E-005  0.9118800E+02  0.7818608E-02  0.1130116E+00
         25   -1    0    0    0    0  0.00000000000E+00  0.00000000000E+00  0.99999998245E-14  0.12500000000E+03  0.12500000000E+03 0.  0.
        -11    1    3    3    0    0  0.16350813000E+02  0.34751826136E+02  0.18666751196E+02  0.42702296262E+02  0.51100000000E-03 0.  1.
         23    2    1    0    0    0 -0.27180083033E+02  0.55765586937E+01  0.67963454182E+01  0.96433494586E+02  0.92105231374E+02 0.  0.
         11    1    3    3    0    0 -0.43530896033E+02 -0.29175267442E+02 -0.11870405778E+02  0.53731198324E+02  0.51100000000E-03 0. -1.
         22    1    1    0    0    0  0.27180083033E+02 -0.55765586937E+01 -0.67963454182E+01  0.28566505414E+02  0.00000000000E+00 0. -1.
</event>
<event>
 5    1  0.8778488E-005  0.9118800E+02  0.7818608E-02  0.1130116E+00
         25   -1    0    0    0    0  0.00000000000E+00  0.00000000000E+00  0.99999998245E-14  0.12500000000E+03  0.12500000000E+03 0.  0.
        -11    1    3    3    0    0  0.27321112116E+02 -0.10229295961E+02 -0.40429330420E+02  0.49855916616E+02  0.51100000000E-03 0.  1.
         23    2    1    0    0    0 -0.51691552591E+01  0.17126286745E+02 -0.23232190288E+02  0.95678258419E+02  0.91074500299E+02 0.  0.
         11    1    3    3    0    0 -0.32490267375E+02  0.27355582706E+02  0.17197140132E+02  0.45822341803E+02  0.51100000000E-03 0. -1.
         22    1    1    0    0    0  0.51691552591E+01 -0.17126286745E+02  0.23232190288E+02  0.29321741581E+02  0.00000000000E+00 0. -1.
</event>
<event>
 5    1  0.8778488E-005  0.9118800E+02  0.7818608E-02  0.1130116E+00
         25   -1    0    0    0    0  0.00000000000E+00  0.00000000000E+00  0.99999998245E-14  0.12500000000E+03  0.12500000000E+03 0.  0.
        -11    1    3    3    0    0  0.41501411058E+01  0.30677355455E+00 -0.29383603458E+02  0.29676824858E+02  0.51100000000E-03 0.  1.
         23    2    1    0    0    0  0.14446734901E+02  0.37430385414E+02  0.88066230488E+01  0.83923260706E+02  0.73183435123E+02 0.  0.
         11    1    3    3    0    0  0.10296593796E+02  0.37123611859E+02  0.38190226507E+02  0.54246435848E+02  0.51100000000E-03 0. -1.
         22    1    1    0    0    0 -0.14446734901E+02 -0.37430385414E+02 -0.88066230488E+01  0.41076739294E+02  0.00000000000E+00 0. -1.
</event>
<event>
 5    1  0.8778488E-005  0.9118800E+02  0.7818608E-02  0.1130116E+00
         25   -1    0    0    0    0  0.00000000000E+00  0.00000000000E+00  0.99999998245E-14  0.12500000000E+03  0.12500000000E+03 0.  0.
        -11    1    3    3    0    0 -0.16814858815E+02  0.77313530939E+01 -0.53060468135E+02  0.56195431990E+02  0.51100000000E-03 0.  1.
         23    2    1    0    0    0 -0.23135503266E+02 -0.69554438220E+01 -0.17549325232E+02  0.95140185429E+02  0.90332974916E+02 0.  0.
         11    1    3    3    0    0 -0.63206444509E+01 -0.14686796916E+02  0.35511142902E+02  0.38944753439E+02  0.51100000000E-03 0. -1.
         22    1    1    0    0    0  0.23135503266E+02  0.69554438220E+01  0.17549325232E+02  0.29859814571E+02  0.00000000000E+00 0.  1.
</event>
<event>
 5    1  0.8778488E-005  0.9118800E+02  0.7818608E-02  0.1130116E+00
         25   -1    0    0    0    0  0.00000000000E+00  0.00000000000E+00  0.99999998245E-14  0.12500000000E+03  0.12500000000E+03 0.  0.
        -11    1    3    3    0    0  0.38637418212E+02 -0.31938680985E+02  0.89201559517E+01  0.50916584839E+02  0.51100000000E-03 0. -1.
         23    2    1    0    0    0  0.26490053362E+02  0.99768376797E+01 -0.39598312775E+01  0.96417829317E+02  0.92083968904E+02 0.  0.
         11    1    3    3    0    0 -0.12147364850E+02  0.41915518665E+02 -0.12879987229E+02  0.45501244478E+02  0.51100000000E-03 0.  1.
         22    1    1    0    0    0 -0.26490053362E+02 -0.99768376797E+01  0.39598312775E+01  0.28582170683E+02  0.00000000000E+00 0. -1.
</event>
<event>
 5    1  0.8778488E-005  0.9118800E+02  0.7818608E-02  0.1130116E+00
         25   -1    0    0    0    0  0.00000000000E+00  0.00000000000E+00  0.99999998245E-14  0.12500000000E+03  0.12500000000E+03 0.  0.
        -11    1    3    3    0    0 -0.23193189906E+02 -0.46412152020E+02 -0.72927940346E+01  0.52394625280E+02  0.51100000000E-03 0. -1.
         23    2    1    0    0    0 -0.13530874086E+02 -0.83669653891E+01 -0.24928787905E+02  0.95427459870E+02  0.90729625632E+02 0.  0.
         11    1    3    3    0    0  0.96623158206E+01  0.38045186630E+02 -0.17635993871E+02  0.43032834590E+02  0.51100000000E-03 0.  1.
         22    1    1    0    0    0  0.13530874086E+02  0.83669653891E+01  0.24928787905E+02  0.29572540130E+02  0.00000000000E+00 0. -1.
</event>
<event>
 5    1  0.8778488E-005  0.9118800E+02  0.7818608E-02  0.1130116E+00
         25   -1    0    0    0    0  0.00000000000E+00  0.00000000000E+00  0.99999998245E-14  0.12500000000E+03  0.12500000000E+03 0.  0.
        -11    1    3    3    0    0  0.51259204177E+02 -0.33433151764E+02  0.52629471720E-01  0.61198728908E+02  0.51100000000E-03 0.  1.
         23    2    1    0    0    0  0.26997720297E+02 -0.10831540712E+02 -0.69583835010E+01  0.95089829884E+02  0.90263267562E+02 0.  0.
         11    1    3    3    0    0 -0.24261483880E+02  0.22601611052E+02 -0.70110129727E+01  0.33891100977E+02  0.51100000000E-03 0. -1.
         22    1    1    0    0    0 -0.26997720297E+02  0.10831540712E+02  0.69583835010E+01  0.29910170116E+02  0.00000000000E+00 0.  1.
</event>
<event>
 5    1  0.8778488E-005  0.9118800E+02  0.7818608E-02  0.1130116E+00
         25   -1    0    0    0    0  0.00000000000E+00  0.00000000000E+00  0.99999998245E-14  0.12500000000E+03  0.12500000000E+03 0.  0.
        -11    1    3    3    0    0 -0.19375708438E+02 -0.34259075968E+02  0.45502409662E+02  0.60162876003E+02  0.51100000000E-03 0. -1.
         23    2    1    0    0    0 -0.19400218734E+02 -0.10085177627E+02  0.19013526743E+02  0.96024260253E+02  0.91548157071E+02 0.  0.
         11    1    3    3    0    0 -0.24510296576E-01  0.24173898340E+02 -0.26488882919E+02  0.35861384250E+02  0.51100000000E-03 0.  1.
         22    1    1    0    0    0  0.19400218734E+02  0.10085177627E+02 -0.19013526743E+02  0.28975739747E+02  0.00000000000E+00 0. -1.
</event>
<event>
 5    1  0.8778488E-005  0.9118800E+02  0.7818608E-02  0.1130116E+00
         25   -1    0    0    0    0  0.00000000000E+00  0.00000000000E+00  0.99999998245E-14  0.12500000000E+03  0.12500000000E+03 0.  0.
        -11    1    3    3    0    0  0.13017119754E+02 -0.17692170372E+02 -0.39366949197E+02  0.45080095259E+02  0.51100000000E-03 0. -1.
         23    2    1    0    0    0  0.28879097699E+02  0.68767561298E+01  0.14335399226E+01  0.95278844311E+02  0.90524643484E+02 0.  0.
         11    1    3    3    0    0  0.15861977945E+02  0.24568926502E+02  0.40800489120E+02  0.50198749053E+02  0.51100000000E-03 0.  1.
         22    1    1    0    0    0 -0.28879097699E+02 -0.68767561298E+01 -0.14335399226E+01  0.29721155689E+02  0.00000000000E+00 0.  1.
</event>
<event>
 5    1  0.8778488E-005  0.9118800E+02  0.7818608E-02  0.1130116E+00
         25   -1    0    0    0    0  0.00000000000E+00  0.00000000000E+00  0.99999998245E-14  0.12500000000E+03  0.12500000000E+03 0.  0.
        -11    1    3    3    0    0 -0.58644236235E+01 -0.15688144159E+02  0.52251970761E+02  0.54870554765E+02  0.51100000000E-03 0. -1.
         23    2    1    0    0    0  0.12502036135E+02 -0.21494345151E+02  0.17534949591E+02  0.94573330150E+02  0.89545142456E+02 0.  0.
         11    1    3    3    0    0  0.18366459759E+02 -0.58062009928E+01 -0.34717021170E+02  0.39702775385E+02  0.51100000000E-03 0.  1.
         22    1    1    0    0    0 -0.12502036135E+02  0.21494345151E+02 -0.17534949591E+02  0.30426669850E+02  0.00000000000E+00 0. -1.
</event>
<event>
 5    1  0.8778488E-005  0.9118800E+02  0.7818608E-02  0.1130116E+00
         25   -1    0    0    0    0  0.00000000000E+00  0.00000000000E+00  0.99999998245E-14  0.12500000000E+03  0.12500000000E+03 0.  0.
        -11    1    3    3    0    0 -0.28309802368E+02  0.12472257968E+02 -0.32528089075E+02  0.44889628068E+02  0.51100000000E-03 0.  1.
         23    2    1    0    0    0 -0.20440146369E+02 -0.21037071286E+02  0.43633218329E+01  0.95345379292E+02  0.90616471036E+02 0.  0.
         11    1    3    3    0    0  0.78696559990E+01 -0.33509329255E+02  0.36891410908E+02  0.50455751225E+02  0.51100000000E-03 0. -1.
         22    1    1    0    0    0  0.20440146369E+02  0.21037071286E+02 -0.43633218329E+01  0.29654620708E+02  0.00000000000E+00 0. -1.
</event>
<event>
 5    1  0.8778488E-005  0.9118800E+02  0.7818608E-02  0.1130116E+00
         25   -1    0    0    0    0  0.00000000000E+00  0.00000000000E+00  0.99999998245E-14  0.12500000000E+03  0.12500000000E+03 0.  0.
        -11    1    3    3    0    0  0.23831174840E+02  0.46243865436E+02 -0.14716783920E+02  0.54064810310E+02  0.51100000000E-03 0. -1.
         23    2    1    0    0    0 -0.10392636513E+02  0.28090873090E+02 -0.11420146897E+02  0.92944987915E+02  0.87242460870E+02 0.  0.
         11    1    3    3    0    0 -0.34223811353E+02 -0.18152992346E+02  0.32966370233E+01  0.38880177604E+02  0.51100000000E-03 0.  1.
         22    1    1    0    0    0  0.10392636513E+02 -0.28090873090E+02  0.11420146897E+02  0.32055012085E+02  0.00000000000E+00 0. -1.
</event>
<event>
 5    1  0.8778488E-005  0.9118800E+02  0.7818608E-02  0.1130116E+00
         25   -1    0    0    0    0  0.00000000000E+00  0.00000000000E+00  0.99999998245E-14  0.12500000000E+03  0.12500000000E+03 0.  0.
        -11    1    3    3    0    0 -0.48686407434E+02  0.12478310846E+02  0.25868372364E+02  0.56526517666E+02  0.51100000000E-03 0. -1.
         23    2    1    0    0    0 -0.10340058677E+02  0.34160876714E+01  0.26938524115E+02  0.95943665925E+02  0.91438047230E+02 0.  0.
         11    1    3    3    0    0  0.38346348756E+02 -0.90622231747E+01  0.10701517502E+01  0.39417148259E+02  0.51100000000E-03 0.  1.
         22    1    1    0    0    0  0.10340058677E+02 -0.34160876714E+01 -0.26938524115E+02  0.29056334075E+02  0.00000000000E+00 0. -1.
</event>
<event>
 5    1  0.8778488E-005  0.9118800E+02  0.7818608E-02  0.1130116E+00
         25   -1    0    0    0    0  0.00000000000E+00  0.00000000000E+00  0.99999998245E-14  0.12500000000E+03  0.12500000000E+03 0.  0.
        -11    1    3    3    0    0  0.13468466445E+02 -0.31830364761E+02 -0.91561939119E+01  0.35754826197E+02  0.51100000000E-03 0.  1.
         23    2    1    0    0    0  0.11719723971E+01  0.16939118083E+02  0.23710206181E+02  0.95836990589E+02  0.91292100684E+02 0.  0.
         11    1    3    3    0    0 -0.12296494048E+02  0.48769482844E+02  0.32866400093E+02  0.60082164392E+02  0.51100000000E-03 0. -1.
         22    1    1    0    0    0 -0.11719723971E+01 -0.16939118083E+02 -0.23710206181E+02  0.29163009411E+02  0.00000000000E+00 0. -1.
</event>
<event>
 5    1  0.8778488E-005  0.9118800E+02  0.7818608E-02  0.1130116E+00
         25   -1    0    0    0    0  0.00000000000E+00  0.00000000000E+00  0.99999998245E-14  0.12500000000E+03  0.12500000000E+03 0.  0.
        -11    1    3    3    0    0 -0.39200359840E+02  0.27180599377E+02  0.29641030880E+02  0.56160875225E+02  0.51100000000E-03 0. -1.
         23    2    1    0    0    0 -0.34795310631E+02  0.36002156291E+01  0.66407394502E+01  0.89394177233E+02  0.81997221344E+02 0.  0.
         11    1    3    3    0    0  0.44050492093E+01 -0.23580383748E+02 -0.23000291430E+02  0.33233302008E+02  0.51100000000E-03 0.  1.
         22    1    1    0    0    0  0.34795310631E+02 -0.36002156291E+01 -0.66407394502E+01  0.35605822767E+02  0.00000000000E+00 0. -1.
</event>
<event>
 5    1  0.8778488E-005  0.9118800E+02  0.7818608E-02  0.1130116E+00
         25   -1    0    0    0    0  0.00000000000E+00  0.00000000000E+00  0.99999998245E-14  0.12500000000E+03  0.12500000000E+03 0.  0.
        -11    1    3    3    0    0 -0.45254759266E+02 -0.60129914914E+01  0.28105656726E+02  0.53610421032E+02  0.51100000000E-03 0. -1.
         23    2    1    0    0    0 -0.12176681982E+02 -0.24737386688E+02  0.10553454134E+02  0.95477376837E+02  0.90798371182E+02 0.  0.
         11    1    3    3    0    0  0.33078077284E+02 -0.18724395197E+02 -0.17552202592E+02  0.41866955805E+02  0.51100000000E-03 0.  1.
         22    1    1    0    0    0  0.12176681982E+02  0.24737386688E+02 -0.10553454134E+02  0.29522623163E+02  0.00000000000E+00 0. -1.
</event>
<event>
 5    1  0.8778488E-005  0.9118800E+02  0.7818608E-02  0.1130116E+00
         25   -1    0    0    0    0  0.00000000000E+00  0.00000000000E+00  0.99999998245E-14  0.12500000000E+03  0.12500000000E+03 0.  0.
        -11    1    3    3    0    0  0.46442786829E+02 -0.51029227144E+01  0.11314137366E+02  0.48072673873E+02  0.51100000000E-03 0.  1.
         23    2    1    0    0    0  0.47796833786E+01  0.64114380815E+01  0.29105488727E+02  0.94815875273E+02  0.89883084161E+02 0.  0.
         11    1    3    3    0    0 -0.41663103450E+02  0.11514360796E+02  0.17791351361E+02  0.46743201401E+02  0.51100000000E-03 0. -1.
         22    1    1    0    0    0 -0.47796833786E+01 -0.64114380815E+01 -0.29105488727E+02  0.30184124727E+02  0.00000000000E+00 0.  1.
</event>
<event>
 5    1  0.8778488E-005  0.9118800E+02  0.7818608E-02  0.1130116E+00
         25   -1    0    0    0    0  0.00000000000E+00  0.00000000000E+00  0.99999998245E-14  0.12500000000E+03  0.12500000000E+03 0.  0.
        -11    1    3    3    0    0  0.51417399677E+02 -0.85041094777E+00 -0.25500682919E+02  0.57399974024E+02  0.51100000000E-03 0.  1.
         23    2    1    0    0    0  0.25036420949E+02 -0.17148181129E+02 -0.58966636625E+01  0.94086360093E+02  0.88862759484E+02 0.  0.
         11    1    3    3    0    0 -0.26380978728E+02 -0.16297770181E+02  0.19604019256E+02  0.36686386069E+02  0.51100000000E-03 0. -1.
         22    1    1    0    0    0 -0.25036420949E+02  0.17148181129E+02  0.58966636625E+01  0.30913639907E+02  0.00000000000E+00 0.  1.
</event>
<event>
 5    1  0.8778488E-005  0.9118800E+02  0.7818608E-02  0.1130116E+00
         25   -1    0    0    0    0  0.00000000000E+00  0.00000000000E+00  0.99999998245E-14  0.12500000000E+03  0.12500000000E+03 0.  0.
        -11    1    3    3    0    0  0.20799442610E+02  0.33288825395E+02 -0.39991236431E+02  0.56036253449E+02  0.51100000000E-03 0. -1.
         23    2    1    0    0    0 -0.47343616158E+01  0.28166069778E+02 -0.12753210957E+02  0.93720836707E+02  0.88347094897E+02 0.  0.
         11    1    3    3    0    0 -0.25533804226E+02 -0.51227556169E+01  0.27238025474E+02  0.37684583258E+02  0.51100000000E-03 0.  1.
         22    1    1    0    0    0  0.47343616158E+01 -0.28166069778E+02  0.12753210957E+02  0.31279163293E+02  0.00000000000E+00 0. -1.
</event>
<event>
 5    1  0.8778488E-005  0.9118800E+02  0.7818608E-02  0.1130116E+00
         25   -1    0    0    0    0  0.00000000000E+00  0.00000000000E+00  0.99999998245E-14  0.12500000000E+03  0.12500000000E+03 0.  0.
        -11    1    3    3    0    0 -0.49556138932E+02 -0.27831882723E+02  0.25949137990E+02  0.62480255797E+02  0.51100000000E-03 0.  1.
         23    2    1    0    0    0 -0.23001745502E+02 -0.14002161827E+02  0.12926348728E+02  0.95129758564E+02  0.90318545389E+02 0.  0.
         11    1    3    3    0    0  0.26554393430E+02  0.13829720897E+02 -0.13022789262E+02  0.32649502767E+02  0.51100000000E-03 0. -1.
         22    1    1    0    0    0  0.23001745502E+02  0.14002161827E+02 -0.12926348728E+02  0.29870241436E+02  0.00000000000E+00 0.  1.
</event>
<event>
 5    1  0.8778488E-005  0.9118800E+02  0.7818608E-02  0.1130116E+00
         25   -1    0    0    0    0  0.00000000000E+00  0.00000000000E+00  0.99999998245E-14  0.12500000000E+03  0.12500000000E+03 0.  0.
        -11    1    3    3    0    0 -0.38701712207E+02 -0.32270520061E+02  0.28861714776E+02  0.58070711833E+02  0.51100000000E-03 0.  1.
         23    2    1    0    0    0 -0.36052713846E+02 -0.13373777612E+02  0.92163455310E+01  0.85457653987E+02  0.75758916946E+02 0.  0.
         11    1    3    3    0    0  0.26489983613E+01  0.18896742450E+02 -0.19645369245E+02  0.27386942154E+02  0.51100000000E-03 0. -1.
         22    1    1    0    0    0  0.36052713846E+02  0.13373777612E+02 -0.92163455310E+01  0.39542346013E+02  0.00000000000E+00 0.  1.
</event>
<event>
 5    1  0.8778488E-005  0.9118800E+02  0.7818608E-02  0.1130116E+00
         25   -1    0    0    0    0  0.00000000000E+00  0.00000000000E+00  0.99999998245E-14  0.12500000000E+03  0.12500000000E+03 0.  0.
        -11    1    3    3    0    0  0.48105310422E+01 -0.65487783419E+01 -0.35263512285E+02  0.36187608454E+02  0.51100000000E-03 0.  1.
         23    2    1    0    0    0 -0.21157618385E+02  0.16507908282E+02  0.12625530641E+02  0.95342625276E+02  0.90612671956E+02 0.  0.
         11    1    3    3    0    0 -0.25968149427E+02  0.23056686624E+02  0.47889042925E+02  0.59155016823E+02  0.51100000000E-03 0. -1.
         22    1    1    0    0    0  0.21157618385E+02 -0.16507908282E+02 -0.12625530641E+02  0.29657374724E+02  0.00000000000E+00 0. -1.
</event>
<event>
 5    1  0.8778488E-005  0.9118800E+02  0.7818608E-02  0.1130116E+00
         25   -1    0    0    0    0  0.00000000000E+00  0.00000000000E+00  0.99999998245E-14  0.12500000000E+03  0.12500000000E+03 0.  0.
        -11    1    3    3    0    0 -0.30748805008E+02  0.24552104050E+02  0.13245048106E+02  0.41517780797E+02  0.51100000000E-03 0. -1.
         23    2    1    0    0    0 -0.14951916559E+02 -0.24517896621E+02 -0.42802744684E+01  0.95965403170E+02  0.91467758214E+02 0.  0.
         11    1    3    3    0    0  0.15796888449E+02 -0.49070000671E+02 -0.17525322575E+02  0.54447622374E+02  0.51100000000E-03 0.  1.
         22    1    1    0    0    0  0.14951916559E+02  0.24517896621E+02  0.42802744684E+01  0.29034596830E+02  0.00000000000E+00 0.  1.
</event>
<event>
 5    1  0.8778488E-005  0.9118800E+02  0.7818608E-02  0.1130116E+00
         25   -1    0    0    0    0  0.00000000000E+00  0.00000000000E+00  0.99999998245E-14  0.12500000000E+03  0.12500000000E+03 0.  0.
        -11    1    3    3    0    0 -0.20831363432E+02 -0.57047509717E+02  0.52999082481E+01  0.60962718895E+02  0.51100000000E-03 0. -1.
         23    2    1    0    0    0 -0.12544490077E+02 -0.23935656835E+02  0.11459246784E+02  0.95647074485E+02  0.91031690204E+02 0.  0.
         11    1    3    3    0    0  0.82868733546E+01  0.33111852882E+02  0.61593385356E+01  0.34684355590E+02  0.51100000000E-03 0.  1.
         22    1    1    0    0    0  0.12544490077E+02  0.23935656835E+02 -0.11459246784E+02  0.29352925515E+02  0.00000000000E+00 0. -1.
</event>
<event>
 5    1  0.8778488E-005  0.9118800E+02  0.7818608E-02  0.1130116E+00
         25   -1    0    0    0    0  0.00000000000E+00  0.00000000000E+00  0.99999998245E-14  0.12500000000E+03  0.12500000000E+03 0.  0.
        -11    1    3    3    0    0 -0.16145729693E+02  0.19374845582E+02 -0.43583761566E+02  0.50354875645E+02  0.51100000000E-03 0. -1.
         23    2    1    0    0    0  0.56336133126E+01 -0.15353287744E+02 -0.24429610813E+02  0.95601582900E+02  0.90969202068E+02 0.  0.
         11    1    3    3    0    0  0.21779343006E+02 -0.34728133326E+02  0.19154150753E+02  0.45246707255E+02  0.51100000000E-03 0.  1.
         22    1    1    0    0    0 -0.56336133126E+01  0.15353287744E+02  0.24429610813E+02  0.29398417100E+02  0.00000000000E+00 0. -1.
</event>
<event>
 5    1  0.8778488E-005  0.9118800E+02  0.7818608E-02  0.1130116E+00
         25   -1    0    0    0    0  0.00000000000E+00  0.00000000000E+00  0.99999998245E-14  0.12500000000E+03  0.12500000000E+03 0.  0.
        -11    1    3    3    0    0 -0.21192320524E+02  0.51955636970E+02 -0.26801915236E+02  0.62183963550E+02  0.51100000000E-03 0. -1.
         23    2    1    0    0    0 -0.14103253647E+02  0.25237282476E+02 -0.10710736532E+02  0.94169137747E+02  0.88979123600E+02 0.  0.
         11    1    3    3    0    0  0.70890668773E+01 -0.26718354494E+02  0.16091178704E+02  0.31985174197E+02  0.51100000000E-03 0.  1.
         22    1    1    0    0    0  0.14103253647E+02 -0.25237282476E+02  0.10710736532E+02  0.30830862253E+02  0.00000000000E+00 0. -1.
</event>
<event>
 5    1  0.8778488E-005  0.9118800E+02  0.7818608E-02  0.1130116E+00
         25   -1    0    0    0    0  0.00000000000E+00  0.00000000000E+00  0.99999998245E-14  0.12500000000E+03  0.12500000000E+03 0.  0.
        -11    1    3    3    0    0 -0.28831792060E+02 -0.44755055244E+02 -0.29597328464E+02  0.60912142104E+02  0.51100000000E-03 0. -1.
         23    2    1    0    0    0 -0.71088819587E+01 -0.27306831892E+02 -0.96521365051E+01  0.95177810110E+02  0.90385023801E+02 0.  0.
         11    1    3    3    0    0  0.21722910101E+02  0.17448223352E+02  0.19945191959E+02  0.34265668006E+02  0.51100000000E-03 0.  1.
         22    1    1    0    0    0  0.71088819587E+01  0.27306831892E+02  0.96521365051E+01  0.29822189890E+02  0.00000000000E+00 0. -1.
</event>
<event>
 5    1  0.8778488E-005  0.9118800E+02  0.7818608E-02  0.1130116E+00
         25   -1    0    0    0    0  0.00000000000E+00  0.00000000000E+00  0.99999998245E-14  0.12500000000E+03  0.12500000000E+03 0.  0.
        -11    1    3    3    0    0 -0.28998670958E+02  0.16050537246E+02  0.17151460281E+02  0.37319100381E+02  0.51100000000E-03 0. -1.
         23    2    1    0    0    0  0.18895288753E+02 -0.16516781754E+02  0.15978236701E+02  0.95248696421E+02  0.90483004511E+02 0.  0.
         11    1    3    3    0    0  0.47893959710E+02 -0.32567319000E+02 -0.11732235791E+01  0.57929596041E+02  0.51100000000E-03 0.  1.
         22    1    1    0    0    0 -0.18895288753E+02  0.16516781754E+02 -0.15978236701E+02  0.29751303579E+02  0.00000000000E+00 0.  1.
</event>
<event>
 5    1  0.8778488E-005  0.9118800E+02  0.7818608E-02  0.1130116E+00
         25   -1    0    0    0    0  0.00000000000E+00  0.00000000000E+00  0.99999998245E-14  0.12500000000E+03  0.12500000000E+03 0.  0.
        -11    1    3    3    0    0  0.37779041020E+02 -0.38185085964E+02 -0.30061203258E+02  0.61555118975E+02  0.51100000000E-03 0.  1.
         23    2    1    0    0    0  0.24993069195E+02 -0.19555396561E+02 -0.24721864229E+02  0.84772675786E+02  0.74620164477E+02 0.  0.
         11    1    3    3    0    0 -0.12785971825E+02  0.18629689403E+02  0.53393390289E+01  0.23217556811E+02  0.51100000000E-03 0. -1.
         22    1    1    0    0    0 -0.24993069195E+02  0.19555396561E+02  0.24721864229E+02  0.40227324214E+02  0.00000000000E+00 0.  1.
</event>
<event>
 5    1  0.8778488E-005  0.9118800E+02  0.7818608E-02  0.1130116E+00
         25   -1    0    0    0    0  0.00000000000E+00  0.00000000000E+00  0.99999998245E-14  0.12500000000E+03  0.12500000000E+03 0.  0.
        -11    1    3    3    0    0 -0.44207379577E+02 -0.29934169177E+02  0.22895576665E+02  0.58090914302E+02  0.51100000000E-03 0. -1.
         23    2    1    0    0    0 -0.80213249313E+01 -0.25090574055E+02  0.10419208520E+02  0.96672655150E+02  0.92429236649E+02 0.  0.
         11    1    3    3    0    0  0.36186054646E+02  0.48435951218E+01 -0.12476368145E+02  0.38581740848E+02  0.51100000000E-03 0.  1.
         22    1    1    0    0    0  0.80213249313E+01  0.25090574055E+02 -0.10419208520E+02  0.28327344850E+02  0.00000000000E+00 0.  1.
</event>
<event>
 5    1  0.8778488E-005  0.9118800E+02  0.7818608E-02  0.1130116E+00
         25   -1    0    0    0    0  0.00000000000E+00  0.00000000000E+00  0.99999998245E-14  0.12500000000E+03  0.12500000000E+03 0.  0.
        -11    1    3    3    0    0  0.48007242291E+02 -0.25424207940E+02 -0.30858650683E+02  0.62476731541E+02  0.51100000000E-03 0. -1.
         23    2    1    0    0    0  0.21551933048E+02 -0.12649605737E+02 -0.13607317233E+02  0.96545520112E+02  0.92257140797E+02 0.  0.
         11    1    3    3    0    0 -0.26455309244E+02  0.12774602203E+02  0.17251333450E+02  0.34068788571E+02  0.51100000000E-03 0.  1.
         22    1    1    0    0    0 -0.21551933048E+02  0.12649605737E+02  0.13607317233E+02  0.28454479888E+02  0.00000000000E+00 0. -1.
</event>
<event>
 5    1  0.8778488E-005  0.9118800E+02  0.7818608E-02  0.1130116E+00
         25   -1    0    0    0    0  0.00000000000E+00  0.00000000000E+00  0.99999998245E-14  0.12500000000E+03  0.12500000000E+03 0.  0.
        -11    1    3    3    0    0  0.19469098714E+02 -0.12489657508E+02 -0.45630614026E+02  0.51158482054E+02  0.51100000000E-03 0.  1.
         23    2    1    0    0    0  0.23482928899E+02 -0.18516450609E+02 -0.23916709785E+01  0.94999550288E+02  0.90138158247E+02 0.  0.
         11    1    3    3    0    0  0.40138301852E+01 -0.60267931012E+01  0.43238943047E+02  0.43841068235E+02  0.51100000000E-03 0. -1.
         22    1    1    0    0    0 -0.23482928899E+02  0.18516450609E+02  0.23916709785E+01  0.30000449712E+02  0.00000000000E+00 0.  1.
</event>
<event>
 5    1  0.8778488E-005  0.9118800E+02  0.7818608E-02  0.1130116E+00
         25   -1    0    0    0    0  0.00000000000E+00  0.00000000000E+00  0.99999998245E-14  0.12500000000E+03  0.12500000000E+03 0.  0.
        -11    1    3    3    0    0 -0.61096821408E+01  0.55147525806E+02 -0.14203074939E+01  0.55503108850E+02  0.51100000000E-03 0. -1.
         23    2    1    0    0    0  0.43618156770E+01  0.23090094788E+02  0.18871695176E+02  0.94861672374E+02  0.89946751433E+02 0.  0.
         11    1    3    3    0    0  0.10471497818E+02 -0.32057431018E+02  0.20292002670E+02  0.39358563524E+02  0.51100000000E-03 0.  1.
         22    1    1    0    0    0 -0.43618156770E+01 -0.23090094788E+02 -0.18871695176E+02  0.30138327626E+02  0.00000000000E+00 0. -1.
</event>
<event>
 5    1  0.8778488E-005  0.9118800E+02  0.7818608E-02  0.1130116E+00
         25   -1    0    0    0    0  0.00000000000E+00  0.00000000000E+00  0.99999998245E-14  0.12500000000E+03  0.12500000000E+03 0.  0.
        -11    1    3    3    0    0 -0.39569221269E+02  0.19043810361E+01 -0.37611809607E+02  0.54625984303E+02  0.51100000000E-03 0.  1.
         23    2    1    0    0    0 -0.26777877065E+02 -0.14651108403E+02 -0.40027732322E+01  0.94214745882E+02  0.89043171948E+02 0.  0.
         11    1    3    3    0    0  0.12791344203E+02 -0.16555489439E+02  0.33609036375E+02  0.39588761579E+02  0.51100000000E-03 0. -1.
         22    1    1    0    0    0  0.26777877065E+02  0.14651108403E+02  0.40027732322E+01  0.30785254118E+02  0.00000000000E+00 0.  1.
</event>
<event>
 5    1  0.8778488E-005  0.9118800E+02  0.7818608E-02  0.1130116E+00
         25   -1    0    0    0    0  0.00000000000E+00  0.00000000000E+00  0.99999998245E-14  0.12500000000E+03  0.12500000000E+03 0.  0.
        -11    1    3    3    0    0 -0.11478849353E+02  0.19163243170E+02  0.46656019036E+02  0.51727922670E+02  0.51100000000E-03 0.  1.
         23    2    1    0    0    0  0.29252576310E+01 -0.15412653454E+02  0.26348049935E+02  0.94335252258E+02  0.89212180023E+02 0.  0.
         11    1    3    3    0    0  0.14404106984E+02 -0.34575896624E+02 -0.20307969100E+02  0.42607329588E+02  0.51100000000E-03 0. -1.
         22    1    1    0    0    0 -0.29252576310E+01  0.15412653454E+02 -0.26348049935E+02  0.30664747742E+02  0.00000000000E+00 0.  1.
</event>
<event>
 5    1  0.8778488E-005  0.9118800E+02  0.7818608E-02  0.1130116E+00
         25   -1    0    0    0    0  0.00000000000E+00  0.00000000000E+00  0.99999998245E-14  0.12500000000E+03  0.12500000000E+03 0.  0.
        -11    1    3    3    0    0 -0.46611273980E+02  0.18513529362E+02  0.16110775580E+02  0.52677497298E+02  0.51100000000E-03 0. -1.
         23    2    1    0    0    0 -0.15353112683E+02  0.10587965886E+02 -0.17620046307E+02  0.99342854358E+02  0.95972462662E+02 0.  0.
         11    1    3    3    0    0  0.31258161298E+02 -0.79255634757E+01 -0.33730821887E+02  0.46665357060E+02  0.51100000000E-03 0.  1.
         22    1    1    0    0    0  0.15353112683E+02 -0.10587965886E+02  0.17620046307E+02  0.25657145642E+02  0.00000000000E+00 0. -1.
</event>
<event>
 5    1  0.8778488E-005  0.9118800E+02  0.7818608E-02  0.1130116E+00
         25   -1    0    0    0    0  0.00000000000E+00  0.00000000000E+00  0.99999998245E-14  0.12500000000E+03  0.12500000000E+03 0.  0.
        -11    1    3    3    0    0  0.12436690613E+02  0.70914731107E+01 -0.58456402763E+02  0.60183978670E+02  0.51100000000E-03 0. -1.
         23    2    1    0    0    0  0.15073706142E+02 -0.41781726940E+01 -0.25824807415E+02  0.94807378022E+02  0.89871266295E+02 0.  0.
         11    1    3    3    0    0  0.26370155288E+01 -0.11269645805E+02  0.32631595348E+02  0.34623399352E+02  0.51100000000E-03 0.  1.
         22    1    1    0    0    0 -0.15073706142E+02  0.41781726940E+01  0.25824807415E+02  0.30192621978E+02  0.00000000000E+00 0. -1.
</event>
<event>
 5    1  0.8778488E-005  0.9118800E+02  0.7818608E-02  0.1130116E+00
         25   -1    0    0    0    0  0.00000000000E+00  0.00000000000E+00  0.99999998245E-14  0.12500000000E+03  0.12500000000E+03 0.  0.
        -11    1    3    3    0    0  0.56720200623E+01  0.19113959195E+02  0.59029554191E+02  0.62305726189E+02  0.51100000000E-03 0.  1.
         23    2    1    0    0    0  0.43792442824E+01  0.56556010049E+01  0.26925334257E+02  0.97140760454E+02  0.93060142454E+02 0.  0.
         11    1    3    3    0    0 -0.12927757799E+01 -0.13458358190E+02 -0.32104219934E+02  0.34835034265E+02  0.51100000000E-03 0. -1.
         22    1    1    0    0    0 -0.43792442824E+01 -0.56556010049E+01 -0.26925334257E+02  0.27859239546E+02  0.00000000000E+00 0.  1.
</event>
<event>
 5    1  0.8778488E-005  0.9118800E+02  0.7818608E-02  0.1130116E+00
         25   -1    0    0    0    0  0.00000000000E+00  0.00000000000E+00  0.99999998245E-14  0.12500000000E+03  0.12500000000E+03 0.  0.
        -11    1    3    3    0    0  0.26198740541E+02  0.13916796686E+02  0.27829586068E+02  0.40676001486E+02  0.51100000000E-03 0. -1.
         23    2    1    0    0    0 -0.99086926270E+01  0.24993425379E+02 -0.11993231502E+02  0.95560382075E+02  0.90912570741E+02 0.  0.
         11    1    3    3    0    0 -0.36107433168E+02  0.11076628693E+02 -0.39822817569E+02  0.54884380589E+02  0.51100000000E-03 0.  1.
         22    1    1    0    0    0  0.99086926270E+01 -0.24993425379E+02  0.11993231502E+02  0.29439617925E+02  0.00000000000E+00 0.  1.
</event>
<event>
 5    1  0.8778488E-005  0.9118800E+02  0.7818608E-02  0.1130116E+00
         25   -1    0    0    0    0  0.00000000000E+00  0.00000000000E+00  0.99999998245E-14  0.12500000000E+03  0.12500000000E+03 0.  0.
        -11    1    3    3    0    0  0.11140553575E+01 -0.10429666110E+02 -0.29450972379E+02  0.31263058533E+02  0.51100000000E-03 0. -1.
         23    2    1    0    0    0  0.92076805508E+01 -0.30179676035E+01  0.30906513702E+02  0.92610154388E+02  0.86761388860E+02 0.  0.
         11    1    3    3    0    0  0.80936251933E+01  0.74116985069E+01  0.60357486081E+02  0.61347095855E+02  0.51100000000E-03 0.  1.
         22    1    1    0    0    0 -0.92076805508E+01  0.30179676035E+01 -0.30906513702E+02  0.32389845612E+02  0.00000000000E+00 0.  1.
</event>
<event>
 5    1  0.8778488E-005  0.9118800E+02  0.7818608E-02  0.1130116E+00
         25   -1    0    0    0    0  0.00000000000E+00  0.00000000000E+00  0.99999998245E-14  0.12500000000E+03  0.12500000000E+03 0.  0.
        -11    1    3    3    0    0  0.23781579988E+01 -0.42543473294E+02  0.26761374072E+02  0.50316735763E+02  0.51100000000E-03 0.  1.
         23    2    1    0    0    0 -0.13833430765E+01 -0.26344550916E+02 -0.14566344454E+02  0.94864847905E+02  0.89951164396E+02 0.  0.
         11    1    3    3    0    0 -0.37615010753E+01  0.16198922377E+02 -0.41327718526E+02  0.44548112142E+02  0.51100000000E-03 0. -1.
         22    1    1    0    0    0  0.13833430765E+01  0.26344550916E+02  0.14566344454E+02  0.30135152095E+02  0.00000000000E+00 0.  1.
</event>
<event>
 5    1  0.8778488E-005  0.9118800E+02  0.7818608E-02  0.1130116E+00
         25   -1    0    0    0    0  0.00000000000E+00  0.00000000000E+00  0.99999998245E-14  0.12500000000E+03  0.12500000000E+03 0.  0.
        -11    1    3    3    0    0 -0.20332331513E+02 -0.30602970371E+02 -0.15766981931E+02  0.39981786100E+02  0.51100000000E-03 0.  1.
         23    2    1    0    0    0  0.27699051030E+02 -0.87524950422E+01  0.25520185181E+01  0.95839129026E+02  0.91295028652E+02 0.  0.
         11    1    3    3    0    0  0.48031382543E+02  0.21850475329E+02  0.18319000449E+02  0.55857342926E+02  0.51100000000E-03 0. -1.
         22    1    1    0    0    0 -0.27699051030E+02  0.87524950422E+01 -0.25520185181E+01  0.29160870974E+02  0.00000000000E+00 0.  1.
</event>
<event>
 5    1  0.8778488E-005  0.9118800E+02  0.7818608E-02  0.1130116E+00
         25   -1    0    0    0    0  0.00000000000E+00  0.00000000000E+00  0.99999998245E-14  0.12500000000E+03  0.12500000000E+03 0.  0.
        -11    1    3    3    0    0  0.17482220133E+02 -0.27158979842E+02 -0.99563397246E+01  0.33798918737E+02  0.51100000000E-03 0.  1.
         23    2    1    0    0    0 -0.19496136696E+02  0.21131992971E+02  0.33303132338E+01  0.96056063516E+02  0.91591571004E+02 0.  0.
         11    1    3    3    0    0 -0.36978356829E+02  0.48290972812E+02  0.13286652958E+02  0.62257144779E+02  0.51100000000E-03 0. -1.
         22    1    1    0    0    0  0.19496136696E+02 -0.21131992971E+02 -0.33303132338E+01  0.28943936484E+02  0.00000000000E+00 0. -1.
</event>
<event>
 5    1  0.8778488E-005  0.9118800E+02  0.7818608E-02  0.1130116E+00
         25   -1    0    0    0    0  0.00000000000E+00  0.00000000000E+00  0.99999998245E-14  0.12500000000E+03  0.12500000000E+03 0.  0.
        -11    1    3    3    0    0  0.29404320135E+01  0.10839998674E+02  0.26488272928E+02  0.28771171590E+02  0.51100000000E-03 0.  1.
         23    2    1    0    0    0  0.10662928946E+02 -0.35139638301E+02 -0.87938680307E+01  0.87239910639E+02  0.78644628931E+02 0.  0.
         11    1    3    3    0    0  0.77224969327E+01 -0.45979636974E+02 -0.35282140959E+02  0.58468739050E+02  0.51100000000E-03 0. -1.
         22    1    1    0    0    0 -0.10662928946E+02  0.35139638301E+02  0.87938680307E+01  0.37760089361E+02  0.00000000000E+00 0. -1.
</event>
<event>
 5    1  0.8778488E-005  0.9118800E+02  0.7818608E-02  0.1130116E+00
         25   -1    0    0    0    0  0.00000000000E+00  0.00000000000E+00  0.99999998245E-14  0.12500000000E+03  0.12500000000E+03 0.  0.
        -11    1    3    3    0    0 -0.40693115608E+02  0.39229862927E+02 -0.17505549139E+02  0.59172257470E+02  0.51100000000E-03 0.  1.
         23    2    1    0    0    0 -0.76237007384E+01  0.27219415632E+02 -0.83066895890E+01  0.95537846443E+02  0.90881580150E+02 0.  0.
         11    1    3    3    0    0  0.33069414870E+02 -0.12010447294E+02  0.91988595497E+01  0.36365588973E+02  0.51100000000E-03 0. -1.
         22    1    1    0    0    0  0.76237007384E+01 -0.27219415632E+02  0.83066895890E+01  0.29462153557E+02  0.00000000000E+00 0.  1.
</event>
<event>
 5    1  0.8778488E-005  0.9118800E+02  0.7818608E-02  0.1130116E+00
         25   -1    0    0    0    0  0.00000000000E+00  0.00000000000E+00  0.99999998245E-14  0.12500000000E+03  0.12500000000E+03 0.  0.
        -11    1    3    3    0    0  0.21625288002E+02 -0.39651587766E+02 -0.88878986732E+01  0.46031470068E+02  0.51100000000E-03 0.  1.
         23    2    1    0    0    0  0.22884123417E+02 -0.12761995252E+02  0.24642457779E+02  0.89030535829E+02  0.81440984505E+02 0.  0.
         11    1    3    3    0    0  0.12588354144E+01  0.26889592514E+02  0.33530356452E+02  0.42999065760E+02  0.51100000000E-03 0. -1.
         22    1    1    0    0    0 -0.22884123417E+02  0.12761995252E+02 -0.24642457779E+02  0.35969464171E+02  0.00000000000E+00 0.  1.
</event>
<event>
 5    1  0.8778488E-005  0.9118800E+02  0.7818608E-02  0.1130116E+00
         25   -1    0    0    0    0  0.00000000000E+00  0.00000000000E+00  0.99999998245E-14  0.12500000000E+03  0.12500000000E+03 0.  0.
        -11    1    3    3    0    0 -0.37141793935E+02  0.31985529764E+02  0.18317793158E+02  0.52327129841E+02  0.51100000000E-03 0.  1.
         23    2    1    0    0    0 -0.22424792648E+02 -0.31673978157E+01  0.25271309757E+02  0.91065609905E+02  0.84506819111E+02 0.  0.
         11    1    3    3    0    0  0.14717001287E+02 -0.35152927580E+02  0.69535165997E+01  0.38738480064E+02  0.51100000000E-03 0. -1.
         22    1    1    0    0    0  0.22424792648E+02  0.31673978157E+01 -0.25271309757E+02  0.33934390095E+02  0.00000000000E+00 0. -1.
</event>
<event>
 5    1  0.8778488E-005  0.9118800E+02  0.7818608E-02  0.1130116E+00
         25   -1    0    0    0    0  0.00000000000E+00  0.00000000000E+00  0.99999998245E-14  0.12500000000E+03  0.12500000000E+03 0.  0.
        -11    1    3    3    0    0  0.26243934832E+02  0.23394518039E+02 -0.89389692430E+01  0.36276063198E+02  0.51100000000E-03 0.  1.
         23    2    1    0    0    0 -0.12932650738E+02 -0.34588200771E+01  0.26348082062E+02  0.95446010087E+02  0.90755179036E+02 0.  0.
         11    1    3    3    0    0 -0.39176585570E+02 -0.26853338116E+02  0.35287051304E+02  0.59169946890E+02  0.51100000000E-03 0. -1.
         22    1    1    0    0    0  0.12932650738E+02  0.34588200771E+01 -0.26348082062E+02  0.29553989913E+02  0.00000000000E+00 0. -1.
</event>
<event>
 5    1  0.8778488E-005  0.9118800E+02  0.7818608E-02  0.1130116E+00
         25   -1    0    0    0    0  0.00000000000E+00  0.00000000000E+00  0.99999998245E-14  0.12500000000E+03  0.12500000000E+03 0.  0.
        -11    1    3    3    0    0 -0.37202648738E+02 -0.36869613121E+02  0.73033722183E+01  0.52884257496E+02  0.51100000000E-03 0. -1.
         23    2    1    0    0    0 -0.51140359656E+01 -0.12707801537E+02  0.24777101691E+02  0.96688406051E+02  0.92450535492E+02 0.  0.
         11    1    3    3    0    0  0.32088612773E+02  0.24161811584E+02  0.17473729472E+02  0.43804148555E+02  0.51100000000E-03 0.  1.
         22    1    1    0    0    0  0.51140359656E+01  0.12707801537E+02 -0.24777101691E+02  0.28311593949E+02  0.00000000000E+00 0. -1.
</event>
<event>
 5    1  0.8778488E-005  0.9118800E+02  0.7818608E-02  0.1130116E+00
         25   -1    0    0    0    0  0.00000000000E+00  0.00000000000E+00  0.99999998245E-14  0.12500000000E+03  0.12500000000E+03 0.  0.
        -11    1    3    3    0    0  0.14452070415E+02 -0.17218737129E+01  0.48155358891E+02  0.50306717032E+02  0.51100000000E-03 0. -1.
         23    2    1    0    0    0 -0.17842402354E+02 -0.13710264152E+02  0.16423236778E+02  0.97142409093E+02  0.93062356908E+02 0.  0.
         11    1    3    3    0    0 -0.32294472769E+02 -0.11988390439E+02 -0.31732122113E+02  0.46835692061E+02  0.51100000000E-03 0.  1.
         22    1    1    0    0    0  0.17842402354E+02  0.13710264152E+02 -0.16423236778E+02  0.27857590907E+02  0.00000000000E+00 0.  1.
</event>
<event>
 5    1  0.8778488E-005  0.9118800E+02  0.7818608E-02  0.1130116E+00
         25   -1    0    0    0    0  0.00000000000E+00  0.00000000000E+00  0.99999998245E-14  0.12500000000E+03  0.12500000000E+03 0.  0.
        -11    1    3    3    0    0  0.28541852105E+02  0.22408066831E+02 -0.12370228026E+02  0.38337727142E+02  0.51100000000E-03 0.  1.
         23    2    1    0    0    0 -0.17197834490E+02 -0.14807471906E+02 -0.15709068684E+02  0.97399246852E+02  0.93406700579E+02 0.  0.
         11    1    3    3    0    0 -0.45739686595E+02 -0.37215538737E+02 -0.33388406578E+01  0.59061519711E+02  0.51100000000E-03 0. -1.
         22    1    1    0    0    0  0.17197834490E+02  0.14807471906E+02  0.15709068684E+02  0.27600753148E+02  0.00000000000E+00 0. -1.
</event>
<event>
 5    1  0.8778488E-005  0.9118800E+02  0.7818608E-02  0.1130116E+00
         25   -1    0    0    0    0  0.00000000000E+00  0.00000000000E+00  0.99999998245E-14  0.12500000000E+03  0.12500000000E+03 0.  0.
        -11    1    3    3    0    0  0.45350077490E+02 -0.31270689736E+02 -0.27084736856E+02  0.61384595264E+02  0.51100000000E-03 0.  1.
         23    2    1    0    0    0  0.20811027718E+02 -0.76553418397E+01 -0.17464717890E+02  0.96773779843E+02  0.92565895236E+02 0.  0.
         11    1    3    3    0    0 -0.24539049772E+02  0.23615347896E+02  0.96200189663E+01  0.35389184579E+02  0.51100000000E-03 0. -1.
         22    1    1    0    0    0 -0.20811027718E+02  0.76553418397E+01  0.17464717890E+02  0.28226220157E+02  0.00000000000E+00 0.  1.
</event>
<event>
 5    1  0.8778488E-005  0.9118800E+02  0.7818608E-02  0.1130116E+00
         25   -1    0    0    0    0  0.00000000000E+00  0.00000000000E+00  0.99999998245E-14  0.12500000000E+03  0.12500000000E+03 0.  0.
        -11    1    3    3    0    0 -0.34578736356E+02  0.21938652766E+02  0.36544484570E+02  0.54886180828E+02  0.51100000000E-03 0. -1.
         23    2    1    0    0    0 -0.26160620711E+02 -0.83431887825E+01  0.10877280493E+02  0.95465239023E+02  0.90781659798E+02 0.  0.
         11    1    3    3    0    0  0.84181156445E+01 -0.30281841548E+02 -0.25667204077E+02  0.40579058194E+02  0.51100000000E-03 0.  1.
         22    1    1    0    0    0  0.26160620711E+02  0.83431887825E+01 -0.10877280493E+02  0.29534760977E+02  0.00000000000E+00 0. -1.
</event>
<event>
 5    1  0.8778488E-005  0.9118800E+02  0.7818608E-02  0.1130116E+00
         25   -1    0    0    0    0  0.00000000000E+00  0.00000000000E+00  0.99999998245E-14  0.12500000000E+03  0.12500000000E+03 0.  0.
        -11    1    3    3    0    0 -0.16901651240E+02  0.53724127214E+02  0.20623290885E+01  0.56357793259E+02  0.51100000000E-03 0. -1.
         23    2    1    0    0    0 -0.14964161841E+02  0.24589123546E+02  0.19373449376E+02  0.90303001901E+02  0.83371160933E+02 0.  0.
         11    1    3    3    0    0  0.19374893993E+01 -0.29135003668E+02  0.17311120287E+02  0.33945208642E+02  0.51100000000E-03 0.  1.
         22    1    1    0    0    0  0.14964161841E+02 -0.24589123546E+02 -0.19373449376E+02  0.34696998099E+02  0.00000000000E+00 0. -1.
</event>
<event>
 5    1  0.8778488E-005  0.9118800E+02  0.7818608E-02  0.1130116E+00
         25   -1    0    0    0    0  0.00000000000E+00  0.00000000000E+00  0.99999998245E-14  0.12500000000E+03  0.12500000000E+03 0.  0.
        -11    1    3    3    0    0 -0.14990365576E+02  0.11336479473E+02  0.46537276822E+02  0.50189092054E+02  0.51100000000E-03 0. -1.
         23    2    1    0    0    0  0.54723493651E+01  0.25335767666E+02  0.49418471770E+01  0.98613079294E+02  0.95017208039E+02 0.  0.
         11    1    3    3    0    0  0.20462714941E+02  0.13999288193E+02 -0.41595429645E+02  0.48423987241E+02  0.51100000000E-03 0.  1.
         22    1    1    0    0    0 -0.54723493651E+01 -0.25335767666E+02 -0.49418471770E+01  0.26386920706E+02  0.00000000000E+00 0.  1.
</event>
<event>
 5    1  0.8778488E-005  0.9118800E+02  0.7818608E-02  0.1130116E+00
         25   -1    0    0    0    0  0.00000000000E+00  0.00000000000E+00  0.99999998245E-14  0.12500000000E+03  0.12500000000E+03 0.  0.
        -11    1    3    3    0    0 -0.17463865462E+02  0.28294634426E+02 -0.27479774347E+02  0.43135958696E+02  0.51100000000E-03 0.  1.
         23    2    1    0    0    0 -0.12366677959E+02  0.14207049679E+02  0.22699282399E+02  0.95503688269E+02  0.90834586294E+02 0.  0.
         11    1    3    3    0    0  0.50971875028E+01 -0.14087584748E+02  0.50179056746E+02  0.52367729573E+02  0.51100000000E-03 0. -1.
         22    1    1    0    0    0  0.12366677959E+02 -0.14207049679E+02 -0.22699282399E+02  0.29496311731E+02  0.00000000000E+00 0.  1.
</event>
<event>
 5    1  0.8778488E-005  0.9118800E+02  0.7818608E-02  0.1130116E+00
         25   -1    0    0    0    0  0.00000000000E+00  0.00000000000E+00  0.99999998245E-14  0.12500000000E+03  0.12500000000E+03 0.  0.
        -11    1    3    3    0    0 -0.29449914626E+02  0.21015971660E+02  0.75727590703E+01  0.36963701337E+02  0.51100000000E-03 0.  1.
         23    2    1    0    0    0  0.25245582433E+02 -0.59006434181E+01  0.78072656228E+01  0.97923988077E+02  0.94106307011E+02 0.  0.
         11    1    3    3    0    0  0.54695497060E+02 -0.26916615078E+02  0.23450655256E+00  0.60960286740E+02  0.51100000000E-03 0. -1.
         22    1    1    0    0    0 -0.25245582433E+02  0.59006434181E+01 -0.78072656228E+01  0.27076011923E+02  0.00000000000E+00 0. -1.
</event>
<event>
 5    1  0.8778488E-005  0.9118800E+02  0.7818608E-02  0.1130116E+00
         25   -1    0    0    0    0  0.00000000000E+00  0.00000000000E+00  0.99999998245E-14  0.12500000000E+03  0.12500000000E+03 0.  0.
        -11    1    3    3    0    0 -0.29710664585E+02 -0.12904943442E+02 -0.18378486730E+02  0.37242850724E+02  0.51100000000E-03 0.  1.
         23    2    1    0    0    0  0.18694070485E+02 -0.19933610430E+02  0.12354581910E+02  0.95009121550E+02  0.90151430313E+02 0.  0.
         11    1    3    3    0    0  0.48404735070E+02 -0.70286669879E+01  0.30733068640E+02  0.57766270826E+02  0.51100000000E-03 0. -1.
         22    1    1    0    0    0 -0.18694070485E+02  0.19933610430E+02 -0.12354581910E+02  0.29990878450E+02  0.00000000000E+00 0. -1.
</event>
<event>
 5    1  0.8778488E-005  0.9118800E+02  0.7818608E-02  0.1130116E+00
         25   -1    0    0    0    0  0.00000000000E+00  0.00000000000E+00  0.99999998245E-14  0.12500000000E+03  0.12500000000E+03 0.  0.
        -11    1    3    3    0    0  0.18582026215E+02 -0.48968439086E+02  0.29370708491E+02  0.60048632310E+02  0.51100000000E-03 0.  1.
         23    2    1    0    0    0  0.55695015550E+01 -0.26795642325E+02  0.20633160308E+01  0.97553997226E+02  0.93613563689E+02 0.  0.
         11    1    3    3    0    0 -0.13012524660E+02  0.22172796761E+02 -0.27307392461E+02  0.37505364916E+02  0.51100000000E-03 0. -1.
         22    1    1    0    0    0 -0.55695015550E+01  0.26795642325E+02 -0.20633160308E+01  0.27446002774E+02  0.00000000000E+00 0.  1.
</event>
<event>
 5    1  0.8778488E-005  0.9118800E+02  0.7818608E-02  0.1130116E+00
         25   -1    0    0    0    0  0.00000000000E+00  0.00000000000E+00  0.99999998245E-14  0.12500000000E+03  0.12500000000E+03 0.  0.
        -11    1    3    3    0    0 -0.18221824982E+02  0.26722288960E+02 -0.25553158801E+02  0.41219892745E+02  0.51100000000E-03 0.  1.
         23    2    1    0    0    0  0.23619658915E+02  0.15353616602E+02  0.76237599092E+01  0.95815354290E+02  0.91262470778E+02 0.  0.
         11    1    3    3    0    0  0.41841483898E+02 -0.11368672358E+02  0.33176918710E+02  0.54595461545E+02  0.51100000000E-03 0. -1.
         22    1    1    0    0    0 -0.23619658915E+02 -0.15353616602E+02 -0.76237599092E+01  0.29184645710E+02  0.00000000000E+00 0. -1.
</event>
<event>
 5    1  0.8778488E-005  0.9118800E+02  0.7818608E-02  0.1130116E+00
         25   -1    0    0    0    0  0.00000000000E+00  0.00000000000E+00  0.99999998245E-14  0.12500000000E+03  0.12500000000E+03 0.  0.
        -11    1    3    3    0    0 -0.28379688134E+02  0.78676755437E+01 -0.29494839837E+02  0.41680362214E+02  0.51100000000E-03 0.  1.
         23    2    1    0    0    0  0.21486877129E+02  0.15364481496E+02 -0.16849243981E+02  0.93668702498E+02  0.88273300745E+02 0.  0.
         11    1    3    3    0    0  0.49866565263E+02  0.74968059526E+01  0.12645595856E+02  0.51988340284E+02  0.51100000000E-03 0. -1.
         22    1    1    0    0    0 -0.21486877129E+02 -0.15364481496E+02  0.16849243981E+02  0.31331297502E+02  0.00000000000E+00 0. -1.
</event>
<event>
 5    1  0.8778488E-005  0.9118800E+02  0.7818608E-02  0.1130116E+00
         25   -1    0    0    0    0  0.00000000000E+00  0.00000000000E+00  0.99999998245E-14  0.12500000000E+03  0.12500000000E+03 0.  0.
        -11    1    3    3    0    0  0.11055040471E+02  0.43048967737E+02 -0.28520077177E+02  0.52809301695E+02  0.51100000000E-03 0.  1.
         23    2    1    0    0    0 -0.12207692929E+02  0.73783613978E+01 -0.25846199534E+02  0.95478922548E+02  0.90800499101E+02 0.  0.
         11    1    3    3    0    0 -0.23262733400E+02 -0.35670606339E+02  0.26738776431E+01  0.42669620853E+02  0.51100000000E-03 0. -1.
         22    1    1    0    0    0  0.12207692929E+02 -0.73783613978E+01  0.25846199534E+02  0.29521077452E+02  0.00000000000E+00 0.  1.
</event>
<event>
 5    1  0.8778488E-005  0.9118800E+02  0.7818608E-02  0.1130116E+00
         25   -1    0    0    0    0  0.00000000000E+00  0.00000000000E+00  0.99999998245E-14  0.12500000000E+03  0.12500000000E+03 0.  0.
        -11    1    3    3    0    0  0.25024184720E+02 -0.23574875928E+02  0.21403197087E+02  0.40497918980E+02  0.51100000000E-03 0. -1.
         23    2    1    0    0    0  0.12645782790E+02  0.15097801948E+02 -0.18896193912E+02  0.97706674985E+02  0.93817209222E+02 0.  0.
         11    1    3    3    0    0 -0.12378401930E+02  0.38672677876E+02 -0.40299390999E+02  0.57208756005E+02  0.51100000000E-03 0.  1.
         22    1    1    0    0    0 -0.12645782790E+02 -0.15097801948E+02  0.18896193912E+02  0.27293325015E+02  0.00000000000E+00 0.  1.
</event>
<event>
 5    1  0.8778488E-005  0.9118800E+02  0.7818608E-02  0.1130116E+00
         25   -1    0    0    0    0  0.00000000000E+00  0.00000000000E+00  0.99999998245E-14  0.12500000000E+03  0.12500000000E+03 0.  0.
        -11    1    3    3    0    0  0.30348292760E+02 -0.32595833656E+02  0.56223546389E+01  0.44890067021E+02  0.51100000000E-03 0.  1.
         23    2    1    0    0    0  0.40598208223E+01  0.49277477855E+01  0.28284094415E+02  0.96004227201E+02  0.91520799823E+02 0.  0.
         11    1    3    3    0    0 -0.26288471937E+02  0.37523581442E+02  0.22661739776E+02  0.51114160180E+02  0.51100000000E-03 0. -1.
         22    1    1    0    0    0 -0.40598208223E+01 -0.49277477855E+01 -0.28284094415E+02  0.28995772799E+02  0.00000000000E+00 0. -1.
</event>
<event>
 5    1  0.8778488E-005  0.9118800E+02  0.7818608E-02  0.1130116E+00
         25   -1    0    0    0    0  0.00000000000E+00  0.00000000000E+00  0.99999998245E-14  0.12500000000E+03  0.12500000000E+03 0.  0.
        -11    1    3    3    0    0 -0.48036710279E+01  0.30925327717E+02 -0.77315898108E+01  0.32237069206E+02  0.51100000000E-03 0.  1.
         23    2    1    0    0    0  0.22953699008E+01 -0.29671615605E+02  0.56736041285E+01  0.94703741495E+02  0.89727004708E+02 0.  0.
         11    1    3    3    0    0  0.70990409287E+01 -0.60596943322E+02  0.13405193939E+02  0.62466672289E+02  0.51100000000E-03 0. -1.
         22    1    1    0    0    0 -0.22953699008E+01  0.29671615605E+02 -0.56736041285E+01  0.30296258505E+02  0.00000000000E+00 0. -1.
</event>
<event>
 5    1  0.8778488E-005  0.9118800E+02  0.7818608E-02  0.1130116E+00
         25   -1    0    0    0    0  0.00000000000E+00  0.00000000000E+00  0.99999998245E-14  0.12500000000E+03  0.12500000000E+03 0.  0.
        -11    1    3    3    0    0  0.22261155196E+02 -0.54654673942E+02 -0.80148853431E+01  0.59556114730E+02  0.51100000000E-03 0.  1.
         23    2    1    0    0    0 -0.12125374511E+01 -0.28747445700E+02  0.26463785298E+01  0.96105550695E+02  0.91659083967E+02 0.  0.
         11    1    3    3    0    0 -0.23473692647E+02  0.25907228242E+02  0.10661263873E+02  0.36549435965E+02  0.51100000000E-03 0. -1.
         22    1    1    0    0    0  0.12125374511E+01  0.28747445700E+02 -0.26463785298E+01  0.28894449305E+02  0.00000000000E+00 0.  1.
</event>
<event>
 5    1  0.8778488E-005  0.9118800E+02  0.7818608E-02  0.1130116E+00
         25   -1    0    0    0    0  0.00000000000E+00  0.00000000000E+00  0.99999998245E-14  0.12500000000E+03  0.12500000000E+03 0.  0.
        -11    1    3    3    0    0 -0.16229036191E+02  0.52949812525E+02 -0.19413276579E+02  0.58685088139E+02  0.51100000000E-03 0.  1.
         23    2    1    0    0    0  0.76485066956E+01  0.25629012057E+02 -0.11835236111E+02  0.95752457753E+02  0.91176282214E+02 0.  0.
         11    1    3    3    0    0  0.23877542887E+02 -0.27320800468E+02  0.75780404682E+01  0.37067369614E+02  0.51100000000E-03 0. -1.
         22    1    1    0    0    0 -0.76485066956E+01 -0.25629012057E+02  0.11835236111E+02  0.29247542247E+02  0.00000000000E+00 0.  1.
</event>
<event>
 5    1  0.8778488E-005  0.9118800E+02  0.7818608E-02  0.1130116E+00
         25   -1    0    0    0    0  0.00000000000E+00  0.00000000000E+00  0.99999998245E-14  0.12500000000E+03  0.12500000000E+03 0.  0.
        -11    1    3    3    0    0 -0.29733929115E+02 -0.10039155107E+02  0.13813150241E+02  0.34288398850E+02  0.51100000000E-03 0.  1.
         23    2    1    0    0    0  0.15941524277E+02  0.22149930722E+02 -0.11189005542E+02  0.95505161939E+02  0.90836614230E+02 0.  0.
         11    1    3    3    0    0  0.45675453391E+02  0.32189085829E+02 -0.25002155783E+02  0.61216763089E+02  0.51100000000E-03 0. -1.
         22    1    1    0    0    0 -0.15941524277E+02 -0.22149930722E+02  0.11189005542E+02  0.29494838061E+02  0.00000000000E+00 0. -1.
</event>
<event>
 5    1  0.8778488E-005  0.9118800E+02  0.7818608E-02  0.1130116E+00
         25   -1    0    0    0    0  0.00000000000E+00  0.00000000000E+00  0.99999998245E-14  0.12500000000E+03  0.12500000000E+03 0.  0.
        -11    1    3    3    0    0  0.51335697687E+02 -0.49288998891E+01 -0.20732790078E+02  0.55583239342E+02  0.51100000000E-03 0. -1.
         23    2    1    0    0    0  0.11766571284E+02 -0.25565917462E+01 -0.26738080517E+02  0.95675721477E+02  0.91071018273E+02 0.  0.
         11    1    3    3    0    0 -0.39569126403E+02  0.23723081429E+01 -0.60052904391E+01  0.40092482135E+02  0.51100000000E-03 0.  1.
         22    1    1    0    0    0 -0.11766571284E+02  0.25565917462E+01  0.26738080517E+02  0.29324278523E+02  0.00000000000E+00 0. -1.
</event>
<event>
 5    1  0.8778488E-005  0.9118800E+02  0.7818608E-02  0.1130116E+00
         25   -1    0    0    0    0  0.00000000000E+00  0.00000000000E+00  0.99999998245E-14  0.12500000000E+03  0.12500000000E+03 0.  0.
        -11    1    3    3    0    0  0.41236851778E+01  0.90542786366E+01 -0.57127979751E+02  0.57987850553E+02  0.51100000000E-03 0.  1.
         23    2    1    0    0    0 -0.12366784099E+02  0.12338862704E+02 -0.22214800120E+02  0.96739033524E+02  0.92518962278E+02 0.  0.
         11    1    3    3    0    0 -0.16490469276E+02  0.32845840678E+01  0.34913179631E+02  0.38751182971E+02  0.51100000000E-03 0. -1.
         22    1    1    0    0    0  0.12366784099E+02 -0.12338862704E+02  0.22214800120E+02  0.28260966476E+02  0.00000000000E+00 0.  1.
</event>
<event>
 5    1  0.8778488E-005  0.9118800E+02  0.7818608E-02  0.1130116E+00
         25   -1    0    0    0    0  0.00000000000E+00  0.00000000000E+00  0.99999998245E-14  0.12500000000E+03  0.12500000000E+03 0.  0.
        -11    1    3    3    0    0  0.36947584897E+01 -0.57630931351E+02 -0.12729646476E+02  0.59135601699E+02  0.51100000000E-03 0.  1.
         23    2    1    0    0    0 -0.10383231320E+02 -0.28348736235E+02  0.18616784230E+01  0.94752220159E+02  0.89794515643E+02 0.  0.
         11    1    3    3    0    0 -0.14077989810E+02  0.29282195116E+02  0.14591324899E+02  0.35616618459E+02  0.51100000000E-03 0. -1.
         22    1    1    0    0    0  0.10383231320E+02  0.28348736235E+02 -0.18616784230E+01  0.30247779841E+02  0.00000000000E+00 0.  1.
</event>
<event>
 5    1  0.8778488E-005  0.9118800E+02  0.7818608E-02  0.1130116E+00
         25   -1    0    0    0    0  0.00000000000E+00  0.00000000000E+00  0.99999998245E-14  0.12500000000E+03  0.12500000000E+03 0.  0.
        -11    1    3    3    0    0  0.35013632155E+01  0.11240854612E+02 -0.32303166834E+02  0.34381840331E+02  0.51100000000E-03 0. -1.
         23    2    1    0    0    0  0.30630224774E+02  0.29327666099E+02  0.30609055621E+01  0.82483040897E+02  0.70680692018E+02 0.  0.
         11    1    3    3    0    0  0.27128861559E+02  0.18086811487E+02  0.35364072396E+02  0.48101200566E+02  0.51100000000E-03 0.  1.
         22    1    1    0    0    0 -0.30630224774E+02 -0.29327666099E+02 -0.30609055621E+01  0.42516959103E+02  0.00000000000E+00 0.  1.
</event>
<event>
 5    1  0.8778488E-005  0.9118800E+02  0.7818608E-02  0.1130116E+00
         25   -1    0    0    0    0  0.00000000000E+00  0.00000000000E+00  0.99999998245E-14  0.12500000000E+03  0.12500000000E+03 0.  0.
        -11    1    3    3    0    0  0.13804859566E+02  0.33999446564E+02  0.10228611503E+02  0.38094107259E+02  0.51100000000E-03 0.  1.
         23    2    1    0    0    0  0.19362257147E+02 -0.21382500439E+02 -0.48227229688E+01  0.95753342350E+02  0.91177494962E+02 0.  0.
         11    1    3    3    0    0  0.55573975810E+01 -0.55381947003E+02 -0.15051334472E+02  0.57659235092E+02  0.51100000000E-03 0. -1.
         22    1    1    0    0    0 -0.19362257147E+02  0.21382500439E+02  0.48227229688E+01  0.29246657650E+02  0.00000000000E+00 0. -1.
</event>
<event>
 5    1  0.8778488E-005  0.9118800E+02  0.7818608E-02  0.1130116E+00
         25   -1    0    0    0    0  0.00000000000E+00  0.00000000000E+00  0.99999998245E-14  0.12500000000E+03  0.12500000000E+03 0.  0.
        -11    1    3    3    0    0  0.53313586240E+02 -0.19657353263E+02  0.88991934242E+01  0.57514742970E+02  0.51100000000E-03 0. -1.
         23    2    1    0    0    0  0.20147228054E+02  0.27786622648E+00  0.18783326077E+02  0.97453650942E+02  0.93479477617E+02 0.  0.
         11    1    3    3    0    0 -0.33166358186E+02  0.19935219489E+02  0.98841326528E+01  0.39938907971E+02  0.51100000000E-03 0.  1.
         22    1    1    0    0    0 -0.20147228054E+02 -0.27786622648E+00 -0.18783326077E+02  0.27546349058E+02  0.00000000000E+00 0. -1.
</event>
<event>
 5    1  0.8778488E-005  0.9118800E+02  0.7818608E-02  0.1130116E+00
         25   -1    0    0    0    0  0.00000000000E+00  0.00000000000E+00  0.99999998245E-14  0.12500000000E+03  0.12500000000E+03 0.  0.
        -11    1    3    3    0    0  0.19541934328E+01 -0.24282495835E+02 -0.41156859846E+02  0.47826201904E+02  0.51100000000E-03 0. -1.
         23    2    1    0    0    0  0.17540055735E+01  0.19603591851E+02 -0.21308992672E+02  0.95992233494E+02  0.91504417235E+02 0.  0.
         11    1    3    3    0    0 -0.20018785930E+00  0.43886087685E+02  0.19847867174E+02  0.48166031590E+02  0.51100000000E-03 0.  1.
         22    1    1    0    0    0 -0.17540055735E+01 -0.19603591851E+02  0.21308992672E+02  0.29007766506E+02  0.00000000000E+00 0. -1.
</event>
<event>
 5    1  0.8778488E-005  0.9118800E+02  0.7818608E-02  0.1130116E+00
         25   -1    0    0    0    0  0.00000000000E+00  0.00000000000E+00  0.99999998245E-14  0.12500000000E+03  0.12500000000E+03 0.  0.
        -11    1    3    3    0    0 -0.14456279501E+02  0.10536838202E+02  0.46800889060E+02  0.50103215399E+02  0.51100000000E-03 0. -1.
         23    2    1    0    0    0 -0.81813838756E+01 -0.21179333610E+02  0.72950727052E+01  0.10115220555E+03  0.98300820892E+02 0.  0.
         11    1    3    3    0    0  0.62748956253E+01 -0.31716171811E+02 -0.39505816355E+02  0.51048990152E+02  0.51100000000E-03 0.  1.
         22    1    1    0    0    0  0.81813838756E+01  0.21179333610E+02 -0.72950727052E+01  0.23847794448E+02  0.00000000000E+00 0. -1.
</event>
<event>
 5    1  0.8778488E-005  0.9118800E+02  0.7818608E-02  0.1130116E+00
         25   -1    0    0    0    0  0.00000000000E+00  0.00000000000E+00  0.99999998245E-14  0.12500000000E+03  0.12500000000E+03 0.  0.
        -11    1    3    3    0    0 -0.12648889379E+02 -0.26864429418E+01  0.54959368082E+02  0.56460105547E+02  0.51100000000E-03 0.  1.
         23    2    1    0    0    0 -0.23589065302E+02 -0.22692667935E+01  0.17352453300E+02  0.95628224277E+02  0.91005802393E+02 0.  0.
         11    1    3    3    0    0 -0.10940175923E+02  0.41717614839E+00 -0.37606914782E+02  0.39168118729E+02  0.51100000000E-03 0. -1.
         22    1    1    0    0    0  0.23589065302E+02  0.22692667935E+01 -0.17352453300E+02  0.29371775723E+02  0.00000000000E+00 0.  1.
</event>
<event>
 5    1  0.8778488E-005  0.9118800E+02  0.7818608E-02  0.1130116E+00
         25   -1    0    0    0    0  0.00000000000E+00  0.00000000000E+00  0.99999998245E-14  0.12500000000E+03  0.12500000000E+03 0.  0.
        -11    1    3    3    0    0  0.20385290876E+02 -0.46354912526E+01  0.43490386741E+02  0.48254135599E+02  0.51100000000E-03 0.  1.
         23    2    1    0    0    0 -0.45897172680E+01 -0.27435962112E+02  0.11197209521E+02  0.95013752775E+02  0.90157851536E+02 0.  0.
         11    1    3    3    0    0 -0.24975008144E+02 -0.22800470859E+02 -0.32293177220E+02  0.46759617176E+02  0.51100000000E-03 0. -1.
         22    1    1    0    0    0  0.45897172680E+01  0.27435962112E+02 -0.11197209521E+02  0.29986247225E+02  0.00000000000E+00 0.  1.
</event>
<event>
 5    1  0.8778488E-005  0.9118800E+02  0.7818608E-02  0.1130116E+00
         25   -1    0    0    0    0  0.00000000000E+00  0.00000000000E+00  0.99999998245E-14  0.12500000000E+03  0.12500000000E+03 0.  0.
        -11    1    3    3    0    0  0.39251357717E+01 -0.45352853132E+02 -0.28910886442E+02  0.53927055670E+02  0.51100000000E-03 0.  1.
         23    2    1    0    0    0 -0.21145135101E+02 -0.17460704328E+02 -0.11982900130E+02  0.95073710060E+02  0.90240941456E+02 0.  0.
         11    1    3    3    0    0 -0.25070270873E+02  0.27892148805E+02  0.16927986312E+02  0.41146654390E+02  0.51100000000E-03 0. -1.
         22    1    1    0    0    0  0.21145135101E+02  0.17460704328E+02  0.11982900130E+02  0.29926289940E+02  0.00000000000E+00 0.  1.
</event>
<event>
 5    1  0.8778488E-005  0.9118800E+02  0.7818608E-02  0.1130116E+00
         25   -1    0    0    0    0  0.00000000000E+00  0.00000000000E+00  0.99999998245E-14  0.12500000000E+03  0.12500000000E+03 0.  0.
        -11    1    3    3    0    0 -0.39235929415E+02  0.30692815532E+01  0.10703542484E+02  0.40785346244E+02  0.51100000000E-03 0.  1.
         23    2    1    0    0    0  0.26323233056E+01 -0.29594531565E+02  0.91539484996E+01  0.93910448739E+02  0.88614965918E+02 0.  0.
         11    1    3    3    0    0  0.41868252720E+02 -0.32663813118E+02 -0.15495939846E+01  0.53125102494E+02  0.51100000000E-03 0. -1.
         22    1    1    0    0    0 -0.26323233056E+01  0.29594531565E+02 -0.91539484996E+01  0.31089551261E+02  0.00000000000E+00 0. -1.
</event>
<event>
 5    1  0.8778488E-005  0.9118800E+02  0.7818608E-02  0.1130116E+00
         25   -1    0    0    0    0  0.00000000000E+00  0.00000000000E+00  0.99999998245E-14  0.12500000000E+03  0.12500000000E+03 0.  0.
        -11    1    3    3    0    0 -0.21365063919E+02 -0.18314736683E+02  0.14228118713E+02  0.31533076260E+02  0.51100000000E-03 0. -1.
         23    2    1    0    0    0  0.14504536881E+02  0.18522803479E+02 -0.20677643926E+02  0.93678429203E+02  0.88287073237E+02 0.  0.
         11    1    3    3    0    0  0.35869600800E+02  0.36837540163E+02 -0.34905762639E+02  0.62145352943E+02  0.51100000000E-03 0.  1.
         22    1    1    0    0    0 -0.14504536881E+02 -0.18522803479E+02  0.20677643926E+02  0.31321570797E+02  0.00000000000E+00 0.  1.
</event>
<event>
 5    1  0.8778488E-005  0.9118800E+02  0.7818608E-02  0.1130116E+00
         25   -1    0    0    0    0  0.00000000000E+00  0.00000000000E+00  0.99999998245E-14  0.12500000000E+03  0.12500000000E+03 0.  0.
        -11    1    3    3    0    0  0.46605664948E+02 -0.27290853346E+02 -0.98873751349E+00  0.54017185078E+02  0.51100000000E-03 0.  1.
         23    2    1    0    0    0  0.60424337814E+01 -0.28990552993E+02  0.47106671307E+01  0.95014110757E+02  0.90158347863E+02 0.  0.
         11    1    3    3    0    0 -0.40563231167E+02 -0.16996996474E+01  0.56994046442E+01  0.40996925679E+02  0.51100000000E-03 0. -1.
         22    1    1    0    0    0 -0.60424337814E+01  0.28990552993E+02 -0.47106671307E+01  0.29985889243E+02  0.00000000000E+00 0.  1.
</event>
<event>
 5    1  0.8778488E-005  0.9118800E+02  0.7818608E-02  0.1130116E+00
         25   -1    0    0    0    0  0.00000000000E+00  0.00000000000E+00  0.99999998245E-14  0.12500000000E+03  0.12500000000E+03 0.  0.
        -11    1    3    3    0    0 -0.26964701956E+02  0.54815835666E+02  0.30168728599E+01  0.61163490036E+02  0.51100000000E-03 0.  1.
         23    2    1    0    0    0 -0.34718858230E+01  0.25786614582E+02 -0.22768557963E+01  0.98881279605E+02  0.95369386604E+02 0.  0.
         11    1    3    3    0    0  0.23492816133E+02 -0.29029221084E+02 -0.52937286562E+01  0.37717789568E+02  0.51100000000E-03 0. -1.
         22    1    1    0    0    0  0.34718858230E+01 -0.25786614582E+02  0.22768557963E+01  0.26118720395E+02  0.00000000000E+00 0.  1.
</event>
<event>
 5    1  0.8778488E-005  0.9118800E+02  0.7818608E-02  0.1130116E+00
         25   -1    0    0    0    0  0.00000000000E+00  0.00000000000E+00  0.99999998245E-14  0.12500000000E+03  0.12500000000E+03 0.  0.
        -11    1    3    3    0    0 -0.45790709774E+01  0.22883696426E+02  0.35900344407E+02  0.42818993238E+02  0.51100000000E-03 0.  1.
         23    2    1    0    0    0  0.77957857421E+01 -0.22880089263E+02  0.22235711796E+02  0.92156436870E+02  0.86105221778E+02 0.  0.
         11    1    3    3    0    0  0.12374856720E+02 -0.45763785689E+02 -0.13664632611E+02  0.49337443632E+02  0.51100000000E-03 0. -1.
         22    1    1    0    0    0 -0.77957857421E+01  0.22880089263E+02 -0.22235711796E+02  0.32843563130E+02  0.00000000000E+00 0. -1.
</event>
<event>
 5    1  0.8778488E-005  0.9118800E+02  0.7818608E-02  0.1130116E+00
         25   -1    0    0    0    0  0.00000000000E+00  0.00000000000E+00  0.99999998245E-14  0.12500000000E+03  0.12500000000E+03 0.  0.
        -11    1    3    3    0    0 -0.28013162752E+02 -0.31026336108E+02  0.31043479868E+02  0.52067921624E+02  0.51100000000E-03 0.  1.
         23    2    1    0    0    0 -0.31186517581E+02 -0.37003420920E+01 -0.64230823194E-01  0.93594657524E+02  0.88168386517E+02 0.  0.
         11    1    3    3    0    0 -0.31733548291E+01  0.27325994016E+02 -0.31107710691E+02  0.41526735901E+02  0.51100000000E-03 0. -1.
         22    1    1    0    0    0  0.31186517581E+02  0.37003420920E+01  0.64230823194E-01  0.31405342476E+02  0.00000000000E+00 0.  1.
</event>
<event>
 5    1  0.8778488E-005  0.9118800E+02  0.7818608E-02  0.1130116E+00
         25   -1    0    0    0    0  0.00000000000E+00  0.00000000000E+00  0.99999998245E-14  0.12500000000E+03  0.12500000000E+03 0.  0.
        -11    1    3    3    0    0 -0.32258978155E+02 -0.13088722037E+01 -0.17628235378E+02  0.36784636751E+02  0.51100000000E-03 0.  1.
         23    2    1    0    0    0  0.15460029676E+02 -0.22759831053E+02  0.97193967470E+01  0.95819713842E+02  0.91268441755E+02 0.  0.
         11    1    3    3    0    0  0.47719007832E+02 -0.21450958850E+02  0.27347632125E+02  0.59035077091E+02  0.51100000000E-03 0. -1.
         22    1    1    0    0    0 -0.15460029676E+02  0.22759831053E+02 -0.97193967470E+01  0.29180286158E+02  0.00000000000E+00 0. -1.
</event>
<event>
 5    1  0.8778488E-005  0.9118800E+02  0.7818608E-02  0.1130116E+00
         25   -1    0    0    0    0  0.00000000000E+00  0.00000000000E+00  0.99999998245E-14  0.12500000000E+03  0.12500000000E+03 0.  0.
        -11    1    3    3    0    0 -0.32642325777E+02  0.33959794043E+02 -0.13726952965E+02  0.49063410823E+02  0.51100000000E-03 0.  1.
         23    2    1    0    0    0  0.86878784583E+01  0.24705784331E+02  0.92222090722E+01  0.97234839246E+02  0.93186425039E+02 0.  0.
         11    1    3    3    0    0  0.41330204235E+02 -0.92540097123E+01  0.22949162037E+02  0.48171428423E+02  0.51100000000E-03 0. -1.
         22    1    1    0    0    0 -0.86878784583E+01 -0.24705784331E+02 -0.92222090722E+01  0.27765160754E+02  0.00000000000E+00 0. -1.
</event>
<event>
 5    1  0.8778488E-005  0.9118800E+02  0.7818608E-02  0.1130116E+00
         25   -1    0    0    0    0  0.00000000000E+00  0.00000000000E+00  0.99999998245E-14  0.12500000000E+03  0.12500000000E+03 0.  0.
        -11    1    3    3    0    0 -0.33266889575E+02  0.27521341600E+02 -0.21778288276E+02  0.48357047324E+02  0.51100000000E-03 0.  1.
         23    2    1    0    0    0 -0.10683003145E+02  0.19530829922E+02  0.19053757480E+02  0.95697686990E+02  0.91101162163E+02 0.  0.
         11    1    3    3    0    0  0.22583886429E+02 -0.79905116777E+01  0.40832045755E+02  0.47340639666E+02  0.51100000000E-03 0. -1.
         22    1    1    0    0    0  0.10683003145E+02 -0.19530829922E+02 -0.19053757480E+02  0.29302313010E+02  0.00000000000E+00 0. -1.
</event>
<event>
 5    1  0.8778488E-005  0.9118800E+02  0.7818608E-02  0.1130116E+00
         25   -1    0    0    0    0  0.00000000000E+00  0.00000000000E+00  0.99999998245E-14  0.12500000000E+03  0.12500000000E+03 0.  0.
        -11    1    3    3    0    0  0.11233077187E+02  0.35124396644E+02  0.50397395116E+02  0.62448400279E+02  0.51100000000E-03 0.  1.
         23    2    1    0    0    0  0.69814970806E+01  0.16487336372E+02  0.23097941419E+02  0.95775208128E+02  0.91207466976E+02 0.  0.
         11    1    3    3    0    0 -0.42515801061E+01 -0.18637060272E+02 -0.27299453697E+02  0.33326807849E+02  0.51100000000E-03 0. -1.
         22    1    1    0    0    0 -0.69814970806E+01 -0.16487336372E+02 -0.23097941419E+02  0.29224791872E+02  0.00000000000E+00 0.  1.
</event>
<event>
 5    1  0.8778488E-005  0.9118800E+02  0.7818608E-02  0.1130116E+00
         25   -1    0    0    0    0  0.00000000000E+00  0.00000000000E+00  0.99999998245E-14  0.12500000000E+03  0.12500000000E+03 0.  0.
        -11    1    3    3    0    0  0.13792461747E+02 -0.19890345472E+01 -0.45419558904E+02  0.47509205326E+02  0.51100000000E-03 0. -1.
         23    2    1    0    0    0 -0.41954885665E+00  0.28515466728E+02 -0.15487144850E+02  0.92547580683E+02  0.86671189969E+02 0.  0.
         11    1    3    3    0    0 -0.14212010603E+02  0.30504501275E+02  0.29932414054E+02  0.45038375357E+02  0.51100000000E-03 0.  1.
         22    1    1    0    0    0  0.41954885665E+00 -0.28515466728E+02  0.15487144850E+02  0.32452419317E+02  0.00000000000E+00 0. -1.
</event>
<event>
 5    1  0.8778488E-005  0.9118800E+02  0.7818608E-02  0.1130116E+00
         25   -1    0    0    0    0  0.00000000000E+00  0.00000000000E+00  0.99999998245E-14  0.12500000000E+03  0.12500000000E+03 0.  0.
        -11    1    3    3    0    0  0.23450279928E+02 -0.34406615293E+02  0.24639743482E+02  0.48382308375E+02  0.51100000000E-03 0.  1.
         23    2    1    0    0    0  0.20618778828E+02 -0.10937556974E+02 -0.16904432949E+02  0.96181185898E+02  0.91762173440E+02 0.  0.
         11    1    3    3    0    0 -0.28315011002E+01  0.23469058319E+02 -0.41544176431E+02  0.47798877522E+02  0.51100000000E-03 0. -1.
         22    1    1    0    0    0 -0.20618778828E+02  0.10937556974E+02  0.16904432949E+02  0.28818814102E+02  0.00000000000E+00 0.  1.
</event>
<event>
 5    1  0.8778488E-005  0.9118800E+02  0.7818608E-02  0.1130116E+00
         25   -1    0    0    0    0  0.00000000000E+00  0.00000000000E+00  0.99999998245E-14  0.12500000000E+03  0.12500000000E+03 0.  0.
        -11    1    3    3    0    0 -0.34509031538E+02 -0.39350711073E+02 -0.32585889041E+02  0.61653806732E+02  0.51100000000E-03 0.  1.
         23    2    1    0    0    0 -0.12688717496E+02 -0.17110785457E+02 -0.21526551783E+02  0.94715103396E+02  0.89742831742E+02 0.  0.
         11    1    3    3    0    0  0.21820314042E+02  0.22239925616E+02  0.11059337258E+02  0.33061296664E+02  0.51100000000E-03 0. -1.
         22    1    1    0    0    0  0.12688717496E+02  0.17110785457E+02  0.21526551783E+02  0.30284896604E+02  0.00000000000E+00 0.  1.
</event>
<event>
 5    1  0.8778488E-005  0.9118800E+02  0.7818608E-02  0.1130116E+00
         25   -1    0    0    0    0  0.00000000000E+00  0.00000000000E+00  0.99999998245E-14  0.12500000000E+03  0.12500000000E+03 0.  0.
        -11    1    3    3    0    0 -0.18013755986E+02 -0.30783275051E+02 -0.10909997149E+02  0.37297901625E+02  0.51100000000E-03 0. -1.
         23    2    1    0    0    0  0.25947248180E+02  0.22554185994E+01  0.11304614564E+02  0.96607379275E+02  0.92340916277E+02 0.  0.
         11    1    3    3    0    0  0.43961004166E+02  0.33038693650E+02  0.22214611713E+02  0.59309477651E+02  0.51100000000E-03 0.  1.
         22    1    1    0    0    0 -0.25947248180E+02 -0.22554185994E+01 -0.11304614564E+02  0.28392620725E+02  0.00000000000E+00 0.  1.
</event>
<event>
 5    1  0.8778488E-005  0.9118800E+02  0.7818608E-02  0.1130116E+00
         25   -1    0    0    0    0  0.00000000000E+00  0.00000000000E+00  0.99999998245E-14  0.12500000000E+03  0.12500000000E+03 0.  0.
        -11    1    3    3    0    0 -0.18673541081E+02  0.18145290069E+02  0.22810008329E+02  0.34615735850E+02  0.51100000000E-03 0.  1.
         23    2    1    0    0    0  0.29724646525E+02 -0.21540506689E+01 -0.61660655912E+01  0.94566220902E+02  0.89535217794E+02 0.  0.
         11    1    3    3    0    0  0.48398187605E+02 -0.20299340738E+02 -0.28976073920E+02  0.59950485052E+02  0.51100000000E-03 0. -1.
         22    1    1    0    0    0 -0.29724646525E+02  0.21540506689E+01  0.61660655912E+01  0.30433779098E+02  0.00000000000E+00 0. -1.
</event>
<event>
 5    1  0.8778488E-005  0.9118800E+02  0.7818608E-02  0.1130116E+00
         25   -1    0    0    0    0  0.00000000000E+00  0.00000000000E+00  0.99999998245E-14  0.12500000000E+03  0.12500000000E+03 0.  0.
        -11    1    3    3    0    0  0.22831412938E+02 -0.15460508139E+02 -0.42771608520E+02  0.50889205381E+02  0.51100000000E-03 0.  1.
         23    2    1    0    0    0  0.24356382973E+02  0.11716730166E+02 -0.48948274345E+01  0.97532300917E+02  0.93584588631E+02 0.  0.
         11    1    3    3    0    0  0.15249700347E+01  0.27177238306E+02  0.37876781085E+02  0.46643095536E+02  0.51100000000E-03 0. -1.
         22    1    1    0    0    0 -0.24356382973E+02 -0.11716730166E+02  0.48948274345E+01  0.27467699083E+02  0.00000000000E+00 0. -1.
</event>
<event>
 5    1  0.8778488E-005  0.9118800E+02  0.7818608E-02  0.1130116E+00
         25   -1    0    0    0    0  0.00000000000E+00  0.00000000000E+00  0.99999998245E-14  0.12500000000E+03  0.12500000000E+03 0.  0.
        -11    1    3    3    0    0 -0.13740895300E+02  0.19562169295E+02 -0.28295889797E+02  0.37042516799E+02  0.51100000000E-03 0.  1.
         23    2    1    0    0    0 -0.12514476428E+02 -0.16307014864E+02  0.19401314342E+02  0.96734440528E+02  0.92512756591E+02 0.  0.
         11    1    3    3    0    0  0.12264188724E+01 -0.35869184159E+02  0.47697204139E+02  0.59691923729E+02  0.51100000000E-03 0. -1.
         22    1    1    0    0    0  0.12514476428E+02  0.16307014864E+02 -0.19401314342E+02  0.28265559472E+02  0.00000000000E+00 0. -1.
</event>
<event>
 5    1  0.8778488E-005  0.9118800E+02  0.7818608E-02  0.1130116E+00
         25   -1    0    0    0    0  0.00000000000E+00  0.00000000000E+00  0.99999998245E-14  0.12500000000E+03  0.12500000000E+03 0.  0.
        -11    1    3    3    0    0 -0.50762613867E+02  0.19489851051E+02  0.11470321191E+02  0.55572165056E+02  0.51100000000E-03 0. -1.
         23    2    1    0    0    0 -0.20457320820E+02 -0.71651357928E+01  0.18455321719E+02  0.96531771291E+02  0.92238510519E+02 0.  0.
         11    1    3    3    0    0  0.30305293046E+02 -0.26654986844E+02  0.69850005283E+01  0.40959606235E+02  0.51100000000E-03 0.  1.
         22    1    1    0    0    0  0.20457320820E+02  0.71651357928E+01 -0.18455321719E+02  0.28468228709E+02  0.00000000000E+00 0. -1.
</event>
<event>
 5    1  0.8778488E-005  0.9118800E+02  0.7818608E-02  0.1130116E+00
         25   -1    0    0    0    0  0.00000000000E+00  0.00000000000E+00  0.99999998245E-14  0.12500000000E+03  0.12500000000E+03 0.  0.
        -11    1    3    3    0    0  0.18626368186E+01  0.54515010037E+02  0.17460937125E+02  0.57273380036E+02  0.51100000000E-03 0. -1.
         23    2    1    0    0    0 -0.68091648243E+01  0.27532993808E+02 -0.81685701750E+01  0.95484647854E+02  0.90808380469E+02 0.  0.
         11    1    3    3    0    0 -0.86718016429E+01 -0.26982016229E+02 -0.25629507300E+02  0.38211267817E+02  0.51100000000E-03 0.  1.
         22    1    1    0    0    0  0.68091648243E+01 -0.27532993808E+02  0.81685701750E+01  0.29515352146E+02  0.00000000000E+00 0.  1.
</event>
<event>
 5    1  0.8778488E-005  0.9118800E+02  0.7818608E-02  0.1130116E+00
         25   -1    0    0    0    0  0.00000000000E+00  0.00000000000E+00  0.99999998245E-14  0.12500000000E+03  0.12500000000E+03 0.  0.
        -11    1    3    3    0    0 -0.36324826369E+02  0.25204193378E+02  0.62451059985E+01  0.44651379864E+02  0.51100000000E-03 0.  1.
         23    2    1    0    0    0 -0.90403742788E+01 -0.41538221934E+01 -0.26683146190E+02  0.96522414138E+02  0.92225828999E+02 0.  0.
         11    1    3    3    0    0  0.27284452091E+02 -0.29358015571E+02 -0.32928252189E+02  0.51871034274E+02  0.51100000000E-03 0. -1.
         22    1    1    0    0    0  0.90403742788E+01  0.41538221934E+01  0.26683146190E+02  0.28477585862E+02  0.00000000000E+00 0. -1.
</event>
<event>
 5    1  0.8778488E-005  0.9118800E+02  0.7818608E-02  0.1130116E+00
         25   -1    0    0    0    0  0.00000000000E+00  0.00000000000E+00  0.99999998245E-14  0.12500000000E+03  0.12500000000E+03 0.  0.
        -11    1    3    3    0    0  0.18982833709E+02 -0.28507952225E+02  0.11712080223E+02  0.36197018374E+02  0.51100000000E-03 0.  1.
         23    2    1    0    0    0 -0.14388520596E+01  0.11619902770E+02 -0.26996250891E+02  0.95573991133E+02  0.90931280555E+02 0.  0.
         11    1    3    3    0    0 -0.20421685769E+02  0.40127854995E+02 -0.38708331115E+02  0.59376972760E+02  0.51100000000E-03 0. -1.
         22    1    1    0    0    0  0.14388520596E+01 -0.11619902770E+02  0.26996250891E+02  0.29426008867E+02  0.00000000000E+00 0. -1.
</event>
<event>
 5    1  0.8778488E-005  0.9118800E+02  0.7818608E-02  0.1130116E+00
         25   -1    0    0    0    0  0.00000000000E+00  0.00000000000E+00  0.99999998245E-14  0.12500000000E+03  0.12500000000E+03 0.  0.
        -11    1    3    3    0    0  0.52275798834E+02 -0.19708552723E+02  0.10404740226E+02  0.56828204384E+02  0.51100000000E-03 0. -1.
         23    2    1    0    0    0  0.16883271287E+02 -0.91177657875E+01  0.22245423486E+02  0.95622502347E+02  0.90997942761E+02 0.  0.
         11    1    3    3    0    0 -0.35392527547E+02  0.10590786935E+02  0.11840683260E+02  0.38794297962E+02  0.51100000000E-03 0.  1.
         22    1    1    0    0    0 -0.16883271287E+02  0.91177657875E+01 -0.22245423486E+02  0.29377497653E+02  0.00000000000E+00 0. -1.
</event>
<event>
 5    1  0.8778488E-005  0.9118800E+02  0.7818608E-02  0.1130116E+00
         25   -1    0    0    0    0  0.00000000000E+00  0.00000000000E+00  0.99999998245E-14  0.12500000000E+03  0.12500000000E+03 0.  0.
        -11    1    3    3    0    0  0.23045215242E+02 -0.15453985485E+02 -0.24882965336E+02  0.37270223733E+02  0.51100000000E-03 0.  1.
         23    2    1    0    0    0  0.15263079013E+02  0.18897281962E+02  0.19442691142E+02  0.93885902145E+02  0.88580333800E+02 0.  0.
         11    1    3    3    0    0 -0.77821362290E+01  0.34351267447E+02  0.44325656478E+02  0.56615678412E+02  0.51100000000E-03 0. -1.
         22    1    1    0    0    0 -0.15263079013E+02 -0.18897281962E+02 -0.19442691142E+02  0.31114097855E+02  0.00000000000E+00 0. -1.
</event>
<event>
 5    1  0.8778488E-005  0.9118800E+02  0.7818608E-02  0.1130116E+00
         25   -1    0    0    0    0  0.00000000000E+00  0.00000000000E+00  0.99999998245E-14  0.12500000000E+03  0.12500000000E+03 0.  0.
        -11    1    3    3    0    0  0.24960938216E+02 -0.16963662527E+02  0.36422846340E+02  0.47301564655E+02  0.51100000000E-03 0.  1.
         23    2    1    0    0    0  0.25066321032E+02  0.95132381065E+01 -0.62027060743E+01  0.97480993623E+02  0.93516032881E+02 0.  0.
         11    1    3    3    0    0  0.10538281522E+00  0.26476900634E+02 -0.42625552415E+02  0.50179428969E+02  0.51100000000E-03 0. -1.
         22    1    1    0    0    0 -0.25066321032E+02 -0.95132381065E+01  0.62027060743E+01  0.27519006377E+02  0.00000000000E+00 0. -1.
</event>
<event>
 5    1  0.8778488E-005  0.9118800E+02  0.7818608E-02  0.1130116E+00
         25   -1    0    0    0    0  0.00000000000E+00  0.00000000000E+00  0.99999998245E-14  0.12500000000E+03  0.12500000000E+03 0.  0.
        -11    1    3    3    0    0  0.34415021675E+02  0.11730892220E+02  0.29531163621E+02  0.46841190999E+02  0.51100000000E-03 0.  1.
         23    2    1    0    0    0  0.33872725741E+01 -0.23965974153E+02  0.15816473841E+02  0.96086294299E+02  0.91632819311E+02 0.  0.
         11    1    3    3    0    0 -0.31027749100E+02 -0.35696866372E+02 -0.13714689780E+02  0.49245103300E+02  0.51100000000E-03 0. -1.
         22    1    1    0    0    0 -0.33872725741E+01  0.23965974153E+02 -0.15816473841E+02  0.28913705701E+02  0.00000000000E+00 0. -1.
</event>
<event>
 5    1  0.8778488E-005  0.9118800E+02  0.7818608E-02  0.1130116E+00
         25   -1    0    0    0    0  0.00000000000E+00  0.00000000000E+00  0.99999998245E-14  0.12500000000E+03  0.12500000000E+03 0.  0.
        -11    1    3    3    0    0  0.31570323472E+02  0.31342663139E+02 -0.43155067894E+02  0.61979091168E+02  0.51100000000E-03 0. -1.
         23    2    1    0    0    0  0.17627685234E+02  0.10047367689E+02 -0.21955119609E+02  0.95104980996E+02  0.90284246960E+02 0.  0.
         11    1    3    3    0    0 -0.13942638238E+02 -0.21295295450E+02  0.21199948285E+02  0.33125889828E+02  0.51100000000E-03 0.  1.
         22    1    1    0    0    0 -0.17627685234E+02 -0.10047367689E+02  0.21955119609E+02  0.29895019004E+02  0.00000000000E+00 0. -1.
</event>
<event>
 5    1  0.8778488E-005  0.9118800E+02  0.7818608E-02  0.1130116E+00
         25   -1    0    0    0    0  0.00000000000E+00  0.00000000000E+00  0.99999998245E-14  0.12500000000E+03  0.12500000000E+03 0.  0.
        -11    1    3    3    0    0  0.51083023794E+02  0.74072901792E+01 -0.18960496077E+02  0.54989486991E+02  0.51100000000E-03 0.  1.
         23    2    1    0    0    0  0.13587423617E+02  0.22435037317E+02 -0.12670160363E+02  0.95871286613E+02  0.91339047801E+02 0.  0.
         11    1    3    3    0    0 -0.37495600177E+02  0.15027747138E+02  0.62903357146E+01  0.40881799622E+02  0.51100000000E-03 0. -1.
         22    1    1    0    0    0 -0.13587423617E+02 -0.22435037317E+02  0.12670160363E+02  0.29128713387E+02  0.00000000000E+00 0.  1.
</event>
<event>
 5    1  0.8778488E-005  0.9118800E+02  0.7818608E-02  0.1130116E+00
         25   -1    0    0    0    0  0.00000000000E+00  0.00000000000E+00  0.99999998245E-14  0.12500000000E+03  0.12500000000E+03 0.  0.
        -11    1    3    3    0    0 -0.32491396188E+00  0.98662512612E+01  0.32879425566E+02  0.34329362196E+02  0.51100000000E-03 0. -1.
         23    2    1    0    0    0  0.12077666544E+02 -0.15081282351E+02 -0.21905205918E+02  0.95791214459E+02  0.91229401043E+02 0.  0.
         11    1    3    3    0    0  0.12402580506E+02 -0.24947533612E+02 -0.54784631483E+02  0.61461852263E+02  0.51100000000E-03 0.  1.
         22    1    1    0    0    0 -0.12077666544E+02  0.15081282351E+02  0.21905205918E+02  0.29208785541E+02  0.00000000000E+00 0.  1.
</event>
<event>
 5    1  0.8778488E-005  0.9118800E+02  0.7818608E-02  0.1130116E+00
         25   -1    0    0    0    0  0.00000000000E+00  0.00000000000E+00  0.99999998245E-14  0.12500000000E+03  0.12500000000E+03 0.  0.
        -11    1    3    3    0    0  0.14768300899E+02 -0.50282603062E+02 -0.25799955443E+02  0.58413017241E+02  0.51100000000E-03 0.  1.
         23    2    1    0    0    0 -0.25881974089E+00 -0.30080718308E+02  0.62395769158E+00  0.94911697874E+02  0.90016245582E+02 0.  0.
         11    1    3    3    0    0 -0.15027120640E+02  0.20201884753E+02  0.26423913135E+02  0.36498680633E+02  0.51100000000E-03 0. -1.
         22    1    1    0    0    0  0.25881974089E+00  0.30080718308E+02 -0.62395769158E+00  0.30088302126E+02  0.00000000000E+00 0.  1.
</event>
<event>
 5    1  0.8778488E-005  0.9118800E+02  0.7818608E-02  0.1130116E+00
         25   -1    0    0    0    0  0.00000000000E+00  0.00000000000E+00  0.99999998245E-14  0.12500000000E+03  0.12500000000E+03 0.  0.
        -11    1    3    3    0    0 -0.55328537788E+01  0.21870250449E+02 -0.28123921297E+02  0.36053783089E+02  0.51100000000E-03 0.  1.
         23    2    1    0    0    0 -0.39444771818E+02  0.23683000403E+01  0.20087780403E+01  0.85433169724E+02  0.75718507851E+02 0.  0.
         11    1    3    3    0    0 -0.33911918039E+02 -0.19501950409E+02  0.30132699338E+02  0.49379386635E+02  0.51100000000E-03 0. -1.
         22    1    1    0    0    0  0.39444771818E+02 -0.23683000403E+01 -0.20087780403E+01  0.39566830276E+02  0.00000000000E+00 0. -1.
</event>
<event>
 5    1  0.8778488E-005  0.9118800E+02  0.7818608E-02  0.1130116E+00
         25   -1    0    0    0    0  0.00000000000E+00  0.00000000000E+00  0.99999998245E-14  0.12500000000E+03  0.12500000000E+03 0.  0.
        -11    1    3    3    0    0  0.21100073066E+02 -0.42159103668E+01  0.57791605371E+02  0.61667306048E+02  0.51100000000E-03 0. -1.
         23    2    1    0    0    0  0.80660744675E+01 -0.89401279763E+01  0.27250489387E+02  0.95207775891E+02  0.90426456155E+02 0.  0.
         11    1    3    3    0    0 -0.13033998599E+02 -0.47242176095E+01 -0.30541115984E+02  0.33540469843E+02  0.51100000000E-03 0.  1.
         22    1    1    0    0    0 -0.80660744675E+01  0.89401279763E+01 -0.27250489387E+02  0.29792224109E+02  0.00000000000E+00 0. -1.
</event>
<event>
 5    1  0.8778488E-005  0.9118800E+02  0.7818608E-02  0.1130116E+00
         25   -1    0    0    0    0  0.00000000000E+00  0.00000000000E+00  0.99999998245E-14  0.12500000000E+03  0.12500000000E+03 0.  0.
        -11    1    3    3    0    0  0.28495663995E+02 -0.27512399191E+02  0.46195924887E+02  0.60852267437E+02  0.51100000000E-03 0.  1.
         23    2    1    0    0    0  0.21390584904E+02 -0.65509007819E+01  0.23581162107E+02  0.92495498313E+02  0.86596042510E+02 0.  0.
         11    1    3    3    0    0 -0.71050790906E+01  0.20961498409E+02 -0.22614762781E+02  0.31643230877E+02  0.51100000000E-03 0. -1.
         22    1    1    0    0    0 -0.21390584904E+02  0.65509007819E+01 -0.23581162107E+02  0.32504501687E+02  0.00000000000E+00 0.  1.
</event>
<event>
 5    1  0.8778488E-005  0.9118800E+02  0.7818608E-02  0.1130116E+00
         25   -1    0    0    0    0  0.00000000000E+00  0.00000000000E+00  0.99999998245E-14  0.12500000000E+03  0.12500000000E+03 0.  0.
        -11    1    3    3    0    0 -0.32542674357E+02 -0.47474949208E+02  0.25045931857E+01  0.57612233457E+02  0.51100000000E-03 0.  1.
         23    2    1    0    0    0 -0.16935601204E+02 -0.20837845493E+02 -0.16132884968E+02  0.93674285797E+02  0.88281206660E+02 0.  0.
         11    1    3    3    0    0  0.15607073153E+02  0.26637103716E+02 -0.18637478154E+02  0.36062052340E+02  0.51100000000E-03 0. -1.
         22    1    1    0    0    0  0.16935601204E+02  0.20837845493E+02  0.16132884968E+02  0.31325714203E+02  0.00000000000E+00 0.  1.
</event>
<event>
 5    1  0.8778488E-005  0.9118800E+02  0.7818608E-02  0.1130116E+00
         25   -1    0    0    0    0  0.00000000000E+00  0.00000000000E+00  0.99999998245E-14  0.12500000000E+03  0.12500000000E+03 0.  0.
        -11    1    3    3    0    0 -0.43416401625E+02 -0.10672362749E+02  0.93577536354E+01  0.45677683940E+02  0.51100000000E-03 0.  1.
         23    2    1    0    0    0  0.96521039207E+01  0.16383414415E+02  0.46092095746E+01  0.10543410644E+03  0.10360273457E+03 0.  0.
         11    1    3    3    0    0  0.53068505546E+02  0.27055777164E+02 -0.47485440607E+01  0.59756422498E+02  0.51100000000E-03 0. -1.
         22    1    1    0    0    0 -0.96521039207E+01 -0.16383414415E+02 -0.46092095746E+01  0.19565893562E+02  0.00000000000E+00 0. -1.
</event>
<event>
 5    1  0.8778488E-005  0.9118800E+02  0.7818608E-02  0.1130116E+00
         25   -1    0    0    0    0  0.00000000000E+00  0.00000000000E+00  0.99999998245E-14  0.12500000000E+03  0.12500000000E+03 0.  0.
        -11    1    3    3    0    0  0.10006874893E+02 -0.31091617328E+02 -0.24582262823E+02  0.40879259521E+02  0.51100000000E-03 0.  1.
         23    2    1    0    0    0  0.24370405849E+02  0.15572662837E+02  0.11226153426E+01  0.96057215505E+02  0.91593143173E+02 0.  0.
         11    1    3    3    0    0  0.14363530956E+02  0.46664280165E+02  0.25704878166E+02  0.55177955984E+02  0.51100000000E-03 0. -1.
         22    1    1    0    0    0 -0.24370405849E+02 -0.15572662837E+02 -0.11226153426E+01  0.28942784495E+02  0.00000000000E+00 0. -1.
</event>
<event>
 5    1  0.8778488E-005  0.9118800E+02  0.7818608E-02  0.1130116E+00
         25   -1    0    0    0    0  0.00000000000E+00  0.00000000000E+00  0.99999998245E-14  0.12500000000E+03  0.12500000000E+03 0.  0.
        -11    1    3    3    0    0  0.33553174533E+02  0.47220150740E+01 -0.47299814266E+02  0.58184064635E+02  0.51100000000E-03 0.  1.
         23    2    1    0    0    0  0.20502779085E+02  0.16785532584E+02 -0.16377193093E+02  0.93849871462E+02  0.88529474558E+02 0.  0.
         11    1    3    3    0    0 -0.13050395448E+02  0.12063517510E+02  0.30922621174E+02  0.35665806827E+02  0.51100000000E-03 0. -1.
         22    1    1    0    0    0 -0.20502779085E+02 -0.16785532584E+02  0.16377193093E+02  0.31150128538E+02  0.00000000000E+00 0.  1.
</event>
<event>
 5    1  0.8778488E-005  0.9118800E+02  0.7818608E-02  0.1130116E+00
         25   -1    0    0    0    0  0.00000000000E+00  0.00000000000E+00  0.99999998245E-14  0.12500000000E+03  0.12500000000E+03 0.  0.
        -11    1    3    3    0    0 -0.24512693379E+02 -0.27146677932E+02  0.16986690337E+02  0.40328177597E+02  0.51100000000E-03 0. -1.
         23    2    1    0    0    0  0.12996196683E+02  0.17189945491E+02  0.15559139580E+02  0.98420267521E+02  0.94763214805E+02 0.  0.
         11    1    3    3    0    0  0.37508890062E+02  0.44336623423E+02 -0.14275507573E+01  0.58092089924E+02  0.51100000000E-03 0.  1.
         22    1    1    0    0    0 -0.12996196683E+02 -0.17189945491E+02 -0.15559139580E+02  0.26579732479E+02  0.00000000000E+00 0.  1.
</event>
<event>
 5    1  0.8778488E-005  0.9118800E+02  0.7818608E-02  0.1130116E+00
         25   -1    0    0    0    0  0.00000000000E+00  0.00000000000E+00  0.99999998245E-14  0.12500000000E+03  0.12500000000E+03 0.  0.
        -11    1    3    3    0    0 -0.63685093303E+01  0.50366421959E+02  0.22855724292E+02  0.55675115673E+02  0.51100000000E-03 0.  1.
         23    2    1    0    0    0 -0.18097238390E+02  0.13106448429E+02  0.20283425534E+02  0.94822087892E+02  0.89891723607E+02 0.  0.
         11    1    3    3    0    0 -0.11728729060E+02 -0.37259973530E+02 -0.25722987581E+01  0.39146972219E+02  0.51100000000E-03 0. -1.
         22    1    1    0    0    0  0.18097238390E+02 -0.13106448429E+02 -0.20283425534E+02  0.30177912108E+02  0.00000000000E+00 0.  1.
</event>
<event>
 5    1  0.8778488E-005  0.9118800E+02  0.7818608E-02  0.1130116E+00
         25   -1    0    0    0    0  0.00000000000E+00  0.00000000000E+00  0.99999998245E-14  0.12500000000E+03  0.12500000000E+03 0.  0.
        -11    1    3    3    0    0  0.38027682837E+02 -0.30127647754E+01  0.47566950912E+01  0.38442262706E+02  0.51100000000E-03 0. -1.
         23    2    1    0    0    0 -0.10259394069E+01  0.12124092108E+02 -0.29844531641E+02  0.92770475803E+02  0.86992062573E+02 0.  0.
         11    1    3    3    0    0 -0.39053622244E+02  0.15136856884E+02 -0.34601226732E+02  0.54328213097E+02  0.51100000000E-03 0.  1.
         22    1    1    0    0    0  0.10259394069E+01 -0.12124092108E+02  0.29844531641E+02  0.32229524197E+02  0.00000000000E+00 0.  1.
</event>
<event>
 5    1  0.8778488E-005  0.9118800E+02  0.7818608E-02  0.1130116E+00
         25   -1    0    0    0    0  0.00000000000E+00  0.00000000000E+00  0.99999998245E-14  0.12500000000E+03  0.12500000000E+03 0.  0.
        -11    1    3    3    0    0 -0.25008840377E+02  0.67143456726E+01 -0.21610667344E+02  0.33727518114E+02  0.51100000000E-03 0. -1.
         23    2    1    0    0    0  0.26520897135E+02 -0.93177074530E+00  0.12159360672E+02  0.95809655132E+02  0.91254664445E+02 0.  0.
         11    1    3    3    0    0  0.51529737512E+02 -0.76461164179E+01  0.33770028016E+02  0.62082137018E+02  0.51100000000E-03 0.  1.
         22    1    1    0    0    0 -0.26520897135E+02  0.93177074530E+00 -0.12159360672E+02  0.29190344868E+02  0.00000000000E+00 0.  1.
</event>
<event>
 5    1  0.8778488E-005  0.9118800E+02  0.7818608E-02  0.1130116E+00
         25   -1    0    0    0    0  0.00000000000E+00  0.00000000000E+00  0.99999998245E-14  0.12500000000E+03  0.12500000000E+03 0.  0.
        -11    1    3    3    0    0  0.33960839261E+02  0.25153691742E+02 -0.24395060870E+02  0.48797190561E+02  0.51100000000E-03 0. -1.
         23    2    1    0    0    0  0.23681112411E+02 -0.15841133416E+02 -0.24903914932E+01  0.96400373381E+02  0.92060270178E+02 0.  0.
         11    1    3    3    0    0 -0.10279726849E+02 -0.40994825158E+02  0.21904669377E+02  0.47603182820E+02  0.51100000000E-03 0.  1.
         22    1    1    0    0    0 -0.23681112411E+02  0.15841133416E+02  0.24903914932E+01  0.28599626619E+02  0.00000000000E+00 0.  1.
</event>
<event>
 5    1  0.8778488E-005  0.9118800E+02  0.7818608E-02  0.1130116E+00
         25   -1    0    0    0    0  0.00000000000E+00  0.00000000000E+00  0.99999998245E-14  0.12500000000E+03  0.12500000000E+03 0.  0.
        -11    1    3    3    0    0 -0.21198531734E+02 -0.23800037401E+02 -0.44957258004E+02  0.55108752258E+02  0.51100000000E-03 0.  1.
         23    2    1    0    0    0 -0.19047385728E+01  0.78213539028E+01 -0.28032082760E+02  0.95834964945E+02  0.91289327066E+02 0.  0.
         11    1    3    3    0    0  0.19293793161E+02  0.31621391304E+02  0.16925175243E+02  0.40726212687E+02  0.51100000000E-03 0. -1.
         22    1    1    0    0    0  0.19047385728E+01 -0.78213539028E+01  0.28032082760E+02  0.29165035055E+02  0.00000000000E+00 0.  1.
</event>
<event>
 5    1  0.8778488E-005  0.9118800E+02  0.7818608E-02  0.1130116E+00
         25   -1    0    0    0    0  0.00000000000E+00  0.00000000000E+00  0.99999998245E-14  0.12500000000E+03  0.12500000000E+03 0.  0.
        -11    1    3    3    0    0 -0.42133278137E+02 -0.34444646568E+02 -0.24518720086E+02  0.59689315951E+02  0.51100000000E-03 0.  1.
         23    2    1    0    0    0 -0.10064728245E+02 -0.21351691849E+02 -0.18857854408E+02  0.94787218394E+02  0.89843222330E+02 0.  0.
         11    1    3    3    0    0  0.32068549892E+02  0.13092954719E+02  0.56608656776E+01  0.35097902444E+02  0.51100000000E-03 0. -1.
         22    1    1    0    0    0  0.10064728245E+02  0.21351691849E+02  0.18857854408E+02  0.30212781606E+02  0.00000000000E+00 0.  1.
</event>
<event>
 5    1  0.8778488E-005  0.9118800E+02  0.7818608E-02  0.1130116E+00
         25   -1    0    0    0    0  0.00000000000E+00  0.00000000000E+00  0.99999998245E-14  0.12500000000E+03  0.12500000000E+03 0.  0.
        -11    1    3    3    0    0  0.17785820933E+02  0.31132046799E+02  0.27161858499E+02  0.44981177414E+02  0.51100000000E-03 0.  1.
         23    2    1    0    0    0 -0.50149695397E+01  0.91517269173E+01 -0.20378598020E+02  0.10210477599E+03  0.99504743597E+02 0.  0.
         11    1    3    3    0    0 -0.22800790472E+02 -0.21980319882E+02 -0.47540456520E+02  0.57123598579E+02  0.51100000000E-03 0. -1.
         22    1    1    0    0    0  0.50149695397E+01 -0.91517269173E+01  0.20378598020E+02  0.22895224007E+02  0.00000000000E+00 0. -1.
</event>
<event>
 5    1  0.8778488E-005  0.9118800E+02  0.7818608E-02  0.1130116E+00
         25   -1    0    0    0    0  0.00000000000E+00  0.00000000000E+00  0.99999998245E-14  0.12500000000E+03  0.12500000000E+03 0.  0.
        -11    1    3    3    0    0  0.10118449475E+02  0.40195842502E+02 -0.21790885283E+01  0.41507074112E+02  0.51100000000E-03 0.  1.
         23    2    1    0    0    0  0.27432843483E+02 -0.10549169271E+02  0.33936366186E+01  0.95413471928E+02  0.90710352122E+02 0.  0.
         11    1    3    3    0    0  0.17314394007E+02 -0.50745011773E+02  0.55727251468E+01  0.53906397816E+02  0.51100000000E-03 0. -1.
         22    1    1    0    0    0 -0.27432843483E+02  0.10549169271E+02 -0.33936366186E+01  0.29586528072E+02  0.00000000000E+00 0. -1.
</event>
<event>
 5    1  0.8778488E-005  0.9118800E+02  0.7818608E-02  0.1130116E+00
         25   -1    0    0    0    0  0.00000000000E+00  0.00000000000E+00  0.99999998245E-14  0.12500000000E+03  0.12500000000E+03 0.  0.
        -11    1    3    3    0    0 -0.40093546102E+02 -0.83776397205E+01  0.24775263858E+02  0.47869520426E+02  0.51100000000E-03 0. -1.
         23    2    1    0    0    0  0.72517893918E+01 -0.37629075641E+01  0.28275518717E+02  0.95567825744E+02  0.90922804818E+02 0.  0.
         11    1    3    3    0    0  0.47345335494E+02  0.46147321563E+01  0.35002548596E+01  0.47698305318E+02  0.51100000000E-03 0.  1.
         22    1    1    0    0    0 -0.72517893918E+01  0.37629075641E+01 -0.28275518717E+02  0.29432174256E+02  0.00000000000E+00 0.  1.
</event>
<event>
 5    1  0.8778488E-005  0.9118800E+02  0.7818608E-02  0.1130116E+00
         25   -1    0    0    0    0  0.00000000000E+00  0.00000000000E+00  0.99999998245E-14  0.12500000000E+03  0.12500000000E+03 0.  0.
        -11    1    3    3    0    0  0.18826082943E+02  0.75455303944E+00 -0.58145483934E+02  0.61121911385E+02  0.51100000000E-03 0.  1.
         23    2    1    0    0    0  0.80936016052E+01 -0.88863638543E+01 -0.26792672858E+02  0.95634694478E+02  0.91014689032E+02 0.  0.
         11    1    3    3    0    0 -0.10732481338E+02 -0.96409168937E+01  0.31352811075E+02  0.34512783093E+02  0.51100000000E-03 0. -1.
         22    1    1    0    0    0 -0.80936016052E+01  0.88863638543E+01  0.26792672858E+02  0.29365305522E+02  0.00000000000E+00 0.  1.
</event>
<event>
 5    1  0.8778488E-005  0.9118800E+02  0.7818608E-02  0.1130116E+00
         25   -1    0    0    0    0  0.00000000000E+00  0.00000000000E+00  0.99999998245E-14  0.12500000000E+03  0.12500000000E+03 0.  0.
        -11    1    3    3    0    0  0.20998300410E+02  0.24567084942E+02 -0.20604811393E+02  0.38327908049E+02  0.51100000000E-03 0.  1.
         23    2    1    0    0    0  0.63679526524E+01 -0.28384655144E+02 -0.96977148411E+01  0.94335930770E+02  0.89213130718E+02 0.  0.
         11    1    3    3    0    0 -0.14630347757E+02 -0.52951740086E+02  0.10907096551E+02  0.56008022721E+02  0.51100000000E-03 0. -1.
         22    1    1    0    0    0 -0.63679526524E+01  0.28384655144E+02  0.96977148411E+01  0.30664069230E+02  0.00000000000E+00 0. -1.
</event>
<event>
 5    1  0.8778488E-005  0.9118800E+02  0.7818608E-02  0.1130116E+00
         25   -1    0    0    0    0  0.00000000000E+00  0.00000000000E+00  0.99999998245E-14  0.12500000000E+03  0.12500000000E+03 0.  0.
        -11    1    3    3    0    0 -0.73803681859E+01  0.37911556709E+02 -0.14496063175E+02  0.41253991498E+02  0.51100000000E-03 0. -1.
         23    2    1    0    0    0  0.28006199993E+02 -0.90841418002E+00  0.34598473541E+01  0.96766279061E+02  0.92555765704E+02 0.  0.
         11    1    3    3    0    0  0.35386568179E+02 -0.38819970889E+02  0.17955910529E+02  0.55512287563E+02  0.51100000000E-03 0.  1.
         22    1    1    0    0    0 -0.28006199993E+02  0.90841418002E+00 -0.34598473541E+01  0.28233720939E+02  0.00000000000E+00 0.  1.
</event>
<event>
 5    1  0.8778488E-005  0.9118800E+02  0.7818608E-02  0.1130116E+00
         25   -1    0    0    0    0  0.00000000000E+00  0.00000000000E+00  0.99999998245E-14  0.12500000000E+03  0.12500000000E+03 0.  0.
        -11    1    3    3    0    0  0.14318001697E+02 -0.21611542668E+02 -0.30059194406E+02  0.39694069049E+02  0.51100000000E-03 0. -1.
         23    2    1    0    0    0 -0.17552250945E+02  0.20405102406E+02 -0.74511711898E+01  0.97072062920E+02  0.92967820939E+02 0.  0.
         11    1    3    3    0    0 -0.31870252642E+02  0.42016645074E+02  0.22608023216E+02  0.57377993871E+02  0.51100000000E-03 0.  1.
         22    1    1    0    0    0  0.17552250945E+02 -0.20405102406E+02  0.74511711898E+01  0.27927937080E+02  0.00000000000E+00 0.  1.
</event>
<event>
 5    1  0.8778488E-005  0.9118800E+02  0.7818608E-02  0.1130116E+00
         25   -1    0    0    0    0  0.00000000000E+00  0.00000000000E+00  0.99999998245E-14  0.12500000000E+03  0.12500000000E+03 0.  0.
        -11    1    3    3    0    0 -0.74832787033E+01  0.33497542735E+02  0.24706276440E+02  0.42290482679E+02  0.51100000000E-03 0.  1.
         23    2    1    0    0    0  0.10720133509E+02  0.12822728743E+02 -0.22515229800E+02  0.96959329398E+02  0.92816121172E+02 0.  0.
         11    1    3    3    0    0  0.18203412213E+02 -0.20674813992E+02 -0.47221506240E+02  0.54668846719E+02  0.51100000000E-03 0. -1.
         22    1    1    0    0    0 -0.10720133509E+02 -0.12822728743E+02  0.22515229800E+02  0.28040670602E+02  0.00000000000E+00 0. -1.
</event>
<event>
 5    1  0.8778488E-005  0.9118800E+02  0.7818608E-02  0.1130116E+00
         25   -1    0    0    0    0  0.00000000000E+00  0.00000000000E+00  0.99999998245E-14  0.12500000000E+03  0.12500000000E+03 0.  0.
        -11    1    3    3    0    0  0.19998155584E+02  0.31356523985E+02 -0.11046961257E+01  0.37207232859E+02  0.51100000000E-03 0. -1.
         23    2    1    0    0    0 -0.98823640094E+01 -0.14637829487E+02  0.22055267787E+02  0.96744699476E+02  0.92526617084E+02 0.  0.
         11    1    3    3    0    0 -0.29880519594E+02 -0.45994353473E+02  0.23159963913E+02  0.59537466618E+02  0.51100000000E-03 0.  1.
         22    1    1    0    0    0  0.98823640094E+01  0.14637829487E+02 -0.22055267787E+02  0.28255300524E+02  0.00000000000E+00 0.  1.
</event>
<event>
 5    1  0.8778488E-005  0.9118800E+02  0.7818608E-02  0.1130116E+00
         25   -1    0    0    0    0  0.00000000000E+00  0.00000000000E+00  0.99999998245E-14  0.12500000000E+03  0.12500000000E+03 0.  0.
        -11    1    3    3    0    0  0.19546877701E+02  0.33905054594E+02  0.59938559528E+01  0.39592416753E+02  0.51100000000E-03 0. -1.
         23    2    1    0    0    0  0.96870083466E+01 -0.21358736176E+02  0.15994002941E+02  0.96612645918E+02  0.92348045347E+02 0.  0.
         11    1    3    3    0    0 -0.98598693546E+01 -0.55263790770E+02  0.10000146988E+02  0.57020229165E+02  0.51100000000E-03 0.  1.
         22    1    1    0    0    0 -0.96870083466E+01  0.21358736176E+02 -0.15994002941E+02  0.28387354082E+02  0.00000000000E+00 0.  1.
</event>
<event>
 5    1  0.8778488E-005  0.9118800E+02  0.7818608E-02  0.1130116E+00
         25   -1    0    0    0    0  0.00000000000E+00  0.00000000000E+00  0.99999998245E-14  0.12500000000E+03  0.12500000000E+03 0.  0.
        -11    1    3    3    0    0 -0.67815931057E+01  0.15188390262E+01  0.27573102118E+02  0.28435415202E+02  0.51100000000E-03 0. -1.
         23    2    1    0    0    0 -0.16702490773E+02  0.23003280057E+02 -0.25668104518E+02  0.86698881467E+02  0.77779948358E+02 0.  0.
         11    1    3    3    0    0 -0.99208976675E+01  0.21484441030E+02 -0.53241206635E+02  0.58263466265E+02  0.51100000000E-03 0.  1.
         22    1    1    0    0    0  0.16702490773E+02 -0.23003280057E+02  0.25668104518E+02  0.38301118533E+02  0.00000000000E+00 0.  1.
</event>
<event>
 5    1  0.8778488E-005  0.9118800E+02  0.7818608E-02  0.1130116E+00
         25   -1    0    0    0    0  0.00000000000E+00  0.00000000000E+00  0.99999998245E-14  0.12500000000E+03  0.12500000000E+03 0.  0.
        -11    1    3    3    0    0 -0.14314192163E+02 -0.32766430986E+02  0.41476048663E+01  0.35996357082E+02  0.51100000000E-03 0.  1.
         23    2    1    0    0    0 -0.11387410409E+02  0.21743393453E+02 -0.17641883942E+02  0.94772788027E+02  0.89823142935E+02 0.  0.
         11    1    3    3    0    0  0.29267817539E+01  0.54509824438E+02 -0.21789488809E+02  0.58776430944E+02  0.51100000000E-03 0. -1.
         22    1    1    0    0    0  0.11387410409E+02 -0.21743393453E+02  0.17641883942E+02  0.30227211973E+02  0.00000000000E+00 0. -1.
</event>
<event>
 5    1  0.8778488E-005  0.9118800E+02  0.7818608E-02  0.1130116E+00
         25   -1    0    0    0    0  0.00000000000E+00  0.00000000000E+00  0.99999998245E-14  0.12500000000E+03  0.12500000000E+03 0.  0.
        -11    1    3    3    0    0  0.15367735859E+01 -0.30705954948E+02 -0.28962189179E+02  0.42237728923E+02  0.51100000000E-03 0. -1.
         23    2    1    0    0    0  0.32230904303E+02 -0.11832220806E+01 -0.19104573147E+01  0.92690851855E+02  0.86877574574E+02 0.  0.
         11    1    3    3    0    0  0.30694130717E+02  0.29522732868E+02  0.27051731864E+02  0.50453122932E+02  0.51100000000E-03 0.  1.
         22    1    1    0    0    0 -0.32230904303E+02  0.11832220806E+01  0.19104573147E+01  0.32309148145E+02  0.00000000000E+00 0.  1.
</event>
<event>
 5    1  0.8778488E-005  0.9118800E+02  0.7818608E-02  0.1130116E+00
         25   -1    0    0    0    0  0.00000000000E+00  0.00000000000E+00  0.99999998245E-14  0.12500000000E+03  0.12500000000E+03 0.  0.
        -11    1    3    3    0    0 -0.28060104942E+02 -0.89392550176E+01  0.24100265404E+02  0.38053942797E+02  0.51100000000E-03 0. -1.
         23    2    1    0    0    0  0.22366306371E+02  0.15737243639E+02  0.93212722872E+01  0.96107118263E+02  0.91661221712E+02 0.  0.
         11    1    3    3    0    0  0.50426411313E+02  0.24676498657E+02 -0.14778993117E+02  0.58053175465E+02  0.51100000000E-03 0.  1.
         22    1    1    0    0    0 -0.22366306371E+02 -0.15737243639E+02 -0.93212722872E+01  0.28892881737E+02  0.00000000000E+00 0.  1.
</event>
<event>
 5    1  0.8778488E-005  0.9118800E+02  0.7818608E-02  0.1130116E+00
         25   -1    0    0    0    0  0.00000000000E+00  0.00000000000E+00  0.99999998245E-14  0.12500000000E+03  0.12500000000E+03 0.  0.
        -11    1    3    3    0    0  0.42026124991E+01 -0.37916659435E+02  0.70352999811E+01  0.38792144316E+02  0.51100000000E-03 0.  1.
         23    2    1    0    0    0  0.92514997203E+01  0.16151379989E+02  0.23017318297E+02  0.95398407742E+02  0.90689591109E+02 0.  0.
         11    1    3    3    0    0  0.50488872212E+01  0.54068039424E+02  0.15982018316E+02  0.56606263426E+02  0.51100000000E-03 0. -1.
         22    1    1    0    0    0 -0.92514997203E+01 -0.16151379989E+02 -0.23017318297E+02  0.29601592258E+02  0.00000000000E+00 0. -1.
</event>
<event>
 5    1  0.8778488E-005  0.9118800E+02  0.7818608E-02  0.1130116E+00
         25   -1    0    0    0    0  0.00000000000E+00  0.00000000000E+00  0.99999998245E-14  0.12500000000E+03  0.12500000000E+03 0.  0.
        -11    1    3    3    0    0 -0.19184176279E+02 -0.13514127037E+02  0.39616243815E+02  0.46044663353E+02  0.51100000000E-03 0. -1.
         23    2    1    0    0    0  0.12175566093E+02  0.18778271753E+02  0.19368554333E+02  0.95402554221E+02  0.90695306137E+02 0.  0.
         11    1    3    3    0    0  0.31359742372E+02  0.32292398790E+02 -0.20247689482E+02  0.49357890867E+02  0.51100000000E-03 0.  1.
         22    1    1    0    0    0 -0.12175566093E+02 -0.18778271753E+02 -0.19368554333E+02  0.29597445779E+02  0.00000000000E+00 0.  1.
</event>
<event>
 5    1  0.8778488E-005  0.9118800E+02  0.7818608E-02  0.1130116E+00
         25   -1    0    0    0    0  0.00000000000E+00  0.00000000000E+00  0.99999998245E-14  0.12500000000E+03  0.12500000000E+03 0.  0.
        -11    1    3    3    0    0 -0.34606312615E+02 -0.22074847998E+01 -0.48855481612E+02  0.59911000206E+02  0.51100000000E-03 0. -1.
         23    2    1    0    0    0 -0.28101956701E+02 -0.83064990957E+01 -0.21578421467E+02  0.88608432699E+02  0.80790520327E+02 0.  0.
         11    1    3    3    0    0  0.65043559140E+01 -0.60990142959E+01  0.27277060145E+02  0.28697432492E+02  0.51100000000E-03 0.  1.
         22    1    1    0    0    0  0.28101956701E+02  0.83064990957E+01  0.21578421467E+02  0.36391567301E+02  0.00000000000E+00 0. -1.
</event>
<event>
 5    1  0.8778488E-005  0.9118800E+02  0.7818608E-02  0.1130116E+00
         25   -1    0    0    0    0  0.00000000000E+00  0.00000000000E+00  0.99999998245E-14  0.12500000000E+03  0.12500000000E+03 0.  0.
        -11    1    3    3    0    0  0.28295692465E+02 -0.38850797016E+02 -0.38629835375E+02  0.61662750687E+02  0.51100000000E-03 0. -1.
         23    2    1    0    0    0  0.17469880671E+02 -0.18478373527E+02 -0.12044029420E+02  0.96862735322E+02  0.92685941925E+02 0.  0.
         11    1    3    3    0    0 -0.10825811794E+02  0.20372423489E+02  0.26585805955E+02  0.35199984636E+02  0.51100000000E-03 0.  1.
         22    1    1    0    0    0 -0.17469880671E+02  0.18478373527E+02  0.12044029420E+02  0.28137264678E+02  0.00000000000E+00 0. -1.
</event>
<event>
 5    1  0.8778488E-005  0.9118800E+02  0.7818608E-02  0.1130116E+00
         25   -1    0    0    0    0  0.00000000000E+00  0.00000000000E+00  0.99999998245E-14  0.12500000000E+03  0.12500000000E+03 0.  0.
        -11    1    3    3    0    0 -0.44798484445E+02 -0.18000713226E+02 -0.17767502533E+02  0.51445252762E+02  0.51100000000E-03 0.  1.
         23    2    1    0    0    0 -0.19067723424E+02  0.18327659771E+02 -0.10461302395E+02  0.96558480402E+02  0.92274699136E+02 0.  0.
         11    1    3    3    0    0  0.25730761022E+02  0.36328372997E+02  0.73062001381E+01  0.45113227640E+02  0.51100000000E-03 0. -1.
         22    1    1    0    0    0  0.19067723424E+02 -0.18327659771E+02  0.10461302395E+02  0.28441519598E+02  0.00000000000E+00 0.  1.
</event>
<event>
 5    1  0.8778488E-005  0.9118800E+02  0.7818608E-02  0.1130116E+00
         25   -1    0    0    0    0  0.00000000000E+00  0.00000000000E+00  0.99999998245E-14  0.12500000000E+03  0.12500000000E+03 0.  0.
        -11    1    3    3    0    0  0.88401745316E+01  0.32823653247E+02 -0.13336302381E+02  0.36515720720E+02  0.51100000000E-03 0. -1.
         23    2    1    0    0    0 -0.12403001507E+02 -0.20358173290E+02 -0.19617947001E+02  0.94126815671E+02  0.88919648659E+02 0.  0.
         11    1    3    3    0    0 -0.21243176039E+02 -0.53181826537E+02 -0.62816446192E+01  0.57611094951E+02  0.51100000000E-03 0.  1.
         22    1    1    0    0    0  0.12403001507E+02  0.20358173290E+02  0.19617947001E+02  0.30873184329E+02  0.00000000000E+00 0.  1.
</event>
<event>
 5    1  0.8778488E-005  0.9118800E+02  0.7818608E-02  0.1130116E+00
         25   -1    0    0    0    0  0.00000000000E+00  0.00000000000E+00  0.99999998245E-14  0.12500000000E+03  0.12500000000E+03 0.  0.
        -11    1    3    3    0    0 -0.37681263693E+02 -0.69472450350E+01  0.64136971494E+01  0.38849419023E+02  0.51100000000E-03 0. -1.
         23    2    1    0    0    0  0.61362207782E+01  0.13201140850E+02 -0.24761598002E+02  0.96276141262E+02  0.91891432221E+02 0.  0.
         11    1    3    3    0    0  0.43817484471E+02  0.20148385885E+02 -0.31175295151E+02  0.57426722239E+02  0.51100000000E-03 0.  1.
         22    1    1    0    0    0 -0.61362207782E+01 -0.13201140850E+02  0.24761598002E+02  0.28723858738E+02  0.00000000000E+00 0.  1.
</event>
<event>
 5    1  0.8778488E-005  0.9118800E+02  0.7818608E-02  0.1130116E+00
         25   -1    0    0    0    0  0.00000000000E+00  0.00000000000E+00  0.99999998245E-14  0.12500000000E+03  0.12500000000E+03 0.  0.
        -11    1    3    3    0    0  0.66045701440E+01 -0.13982513673E+02 -0.32648156332E+02  0.36125242526E+02  0.51100000000E-03 0. -1.
         23    2    1    0    0    0 -0.15545948028E+02  0.26209523452E+02  0.32007619422E+01  0.94359169452E+02  0.89245685402E+02 0.  0.
         11    1    3    3    0    0 -0.22150518172E+02  0.40192037125E+02  0.35848918274E+02  0.58233926926E+02  0.51100000000E-03 0.  1.
         22    1    1    0    0    0  0.15545948028E+02 -0.26209523452E+02 -0.32007619422E+01  0.30640830548E+02  0.00000000000E+00 0.  1.
</event>
<event>
 5    1  0.8778488E-005  0.9118800E+02  0.7818608E-02  0.1130116E+00
         25   -1    0    0    0    0  0.00000000000E+00  0.00000000000E+00  0.99999998245E-14  0.12500000000E+03  0.12500000000E+03 0.  0.
        -11    1    3    3    0    0 -0.47706629871E+02  0.18981026064E+02  0.48349660076E+01  0.51571104125E+02  0.51100000000E-03 0.  1.
         23    2    1    0    0    0 -0.17339075579E+02 -0.10898184417E+02  0.19593264347E+02  0.96657276537E+02  0.92408436489E+02 0.  0.
         11    1    3    3    0    0  0.30367554293E+02 -0.29879210481E+02  0.14758298339E+02  0.45086172413E+02  0.51100000000E-03 0. -1.
         22    1    1    0    0    0  0.17339075579E+02  0.10898184417E+02 -0.19593264347E+02  0.28342723463E+02  0.00000000000E+00 0.  1.
</event>
<event>
 5    1  0.8778488E-005  0.9118800E+02  0.7818608E-02  0.1130116E+00
         25   -1    0    0    0    0  0.00000000000E+00  0.00000000000E+00  0.99999998245E-14  0.12500000000E+03  0.12500000000E+03 0.  0.
        -11    1    3    3    0    0 -0.37575968963E+02 -0.74553337904E+01  0.36440457748E+02  0.52871943472E+02  0.51100000000E-03 0. -1.
         23    2    1    0    0    0 -0.21757630475E+01 -0.22451918878E+02  0.20596135033E+02  0.94454568517E+02  0.89379204121E+02 0.  0.
         11    1    3    3    0    0  0.35400205915E+02 -0.14996585087E+02 -0.15844322714E+02  0.41582625045E+02  0.51100000000E-03 0.  1.
         22    1    1    0    0    0  0.21757630475E+01  0.22451918878E+02 -0.20596135033E+02  0.30545431483E+02  0.00000000000E+00 0. -1.
</event>
<event>
 5    1  0.8778488E-005  0.9118800E+02  0.7818608E-02  0.1130116E+00
         25   -1    0    0    0    0  0.00000000000E+00  0.00000000000E+00  0.99999998245E-14  0.12500000000E+03  0.12500000000E+03 0.  0.
        -11    1    3    3    0    0 -0.15798247801E+02 -0.36795949124E+02 -0.23244542541E+00  0.40044731697E+02  0.51100000000E-03 0.  1.
         23    2    1    0    0    0 -0.24241643272E+02  0.13068665112E+02 -0.16161268833E+02  0.93068293397E+02  0.87418953032E+02 0.  0.
         11    1    3    3    0    0 -0.84433954712E+01  0.49864614236E+02 -0.15928823408E+02  0.53023561700E+02  0.51100000000E-03 0. -1.
         22    1    1    0    0    0  0.24241643272E+02 -0.13068665112E+02  0.16161268833E+02  0.31931706603E+02  0.00000000000E+00 0. -1.
</event>
<event>
 5    1  0.8778488E-005  0.9118800E+02  0.7818608E-02  0.1130116E+00
         25   -1    0    0    0    0  0.00000000000E+00  0.00000000000E+00  0.99999998245E-14  0.12500000000E+03  0.12500000000E+03 0.  0.
        -11    1    3    3    0    0 -0.11448782142E+02 -0.46569379311E+02 -0.51338612849E+01  0.48230055296E+02  0.51100000000E-03 0. -1.
         23    2    1    0    0    0 -0.20192776645E+02 -0.82225288134E+01  0.20415502431E+02  0.95131104000E+02  0.90320407439E+02 0.  0.
         11    1    3    3    0    0 -0.87439945036E+01  0.38346850497E+02  0.25549363716E+02  0.46901048704E+02  0.51100000000E-03 0.  1.
         22    1    1    0    0    0  0.20192776645E+02  0.82225288134E+01 -0.20415502431E+02  0.29868896000E+02  0.00000000000E+00 0.  1.
</event>
<event>
 5    1  0.8778488E-005  0.9118800E+02  0.7818608E-02  0.1130116E+00
         25   -1    0    0    0    0  0.00000000000E+00  0.00000000000E+00  0.99999998245E-14  0.12500000000E+03  0.12500000000E+03 0.  0.
        -11    1    3    3    0    0 -0.21615115015E+02  0.10117921903E+02  0.19016700684E+02  0.30515904803E+02  0.51100000000E-03 0. -1.
         23    2    1    0    0    0  0.35114793627E+02  0.12965653526E+01  0.73138379531E+01  0.89108189809E+02  0.81560084920E+02 0.  0.
         11    1    3    3    0    0  0.56729908642E+02 -0.88213565504E+01 -0.11702862731E+02  0.58592285006E+02  0.51100000000E-03 0.  1.
         22    1    1    0    0    0 -0.35114793627E+02 -0.12965653526E+01 -0.73138379531E+01  0.35891810191E+02  0.00000000000E+00 0.  1.
</event>
<event>
 5    1  0.8778488E-005  0.9118800E+02  0.7818608E-02  0.1130116E+00
         25   -1    0    0    0    0  0.00000000000E+00  0.00000000000E+00  0.99999998245E-14  0.12500000000E+03  0.12500000000E+03 0.  0.
        -11    1    3    3    0    0  0.33457066527E+02  0.36306035535E+02 -0.26902666786E+02  0.56225056668E+02  0.51100000000E-03 0. -1.
         23    2    1    0    0    0  0.28694955425E+02  0.47331246784E+01 -0.37266471144E+01  0.95679515100E+02  0.91076225081E+02 0.  0.
         11    1    3    3    0    0 -0.47621111024E+01 -0.31572910856E+02  0.23176019671E+02  0.39454458432E+02  0.51100000000E-03 0.  1.
         22    1    1    0    0    0 -0.28694955425E+02 -0.47331246784E+01  0.37266471144E+01  0.29320484900E+02  0.00000000000E+00 0. -1.
</event>
<event>
 5    1  0.8778488E-005  0.9118800E+02  0.7818608E-02  0.1130116E+00
         25   -1    0    0    0    0  0.00000000000E+00  0.00000000000E+00  0.99999998245E-14  0.12500000000E+03  0.12500000000E+03 0.  0.
        -11    1    3    3    0    0  0.24991063604E+02  0.31355299376E+02 -0.32982396179E+02  0.51918652881E+02  0.51100000000E-03 0.  1.
         23    2    1    0    0    0  0.87923536752E+01 -0.74301048962E+01 -0.28589779158E+02  0.94179756422E+02  0.88994039719E+02 0.  0.
         11    1    3    3    0    0 -0.16198709929E+02 -0.38785404272E+02  0.43926170213E+01  0.42261103540E+02  0.51100000000E-03 0. -1.
         22    1    1    0    0    0 -0.87923536752E+01  0.74301048962E+01  0.28589779158E+02  0.30820243578E+02  0.00000000000E+00 0.  1.
</event>
<event>
 5    1  0.8778488E-005  0.9118800E+02  0.7818608E-02  0.1130116E+00
         25   -1    0    0    0    0  0.00000000000E+00  0.00000000000E+00  0.99999998245E-14  0.12500000000E+03  0.12500000000E+03 0.  0.
        -11    1    3    3    0    0 -0.15926144166E+02 -0.29913885258E+02 -0.43248588321E+02  0.54944726692E+02  0.51100000000E-03 0.  1.
         23    2    1    0    0    0 -0.11209527495E+02 -0.20623918892E+02  0.20605850853E+01  0.10143635113E+03  0.98661480744E+02 0.  0.
         11    1    3    3    0    0  0.47166166712E+01  0.92899663655E+01  0.45309173406E+02  0.46491624439E+02  0.51100000000E-03 0. -1.
         22    1    1    0    0    0  0.11209527495E+02  0.20623918892E+02 -0.20605850853E+01  0.23563648869E+02  0.00000000000E+00 0.  1.
</event>
<event>
 5    1  0.8778488E-005  0.9118800E+02  0.7818608E-02  0.1130116E+00
         25   -1    0    0    0    0  0.00000000000E+00  0.00000000000E+00  0.99999998245E-14  0.12500000000E+03  0.12500000000E+03 0.  0.
        -11    1    3    3    0    0  0.29553283120E+02 -0.25317199403E+02  0.17232219112E+01  0.38952876951E+02  0.51100000000E-03 0. -1.
         23    2    1    0    0    0 -0.25832112514E+02 -0.13609617427E+02 -0.23443561284E+01  0.95708094478E+02  0.91115441170E+02 0.  0.
         11    1    3    3    0    0 -0.55385395633E+02  0.11707581976E+02 -0.40675780396E+01  0.56755217527E+02  0.51100000000E-03 0.  1.
         22    1    1    0    0    0  0.25832112514E+02  0.13609617427E+02  0.23443561284E+01  0.29291905522E+02  0.00000000000E+00 0.  1.
</event>
<event>
 5    1  0.8778488E-005  0.9118800E+02  0.7818608E-02  0.1130116E+00
         25   -1    0    0    0    0  0.00000000000E+00  0.00000000000E+00  0.99999998245E-14  0.12500000000E+03  0.12500000000E+03 0.  0.
        -11    1    3    3    0    0  0.51749237890E+01 -0.13987824745E+02 -0.33954520469E+02  0.37085691822E+02  0.51100000000E-03 0. -1.
         23    2    1    0    0    0  0.49320797552E+01  0.15822101245E+02  0.20180716225E+02  0.98886294674E+02  0.95375959594E+02 0.  0.
         11    1    3    3    0    0 -0.24284403373E+00  0.29809925990E+02  0.54135236694E+02  0.61800602852E+02  0.51100000000E-03 0.  1.
         22    1    1    0    0    0 -0.49320797552E+01 -0.15822101245E+02 -0.20180716225E+02  0.26113705326E+02  0.00000000000E+00 0.  1.
</event>
<event>
 5    1  0.8778488E-005  0.9118800E+02  0.7818608E-02  0.1130116E+00
         25   -1    0    0    0    0  0.00000000000E+00  0.00000000000E+00  0.99999998245E-14  0.12500000000E+03  0.12500000000E+03 0.  0.
        -11    1    3    3    0    0  0.69577128096E+01  0.34625384283E+02 -0.21712364477E+02  0.41457855417E+02  0.51100000000E-03 0. -1.
         23    2    1    0    0    0  0.11897226685E+02 -0.19067077935E+02 -0.19208955596E+02  0.95435131679E+02  0.90740194620E+02 0.  0.
         11    1    3    3    0    0  0.49395138754E+01 -0.53692462218E+02  0.25034088815E+01  0.53977276262E+02  0.51100000000E-03 0.  1.
         22    1    1    0    0    0 -0.11897226685E+02  0.19067077935E+02  0.19208955596E+02  0.29564868321E+02  0.00000000000E+00 0.  1.
</event>
<event>
 5    1  0.8778488E-005  0.9118800E+02  0.7818608E-02  0.1130116E+00
         25   -1    0    0    0    0  0.00000000000E+00  0.00000000000E+00  0.99999998245E-14  0.12500000000E+03  0.12500000000E+03 0.  0.
        -11    1    3    3    0    0 -0.23939098487E+02  0.56562405177E+01  0.39656761330E+02  0.46666178465E+02  0.51100000000E-03 0.  1.
         23    2    1    0    0    0 -0.11421342372E+02  0.27898011277E+02 -0.11901368654E+01  0.94831100111E+02  0.89904254781E+02 0.  0.
         11    1    3    3    0    0  0.12517756115E+02  0.22241770759E+02 -0.40846898195E+02  0.48164921645E+02  0.51100000000E-03 0. -1.
         22    1    1    0    0    0  0.11421342372E+02 -0.27898011277E+02  0.11901368654E+01  0.30168899889E+02  0.00000000000E+00 0.  1.
</event>
<event>
 5    1  0.8778488E-005  0.9118800E+02  0.7818608E-02  0.1130116E+00
         25   -1    0    0    0    0  0.00000000000E+00  0.00000000000E+00  0.99999998245E-14  0.12500000000E+03  0.12500000000E+03 0.  0.
        -11    1    3    3    0    0 -0.64003138957E+01 -0.58353019192E+01  0.58054184320E+02  0.58696704199E+02  0.51100000000E-03 0. -1.
         23    2    1    0    0    0 -0.34418064514E+01 -0.17821540790E+02  0.24074079881E+02  0.94850129853E+02  0.89930709233E+02 0.  0.
         11    1    3    3    0    0  0.29585074442E+01 -0.11986238871E+02 -0.33980104439E+02  0.36153425654E+02  0.51100000000E-03 0.  1.
         22    1    1    0    0    0  0.34418064514E+01  0.17821540790E+02 -0.24074079881E+02  0.30149870147E+02  0.00000000000E+00 0. -1.
</event>
<event>
 5    1  0.8778488E-005  0.9118800E+02  0.7818608E-02  0.1130116E+00
         25   -1    0    0    0    0  0.00000000000E+00  0.00000000000E+00  0.99999998245E-14  0.12500000000E+03  0.12500000000E+03 0.  0.
        -11    1    3    3    0    0 -0.32887220623E+02 -0.18093849463E+02  0.28526234356E+02  0.47145548204E+02  0.51100000000E-03 0.  1.
         23    2    1    0    0    0 -0.12789615640E+02 -0.20512302108E+02 -0.15968799870E+02  0.96028783677E+02  0.91554333153E+02 0.  0.
         11    1    3    3    0    0  0.20097604983E+02 -0.24184526450E+01 -0.44495034225E+02  0.48883235472E+02  0.51100000000E-03 0. -1.
         22    1    1    0    0    0  0.12789615640E+02  0.20512302108E+02  0.15968799870E+02  0.28971216323E+02  0.00000000000E+00 0.  1.
</event>
<event>
 5    1  0.8778488E-005  0.9118800E+02  0.7818608E-02  0.1130116E+00
         25   -1    0    0    0    0  0.00000000000E+00  0.00000000000E+00  0.99999998245E-14  0.12500000000E+03  0.12500000000E+03 0.  0.
        -11    1    3    3    0    0  0.18121601699E+02 -0.36258162876E+02 -0.40988663693E+02  0.57646486232E+02  0.51100000000E-03 0. -1.
         23    2    1    0    0    0  0.13790106424E+02 -0.16560669802E+01 -0.25833562475E+02  0.95669426477E+02  0.91062377628E+02 0.  0.
         11    1    3    3    0    0 -0.43314952747E+01  0.34602095896E+02  0.15155101218E+02  0.38022940245E+02  0.51100000000E-03 0.  1.
         22    1    1    0    0    0 -0.13790106424E+02  0.16560669802E+01  0.25833562475E+02  0.29330573523E+02  0.00000000000E+00 0. -1.
</event>
<event>
 5    1  0.8778488E-005  0.9118800E+02  0.7818608E-02  0.1130116E+00
         25   -1    0    0    0    0  0.00000000000E+00  0.00000000000E+00  0.99999998245E-14  0.12500000000E+03  0.12500000000E+03 0.  0.
        -11    1    3    3    0    0 -0.81734263316E+01  0.25883167820E+02  0.32478023080E+02  0.42326885757E+02  0.51100000000E-03 0. -1.
         23    2    1    0    0    0  0.17288619509E+02  0.17786573948E+02 -0.14424950652E+02  0.96306136917E+02  0.91932226283E+02 0.  0.
         11    1    3    3    0    0  0.25462045840E+02 -0.80965938727E+01 -0.46902973732E+02  0.53979251160E+02  0.51100000000E-03 0.  1.
         22    1    1    0    0    0 -0.17288619509E+02 -0.17786573948E+02  0.14424950652E+02  0.28693863083E+02  0.00000000000E+00 0.  1.
</event>
<event>
 5    1  0.8778488E-005  0.9118800E+02  0.7818608E-02  0.1130116E+00
         25   -1    0    0    0    0  0.00000000000E+00  0.00000000000E+00  0.99999998245E-14  0.12500000000E+03  0.12500000000E+03 0.  0.
        -11    1    3    3    0    0 -0.28574167752E+02  0.20966958480E+02 -0.47667891657E+02  0.59399699544E+02  0.51100000000E-03 0.  1.
         23    2    1    0    0    0 -0.26738122595E+01  0.18082315019E+02 -0.25573069021E+02  0.93565922193E+02  0.88127637822E+02 0.  0.
         11    1    3    3    0    0  0.25900355493E+02 -0.28846434609E+01  0.22094822635E+02  0.34166222649E+02  0.51100000000E-03 0. -1.
         22    1    1    0    0    0  0.26738122595E+01 -0.18082315019E+02  0.25573069021E+02  0.31434077807E+02  0.00000000000E+00 0.  1.
</event>
<event>
 5    1  0.8778488E-005  0.9118800E+02  0.7818608E-02  0.1130116E+00
         25   -1    0    0    0    0  0.00000000000E+00  0.00000000000E+00  0.99999998245E-14  0.12500000000E+03  0.12500000000E+03 0.  0.
        -11    1    3    3    0    0  0.12001817669E+01  0.38337234142E+02  0.50471555632E+01  0.38686660976E+02  0.51100000000E-03 0.  1.
         23    2    1    0    0    0  0.20188252405E+02 -0.28150735089E+01 -0.24757961245E+02  0.92930593722E+02  0.87221834598E+02 0.  0.
         11    1    3    3    0    0  0.18988070638E+02 -0.41152307651E+02 -0.29805116808E+02  0.54243932746E+02  0.51100000000E-03 0. -1.
         22    1    1    0    0    0 -0.20188252405E+02  0.28150735089E+01  0.24757961245E+02  0.32069406278E+02  0.00000000000E+00 0. -1.
</event>
<event>
 5    1  0.8778488E-005  0.9118800E+02  0.7818608E-02  0.1130116E+00
         25   -1    0    0    0    0  0.00000000000E+00  0.00000000000E+00  0.99999998245E-14  0.12500000000E+03  0.12500000000E+03 0.  0.
        -11    1    3    3    0    0  0.45019074230E+02 -0.67198650516E+01  0.10899626970E+02  0.46804652538E+02  0.51100000000E-03 0.  1.
         23    2    1    0    0    0  0.10277408690E+02 -0.12991439494E+01 -0.25537786333E+02  0.97441127832E+02  0.93462730316E+02 0.  0.
         11    1    3    3    0    0 -0.34741665540E+02  0.54207211022E+01 -0.36437413303E+02  0.50636475294E+02  0.51100000000E-03 0. -1.
         22    1    1    0    0    0 -0.10277408690E+02  0.12991439494E+01  0.25537786333E+02  0.27558872168E+02  0.00000000000E+00 0. -1.
</event>
<event>
 5    1  0.8778488E-005  0.9118800E+02  0.7818608E-02  0.1130116E+00
         25   -1    0    0    0    0  0.00000000000E+00  0.00000000000E+00  0.99999998245E-14  0.12500000000E+03  0.12500000000E+03 0.  0.
        -11    1    3    3    0    0 -0.35427734761E+02 -0.29478858236E+02 -0.37631662047E+02  0.59500163545E+02  0.51100000000E-03 0. -1.
         23    2    1    0    0    0 -0.11016298362E+02 -0.20406281485E+02 -0.49527260968E+01  0.10128703626E+03  0.98472123286E+02 0.  0.
         11    1    3    3    0    0  0.24411436399E+02  0.90725767508E+01  0.32678935950E+02  0.41786872712E+02  0.51100000000E-03 0.  1.
         22    1    1    0    0    0  0.11016298362E+02  0.20406281485E+02  0.49527260968E+01  0.23712963742E+02  0.00000000000E+00 0. -1.
</event>
<event>
 5    1  0.8778488E-005  0.9118800E+02  0.7818608E-02  0.1130116E+00
         25   -1    0    0    0    0  0.00000000000E+00  0.00000000000E+00  0.99999998245E-14  0.12500000000E+03  0.12500000000E+03 0.  0.
        -11    1    3    3    0    0 -0.25405132864E+02 -0.20393184443E+02 -0.35745293037E+01  0.32773159865E+02  0.51100000000E-03 0. -1.
         23    2    1    0    0    0  0.30522388565E+02  0.40347709828E+01 -0.49413799342E+01  0.93818069074E+02  0.88484559493E+02 0.  0.
         11    1    3    3    0    0  0.55927521429E+02  0.24427955426E+02 -0.13668506306E+01  0.61044909209E+02  0.51100000000E-03 0.  1.
         22    1    1    0    0    0 -0.30522388565E+02 -0.40347709828E+01  0.49413799342E+01  0.31181930926E+02  0.00000000000E+00 0.  1.
</event>
<event>
 5    1  0.8778488E-005  0.9118800E+02  0.7818608E-02  0.1130116E+00
         25   -1    0    0    0    0  0.00000000000E+00  0.00000000000E+00  0.99999998245E-14  0.12500000000E+03  0.12500000000E+03 0.  0.
        -11    1    3    3    0    0  0.11963715604E+02  0.34283368360E+02 -0.24743806457E+01  0.36395087539E+02  0.51100000000E-03 0. -1.
         23    2    1    0    0    0  0.13957176050E+02 -0.20705560710E+02 -0.18746514448E+02  0.93775733611E+02  0.88424732980E+02 0.  0.
         11    1    3    3    0    0  0.19934604464E+01 -0.54988929070E+02 -0.16272133802E+02  0.57380646071E+02  0.51100000000E-03 0.  1.
         22    1    1    0    0    0 -0.13957176050E+02  0.20705560710E+02  0.18746514448E+02  0.31224266389E+02  0.00000000000E+00 0.  1.
</event>
<event>
 5    1  0.8778488E-005  0.9118800E+02  0.7818608E-02  0.1130116E+00
         25   -1    0    0    0    0  0.00000000000E+00  0.00000000000E+00  0.99999998245E-14  0.12500000000E+03  0.12500000000E+03 0.  0.
        -11    1    3    3    0    0  0.33498171272E+02 -0.33513347935E+02  0.13781413170E+02  0.49347738729E+02  0.51100000000E-03 0.  1.
         23    2    1    0    0    0  0.25021357337E+02  0.58101065166E+01 -0.11496754472E+02  0.96857487245E+02  0.92678863887E+02 0.  0.
         11    1    3    3    0    0 -0.84768139345E+01  0.39323454452E+02 -0.25278167643E+02  0.47509748517E+02  0.51100000000E-03 0. -1.
         22    1    1    0    0    0 -0.25021357337E+02 -0.58101065166E+01  0.11496754472E+02  0.28142512755E+02  0.00000000000E+00 0. -1.
</event>
<event>
 5    1  0.8778488E-005  0.9118800E+02  0.7818608E-02  0.1130116E+00
         25   -1    0    0    0    0  0.00000000000E+00  0.00000000000E+00  0.99999998245E-14  0.12500000000E+03  0.12500000000E+03 0.  0.
        -11    1    3    3    0    0 -0.38940517037E+02  0.49236755012E+01 -0.16112383195E+02  0.42428944602E+02  0.51100000000E-03 0. -1.
         23    2    1    0    0    0 -0.69172740295E+01 -0.27888655991E+02  0.92357147740E+01  0.94818478495E+02  0.89886704377E+02 0.  0.
         11    1    3    3    0    0  0.32023243007E+02 -0.32812331492E+02  0.25348097969E+02  0.52389533893E+02  0.51100000000E-03 0.  1.
         22    1    1    0    0    0  0.69172740295E+01  0.27888655991E+02 -0.92357147740E+01  0.30181521505E+02  0.00000000000E+00 0.  1.
</event>
<event>
 5    1  0.8778488E-005  0.9118800E+02  0.7818608E-02  0.1130116E+00
         25   -1    0    0    0    0  0.00000000000E+00  0.00000000000E+00  0.99999998245E-14  0.12500000000E+03  0.12500000000E+03 0.  0.
        -11    1    3    3    0    0 -0.38202767245E+02  0.22266939342E+01 -0.10524685697E+02  0.39688519755E+02  0.51100000000E-03 0.  1.
         23    2    1    0    0    0  0.15441891866E+02  0.18868752723E+02 -0.15552795871E+02  0.96079915057E+02  0.91624116717E+02 0.  0.
         11    1    3    3    0    0  0.53644659111E+02  0.16642058789E+02 -0.50281101739E+01  0.56391395301E+02  0.51100000000E-03 0. -1.
         22    1    1    0    0    0 -0.15441891866E+02 -0.18868752723E+02  0.15552795871E+02  0.28920084943E+02  0.00000000000E+00 0.  1.
</event>
<event>
 5    1  0.8778488E-005  0.9118800E+02  0.7818608E-02  0.1130116E+00
         25   -1    0    0    0    0  0.00000000000E+00  0.00000000000E+00  0.99999998245E-14  0.12500000000E+03  0.12500000000E+03 0.  0.
        -11    1    3    3    0    0 -0.12158906659E+02 -0.21681333659E+02 -0.23250389698E+02  0.34036742819E+02  0.51100000000E-03 0. -1.
         23    2    1    0    0    0  0.20990894679E+02  0.19899721069E+02  0.70329300941E+01  0.95232926516E+02  0.90461216159E+02 0.  0.
         11    1    3    3    0    0  0.33149801339E+02  0.41581054728E+02  0.30283319792E+02  0.61196183697E+02  0.51100000000E-03 0.  1.
         22    1    1    0    0    0 -0.20990894679E+02 -0.19899721069E+02 -0.70329300941E+01  0.29767073484E+02  0.00000000000E+00 0.  1.
</event>
<event>
 5    1  0.8778488E-005  0.9118800E+02  0.7818608E-02  0.1130116E+00
         25   -1    0    0    0    0  0.00000000000E+00  0.00000000000E+00  0.99999998245E-14  0.12500000000E+03  0.12500000000E+03 0.  0.
        -11    1    3    3    0    0  0.40769942480E+02  0.34437450384E+01  0.46024976609E+02  0.61582027101E+02  0.51100000000E-03 0. -1.
         23    2    1    0    0    0  0.12963950280E+02  0.47768556581E+01  0.24884850719E+02  0.96537074076E+02  0.92245696479E+02 0.  0.
         11    1    3    3    0    0 -0.27805992200E+02  0.13331106197E+01 -0.21140125890E+02  0.34955046975E+02  0.51100000000E-03 0.  1.
         22    1    1    0    0    0 -0.12963950280E+02 -0.47768556581E+01 -0.24884850719E+02  0.28462925924E+02  0.00000000000E+00 0. -1.
</event>
<event>
 5    1  0.8778488E-005  0.9118800E+02  0.7818608E-02  0.1130116E+00
         25   -1    0    0    0    0  0.00000000000E+00  0.00000000000E+00  0.99999998245E-14  0.12500000000E+03  0.12500000000E+03 0.  0.
        -11    1    3    3    0    0 -0.11069398552E+02  0.54563023287E+02  0.20702959791E+02  0.59399222545E+02  0.51100000000E-03 0. -1.
         23    2    1    0    0    0  0.68486334959E+01  0.24432016960E+02  0.16562683963E+02  0.94699014314E+02  0.89720418960E+02 0.  0.
         11    1    3    3    0    0  0.17918032048E+02 -0.30131006327E+02 -0.41402758274E+01  0.35299791769E+02  0.51100000000E-03 0.  1.
         22    1    1    0    0    0 -0.68486334959E+01 -0.24432016960E+02 -0.16562683963E+02  0.30300985686E+02  0.00000000000E+00 0. -1.
</event>
<event>
 5    1  0.8778488E-005  0.9118800E+02  0.7818608E-02  0.1130116E+00
         25   -1    0    0    0    0  0.00000000000E+00  0.00000000000E+00  0.99999998245E-14  0.12500000000E+03  0.12500000000E+03 0.  0.
        -11    1    3    3    0    0 -0.70889875985E+01 -0.24230472882E+02  0.34322729567E+02  0.42607737871E+02  0.51100000000E-03 0.  1.
         23    2    1    0    0    0  0.28935255880E+02 -0.15642260774E+00  0.33426796661E+01  0.95871886291E+02  0.91339868474E+02 0.  0.
         11    1    3    3    0    0  0.36024243479E+02  0.24074050274E+02 -0.30980049901E+02  0.53264148420E+02  0.51100000000E-03 0. -1.
         22    1    1    0    0    0 -0.28935255880E+02  0.15642260774E+00 -0.33426796661E+01  0.29128113709E+02  0.00000000000E+00 0. -1.
</event>
<event>
 5    1  0.8778488E-005  0.9118800E+02  0.7818608E-02  0.1130116E+00
         25   -1    0    0    0    0  0.00000000000E+00  0.00000000000E+00  0.99999998245E-14  0.12500000000E+03  0.12500000000E+03 0.  0.
        -11    1    3    3    0    0 -0.20472244711E+02  0.11567010215E+02 -0.34990483162E+02  0.42157353344E+02  0.51100000000E-03 0.  1.
         23    2    1    0    0    0  0.26557765699E+02  0.78712851635E-01 -0.14647993018E+02  0.94670397067E+02  0.89680540067E+02 0.  0.
         11    1    3    3    0    0  0.47030010410E+02 -0.11488297364E+02  0.20342490145E+02  0.52513043722E+02  0.51100000000E-03 0. -1.
         22    1    1    0    0    0 -0.26557765699E+02 -0.78712851635E-01  0.14647993018E+02  0.30329602933E+02  0.00000000000E+00 0. -1.
</event>
<event>
 5    1  0.8778488E-005  0.9118800E+02  0.7818608E-02  0.1130116E+00
         25   -1    0    0    0    0  0.00000000000E+00  0.00000000000E+00  0.99999998245E-14  0.12500000000E+03  0.12500000000E+03 0.  0.
        -11    1    3    3    0    0  0.18906350885E+02 -0.48000130598E+02 -0.34683521494E+01  0.51705822768E+02  0.51100000000E-03 0.  1.
         23    2    1    0    0    0  0.83584314204E+01 -0.82442452544E+01 -0.24448397329E+02  0.97878881152E+02  0.94046373072E+02 0.  0.
         11    1    3    3    0    0 -0.10547919465E+02  0.39755885344E+02 -0.20980045179E+02  0.46173058384E+02  0.51100000000E-03 0. -1.
         22    1    1    0    0    0 -0.83584314204E+01  0.82442452544E+01  0.24448397329E+02  0.27121118848E+02  0.00000000000E+00 0.  1.
</event>
<event>
 5    1  0.8778488E-005  0.9118800E+02  0.7818608E-02  0.1130116E+00
         25   -1    0    0    0    0  0.00000000000E+00  0.00000000000E+00  0.99999998245E-14  0.12500000000E+03  0.12500000000E+03 0.  0.
        -11    1    3    3    0    0 -0.21715646529E+02 -0.35950928411E+02 -0.45887449274E+02  0.62206885141E+02  0.51100000000E-03 0.  1.
         23    2    1    0    0    0 -0.13616868386E+02 -0.18062043796E+02 -0.19264048541E+02  0.95288721048E+02  0.90538280645E+02 0.  0.
         11    1    3    3    0    0  0.80987781425E+01  0.17888884614E+02  0.26623400733E+02  0.33081835908E+02  0.51100000000E-03 0. -1.
         22    1    1    0    0    0  0.13616868386E+02  0.18062043796E+02  0.19264048541E+02  0.29711278952E+02  0.00000000000E+00 0.  1.
</event>
<event>
 5    1  0.8778488E-005  0.9118800E+02  0.7818608E-02  0.1130116E+00
         25   -1    0    0    0    0  0.00000000000E+00  0.00000000000E+00  0.99999998245E-14  0.12500000000E+03  0.12500000000E+03 0.  0.
        -11    1    3    3    0    0  0.52338607235E+01  0.43885557533E+02 -0.12048794256E+02  0.45809484841E+02  0.51100000000E-03 0. -1.
         23    2    1    0    0    0  0.21613839161E+02 -0.56872826536E+01 -0.14970090105E+02  0.98100059015E+02  0.94339889515E+02 0.  0.
         11    1    3    3    0    0  0.16379978437E+02 -0.49572840187E+02 -0.29212958488E+01  0.52290574174E+02  0.51100000000E-03 0.  1.
         22    1    1    0    0    0 -0.21613839161E+02  0.56872826536E+01  0.14970090105E+02  0.26899940985E+02  0.00000000000E+00 0.  1.
</event>
<event>
 5    1  0.8778488E-005  0.9118800E+02  0.7818608E-02  0.1130116E+00
         25   -1    0    0    0    0  0.00000000000E+00  0.00000000000E+00  0.99999998245E-14  0.12500000000E+03  0.12500000000E+03 0.  0.
        -11    1    3    3    0    0 -0.30085466032E+01 -0.15041408667E+02  0.28744033720E+02  0.32580896275E+02  0.51100000000E-03 0.  1.
         23    2    1    0    0    0  0.13425560674E+02  0.12004458021E+02 -0.24543495958E+02  0.94557662941E+02  0.89523269239E+02 0.  0.
         11    1    3    3    0    0  0.16434107277E+02  0.27045866688E+02 -0.53287529678E+02  0.61976766666E+02  0.51100000000E-03 0. -1.
         22    1    1    0    0    0 -0.13425560674E+02 -0.12004458021E+02  0.24543495958E+02  0.30442337059E+02  0.00000000000E+00 0. -1.
</event>
<event>
 5    1  0.8778488E-005  0.9118800E+02  0.7818608E-02  0.1130116E+00
         25   -1    0    0    0    0  0.00000000000E+00  0.00000000000E+00  0.99999998245E-14  0.12500000000E+03  0.12500000000E+03 0.  0.
        -11    1    3    3    0    0 -0.39655022394E+02 -0.93729582894E+01 -0.10705061781E+02  0.42130410586E+02  0.51100000000E-03 0.  1.
         23    2    1    0    0    0  0.80205604179E+01  0.28153728228E+01  0.22133560171E+02  0.10129029314E+03  0.98476257468E+02 0.  0.
         11    1    3    3    0    0  0.47675582812E+02  0.12188331112E+02  0.32838621952E+02  0.59159882554E+02  0.51100000000E-03 0. -1.
         22    1    1    0    0    0 -0.80205604179E+01 -0.28153728228E+01 -0.22133560171E+02  0.23709706860E+02  0.00000000000E+00 0. -1.
</event>
<event>
 5    1  0.8778488E-005  0.9118800E+02  0.7818608E-02  0.1130116E+00
         25   -1    0    0    0    0  0.00000000000E+00  0.00000000000E+00  0.99999998245E-14  0.12500000000E+03  0.12500000000E+03 0.  0.
        -11    1    3    3    0    0 -0.21718172644E+02  0.12536269637E+02 -0.34486363078E+02  0.42639726993E+02  0.51100000000E-03 0.  1.
         23    2    1    0    0    0 -0.10569469260E+02  0.23999195279E+02  0.15099396301E+02  0.94740012836E+02  0.89777520622E+02 0.  0.
         11    1    3    3    0    0  0.11148703383E+02  0.11462925642E+02  0.49585759380E+02  0.52100285843E+02  0.51100000000E-03 0. -1.
         22    1    1    0    0    0  0.10569469260E+02 -0.23999195279E+02 -0.15099396301E+02  0.30259987164E+02  0.00000000000E+00 0. -1.
</event>
<event>
 5    1  0.8778488E-005  0.9118800E+02  0.7818608E-02  0.1130116E+00
         25   -1    0    0    0    0  0.00000000000E+00  0.00000000000E+00  0.99999998245E-14  0.12500000000E+03  0.12500000000E+03 0.  0.
        -11    1    3    3    0    0  0.55195904708E+02  0.60670111938E+01  0.88859532067E+01  0.56234835165E+02  0.51100000000E-03 0.  1.
         23    2    1    0    0    0  0.23668823675E+02 -0.16970838207E+02  0.30379488928E+01  0.95717723841E+02  0.91128650600E+02 0.  0.
         11    1    3    3    0    0 -0.31527081033E+02 -0.23037849400E+02 -0.58480043139E+01  0.39482888676E+02  0.51100000000E-03 0. -1.
         22    1    1    0    0    0 -0.23668823675E+02  0.16970838207E+02 -0.30379488928E+01  0.29282276159E+02  0.00000000000E+00 0. -1.
</event>
<event>
 5    1  0.8778488E-005  0.9118800E+02  0.7818608E-02  0.1130116E+00
         25   -1    0    0    0    0  0.00000000000E+00  0.00000000000E+00  0.99999998245E-14  0.12500000000E+03  0.12500000000E+03 0.  0.
        -11    1    3    3    0    0 -0.10273796319E+02  0.39031285817E+02 -0.32794510553E+02  0.52004539090E+02  0.51100000000E-03 0. -1.
         23    2    1    0    0    0 -0.30035086872E+01 -0.51142525615E+01 -0.27279300432E+02  0.97083394265E+02  0.92983055264E+02 0.  0.
         11    1    3    3    0    0  0.72702876319E+01 -0.44145538378E+02  0.55152101207E+01  0.45078855175E+02  0.51100000000E-03 0.  1.
         22    1    1    0    0    0  0.30035086872E+01  0.51142525615E+01  0.27279300432E+02  0.27916605735E+02  0.00000000000E+00 0. -1.
</event>
<event>
 5    1  0.8778488E-005  0.9118800E+02  0.7818608E-02  0.1130116E+00
         25   -1    0    0    0    0  0.00000000000E+00  0.00000000000E+00  0.99999998245E-14  0.12500000000E+03  0.12500000000E+03 0.  0.
        -11    1    3    3    0    0 -0.29668565457E+02  0.30944394652E+02 -0.27339972734E+02  0.50845387658E+02  0.51100000000E-03 0. -1.
         23    2    1    0    0    0 -0.18681900656E+02  0.12221979785E+02  0.14777141594E+02  0.98227736075E+02  0.94508909732E+02 0.  0.
         11    1    3    3    0    0  0.10986664801E+02 -0.18722414867E+02  0.42117114329E+02  0.47382348417E+02  0.51100000000E-03 0.  1.
         22    1    1    0    0    0  0.18681900656E+02 -0.12221979785E+02 -0.14777141594E+02  0.26772263925E+02  0.00000000000E+00 0.  1.
</event>
<event>
 5    1  0.8778488E-005  0.9118800E+02  0.7818608E-02  0.1130116E+00
         25   -1    0    0    0    0  0.00000000000E+00  0.00000000000E+00  0.99999998245E-14  0.12500000000E+03  0.12500000000E+03 0.  0.
        -11    1    3    3    0    0  0.42520300956E+02  0.29651344172E+02  0.25442235171E+02  0.57745004419E+02  0.51100000000E-03 0.  1.
         23    2    1    0    0    0  0.27433611954E+02  0.49563015906E-01  0.40293743307E+01  0.97272010912E+02  0.93236273671E+02 0.  0.
         11    1    3    3    0    0 -0.15086689002E+02 -0.29601781156E+02 -0.21412860841E+02  0.39527006493E+02  0.51100000000E-03 0. -1.
         22    1    1    0    0    0 -0.27433611954E+02 -0.49563015906E-01 -0.40293743307E+01  0.27727989088E+02  0.00000000000E+00 0.  1.
</event>
<event>
 5    1  0.8778488E-005  0.9118800E+02  0.7818608E-02  0.1130116E+00
         25   -1    0    0    0    0  0.00000000000E+00  0.00000000000E+00  0.99999998245E-14  0.12500000000E+03  0.12500000000E+03 0.  0.
        -11    1    3    3    0    0  0.22078010880E+02 -0.35449785308E+02 -0.44446108201E+01  0.41998576267E+02  0.51100000000E-03 0.  1.
         23    2    1    0    0    0  0.14022688831E+02  0.20187353539E+02  0.71549118792E+01  0.99400042794E+02  0.96046919256E+02 0.  0.
         11    1    3    3    0    0 -0.80553220492E+01  0.55637138847E+02  0.11599522699E+02  0.57401466527E+02  0.51100000000E-03 0. -1.
         22    1    1    0    0    0 -0.14022688831E+02 -0.20187353539E+02 -0.71549118792E+01  0.25599957206E+02  0.00000000000E+00 0. -1.
</event>
<event>
 5    1  0.8778488E-005  0.9118800E+02  0.7818608E-02  0.1130116E+00
         25   -1    0    0    0    0  0.00000000000E+00  0.00000000000E+00  0.99999998245E-14  0.12500000000E+03  0.12500000000E+03 0.  0.
        -11    1    3    3    0    0  0.25710544825E+02 -0.28010866541E+02 -0.18270851980E+02  0.42183702919E+02  0.51100000000E-03 0.  1.
         23    2    1    0    0    0  0.19219234546E+02  0.18967257014E+02  0.85614547405E+01  0.96672728292E+02  0.92429335565E+02 0.  0.
         11    1    3    3    0    0 -0.64913102794E+01  0.46978123555E+02  0.26832306720E+02  0.54489025373E+02  0.51100000000E-03 0. -1.
         22    1    1    0    0    0 -0.19219234546E+02 -0.18967257014E+02 -0.85614547405E+01  0.28327271708E+02  0.00000000000E+00 0.  1.
</event>
<event>
 5    1  0.8778488E-005  0.9118800E+02  0.7818608E-02  0.1130116E+00
         25   -1    0    0    0    0  0.00000000000E+00  0.00000000000E+00  0.99999998245E-14  0.12500000000E+03  0.12500000000E+03 0.  0.
        -11    1    3    3    0    0 -0.12571383016E+02  0.30033644727E+02  0.53646883978E+01  0.32997566098E+02  0.51100000000E-03 0.  1.
         23    2    1    0    0    0  0.38826171541E+01 -0.29284954702E+02  0.72402062861E+01  0.94584479703E+02  0.89560705255E+02 0.  0.
         11    1    3    3    0    0  0.16454000170E+02 -0.59318599429E+02  0.18755178883E+01  0.61586913605E+02  0.51100000000E-03 0. -1.
         22    1    1    0    0    0 -0.38826171541E+01  0.29284954702E+02 -0.72402062861E+01  0.30415520297E+02  0.00000000000E+00 0. -1.
</event>
<event>
 5    1  0.8778488E-005  0.9118800E+02  0.7818608E-02  0.1130116E+00
         25   -1    0    0    0    0  0.00000000000E+00  0.00000000000E+00  0.99999998245E-14  0.12500000000E+03  0.12500000000E+03 0.  0.
        -11    1    3    3    0    0  0.13719637621E+02 -0.75437411093E+01 -0.29560164385E+02  0.33450557620E+02  0.51100000000E-03 0. -1.
         23    2    1    0    0    0 -0.14870578855E+00  0.22379394034E+02  0.21323653843E+02  0.94087905216E+02  0.88864932926E+02 0.  0.
         11    1    3    3    0    0 -0.13868343410E+02  0.29923135143E+02  0.50883818228E+02  0.60637347596E+02  0.51100000000E-03 0.  1.
         22    1    1    0    0    0  0.14870578855E+00 -0.22379394034E+02 -0.21323653843E+02  0.30912094784E+02  0.00000000000E+00 0.  1.
</event>
<event>
 5    1  0.8778488E-005  0.9118800E+02  0.7818608E-02  0.1130116E+00
         25   -1    0    0    0    0  0.00000000000E+00  0.00000000000E+00  0.99999998245E-14  0.12500000000E+03  0.12500000000E+03 0.  0.
        -11    1    3    3    0    0 -0.10496017397E+02  0.41340653673E+02  0.14298456302E+02  0.44985129545E+02  0.51100000000E-03 0.  1.
         23    2    1    0    0    0  0.25925405357E+02  0.58077341096E+01  0.11799282116E+02  0.95929749281E+02  0.91419020561E+02 0.  0.
         11    1    3    3    0    0  0.36421422754E+02 -0.35532919563E+02 -0.24991741856E+01  0.50944619736E+02  0.51100000000E-03 0. -1.
         22    1    1    0    0    0 -0.25925405357E+02 -0.58077341096E+01 -0.11799282116E+02  0.29070250719E+02  0.00000000000E+00 0.  1.
</event>
<event>
 5    1  0.8778488E-005  0.9118800E+02  0.7818608E-02  0.1130116E+00
         25   -1    0    0    0    0  0.00000000000E+00  0.00000000000E+00  0.99999998245E-14  0.12500000000E+03  0.12500000000E+03 0.  0.
        -11    1    3    3    0    0 -0.16857321270E+02  0.44907651455E+02 -0.14685650112E+02  0.50165075093E+02  0.51100000000E-03 0. -1.
         23    2    1    0    0    0 -0.16785738049E+02  0.20401615755E+02  0.19454788120E+02  0.92190310760E+02  0.86154382883E+02 0.  0.
         11    1    3    3    0    0  0.71583221257E-01 -0.24506035700E+02  0.34140438233E+02  0.42025235667E+02  0.51100000000E-03 0.  1.
         22    1    1    0    0    0  0.16785738049E+02 -0.20401615755E+02 -0.19454788120E+02  0.32809689240E+02  0.00000000000E+00 0.  1.
</event>
<event>
 5    1  0.8778488E-005  0.9118800E+02  0.7818608E-02  0.1130116E+00
         25   -1    0    0    0    0  0.00000000000E+00  0.00000000000E+00  0.99999998245E-14  0.12500000000E+03  0.12500000000E+03 0.  0.
        -11    1    3    3    0    0 -0.28941949567E+02 -0.64680038457E+01  0.20381257081E+02  0.35984262657E+02  0.51100000000E-03 0.  1.
         23    2    1    0    0    0  0.66055885785E+01  0.22440592216E+02 -0.17783263229E+02  0.95615336815E+02  0.90988099242E+02 0.  0.
         11    1    3    3    0    0  0.35547538145E+02  0.28908596061E+02 -0.38164520310E+02  0.59631074158E+02  0.51100000000E-03 0. -1.
         22    1    1    0    0    0 -0.66055885785E+01 -0.22440592216E+02  0.17783263229E+02  0.29384663185E+02  0.00000000000E+00 0. -1.
</event>
<event>
 5    1  0.8778488E-005  0.9118800E+02  0.7818608E-02  0.1130116E+00
         25   -1    0    0    0    0  0.00000000000E+00  0.00000000000E+00  0.99999998245E-14  0.12500000000E+03  0.12500000000E+03 0.  0.
        -11    1    3    3    0    0  0.29179719237E+02 -0.34118778090E+02 -0.25246597761E+01  0.44965775211E+02  0.51100000000E-03 0.  1.
         23    2    1    0    0    0 -0.12564826816E+02 -0.17503249284E+02  0.20332001661E+02  0.95375197892E+02  0.90657594679E+02 0.  0.
         11    1    3    3    0    0 -0.41744546053E+02  0.16615528806E+02  0.22856661437E+02  0.50409422681E+02  0.51100000000E-03 0. -1.
         22    1    1    0    0    0  0.12564826816E+02  0.17503249284E+02 -0.20332001661E+02  0.29624802108E+02  0.00000000000E+00 0. -1.
</event>
<event>
 5    1  0.8778488E-005  0.9118800E+02  0.7818608E-02  0.1130116E+00
         25   -1    0    0    0    0  0.00000000000E+00  0.00000000000E+00  0.99999998245E-14  0.12500000000E+03  0.12500000000E+03 0.  0.
        -11    1    3    3    0    0  0.53746204220E+01  0.46843115178E+02  0.14465505274E+02  0.49319517712E+02  0.51100000000E-03 0.  1.
         23    2    1    0    0    0 -0.25177185466E+02  0.12739495503E+02  0.87243992834E+01  0.95465265254E+02  0.90781695917E+02 0.  0.
         11    1    3    3    0    0 -0.30551805888E+02 -0.34103619675E+02 -0.57411059905E+01  0.46145747542E+02  0.51100000000E-03 0. -1.
         22    1    1    0    0    0  0.25177185466E+02 -0.12739495503E+02 -0.87243992834E+01  0.29534734746E+02  0.00000000000E+00 0. -1.
</event>
<event>
 5    1  0.8778488E-005  0.9118800E+02  0.7818608E-02  0.1130116E+00
         25   -1    0    0    0    0  0.00000000000E+00  0.00000000000E+00  0.99999998245E-14  0.12500000000E+03  0.12500000000E+03 0.  0.
        -11    1    3    3    0    0 -0.25269488138E+02  0.18413866555E+02  0.52825633942E+02  0.61385381923E+02  0.51100000000E-03 0.  1.
         23    2    1    0    0    0 -0.17989849059E+02  0.30679326103E+01  0.23899937189E+02  0.94929185622E+02  0.90040526462E+02 0.  0.
         11    1    3    3    0    0  0.72796390788E+01 -0.15345933944E+02 -0.28925696752E+02  0.33543803699E+02  0.51100000000E-03 0. -1.
         22    1    1    0    0    0  0.17989849059E+02 -0.30679326103E+01 -0.23899937189E+02  0.30070814378E+02  0.00000000000E+00 0.  1.
</event>
<event>
 5    1  0.8778488E-005  0.9118800E+02  0.7818608E-02  0.1130116E+00
         25   -1    0    0    0    0  0.00000000000E+00  0.00000000000E+00  0.99999998245E-14  0.12500000000E+03  0.12500000000E+03 0.  0.
        -11    1    3    3    0    0  0.29923139388E+01  0.67868716071E+01 -0.42983107137E+02  0.43618379937E+02  0.51100000000E-03 0. -1.
         23    2    1    0    0    0 -0.29079402229E+02  0.97826201813E+01 -0.42009201737E+01  0.94032936499E+02  0.88787578662E+02 0.  0.
         11    1    3    3    0    0 -0.32071716167E+02  0.29957485742E+01  0.38782186963E+02  0.50414556562E+02  0.51100000000E-03 0.  1.
         22    1    1    0    0    0  0.29079402229E+02 -0.97826201813E+01  0.42009201737E+01  0.30967063501E+02  0.00000000000E+00 0.  1.
</event>
<event>
 5    1  0.8778488E-005  0.9118800E+02  0.7818608E-02  0.1130116E+00
         25   -1    0    0    0    0  0.00000000000E+00  0.00000000000E+00  0.99999998245E-14  0.12500000000E+03  0.12500000000E+03 0.  0.
        -11    1    3    3    0    0 -0.12417611128E+02  0.35218163913E+02 -0.36129892784E+02  0.51960420402E+02  0.51100000000E-03 0.  1.
         23    2    1    0    0    0  0.20127449236E+02  0.15353561856E+02 -0.15594168846E+02  0.95267455938E+02  0.90508916602E+02 0.  0.
         11    1    3    3    0    0  0.32545060364E+02 -0.19864602057E+02  0.20535723938E+02  0.43307035536E+02  0.51100000000E-03 0. -1.
         22    1    1    0    0    0 -0.20127449236E+02 -0.15353561856E+02  0.15594168846E+02  0.29732544062E+02  0.00000000000E+00 0.  1.
</event>
<event>
 5    1  0.8778488E-005  0.9118800E+02  0.7818608E-02  0.1130116E+00
         25   -1    0    0    0    0  0.00000000000E+00  0.00000000000E+00  0.99999998245E-14  0.12500000000E+03  0.12500000000E+03 0.  0.
        -11    1    3    3    0    0  0.22719023714E+02  0.96167564356E+01 -0.43139457799E+02  0.49695561797E+02  0.51100000000E-03 0. -1.
         23    2    1    0    0    0 -0.11142399853E+02  0.22716588875E+02 -0.15480486129E+02  0.95337870350E+02  0.90606112307E+02 0.  0.
         11    1    3    3    0    0 -0.33861423567E+02  0.13099832439E+02  0.27658971670E+02  0.45642308553E+02  0.51100000000E-03 0.  1.
         22    1    1    0    0    0  0.11142399853E+02 -0.22716588875E+02  0.15480486129E+02  0.29662129650E+02  0.00000000000E+00 0.  1.
</event>
<event>
 5    1  0.8778488E-005  0.9118800E+02  0.7818608E-02  0.1130116E+00
         25   -1    0    0    0    0  0.00000000000E+00  0.00000000000E+00  0.99999998245E-14  0.12500000000E+03  0.12500000000E+03 0.  0.
        -11    1    3    3    0    0 -0.57140528197E+01  0.44588008684E+02 -0.29771519816E+02  0.53917384121E+02  0.51100000000E-03 0.  1.
         23    2    1    0    0    0  0.88283071030E+01  0.28814098967E+02  0.46794224398E+01  0.94502650936E+02  0.89446423819E+02 0.  0.
         11    1    3    3    0    0  0.14542359923E+02 -0.15773909717E+02  0.34450942256E+02  0.40585266815E+02  0.51100000000E-03 0. -1.
         22    1    1    0    0    0 -0.88283071030E+01 -0.28814098967E+02 -0.46794224398E+01  0.30497349064E+02  0.00000000000E+00 0.  1.
</event>
<event>
 5    1  0.8778488E-005  0.9118800E+02  0.7818608E-02  0.1130116E+00
         25   -1    0    0    0    0  0.00000000000E+00  0.00000000000E+00  0.99999998245E-14  0.12500000000E+03  0.12500000000E+03 0.  0.
        -11    1    3    3    0    0  0.75228990858E+01  0.79327217152E+01 -0.52792374338E+02  0.53912492736E+02  0.51100000000E-03 0.  1.
         23    2    1    0    0    0 -0.18314047738E+02  0.11205917949E+02 -0.21656599161E+02  0.94504340819E+02  0.89448785374E+02 0.  0.
         11    1    3    3    0    0 -0.25836946824E+02  0.32731962335E+01  0.31135775176E+02  0.40591848084E+02  0.51100000000E-03 0. -1.
         22    1    1    0    0    0  0.18314047738E+02 -0.11205917949E+02  0.21656599161E+02  0.30495659181E+02  0.00000000000E+00 0. -1.
</event>
<event>
 5    1  0.8778488E-005  0.9118800E+02  0.7818608E-02  0.1130116E+00
         25   -1    0    0    0    0  0.00000000000E+00  0.00000000000E+00  0.99999998245E-14  0.12500000000E+03  0.12500000000E+03 0.  0.
        -11    1    3    3    0    0  0.30471834568E+02  0.30423233083E+01 -0.53667858118E+01  0.31090043796E+02  0.51100000000E-03 0. -1.
         23    2    1    0    0    0 -0.30445540148E+02  0.50316224540E+01  0.71783461227E+01  0.93317563343E+02  0.87774659417E+02 0.  0.
         11    1    3    3    0    0 -0.60917374716E+02  0.19892991457E+01  0.12545131935E+02  0.62227519547E+02  0.51100000000E-03 0.  1.
         22    1    1    0    0    0  0.30445540148E+02 -0.50316224540E+01 -0.71783461227E+01  0.31682436657E+02  0.00000000000E+00 0.  1.
</event>
<event>
 5    1  0.8778488E-005  0.9118800E+02  0.7818608E-02  0.1130116E+00
         25   -1    0    0    0    0  0.00000000000E+00  0.00000000000E+00  0.99999998245E-14  0.12500000000E+03  0.12500000000E+03 0.  0.
        -11    1    3    3    0    0 -0.19773100903E+02 -0.92905690486E+01  0.35744849267E+02  0.41892534441E+02  0.51100000000E-03 0.  1.
         23    2    1    0    0    0  0.10413212429E+02 -0.28847368151E+02 -0.22957642396E+01  0.94244900003E+02  0.89085492651E+02 0.  0.
         11    1    3    3    0    0  0.30186313332E+02 -0.19556799103E+02 -0.38040613506E+02  0.52352365562E+02  0.51100000000E-03 0. -1.
         22    1    1    0    0    0 -0.10413212429E+02  0.28847368151E+02  0.22957642396E+01  0.30755099997E+02  0.00000000000E+00 0. -1.
</event>
<event>
 5    1  0.8778488E-005  0.9118800E+02  0.7818608E-02  0.1130116E+00
         25   -1    0    0    0    0  0.00000000000E+00  0.00000000000E+00  0.99999998245E-14  0.12500000000E+03  0.12500000000E+03 0.  0.
        -11    1    3    3    0    0  0.12302206408E+02 -0.30779030613E+02  0.23666834970E+02  0.40728516861E+02  0.51100000000E-03 0. -1.
         23    2    1    0    0    0 -0.12590207804E+02 -0.59163957528E+01 -0.22362540714E+02  0.98663707580E+02  0.95083788813E+02 0.  0.
         11    1    3    3    0    0 -0.24892414212E+02  0.24862634860E+02 -0.46029375684E+02  0.57935190719E+02  0.51100000000E-03 0.  1.
         22    1    1    0    0    0  0.12590207804E+02  0.59163957528E+01  0.22362540714E+02  0.26336292420E+02  0.00000000000E+00 0.  1.
</event>
<event>
 5    1  0.8778488E-005  0.9118800E+02  0.7818608E-02  0.1130116E+00
         25   -1    0    0    0    0  0.00000000000E+00  0.00000000000E+00  0.99999998245E-14  0.12500000000E+03  0.12500000000E+03 0.  0.
        -11    1    3    3    0    0 -0.11279647127E+02 -0.18434000853E+02 -0.19112343128E+02  0.28850034434E+02  0.51100000000E-03 0. -1.
         23    2    1    0    0    0  0.35002421200E+02 -0.22848035829E+02  0.76670881395E+01  0.82503100447E+02  0.70716158774E+02 0.  0.
         11    1    3    3    0    0  0.46282068326E+02 -0.44140349765E+01  0.26779431267E+02  0.53653066013E+02  0.51100000000E-03 0.  1.
         22    1    1    0    0    0 -0.35002421200E+02  0.22848035829E+02 -0.76670881395E+01  0.42496899553E+02  0.00000000000E+00 0.  1.
</event>
<event>
 5    1  0.8778488E-005  0.9118800E+02  0.7818608E-02  0.1130116E+00
         25   -1    0    0    0    0  0.00000000000E+00  0.00000000000E+00  0.99999998245E-14  0.12500000000E+03  0.12500000000E+03 0.  0.
        -11    1    3    3    0    0  0.29212458680E+02 -0.14969967677E+02 -0.33273646893E+02  0.46739739539E+02  0.51100000000E-03 0.  1.
         23    2    1    0    0    0 -0.22291688311E+01  0.19385319482E+02 -0.23728062365E+02  0.94278985227E+02  0.89133306383E+02 0.  0.
         11    1    3    3    0    0 -0.31441627511E+02  0.34355287159E+02  0.95455845277E+01  0.47539245687E+02  0.51100000000E-03 0. -1.
         22    1    1    0    0    0  0.22291688311E+01 -0.19385319482E+02  0.23728062365E+02  0.30721014773E+02  0.00000000000E+00 0. -1.
</event>
<event>
 5    1  0.8778488E-005  0.9118800E+02  0.7818608E-02  0.1130116E+00
         25   -1    0    0    0    0  0.00000000000E+00  0.00000000000E+00  0.99999998245E-14  0.12500000000E+03  0.12500000000E+03 0.  0.
        -11    1    3    3    0    0  0.10790848550E+02  0.30741619328E+01 -0.55377680573E+02  0.56502923729E+02  0.51100000000E-03 0.  1.
         23    2    1    0    0    0 -0.53261949369E+01 -0.15055801609E+02 -0.24184608627E+02  0.96018267666E+02  0.91539974419E+02 0.  0.
         11    1    3    3    0    0 -0.16117043487E+02 -0.18129963542E+02  0.31193071946E+02  0.39515343937E+02  0.51100000000E-03 0. -1.
         22    1    1    0    0    0  0.53261949369E+01  0.15055801609E+02  0.24184608627E+02  0.28981732334E+02  0.00000000000E+00 0.  1.
</event>
<event>
 5    1  0.8778488E-005  0.9118800E+02  0.7818608E-02  0.1130116E+00
         25   -1    0    0    0    0  0.00000000000E+00  0.00000000000E+00  0.99999998245E-14  0.12500000000E+03  0.12500000000E+03 0.  0.
        -11    1    3    3    0    0 -0.31068180083E+02  0.19695684018E+02  0.29774414179E+02  0.47325125701E+02  0.51100000000E-03 0.  1.
         23    2    1    0    0    0  0.61193279012E+01 -0.10804324942E+02  0.26741884319E+02  0.95515970622E+02  0.90851486810E+02 0.  0.
         11    1    3    3    0    0  0.37187507984E+02 -0.30500008960E+02 -0.30325298599E+01  0.48190844921E+02  0.51100000000E-03 0. -1.
         22    1    1    0    0    0 -0.61193279012E+01  0.10804324942E+02 -0.26741884319E+02  0.29484029378E+02  0.00000000000E+00 0. -1.
</event>
<event>
 5    1  0.8778488E-005  0.9118800E+02  0.7818608E-02  0.1130116E+00
         25   -1    0    0    0    0  0.00000000000E+00  0.00000000000E+00  0.99999998245E-14  0.12500000000E+03  0.12500000000E+03 0.  0.
        -11    1    3    3    0    0 -0.34698195862E+02  0.21710655326E+02  0.10288409539E+02  0.42203894629E+02  0.51100000000E-03 0.  1.
         23    2    1    0    0    0  0.13988758579E+02  0.29336925860E+02  0.24419620134E+00  0.92497689046E+02  0.86599204740E+02 0.  0.
         11    1    3    3    0    0  0.48686954441E+02  0.76262705345E+01 -0.10044213338E+02  0.50293794417E+02  0.51100000000E-03 0. -1.
         22    1    1    0    0    0 -0.13988758579E+02 -0.29336925860E+02 -0.24419620134E+00  0.32502310954E+02  0.00000000000E+00 0. -1.
</event>
<event>
 5    1  0.8778488E-005  0.9118800E+02  0.7818608E-02  0.1130116E+00
         25   -1    0    0    0    0  0.00000000000E+00  0.00000000000E+00  0.99999998245E-14  0.12500000000E+03  0.12500000000E+03 0.  0.
        -11    1    3    3    0    0 -0.46918448840E+02 -0.10352213221E+02 -0.85529517036E+00  0.48054559515E+02  0.51100000000E-03 0.  1.
         23    2    1    0    0    0 -0.78234558759E+01 -0.44834607652E+01  0.27077773313E+02  0.96460313775E+02  0.92141621668E+02 0.  0.
         11    1    3    3    0    0  0.39094992964E+02  0.58687524554E+01  0.27933068483E+02  0.48405754259E+02  0.51100000000E-03 0. -1.
         22    1    1    0    0    0  0.78234558759E+01  0.44834607652E+01 -0.27077773313E+02  0.28539686225E+02  0.00000000000E+00 0. -1.
</event>
<event>
 5    1  0.8778488E-005  0.9118800E+02  0.7818608E-02  0.1130116E+00
         25   -1    0    0    0    0  0.00000000000E+00  0.00000000000E+00  0.99999998245E-14  0.12500000000E+03  0.12500000000E+03 0.  0.
        -11    1    3    3    0    0 -0.43212186247E+02  0.41851445473E+02 -0.15377067782E+02  0.62090987609E+02  0.51100000000E-03 0. -1.
         23    2    1    0    0    0 -0.16675438394E+02  0.22555619373E+02 -0.92119799971E+01  0.95475657731E+02  0.90796004498E+02 0.  0.
         11    1    3    3    0    0  0.26536747853E+02 -0.19295826100E+02  0.61650877849E+01  0.33384670122E+02  0.51100000000E-03 0.  1.
         22    1    1    0    0    0  0.16675438394E+02 -0.22555619373E+02  0.92119799971E+01  0.29524342269E+02  0.00000000000E+00 0. -1.
</event>
<event>
 5    1  0.8778488E-005  0.9118800E+02  0.7818608E-02  0.1130116E+00
         25   -1    0    0    0    0  0.00000000000E+00  0.00000000000E+00  0.99999998245E-14  0.12500000000E+03  0.12500000000E+03 0.  0.
        -11    1    3    3    0    0 -0.38788139900E+02  0.31009091824E+02  0.15595891350E+02  0.52051084522E+02  0.51100000000E-03 0.  1.
         23    2    1    0    0    0  0.23780598391E+01  0.26941107706E+02 -0.37096253658E+01  0.97700919917E+02  0.93809540982E+02 0.  0.
         11    1    3    3    0    0  0.41166199739E+02 -0.40679841188E+01 -0.19305516716E+02  0.45649835395E+02  0.51100000000E-03 0. -1.
         22    1    1    0    0    0 -0.23780598391E+01 -0.26941107706E+02  0.37096253658E+01  0.27299080083E+02  0.00000000000E+00 0.  1.
</event>
<event>
 5    1  0.8778488E-005  0.9118800E+02  0.7818608E-02  0.1130116E+00
         25   -1    0    0    0    0  0.00000000000E+00  0.00000000000E+00  0.99999998245E-14  0.12500000000E+03  0.12500000000E+03 0.  0.
        -11    1    3    3    0    0 -0.11743658450E+02  0.39762902056E+02  0.11989341498E+02  0.43159543597E+02  0.51100000000E-03 0. -1.
         23    2    1    0    0    0  0.12368790608E+02  0.74380041554E+01 -0.23857772750E+02  0.97116237566E+02  0.93027197053E+02 0.  0.
         11    1    3    3    0    0  0.24112449058E+02 -0.32324897901E+02 -0.35847114247E+02  0.53956693968E+02  0.51100000000E-03 0.  1.
         22    1    1    0    0    0 -0.12368790608E+02 -0.74380041554E+01  0.23857772750E+02  0.27883762434E+02  0.00000000000E+00 0.  1.
</event>
<event>
 5    1  0.8778488E-005  0.9118800E+02  0.7818608E-02  0.1130116E+00
         25   -1    0    0    0    0  0.00000000000E+00  0.00000000000E+00  0.99999998245E-14  0.12500000000E+03  0.12500000000E+03 0.  0.
        -11    1    3    3    0    0 -0.12681228701E+02 -0.47895842129E+02 -0.12259086198E+02  0.51040282614E+02  0.51100000000E-03 0. -1.
         23    2    1    0    0    0 -0.44010048519E+01 -0.19142214253E+02  0.21316386402E+02  0.96014114823E+02  0.91534303438E+02 0.  0.
         11    1    3    3    0    0  0.82802238494E+01  0.28753627876E+02  0.33575472600E+02  0.44973832210E+02  0.51100000000E-03 0.  1.
         22    1    1    0    0    0  0.44010048519E+01  0.19142214253E+02 -0.21316386402E+02  0.28985885177E+02  0.00000000000E+00 0. -1.
</event>
<event>
 5    1  0.8778488E-005  0.9118800E+02  0.7818608E-02  0.1130116E+00
         25   -1    0    0    0    0  0.00000000000E+00  0.00000000000E+00  0.99999998245E-14  0.12500000000E+03  0.12500000000E+03 0.  0.
        -11    1    3    3    0    0 -0.36214903351E+02  0.31171280286E+02  0.83336144445E+01  0.48503784072E+02  0.51100000000E-03 0.  1.
         23    2    1    0    0    0 -0.24421610355E+02 -0.14462671180E+02  0.74942305801E+01  0.95644465565E+02  0.91028107699E+02 0.  0.
         11    1    3    3    0    0  0.11793292996E+02 -0.45633951466E+02 -0.83938386435E+00  0.47140681493E+02  0.51100000000E-03 0. -1.
         22    1    1    0    0    0  0.24421610355E+02  0.14462671180E+02 -0.74942305801E+01  0.29355534435E+02  0.00000000000E+00 0.  1.
</event>
<event>
 5    1  0.8778488E-005  0.9118800E+02  0.7818608E-02  0.1130116E+00
         25   -1    0    0    0    0  0.00000000000E+00  0.00000000000E+00  0.99999998245E-14  0.12500000000E+03  0.12500000000E+03 0.  0.
        -11    1    3    3    0    0  0.90551073687E+01 -0.20995800875E+02 -0.25287823358E+02  0.34092413149E+02  0.51100000000E-03 0.  1.
         23    2    1    0    0    0 -0.31379375850E+02 -0.18362293239E+01  0.10995815336E+02  0.91699175359E+02  0.85438830983E+02 0.  0.
         11    1    3    3    0    0 -0.40434483219E+02  0.19159571551E+02  0.36283638694E+02  0.57606762210E+02  0.51100000000E-03 0. -1.
         22    1    1    0    0    0  0.31379375850E+02  0.18362293239E+01 -0.10995815336E+02  0.33300824641E+02  0.00000000000E+00 0. -1.
</event>
<event>
 5    1  0.8778488E-005  0.9118800E+02  0.7818608E-02  0.1130116E+00
         25   -1    0    0    0    0  0.00000000000E+00  0.00000000000E+00  0.99999998245E-14  0.12500000000E+03  0.12500000000E+03 0.  0.
        -11    1    3    3    0    0 -0.41958585931E+01  0.19898483231E+01 -0.52529394003E+02  0.52734257938E+02  0.51100000000E-03 0.  1.
         23    2    1    0    0    0  0.15317401188E+02  0.17703712678E+02 -0.17638269397E+02  0.95688692130E+02  0.91088819470E+02 0.  0.
         11    1    3    3    0    0  0.19513259781E+02  0.15713864355E+02  0.34891124606E+02  0.42954434192E+02  0.51100000000E-03 0. -1.
         22    1    1    0    0    0 -0.15317401188E+02 -0.17703712678E+02  0.17638269397E+02  0.29311307870E+02  0.00000000000E+00 0.  1.
</event>
<event>
 5    1  0.8778488E-005  0.9118800E+02  0.7818608E-02  0.1130116E+00
         25   -1    0    0    0    0  0.00000000000E+00  0.00000000000E+00  0.99999998245E-14  0.12500000000E+03  0.12500000000E+03 0.  0.
        -11    1    3    3    0    0  0.48654911811E+02  0.13306361459E+02 -0.32133173800E+02  0.59807194862E+02  0.51100000000E-03 0.  1.
         23    2    1    0    0    0  0.28105127662E+02 -0.25101461271E+01 -0.69830309439E+01  0.95931774123E+02  0.91421789146E+02 0.  0.
         11    1    3    3    0    0 -0.20549784148E+02 -0.15816507586E+02  0.25150142857E+02  0.36124579260E+02  0.51100000000E-03 0. -1.
         22    1    1    0    0    0 -0.28105127662E+02  0.25101461271E+01  0.69830309439E+01  0.29068225877E+02  0.00000000000E+00 0.  1.
</event>
<event>
 5    1  0.8778488E-005  0.9118800E+02  0.7818608E-02  0.1130116E+00
         25   -1    0    0    0    0  0.00000000000E+00  0.00000000000E+00  0.99999998245E-14  0.12500000000E+03  0.12500000000E+03 0.  0.
        -11    1    3    3    0    0  0.19524200092E+02  0.19212254696E+02 -0.54862937764E+02  0.61320853387E+02  0.51100000000E-03 0.  1.
         23    2    1    0    0    0 -0.30761518167E+00  0.95186855839E+01 -0.23223271215E+02  0.99899794258E+02  0.96695132062E+02 0.  0.
         11    1    3    3    0    0 -0.19831815273E+02 -0.96935691120E+01  0.31639666549E+02  0.38578940871E+02  0.51100000000E-03 0. -1.
         22    1    1    0    0    0  0.30761518167E+00 -0.95186855839E+01  0.23223271215E+02  0.25100205742E+02  0.00000000000E+00 0.  1.
</event>
<event>
 5    1  0.8778488E-005  0.9118800E+02  0.7818608E-02  0.1130116E+00
         25   -1    0    0    0    0  0.00000000000E+00  0.00000000000E+00  0.99999998245E-14  0.12500000000E+03  0.12500000000E+03 0.  0.
        -11    1    3    3    0    0  0.40200125687E+02 -0.14984261485E+02 -0.23197268052E+02  0.48771830423E+02  0.51100000000E-03 0. -1.
         23    2    1    0    0    0 -0.66857617120E+01 -0.15954521816E+02 -0.23685132422E+02  0.95670293662E+02  0.91063567992E+02 0.  0.
         11    1    3    3    0    0 -0.46885887399E+02 -0.97026033070E+00 -0.48786436929E+00  0.46898463239E+02  0.51100000000E-03 0.  1.
         22    1    1    0    0    0  0.66857617120E+01  0.15954521816E+02  0.23685132422E+02  0.29329706338E+02  0.00000000000E+00 0. -1.
</event>
<event>
 5    1  0.8778488E-005  0.9118800E+02  0.7818608E-02  0.1130116E+00
         25   -1    0    0    0    0  0.00000000000E+00  0.00000000000E+00  0.99999998245E-14  0.12500000000E+03  0.12500000000E+03 0.  0.
        -11    1    3    3    0    0  0.48133964966E+01  0.30095273078E+02 -0.13658658453E+02  0.33398401137E+02  0.51100000000E-03 0.  1.
         23    2    1    0    0    0 -0.21549812592E+02 -0.22678258771E+02 -0.11932293314E+01  0.93693105554E+02  0.88307850095E+02 0.  0.
         11    1    3    3    0    0 -0.26363209089E+02 -0.52773531849E+02  0.12465429122E+02  0.60294704417E+02  0.51100000000E-03 0. -1.
         22    1    1    0    0    0  0.21549812592E+02  0.22678258771E+02  0.11932293314E+01  0.31306894446E+02  0.00000000000E+00 0. -1.
</event>
<event>
 5    1  0.8778488E-005  0.9118800E+02  0.7818608E-02  0.1130116E+00
         25   -1    0    0    0    0  0.00000000000E+00  0.00000000000E+00  0.99999998245E-14  0.12500000000E+03  0.12500000000E+03 0.  0.
        -11    1    3    3    0    0 -0.15304579745E+02  0.42253704907E+02  0.27221437768E+02  0.52541530373E+02  0.51100000000E-03 0. -1.
         23    2    1    0    0    0  0.17478426503E+02  0.19206393623E+02  0.17207465930E+02  0.93847506797E+02  0.88526135685E+02 0.  0.
         11    1    3    3    0    0  0.32783006248E+02 -0.23047311284E+02 -0.10013971838E+02  0.41305976424E+02  0.51100000000E-03 0.  1.
         22    1    1    0    0    0 -0.17478426503E+02 -0.19206393623E+02 -0.17207465930E+02  0.31152493203E+02  0.00000000000E+00 0. -1.
</event>
<event>
 5    1  0.8778488E-005  0.9118800E+02  0.7818608E-02  0.1130116E+00
         25   -1    0    0    0    0  0.00000000000E+00  0.00000000000E+00  0.99999998245E-14  0.12500000000E+03  0.12500000000E+03 0.  0.
        -11    1    3    3    0    0  0.31192346568E+02 -0.13482916963E+02  0.13642606958E+02  0.36617922649E+02  0.51100000000E-03 0. -1.
         23    2    1    0    0    0 -0.17128594708E+02 -0.19039594698E+02 -0.17143211836E+02  0.94181423865E+02  0.88996381759E+02 0.  0.
         11    1    3    3    0    0 -0.48320941276E+02 -0.55566777356E+01 -0.30785818794E+02  0.57563501216E+02  0.51100000000E-03 0.  1.
         22    1    1    0    0    0  0.17128594708E+02  0.19039594698E+02  0.17143211836E+02  0.30818576135E+02  0.00000000000E+00 0.  1.
</event>
<event>
 5    1  0.8778488E-005  0.9118800E+02  0.7818608E-02  0.1130116E+00
         25   -1    0    0    0    0  0.00000000000E+00  0.00000000000E+00  0.99999998245E-14  0.12500000000E+03  0.12500000000E+03 0.  0.
        -11    1    3    3    0    0  0.32141292760E+02 -0.15539651136E+02 -0.11899794894E+02  0.37631749581E+02  0.51100000000E-03 0. -1.
         23    2    1    0    0    0 -0.18442232799E+02  0.12169716611E+02 -0.19148893999E+02  0.95761359566E+02  0.91188485521E+02 0.  0.
         11    1    3    3    0    0 -0.50583525560E+02  0.27709367747E+02 -0.72490991050E+01  0.58129609986E+02  0.51100000000E-03 0.  1.
         22    1    1    0    0    0  0.18442232799E+02 -0.12169716611E+02  0.19148893999E+02  0.29238640434E+02  0.00000000000E+00 0.  1.
</event>
<event>
 5    1  0.8778488E-005  0.9118800E+02  0.7818608E-02  0.1130116E+00
         25   -1    0    0    0    0  0.00000000000E+00  0.00000000000E+00  0.99999998245E-14  0.12500000000E+03  0.12500000000E+03 0.  0.
        -11    1    3    3    0    0  0.41326205686E+02  0.25784768183E+02  0.33033256455E+02  0.58854953733E+02  0.51100000000E-03 0. -1.
         23    2    1    0    0    0  0.26076519854E+02  0.13828291362E+02  0.20325165299E+01  0.95413894256E+02  0.90710934092E+02 0.  0.
         11    1    3    3    0    0 -0.15249685832E+02 -0.11956476821E+02 -0.31000739926E+02  0.36558940523E+02  0.51100000000E-03 0.  1.
         22    1    1    0    0    0 -0.26076519854E+02 -0.13828291362E+02 -0.20325165299E+01  0.29586105744E+02  0.00000000000E+00 0. -1.
</event>
<event>
 5    1  0.8778488E-005  0.9118800E+02  0.7818608E-02  0.1130116E+00
         25   -1    0    0    0    0  0.00000000000E+00  0.00000000000E+00  0.99999998245E-14  0.12500000000E+03  0.12500000000E+03 0.  0.
        -11    1    3    3    0    0  0.70653907526E+00 -0.36896221874E+01 -0.35347882193E+02  0.35546944808E+02  0.51100000000E-03 0. -1.
         23    2    1    0    0    0 -0.21401370907E+02 -0.28247848534E+01  0.20260134574E+02  0.95394744738E+02  0.90684542147E+02 0.  0.
         11    1    3    3    0    0 -0.22107909983E+02  0.86483733402E+00  0.55608016767E+02  0.59847799930E+02  0.51100000000E-03 0.  1.
         22    1    1    0    0    0  0.21401370907E+02  0.28247848534E+01 -0.20260134574E+02  0.29605255262E+02  0.00000000000E+00 0.  1.
</event>
<event>
 5    1  0.8778488E-005  0.9118800E+02  0.7818608E-02  0.1130116E+00
         25   -1    0    0    0    0  0.00000000000E+00  0.00000000000E+00  0.99999998245E-14  0.12500000000E+03  0.12500000000E+03 0.  0.
        -11    1    3    3    0    0  0.99806657599E+01 -0.83893026765E+01  0.29872982431E+02  0.32594311896E+02  0.51100000000E-03 0.  1.
         23    2    1    0    0    0 -0.12939976985E+02  0.13186170459E+02 -0.23832739627E+02  0.94845106966E+02  0.89923727356E+02 0.  0.
         11    1    3    3    0    0 -0.22920642745E+02  0.21575473136E+02 -0.53705722057E+02  0.62250795070E+02  0.51100000000E-03 0. -1.
         22    1    1    0    0    0  0.12939976985E+02 -0.13186170459E+02  0.23832739627E+02  0.30154893034E+02  0.00000000000E+00 0. -1.
</event>
<event>
 5    1  0.8778488E-005  0.9118800E+02  0.7818608E-02  0.1130116E+00
         25   -1    0    0    0    0  0.00000000000E+00  0.00000000000E+00  0.99999998245E-14  0.12500000000E+03  0.12500000000E+03 0.  0.
        -11    1    3    3    0    0  0.12415033920E+02 -0.45870145413E+02  0.93792708995E+01  0.48437320635E+02  0.51100000000E-03 0.  1.
         23    2    1    0    0    0 -0.21239954370E+02 -0.17351500575E+02 -0.88679964977E+01  0.96175503548E+02  0.91754432519E+02 0.  0.
         11    1    3    3    0    0 -0.33654988289E+02  0.28518644837E+02 -0.18247267397E+02  0.47738182913E+02  0.51100000000E-03 0. -1.
         22    1    1    0    0    0  0.21239954370E+02  0.17351500575E+02  0.88679964977E+01  0.28824496452E+02  0.00000000000E+00 0. -1.
</event>
<event>
 5    1  0.8778488E-005  0.9118800E+02  0.7818608E-02  0.1130116E+00
         25   -1    0    0    0    0  0.00000000000E+00  0.00000000000E+00  0.99999998245E-14  0.12500000000E+03  0.12500000000E+03 0.  0.
        -11    1    3    3    0    0  0.36288036473E+02 -0.10178144723E+02  0.30596281599E+02  0.48544295947E+02  0.51100000000E-03 0. -1.
         23    2    1    0    0    0  0.55625075337E+01 -0.29354555988E+02  0.13572854105E+01  0.95092247309E+02  0.90266615242E+02 0.  0.
         11    1    3    3    0    0 -0.30725528940E+02 -0.19176411265E+02 -0.29238996188E+02  0.46547951362E+02  0.51100000000E-03 0.  1.
         22    1    1    0    0    0 -0.55625075337E+01  0.29354555988E+02 -0.13572854105E+01  0.29907752691E+02  0.00000000000E+00 0. -1.
</event>
<event>
 5    1  0.8778488E-005  0.9118800E+02  0.7818608E-02  0.1130116E+00
         25   -1    0    0    0    0  0.00000000000E+00  0.00000000000E+00  0.99999998245E-14  0.12500000000E+03  0.12500000000E+03 0.  0.
        -11    1    3    3    0    0  0.27833946280E+02  0.45437012673E+02  0.25363849309E+02  0.59013350508E+02  0.51100000000E-03 0.  1.
         23    2    1    0    0    0  0.44540969397E+01  0.28437804552E+02  0.20632058889E+01  0.96141647208E+02  0.91708297346E+02 0.  0.
         11    1    3    3    0    0 -0.23379849340E+02 -0.16999208120E+02 -0.23300643420E+02  0.37128296701E+02  0.51100000000E-03 0. -1.
         22    1    1    0    0    0 -0.44540969397E+01 -0.28437804552E+02 -0.20632058889E+01  0.28858352792E+02  0.00000000000E+00 0.  1.
</event>
<event>
 5    1  0.8778488E-005  0.9118800E+02  0.7818608E-02  0.1130116E+00
         25   -1    0    0    0    0  0.00000000000E+00  0.00000000000E+00  0.99999998245E-14  0.12500000000E+03  0.12500000000E+03 0.  0.
        -11    1    3    3    0    0  0.15035295147E+02  0.10019781614E+02  0.53586936179E+02  0.56551002229E+02  0.51100000000E-03 0.  1.
         23    2    1    0    0    0  0.23711011322E+02 -0.13588496721E+01  0.17125420719E+02  0.95719655652E+02  0.91131300402E+02 0.  0.
         11    1    3    3    0    0  0.86757161748E+01 -0.11378631286E+02 -0.36461515460E+02  0.39168653423E+02  0.51100000000E-03 0. -1.
         22    1    1    0    0    0 -0.23711011322E+02  0.13588496721E+01 -0.17125420719E+02  0.29280344348E+02  0.00000000000E+00 0.  1.
</event>
<event>
 5    1  0.8778488E-005  0.9118800E+02  0.7818608E-02  0.1130116E+00
         25   -1    0    0    0    0  0.00000000000E+00  0.00000000000E+00  0.99999998245E-14  0.12500000000E+03  0.12500000000E+03 0.  0.
        -11    1    3    3    0    0 -0.51637752129E+02  0.79960451186E+01  0.64939671010E+01  0.52655159210E+02  0.51100000000E-03 0. -1.
         23    2    1    0    0    0 -0.16362653477E+02  0.14964567871E+02 -0.18232114314E+02  0.96293124295E+02  0.91914531353E+02 0.  0.
         11    1    3    3    0    0  0.35275098653E+02  0.69685227525E+01 -0.24726081415E+02  0.43637965085E+02  0.51100000000E-03 0.  1.
         22    1    1    0    0    0  0.16362653477E+02 -0.14964567871E+02  0.18232114314E+02  0.28706875705E+02  0.00000000000E+00 0. -1.
</event>
<event>
 5    1  0.8778488E-005  0.9118800E+02  0.7818608E-02  0.1130116E+00
         25   -1    0    0    0    0  0.00000000000E+00  0.00000000000E+00  0.99999998245E-14  0.12500000000E+03  0.12500000000E+03 0.  0.
        -11    1    3    3    0    0  0.64873239844E+01  0.56417064599E+02 -0.88104586161E+01  0.57468206269E+02  0.51100000000E-03 0. -1.
         23    2    1    0    0    0 -0.11475161515E+02  0.22499536924E+02 -0.13877739322E+02  0.96181600629E+02  0.91762738392E+02 0.  0.
         11    1    3    3    0    0 -0.17962485500E+02 -0.33917527675E+02 -0.50672807062E+01  0.38713394360E+02  0.51100000000E-03 0.  1.
         22    1    1    0    0    0  0.11475161515E+02 -0.22499536924E+02  0.13877739322E+02  0.28818399371E+02  0.00000000000E+00 0. -1.
</event>
<event>
 5    1  0.8778488E-005  0.9118800E+02  0.7818608E-02  0.1130116E+00
         25   -1    0    0    0    0  0.00000000000E+00  0.00000000000E+00  0.99999998245E-14  0.12500000000E+03  0.12500000000E+03 0.  0.
        -11    1    3    3    0    0 -0.41178071619E+02  0.32352370620E+01 -0.35805323753E+02  0.54663713288E+02  0.51100000000E-03 0.  1.
         23    2    1    0    0    0 -0.29930250787E+02  0.16036968076E+01  0.27895589362E+01  0.94897285925E+02  0.89996230372E+02 0.  0.
         11    1    3    3    0    0  0.11247820832E+02 -0.16315402544E+01  0.38594882689E+02  0.40233572637E+02  0.51100000000E-03 0. -1.
         22    1    1    0    0    0  0.29930250787E+02 -0.16036968076E+01 -0.27895589362E+01  0.30102714075E+02  0.00000000000E+00 0. -1.
</event>
<event>
 5    1  0.8778488E-005  0.9118800E+02  0.7818608E-02  0.1130116E+00
         25   -1    0    0    0    0  0.00000000000E+00  0.00000000000E+00  0.99999998245E-14  0.12500000000E+03  0.12500000000E+03 0.  0.
        -11    1    3    3    0    0  0.13877673100E+00  0.40304430174E+02 -0.27743599360E+02  0.48930293851E+02  0.51100000000E-03 0.  1.
         23    2    1    0    0    0 -0.64352038641E+01  0.22120948174E+02  0.16130702070E+02  0.96876206761E+02  0.92704108270E+02 0.  0.
         11    1    3    3    0    0 -0.65739805951E+01 -0.18183482000E+02  0.43874301430E+02  0.47945912910E+02  0.51100000000E-03 0. -1.
         22    1    1    0    0    0  0.64352038641E+01 -0.22120948174E+02 -0.16130702070E+02  0.28123793239E+02  0.00000000000E+00 0.  1.
</event>
<event>
 5    1  0.8778488E-005  0.9118800E+02  0.7818608E-02  0.1130116E+00
         25   -1    0    0    0    0  0.00000000000E+00  0.00000000000E+00  0.99999998245E-14  0.12500000000E+03  0.12500000000E+03 0.  0.
        -11    1    3    3    0    0  0.81611513413E+00  0.91180320896E+01  0.12789786122E+02  0.15728419577E+02  0.51100000000E-03 0. -1.
         23    2    1    0    0    0 -0.43051446644E+02 -0.17306955320E+02 -0.17710743678E+02  0.75334839150E+02  0.56645474555E+02 0.  0.
         11    1    3    3    0    0 -0.43867561778E+02 -0.26424987410E+02 -0.30500529800E+02  0.59606419573E+02  0.51100000000E-03 0.  1.
         22    1    1    0    0    0  0.43051446644E+02  0.17306955320E+02  0.17710743678E+02  0.49665160850E+02  0.00000000000E+00 0.  1.
</event>
<event>
 5    1  0.8778488E-005  0.9118800E+02  0.7818608E-02  0.1130116E+00
         25   -1    0    0    0    0  0.00000000000E+00  0.00000000000E+00  0.99999998245E-14  0.12500000000E+03  0.12500000000E+03 0.  0.
        -11    1    3    3    0    0  0.52284491358E+02 -0.42347552250E+01  0.33017963935E+02  0.61982151714E+02  0.51100000000E-03 0.  1.
         23    2    1    0    0    0  0.27684061786E+02  0.76691762333E+00  0.11626550519E+02  0.94963819873E+02  0.90088595107E+02 0.  0.
         11    1    3    3    0    0 -0.24600429572E+02  0.50016728483E+01 -0.21391413415E+02  0.32981668160E+02  0.51100000000E-03 0. -1.
         22    1    1    0    0    0 -0.27684061786E+02 -0.76691762333E+00 -0.11626550519E+02  0.30036180127E+02  0.00000000000E+00 0.  1.
</event>
<event>
 5    1  0.8778488E-005  0.9118800E+02  0.7818608E-02  0.1130116E+00
         25   -1    0    0    0    0  0.00000000000E+00  0.00000000000E+00  0.99999998245E-14  0.12500000000E+03  0.12500000000E+03 0.  0.
        -11    1    3    3    0    0  0.28064662716E+02 -0.34740705326E+02 -0.31844559646E+02  0.54850869448E+02  0.51100000000E-03 0. -1.
         23    2    1    0    0    0  0.26834090745E+02 -0.87219012587E+00 -0.59542625367E+01  0.97499411204E+02  0.93540647855E+02 0.  0.
         11    1    3    3    0    0 -0.12305719705E+01  0.33868515200E+02  0.25890297110E+02  0.42648541756E+02  0.51100000000E-03 0.  1.
         22    1    1    0    0    0 -0.26834090745E+02  0.87219012587E+00  0.59542625367E+01  0.27500588796E+02  0.00000000000E+00 0. -1.
</event>
<event>
 5    1  0.8778488E-005  0.9118800E+02  0.7818608E-02  0.1130116E+00
         25   -1    0    0    0    0  0.00000000000E+00  0.00000000000E+00  0.99999998245E-14  0.12500000000E+03  0.12500000000E+03 0.  0.
        -11    1    3    3    0    0 -0.21496679070E+02 -0.57450672616E+02  0.29572473986E+01  0.61411988305E+02  0.51100000000E-03 0. -1.
         23    2    1    0    0    0 -0.25022703542E+01 -0.28274055697E+02  0.45004853993E+01  0.96260863769E+02  0.91870647881E+02 0.  0.
         11    1    3    3    0    0  0.18994408716E+02  0.29176616919E+02  0.15432380007E+01  0.34848875464E+02  0.51100000000E-03 0.  1.
         22    1    1    0    0    0  0.25022703542E+01  0.28274055697E+02 -0.45004853993E+01  0.28739136231E+02  0.00000000000E+00 0. -1.
</event>
<event>
 5    1  0.8778488E-005  0.9118800E+02  0.7818608E-02  0.1130116E+00
         25   -1    0    0    0    0  0.00000000000E+00  0.00000000000E+00  0.99999998245E-14  0.12500000000E+03  0.12500000000E+03 0.  0.
        -11    1    3    3    0    0 -0.20572063723E+02 -0.43867599488E+02 -0.17877790156E+02  0.51644859103E+02  0.51100000000E-03 0. -1.
         23    2    1    0    0    0  0.82018390644E+01 -0.40589911192E+02 -0.51774317868E+01  0.83267316711E+02  0.72054348777E+02 0.  0.
         11    1    3    3    0    0  0.28773902787E+02  0.32776882961E+01  0.12700358369E+02  0.31622457608E+02  0.51100000000E-03 0.  1.
         22    1    1    0    0    0 -0.82018390644E+01  0.40589911192E+02  0.51774317868E+01  0.41732683289E+02  0.00000000000E+00 0. -1.
</event>
<event>
 5    1  0.8778488E-005  0.9118800E+02  0.7818608E-02  0.1130116E+00
         25   -1    0    0    0    0  0.00000000000E+00  0.00000000000E+00  0.99999998245E-14  0.12500000000E+03  0.12500000000E+03 0.  0.
        -11    1    3    3    0    0  0.23757027157E+02  0.20749548255E+02 -0.79540328605E+01  0.32530089627E+02  0.51100000000E-03 0.  1.
         23    2    1    0    0    0 -0.22471131097E+02 -0.13864431754E+02  0.14950289034E+02  0.94657202785E+02  0.89662147510E+02 0.  0.
         11    1    3    3    0    0 -0.46228158254E+02 -0.34613980010E+02  0.22904321894E+02  0.62127113158E+02  0.51100000000E-03 0. -1.
         22    1    1    0    0    0  0.22471131097E+02  0.13864431754E+02 -0.14950289034E+02  0.30342797215E+02  0.00000000000E+00 0. -1.
</event>
<event>
 5    1  0.8778488E-005  0.9118800E+02  0.7818608E-02  0.1130116E+00
         25   -1    0    0    0    0  0.00000000000E+00  0.00000000000E+00  0.99999998245E-14  0.12500000000E+03  0.12500000000E+03 0.  0.
        -11    1    3    3    0    0  0.65386785947E+01  0.54099590957E+02 -0.20314150445E+01  0.54531153543E+02  0.51100000000E-03 0.  1.
         23    2    1    0    0    0 -0.92231700047E+01  0.21504984828E+02  0.17603633511E+02  0.95718279590E+02  0.91129412911E+02 0.  0.
         11    1    3    3    0    0 -0.15761848599E+02 -0.32594606129E+02  0.19635048555E+02  0.41187126047E+02  0.51100000000E-03 0. -1.
         22    1    1    0    0    0  0.92231700047E+01 -0.21504984828E+02 -0.17603633511E+02  0.29281720410E+02  0.00000000000E+00 0.  1.
</event>
<event>
 5    1  0.8778488E-005  0.9118800E+02  0.7818608E-02  0.1130116E+00
         25   -1    0    0    0    0  0.00000000000E+00  0.00000000000E+00  0.99999998245E-14  0.12500000000E+03  0.12500000000E+03 0.  0.
        -11    1    3    3    0    0 -0.71031813616E+01 -0.25429114343E+02 -0.35243725903E+02  0.44036521860E+02  0.51100000000E-03 0.  1.
         23    2    1    0    0    0 -0.29290481994E+02  0.95538954775E+01 -0.97205871141E+01  0.92693668297E+02  0.86881626793E+02 0.  0.
         11    1    3    3    0    0 -0.22187300633E+02  0.34983009821E+02  0.25523138789E+02  0.48657146437E+02  0.51100000000E-03 0. -1.
         22    1    1    0    0    0  0.29290481994E+02 -0.95538954775E+01  0.97205871141E+01  0.32306331703E+02  0.00000000000E+00 0. -1.
</event>
<event>
 5    1  0.8778488E-005  0.9118800E+02  0.7818608E-02  0.1130116E+00
         25   -1    0    0    0    0  0.00000000000E+00  0.00000000000E+00  0.99999998245E-14  0.12500000000E+03  0.12500000000E+03 0.  0.
        -11    1    3    3    0    0  0.44257184117E+01 -0.37695384561E+02 -0.11589971192E+02  0.39684460852E+02  0.51100000000E-03 0.  1.
         23    2    1    0    0    0 -0.27094337578E+02  0.46923322838E+01  0.85307553937E+01  0.96209465120E+02  0.91800687798E+02 0.  0.
         11    1    3    3    0    0 -0.31520055990E+02  0.42387716845E+02  0.20120726585E+02  0.56525004268E+02  0.51100000000E-03 0. -1.
         22    1    1    0    0    0  0.27094337578E+02 -0.46923322838E+01 -0.85307553937E+01  0.28790534880E+02  0.00000000000E+00 0. -1.
</event>
<event>
 5    1  0.8778488E-005  0.9118800E+02  0.7818608E-02  0.1130116E+00
         25   -1    0    0    0    0  0.00000000000E+00  0.00000000000E+00  0.99999998245E-14  0.12500000000E+03  0.12500000000E+03 0.  0.
        -11    1    3    3    0    0 -0.46081017136E+02 -0.37926556919E+02 -0.18139160212E+02  0.62377183276E+02  0.51100000000E-03 0. -1.
         23    2    1    0    0    0 -0.23102105975E+02 -0.15532426399E+02 -0.77571350452E+01  0.96101267945E+02  0.91653243184E+02 0.  0.
         11    1    3    3    0    0  0.22978911161E+02  0.22394130520E+02  0.10382025167E+02  0.33724084668E+02  0.51100000000E-03 0.  1.
         22    1    1    0    0    0  0.23102105975E+02  0.15532426399E+02  0.77571350452E+01  0.28898732055E+02  0.00000000000E+00 0. -1.
</event>
<event>
 5    1  0.8778488E-005  0.9118800E+02  0.7818608E-02  0.1130116E+00
         25   -1    0    0    0    0  0.00000000000E+00  0.00000000000E+00  0.99999998245E-14  0.12500000000E+03  0.12500000000E+03 0.  0.
        -11    1    3    3    0    0 -0.43365108791E+01 -0.11736495882E+02 -0.33354836013E+02  0.35624370141E+02  0.51100000000E-03 0. -1.
         23    2    1    0    0    0  0.50032767146E+01  0.31667758561E+02  0.27111109267E+01  0.92825012314E+02  0.87070391514E+02 0.  0.
         11    1    3    3    0    0  0.93397875937E+01  0.43404254443E+02  0.36065946940E+02  0.57200642173E+02  0.51100000000E-03 0.  1.
         22    1    1    0    0    0 -0.50032767146E+01 -0.31667758561E+02 -0.27111109267E+01  0.32174987686E+02  0.00000000000E+00 0.  1.
</event>
<event>
 5    1  0.8778488E-005  0.9118800E+02  0.7818608E-02  0.1130116E+00
         25   -1    0    0    0    0  0.00000000000E+00  0.00000000000E+00  0.99999998245E-14  0.12500000000E+03  0.12500000000E+03 0.  0.
        -11    1    3    3    0    0 -0.51155046161E+02 -0.32906149076E+01 -0.27944529914E+02  0.58382905431E+02  0.51100000000E-03 0.  1.
         23    2    1    0    0    0 -0.19059546032E+02 -0.16765400025E+02 -0.14963332177E+02  0.95533981559E+02  0.90876264171E+02 0.  0.
         11    1    3    3    0    0  0.32095500129E+02 -0.13474785117E+02  0.12981197737E+02  0.37151076128E+02  0.51100000000E-03 0. -1.
         22    1    1    0    0    0  0.19059546032E+02  0.16765400025E+02  0.14963332177E+02  0.29466018441E+02  0.00000000000E+00 0.  1.
</event>
<event>
 5    1  0.8778488E-005  0.9118800E+02  0.7818608E-02  0.1130116E+00
         25   -1    0    0    0    0  0.00000000000E+00  0.00000000000E+00  0.99999998245E-14  0.12500000000E+03  0.12500000000E+03 0.  0.
        -11    1    3    3    0    0  0.12088444599E+02 -0.51790376682E+02 -0.36247913855E+01  0.53305841355E+02  0.51100000000E-03 0.  1.
         23    2    1    0    0    0 -0.16396810796E+02 -0.20386080098E+02  0.86493837069E+01  0.97445336065E+02  0.93468358370E+02 0.  0.
         11    1    3    3    0    0 -0.28485255395E+02  0.31404296584E+02  0.12274175092E+02  0.44139494710E+02  0.51100000000E-03 0. -1.
         22    1    1    0    0    0  0.16396810796E+02  0.20386080098E+02 -0.86493837069E+01  0.27554663935E+02  0.00000000000E+00 0.  1.
</event>
<event>
 5    1  0.8778488E-005  0.9118800E+02  0.7818608E-02  0.1130116E+00
         25   -1    0    0    0    0  0.00000000000E+00  0.00000000000E+00  0.99999998245E-14  0.12500000000E+03  0.12500000000E+03 0.  0.
        -11    1    3    3    0    0 -0.44408881886E+02 -0.28544293130E+02 -0.91442172575E+01  0.53577440870E+02  0.51100000000E-03 0. -1.
         23    2    1    0    0    0 -0.79849170949E+01 -0.26998593844E+02  0.10452935851E+02  0.94967570220E+02  0.90093798649E+02 0.  0.
         11    1    3    3    0    0  0.36423964791E+02  0.15456992858E+01  0.19597153108E+02  0.41390129350E+02  0.51100000000E-03 0.  1.
         22    1    1    0    0    0  0.79849170949E+01  0.26998593844E+02 -0.10452935851E+02  0.30032429780E+02  0.00000000000E+00 0. -1.
</event>
<event>
 5    1  0.8778488E-005  0.9118800E+02  0.7818608E-02  0.1130116E+00
         25   -1    0    0    0    0  0.00000000000E+00  0.00000000000E+00  0.99999998245E-14  0.12500000000E+03  0.12500000000E+03 0.  0.
        -11    1    3    3    0    0 -0.12686594179E+02  0.98566912559E+01 -0.37962689004E+02  0.41222200221E+02  0.51100000000E-03 0. -1.
         23    2    1    0    0    0  0.22774013251E+01  0.33503018412E+02  0.34928360679E+01  0.91238502650E+02  0.84762171176E+02 0.  0.
         11    1    3    3    0    0  0.14963995504E+02  0.23646327156E+02  0.41455525072E+02  0.50016302429E+02  0.51100000000E-03 0.  1.
         22    1    1    0    0    0 -0.22774013251E+01 -0.33503018412E+02 -0.34928360679E+01  0.33761497350E+02  0.00000000000E+00 0. -1.
</event>
<event>
 5    1  0.8778488E-005  0.9118800E+02  0.7818608E-02  0.1130116E+00
         25   -1    0    0    0    0  0.00000000000E+00  0.00000000000E+00  0.99999998245E-14  0.12500000000E+03  0.12500000000E+03 0.  0.
        -11    1    3    3    0    0  0.19513012529E+02 -0.78095460125E+01  0.22912874488E+02  0.31092547088E+02  0.51100000000E-03 0. -1.
         23    2    1    0    0    0 -0.22180838971E+02  0.16373853471E+02 -0.16074498980E+02  0.93086331887E+02  0.87444742391E+02 0.  0.
         11    1    3    3    0    0 -0.41693851501E+02  0.24183399483E+02 -0.38987373468E+02  0.61993784799E+02  0.51100000000E-03 0.  1.
         22    1    1    0    0    0  0.22180838971E+02 -0.16373853471E+02  0.16074498980E+02  0.31913668113E+02  0.00000000000E+00 0.  1.
</event>
<event>
 5    1  0.8778488E-005  0.9118800E+02  0.7818608E-02  0.1130116E+00
         25   -1    0    0    0    0  0.00000000000E+00  0.00000000000E+00  0.99999998245E-14  0.12500000000E+03  0.12500000000E+03 0.  0.
        -11    1    3    3    0    0  0.23957479752E+02  0.67100540042E+01  0.39353500796E+02  0.46558390071E+02  0.51100000000E-03 0.  1.
         23    2    1    0    0    0 -0.43310606900E+01  0.22742556107E+02  0.39661772965E+02  0.79075734304E+02  0.64373391833E+02 0.  0.
         11    1    3    3    0    0 -0.28288540442E+02  0.16032502103E+02  0.30827216879E+00  0.32517344234E+02  0.51100000000E-03 0. -1.
         22    1    1    0    0    0  0.43310606900E+01 -0.22742556107E+02 -0.39661772965E+02  0.45924265696E+02  0.00000000000E+00 0.  1.
</event>
<event>
 5    1  0.8778488E-005  0.9118800E+02  0.7818608E-02  0.1130116E+00
         25   -1    0    0    0    0  0.00000000000E+00  0.00000000000E+00  0.99999998245E-14  0.12500000000E+03  0.12500000000E+03 0.  0.
        -11    1    3    3    0    0 -0.28057158560E+02 -0.29877678345E+02  0.40890142604E+02  0.57895453813E+02  0.51100000000E-03 0.  1.
         23    2    1    0    0    0 -0.51577303097E+00 -0.24950326043E+02  0.15900683877E+02  0.95409181505E+02  0.90704439672E+02 0.  0.
         11    1    3    3    0    0  0.27541385529E+02  0.49273523025E+01 -0.24989458728E+02  0.37513727692E+02  0.51100000000E-03 0. -1.
         22    1    1    0    0    0  0.51577303097E+00  0.24950326043E+02 -0.15900683877E+02  0.29590818495E+02  0.00000000000E+00 0.  1.
</event>
<event>
 5    1  0.8778488E-005  0.9118800E+02  0.7818608E-02  0.1130116E+00
         25   -1    0    0    0    0  0.00000000000E+00  0.00000000000E+00  0.99999998245E-14  0.12500000000E+03  0.12500000000E+03 0.  0.
        -11    1    3    3    0    0 -0.11483992489E+02 -0.40711066500E+02  0.12011545264E+01  0.42316849971E+02  0.51100000000E-03 0. -1.
         23    2    1    0    0    0 -0.19685610544E+02  0.77693324575E+01 -0.20017838539E+02  0.95869266245E+02  0.91336282831E+02 0.  0.
         11    1    3    3    0    0 -0.82016180547E+01  0.48480398957E+02 -0.21218993066E+02  0.53552416274E+02  0.51100000000E-03 0.  1.
         22    1    1    0    0    0  0.19685610544E+02 -0.77693324575E+01  0.20017838539E+02  0.29130733755E+02  0.00000000000E+00 0.  1.
</event>
<event>
 5    1  0.8778488E-005  0.9118800E+02  0.7818608E-02  0.1130116E+00
         25   -1    0    0    0    0  0.00000000000E+00  0.00000000000E+00  0.99999998245E-14  0.12500000000E+03  0.12500000000E+03 0.  0.
        -11    1    3    3    0    0  0.76951370604E+01 -0.10478512708E+02 -0.33993856714E+02  0.36395008690E+02  0.51100000000E-03 0.  1.
         23    2    1    0    0    0  0.84262561350E+01  0.80600715611E+01  0.24557108270E+02  0.97815112423E+02  0.93961577816E+02 0.  0.
         11    1    3    3    0    0  0.73111907466E+00  0.18538584269E+02  0.58550964984E+02  0.61420103733E+02  0.51100000000E-03 0. -1.
         22    1    1    0    0    0 -0.84262561350E+01 -0.80600715611E+01 -0.24557108270E+02  0.27184887577E+02  0.00000000000E+00 0. -1.
</event>
<event>
 5    1  0.8778488E-005  0.9118800E+02  0.7818608E-02  0.1130116E+00
         25   -1    0    0    0    0  0.00000000000E+00  0.00000000000E+00  0.99999998245E-14  0.12500000000E+03  0.12500000000E+03 0.  0.
        -11    1    3    3    0    0 -0.24258898473E+02 -0.99724233868E+01 -0.29611700645E+02  0.39557504960E+02  0.51100000000E-03 0.  1.
         23    2    1    0    0    0 -0.17728673621E+02  0.83225799271E+01  0.22498849774E+02  0.95170996561E+02  0.90375600360E+02 0.  0.
         11    1    3    3    0    0  0.65302248521E+01  0.18295003314E+02  0.52110550419E+02  0.55613491601E+02  0.51100000000E-03 0. -1.
         22    1    1    0    0    0  0.17728673621E+02 -0.83225799271E+01 -0.22498849774E+02  0.29829003439E+02  0.00000000000E+00 0. -1.
</event>
<event>
 5    1  0.8778488E-005  0.9118800E+02  0.7818608E-02  0.1130116E+00
         25   -1    0    0    0    0  0.00000000000E+00  0.00000000000E+00  0.99999998245E-14  0.12500000000E+03  0.12500000000E+03 0.  0.
        -11    1    3    3    0    0  0.18942427241E+02 -0.52006145056E+02  0.27554257906E+02  0.61827920896E+02  0.51100000000E-03 0. -1.
         23    2    1    0    0    0  0.27541145013E+01 -0.26439043447E+02  0.13197862727E+02  0.95321864182E+02  0.90584027540E+02 0.  0.
         11    1    3    3    0    0 -0.16188312740E+02  0.25567101608E+02 -0.14356395179E+02  0.33493943285E+02  0.51100000000E-03 0.  1.
         22    1    1    0    0    0 -0.27541145013E+01  0.26439043447E+02 -0.13197862727E+02  0.29678135818E+02  0.00000000000E+00 0. -1.
</event>
<event>
 5    1  0.8778488E-005  0.9118800E+02  0.7818608E-02  0.1130116E+00
         25   -1    0    0    0    0  0.00000000000E+00  0.00000000000E+00  0.99999998245E-14  0.12500000000E+03  0.12500000000E+03 0.  0.
        -11    1    3    3    0    0  0.37149105425E+02  0.31542207432E+00  0.35646199163E+02  0.51485988773E+02  0.51100000000E-03 0.  1.
         23    2    1    0    0    0 -0.54104032612E+01  0.10279568682E+02  0.26391100505E+02  0.96165434256E+02  0.91740713775E+02 0.  0.
         11    1    3    3    0    0 -0.42559508686E+02  0.99641466082E+01 -0.92550986573E+01  0.44679445483E+02  0.51100000000E-03 0. -1.
         22    1    1    0    0    0  0.54104032612E+01 -0.10279568682E+02 -0.26391100505E+02  0.28834565744E+02  0.00000000000E+00 0.  1.
</event>
<event>
 5    1  0.8778488E-005  0.9118800E+02  0.7818608E-02  0.1130116E+00
         25   -1    0    0    0    0  0.00000000000E+00  0.00000000000E+00  0.99999998245E-14  0.12500000000E+03  0.12500000000E+03 0.  0.
        -11    1    3    3    0    0  0.52702182478E+02 -0.16659611410E+02 -0.13175673836E+02  0.56821308253E+02  0.51100000000E-03 0. -1.
         23    2    1    0    0    0  0.17881115164E+02 -0.22070528059E+01 -0.23001849953E+02  0.95782018159E+02  0.91216799658E+02 0.  0.
         11    1    3    3    0    0 -0.34821067314E+02  0.14452558604E+02 -0.98261761165E+01  0.38960709906E+02  0.51100000000E-03 0.  1.
         22    1    1    0    0    0 -0.17881115164E+02  0.22070528059E+01  0.23001849953E+02  0.29217981841E+02  0.00000000000E+00 0. -1.
</event>
<event>
 5    1  0.8778488E-005  0.9118800E+02  0.7818608E-02  0.1130116E+00
         25   -1    0    0    0    0  0.00000000000E+00  0.00000000000E+00  0.99999998245E-14  0.12500000000E+03  0.12500000000E+03 0.  0.
        -11    1    3    3    0    0  0.12115752792E+02  0.27237685451E+02 -0.45241531498E+02  0.54180062265E+02  0.51100000000E-03 0.  1.
         23    2    1    0    0    0  0.26718478011E+02  0.40442744587E+01 -0.20869167459E+02  0.90856840018E+02  0.84197446544E+02 0.  0.
         11    1    3    3    0    0  0.14602725219E+02 -0.23193410993E+02  0.24372364039E+02  0.36676777754E+02  0.51100000000E-03 0. -1.
         22    1    1    0    0    0 -0.26718478011E+02 -0.40442744587E+01  0.20869167459E+02  0.34143159982E+02  0.00000000000E+00 0.  1.
</event>
<event>
 5    1  0.8778488E-005  0.9118800E+02  0.7818608E-02  0.1130116E+00
         25   -1    0    0    0    0  0.00000000000E+00  0.00000000000E+00  0.99999998245E-14  0.12500000000E+03  0.12500000000E+03 0.  0.
        -11    1    3    3    0    0  0.28278237592E+02  0.12215999005E+02  0.33675742316E+02  0.45639291995E+02  0.51100000000E-03 0.  1.
         23    2    1    0    0    0  0.26188866412E+02 -0.11360989577E+02 -0.95305726929E+01  0.94904142744E+02  0.90005753627E+02 0.  0.
         11    1    3    3    0    0 -0.20893711801E+01 -0.23576988582E+02 -0.43206315008E+02  0.49264850749E+02  0.51100000000E-03 0. -1.
         22    1    1    0    0    0 -0.26188866412E+02  0.11360989577E+02  0.95305726929E+01  0.30095857256E+02  0.00000000000E+00 0. -1.
</event>
<event>
 5    1  0.8778488E-005  0.9118800E+02  0.7818608E-02  0.1130116E+00
         25   -1    0    0    0    0  0.00000000000E+00  0.00000000000E+00  0.99999998245E-14  0.12500000000E+03  0.12500000000E+03 0.  0.
        -11    1    3    3    0    0 -0.21317323609E+02  0.76063867289E+01 -0.57253002790E+02  0.61564533083E+02  0.51100000000E-03 0. -1.
         23    2    1    0    0    0 -0.15975872224E+02 -0.86386061792E+00 -0.25156749543E+02  0.95186633936E+02  0.90397226086E+02 0.  0.
         11    1    3    3    0    0  0.53414513847E+01 -0.84702473468E+01  0.32096253248E+02  0.33622100854E+02  0.51100000000E-03 0.  1.
         22    1    1    0    0    0  0.15975872224E+02  0.86386061792E+00  0.25156749543E+02  0.29813366064E+02  0.00000000000E+00 0. -1.
</event>
<event>
 5    1  0.8778488E-005  0.9118800E+02  0.7818608E-02  0.1130116E+00
         25   -1    0    0    0    0  0.00000000000E+00  0.00000000000E+00  0.99999998245E-14  0.12500000000E+03  0.12500000000E+03 0.  0.
        -11    1    3    3    0    0 -0.13660548352E+02 -0.25177414082E+02 -0.28713185397E+02  0.40558103715E+02  0.51100000000E-03 0.  1.
         23    2    1    0    0    0 -0.13472008316E+02  0.22724933114E+02 -0.25038552399E+02  0.88601556361E+02  0.80779880479E+02 0.  0.
         11    1    3    3    0    0  0.18854003548E+00  0.47902347195E+02  0.36746329974E+01  0.48043452645E+02  0.51100000000E-03 0. -1.
         22    1    1    0    0    0  0.13472008316E+02 -0.22724933114E+02  0.25038552399E+02  0.36398443639E+02  0.00000000000E+00 0. -1.
</event>
<event>
 5    1  0.8778488E-005  0.9118800E+02  0.7818608E-02  0.1130116E+00
         25   -1    0    0    0    0  0.00000000000E+00  0.00000000000E+00  0.99999998245E-14  0.12500000000E+03  0.12500000000E+03 0.  0.
        -11    1    3    3    0    0 -0.33097566279E+02  0.47789588494E+02 -0.72740838484E+01  0.58585031860E+02  0.51100000000E-03 0. -1.
         23    2    1    0    0    0 -0.17708997276E+02  0.17184877821E+02 -0.17972261655E+02  0.94472458349E+02  0.89404220187E+02 0.  0.
         11    1    3    3    0    0  0.15388569004E+02 -0.30604710673E+02 -0.10698177807E+02  0.35887426489E+02  0.51100000000E-03 0.  1.
         22    1    1    0    0    0  0.17708997276E+02 -0.17184877821E+02  0.17972261655E+02  0.30527541651E+02  0.00000000000E+00 0. -1.
</event>
<event>
 5    1  0.8778488E-005  0.9118800E+02  0.7818608E-02  0.1130116E+00
         25   -1    0    0    0    0  0.00000000000E+00  0.00000000000E+00  0.99999998245E-14  0.12500000000E+03  0.12500000000E+03 0.  0.
        -11    1    3    3    0    0 -0.54441586346E+01 -0.18648571239E+02 -0.28113346368E+02  0.34172625254E+02  0.51100000000E-03 0.  1.
         23    2    1    0    0    0 -0.12073838895E+02  0.18365856966E+02  0.20031365267E+02  0.95262180944E+02  0.90501631123E+02 0.  0.
         11    1    3    3    0    0 -0.66296802608E+01  0.37014428205E+02  0.48144711635E+02  0.61089555690E+02  0.51100000000E-03 0. -1.
         22    1    1    0    0    0  0.12073838895E+02 -0.18365856966E+02 -0.20031365267E+02  0.29737819056E+02  0.00000000000E+00 0. -1.
</event>
<event>
 5    1  0.8778488E-005  0.9118800E+02  0.7818608E-02  0.1130116E+00
         25   -1    0    0    0    0  0.00000000000E+00  0.00000000000E+00  0.99999998245E-14  0.12500000000E+03  0.12500000000E+03 0.  0.
        -11    1    3    3    0    0 -0.21104112477E+02 -0.37335427916E+02  0.20501766759E+02  0.47535672727E+02  0.51100000000E-03 0.  1.
         23    2    1    0    0    0 -0.53341865339E+01  0.18022873999E+01 -0.18907172176E+02  0.10527227977E+03  0.10340730120E+03 0.  0.
         11    1    3    3    0    0  0.15769925943E+02  0.39137715316E+02 -0.39408938935E+02  0.57736607041E+02  0.51100000000E-03 0. -1.
         22    1    1    0    0    0  0.53341865339E+01 -0.18022873999E+01  0.18907172176E+02  0.19727720232E+02  0.00000000000E+00 0. -1.
</event>
<event>
 5    1  0.8778488E-005  0.9118800E+02  0.7818608E-02  0.1130116E+00
         25   -1    0    0    0    0  0.00000000000E+00  0.00000000000E+00  0.99999998245E-14  0.12500000000E+03  0.12500000000E+03 0.  0.
        -11    1    3    3    0    0  0.40743162335E+00 -0.37674123992E+02  0.10976480363E+02  0.39242690281E+02  0.51100000000E-03 0.  1.
         23    2    1    0    0    0 -0.23894706820E+02 -0.11476865390E+01 -0.20707942791E+02  0.93359944801E+02  0.87834994166E+02 0.  0.
         11    1    3    3    0    0 -0.24302138443E+02  0.36526437453E+02 -0.31684423153E+02  0.54117254520E+02  0.51100000000E-03 0. -1.
         22    1    1    0    0    0  0.23894706820E+02  0.11476865390E+01  0.20707942791E+02  0.31640055199E+02  0.00000000000E+00 0. -1.
</event>
<event>
 5    1  0.8778488E-005  0.9118800E+02  0.7818608E-02  0.1130116E+00
         25   -1    0    0    0    0  0.00000000000E+00  0.00000000000E+00  0.99999998245E-14  0.12500000000E+03  0.12500000000E+03 0.  0.
        -11    1    3    3    0    0  0.18049629954E+02  0.37198214097E+02 -0.17712095992E+02  0.44980158050E+02  0.51100000000E-03 0. -1.
         23    2    1    0    0    0 -0.94906206521E+01  0.20876911497E+02  0.20086754413E+02  0.94514019339E+02  0.89462309576E+02 0.  0.
         11    1    3    3    0    0 -0.27540250606E+02 -0.16321302600E+02  0.37798850405E+02  0.49533861289E+02  0.51100000000E-03 0.  1.
         22    1    1    0    0    0  0.94906206521E+01 -0.20876911497E+02 -0.20086754413E+02  0.30485980661E+02  0.00000000000E+00 0.  1.
</event>
<event>
 5    1  0.8778488E-005  0.9118800E+02  0.7818608E-02  0.1130116E+00
         25   -1    0    0    0    0  0.00000000000E+00  0.00000000000E+00  0.99999998245E-14  0.12500000000E+03  0.12500000000E+03 0.  0.
        -11    1    3    3    0    0  0.21057515532E+02 -0.11265462091E+02  0.25914835184E+02  0.35240719053E+02  0.51100000000E-03 0. -1.
         23    2    1    0    0    0 -0.17909182455E+02  0.32023995963E+01 -0.20529648254E+02  0.97568984036E+02  0.93633573087E+02 0.  0.
         11    1    3    3    0    0 -0.38966697987E+02  0.14467861687E+02 -0.46444483438E+02  0.62328264983E+02  0.51100000000E-03 0.  1.
         22    1    1    0    0    0  0.17909182455E+02 -0.32023995963E+01  0.20529648254E+02  0.27431015964E+02  0.00000000000E+00 0.  1.
</event>
<event>
 5    1  0.8778488E-005  0.9118800E+02  0.7818608E-02  0.1130116E+00
         25   -1    0    0    0    0  0.00000000000E+00  0.00000000000E+00  0.99999998245E-14  0.12500000000E+03  0.12500000000E+03 0.  0.
        -11    1    3    3    0    0 -0.27169817013E+01 -0.22480838144E+02  0.28722589360E+02  0.36575363470E+02  0.51100000000E-03 0. -1.
         23    2    1    0    0    0 -0.48142906446E+01 -0.46948297467E+01 -0.28075679873E+02  0.96130247297E+02  0.91692757753E+02 0.  0.
         11    1    3    3    0    0 -0.20973089432E+01  0.17786008397E+02 -0.56798269233E+02  0.59554883827E+02  0.51100000000E-03 0.  1.
         22    1    1    0    0    0  0.48142906446E+01  0.46948297467E+01  0.28075679873E+02  0.28869752703E+02  0.00000000000E+00 0.  1.
</event>
<event>
 5    1  0.8778488E-005  0.9118800E+02  0.7818608E-02  0.1130116E+00
         25   -1    0    0    0    0  0.00000000000E+00  0.00000000000E+00  0.99999998245E-14  0.12500000000E+03  0.12500000000E+03 0.  0.
        -11    1    3    3    0    0  0.16126979264E+02 -0.30407834383E+02 -0.15375610358E+02  0.37697814873E+02  0.51100000000E-03 0. -1.
         23    2    1    0    0    0 -0.28964683962E+02  0.32553262816E+01 -0.98218452007E+01  0.94242582856E+02  0.89082241294E+02 0.  0.
         11    1    3    3    0    0 -0.45091663227E+02  0.33663160665E+02  0.55537651572E+01  0.56544767982E+02  0.51100000000E-03 0.  1.
         22    1    1    0    0    0  0.28964683962E+02 -0.32553262816E+01  0.98218452007E+01  0.30757417144E+02  0.00000000000E+00 0.  1.
</event>
<event>
 5    1  0.8778488E-005  0.9118800E+02  0.7818608E-02  0.1130116E+00
         25   -1    0    0    0    0  0.00000000000E+00  0.00000000000E+00  0.99999998245E-14  0.12500000000E+03  0.12500000000E+03 0.  0.
        -11    1    3    3    0    0 -0.43133012998E+02  0.13653871212E+02 -0.20188476416E+02  0.49542502859E+02  0.51100000000E-03 0.  1.
         23    2    1    0    0    0 -0.21741801502E+02 -0.21516166374E+02 -0.26189390699E+01  0.94299671178E+02  0.89162311513E+02 0.  0.
         11    1    3    3    0    0  0.21391211496E+02 -0.35170037586E+02  0.17569537346E+02  0.44757168318E+02  0.51100000000E-03 0. -1.
         22    1    1    0    0    0  0.21741801502E+02  0.21516166374E+02  0.26189390699E+01  0.30700328822E+02  0.00000000000E+00 0.  1.
</event>
<event>
 5    1  0.8778488E-005  0.9118800E+02  0.7818608E-02  0.1130116E+00
         25   -1    0    0    0    0  0.00000000000E+00  0.00000000000E+00  0.99999998245E-14  0.12500000000E+03  0.12500000000E+03 0.  0.
        -11    1    3    3    0    0 -0.61178157948E+01  0.36260892284E+02 -0.43217535302E+02  0.56745355204E+02  0.51100000000E-03 0.  1.
         23    2    1    0    0    0  0.13521653293E+02  0.22713486913E+02 -0.12175225021E+02  0.95897187424E+02  0.91374486898E+02 0.  0.
         11    1    3    3    0    0  0.19639469088E+02 -0.13547405371E+02  0.31042310281E+02  0.39151832220E+02  0.51100000000E-03 0. -1.
         22    1    1    0    0    0 -0.13521653293E+02 -0.22713486913E+02  0.12175225021E+02  0.29102812576E+02  0.00000000000E+00 0.  1.
</event>
<event>
 5    1  0.8778488E-005  0.9118800E+02  0.7818608E-02  0.1130116E+00
         25   -1    0    0    0    0  0.00000000000E+00  0.00000000000E+00  0.99999998245E-14  0.12500000000E+03  0.12500000000E+03 0.  0.
        -11    1    3    3    0    0 -0.25659362853E+02 -0.29167785406E+02  0.10178349710E+02  0.40159200821E+02  0.51100000000E-03 0.  1.
         23    2    1    0    0    0  0.87570569204E+01 -0.35032041921E+01 -0.26654387486E+02  0.96726074595E+02  0.92501452144E+02 0.  0.
         11    1    3    3    0    0  0.34416419773E+02  0.25664581214E+02 -0.36832737197E+02  0.56566873774E+02  0.51100000000E-03 0. -1.
         22    1    1    0    0    0 -0.87570569204E+01  0.35032041921E+01  0.26654387486E+02  0.28273925405E+02  0.00000000000E+00 0. -1.
</event>
<event>
 5    1  0.8778488E-005  0.9118800E+02  0.7818608E-02  0.1130116E+00
         25   -1    0    0    0    0  0.00000000000E+00  0.00000000000E+00  0.99999998245E-14  0.12500000000E+03  0.12500000000E+03 0.  0.
        -11    1    3    3    0    0 -0.21509497057E+02 -0.18048512252E+02 -0.25850706156E+02  0.38166297530E+02  0.51100000000E-03 0. -1.
         23    2    1    0    0    0  0.53291212087E+01  0.24771360534E+02  0.73319476396E+01  0.98622409289E+02  0.95029481332E+02 0.  0.
         11    1    3    3    0    0  0.26838618265E+02  0.42819872785E+02  0.33182653796E+02  0.60456111758E+02  0.51100000000E-03 0.  1.
         22    1    1    0    0    0 -0.53291212087E+01 -0.24771360534E+02 -0.73319476396E+01  0.26377590711E+02  0.00000000000E+00 0.  1.
</event>
<event>
 5    1  0.8778488E-005  0.9118800E+02  0.7818608E-02  0.1130116E+00
         25   -1    0    0    0    0  0.00000000000E+00  0.00000000000E+00  0.99999998245E-14  0.12500000000E+03  0.12500000000E+03 0.  0.
        -11    1    3    3    0    0  0.12948194485E+02 -0.37964638882E+02  0.27433731494E+02  0.48596081836E+02  0.51100000000E-03 0.  1.
         23    2    1    0    0    0  0.22388569115E+02  0.70221323396E+01  0.17767369516E+02  0.95568082136E+02  0.90923157304E+02 0.  0.
         11    1    3    3    0    0  0.94403746304E+01  0.44986771221E+02 -0.96663619783E+01  0.46972000300E+02  0.51100000000E-03 0. -1.
         22    1    1    0    0    0 -0.22388569115E+02 -0.70221323396E+01 -0.17767369516E+02  0.29431917864E+02  0.00000000000E+00 0. -1.
</event>
<event>
 5    1  0.8778488E-005  0.9118800E+02  0.7818608E-02  0.1130116E+00
         25   -1    0    0    0    0  0.00000000000E+00  0.00000000000E+00  0.99999998245E-14  0.12500000000E+03  0.12500000000E+03 0.  0.
        -11    1    3    3    0    0  0.48220097334E+02  0.39033822175E+02  0.57591839144E+01  0.62305579687E+02  0.51100000000E-03 0.  1.
         23    2    1    0    0    0  0.22385035861E+02  0.14960136918E+02  0.55282824177E-01  0.98076059291E+02  0.94308084610E+02 0.  0.
         11    1    3    3    0    0 -0.25835061473E+02 -0.24073685258E+02 -0.57039010902E+01  0.35770479604E+02  0.51100000000E-03 0. -1.
         22    1    1    0    0    0 -0.22385035861E+02 -0.14960136918E+02 -0.55282824177E-01  0.26923940709E+02  0.00000000000E+00 0.  1.
</event>
<event>
 5    1  0.8778488E-005  0.9118800E+02  0.7818608E-02  0.1130116E+00
         25   -1    0    0    0    0  0.00000000000E+00  0.00000000000E+00  0.99999998245E-14  0.12500000000E+03  0.12500000000E+03 0.  0.
        -11    1    3    3    0    0  0.30386270279E+02  0.16095185557E+02  0.41240257658E+01  0.34632181686E+02  0.51100000000E-03 0.  1.
         23    2    1    0    0    0 -0.29146459366E+02  0.46785266648E+01  0.36850884557E+01  0.95251309570E+02  0.90486614439E+02 0.  0.
         11    1    3    3    0    0 -0.59532729645E+02 -0.11416658892E+02 -0.43893731004E+00  0.60619127884E+02  0.51100000000E-03 0. -1.
         22    1    1    0    0    0  0.29146459366E+02 -0.46785266648E+01 -0.36850884557E+01  0.29748690430E+02  0.00000000000E+00 0. -1.
</event>
<event>
 5    1  0.8778488E-005  0.9118800E+02  0.7818608E-02  0.1130116E+00
         25   -1    0    0    0    0  0.00000000000E+00  0.00000000000E+00  0.99999998245E-14  0.12500000000E+03  0.12500000000E+03 0.  0.
        -11    1    3    3    0    0  0.18932384491E+02  0.34185900591E+02  0.36505093222E+02  0.53476469714E+02  0.51100000000E-03 0.  1.
         23    2    1    0    0    0  0.20212265956E+02  0.23036141151E+02 -0.26796247927E+01  0.94236712087E+02  0.89074003063E+02 0.  0.
         11    1    3    3    0    0  0.12798814651E+01 -0.11149759440E+02 -0.39184718014E+02  0.40760242372E+02  0.51100000000E-03 0. -1.
         22    1    1    0    0    0 -0.20212265956E+02 -0.23036141151E+02  0.26796247927E+01  0.30763287913E+02  0.00000000000E+00 0.  1.
</event>
<event>
 5    1  0.8778488E-005  0.9118800E+02  0.7818608E-02  0.1130116E+00
         25   -1    0    0    0    0  0.00000000000E+00  0.00000000000E+00  0.99999998245E-14  0.12500000000E+03  0.12500000000E+03 0.  0.
        -11    1    3    3    0    0 -0.43531071533E+02 -0.67494298810E+01  0.98395658572E+01  0.45136748322E+02  0.51100000000E-03 0.  1.
         23    2    1    0    0    0  0.81549609718E+01 -0.57424269395E+01  0.24229454238E+02  0.98797990377E+02  0.95260157433E+02 0.  0.
         11    1    3    3    0    0  0.51686032505E+02  0.10070029414E+01  0.14389888381E+02  0.53661242055E+02  0.51100000000E-03 0. -1.
         22    1    1    0    0    0 -0.81549609718E+01  0.57424269395E+01 -0.24229454238E+02  0.26202009623E+02  0.00000000000E+00 0.  1.
</event>
<event>
 5    1  0.8778488E-005  0.9118800E+02  0.7818608E-02  0.1130116E+00
         25   -1    0    0    0    0  0.00000000000E+00  0.00000000000E+00  0.99999998245E-14  0.12500000000E+03  0.12500000000E+03 0.  0.
        -11    1    3    3    0    0  0.11098945987E+02  0.15333466238E+02  0.43080573860E+02  0.47055686513E+02  0.51100000000E-03 0.  1.
         23    2    1    0    0    0 -0.13082155953E+02 -0.18782777986E+02  0.18557897369E+02  0.95532541542E+02  0.90874283411E+02 0.  0.
         11    1    3    3    0    0 -0.24181101940E+02 -0.34116244223E+02 -0.24522676491E+02  0.48476855029E+02  0.51100000000E-03 0. -1.
         22    1    1    0    0    0  0.13082155953E+02  0.18782777986E+02 -0.18557897369E+02  0.29467458458E+02  0.00000000000E+00 0.  1.
</event>
<event>
 5    1  0.8778488E-005  0.9118800E+02  0.7818608E-02  0.1130116E+00
         25   -1    0    0    0    0  0.00000000000E+00  0.00000000000E+00  0.99999998245E-14  0.12500000000E+03  0.12500000000E+03 0.  0.
        -11    1    3    3    0    0 -0.19223496877E+02  0.37183734485E+02 -0.10157689567E+02  0.43073792496E+02  0.51100000000E-03 0. -1.
         23    2    1    0    0    0 -0.25132112590E+02 -0.60316694444E+01  0.16635582929E+02  0.94263267270E+02  0.89111260891E+02 0.  0.
         11    1    3    3    0    0 -0.59086157129E+01 -0.43215403929E+02  0.26793272495E+02  0.51189474774E+02  0.51100000000E-03 0.  1.
         22    1    1    0    0    0  0.25132112590E+02  0.60316694444E+01 -0.16635582929E+02  0.30736732730E+02  0.00000000000E+00 0.  1.
</event>
<event>
 5    1  0.8778488E-005  0.9118800E+02  0.7818608E-02  0.1130116E+00
         25   -1    0    0    0    0  0.00000000000E+00  0.00000000000E+00  0.99999998245E-14  0.12500000000E+03  0.12500000000E+03 0.  0.
        -11    1    3    3    0    0  0.34695331785E+00 -0.48638180131E+02 -0.80539408599E+01  0.49301713020E+02  0.51100000000E-03 0. -1.
         23    2    1    0    0    0  0.21245695434E+02 -0.13509693118E+02 -0.21038751560E+02  0.92189628929E+02  0.86153393620E+02 0.  0.
         11    1    3    3    0    0  0.20898742116E+02  0.35128487013E+02 -0.12984810701E+02  0.42887915909E+02  0.51100000000E-03 0.  1.
         22    1    1    0    0    0 -0.21245695434E+02  0.13509693118E+02  0.21038751560E+02  0.32810371071E+02  0.00000000000E+00 0.  1.
</event>
<event>
 5    1  0.8778488E-005  0.9118800E+02  0.7818608E-02  0.1130116E+00
         25   -1    0    0    0    0  0.00000000000E+00  0.00000000000E+00  0.99999998245E-14  0.12500000000E+03  0.12500000000E+03 0.  0.
        -11    1    3    3    0    0 -0.47710886857E+02 -0.34322455440E+02  0.59474238030E+01  0.59073949608E+02  0.51100000000E-03 0.  1.
         23    2    1    0    0    0 -0.13006084271E+02 -0.24294360921E+02 -0.53598777640E+01  0.96926836831E+02  0.92772351527E+02 0.  0.
         11    1    3    3    0    0  0.34704802585E+02  0.10028094519E+02 -0.11307301567E+02  0.37852887223E+02  0.51100000000E-03 0. -1.
         22    1    1    0    0    0  0.13006084271E+02  0.24294360921E+02  0.53598777640E+01  0.28073163169E+02  0.00000000000E+00 0.  1.
</event>
<event>
 5    1  0.8778488E-005  0.9118800E+02  0.7818608E-02  0.1130116E+00
         25   -1    0    0    0    0  0.00000000000E+00  0.00000000000E+00  0.99999998245E-14  0.12500000000E+03  0.12500000000E+03 0.  0.
        -11    1    3    3    0    0  0.40799903535E+00 -0.11897467516E+02  0.55089087310E+02  0.56360657709E+02  0.51100000000E-03 0.  1.
         23    2    1    0    0    0 -0.59075523442E+01 -0.22825558505E+02  0.18606535620E+02  0.94964879499E+02  0.90090065350E+02 0.  0.
         11    1    3    3    0    0 -0.63155513796E+01 -0.10928090989E+02 -0.36482551690E+02  0.38604221790E+02  0.51100000000E-03 0. -1.
         22    1    1    0    0    0  0.59075523442E+01  0.22825558505E+02 -0.18606535620E+02  0.30035120501E+02  0.00000000000E+00 0.  1.
</event>
<event>
 5    1  0.8778488E-005  0.9118800E+02  0.7818608E-02  0.1130116E+00
         25   -1    0    0    0    0  0.00000000000E+00  0.00000000000E+00  0.99999998245E-14  0.12500000000E+03  0.12500000000E+03 0.  0.
        -11    1    3    3    0    0 -0.40893829224E+02 -0.57243980652E+01 -0.13733270860E+02  0.43516396112E+02  0.51100000000E-03 0.  1.
         23    2    1    0    0    0  0.11287127279E+01 -0.28897212508E+02  0.61046906199E+01  0.95443441832E+02  0.90751641627E+02 0.  0.
         11    1    3    3    0    0  0.42022541952E+02 -0.23172814443E+02  0.19837961480E+02  0.51927045720E+02  0.51100000000E-03 0. -1.
         22    1    1    0    0    0 -0.11287127279E+01  0.28897212508E+02 -0.61046906199E+01  0.29556558168E+02  0.00000000000E+00 0.  1.
</event>
<event>
 5    1  0.8778488E-005  0.9118800E+02  0.7818608E-02  0.1130116E+00
         25   -1    0    0    0    0  0.00000000000E+00  0.00000000000E+00  0.99999998245E-14  0.12500000000E+03  0.12500000000E+03 0.  0.
        -11    1    3    3    0    0 -0.29148901095E+02  0.34962796693E+02 -0.27049621633E+02  0.52950331618E+02  0.51100000000E-03 0.  1.
         23    2    1    0    0    0  0.90791063112E+01  0.24433240251E+02 -0.17082600059E+02  0.93835458846E+02  0.88509122194E+02 0.  0.
         11    1    3    3    0    0  0.38228007407E+02 -0.10529556442E+02  0.99670215748E+01  0.40885127228E+02  0.51100000000E-03 0. -1.
         22    1    1    0    0    0 -0.90791063112E+01 -0.24433240251E+02  0.17082600059E+02  0.31164541154E+02  0.00000000000E+00 0.  1.
</event>
<event>
 5    1  0.8778488E-005  0.9118800E+02  0.7818608E-02  0.1130116E+00
         25   -1    0    0    0    0  0.00000000000E+00  0.00000000000E+00  0.99999998245E-14  0.12500000000E+03  0.12500000000E+03 0.  0.
        -11    1    3    3    0    0  0.61866721296E+00  0.19100464765E+02  0.36219380963E+02  0.40951850519E+02  0.51100000000E-03 0.  1.
         23    2    1    0    0    0  0.18871597066E+02  0.84944654174E+01 -0.17007898731E+02  0.98212657135E+02  0.94488963819E+02 0.  0.
         11    1    3    3    0    0  0.18252929853E+02 -0.10605999348E+02 -0.53227279694E+02  0.57260806615E+02  0.51100000000E-03 0. -1.
         22    1    1    0    0    0 -0.18871597066E+02 -0.84944654174E+01  0.17007898731E+02  0.26787342865E+02  0.00000000000E+00 0. -1.
</event>
<event>
 5    1  0.8778488E-005  0.9118800E+02  0.7818608E-02  0.1130116E+00
         25   -1    0    0    0    0  0.00000000000E+00  0.00000000000E+00  0.99999998245E-14  0.12500000000E+03  0.12500000000E+03 0.  0.
        -11    1    3    3    0    0  0.62910687110E+01 -0.38839160946E+02 -0.33810396719E+02  0.51876785705E+02  0.51100000000E-03 0. -1.
         23    2    1    0    0    0  0.10036987018E+01 -0.27233019654E+02  0.88062862452E+01  0.96360945407E+02  0.92006719057E+02 0.  0.
         11    1    3    3    0    0 -0.52873700091E+01  0.11606141292E+02  0.42616682964E+02  0.44484159702E+02  0.51100000000E-03 0.  1.
         22    1    1    0    0    0 -0.10036987018E+01  0.27233019654E+02 -0.88062862452E+01  0.28639054593E+02  0.00000000000E+00 0.  1.
</event>
<event>
 5    1  0.8778488E-005  0.9118800E+02  0.7818608E-02  0.1130116E+00
         25   -1    0    0    0    0  0.00000000000E+00  0.00000000000E+00  0.99999998245E-14  0.12500000000E+03  0.12500000000E+03 0.  0.
        -11    1    3    3    0    0 -0.22007559007E+02 -0.76436219092E+01 -0.54258680694E+02  0.59048810659E+02  0.51100000000E-03 0.  1.
         23    2    1    0    0    0 -0.67829855067E+01  0.10690224390E+02 -0.26480234747E+02  0.95648805439E+02  0.91034067028E+02 0.  0.
         11    1    3    3    0    0  0.15224573500E+02  0.18333846300E+02  0.27778445947E+02  0.36599994780E+02  0.51100000000E-03 0. -1.
         22    1    1    0    0    0  0.67829855067E+01 -0.10690224390E+02  0.26480234747E+02  0.29351194561E+02  0.00000000000E+00 0.  1.
</event>
<event>
 5    1  0.8778488E-005  0.9118800E+02  0.7818608E-02  0.1130116E+00
         25   -1    0    0    0    0  0.00000000000E+00  0.00000000000E+00  0.99999998245E-14  0.12500000000E+03  0.12500000000E+03 0.  0.
        -11    1    3    3    0    0  0.52697148566E+02 -0.33058270568E+00  0.10695383425E+02  0.53772576457E+02  0.51100000000E-03 0. -1.
         23    2    1    0    0    0  0.21661030389E+02 -0.94120913614E+00 -0.18583523070E+02  0.96444204759E+02  0.92119765468E+02 0.  0.
         11    1    3    3    0    0 -0.31036118178E+02 -0.61062643046E+00 -0.29278906495E+02  0.42671628302E+02  0.51100000000E-03 0.  1.
         22    1    1    0    0    0 -0.21661030389E+02  0.94120913614E+00  0.18583523070E+02  0.28555795241E+02  0.00000000000E+00 0. -1.
</event>
<event>
 5    1  0.8778488E-005  0.9118800E+02  0.7818608E-02  0.1130116E+00
         25   -1    0    0    0    0  0.00000000000E+00  0.00000000000E+00  0.99999998245E-14  0.12500000000E+03  0.12500000000E+03 0.  0.
        -11    1    3    3    0    0 -0.23702488452E+02  0.15677507975E+02 -0.20196056033E+02  0.34863632838E+02  0.51100000000E-03 0. -1.
         23    2    1    0    0    0 -0.11348282345E+02 -0.29486685210E+02  0.11467672289E+02  0.91388162434E+02  0.84982590031E+02 0.  0.
         11    1    3    3    0    0  0.12354206107E+02 -0.45164193185E+02  0.31663728322E+02  0.56524529596E+02  0.51100000000E-03 0.  1.
         22    1    1    0    0    0  0.11348282345E+02  0.29486685210E+02 -0.11467672289E+02  0.33611837566E+02  0.00000000000E+00 0.  1.
</event>
<event>
 5    1  0.8778488E-005  0.9118800E+02  0.7818608E-02  0.1130116E+00
         25   -1    0    0    0    0  0.00000000000E+00  0.00000000000E+00  0.99999998245E-14  0.12500000000E+03  0.12500000000E+03 0.  0.
        -11    1    3    3    0    0 -0.26622165208E+02  0.21893508389E+02 -0.21096111836E+02  0.40411772106E+02  0.51100000000E-03 0. -1.
         23    2    1    0    0    0  0.19120518403E+02 -0.97315568775E+01 -0.19441726500E+02  0.96046966436E+02  0.91579154883E+02 0.  0.
         11    1    3    3    0    0  0.45742683611E+02 -0.31625065266E+02  0.16543853366E+01  0.55635194330E+02  0.51100000000E-03 0.  1.
         22    1    1    0    0    0 -0.19120518403E+02  0.97315568775E+01  0.19441726500E+02  0.28953033564E+02  0.00000000000E+00 0.  1.
</event>
<event>
 5    1  0.8778488E-005  0.9118800E+02  0.7818608E-02  0.1130116E+00
         25   -1    0    0    0    0  0.00000000000E+00  0.00000000000E+00  0.99999998245E-14  0.12500000000E+03  0.12500000000E+03 0.  0.
        -11    1    3    3    0    0  0.15715204180E+01  0.46681611862E+02  0.18683732095E+02  0.50306305844E+02  0.51100000000E-03 0. -1.
         23    2    1    0    0    0 -0.25805212483E+02  0.14193736898E+02  0.38897450093E+01  0.95293076991E+02  0.90544294396E+02 0.  0.
         11    1    3    3    0    0 -0.27376732901E+02 -0.32487874964E+02 -0.14793987085E+02  0.44986771146E+02  0.51100000000E-03 0.  1.
         22    1    1    0    0    0  0.25805212483E+02 -0.14193736898E+02 -0.38897450093E+01  0.29706923009E+02  0.00000000000E+00 0. -1.
</event>
<event>
 5    1  0.8778488E-005  0.9118800E+02  0.7818608E-02  0.1130116E+00
         25   -1    0    0    0    0  0.00000000000E+00  0.00000000000E+00  0.99999998245E-14  0.12500000000E+03  0.12500000000E+03 0.  0.
        -11    1    3    3    0    0 -0.25860512879E+02  0.23087711956E+02  0.12834380368E+02  0.36966605057E+02  0.51100000000E-03 0. -1.
         23    2    1    0    0    0  0.24221558304E+02 -0.71362400227E+01 -0.71076713935E+01  0.98767790773E+02  0.95220521387E+02 0.  0.
         11    1    3    3    0    0  0.50082071182E+02 -0.30223951979E+02 -0.19942051762E+02  0.61801185716E+02  0.51100000000E-03 0.  1.
         22    1    1    0    0    0 -0.24221558304E+02  0.71362400227E+01  0.71076713935E+01  0.26232209227E+02  0.00000000000E+00 0.  1.
</event>
<event>
 5    1  0.8778488E-005  0.9118800E+02  0.7818608E-02  0.1130116E+00
         25   -1    0    0    0    0  0.00000000000E+00  0.00000000000E+00  0.99999998245E-14  0.12500000000E+03  0.12500000000E+03 0.  0.
        -11    1    3    3    0    0  0.10083463218E+02 -0.25394252660E+02  0.27308041766E+02  0.38629955268E+02  0.51100000000E-03 0. -1.
         23    2    1    0    0    0 -0.16249262992E+02  0.22101355128E+02  0.63344462283E+01  0.96846249712E+02  0.92663706099E+02 0.  0.
         11    1    3    3    0    0 -0.26332726210E+02  0.47495607788E+02 -0.20973595538E+02  0.58216294444E+02  0.51100000000E-03 0.  1.
         22    1    1    0    0    0  0.16249262992E+02 -0.22101355128E+02 -0.63344462283E+01  0.28153750288E+02  0.00000000000E+00 0. -1.
</event>
<event>
 5    1  0.8778488E-005  0.9118800E+02  0.7818608E-02  0.1130116E+00
         25   -1    0    0    0    0  0.00000000000E+00  0.00000000000E+00  0.99999998245E-14  0.12500000000E+03  0.12500000000E+03 0.  0.
        -11    1    3    3    0    0  0.27267747211E+01  0.22566717020E+02 -0.32439442286E+02  0.39610723719E+02  0.51100000000E-03 0. -1.
         23    2    1    0    0    0 -0.21121513228E+02 -0.20219272914E+02 -0.64665053581E+01  0.95054165402E+02  0.90213864514E+02 0.  0.
         11    1    3    3    0    0 -0.23848287950E+02 -0.42785989934E+02  0.25972936928E+02  0.55443441683E+02  0.51100000000E-03 0.  1.
         22    1    1    0    0    0  0.21121513228E+02  0.20219272914E+02  0.64665053581E+01  0.29945834598E+02  0.00000000000E+00 0.  1.
</event>
<event>
 5    1  0.8778488E-005  0.9118800E+02  0.7818608E-02  0.1130116E+00
         25   -1    0    0    0    0  0.00000000000E+00  0.00000000000E+00  0.99999998245E-14  0.12500000000E+03  0.12500000000E+03 0.  0.
        -11    1    3    3    0    0 -0.40717008164E+02 -0.34364743007E+02 -0.28436794140E+02  0.60394218075E+02  0.51100000000E-03 0.  1.
         23    2    1    0    0    0 -0.21740289222E+02 -0.14680650440E+02 -0.15806085747E+01  0.98719589115E+02  0.95157223997E+02 0.  0.
         11    1    3    3    0    0  0.18976718941E+02  0.19684092567E+02  0.26856185565E+02  0.38325371040E+02  0.51100000000E-03 0. -1.
         22    1    1    0    0    0  0.21740289222E+02  0.14680650440E+02  0.15806085747E+01  0.26280410885E+02  0.00000000000E+00 0.  1.
</event>
<event>
 5    1  0.8778488E-005  0.9118800E+02  0.7818608E-02  0.1130116E+00
         25   -1    0    0    0    0  0.00000000000E+00  0.00000000000E+00  0.99999998245E-14  0.12500000000E+03  0.12500000000E+03 0.  0.
        -11    1    3    3    0    0  0.13978184191E+02  0.32525958629E+02 -0.66334258696E+01  0.36018466889E+02  0.51100000000E-03 0. -1.
         23    2    1    0    0    0 -0.43873649978E+01 -0.23280534275E+02 -0.17216036518E+02  0.95714779134E+02  0.91124611294E+02 0.  0.
         11    1    3    3    0    0 -0.18365549189E+02 -0.55806492904E+02 -0.10582610649E+02  0.59696312245E+02  0.51100000000E-03 0.  1.
         22    1    1    0    0    0  0.43873649978E+01  0.23280534275E+02  0.17216036518E+02  0.29285220866E+02  0.00000000000E+00 0.  1.
</event>
<event>
 5    1  0.8778488E-005  0.9118800E+02  0.7818608E-02  0.1130116E+00
         25   -1    0    0    0    0  0.00000000000E+00  0.00000000000E+00  0.99999998245E-14  0.12500000000E+03  0.12500000000E+03 0.  0.
        -11    1    3    3    0    0  0.95840646820E+01  0.34376367490E+02  0.85768423838E+01  0.36703557909E+02  0.51100000000E-03 0. -1.
         23    2    1    0    0    0 -0.21001492009E+02 -0.52068262316E+01 -0.21025837946E+02  0.94829491762E+02  0.89902018556E+02 0.  0.
         11    1    3    3    0    0 -0.30585556691E+02 -0.39583193722E+02 -0.29602680329E+02  0.58125933853E+02  0.51100000000E-03 0.  1.
         22    1    1    0    0    0  0.21001492009E+02  0.52068262316E+01  0.21025837946E+02  0.30170508238E+02  0.00000000000E+00 0.  1.
</event>
<event>
 5    1  0.8778488E-005  0.9118800E+02  0.7818608E-02  0.1130116E+00
         25   -1    0    0    0    0  0.00000000000E+00  0.00000000000E+00  0.99999998245E-14  0.12500000000E+03  0.12500000000E+03 0.  0.
        -11    1    3    3    0    0  0.47622367367E+02  0.14977499447E+02  0.23631266385E+02  0.55232708738E+02  0.51100000000E-03 0.  1.
         23    2    1    0    0    0  0.50794324388E+01  0.20527932732E+02  0.15200607821E+02  0.98956668142E+02  0.95468146706E+02 0.  0.
         11    1    3    3    0    0 -0.42542934928E+02  0.55504332850E+01 -0.84306585636E+01  0.43723959404E+02  0.51100000000E-03 0. -1.
         22    1    1    0    0    0 -0.50794324388E+01 -0.20527932732E+02 -0.15200607821E+02  0.26043331858E+02  0.00000000000E+00 0.  1.
</event>
<event>
 5    1  0.8778488E-005  0.9118800E+02  0.7818608E-02  0.1130116E+00
         25   -1    0    0    0    0  0.00000000000E+00  0.00000000000E+00  0.99999998245E-14  0.12500000000E+03  0.12500000000E+03 0.  0.
        -11    1    3    3    0    0 -0.35201135333E+02 -0.18944958671E+02 -0.23996219273E+02  0.46624563563E+02  0.51100000000E-03 0.  1.
         23    2    1    0    0    0  0.11264913782E+02 -0.19000429831E+01 -0.26459648339E+02  0.96179496255E+02  0.91759871752E+02 0.  0.
         11    1    3    3    0    0  0.46466049115E+02  0.17044915687E+02 -0.24634290665E+01  0.49554932693E+02  0.51100000000E-03 0. -1.
         22    1    1    0    0    0 -0.11264913782E+02  0.19000429831E+01  0.26459648339E+02  0.28820503745E+02  0.00000000000E+00 0. -1.
</event>
<event>
 5    1  0.8778488E-005  0.9118800E+02  0.7818608E-02  0.1130116E+00
         25   -1    0    0    0    0  0.00000000000E+00  0.00000000000E+00  0.99999998245E-14  0.12500000000E+03  0.12500000000E+03 0.  0.
        -11    1    3    3    0    0 -0.92369136817E+01  0.54203990578E+01 -0.53800522392E+02  0.54856152893E+02  0.51100000000E-03 0. -1.
         23    2    1    0    0    0 -0.20621100360E+02 -0.10004174001E+02 -0.16618343882E+02  0.96689531426E+02  0.92452057070E+02 0.  0.
         11    1    3    3    0    0 -0.11384186679E+02 -0.15424573059E+02  0.37182178510E+02  0.41833378532E+02  0.51100000000E-03 0.  1.
         22    1    1    0    0    0  0.20621100360E+02  0.10004174001E+02  0.16618343882E+02  0.28310468574E+02  0.00000000000E+00 0. -1.
</event>
<event>
 5    1  0.8778488E-005  0.9118800E+02  0.7818608E-02  0.1130116E+00
         25   -1    0    0    0    0  0.00000000000E+00  0.00000000000E+00  0.99999998245E-14  0.12500000000E+03  0.12500000000E+03 0.  0.
        -11    1    3    3    0    0  0.22005307075E+02  0.25505449039E+02 -0.47553472020E+02  0.58276017122E+02  0.51100000000E-03 0.  1.
         23    2    1    0    0    0  0.23801790918E+02  0.90988619465E+01 -0.13396660868E+02  0.96211372697E+02  0.91803285203E+02 0.  0.
         11    1    3    3    0    0  0.17964838427E+01 -0.16406587093E+02  0.34156811152E+02  0.37935355575E+02  0.51100000000E-03 0. -1.
         22    1    1    0    0    0 -0.23801790918E+02 -0.90988619465E+01  0.13396660868E+02  0.28788627303E+02  0.00000000000E+00 0.  1.
</event>
<event>
 5    1  0.8778488E-005  0.9118800E+02  0.7818608E-02  0.1130116E+00
         25   -1    0    0    0    0  0.00000000000E+00  0.00000000000E+00  0.99999998245E-14  0.12500000000E+03  0.12500000000E+03 0.  0.
        -11    1    3    3    0    0  0.16811161579E+02  0.40397497929E+02  0.24539959208E+02  0.50167545193E+02  0.51100000000E-03 0. -1.
         23    2    1    0    0    0  0.18242145684E+02  0.17912469399E+02 -0.14768198490E+02  0.95474889911E+02  0.90794947424E+02 0.  0.
         11    1    3    3    0    0  0.14309841059E+01 -0.22485028530E+02 -0.39308157698E+02  0.45307344718E+02  0.51100000000E-03 0.  1.
         22    1    1    0    0    0 -0.18242145684E+02 -0.17912469399E+02  0.14768198490E+02  0.29525110089E+02  0.00000000000E+00 0. -1.
</event>
<event>
 5    1  0.8778488E-005  0.9118800E+02  0.7818608E-02  0.1130116E+00
         25   -1    0    0    0    0  0.00000000000E+00  0.00000000000E+00  0.99999998245E-14  0.12500000000E+03  0.12500000000E+03 0.  0.
        -11    1    3    3    0    0  0.60180645124E+01 -0.15983796589E+02 -0.31793500899E+02  0.36090518888E+02  0.51100000000E-03 0.  1.
         23    2    1    0    0    0 -0.14385826835E+02 -0.21355718388E+02  0.20245940564E+02  0.92244590815E+02  0.86233100974E+02 0.  0.
         11    1    3    3    0    0 -0.20403891348E+02 -0.53719217987E+01  0.52039441463E+02  0.56154071927E+02  0.51100000000E-03 0. -1.
         22    1    1    0    0    0  0.14385826835E+02  0.21355718388E+02 -0.20245940564E+02  0.32755409185E+02  0.00000000000E+00 0. -1.
</event>
<event>
 5    1  0.8778488E-005  0.9118800E+02  0.7818608E-02  0.1130116E+00
         25   -1    0    0    0    0  0.00000000000E+00  0.00000000000E+00  0.99999998245E-14  0.12500000000E+03  0.12500000000E+03 0.  0.
        -11    1    3    3    0    0  0.17869441348E+02 -0.21337109905E+02  0.22618173934E+02  0.35863226090E+02  0.51100000000E-03 0. -1.
         23    2    1    0    0    0 -0.25442655576E+02  0.80693462836E+01 -0.87714347141E+01  0.96904072552E+02  0.92741674225E+02 0.  0.
         11    1    3    3    0    0 -0.43312096924E+02  0.29406456189E+02 -0.31389608648E+02  0.61040846463E+02  0.51100000000E-03 0.  1.
         22    1    1    0    0    0  0.25442655576E+02 -0.80693462836E+01  0.87714347141E+01  0.28095927448E+02  0.00000000000E+00 0.  1.
</event>
<event>
 5    1  0.8778488E-005  0.9118800E+02  0.7818608E-02  0.1130116E+00
         25   -1    0    0    0    0  0.00000000000E+00  0.00000000000E+00  0.99999998245E-14  0.12500000000E+03  0.12500000000E+03 0.  0.
        -11    1    3    3    0    0  0.45685696705E+02 -0.14605628917E+02  0.11347517361E+02  0.49287660017E+02  0.51100000000E-03 0.  1.
         23    2    1    0    0    0  0.19036250831E+01 -0.23881514412E+02  0.18657560827E+02  0.94634639883E+02  0.89630686546E+02 0.  0.
         11    1    3    3    0    0 -0.43782071622E+02 -0.92758854949E+01  0.73100434664E+01  0.45346979866E+02  0.51100000000E-03 0. -1.
         22    1    1    0    0    0 -0.19036250831E+01  0.23881514412E+02 -0.18657560827E+02  0.30365360117E+02  0.00000000000E+00 0.  1.
</event>
<event>
 5    1  0.8778488E-005  0.9118800E+02  0.7818608E-02  0.1130116E+00
         25   -1    0    0    0    0  0.00000000000E+00  0.00000000000E+00  0.99999998245E-14  0.12500000000E+03  0.12500000000E+03 0.  0.
        -11    1    3    3    0    0  0.12719462497E+02 -0.38110336736E+02 -0.24687377089E+01  0.40252666476E+02  0.51100000000E-03 0.  1.
         23    2    1    0    0    0  0.24629770870E+02  0.14632928186E+02 -0.95853042135E+01  0.94790295314E+02  0.89847503184E+02 0.  0.
         11    1    3    3    0    0  0.11910308373E+02  0.52743264921E+02 -0.71165665046E+01  0.54537628837E+02  0.51100000000E-03 0. -1.
         22    1    1    0    0    0 -0.24629770870E+02 -0.14632928186E+02  0.95853042135E+01  0.30209704686E+02  0.00000000000E+00 0. -1.
</event>
<event>
 5    1  0.8778488E-005  0.9118800E+02  0.7818608E-02  0.1130116E+00
         25   -1    0    0    0    0  0.00000000000E+00  0.00000000000E+00  0.99999998245E-14  0.12500000000E+03  0.12500000000E+03 0.  0.
        -11    1    3    3    0    0  0.65788514296E+01 -0.19074438936E+02 -0.44658968721E+02  0.49005499634E+02  0.51100000000E-03 0.  1.
         23    2    1    0    0    0  0.27559846196E+02 -0.35819945333E+00 -0.60252230836E+01  0.96786940215E+02  0.92583665157E+02 0.  0.
         11    1    3    3    0    0  0.20980994767E+02  0.18716239483E+02  0.38633745638E+02  0.47781440581E+02  0.51100000000E-03 0. -1.
         22    1    1    0    0    0 -0.27559846196E+02  0.35819945333E+00  0.60252230836E+01  0.28213059785E+02  0.00000000000E+00 0. -1.
</event>
<event>
 5    1  0.8778488E-005  0.9118800E+02  0.7818608E-02  0.1130116E+00
         25   -1    0    0    0    0  0.00000000000E+00  0.00000000000E+00  0.99999998245E-14  0.12500000000E+03  0.12500000000E+03 0.  0.
        -11    1    3    3    0    0 -0.31839716434E+02 -0.31593170788E+01  0.36171499207E+02  0.48292092335E+02  0.51100000000E-03 0.  1.
         23    2    1    0    0    0 -0.20943897395E+02  0.19145437953E+02 -0.48233608035E+01  0.96217028612E+02  0.91810986014E+02 0.  0.
         11    1    3    3    0    0  0.10895819039E+02  0.22304755032E+02 -0.40994860010E+02  0.47924936276E+02  0.51100000000E-03 0. -1.
         22    1    1    0    0    0  0.20943897395E+02 -0.19145437953E+02  0.48233608035E+01  0.28782971388E+02  0.00000000000E+00 0. -1.
</event>
<event>
 5    1  0.8778488E-005  0.9118800E+02  0.7818608E-02  0.1130116E+00
         25   -1    0    0    0    0  0.00000000000E+00  0.00000000000E+00  0.99999998245E-14  0.12500000000E+03  0.12500000000E+03 0.  0.
        -11    1    3    3    0    0 -0.14147772270E+02 -0.30433161950E+02 -0.16610124591E+02  0.37446402306E+02  0.51100000000E-03 0.  1.
         23    2    1    0    0    0  0.45392013823E+01  0.24187251124E+00  0.29081165412E+02  0.95565716703E+02  0.90919905277E+02 0.  0.
         11    1    3    3    0    0  0.18686973652E+02  0.30675034461E+02  0.45691290004E+02  0.58119314396E+02  0.51100000000E-03 0. -1.
         22    1    1    0    0    0 -0.45392013823E+01 -0.24187251124E+00 -0.29081165412E+02  0.29434283297E+02  0.00000000000E+00 0. -1.
</event>
<event>
 5    1  0.8778488E-005  0.9118800E+02  0.7818608E-02  0.1130116E+00
         25   -1    0    0    0    0  0.00000000000E+00  0.00000000000E+00  0.99999998245E-14  0.12500000000E+03  0.12500000000E+03 0.  0.
        -11    1    3    3    0    0 -0.16835334975E+01 -0.25999265452E+02 -0.21643800693E+02  0.33871082028E+02  0.51100000000E-03 0. -1.
         23    2    1    0    0    0  0.11513337889E+02  0.12491663196E+02  0.24368415728E+02  0.95294473850E+02  0.90546222795E+02 0.  0.
         11    1    3    3    0    0  0.13196871386E+02  0.38490928648E+02  0.46012216421E+02  0.61423391821E+02  0.51100000000E-03 0.  1.
         22    1    1    0    0    0 -0.11513337889E+02 -0.12491663196E+02 -0.24368415728E+02  0.29705526150E+02  0.00000000000E+00 0.  1.
</event>
<event>
 5    1  0.8778488E-005  0.9118800E+02  0.7818608E-02  0.1130116E+00
         25   -1    0    0    0    0  0.00000000000E+00  0.00000000000E+00  0.99999998245E-14  0.12500000000E+03  0.12500000000E+03 0.  0.
        -11    1    3    3    0    0  0.26073773840E+02 -0.53868516529E+02 -0.16104578372E+02  0.61975932427E+02  0.51100000000E-03 0. -1.
         23    2    1    0    0    0  0.13008630208E+02 -0.21652264854E+02 -0.12166826506E+02  0.96962940589E+02  0.92820984412E+02 0.  0.
         11    1    3    3    0    0 -0.13065143632E+02  0.32216251676E+02  0.39377518663E+01  0.34987008163E+02  0.51100000000E-03 0.  1.
         22    1    1    0    0    0 -0.13008630208E+02  0.21652264854E+02  0.12166826506E+02  0.28037059411E+02  0.00000000000E+00 0. -1.
</event>
<event>
 5    1  0.8778488E-005  0.9118800E+02  0.7818608E-02  0.1130116E+00
         25   -1    0    0    0    0  0.00000000000E+00  0.00000000000E+00  0.99999998245E-14  0.12500000000E+03  0.12500000000E+03 0.  0.
        -11    1    3    3    0    0 -0.81032173586E+01  0.11040044861E+02  0.44189551417E+02  0.46262956853E+02  0.51100000000E-03 0. -1.
         23    2    1    0    0    0  0.41647372165E+01 -0.25684606934E+02  0.13399578553E+02  0.95732393763E+02  0.91148770923E+02 0.  0.
         11    1    3    3    0    0  0.12267954575E+02 -0.36724651795E+02 -0.30789972864E+02  0.49469436910E+02  0.51100000000E-03 0.  1.
         22    1    1    0    0    0 -0.41647372165E+01  0.25684606934E+02 -0.13399578553E+02  0.29267606237E+02  0.00000000000E+00 0.  1.
</event>
<event>
 5    1  0.8778488E-005  0.9118800E+02  0.7818608E-02  0.1130116E+00
         25   -1    0    0    0    0  0.00000000000E+00  0.00000000000E+00  0.99999998245E-14  0.12500000000E+03  0.12500000000E+03 0.  0.
        -11    1    3    3    0    0 -0.31890658065E+02  0.17047643848E+02 -0.12243168462E+02  0.38177629665E+02  0.51100000000E-03 0.  1.
         23    2    1    0    0    0  0.48523953092E+01  0.66746958280E+00  0.28881116788E+02  0.95706482581E+02  0.91113229803E+02 0.  0.
         11    1    3    3    0    0  0.36743053374E+02 -0.16380174265E+02  0.41124285250E+02  0.57528852916E+02  0.51100000000E-03 0. -1.
         22    1    1    0    0    0 -0.48523953092E+01 -0.66746958280E+00 -0.28881116788E+02  0.29293517419E+02  0.00000000000E+00 0. -1.
</event>
<event>
 5    1  0.8778488E-005  0.9118800E+02  0.7818608E-02  0.1130116E+00
         25   -1    0    0    0    0  0.00000000000E+00  0.00000000000E+00  0.99999998245E-14  0.12500000000E+03  0.12500000000E+03 0.  0.
        -11    1    3    3    0    0 -0.10653482425E+01 -0.38595063082E+02 -0.15179387441E+02  0.41486475682E+02  0.51100000000E-03 0.  1.
         23    2    1    0    0    0  0.20456842397E+02  0.13300331977E+02 -0.12130915923E+02  0.97750406376E+02  0.93875457889E+02 0.  0.
         11    1    3    3    0    0  0.21522190640E+02  0.51895395059E+02  0.30484715185E+01  0.56263930694E+02  0.51100000000E-03 0. -1.
         22    1    1    0    0    0 -0.20456842397E+02 -0.13300331977E+02  0.12130915923E+02  0.27249593624E+02  0.00000000000E+00 0.  1.
</event>
<event>
 5    1  0.8778488E-005  0.9118800E+02  0.7818608E-02  0.1130116E+00
         25   -1    0    0    0    0  0.00000000000E+00  0.00000000000E+00  0.99999998245E-14  0.12500000000E+03  0.12500000000E+03 0.  0.
        -11    1    3    3    0    0  0.55596397505E+01  0.12109083111E+02  0.47316655833E+02  0.49156946685E+02  0.51100000000E-03 0. -1.
         23    2    1    0    0    0  0.72506495448E+01 -0.22996503813E+02  0.18435191966E+02  0.94647612791E+02  0.89648776890E+02 0.  0.
         11    1    3    3    0    0  0.16910097943E+01 -0.35105586924E+02 -0.28881463867E+02  0.45490666106E+02  0.51100000000E-03 0.  1.
         22    1    1    0    0    0 -0.72506495448E+01  0.22996503813E+02 -0.18435191966E+02  0.30352387209E+02  0.00000000000E+00 0.  1.
</event>
<event>
 5    1  0.8778488E-005  0.9118800E+02  0.7818608E-02  0.1130116E+00
         25   -1    0    0    0    0  0.00000000000E+00  0.00000000000E+00  0.99999998245E-14  0.12500000000E+03  0.12500000000E+03 0.  0.
        -11    1    3    3    0    0 -0.14058855389E+02  0.19574192407E+02 -0.44828248550E+02  0.50895700128E+02  0.51100000000E-03 0.  1.
         23    2    1    0    0    0 -0.12405622531E+02  0.27665357368E+02 -0.18891768900E+01  0.94621710746E+02  0.89612653607E+02 0.  0.
         11    1    3    3    0    0  0.16532328580E+01  0.80911649606E+01  0.42939071660E+02  0.43726010618E+02  0.51100000000E-03 0. -1.
         22    1    1    0    0    0  0.12405622531E+02 -0.27665357368E+02  0.18891768900E+01  0.30378289254E+02  0.00000000000E+00 0.  1.
</event>
<event>
 5    1  0.8778488E-005  0.9118800E+02  0.7818608E-02  0.1130116E+00
         25   -1    0    0    0    0  0.00000000000E+00  0.00000000000E+00  0.99999998245E-14  0.12500000000E+03  0.12500000000E+03 0.  0.
        -11    1    3    3    0    0 -0.57274768198E+02  0.19270342135E+02  0.83059025810E+01  0.60997812879E+02  0.51100000000E-03 0.  1.
         23    2    1    0    0    0 -0.30875198010E+02  0.47296258277E+01 -0.39146602907E+01  0.93520295779E+02  0.88062897663E+02 0.  0.
         11    1    3    3    0    0  0.26399570187E+02 -0.14540716307E+02 -0.12220562872E+02  0.32522482900E+02  0.51100000000E-03 0. -1.
         22    1    1    0    0    0  0.30875198010E+02 -0.47296258277E+01  0.39146602907E+01  0.31479704221E+02  0.00000000000E+00 0.  1.
</event>
<event>
 5    1  0.8778488E-005  0.9118800E+02  0.7818608E-02  0.1130116E+00
         25   -1    0    0    0    0  0.00000000000E+00  0.00000000000E+00  0.99999998245E-14  0.12500000000E+03  0.12500000000E+03 0.  0.
        -11    1    3    3    0    0  0.13634489442E+02  0.29101197445E+02 -0.37251771966E+02  0.49198307998E+02  0.51100000000E-03 0.  1.
         23    2    1    0    0    0  0.15378762742E+02 -0.13612332572E+02 -0.22775522739E+02  0.94331997497E+02  0.89207619485E+02 0.  0.
         11    1    3    3    0    0  0.17442732996E+01 -0.42713530016E+02  0.14476249227E+02  0.45133689498E+02  0.51100000000E-03 0. -1.
         22    1    1    0    0    0 -0.15378762742E+02  0.13612332572E+02  0.22775522739E+02  0.30668002503E+02  0.00000000000E+00 0. -1.
</event>
<event>
 5    1  0.8778488E-005  0.9118800E+02  0.7818608E-02  0.1130116E+00
         25   -1    0    0    0    0  0.00000000000E+00  0.00000000000E+00  0.99999998245E-14  0.12500000000E+03  0.12500000000E+03 0.  0.
        -11    1    3    3    0    0 -0.13389825561E+02  0.36597810714E+02  0.36179669626E+02  0.53175705657E+02  0.51100000000E-03 0. -1.
         23    2    1    0    0    0  0.14527338422E+02  0.23614293611E+02  0.53171405444E+01  0.96769689907E+02  0.92560372065E+02 0.  0.
         11    1    3    3    0    0  0.27917163983E+02 -0.12983517103E+02 -0.30862529082E+02  0.43593984250E+02  0.51100000000E-03 0.  1.
         22    1    1    0    0    0 -0.14527338422E+02 -0.23614293611E+02 -0.53171405444E+01  0.28230310093E+02  0.00000000000E+00 0. -1.
</event>
<event>
 5    1  0.8778488E-005  0.9118800E+02  0.7818608E-02  0.1130116E+00
         25   -1    0    0    0    0  0.00000000000E+00  0.00000000000E+00  0.99999998245E-14  0.12500000000E+03  0.12500000000E+03 0.  0.
        -11    1    3    3    0    0  0.56826089342E+02  0.19678247307E+01 -0.15468358265E+02  0.58926622776E+02  0.51100000000E-03 0.  1.
         23    2    1    0    0    0  0.22807701464E+02  0.15066719852E+01 -0.21663563608E+02  0.93507599413E+02  0.88044874088E+02 0.  0.
         11    1    3    3    0    0 -0.34018387878E+02 -0.46115274549E+00 -0.61952053433E+01  0.34580976637E+02  0.51100000000E-03 0. -1.
         22    1    1    0    0    0 -0.22807701464E+02 -0.15066719852E+01  0.21663563608E+02  0.31492400587E+02  0.00000000000E+00 0. -1.
</event>
<event>
 5    1  0.8778488E-005  0.9118800E+02  0.7818608E-02  0.1130116E+00
         25   -1    0    0    0    0  0.00000000000E+00  0.00000000000E+00  0.99999998245E-14  0.12500000000E+03  0.12500000000E+03 0.  0.
        -11    1    3    3    0    0 -0.27198644148E+02  0.32318991215E+01  0.22955540360E+02  0.35737490803E+02  0.51100000000E-03 0.  1.
         23    2    1    0    0    0  0.13683777252E+02 -0.13914038698E+02 -0.19708312327E+02  0.97264394589E+02  0.93226062060E+02 0.  0.
         11    1    3    3    0    0  0.40882421400E+02 -0.17145937819E+02 -0.42663852686E+02  0.61526903786E+02  0.51100000000E-03 0. -1.
         22    1    1    0    0    0 -0.13683777252E+02  0.13914038698E+02  0.19708312327E+02  0.27735605411E+02  0.00000000000E+00 0. -1.
</event>
<event>
 5    1  0.8778488E-005  0.9118800E+02  0.7818608E-02  0.1130116E+00
         25   -1    0    0    0    0  0.00000000000E+00  0.00000000000E+00  0.99999998245E-14  0.12500000000E+03  0.12500000000E+03 0.  0.
        -11    1    3    3    0    0 -0.30248776318E+02 -0.22867209945E+02 -0.45754353118E+02  0.59425235287E+02  0.51100000000E-03 0.  1.
         23    2    1    0    0    0 -0.13217717861E+02  0.22185743360E+01 -0.26388852353E+02  0.95402674680E+02  0.90695472159E+02 0.  0.
         11    1    3    3    0    0  0.17031058457E+02  0.25085784281E+02  0.19365500765E+02  0.35977439393E+02  0.51100000000E-03 0. -1.
         22    1    1    0    0    0  0.13217717861E+02 -0.22185743360E+01  0.26388852353E+02  0.29597325320E+02  0.00000000000E+00 0.  1.
</event>
<event>
 5    1  0.8778488E-005  0.9118800E+02  0.7818608E-02  0.1130116E+00
         25   -1    0    0    0    0  0.00000000000E+00  0.00000000000E+00  0.99999998245E-14  0.12500000000E+03  0.12500000000E+03 0.  0.
        -11    1    3    3    0    0 -0.38079806290E+02 -0.18142459874E+02 -0.43868639585E+02  0.60857851068E+02  0.51100000000E-03 0.  1.
         23    2    1    0    0    0 -0.13221257010E+02 -0.10283987922E+01 -0.25687914702E+02  0.96091035944E+02  0.91639287351E+02 0.  0.
         11    1    3    3    0    0  0.24858549279E+02  0.17114061082E+02  0.18180724883E+02  0.35233184876E+02  0.51100000000E-03 0. -1.
         22    1    1    0    0    0  0.13221257010E+02  0.10283987922E+01  0.25687914702E+02  0.28908964056E+02  0.00000000000E+00 0.  1.
</event>
<event>
 5    1  0.8778488E-005  0.9118800E+02  0.7818608E-02  0.1130116E+00
         25   -1    0    0    0    0  0.00000000000E+00  0.00000000000E+00  0.99999998245E-14  0.12500000000E+03  0.12500000000E+03 0.  0.
        -11    1    3    3    0    0 -0.11266822891E+02 -0.25561166575E+02  0.18898670011E+02  0.33726462358E+02  0.51100000000E-03 0. -1.
         23    2    1    0    0    0  0.28032796873E+01  0.26635288630E+02 -0.11619769643E+02  0.95805548062E+02  0.91249038436E+02 0.  0.
         11    1    3    3    0    0  0.14070102579E+02  0.52196455206E+02 -0.30518439653E+02  0.62079085703E+02  0.51100000000E-03 0.  1.
         22    1    1    0    0    0 -0.28032796873E+01 -0.26635288630E+02  0.11619769643E+02  0.29194451938E+02  0.00000000000E+00 0.  1.
</event>
<event>
 5    1  0.8778488E-005  0.9118800E+02  0.7818608E-02  0.1130116E+00
         25   -1    0    0    0    0  0.00000000000E+00  0.00000000000E+00  0.99999998245E-14  0.12500000000E+03  0.12500000000E+03 0.  0.
        -11    1    3    3    0    0  0.10644760621E+02  0.49941777300E+02  0.74966636904E+01  0.51610967975E+02  0.51100000000E-03 0. -1.
         23    2    1    0    0    0 -0.18367085836E+02  0.32987496468E+02  0.11693239196E+02  0.85474608057E+02  0.75786885504E+02 0.  0.
         11    1    3    3    0    0 -0.29011846457E+02 -0.16954280832E+02  0.41965755057E+01  0.33863640082E+02  0.51100000000E-03 0.  1.
         22    1    1    0    0    0  0.18367085836E+02 -0.32987496468E+02 -0.11693239196E+02  0.39525391943E+02  0.00000000000E+00 0. -1.
</event>
<event>
 5    1  0.8778488E-005  0.9118800E+02  0.7818608E-02  0.1130116E+00
         25   -1    0    0    0    0  0.00000000000E+00  0.00000000000E+00  0.99999998245E-14  0.12500000000E+03  0.12500000000E+03 0.  0.
        -11    1    3    3    0    0 -0.65209392130E+01  0.53078847665E+01 -0.41945577690E+02  0.42779992717E+02  0.51100000000E-03 0.  1.
         23    2    1    0    0    0 -0.20320763872E+02  0.20444215396E+02  0.65640977540E+01  0.95436732813E+02  0.90742400250E+02 0.  0.
         11    1    3    3    0    0 -0.13799824659E+02  0.15136330629E+02  0.48509675444E+02  0.52656740095E+02  0.51100000000E-03 0. -1.
         22    1    1    0    0    0  0.20320763872E+02 -0.20444215396E+02 -0.65640977540E+01  0.29563267187E+02  0.00000000000E+00 0.  1.
</event>
<event>
 5    1  0.8778488E-005  0.9118800E+02  0.7818608E-02  0.1130116E+00
         25   -1    0    0    0    0  0.00000000000E+00  0.00000000000E+00  0.99999998245E-14  0.12500000000E+03  0.12500000000E+03 0.  0.
        -11    1    3    3    0    0  0.34208215474E+02  0.26798923792E+02  0.36637438441E+02  0.56839125768E+02  0.51100000000E-03 0.  1.
         23    2    1    0    0    0  0.20726517686E+02  0.19344756228E+02 -0.70295607782E-01  0.96648402684E+02  0.92396432133E+02 0.  0.
         11    1    3    3    0    0 -0.13481697787E+02 -0.74541675645E+01 -0.36707734049E+02  0.39809276916E+02  0.51100000000E-03 0. -1.
         22    1    1    0    0    0 -0.20726517686E+02 -0.19344756228E+02  0.70295607782E-01  0.28351597316E+02  0.00000000000E+00 0.  1.
</event>
<event>
 5    1  0.8778488E-005  0.9118800E+02  0.7818608E-02  0.1130116E+00
         25   -1    0    0    0    0  0.00000000000E+00  0.00000000000E+00  0.99999998245E-14  0.12500000000E+03  0.12500000000E+03 0.  0.
        -11    1    3    3    0    0 -0.30007124826E+02 -0.14904037024E+02 -0.45868667643E+02  0.56802222946E+02  0.51100000000E-03 0.  1.
         23    2    1    0    0    0  0.37605409439E+01 -0.13204228454E+02 -0.24839034005E+02  0.96619180287E+02  0.92356889682E+02 0.  0.
         11    1    3    3    0    0  0.33767665770E+02  0.16998085698E+01  0.21029633638E+02  0.39816957341E+02  0.51100000000E-03 0. -1.
         22    1    1    0    0    0 -0.37605409439E+01  0.13204228454E+02  0.24839034005E+02  0.28380819713E+02  0.00000000000E+00 0.  1.
</event>
<event>
 5    1  0.8778488E-005  0.9118800E+02  0.7818608E-02  0.1130116E+00
         25   -1    0    0    0    0  0.00000000000E+00  0.00000000000E+00  0.99999998245E-14  0.12500000000E+03  0.12500000000E+03 0.  0.
        -11    1    3    3    0    0  0.98351013361E+01 -0.14999168395E+02  0.27101048911E+02  0.32498786488E+02  0.51100000000E-03 0. -1.
         23    2    1    0    0    0 -0.93445534755E+01  0.20133151421E+02 -0.20564722031E+02  0.94741575421E+02  0.89779696230E+02 0.  0.
         11    1    3    3    0    0 -0.19179654812E+02  0.35132319816E+02 -0.47665770942E+02  0.62242788933E+02  0.51100000000E-03 0.  1.
         22    1    1    0    0    0  0.93445534755E+01 -0.20133151421E+02  0.20564722031E+02  0.30258424579E+02  0.00000000000E+00 0.  1.
</event>
<event>
 5    1  0.8778488E-005  0.9118800E+02  0.7818608E-02  0.1130116E+00
         25   -1    0    0    0    0  0.00000000000E+00  0.00000000000E+00  0.99999998245E-14  0.12500000000E+03  0.12500000000E+03 0.  0.
        -11    1    3    3    0    0  0.19378111957E+02 -0.33786720077E+02 -0.40661720990E+02  0.56306564721E+02  0.51100000000E-03 0. -1.
         23    2    1    0    0    0 -0.72997797397E+01 -0.81318330962E+01 -0.27193837907E+02  0.95692691801E+02  0.91094308001E+02 0.  0.
         11    1    3    3    0    0 -0.26677891697E+02  0.25654886981E+02  0.13467883082E+02  0.39386127080E+02  0.51100000000E-03 0.  1.
         22    1    1    0    0    0  0.72997797397E+01  0.81318330962E+01  0.27193837907E+02  0.29307308199E+02  0.00000000000E+00 0. -1.
</event>
<event>
 5    1  0.8778488E-005  0.9118800E+02  0.7818608E-02  0.1130116E+00
         25   -1    0    0    0    0  0.00000000000E+00  0.00000000000E+00  0.99999998245E-14  0.12500000000E+03  0.12500000000E+03 0.  0.
        -11    1    3    3    0    0 -0.51175778609E+02  0.14065950178E+01  0.52060432896E+01  0.51459126623E+02  0.51100000000E-03 0.  1.
         23    2    1    0    0    0 -0.18625265343E+02  0.16905730716E+02 -0.17763183226E+02  0.94206576701E+02  0.89031703204E+02 0.  0.
         11    1    3    3    0    0  0.32550513266E+02  0.15499135698E+02 -0.22969226515E+02  0.42747450079E+02  0.51100000000E-03 0. -1.
         22    1    1    0    0    0  0.18625265343E+02 -0.16905730716E+02  0.17763183226E+02  0.30793423299E+02  0.00000000000E+00 0.  1.
</event>
<event>
 5    1  0.8778488E-005  0.9118800E+02  0.7818608E-02  0.1130116E+00
         25   -1    0    0    0    0  0.00000000000E+00  0.00000000000E+00  0.99999998245E-14  0.12500000000E+03  0.12500000000E+03 0.  0.
        -11    1    3    3    0    0 -0.16720733731E+02 -0.37441053438E+02 -0.59020670819E+01  0.41427645542E+02  0.51100000000E-03 0. -1.
         23    2    1    0    0    0  0.25237189826E+02 -0.36320946098E+01 -0.13992168893E+02  0.95915835032E+02  0.91399993205E+02 0.  0.
         11    1    3    3    0    0  0.41957923557E+02  0.33808958829E+02 -0.80901018113E+01  0.54488189489E+02  0.51100000000E-03 0.  1.
         22    1    1    0    0    0 -0.25237189826E+02  0.36320946098E+01  0.13992168893E+02  0.29084164968E+02  0.00000000000E+00 0.  1.
</event>
<event>
 5    1  0.8778488E-005  0.9118800E+02  0.7818608E-02  0.1130116E+00
         25   -1    0    0    0    0  0.00000000000E+00  0.00000000000E+00  0.99999998245E-14  0.12500000000E+03  0.12500000000E+03 0.  0.
        -11    1    3    3    0    0 -0.18812683125E-01  0.61225663246E+02  0.99260343609E+01  0.62025062291E+02  0.51100000000E-03 0.  1.
         23    2    1    0    0    0 -0.47269208930E+01  0.28202092170E+02  0.18589745751E+01  0.96344152946E+02  0.91983902051E+02 0.  0.
         11    1    3    3    0    0 -0.47081082099E+01 -0.33023571076E+02 -0.80670597858E+01  0.34319090655E+02  0.51100000000E-03 0. -1.
         22    1    1    0    0    0  0.47269208930E+01 -0.28202092170E+02 -0.18589745751E+01  0.28655847054E+02  0.00000000000E+00 0.  1.
</event>
<event>
 5    1  0.8778488E-005  0.9118800E+02  0.7818608E-02  0.1130116E+00
         25   -1    0    0    0    0  0.00000000000E+00  0.00000000000E+00  0.99999998245E-14  0.12500000000E+03  0.12500000000E+03 0.  0.
        -11    1    3    3    0    0  0.78724249108E+00 -0.33134260671E+02  0.17853358023E+02  0.37646266401E+02  0.51100000000E-03 0.  1.
         23    2    1    0    0    0 -0.27985992514E+02 -0.12949397344E+02 -0.19165626190E+02  0.88692646808E+02  0.80920712441E+02 0.  0.
         11    1    3    3    0    0 -0.28773235005E+02  0.20184863328E+02 -0.37018984213E+02  0.51046380407E+02  0.51100000000E-03 0. -1.
         22    1    1    0    0    0  0.27985992514E+02  0.12949397344E+02  0.19165626190E+02  0.36307353192E+02  0.00000000000E+00 0. -1.
</event>
<event>
 5    1  0.8778488E-005  0.9118800E+02  0.7818608E-02  0.1130116E+00
         25   -1    0    0    0    0  0.00000000000E+00  0.00000000000E+00  0.99999998245E-14  0.12500000000E+03  0.12500000000E+03 0.  0.
        -11    1    3    3    0    0 -0.26923323573E+02 -0.46924669164E+02 -0.20224324745E+02  0.57756499548E+02  0.51100000000E-03 0. -1.
         23    2    1    0    0    0 -0.10379771059E+01 -0.27788106769E+02  0.23795457505E+01  0.97090888365E+02  0.92993129269E+02 0.  0.
         11    1    3    3    0    0  0.25885346467E+02  0.19136562395E+02  0.22603870495E+02  0.39334388817E+02  0.51100000000E-03 0.  1.
         22    1    1    0    0    0  0.10379771059E+01  0.27788106769E+02 -0.23795457505E+01  0.27909111635E+02  0.00000000000E+00 0. -1.
</event>
<event>
 4    1  0.8778488E-005  0.9118800E+02  0.7818608E-02  0.1130116E+00
         25   -1    0    0    0    0  0.00000000000E+00  0.00000000000E+00  0.99999998245E-14  0.12500000000E+03  0.12500000000E+03 0.  0.
        -11    1    1    0    0    0 -0.51110689239E+02  0.20273233004E+02 -0.18586040626E+02  0.58040911755E+02  0.51100000000E-03 0.  1.
         11    1    1    0    0    0  0.19937962609E+01 -0.14768225596E+02  0.44830253422E+01  0.15561915926E+02  0.51100000000E-03 0. -1.
         22    1    1    0    0    0  0.49116892978E+02 -0.55050074072E+01  0.14103015283E+02  0.51397172320E+02  0.00000000000E+00 0.  1.
</event>
<event>
 5    1  0.8778488E-005  0.9118800E+02  0.7818608E-02  0.1130116E+00
         25   -1    0    0    0    0  0.00000000000E+00  0.00000000000E+00  0.99999998245E-14  0.12500000000E+03  0.12500000000E+03 0.  0.
        -11    1    3    3    0    0 -0.96945921479E+01  0.35977534207E+02 -0.58362020449E+01  0.37715107571E+02  0.51100000000E-03 0.  1.
         23    2    1    0    0    0  0.26644973675E+02 -0.82364662818E+01  0.67313251878E+01  0.96310198018E+02  0.91937747985E+02 0.  0.
         11    1    3    3    0    0  0.36339565823E+02 -0.44214000489E+02  0.12567527233E+02  0.58595090447E+02  0.51100000000E-03 0. -1.
         22    1    1    0    0    0 -0.26644973675E+02  0.82364662818E+01 -0.67313251878E+01  0.28689801982E+02  0.00000000000E+00 0. -1.
</event>
<event>
 5    1  0.8778488E-005  0.9118800E+02  0.7818608E-02  0.1130116E+00
         25   -1    0    0    0    0  0.00000000000E+00  0.00000000000E+00  0.99999998245E-14  0.12500000000E+03  0.12500000000E+03 0.  0.
        -11    1    3    3    0    0  0.25840394299E+02  0.52520866877E+02 -0.20321978507E+02  0.61960876735E+02  0.51100000000E-03 0.  1.
         23    2    1    0    0    0  0.13044527522E+02  0.21174999047E+02 -0.14181990672E+02  0.96370135482E+02  0.92019203813E+02 0.  0.
         11    1    3    3    0    0 -0.12795866777E+02 -0.31345867831E+02  0.61399878347E+01  0.34409258747E+02  0.51100000000E-03 0. -1.
         22    1    1    0    0    0 -0.13044527522E+02 -0.21174999047E+02  0.14181990672E+02  0.28629864518E+02  0.00000000000E+00 0.  1.
</event>
<event>
 5    1  0.8778488E-005  0.9118800E+02  0.7818608E-02  0.1130116E+00
         25   -1    0    0    0    0  0.00000000000E+00  0.00000000000E+00  0.99999998245E-14  0.12500000000E+03  0.12500000000E+03 0.  0.
        -11    1    3    3    0    0 -0.22211582645E+02  0.30131695838E+02  0.63846740491E+01  0.37974169650E+02  0.51100000000E-03 0.  1.
         23    2    1    0    0    0  0.28122233894E+02  0.53654256239E+01 -0.67441046359E+01  0.95586894440E+02  0.90949016542E+02 0.  0.
         11    1    3    3    0    0  0.50333816539E+02 -0.24766270214E+02 -0.13128778685E+02  0.57612724790E+02  0.51100000000E-03 0. -1.
         22    1    1    0    0    0 -0.28122233894E+02 -0.53654256239E+01  0.67441046359E+01  0.29413105560E+02  0.00000000000E+00 0. -1.
</event>
<event>
 5    1  0.8778488E-005  0.9118800E+02  0.7818608E-02  0.1130116E+00
         25   -1    0    0    0    0  0.00000000000E+00  0.00000000000E+00  0.99999998245E-14  0.12500000000E+03  0.12500000000E+03 0.  0.
        -11    1    3    3    0    0  0.23315446150E+02 -0.13609480899E+02  0.41721776505E+02  0.49694412508E+02  0.51100000000E-03 0.  1.
         23    2    1    0    0    0  0.27694944197E+02 -0.10771363097E+02 -0.33758604390E+01  0.95093000305E+02  0.90267657975E+02 0.  0.
         11    1    3    3    0    0  0.43794980473E+01  0.28381178021E+01 -0.45097636944E+02  0.45398587797E+02  0.51100000000E-03 0. -1.
         22    1    1    0    0    0 -0.27694944197E+02  0.10771363097E+02  0.33758604390E+01  0.29906999695E+02  0.00000000000E+00 0.  1.
</event>
<event>
 5    1  0.8778488E-005  0.9118800E+02  0.7818608E-02  0.1130116E+00
         25   -1    0    0    0    0  0.00000000000E+00  0.00000000000E+00  0.99999998245E-14  0.12500000000E+03  0.12500000000E+03 0.  0.
        -11    1    3    3    0    0  0.30974777530E+02  0.45890875052E+01 -0.49950744391E+02  0.58953994204E+02  0.51100000000E-03 0.  1.
         23    2    1    0    0    0  0.11848434143E+01  0.69816408408E+01 -0.28219698362E+02  0.95905352066E+02  0.91385655420E+02 0.  0.
         11    1    3    3    0    0 -0.29789934115E+02  0.23925533356E+01  0.21731046029E+02  0.36951357862E+02  0.51100000000E-03 0. -1.
         22    1    1    0    0    0 -0.11848434143E+01 -0.69816408408E+01  0.28219698362E+02  0.29094647934E+02  0.00000000000E+00 0.  1.
</event>
<event>
 5    1  0.8778488E-005  0.9118800E+02  0.7818608E-02  0.1130116E+00
         25   -1    0    0    0    0  0.00000000000E+00  0.00000000000E+00  0.99999998245E-14  0.12500000000E+03  0.12500000000E+03 0.  0.
        -11    1    3    3    0    0 -0.11793346157E+02  0.41657604461E+02  0.11617486376E+02  0.44826387463E+02  0.51100000000E-03 0.  1.
         23    2    1    0    0    0  0.13154292933E+02  0.28948020617E+02 -0.20293705281E+02  0.87279212704E+02  0.78707071956E+02 0.  0.
         11    1    3    3    0    0  0.24947639090E+02 -0.12709583844E+02 -0.31911191657E+02  0.42452825241E+02  0.51100000000E-03 0. -1.
         22    1    1    0    0    0 -0.13154292933E+02 -0.28948020617E+02  0.20293705281E+02  0.37720787296E+02  0.00000000000E+00 0.  1.
</event>
<event>
 5    1  0.8778488E-005  0.9118800E+02  0.7818608E-02  0.1130116E+00
         25   -1    0    0    0    0  0.00000000000E+00  0.00000000000E+00  0.99999998245E-14  0.12500000000E+03  0.12500000000E+03 0.  0.
        -11    1    3    3    0    0  0.60818210773E+02  0.74203487466E+01 -0.66045373072E+01  0.61624153142E+02  0.51100000000E-03 0.  1.
         23    2    1    0    0    0  0.29017409020E+02  0.18007519568E+01  0.40856955951E+01  0.95641089218E+02  0.91023471173E+02 0.  0.
         11    1    3    3    0    0 -0.31800801753E+02 -0.56195967898E+01  0.10690232902E+02  0.34016936076E+02  0.51100000000E-03 0. -1.
         22    1    1    0    0    0 -0.29017409020E+02 -0.18007519568E+01 -0.40856955951E+01  0.29358910782E+02  0.00000000000E+00 0.  1.
</event>
<event>
 5    1  0.8778488E-005  0.9118800E+02  0.7818608E-02  0.1130116E+00
         25   -1    0    0    0    0  0.00000000000E+00  0.00000000000E+00  0.99999998245E-14  0.12500000000E+03  0.12500000000E+03 0.  0.
        -11    1    3    3    0    0  0.28766551871E+02  0.39436102555E+01  0.29642039339E+02  0.41493578598E+02  0.51100000000E-03 0. -1.
         23    2    1    0    0    0 -0.12916864664E+02 -0.23951832991E+02  0.51748340869E+01  0.97299555885E+02  0.93273195352E+02 0.  0.
         11    1    3    3    0    0 -0.41683416534E+02 -0.27895443246E+02 -0.24467205252E+02  0.55805977287E+02  0.51100000000E-03 0.  1.
         22    1    1    0    0    0  0.12916864664E+02  0.23951832991E+02 -0.51748340869E+01  0.27700444115E+02  0.00000000000E+00 0.  1.
</event>
<event>
 5    1  0.8778488E-005  0.9118800E+02  0.7818608E-02  0.1130116E+00
         25   -1    0    0    0    0  0.00000000000E+00  0.00000000000E+00  0.99999998245E-14  0.12500000000E+03  0.12500000000E+03 0.  0.
        -11    1    3    3    0    0  0.67277971070E+01  0.27314707848E+02 -0.30240772097E+02  0.41302067938E+02  0.51100000000E-03 0. -1.
         23    2    1    0    0    0  0.12212668268E+02 -0.23738117677E+02 -0.10611044486E+02  0.96272978537E+02  0.91887129862E+02 0.  0.
         11    1    3    3    0    0  0.54848711608E+01 -0.51052825525E+02  0.19629727610E+02  0.54970910598E+02  0.51100000000E-03 0.  1.
         22    1    1    0    0    0 -0.12212668268E+02  0.23738117677E+02  0.10611044486E+02  0.28727021463E+02  0.00000000000E+00 0.  1.
</event>
<event>
 5    1  0.8778488E-005  0.9118800E+02  0.7818608E-02  0.1130116E+00
         25   -1    0    0    0    0  0.00000000000E+00  0.00000000000E+00  0.99999998245E-14  0.12500000000E+03  0.12500000000E+03 0.  0.
        -11    1    3    3    0    0  0.11988473459E+02 -0.18857064390E+02  0.99639855632E+01  0.24466168107E+02  0.51100000000E-03 0. -1.
         23    2    1    0    0    0 -0.20939712647E+02  0.25001504810E+02 -0.19781805205E+02  0.86857286074E+02  0.78034104841E+02 0.  0.
         11    1    3    3    0    0 -0.32928186106E+02  0.43858569200E+02 -0.29745790768E+02  0.62391117967E+02  0.51100000000E-03 0.  1.
         22    1    1    0    0    0  0.20939712647E+02 -0.25001504810E+02  0.19781805205E+02  0.38142713926E+02  0.00000000000E+00 0.  1.
</event>
<event>
 5    1  0.8778488E-005  0.9118800E+02  0.7818608E-02  0.1130116E+00
         25   -1    0    0    0    0  0.00000000000E+00  0.00000000000E+00  0.99999998245E-14  0.12500000000E+03  0.12500000000E+03 0.  0.
        -11    1    3    3    0    0 -0.25551198998E+02 -0.13993898253E+02  0.30208492268E+02  0.41967201049E+02  0.51100000000E-03 0.  1.
         23    2    1    0    0    0  0.13053661299E+01 -0.18730244696E+02 -0.19038404511E+02  0.98260761166E+02  0.94552579507E+02 0.  0.
         11    1    3    3    0    0  0.26856565128E+02 -0.47363464430E+01 -0.49246896778E+02  0.56293560117E+02  0.51100000000E-03 0. -1.
         22    1    1    0    0    0 -0.13053661299E+01  0.18730244696E+02  0.19038404511E+02  0.26739238834E+02  0.00000000000E+00 0.  1.
</event>
<event>
 5    1  0.8778488E-005  0.9118800E+02  0.7818608E-02  0.1130116E+00
         25   -1    0    0    0    0  0.00000000000E+00  0.00000000000E+00  0.99999998245E-14  0.12500000000E+03  0.12500000000E+03 0.  0.
        -11    1    3    3    0    0  0.38844308345E+02  0.19180048353E+02 -0.26601899871E+02  0.50837148058E+02  0.51100000000E-03 0.  1.
         23    2    1    0    0    0  0.27301981523E+02 -0.11689292559E+02  0.30174928944E+01  0.95147981325E+02  0.90343761994E+02 0.  0.
         11    1    3    3    0    0 -0.11542326823E+02 -0.30869340912E+02  0.29619392765E+02  0.44310833267E+02  0.51100000000E-03 0. -1.
         22    1    1    0    0    0 -0.27301981523E+02  0.11689292559E+02 -0.30174928944E+01  0.29852018675E+02  0.00000000000E+00 0. -1.
</event>
<event>
 5    1  0.8778488E-005  0.9118800E+02  0.7818608E-02  0.1130116E+00
         25   -1    0    0    0    0  0.00000000000E+00  0.00000000000E+00  0.99999998245E-14  0.12500000000E+03  0.12500000000E+03 0.  0.
        -11    1    3    3    0    0 -0.19705282111E+02  0.39038040938E+02  0.41361510019E+02  0.60191704533E+02  0.51100000000E-03 0. -1.
         23    2    1    0    0    0 -0.74599998406E+01  0.56079583543E+01  0.22847053424E+02  0.10032027867E+03  0.97237182542E+02 0.  0.
         11    1    3    3    0    0  0.12245282270E+02 -0.33430082583E+02 -0.18514456594E+02  0.40128574142E+02  0.51100000000E-03 0.  1.
         22    1    1    0    0    0  0.74599998406E+01 -0.56079583543E+01 -0.22847053424E+02  0.24679721325E+02  0.00000000000E+00 0. -1.
</event>
<event>
 5    1  0.8778488E-005  0.9118800E+02  0.7818608E-02  0.1130116E+00
         25   -1    0    0    0    0  0.00000000000E+00  0.00000000000E+00  0.99999998245E-14  0.12500000000E+03  0.12500000000E+03 0.  0.
        -11    1    3    3    0    0  0.23449982095E+02  0.10768722703E+02  0.51670545988E+02  0.57755626322E+02  0.51100000000E-03 0.  1.
         23    2    1    0    0    0 -0.40205567467E+01 -0.17521880657E+01  0.29410040572E+02  0.95264742712E+02  0.90505169344E+02 0.  0.
         11    1    3    3    0    0 -0.27470538841E+02 -0.12520910769E+02 -0.22260505416E+02  0.37509116390E+02  0.51100000000E-03 0. -1.
         22    1    1    0    0    0  0.40205567467E+01  0.17521880657E+01 -0.29410040572E+02  0.29735257288E+02  0.00000000000E+00 0.  1.
</event>
<event>
 5    1  0.8778488E-005  0.9118800E+02  0.7818608E-02  0.1130116E+00
         25   -1    0    0    0    0  0.00000000000E+00  0.00000000000E+00  0.99999998245E-14  0.12500000000E+03  0.12500000000E+03 0.  0.
        -11    1    3    3    0    0  0.21754447844E+01 -0.15762677637E+02 -0.35001629171E+02  0.38448779059E+02  0.51100000000E-03 0.  1.
         23    2    1    0    0    0  0.23246966545E+02 -0.85906405353E+01  0.16954486322E+02  0.94972093566E+02  0.90100074315E+02 0.  0.
         11    1    3    3    0    0  0.21071521760E+02  0.71720371012E+01  0.51956115493E+02  0.56523314507E+02  0.51100000000E-03 0. -1.
         22    1    1    0    0    0 -0.23246966545E+02  0.85906405353E+01 -0.16954486322E+02  0.30027906434E+02  0.00000000000E+00 0. -1.
</event>
<event>
 5    1  0.8778488E-005  0.9118800E+02  0.7818608E-02  0.1130116E+00
         25   -1    0    0    0    0  0.00000000000E+00  0.00000000000E+00  0.99999998245E-14  0.12500000000E+03  0.12500000000E+03 0.  0.
        -11    1    3    3    0    0 -0.97347640278E+01  0.29822089487E+02 -0.14787514745E+02  0.34681309731E+02  0.51100000000E-03 0.  1.
         23    2    1    0    0    0 -0.13824060497E+02 -0.26224109235E+02  0.62828856061E+01  0.94696811961E+02  0.89717350554E+02 0.  0.
         11    1    3    3    0    0 -0.40892964689E+01 -0.56046198722E+02  0.21070400351E+02  0.60015502231E+02  0.51100000000E-03 0. -1.
         22    1    1    0    0    0  0.13824060497E+02  0.26224109235E+02 -0.62828856061E+01  0.30303188039E+02  0.00000000000E+00 0. -1.
</event>
<event>
 5    1  0.8778488E-005  0.9118800E+02  0.7818608E-02  0.1130116E+00
         25   -1    0    0    0    0  0.00000000000E+00  0.00000000000E+00  0.99999998245E-14  0.12500000000E+03  0.12500000000E+03 0.  0.
        -11    1    3    3    0    0 -0.10318275310E+02  0.17077460197E+02  0.37120116985E+02  0.42142728167E+02  0.51100000000E-03 0. -1.
         23    2    1    0    0    0 -0.27558104598E+02  0.95774820485E+01 -0.11011741237E+02  0.93816098119E+02  0.88481775128E+02 0.  0.
         11    1    3    3    0    0 -0.17239829288E+02 -0.74999781481E+01 -0.48131858222E+02  0.51673369952E+02  0.51100000000E-03 0.  1.
         22    1    1    0    0    0  0.27558104598E+02 -0.95774820485E+01  0.11011741237E+02  0.31183901881E+02  0.00000000000E+00 0.  1.
</event>
<event>
 5    1  0.8778488E-005  0.9118800E+02  0.7818608E-02  0.1130116E+00
         25   -1    0    0    0    0  0.00000000000E+00  0.00000000000E+00  0.99999998245E-14  0.12500000000E+03  0.12500000000E+03 0.  0.
        -11    1    3    3    0    0  0.22746700420E+02  0.43726169354E+01  0.33432018551E+02  0.40672251272E+02  0.51100000000E-03 0.  1.
         23    2    1    0    0    0  0.15925098076E+02  0.36816506462E+01 -0.22592514646E+02  0.97114788539E+02  0.93025249985E+02 0.  0.
         11    1    3    3    0    0 -0.68216023438E+01 -0.69096628927E+00 -0.56024533197E+02  0.56442537267E+02  0.51100000000E-03 0. -1.
         22    1    1    0    0    0 -0.15925098076E+02 -0.36816506462E+01  0.22592514646E+02  0.27885211461E+02  0.00000000000E+00 0.  1.
</event>
<event>
 5    1  0.8778488E-005  0.9118800E+02  0.7818608E-02  0.1130116E+00
         25   -1    0    0    0    0  0.00000000000E+00  0.00000000000E+00  0.99999998245E-14  0.12500000000E+03  0.12500000000E+03 0.  0.
        -11    1    3    3    0    0  0.45355568943E+02 -0.27110617082E+02  0.28359583981E+02  0.59969819047E+02  0.51100000000E-03 0.  1.
         23    2    1    0    0    0  0.11384252449E+02 -0.19354185144E+02  0.17697303634E+02  0.96410137420E+02  0.92073526896E+02 0.  0.
         11    1    3    3    0    0 -0.33971316493E+02  0.77564319374E+01 -0.10662280347E+02  0.36440318373E+02  0.51100000000E-03 0. -1.
         22    1    1    0    0    0 -0.11384252449E+02  0.19354185144E+02 -0.17697303634E+02  0.28589862580E+02  0.00000000000E+00 0.  1.
</event>
<event>
 5    1  0.8778488E-005  0.9118800E+02  0.7818608E-02  0.1130116E+00
         25   -1    0    0    0    0  0.00000000000E+00  0.00000000000E+00  0.99999998245E-14  0.12500000000E+03  0.12500000000E+03 0.  0.
        -11    1    3    3    0    0 -0.25579692147E+02 -0.68915215223E+01 -0.34526037873E+02  0.43518513425E+02  0.51100000000E-03 0.  1.
         23    2    1    0    0    0 -0.25389704271E+01  0.29829840587E+02 -0.18876880845E+02  0.89607876714E+02  0.82322349204E+02 0.  0.
         11    1    3    3    0    0  0.23040721719E+02  0.36721362109E+02  0.15649157028E+02  0.46089363290E+02  0.51100000000E-03 0. -1.
         22    1    1    0    0    0  0.25389704271E+01 -0.29829840587E+02  0.18876880845E+02  0.35392123286E+02  0.00000000000E+00 0. -1.
</event>
<event>
 5    1  0.8778488E-005  0.9118800E+02  0.7818608E-02  0.1130116E+00
         25   -1    0    0    0    0  0.00000000000E+00  0.00000000000E+00  0.99999998245E-14  0.12500000000E+03  0.12500000000E+03 0.  0.
        -11    1    3    3    0    0  0.30200394627E+02 -0.16484491678E+02  0.38512445199E+02  0.51643109289E+02  0.51100000000E-03 0. -1.
         23    2    1    0    0    0  0.23146931032E+02 -0.19476600306E+02 -0.36804360154E+01  0.94526011338E+02  0.89479063666E+02 0.  0.
         11    1    3    3    0    0 -0.70534635955E+01 -0.29921086284E+01 -0.42192881215E+02  0.42882902050E+02  0.51100000000E-03 0.  1.
         22    1    1    0    0    0 -0.23146931032E+02  0.19476600306E+02  0.36804360154E+01  0.30473988662E+02  0.00000000000E+00 0. -1.
</event>
<event>
 5    1  0.8778488E-005  0.9118800E+02  0.7818608E-02  0.1130116E+00
         25   -1    0    0    0    0  0.00000000000E+00  0.00000000000E+00  0.99999998245E-14  0.12500000000E+03  0.12500000000E+03 0.  0.
        -11    1    3    3    0    0 -0.39424542678E+02 -0.27548556475E+02 -0.86447276908E+01  0.48866643493E+02  0.51100000000E-03 0.  1.
         23    2    1    0    0    0  0.43237331588E+01 -0.22519435551E+02 -0.20251337923E+02  0.94406923436E+02  0.89312545922E+02 0.  0.
         11    1    3    3    0    0  0.43748275836E+02  0.50291209240E+01 -0.11606610232E+02  0.45540279943E+02  0.51100000000E-03 0. -1.
         22    1    1    0    0    0 -0.43237331588E+01  0.22519435551E+02  0.20251337923E+02  0.30593076564E+02  0.00000000000E+00 0.  1.
</event>
<event>
 5    1  0.8778488E-005  0.9118800E+02  0.7818608E-02  0.1130116E+00
         25   -1    0    0    0    0  0.00000000000E+00  0.00000000000E+00  0.99999998245E-14  0.12500000000E+03  0.12500000000E+03 0.  0.
        -11    1    3    3    0    0 -0.34660797085E+02  0.10594457006E+02  0.11681175868E+02  0.38079695951E+02  0.51100000000E-03 0.  1.
         23    2    1    0    0    0  0.14043526887E+02 -0.15247240514E+02  0.22650754157E+02  0.94295673683E+02  0.89156707099E+02 0.  0.
         11    1    3    3    0    0  0.48704323972E+02 -0.25841697520E+02  0.10969578289E+02  0.56215977732E+02  0.51100000000E-03 0. -1.
         22    1    1    0    0    0 -0.14043526887E+02  0.15247240514E+02 -0.22650754157E+02  0.30704326317E+02  0.00000000000E+00 0. -1.
</event>
<event>
 5    1  0.8778488E-005  0.9118800E+02  0.7818608E-02  0.1130116E+00
         25   -1    0    0    0    0  0.00000000000E+00  0.00000000000E+00  0.99999998245E-14  0.12500000000E+03  0.12500000000E+03 0.  0.
        -11    1    3    3    0    0 -0.10338354860E+02 -0.19862571249E+02  0.21969208130E+02  0.31369562062E+02  0.51100000000E-03 0. -1.
         23    2    1    0    0    0 -0.33409364737E+02  0.23870779494E+02  0.50507466277E+01  0.83629602283E+02  0.72680125005E+02 0.  0.
         11    1    3    3    0    0 -0.23071009877E+02  0.43733350743E+02 -0.16918461503E+02  0.52260040220E+02  0.51100000000E-03 0.  1.
         22    1    1    0    0    0  0.33409364737E+02 -0.23870779494E+02 -0.50507466277E+01  0.41370397717E+02  0.00000000000E+00 0.  1.
</event>
<event>
 5    1  0.8778488E-005  0.9118800E+02  0.7818608E-02  0.1130116E+00
         25   -1    0    0    0    0  0.00000000000E+00  0.00000000000E+00  0.99999998245E-14  0.12500000000E+03  0.12500000000E+03 0.  0.
        -11    1    3    3    0    0  0.21552571613E+02  0.19775658980E+02  0.18087122301E+02  0.34390900317E+02  0.51100000000E-03 0. -1.
         23    2    1    0    0    0  0.43810039806E+01 -0.24018034912E+02 -0.18813970695E+02  0.94177529459E+02  0.88990911698E+02 0.  0.
         11    1    3    3    0    0 -0.17171567632E+02 -0.43793693892E+02 -0.36901092996E+02  0.59786629142E+02  0.51100000000E-03 0.  1.
         22    1    1    0    0    0 -0.43810039806E+01  0.24018034912E+02  0.18813970695E+02  0.30822470541E+02  0.00000000000E+00 0.  1.
</event>
<event>
 5    1  0.8778488E-005  0.9118800E+02  0.7818608E-02  0.1130116E+00
         25   -1    0    0    0    0  0.00000000000E+00  0.00000000000E+00  0.99999998245E-14  0.12500000000E+03  0.12500000000E+03 0.  0.
        -11    1    3    3    0    0  0.15953328914E+02 -0.28045641701E+02  0.92510134308E+01  0.33565577183E+02  0.51100000000E-03 0. -1.
         23    2    1    0    0    0 -0.23226820458E+02  0.18802109750E+02  0.36762154750E+01  0.94891544712E+02  0.89988255778E+02 0.  0.
         11    1    3    3    0    0 -0.39180149371E+02  0.46847751451E+02 -0.55747979558E+01  0.61325967529E+02  0.51100000000E-03 0.  1.
         22    1    1    0    0    0  0.23226820458E+02 -0.18802109750E+02 -0.36762154750E+01  0.30108455288E+02  0.00000000000E+00 0.  1.
</event>
<event>
 5    1  0.8778488E-005  0.9118800E+02  0.7818608E-02  0.1130116E+00
         25   -1    0    0    0    0  0.00000000000E+00  0.00000000000E+00  0.99999998245E-14  0.12500000000E+03  0.12500000000E+03 0.  0.
        -11    1    3    3    0    0 -0.46583799668E+02 -0.33063673655E+02  0.81491514072E+01  0.57703254467E+02  0.51100000000E-03 0.  1.
         23    2    1    0    0    0 -0.24310703077E+02 -0.39706715375E+00  0.12816179627E+02  0.97515051271E+02  0.93561545614E+02 0.  0.
         11    1    3    3    0    0  0.22273096591E+02  0.32666606502E+02  0.46670282199E+01  0.39811796804E+02  0.51100000000E-03 0. -1.
         22    1    1    0    0    0  0.24310703077E+02  0.39706715375E+00 -0.12816179627E+02  0.27484948729E+02  0.00000000000E+00 0.  1.
</event>
<event>
 5    1  0.8778488E-005  0.9118800E+02  0.7818608E-02  0.1130116E+00
         25   -1    0    0    0    0  0.00000000000E+00  0.00000000000E+00  0.99999998245E-14  0.12500000000E+03  0.12500000000E+03 0.  0.
        -11    1    3    3    0    0 -0.15036946060E+02 -0.19789354907E+01  0.50693802075E+02  0.52913963201E+02  0.51100000000E-03 0. -1.
         23    2    1    0    0    0 -0.22616425056E+01 -0.22117121337E+02  0.88619425205E+01  0.10106642299E+03  0.98191678612E+02 0.  0.
         11    1    3    3    0    0  0.12775303554E+02 -0.20138185846E+02 -0.41831859555E+02  0.48152459793E+02  0.51100000000E-03 0.  1.
         22    1    1    0    0    0  0.22616425056E+01  0.22117121337E+02 -0.88619425205E+01  0.23933577006E+02  0.00000000000E+00 0.  1.
</event>
<event>
 5    1  0.8778488E-005  0.9118800E+02  0.7818608E-02  0.1130116E+00
         25   -1    0    0    0    0  0.00000000000E+00  0.00000000000E+00  0.99999998245E-14  0.12500000000E+03  0.12500000000E+03 0.  0.
        -11    1    3    3    0    0 -0.93089699881E+01 -0.26424428027E+01  0.31900981701E+02  0.33336347430E+02  0.51100000000E-03 0. -1.
         23    2    1    0    0    0 -0.73521994000E+01  0.28445466315E+02 -0.16806460366E+02  0.91152452084E+02  0.84635176026E+02 0.  0.
         11    1    3    3    0    0  0.19567705882E+01  0.31087909118E+02 -0.48707442066E+02  0.57816104654E+02  0.51100000000E-03 0.  1.
         22    1    1    0    0    0  0.73521994000E+01 -0.28445466315E+02  0.16806460366E+02  0.33847547916E+02  0.00000000000E+00 0.  1.
</event>
<event>
 5    1  0.8778488E-005  0.9118800E+02  0.7818608E-02  0.1130116E+00
         25   -1    0    0    0    0  0.00000000000E+00  0.00000000000E+00  0.99999998245E-14  0.12500000000E+03  0.12500000000E+03 0.  0.
        -11    1    3    3    0    0  0.54786202882E+02  0.12551885372E+02  0.76139188415E+01  0.56719041010E+02  0.51100000000E-03 0.  1.
         23    2    1    0    0    0  0.27660475498E+02 -0.12774678802E+02  0.37431345578E+00  0.94529777916E+02  0.89484325326E+02 0.  0.
         11    1    3    3    0    0 -0.27125727384E+02 -0.25326564174E+02 -0.72396053857E+01  0.37810736906E+02  0.51100000000E-03 0. -1.
         22    1    1    0    0    0 -0.27660475498E+02  0.12774678802E+02 -0.37431345578E+00  0.30470222084E+02  0.00000000000E+00 0. -1.
</event>
<event>
 5    1  0.8778488E-005  0.9118800E+02  0.7818608E-02  0.1130116E+00
         25   -1    0    0    0    0  0.00000000000E+00  0.00000000000E+00  0.99999998245E-14  0.12500000000E+03  0.12500000000E+03 0.  0.
        -11    1    3    3    0    0  0.23878657798E+01 -0.36773917126E+02 -0.65200777145E+00  0.36857129543E+02  0.51100000000E-03 0.  1.
         23    2    1    0    0    0 -0.19518329901E+02  0.19460517573E+02 -0.31432459329E+01  0.97259110661E+02  0.93218976959E+02 0.  0.
         11    1    3    3    0    0 -0.21906195680E+02  0.56234434699E+02 -0.24912381614E+01  0.60401981118E+02  0.51100000000E-03 0. -1.
         22    1    1    0    0    0  0.19518329901E+02 -0.19460517573E+02  0.31432459329E+01  0.27740889339E+02  0.00000000000E+00 0. -1.
</event>
<event>
 5    1  0.8778488E-005  0.9118800E+02  0.7818608E-02  0.1130116E+00
         25   -1    0    0    0    0  0.00000000000E+00  0.00000000000E+00  0.99999998245E-14  0.12500000000E+03  0.12500000000E+03 0.  0.
        -11    1    3    3    0    0  0.13763715753E+02  0.94502977681E+01 -0.31156265860E+02  0.35347714238E+02  0.51100000000E-03 0. -1.
         23    2    1    0    0    0  0.19265711797E+02 -0.35809481465E+01  0.24987074739E+02  0.93245555513E+02  0.87672053006E+02 0.  0.
         11    1    3    3    0    0  0.55019960434E+01 -0.13031245915E+02  0.56143340599E+02  0.57897841276E+02  0.51100000000E-03 0.  1.
         22    1    1    0    0    0 -0.19265711797E+02  0.35809481465E+01 -0.24987074739E+02  0.31754444487E+02  0.00000000000E+00 0.  1.
</event>
<event>
 5    1  0.8778488E-005  0.9118800E+02  0.7818608E-02  0.1130116E+00
         25   -1    0    0    0    0  0.00000000000E+00  0.00000000000E+00  0.99999998245E-14  0.12500000000E+03  0.12500000000E+03 0.  0.
        -11    1    3    3    0    0  0.85490694930E+01 -0.17542149971E+02  0.56535254682E+02  0.59808432825E+02  0.51100000000E-03 0.  1.
         23    2    1    0    0    0  0.11641859504E+02  0.23497595328E+01  0.26429880089E+02  0.96024271811E+02  0.91548172853E+02 0.  0.
         11    1    3    3    0    0  0.30927900114E+01  0.19891909504E+02 -0.30105374593E+02  0.36215838985E+02  0.51100000000E-03 0. -1.
         22    1    1    0    0    0 -0.11641859504E+02 -0.23497595328E+01 -0.26429880089E+02  0.28975728189E+02  0.00000000000E+00 0.  1.
</event>
<event>
 5    1  0.8778488E-005  0.9118800E+02  0.7818608E-02  0.1130116E+00
         25   -1    0    0    0    0  0.00000000000E+00  0.00000000000E+00  0.99999998245E-14  0.12500000000E+03  0.12500000000E+03 0.  0.
        -11    1    3    3    0    0  0.91579355135E+01 -0.23417679988E+02  0.43719127680E+02  0.50434290362E+02  0.51100000000E-03 0.  1.
         23    2    1    0    0    0 -0.15185399873E+02  0.98424263837E+01  0.20161280252E+02  0.97908544745E+02  0.94085791628E+02 0.  0.
         11    1    3    3    0    0 -0.24343335386E+02  0.33260106371E+02 -0.23557847428E+02  0.47474254384E+02  0.51100000000E-03 0. -1.
         22    1    1    0    0    0  0.15185399873E+02 -0.98424263837E+01 -0.20161280252E+02  0.27091455255E+02  0.00000000000E+00 0. -1.
</event>
<event>
 5    1  0.8778488E-005  0.9118800E+02  0.7818608E-02  0.1130116E+00
         25   -1    0    0    0    0  0.00000000000E+00  0.00000000000E+00  0.99999998245E-14  0.12500000000E+03  0.12500000000E+03 0.  0.
        -11    1    3    3    0    0 -0.25594589829E+02 -0.36314955969E+02 -0.39966501331E+02  0.59759353113E+02  0.51100000000E-03 0.  1.
         23    2    1    0    0    0 -0.22455287993E+02 -0.11950629067E+02 -0.12342341965E+02  0.96726498287E+02  0.92502024690E+02 0.  0.
         11    1    3    3    0    0  0.31393018358E+01  0.24364326901E+02  0.27624159366E+02  0.36967145174E+02  0.51100000000E-03 0. -1.
         22    1    1    0    0    0  0.22455287993E+02  0.11950629067E+02  0.12342341965E+02  0.28273501713E+02  0.00000000000E+00 0.  1.
</event>
<event>
 5    1  0.8778488E-005  0.9118800E+02  0.7818608E-02  0.1130116E+00
         25   -1    0    0    0    0  0.00000000000E+00  0.00000000000E+00  0.99999998245E-14  0.12500000000E+03  0.12500000000E+03 0.  0.
        -11    1    3    3    0    0 -0.28988658708E+02  0.15816472124E+02  0.79664452276E+01  0.33970095289E+02  0.51100000000E-03 0.  1.
         23    2    1    0    0    0  0.26905301438E+02  0.59726811230E+01 -0.13070196127E+02  0.94497570719E+02  0.89439324012E+02 0.  0.
         11    1    3    3    0    0  0.55893960146E+02 -0.98437910007E+01 -0.21036641354E+02  0.60527475429E+02  0.51100000000E-03 0. -1.
         22    1    1    0    0    0 -0.26905301438E+02 -0.59726811230E+01  0.13070196127E+02  0.30502429281E+02  0.00000000000E+00 0. -1.
</event>
<event>
 5    1  0.8778488E-005  0.9118800E+02  0.7818608E-02  0.1130116E+00
         25   -1    0    0    0    0  0.00000000000E+00  0.00000000000E+00  0.99999998245E-14  0.12500000000E+03  0.12500000000E+03 0.  0.
        -11    1    3    3    0    0  0.33622657276E+01  0.41059837469E+02  0.15856705504E+02  0.44143518137E+02  0.51100000000E-03 0. -1.
         23    2    1    0    0    0 -0.17718904532E+01 -0.94511444537E+01  0.27186076910E+02  0.96163451923E+02  0.91738012736E+02 0.  0.
         11    1    3    3    0    0 -0.51341561808E+01 -0.50510981922E+02  0.11329371405E+02  0.52019933786E+02  0.51100000000E-03 0.  1.
         22    1    1    0    0    0  0.17718904532E+01  0.94511444537E+01 -0.27186076910E+02  0.28836548077E+02  0.00000000000E+00 0.  1.
</event>
<event>
 5    1  0.8778488E-005  0.9118800E+02  0.7818608E-02  0.1130116E+00
         25   -1    0    0    0    0  0.00000000000E+00  0.00000000000E+00  0.99999998245E-14  0.12500000000E+03  0.12500000000E+03 0.  0.
        -11    1    3    3    0    0 -0.39444347892E+02 -0.20935929665E+02 -0.52058357614E+01  0.44958541545E+02  0.51100000000E-03 0.  1.
         23    2    1    0    0    0 -0.24867257439E+02  0.20079615684E+02 -0.15181165289E+02  0.89615833512E+02  0.82334430088E+02 0.  0.
         11    1    3    3    0    0  0.14577090454E+02  0.41015545349E+02 -0.99753295274E+01  0.44657291967E+02  0.51100000000E-03 0. -1.
         22    1    1    0    0    0  0.24867257439E+02 -0.20079615684E+02  0.15181165289E+02  0.35384166488E+02  0.00000000000E+00 0.  1.
</event>
<event>
 5    1  0.8778488E-005  0.9118800E+02  0.7818608E-02  0.1130116E+00
         25   -1    0    0    0    0  0.00000000000E+00  0.00000000000E+00  0.99999998245E-14  0.12500000000E+03  0.12500000000E+03 0.  0.
        -11    1    3    3    0    0 -0.85479847061E+01  0.47146393005E+02 -0.18124743008E+02  0.51228475727E+02  0.51100000000E-03 0. -1.
         23    2    1    0    0    0  0.21875899069E+02  0.14734876256E+02 -0.11707406456E+02  0.96142853498E+02  0.91709941525E+02 0.  0.
         11    1    3    3    0    0  0.30423883775E+02 -0.32411516749E+02  0.64173365520E+01  0.44914377771E+02  0.51100000000E-03 0.  1.
         22    1    1    0    0    0 -0.21875899069E+02 -0.14734876256E+02  0.11707406456E+02  0.28857146502E+02  0.00000000000E+00 0. -1.
</event>
<event>
 5    1  0.8778488E-005  0.9118800E+02  0.7818608E-02  0.1130116E+00
         25   -1    0    0    0    0  0.00000000000E+00  0.00000000000E+00  0.99999998245E-14  0.12500000000E+03  0.12500000000E+03 0.  0.
        -11    1    3    3    0    0 -0.16924491477E+02 -0.35207215677E+02 -0.47356065260E+02  0.61388788591E+02  0.51100000000E-03 0. -1.
         23    2    1    0    0    0 -0.34001742963E+01 -0.10953777790E+02 -0.26520654680E+02  0.96105509906E+02  0.91659028342E+02 0.  0.
         11    1    3    3    0    0  0.13524317181E+02  0.24253437888E+02  0.20835410580E+02  0.34716721315E+02  0.51100000000E-03 0.  1.
         22    1    1    0    0    0  0.34001742963E+01  0.10953777790E+02  0.26520654680E+02  0.28894490094E+02  0.00000000000E+00 0. -1.
</event>
<event>
 5    1  0.8778488E-005  0.9118800E+02  0.7818608E-02  0.1130116E+00
         25   -1    0    0    0    0  0.00000000000E+00  0.00000000000E+00  0.99999998245E-14  0.12500000000E+03  0.12500000000E+03 0.  0.
        -11    1    3    3    0    0 -0.16765095862E+02  0.39246908597E+02  0.31767658851E+01  0.42795795535E+02  0.51100000000E-03 0.  1.
         23    2    1    0    0    0 -0.16915398217E+02  0.11337778350E+01  0.30783347821E+02  0.89856997110E+02  0.82699753794E+02 0.  0.
         11    1    3    3    0    0 -0.15030235562E+00 -0.38113130762E+02  0.27606581936E+02  0.47061201576E+02  0.51100000000E-03 0. -1.
         22    1    1    0    0    0  0.16915398217E+02 -0.11337778350E+01 -0.30783347821E+02  0.35143002890E+02  0.00000000000E+00 0. -1.
</event>
<event>
 5    1  0.8778488E-005  0.9118800E+02  0.7818608E-02  0.1130116E+00
         25   -1    0    0    0    0  0.00000000000E+00  0.00000000000E+00  0.99999998245E-14  0.12500000000E+03  0.12500000000E+03 0.  0.
        -11    1    3    3    0    0  0.16839822053E+01 -0.41758503435E+02  0.31999487045E+02  0.52636257244E+02  0.51100000000E-03 0.  1.
         23    2    1    0    0    0 -0.94317568549E+01 -0.24188680081E+01  0.29882731496E+02  0.93570927448E+02  0.88134736977E+02 0.  0.
         11    1    3    3    0    0 -0.11115739060E+02  0.39339635427E+02 -0.21167555493E+01  0.40934670204E+02  0.51100000000E-03 0. -1.
         22    1    1    0    0    0  0.94317568549E+01  0.24188680081E+01 -0.29882731496E+02  0.31429072552E+02  0.00000000000E+00 0.  1.
</event>
<event>
 5    1  0.8778488E-005  0.9118800E+02  0.7818608E-02  0.1130116E+00
         25   -1    0    0    0    0  0.00000000000E+00  0.00000000000E+00  0.99999998245E-14  0.12500000000E+03  0.12500000000E+03 0.  0.
        -11    1    3    3    0    0 -0.53341589155E+02  0.17157218323E+02 -0.21855777559E+02  0.60144578202E+02  0.51100000000E-03 0.  1.
         23    2    1    0    0    0 -0.21088026995E+02  0.16971118704E+02 -0.23704366500E+01  0.97827537423E+02  0.93978105726E+02 0.  0.
         11    1    3    3    0    0  0.32253562160E+02 -0.18609961889E+00  0.19485340909E+02  0.37682959221E+02  0.51100000000E-03 0. -1.
         22    1    1    0    0    0  0.21088026995E+02 -0.16971118704E+02  0.23704366500E+01  0.27172462577E+02  0.00000000000E+00 0.  1.
</event>
<event>
 5    1  0.8778488E-005  0.9118800E+02  0.7818608E-02  0.1130116E+00
         25   -1    0    0    0    0  0.00000000000E+00  0.00000000000E+00  0.99999998245E-14  0.12500000000E+03  0.12500000000E+03 0.  0.
        -11    1    3    3    0    0 -0.10906033367E+02 -0.85631323937E+01 -0.35799270015E+02  0.38390839194E+02  0.51100000000E-03 0.  1.
         23    2    1    0    0    0 -0.21227559474E+02  0.31774119078E+01  0.19587774215E+02  0.95941677159E+02  0.91435328455E+02 0.  0.
         11    1    3    3    0    0 -0.10321526107E+02  0.11740544302E+02  0.55387044229E+02  0.57550837964E+02  0.51100000000E-03 0. -1.
         22    1    1    0    0    0  0.21227559474E+02 -0.31774119078E+01 -0.19587774215E+02  0.29058322841E+02  0.00000000000E+00 0. -1.
</event>
<event>
 5    1  0.8778488E-005  0.9118800E+02  0.7818608E-02  0.1130116E+00
         25   -1    0    0    0    0  0.00000000000E+00  0.00000000000E+00  0.99999998245E-14  0.12500000000E+03  0.12500000000E+03 0.  0.
        -11    1    3    3    0    0 -0.53376777550E+02 -0.20725932038E+02  0.13504827618E+02  0.58830476878E+02  0.51100000000E-03 0.  1.
         23    2    1    0    0    0 -0.22775366852E+02 -0.95331607252E+00  0.18548783725E+02  0.95611506938E+02  0.90982837582E+02 0.  0.
         11    1    3    3    0    0  0.30601410698E+02  0.19772615965E+02  0.50439561068E+01  0.36781030060E+02  0.51100000000E-03 0. -1.
         22    1    1    0    0    0  0.22775366852E+02  0.95331607252E+00 -0.18548783725E+02  0.29388493062E+02  0.00000000000E+00 0.  1.
</event>
<event>
 5    1  0.8778488E-005  0.9118800E+02  0.7818608E-02  0.1130116E+00
         25   -1    0    0    0    0  0.00000000000E+00  0.00000000000E+00  0.99999998245E-14  0.12500000000E+03  0.12500000000E+03 0.  0.
        -11    1    3    3    0    0  0.28142414219E+02  0.47888798603E+02  0.25516940272E+02  0.61126481584E+02  0.51100000000E-03 0.  1.
         23    2    1    0    0    0  0.37283538365E+01  0.21544265224E+02  0.14757960684E+02  0.98620966850E+02  0.95027583956E+02 0.  0.
         11    1    3    3    0    0 -0.24414060382E+02 -0.26344533379E+02 -0.10758979588E+02  0.37494485266E+02  0.51100000000E-03 0. -1.
         22    1    1    0    0    0 -0.37283538365E+01 -0.21544265224E+02 -0.14757960684E+02  0.26379033150E+02  0.00000000000E+00 0.  1.
</event>
<event>
 5    1  0.8778488E-005  0.9118800E+02  0.7818608E-02  0.1130116E+00
         25   -1    0    0    0    0  0.00000000000E+00  0.00000000000E+00  0.99999998245E-14  0.12500000000E+03  0.12500000000E+03 0.  0.
        -11    1    3    3    0    0  0.20328175882E+02  0.34198709021E+02  0.18683541353E+02  0.43952942463E+02  0.51100000000E-03 0. -1.
         23    2    1    0    0    0 -0.15254645083E+02 -0.30717418632E+01  0.24674182224E+02  0.95828865927E+02  0.91280975465E+02 0.  0.
         11    1    3    3    0    0 -0.35582820965E+02 -0.37270450884E+02  0.59906408708E+01  0.51875923464E+02  0.51100000000E-03 0.  1.
         22    1    1    0    0    0  0.15254645083E+02  0.30717418632E+01 -0.24674182224E+02  0.29171134073E+02  0.00000000000E+00 0.  1.
</event>
<event>
 5    1  0.8778488E-005  0.9118800E+02  0.7818608E-02  0.1130116E+00
         25   -1    0    0    0    0  0.00000000000E+00  0.00000000000E+00  0.99999998245E-14  0.12500000000E+03  0.12500000000E+03 0.  0.
        -11    1    3    3    0    0  0.10839455759E+02  0.95432886644E+01  0.18628375154E+02  0.23570840478E+02  0.51100000000E-03 0. -1.
         23    2    1    0    0    0 -0.34151372883E+02  0.44906973037E+01 -0.21773070542E+02  0.84250162787E+02  0.73739681968E+02 0.  0.
         11    1    3    3    0    0 -0.44990828642E+02 -0.50525913607E+01 -0.40401445696E+02  0.60679322309E+02  0.51100000000E-03 0.  1.
         22    1    1    0    0    0  0.34151372883E+02 -0.44906973037E+01  0.21773070542E+02  0.40749837213E+02  0.00000000000E+00 0.  1.
</event>
<event>
 5    1  0.8778488E-005  0.9118800E+02  0.7818608E-02  0.1130116E+00
         25   -1    0    0    0    0  0.00000000000E+00  0.00000000000E+00  0.99999998245E-14  0.12500000000E+03  0.12500000000E+03 0.  0.
        -11    1    3    3    0    0  0.29731883330E+02 -0.42503753947E+02  0.25555373767E+02  0.57824139549E+02  0.51100000000E-03 0.  1.
         23    2    1    0    0    0  0.27176067861E+02 -0.93729758961E+01  0.95408311300E+01  0.94711077929E+02  0.89737224619E+02 0.  0.
         11    1    3    3    0    0 -0.25558154693E+01  0.33130778051E+02 -0.16014542637E+02  0.36886938381E+02  0.51100000000E-03 0. -1.
         22    1    1    0    0    0 -0.27176067861E+02  0.93729758961E+01 -0.95408311300E+01  0.30288922071E+02  0.00000000000E+00 0.  1.
</event>
<event>
 5    1  0.8778488E-005  0.9118800E+02  0.7818608E-02  0.1130116E+00
         25   -1    0    0    0    0  0.00000000000E+00  0.00000000000E+00  0.99999998245E-14  0.12500000000E+03  0.12500000000E+03 0.  0.
        -11    1    3    3    0    0  0.27537868063E+02  0.37427160196E+01 -0.20056495626E+02  0.34272512567E+02  0.51100000000E-03 0.  1.
         23    2    1    0    0    0 -0.10809403768E+02 -0.16304098956E+01  0.27386957435E+02  0.95511919631E+02  0.90845912995E+02 0.  0.
         11    1    3    3    0    0 -0.38347271831E+02 -0.53731259152E+01  0.47443453061E+02  0.61239407064E+02  0.51100000000E-03 0. -1.
         22    1    1    0    0    0  0.10809403768E+02  0.16304098956E+01 -0.27386957435E+02  0.29488080369E+02  0.00000000000E+00 0. -1.
</event>
<event>
 5    1  0.8778488E-005  0.9118800E+02  0.7818608E-02  0.1130116E+00
         25   -1    0    0    0    0  0.00000000000E+00  0.00000000000E+00  0.99999998245E-14  0.12500000000E+03  0.12500000000E+03 0.  0.
        -11    1    3    3    0    0 -0.13729671112E+02  0.40578078875E+02 -0.44856895517E+02  0.62026006075E+02  0.51100000000E-03 0.  1.
         23    2    1    0    0    0 -0.49665583735E+01  0.91338538779E+01 -0.17629077399E+02  0.10453348201E+03  0.10251034339E+03 0.  0.
         11    1    3    3    0    0  0.87631127381E+01 -0.31444224997E+02  0.27227818118E+02  0.42507475933E+02  0.51100000000E-03 0. -1.
         22    1    1    0    0    0  0.49665583735E+01 -0.91338538779E+01  0.17629077399E+02  0.20466517991E+02  0.00000000000E+00 0.  1.
</event>
<event>
 5    1  0.8778488E-005  0.9118800E+02  0.7818608E-02  0.1130116E+00
         25   -1    0    0    0    0  0.00000000000E+00  0.00000000000E+00  0.99999998245E-14  0.12500000000E+03  0.12500000000E+03 0.  0.
        -11    1    3    3    0    0 -0.20748770482E+02 -0.43526509722E+01  0.51973790893E+02  0.56131381482E+02  0.51100000000E-03 0.  1.
         23    2    1    0    0    0 -0.18981804168E+02  0.14970877539E+02  0.19588204888E+02  0.93885150901E+02  0.88579273677E+02 0.  0.
         11    1    3    3    0    0  0.17669663148E+01  0.19323528512E+02 -0.32385586006E+02  0.37753769418E+02  0.51100000000E-03 0. -1.
         22    1    1    0    0    0  0.18981804168E+02 -0.14970877539E+02 -0.19588204888E+02  0.31114849099E+02  0.00000000000E+00 0.  1.
</event>
<event>
 5    1  0.8778488E-005  0.9118800E+02  0.7818608E-02  0.1130116E+00
         25   -1    0    0    0    0  0.00000000000E+00  0.00000000000E+00  0.99999998245E-14  0.12500000000E+03  0.12500000000E+03 0.  0.
        -11    1    3    3    0    0  0.27666034576E+02  0.44608039716E+01  0.24820948356E+02  0.37435113447E+02  0.51100000000E-03 0.  1.
         23    2    1    0    0    0  0.18413472436E+02 -0.25159802991E+02 -0.16981758056E+02  0.89497158419E+02  0.82154060184E+02 0.  0.
         11    1    3    3    0    0 -0.92525621405E+01 -0.29620606963E+02 -0.41802706412E+02  0.52062044971E+02  0.51100000000E-03 0. -1.
         22    1    1    0    0    0 -0.18413472436E+02  0.25159802991E+02  0.16981758056E+02  0.35502841581E+02  0.00000000000E+00 0. -1.
</event>
<event>
 5    1  0.8778488E-005  0.9118800E+02  0.7818608E-02  0.1130116E+00
         25   -1    0    0    0    0  0.00000000000E+00  0.00000000000E+00  0.99999998245E-14  0.12500000000E+03  0.12500000000E+03 0.  0.
        -11    1    3    3    0    0  0.23761552075E+02 -0.13904467812E+02  0.25882588265E+02  0.37786954861E+02  0.51100000000E-03 0. -1.
         23    2    1    0    0    0  0.77156898301E+01 -0.28151231536E-01 -0.28137871697E+02  0.95823425737E+02  0.91273525375E+02 0.  0.
         11    1    3    3    0    0 -0.16045862245E+02  0.13876316580E+02 -0.54020459962E+02  0.58036470876E+02  0.51100000000E-03 0.  1.
         22    1    1    0    0    0 -0.77156898301E+01  0.28151231536E-01  0.28137871697E+02  0.29176574263E+02  0.00000000000E+00 0.  1.
</event>
<event>
 5    1  0.8778488E-005  0.9118800E+02  0.7818608E-02  0.1130116E+00
         25   -1    0    0    0    0  0.00000000000E+00  0.00000000000E+00  0.99999998245E-14  0.12500000000E+03  0.12500000000E+03 0.  0.
        -11    1    3    3    0    0  0.32542466571E+02  0.32109974123E+02 -0.37065578284E+02  0.58855073379E+02  0.51100000000E-03 0.  1.
         23    2    1    0    0    0  0.24933119744E+02  0.11871706477E+02 -0.59404954132E+01  0.96753099983E+02  0.92537965159E+02 0.  0.
         11    1    3    3    0    0 -0.76093468276E+01 -0.20238267646E+02  0.31125082871E+02  0.37898026603E+02  0.51100000000E-03 0. -1.
         22    1    1    0    0    0 -0.24933119744E+02 -0.11871706477E+02  0.59404954132E+01  0.28246900017E+02  0.00000000000E+00 0.  1.
</event>
<event>
 5    1  0.8778488E-005  0.9118800E+02  0.7818608E-02  0.1130116E+00
         25   -1    0    0    0    0  0.00000000000E+00  0.00000000000E+00  0.99999998245E-14  0.12500000000E+03  0.12500000000E+03 0.  0.
        -11    1    3    3    0    0  0.44195196722E+01 -0.34601329470E+02  0.32987595647E+02  0.48010057510E+02  0.51100000000E-03 0. -1.
         23    2    1    0    0    0 -0.25324037521E+02 -0.12244090246E+02  0.13706054969E+01  0.96837912333E+02  0.92652458593E+02 0.  0.
         11    1    3    3    0    0 -0.29743557193E+02  0.22357239225E+02 -0.31616990150E+02  0.48827854824E+02  0.51100000000E-03 0.  1.
         22    1    1    0    0    0  0.25324037521E+02  0.12244090246E+02 -0.13706054969E+01  0.28162087667E+02  0.00000000000E+00 0. -1.
</event>
<event>
 5    1  0.8778488E-005  0.9118800E+02  0.7818608E-02  0.1130116E+00
         25   -1    0    0    0    0  0.00000000000E+00  0.00000000000E+00  0.99999998245E-14  0.12500000000E+03  0.12500000000E+03 0.  0.
        -11    1    3    3    0    0  0.24395416820E+02  0.33689691112E+02  0.21998603283E+02  0.47053907337E+02  0.51100000000E-03 0. -1.
         23    2    1    0    0    0 -0.13235543826E+02  0.24646347315E+02 -0.78667352977E+01  0.95939587398E+02  0.91432471527E+02 0.  0.
         11    1    3    3    0    0 -0.37630960647E+02 -0.90433437974E+01 -0.29865338581E+02  0.48885680061E+02  0.51100000000E-03 0.  1.
         22    1    1    0    0    0  0.13235543826E+02 -0.24646347315E+02  0.78667352977E+01  0.29060412602E+02  0.00000000000E+00 0.  1.
</event>
<event>
 5    1  0.8778488E-005  0.9118800E+02  0.7818608E-02  0.1130116E+00
         25   -1    0    0    0    0  0.00000000000E+00  0.00000000000E+00  0.99999998245E-14  0.12500000000E+03  0.12500000000E+03 0.  0.
        -11    1    3    3    0    0 -0.54803403135E+02  0.12101432692E+02 -0.25598435441E+02  0.61685797115E+02  0.51100000000E-03 0. -1.
         23    2    1    0    0    0 -0.22055960331E+02  0.93855265841E+01 -0.16881192770E+02  0.95682289231E+02  0.91080032432E+02 0.  0.
         11    1    3    3    0    0  0.32747442804E+02 -0.27159061074E+01  0.87172426709E+01  0.33996492117E+02  0.51100000000E-03 0.  1.
         22    1    1    0    0    0  0.22055960331E+02 -0.93855265841E+01  0.16881192770E+02  0.29317710769E+02  0.00000000000E+00 0. -1.
</event>
<event>
 5    1  0.8778488E-005  0.9118800E+02  0.7818608E-02  0.1130116E+00
         25   -1    0    0    0    0  0.00000000000E+00  0.00000000000E+00  0.99999998245E-14  0.12500000000E+03  0.12500000000E+03 0.  0.
        -11    1    3    3    0    0 -0.31552840568E+02  0.48443478948E+02 -0.40018315283E+01  0.57951419796E+02  0.51100000000E-03 0.  1.
         23    2    1    0    0    0 -0.17077466263E+02  0.19003375544E+02  0.14507562924E+02  0.95619096031E+02  0.90993263530E+02 0.  0.
         11    1    3    3    0    0  0.14475374305E+02 -0.29440103404E+02  0.18509394452E+02  0.37667676235E+02  0.51100000000E-03 0. -1.
         22    1    1    0    0    0  0.17077466263E+02 -0.19003375544E+02 -0.14507562924E+02  0.29380903969E+02  0.00000000000E+00 0.  1.
</event>
<event>
 5    1  0.8778488E-005  0.9118800E+02  0.7818608E-02  0.1130116E+00
         25   -1    0    0    0    0  0.00000000000E+00  0.00000000000E+00  0.99999998245E-14  0.12500000000E+03  0.12500000000E+03 0.  0.
        -11    1    3    3    0    0 -0.20436834056E+02  0.35765118331E+02  0.13238922055E+02  0.43267504352E+02  0.51100000000E-03 0.  1.
         23    2    1    0    0    0 -0.29243067792E+02 -0.11050900901E+02 -0.29965822322E+01  0.93595240334E+02  0.88169212787E+02 0.  0.
         11    1    3    3    0    0 -0.88062337356E+01 -0.46816019232E+02 -0.16235504287E+02  0.50327735982E+02  0.51100000000E-03 0. -1.
         22    1    1    0    0    0  0.29243067792E+02  0.11050900901E+02  0.29965822322E+01  0.31404759666E+02  0.00000000000E+00 0.  1.
</event>
<event>
 5    1  0.8778488E-005  0.9118800E+02  0.7818608E-02  0.1130116E+00
         25   -1    0    0    0    0  0.00000000000E+00  0.00000000000E+00  0.99999998245E-14  0.12500000000E+03  0.12500000000E+03 0.  0.
        -11    1    3    3    0    0 -0.19797925956E+02  0.16533542552E+02 -0.45040681056E+02  0.51903553363E+02  0.51100000000E-03 0.  1.
         23    2    1    0    0    0 -0.29515492777E+02 -0.32986832435E+00 -0.69547159307E+01  0.94674413432E+02  0.89686138049E+02 0.  0.
         11    1    3    3    0    0 -0.97175668208E+01 -0.16863410876E+02  0.38085965125E+02  0.42770860069E+02  0.51100000000E-03 0. -1.
         22    1    1    0    0    0  0.29515492777E+02  0.32986832435E+00  0.69547159307E+01  0.30325586568E+02  0.00000000000E+00 0.  1.
</event>
<event>
 5    1  0.8778488E-005  0.9118800E+02  0.7818608E-02  0.1130116E+00
         25   -1    0    0    0    0  0.00000000000E+00  0.00000000000E+00  0.99999998245E-14  0.12500000000E+03  0.12500000000E+03 0.  0.
        -11    1    3    3    0    0  0.27206574896E+02 -0.22111569346E+02 -0.75683706977E+01  0.35866411192E+02  0.51100000000E-03 0.  1.
         23    2    1    0    0    0 -0.13177668765E+02  0.12283969092E+02  0.21974482015E+02  0.96584780301E+02  0.92310319440E+02 0.  0.
         11    1    3    3    0    0 -0.40384243661E+02  0.34395538438E+02  0.29542852713E+02  0.60718369109E+02  0.51100000000E-03 0. -1.
         22    1    1    0    0    0  0.13177668765E+02 -0.12283969092E+02 -0.21974482015E+02  0.28415219699E+02  0.00000000000E+00 0. -1.
</event>
<event>
 5    1  0.8778488E-005  0.9118800E+02  0.7818608E-02  0.1130116E+00
         25   -1    0    0    0    0  0.00000000000E+00  0.00000000000E+00  0.99999998245E-14  0.12500000000E+03  0.12500000000E+03 0.  0.
        -11    1    3    3    0    0 -0.18960178061E+02  0.41565257314E+02  0.25359470782E+02  0.52251906437E+02  0.51100000000E-03 0.  1.
         23    2    1    0    0    0  0.12501685053E+02  0.12273402628E+02  0.24033126259E+02  0.95259124105E+02  0.90497408947E+02 0.  0.
         11    1    3    3    0    0  0.31461863113E+02 -0.29291854686E+02 -0.13263445232E+01  0.43007217668E+02  0.51100000000E-03 0. -1.
         22    1    1    0    0    0 -0.12501685053E+02 -0.12273402628E+02 -0.24033126259E+02  0.29740875895E+02  0.00000000000E+00 0.  1.
</event>
<event>
 5    1  0.8778488E-005  0.9118800E+02  0.7818608E-02  0.1130116E+00
         25   -1    0    0    0    0  0.00000000000E+00  0.00000000000E+00  0.99999998245E-14  0.12500000000E+03  0.12500000000E+03 0.  0.
        -11    1    3    3    0    0 -0.15960611231E+02 -0.26787782698E+02  0.28933886977E+02  0.42538173781E+02  0.51100000000E-03 0.  1.
         23    2    1    0    0    0  0.65901377147E+01  0.20835826605E+02  0.18748471687E+02  0.96206480312E+02  0.91796623457E+02 0.  0.
         11    1    3    3    0    0  0.22550748946E+02  0.47623609303E+02 -0.10185415289E+02  0.53668306532E+02  0.51100000000E-03 0. -1.
         22    1    1    0    0    0 -0.65901377147E+01 -0.20835826605E+02 -0.18748471687E+02  0.28793519688E+02  0.00000000000E+00 0.  1.
</event>
<event>
 5    1  0.8778488E-005  0.9118800E+02  0.7818608E-02  0.1130116E+00
         25   -1    0    0    0    0  0.00000000000E+00  0.00000000000E+00  0.99999998245E-14  0.12500000000E+03  0.12500000000E+03 0.  0.
        -11    1    3    3    0    0 -0.42488634745E+02  0.25504599482E+02  0.45865611450E+01  0.49767511699E+02  0.51100000000E-03 0. -1.
         23    2    1    0    0    0 -0.36678435819E+01  0.15272909139E+02 -0.22035893148E+02  0.97939042572E+02  0.94126301547E+02 0.  0.
         11    1    3    3    0    0  0.38820791163E+02 -0.10231690343E+02 -0.26622454293E+02  0.48171530873E+02  0.51100000000E-03 0.  1.
         22    1    1    0    0    0  0.36678435819E+01 -0.15272909139E+02  0.22035893148E+02  0.27060957428E+02  0.00000000000E+00 0. -1.
</event>
<event>
 5    1  0.8778488E-005  0.9118800E+02  0.7818608E-02  0.1130116E+00
         25   -1    0    0    0    0  0.00000000000E+00  0.00000000000E+00  0.99999998245E-14  0.12500000000E+03  0.12500000000E+03 0.  0.
        -11    1    3    3    0    0  0.11499183529E+01  0.42551981898E+02 -0.30852344181E+02  0.52572432105E+02  0.51100000000E-03 0.  1.
         23    2    1    0    0    0  0.24070366816E+02  0.16715425479E+02 -0.60932932787E+01  0.95068140208E+02  0.90233225877E+02 0.  0.
         11    1    3    3    0    0  0.22920448463E+02 -0.25836556419E+02  0.24759050903E+02  0.42495708103E+02  0.51100000000E-03 0. -1.
         22    1    1    0    0    0 -0.24070366816E+02 -0.16715425479E+02  0.60932932787E+01  0.29931859792E+02  0.00000000000E+00 0.  1.
</event>
<event>
 5    1  0.8778488E-005  0.9118800E+02  0.7818608E-02  0.1130116E+00
         25   -1    0    0    0    0  0.00000000000E+00  0.00000000000E+00  0.99999998245E-14  0.12500000000E+03  0.12500000000E+03 0.  0.
        -11    1    3    3    0    0 -0.43667862301E+02  0.39481114104E+02 -0.46522855588E+01  0.59053233019E+02  0.51100000000E-03 0. -1.
         23    2    1    0    0    0 -0.27446612927E+02  0.76235034900E+01 -0.91410318104E+01  0.95083569244E+02  0.90254597173E+02 0.  0.
         11    1    3    3    0    0  0.16221249373E+02 -0.31857610614E+02 -0.44887462516E+01  0.36030336225E+02  0.51100000000E-03 0.  1.
         22    1    1    0    0    0  0.27446612927E+02 -0.76235034900E+01  0.91410318104E+01  0.29916430756E+02  0.00000000000E+00 0. -1.
</event>
<event>
 5    1  0.8778488E-005  0.9118800E+02  0.7818608E-02  0.1130116E+00
         25   -1    0    0    0    0  0.00000000000E+00  0.00000000000E+00  0.99999998245E-14  0.12500000000E+03  0.12500000000E+03 0.  0.
        -11    1    3    3    0    0 -0.49013704971E+02 -0.35455402139E+02  0.13750012824E+02  0.62036212560E+02  0.51100000000E-03 0.  1.
         23    2    1    0    0    0 -0.25175485518E+02 -0.12554405906E+02  0.91860642687E+01  0.95406048667E+02  0.90700122199E+02 0.  0.
         11    1    3    3    0    0  0.23838219453E+02  0.22900996233E+02 -0.45639485557E+01  0.33369836108E+02  0.51100000000E-03 0. -1.
         22    1    1    0    0    0  0.25175485518E+02  0.12554405906E+02 -0.91860642687E+01  0.29593951333E+02  0.00000000000E+00 0.  1.
</event>
<event>
 5    1  0.8778488E-005  0.9118800E+02  0.7818608E-02  0.1130116E+00
         25   -1    0    0    0    0  0.00000000000E+00  0.00000000000E+00  0.99999998245E-14  0.12500000000E+03  0.12500000000E+03 0.  0.
        -11    1    3    3    0    0  0.80798646535E+00  0.44826368059E+02 -0.34409650176E+02  0.56516193617E+02  0.51100000000E-03 0. -1.
         23    2    1    0    0    0  0.17079861771E+02  0.11593824973E+02 -0.20095761775E+02  0.96190659554E+02  0.91775077709E+02 0.  0.
         11    1    3    3    0    0  0.16271875306E+02 -0.33232543086E+02  0.14313888401E+02  0.39674465937E+02  0.51100000000E-03 0.  1.
         22    1    1    0    0    0 -0.17079861771E+02 -0.11593824973E+02  0.20095761775E+02  0.28809340446E+02  0.00000000000E+00 0. -1.
</event>
<event>
 5    1  0.8778488E-005  0.9118800E+02  0.7818608E-02  0.1130116E+00
         25   -1    0    0    0    0  0.00000000000E+00  0.00000000000E+00  0.99999998245E-14  0.12500000000E+03  0.12500000000E+03 0.  0.
        -11    1    3    3    0    0  0.21930493108E+02  0.52692286909E+02  0.12707127793E+02  0.58471315401E+02  0.51100000000E-03 0.  1.
         23    2    1    0    0    0  0.14257975591E+02  0.18145219610E+02 -0.92721339560E+01  0.10013011197E+03  0.96992412032E+02 0.  0.
         11    1    3    3    0    0 -0.76725175177E+01 -0.34547067299E+02 -0.21979261749E+02  0.41658796566E+02  0.51100000000E-03 0. -1.
         22    1    1    0    0    0 -0.14257975591E+02 -0.18145219610E+02  0.92721339560E+01  0.24869888033E+02  0.00000000000E+00 0.  1.
</event>
<event>
 5    1  0.8778488E-005  0.9118800E+02  0.7818608E-02  0.1130116E+00
         25   -1    0    0    0    0  0.00000000000E+00  0.00000000000E+00  0.99999998245E-14  0.12500000000E+03  0.12500000000E+03 0.  0.
        -11    1    3    3    0    0  0.50995985575E+02  0.13812393253E+02 -0.22289179245E+02  0.57342656582E+02  0.51100000000E-03 0.  1.
         23    2    1    0    0    0  0.27163921899E+02 -0.99543152419E+01 -0.35843680306E+01  0.95848417898E+02  0.91307745973E+02 0.  0.
         11    1    3    3    0    0 -0.23832063677E+02 -0.23766708495E+02  0.18704811214E+02  0.38505761317E+02  0.51100000000E-03 0. -1.
         22    1    1    0    0    0 -0.27163921899E+02  0.99543152419E+01  0.35843680306E+01  0.29151582102E+02  0.00000000000E+00 0.  1.
</event>
<event>
 5    1  0.8778488E-005  0.9118800E+02  0.7818608E-02  0.1130116E+00
         25   -1    0    0    0    0  0.00000000000E+00  0.00000000000E+00  0.99999998245E-14  0.12500000000E+03  0.12500000000E+03 0.  0.
        -11    1    3    3    0    0  0.22833712696E+02  0.26599441272E+02 -0.48999954796E+02  0.60248686971E+02  0.51100000000E-03 0.  1.
         23    2    1    0    0    0  0.18793689794E+01  0.73066789723E+01 -0.28955090882E+02  0.95078153912E+02  0.90247096784E+02 0.  0.
         11    1    3    3    0    0 -0.20954343717E+02 -0.19292762300E+02  0.20044863914E+02  0.34829466940E+02  0.51100000000E-03 0. -1.
         22    1    1    0    0    0 -0.18793689794E+01 -0.73066789723E+01  0.28955090882E+02  0.29921846088E+02  0.00000000000E+00 0.  1.
</event>
<event>
 5    1  0.8778488E-005  0.9118800E+02  0.7818608E-02  0.1130116E+00
         25   -1    0    0    0    0  0.00000000000E+00  0.00000000000E+00  0.99999998245E-14  0.12500000000E+03  0.12500000000E+03 0.  0.
        -11    1    3    3    0    0  0.12799782312E+02 -0.14630072832E+01 -0.36455720092E+02  0.38665156734E+02  0.51100000000E-03 0. -1.
         23    2    1    0    0    0  0.35751953672E+01  0.17912099592E+02  0.19311646886E+02  0.98418708851E+02  0.94761158777E+02 0.  0.
         11    1    3    3    0    0 -0.92245869452E+01  0.19375106875E+02  0.55767366978E+02  0.59753552117E+02  0.51100000000E-03 0.  1.
         22    1    1    0    0    0 -0.35751953672E+01 -0.17912099592E+02 -0.19311646886E+02  0.26581291149E+02  0.00000000000E+00 0.  1.
</event>
<event>
 5    1  0.8778488E-005  0.9118800E+02  0.7818608E-02  0.1130116E+00
         25   -1    0    0    0    0  0.00000000000E+00  0.00000000000E+00  0.99999998245E-14  0.12500000000E+03  0.12500000000E+03 0.  0.
        -11    1    3    3    0    0 -0.23318167320E+02  0.50502610780E+02  0.21381336367E+02  0.59593725910E+02  0.51100000000E-03 0.  1.
         23    2    1    0    0    0 -0.14265936206E+02  0.25250815467E+02 -0.29995860230E+01  0.95843214617E+02  0.91300622420E+02 0.  0.
         11    1    3    3    0    0  0.90522311137E+01 -0.25251795313E+02 -0.24380922390E+02  0.36249488707E+02  0.51100000000E-03 0. -1.
         22    1    1    0    0    0  0.14265936206E+02 -0.25250815467E+02  0.29995860230E+01  0.29156785383E+02  0.00000000000E+00 0.  1.
</event>
<event>
 5    1  0.8778488E-005  0.9118800E+02  0.7818608E-02  0.1130116E+00
         25   -1    0    0    0    0  0.00000000000E+00  0.00000000000E+00  0.99999998245E-14  0.12500000000E+03  0.12500000000E+03 0.  0.
        -11    1    3    3    0    0 -0.29886779502E+02  0.50111717089E+01 -0.14325953479E+02  0.33519611786E+02  0.51100000000E-03 0.  1.
         23    2    1    0    0    0 -0.10137021773E+02 -0.34041952291E+02  0.15256247283E+02  0.86342959149E+02  0.77205827418E+02 0.  0.
         11    1    3    3    0    0  0.19749757729E+02 -0.39053124000E+02  0.29582200762E+02  0.52823347364E+02  0.51100000000E-03 0. -1.
         22    1    1    0    0    0  0.10137021773E+02  0.34041952291E+02 -0.15256247283E+02  0.38657040851E+02  0.00000000000E+00 0. -1.
</event>
<event>
 5    1  0.8778488E-005  0.9118800E+02  0.7818608E-02  0.1130116E+00
         25   -1    0    0    0    0  0.00000000000E+00  0.00000000000E+00  0.99999998245E-14  0.12500000000E+03  0.12500000000E+03 0.  0.
        -11    1    3    3    0    0  0.10274664877E+02 -0.80501290096E+01  0.36249988883E+02  0.38528366299E+02  0.51100000000E-03 0.  1.
         23    2    1    0    0    0 -0.23951453681E+02 -0.13040439811E+02 -0.97120882946E+01  0.96050909117E+02  0.91584536245E+02 0.  0.
         11    1    3    3    0    0 -0.34226118559E+02 -0.49903108013E+01 -0.45962077178E+02  0.57522542818E+02  0.51100000000E-03 0. -1.
         22    1    1    0    0    0  0.23951453681E+02  0.13040439811E+02  0.97120882946E+01  0.28949090883E+02  0.00000000000E+00 0.  1.
</event>
<event>
 5    1  0.8778488E-005  0.9118800E+02  0.7818608E-02  0.1130116E+00
         25   -1    0    0    0    0  0.00000000000E+00  0.00000000000E+00  0.99999998245E-14  0.12500000000E+03  0.12500000000E+03 0.  0.
        -11    1    3    3    0    0 -0.19357145805E+02  0.11570425996E+02 -0.26026396792E+02  0.34437583854E+02  0.51100000000E-03 0.  1.
         23    2    1    0    0    0  0.43219305561E+01 -0.37295087289E+01  0.28560446501E+02  0.95874625781E+02  0.91343617430E+02 0.  0.
         11    1    3    3    0    0  0.23679076361E+02 -0.15299934725E+02  0.54586843293E+02  0.61437041927E+02  0.51100000000E-03 0. -1.
         22    1    1    0    0    0 -0.43219305561E+01  0.37295087289E+01 -0.28560446501E+02  0.29125374219E+02  0.00000000000E+00 0. -1.
</event>
<event>
 5    1  0.8778488E-005  0.9118800E+02  0.7818608E-02  0.1130116E+00
         25   -1    0    0    0    0  0.00000000000E+00  0.00000000000E+00  0.99999998245E-14  0.12500000000E+03  0.12500000000E+03 0.  0.
        -11    1    3    3    0    0 -0.13853833211E+02 -0.43501110363E+02 -0.36425108888E+02  0.58404313670E+02  0.51100000000E-03 0.  1.
         23    2    1    0    0    0 -0.18869516378E+02 -0.22894291859E+02 -0.72758566809E+01  0.94452572310E+02  0.89376412311E+02 0.  0.
         11    1    3    3    0    0 -0.50156831664E+01  0.20606818504E+02  0.29149252207E+02  0.36048258640E+02  0.51100000000E-03 0. -1.
         22    1    1    0    0    0  0.18869516378E+02  0.22894291859E+02  0.72758566809E+01  0.30547427690E+02  0.00000000000E+00 0.  1.
</event>
<event>
 5    1  0.8778488E-005  0.9118800E+02  0.7818608E-02  0.1130116E+00
         25   -1    0    0    0    0  0.00000000000E+00  0.00000000000E+00  0.99999998245E-14  0.12500000000E+03  0.12500000000E+03 0.  0.
        -11    1    3    3    0    0 -0.85507220220E+01  0.58988872383E+02  0.12868176581E+02  0.60978618227E+02  0.51100000000E-03 0. -1.
         23    2    1    0    0    0  0.53640429820E+01  0.26906084037E+02  0.88150229110E+01  0.96183078855E+02  0.91764752023E+02 0.  0.
         11    1    3    3    0    0  0.13914765004E+02 -0.32082788346E+02 -0.40531536701E+01  0.35204460628E+02  0.51100000000E-03 0.  1.
         22    1    1    0    0    0 -0.53640429820E+01 -0.26906084037E+02 -0.88150229110E+01  0.28816921145E+02  0.00000000000E+00 0. -1.
</event>
<event>
 5    1  0.8778488E-005  0.9118800E+02  0.7818608E-02  0.1130116E+00
         25   -1    0    0    0    0  0.00000000000E+00  0.00000000000E+00  0.99999998245E-14  0.12500000000E+03  0.12500000000E+03 0.  0.
        -11    1    3    3    0    0 -0.49433066264E+02 -0.14578358192E+02 -0.33623439345E+01  0.51647477430E+02  0.51100000000E-03 0.  1.
         23    2    1    0    0    0 -0.30054235151E+02 -0.13884264192E+02  0.23228257998E+02  0.84557673011E+02  0.74259129087E+02 0.  0.
         11    1    3    3    0    0  0.19378831113E+02  0.69409399979E+00  0.26590601932E+02  0.32910195581E+02  0.51100000000E-03 0. -1.
         22    1    1    0    0    0  0.30054235151E+02  0.13884264192E+02 -0.23228257998E+02  0.40442326989E+02  0.00000000000E+00 0.  1.
</event>
<event>
 5    1  0.8778488E-005  0.9118800E+02  0.7818608E-02  0.1130116E+00
         25   -1    0    0    0    0  0.00000000000E+00  0.00000000000E+00  0.99999998245E-14  0.12500000000E+03  0.12500000000E+03 0.  0.
        -11    1    3    3    0    0 -0.38316135168E+02  0.36967461846E+02  0.12257344800E+02  0.54634805311E+02  0.51100000000E-03 0. -1.
         23    2    1    0    0    0 -0.23556195265E+02  0.10386346301E+02 -0.14773885076E+02  0.95317712267E+02  0.90578297989E+02 0.  0.
         11    1    3    3    0    0  0.14759939903E+02 -0.26581115545E+02 -0.27031229875E+02  0.40682906956E+02  0.51100000000E-03 0.  1.
         22    1    1    0    0    0  0.23556195265E+02 -0.10386346301E+02  0.14773885076E+02  0.29682287733E+02  0.00000000000E+00 0.  1.
</event>
<event>
 5    1  0.8778488E-005  0.9118800E+02  0.7818608E-02  0.1130116E+00
         25   -1    0    0    0    0  0.00000000000E+00  0.00000000000E+00  0.99999998245E-14  0.12500000000E+03  0.12500000000E+03 0.  0.
        -11    1    3    3    0    0  0.46194624595E+02 -0.27849882642E+02 -0.60146457892E+01  0.54274628224E+02  0.51100000000E-03 0.  1.
         23    2    1    0    0    0  0.69980374100E+01 -0.30394046353E+02 -0.24926811217E+01  0.93711279341E+02  0.88333571394E+02 0.  0.
         11    1    3    3    0    0 -0.39196587185E+02 -0.25441637115E+01  0.35219646675E+01  0.39436651117E+02  0.51100000000E-03 0. -1.
         22    1    1    0    0    0 -0.69980374100E+01  0.30394046353E+02  0.24926811217E+01  0.31288720659E+02  0.00000000000E+00 0.  1.
</event>
<event>
 5    1  0.8778488E-005  0.9118800E+02  0.7818608E-02  0.1130116E+00
         25   -1    0    0    0    0  0.00000000000E+00  0.00000000000E+00  0.99999998245E-14  0.12500000000E+03  0.12500000000E+03 0.  0.
        -11    1    3    3    0    0  0.55641248521E+02 -0.20235322346E+02  0.30496218869E+01  0.59285048716E+02  0.51100000000E-03 0.  1.
         23    2    1    0    0    0  0.20600100903E+02 -0.21316520320E+02 -0.41280422421E+01  0.95070099758E+02  0.90235940397E+02 0.  0.
         11    1    3    3    0    0 -0.35041147617E+02 -0.10811979737E+01 -0.71776641291E+01  0.35785051041E+02  0.51100000000E-03 0. -1.
         22    1    1    0    0    0 -0.20600100903E+02  0.21316520320E+02  0.41280422421E+01  0.29929900242E+02  0.00000000000E+00 0.  1.
</event>
<event>
 5    1  0.8778488E-005  0.9118800E+02  0.7818608E-02  0.1130116E+00
         25   -1    0    0    0    0  0.00000000000E+00  0.00000000000E+00  0.99999998245E-14  0.12500000000E+03  0.12500000000E+03 0.  0.
        -11    1    3    3    0    0 -0.41013704686E+02  0.26491326529E+02 -0.44498485702E+01  0.49027701413E+02  0.51100000000E-03 0.  1.
         23    2    1    0    0    0 -0.46924930331E+02  0.11076154746E+02  0.14968216904E+02  0.74515568659E+02  0.54807774675E+02 0.  0.
         11    1    3    3    0    0 -0.59112256454E+01 -0.15415171783E+02  0.19418065474E+02  0.25487867246E+02  0.51100000000E-03 0. -1.
         22    1    1    0    0    0  0.46924930331E+02 -0.11076154746E+02 -0.14968216904E+02  0.50484431341E+02  0.00000000000E+00 0.  1.
</event>
<event>
 5    1  0.8778488E-005  0.9118800E+02  0.7818608E-02  0.1130116E+00
         25   -1    0    0    0    0  0.00000000000E+00  0.00000000000E+00  0.99999998245E-14  0.12500000000E+03  0.12500000000E+03 0.  0.
        -11    1    3    3    0    0  0.32651640486E+02  0.60895075344E+01  0.77074520641E+01  0.34097163314E+02  0.51100000000E-03 0.  1.
         23    2    1    0    0    0 -0.23295308629E+02  0.39100648003E+01 -0.17602433494E+02  0.95541458356E+02  0.90886547899E+02 0.  0.
         11    1    3    3    0    0 -0.55946949116E+02 -0.21794427341E+01 -0.25309885558E+02  0.61444295042E+02  0.51100000000E-03 0. -1.
         22    1    1    0    0    0  0.23295308629E+02 -0.39100648003E+01  0.17602433494E+02  0.29458541644E+02  0.00000000000E+00 0. -1.
</event>
<event>
 5    1  0.8778488E-005  0.9118800E+02  0.7818608E-02  0.1130116E+00
         25   -1    0    0    0    0  0.00000000000E+00  0.00000000000E+00  0.99999998245E-14  0.12500000000E+03  0.12500000000E+03 0.  0.
        -11    1    3    3    0    0 -0.16490716860E+02 -0.50297913132E+02 -0.75583356988E+01  0.53469170994E+02  0.51100000000E-03 0.  1.
         23    2    1    0    0    0 -0.25861744624E+02 -0.12825946943E+02  0.78959906751E+01  0.95072062906E+02  0.90238659822E+02 0.  0.
         11    1    3    3    0    0 -0.93710277645E+01  0.37471966190E+02  0.15454326374E+02  0.41602891912E+02  0.51100000000E-03 0. -1.
         22    1    1    0    0    0  0.25861744624E+02  0.12825946943E+02 -0.78959906751E+01  0.29927937094E+02  0.00000000000E+00 0. -1.
</event>
<event>
 5    1  0.8778488E-005  0.9118800E+02  0.7818608E-02  0.1130116E+00
         25   -1    0    0    0    0  0.00000000000E+00  0.00000000000E+00  0.99999998245E-14  0.12500000000E+03  0.12500000000E+03 0.  0.
        -11    1    3    3    0    0  0.37820207839E+02 -0.96842628893E+01  0.28941907180E+02  0.48598220750E+02  0.51100000000E-03 0. -1.
         23    2    1    0    0    0 -0.59096768060E+01 -0.21637041294E+02  0.20299093864E+02  0.94748734777E+02  0.89789663627E+02 0.  0.
         11    1    3    3    0    0 -0.43729884645E+02 -0.11952778405E+02 -0.86428133158E+01  0.46150514026E+02  0.51100000000E-03 0.  1.
         22    1    1    0    0    0  0.59096768060E+01  0.21637041294E+02 -0.20299093864E+02  0.30251265223E+02  0.00000000000E+00 0.  1.
</event>
<event>
 5    1  0.8778488E-005  0.9118800E+02  0.7818608E-02  0.1130116E+00
         25   -1    0    0    0    0  0.00000000000E+00  0.00000000000E+00  0.99999998245E-14  0.12500000000E+03  0.12500000000E+03 0.  0.
        -11    1    3    3    0    0  0.17353877559E+02 -0.21193156496E+02  0.19180578958E+02  0.33439520900E+02  0.51100000000E-03 0.  1.
         23    2    1    0    0    0 -0.10565470790E+02  0.21948161424E+02 -0.16125938609E+02  0.95787042961E+02  0.91223685193E+02 0.  0.
         11    1    3    3    0    0 -0.27919348350E+02  0.43141317921E+02 -0.35306517567E+02  0.62347522061E+02  0.51100000000E-03 0. -1.
         22    1    1    0    0    0  0.10565470790E+02 -0.21948161424E+02  0.16125938609E+02  0.29212957039E+02  0.00000000000E+00 0. -1.
</event>
<event>
 5    1  0.8778488E-005  0.9118800E+02  0.7818608E-02  0.1130116E+00
         25   -1    0    0    0    0  0.00000000000E+00  0.00000000000E+00  0.99999998245E-14  0.12500000000E+03  0.12500000000E+03 0.  0.
        -11    1    3    3    0    0  0.41175118226E+02  0.17259742841E+02  0.25184307494E+02  0.51259520365E+02  0.51100000000E-03 0.  1.
         23    2    1    0    0    0  0.20595815125E+02  0.22234510078E+02 -0.10645325971E+02  0.92877048640E+02  0.87145063887E+02 0.  0.
         11    1    3    3    0    0 -0.20579303101E+02  0.49747672367E+01 -0.35829633465E+02  0.41617528274E+02  0.51100000000E-03 0. -1.
         22    1    1    0    0    0 -0.20595815125E+02 -0.22234510078E+02  0.10645325971E+02  0.32122951360E+02  0.00000000000E+00 0.  1.
</event>
<event>
 5    1  0.8778488E-005  0.9118800E+02  0.7818608E-02  0.1130116E+00
         25   -1    0    0    0    0  0.00000000000E+00  0.00000000000E+00  0.99999998245E-14  0.12500000000E+03  0.12500000000E+03 0.  0.
        -11    1    3    3    0    0  0.53172166783E+01  0.40290944761E+02  0.34548012751E+02  0.53340399401E+02  0.51100000000E-03 0. -1.
         23    2    1    0    0    0 -0.10079325412E+02  0.40678643797E+02  0.10670464306E+02  0.81754148518E+02  0.69379659335E+02 0.  0.
         11    1    3    3    0    0 -0.15396542090E+02  0.38769903614E+00 -0.23877548445E+02  0.28413749117E+02  0.51100000000E-03 0.  1.
         22    1    1    0    0    0  0.10079325412E+02 -0.40678643797E+02 -0.10670464306E+02  0.43245851482E+02  0.00000000000E+00 0. -1.
</event>
<event>
 5    1  0.8778488E-005  0.9118800E+02  0.7818608E-02  0.1130116E+00
         25   -1    0    0    0    0  0.00000000000E+00  0.00000000000E+00  0.99999998245E-14  0.12500000000E+03  0.12500000000E+03 0.  0.
        -11    1    3    3    0    0 -0.22039343589E+01  0.32813070480E+02 -0.17908843831E+02  0.37447050733E+02  0.51100000000E-03 0. -1.
         23    2    1    0    0    0  0.95923933726E+01 -0.65808706713E+00  0.27954763717E+02  0.95437931336E+02  0.90744051232E+02 0.  0.
         11    1    3    3    0    0  0.11796327731E+02 -0.33471157547E+02  0.45863607549E+02  0.57990880603E+02  0.51100000000E-03 0.  1.
         22    1    1    0    0    0 -0.95923933726E+01  0.65808706713E+00 -0.27954763717E+02  0.29562068664E+02  0.00000000000E+00 0.  1.
</event>
<event>
 5    1  0.8778488E-005  0.9118800E+02  0.7818608E-02  0.1130116E+00
         25   -1    0    0    0    0  0.00000000000E+00  0.00000000000E+00  0.99999998245E-14  0.12500000000E+03  0.12500000000E+03 0.  0.
        -11    1    3    3    0    0 -0.71456697276E+01 -0.12621047486E+02  0.44702749918E+02  0.46996673137E+02  0.51100000000E-03 0. -1.
         23    2    1    0    0    0 -0.71410091459E+00 -0.37396544741E+02  0.19929116416E+02  0.82618622252E+02  0.70920064601E+02 0.  0.
         11    1    3    3    0    0  0.64315688130E+01 -0.24775497255E+02 -0.24773633501E+02  0.35621949115E+02  0.51100000000E-03 0.  1.
         22    1    1    0    0    0  0.71410091459E+00  0.37396544741E+02 -0.19929116416E+02  0.42381377748E+02  0.00000000000E+00 0. -1.
</event>
<event>
 5    1  0.8778488E-005  0.9118800E+02  0.7818608E-02  0.1130116E+00
         25   -1    0    0    0    0  0.00000000000E+00  0.00000000000E+00  0.99999998245E-14  0.12500000000E+03  0.12500000000E+03 0.  0.
        -11    1    3    3    0    0  0.32626764290E+02 -0.29155429536E+01  0.17244398956E+02  0.37018582285E+02  0.51100000000E-03 0. -1.
         23    2    1    0    0    0 -0.19211430258E+02 -0.22928070830E+02  0.39314124119E+00  0.95084618596E+02  0.90256050484E+02 0.  0.
         11    1    3    3    0    0 -0.51838194548E+02 -0.20012527876E+02 -0.16851257715E+02  0.58066036311E+02  0.51100000000E-03 0.  1.
         22    1    1    0    0    0  0.19211430258E+02  0.22928070830E+02 -0.39314124119E+00  0.29915381404E+02  0.00000000000E+00 0.  1.
</event>
<event>
 5    1  0.8778488E-005  0.9118800E+02  0.7818608E-02  0.1130116E+00
         25   -1    0    0    0    0  0.00000000000E+00  0.00000000000E+00  0.99999998245E-14  0.12500000000E+03  0.12500000000E+03 0.  0.
        -11    1    3    3    0    0  0.41493091520E+02 -0.27936021631E+02  0.26062207305E+02  0.56403338539E+02  0.51100000000E-03 0. -1.
         23    2    1    0    0    0  0.11462776501E+02 -0.31175862079E+02  0.14734880311E+02  0.88662054003E+02  0.80873441257E+02 0.  0.
         11    1    3    3    0    0 -0.30030315020E+02 -0.32398404476E+01 -0.11327326994E+02  0.32258715464E+02  0.51100000000E-03 0.  1.
         22    1    1    0    0    0 -0.11462776501E+02  0.31175862079E+02 -0.14734880311E+02  0.36337945997E+02  0.00000000000E+00 0. -1.
</event>
<event>
 5    1  0.8778488E-005  0.9118800E+02  0.7818608E-02  0.1130116E+00
         25   -1    0    0    0    0  0.00000000000E+00  0.00000000000E+00  0.99999998245E-14  0.12500000000E+03  0.12500000000E+03 0.  0.
        -11    1    3    3    0    0 -0.44630600422E+02  0.38871521312E+02  0.12604870217E+02  0.60512547596E+02  0.51100000000E-03 0.  1.
         23    2    1    0    0    0 -0.24764908822E+02  0.29809715651E+02 -0.98810887551E+00  0.86232794590E+02  0.77027259120E+02 0.  0.
         11    1    3    3    0    0  0.19865691600E+02 -0.90618056604E+01 -0.13592979092E+02  0.25720246994E+02  0.51100000000E-03 0. -1.
         22    1    1    0    0    0  0.24764908822E+02 -0.29809715651E+02  0.98810887551E+00  0.38767205410E+02  0.00000000000E+00 0.  1.
</event>
<event>
 5    1  0.8778488E-005  0.9118800E+02  0.7818608E-02  0.1130116E+00
         25   -1    0    0    0    0  0.00000000000E+00  0.00000000000E+00  0.99999998245E-14  0.12500000000E+03  0.12500000000E+03 0.  0.
        -11    1    3    3    0    0  0.35318025138E+02  0.17001527337E+02 -0.63791544435E+01  0.39712824668E+02  0.51100000000E-03 0.  1.
         23    2    1    0    0    0 -0.18830496757E+02  0.19748379833E+02 -0.13774999028E+02  0.94433078134E+02  0.89349144000E+02 0.  0.
         11    1    3    3    0    0 -0.54148521894E+02  0.27468524960E+01 -0.73958445846E+01  0.54720253466E+02  0.51100000000E-03 0. -1.
         22    1    1    0    0    0  0.18830496757E+02 -0.19748379833E+02  0.13774999028E+02  0.30566921866E+02  0.00000000000E+00 0. -1.
</event>
<event>
 5    1  0.8778488E-005  0.9118800E+02  0.7818608E-02  0.1130116E+00
         25   -1    0    0    0    0  0.00000000000E+00  0.00000000000E+00  0.99999998245E-14  0.12500000000E+03  0.12500000000E+03 0.  0.
        -11    1    3    3    0    0  0.34432605745E+01 -0.32157787906E+02  0.22266498355E+02  0.39265459575E+02  0.51100000000E-03 0.  1.
         23    2    1    0    0    0 -0.21067048404E+02  0.17170594550E+02  0.11974382220E+02  0.95300914573E+02  0.90555113843E+02 0.  0.
         11    1    3    3    0    0 -0.24510308978E+02  0.49328382457E+02 -0.10292116134E+02  0.56035454997E+02  0.51100000000E-03 0. -1.
         22    1    1    0    0    0  0.21067048404E+02 -0.17170594550E+02 -0.11974382220E+02  0.29699085427E+02  0.00000000000E+00 0. -1.
</event>
<event>
 5    1  0.8778488E-005  0.9118800E+02  0.7818608E-02  0.1130116E+00
         25   -1    0    0    0    0  0.00000000000E+00  0.00000000000E+00  0.99999998245E-14  0.12500000000E+03  0.12500000000E+03 0.  0.
        -11    1    3    3    0    0  0.32339740059E+02 -0.95389075384E+01  0.30200726262E+02  0.45265145655E+02  0.51100000000E-03 0.  1.
         23    2    1    0    0    0 -0.16810333398E+02  0.21096952972E+01  0.23219072732E+02  0.96256940634E+02  0.91865309875E+02 0.  0.
         11    1    3    3    0    0 -0.49150073457E+02  0.11648602836E+02 -0.69816535303E+01  0.50991794979E+02  0.51100000000E-03 0. -1.
         22    1    1    0    0    0  0.16810333398E+02 -0.21096952972E+01 -0.23219072732E+02  0.28743059366E+02  0.00000000000E+00 0. -1.
</event>
<event>
 5    1  0.8778488E-005  0.9118800E+02  0.7818608E-02  0.1130116E+00
         25   -1    0    0    0    0  0.00000000000E+00  0.00000000000E+00  0.99999998245E-14  0.12500000000E+03  0.12500000000E+03 0.  0.
        -11    1    3    3    0    0 -0.23059853435E+02  0.53188853299E+02  0.15385086265E+02  0.59979261710E+02  0.51100000000E-03 0. -1.
         23    2    1    0    0    0 -0.18721706204E+02  0.17625872451E+02  0.13745393852E+02  0.95843362420E+02  0.91300824777E+02 0.  0.
         11    1    3    3    0    0  0.43381472303E+01 -0.35562980848E+02 -0.16396924127E+01  0.35864100709E+02  0.51100000000E-03 0.  1.
         22    1    1    0    0    0  0.18721706204E+02 -0.17625872451E+02 -0.13745393852E+02  0.29156637580E+02  0.00000000000E+00 0. -1.
</event>
<event>
 5    1  0.8778488E-005  0.9118800E+02  0.7818608E-02  0.1130116E+00
         25   -1    0    0    0    0  0.00000000000E+00  0.00000000000E+00  0.99999998245E-14  0.12500000000E+03  0.12500000000E+03 0.  0.
        -11    1    3    3    0    0 -0.40482686112E+02  0.19410231832E+02  0.49620839547E+01  0.45168874815E+02  0.51100000000E-03 0.  1.
         23    2    1    0    0    0  0.13250777744E+02 -0.66485509834E+01 -0.10471161846E+02  0.10684975010E+03  0.10529690178E+03 0.  0.
         11    1    3    3    0    0  0.53733463856E+02 -0.26058782816E+02 -0.15433245801E+02  0.61680875286E+02  0.51100000000E-03 0. -1.
         22    1    1    0    0    0 -0.13250777744E+02  0.66485509834E+01  0.10471161846E+02  0.18150249899E+02  0.00000000000E+00 0. -1.
</event>
<event>
 5    1  0.8778488E-005  0.9118800E+02  0.7818608E-02  0.1130116E+00
         25   -1    0    0    0    0  0.00000000000E+00  0.00000000000E+00  0.99999998245E-14  0.12500000000E+03  0.12500000000E+03 0.  0.
        -11    1    3    3    0    0 -0.52691480761E+02  0.28165024159E+02  0.19910702332E+01  0.59779805048E+02  0.51100000000E-03 0.  1.
         23    2    1    0    0    0 -0.17169498534E+02  0.23844998987E+02  0.17566555560E+01  0.95564281980E+02  0.90917932747E+02 0.  0.
         11    1    3    3    0    0  0.35521982227E+02 -0.43200251721E+01 -0.23441467719E+00  0.35784476932E+02  0.51100000000E-03 0. -1.
         22    1    1    0    0    0  0.17169498534E+02 -0.23844998987E+02 -0.17566555560E+01  0.29435718020E+02  0.00000000000E+00 0.  1.
</event>
<event>
 5    1  0.8778488E-005  0.9118800E+02  0.7818608E-02  0.1130116E+00
         25   -1    0    0    0    0  0.00000000000E+00  0.00000000000E+00  0.99999998245E-14  0.12500000000E+03  0.12500000000E+03 0.  0.
        -11    1    3    3    0    0  0.36655851599E+02  0.20857108209E+02  0.13568849416E+02  0.44303319222E+02  0.51100000000E-03 0.  1.
         23    2    1    0    0    0  0.18705292154E+02 -0.12875336241E+02 -0.19676715476E+02  0.94952780998E+02  0.90073277110E+02 0.  0.
         11    1    3    3    0    0 -0.17950559446E+02 -0.33732444449E+02 -0.33245564892E+02  0.50649461776E+02  0.51100000000E-03 0. -1.
         22    1    1    0    0    0 -0.18705292154E+02  0.12875336241E+02  0.19676715476E+02  0.30047219002E+02  0.00000000000E+00 0. -1.
</event>
<event>
 5    1  0.8778488E-005  0.9118800E+02  0.7818608E-02  0.1130116E+00
         25   -1    0    0    0    0  0.00000000000E+00  0.00000000000E+00  0.99999998245E-14  0.12500000000E+03  0.12500000000E+03 0.  0.
        -11    1    3    3    0    0 -0.92968660953E+01 -0.16926370207E+02  0.27308838133E+02  0.33447068153E+02  0.51100000000E-03 0. -1.
         23    2    1    0    0    0  0.44846439192E+01  0.60703528946E+01 -0.28583520757E+02  0.95436866299E+02  0.90742584131E+02 0.  0.
         11    1    3    3    0    0  0.13781510014E+02  0.22996723102E+02 -0.55892358890E+02  0.61989798146E+02  0.51100000000E-03 0.  1.
         22    1    1    0    0    0 -0.44846439192E+01 -0.60703528946E+01  0.28583520757E+02  0.29563133701E+02  0.00000000000E+00 0.  1.
</event>
<event>
 5    1  0.8778488E-005  0.9118800E+02  0.7818608E-02  0.1130116E+00
         25   -1    0    0    0    0  0.00000000000E+00  0.00000000000E+00  0.99999998245E-14  0.12500000000E+03  0.12500000000E+03 0.  0.
        -11    1    3    3    0    0  0.11299704787E+02  0.22612012002E+02 -0.18477325338E+02  0.31311307333E+02  0.51100000000E-03 0.  1.
         23    2    1    0    0    0  0.74229492076E+01 -0.27940897663E+02 -0.30033562140E+02  0.83312966141E+02  0.72133498010E+02 0.  0.
         11    1    3    3    0    0 -0.38767555791E+01 -0.50552909665E+02 -0.11556236802E+02  0.52001658807E+02  0.51100000000E-03 0. -1.
         22    1    1    0    0    0 -0.74229492076E+01  0.27940897663E+02  0.30033562140E+02  0.41687033859E+02  0.00000000000E+00 0. -1.
</event>
<event>
 5    1  0.8778488E-005  0.9118800E+02  0.7818608E-02  0.1130116E+00
         25   -1    0    0    0    0  0.00000000000E+00  0.00000000000E+00  0.99999998245E-14  0.12500000000E+03  0.12500000000E+03 0.  0.
        -11    1    3    3    0    0  0.17368750634E+02 -0.19960088864E+02 -0.55283612694E+02  0.61289122027E+02  0.51100000000E-03 0. -1.
         23    2    1    0    0    0  0.11516165019E+00 -0.72648138478E+01 -0.28517345658E+02  0.95571615983E+02  0.90928015462E+02 0.  0.
         11    1    3    3    0    0 -0.17253588983E+02  0.12695275016E+02  0.26766267036E+02  0.34282493956E+02  0.51100000000E-03 0.  1.
         22    1    1    0    0    0 -0.11516165019E+00  0.72648138478E+01  0.28517345658E+02  0.29428384017E+02  0.00000000000E+00 0. -1.
</event>
<event>
 5    1  0.8778488E-005  0.9118800E+02  0.7818608E-02  0.1130116E+00
         25   -1    0    0    0    0  0.00000000000E+00  0.00000000000E+00  0.99999998245E-14  0.12500000000E+03  0.12500000000E+03 0.  0.
        -11    1    3    3    0    0  0.14134334396E+02 -0.33967199007E+02 -0.24079564524E+02  0.43970165398E+02  0.51100000000E-03 0.  1.
         23    2    1    0    0    0 -0.27366708175E+02 -0.11150348565E+02 -0.13570746439E+02  0.92481818188E+02  0.86576293216E+02 0.  0.
         11    1    3    3    0    0 -0.41501042571E+02  0.22816850442E+02  0.10508818085E+02  0.48511652790E+02  0.51100000000E-03 0. -1.
         22    1    1    0    0    0  0.27366708175E+02  0.11150348565E+02  0.13570746439E+02  0.32518181812E+02  0.00000000000E+00 0. -1.
</event>
<event>
 5    1  0.8778488E-005  0.9118800E+02  0.7818608E-02  0.1130116E+00
         25   -1    0    0    0    0  0.00000000000E+00  0.00000000000E+00  0.99999998245E-14  0.12500000000E+03  0.12500000000E+03 0.  0.
        -11    1    3    3    0    0 -0.54694764572E+01 -0.13723894100E+02  0.60346619915E+02  0.62128696892E+02  0.51100000000E-03 0.  1.
         23    2    1    0    0    0 -0.68046846858E+01 -0.90120032277E+01  0.28591499094E+02  0.94259249257E+02  0.89105624481E+02 0.  0.
         11    1    3    3    0    0 -0.13352082286E+01  0.47118908721E+01 -0.31755120822E+02  0.32130552365E+02  0.51100000000E-03 0. -1.
         22    1    1    0    0    0  0.68046846858E+01  0.90120032277E+01 -0.28591499094E+02  0.30740750743E+02  0.00000000000E+00 0.  1.
</event>
<event>
 5    1  0.8778488E-005  0.9118800E+02  0.7818608E-02  0.1130116E+00
         25   -1    0    0    0    0  0.00000000000E+00  0.00000000000E+00  0.99999998245E-14  0.12500000000E+03  0.12500000000E+03 0.  0.
        -11    1    3    3    0    0  0.10456933333E+02 -0.35959390820E+02 -0.48268548569E+02  0.61092372880E+02  0.51100000000E-03 0.  1.
         23    2    1    0    0    0  0.89272021086E+01 -0.96920734630E+01 -0.27113963568E+02  0.94853719204E+02  0.89935698146E+02 0.  0.
         11    1    3    3    0    0 -0.15297312240E+01  0.26267317357E+02  0.21154585002E+02  0.33761346324E+02  0.51100000000E-03 0. -1.
         22    1    1    0    0    0 -0.89272021086E+01  0.96920734630E+01  0.27113963568E+02  0.30146280796E+02  0.00000000000E+00 0.  1.
</event>
<event>
 5    1  0.8778488E-005  0.9118800E+02  0.7818608E-02  0.1130116E+00
         25   -1    0    0    0    0  0.00000000000E+00  0.00000000000E+00  0.99999998245E-14  0.12500000000E+03  0.12500000000E+03 0.  0.
        -11    1    3    3    0    0  0.55548990431E+02 -0.73709858518E+01 -0.16349704621E+02  0.58372378843E+02  0.51100000000E-03 0.  1.
         23    2    1    0    0    0  0.20213965188E+02  0.55257668354E+01 -0.19831480463E+02  0.96148204474E+02  0.91717234577E+02 0.  0.
         11    1    3    3    0    0 -0.35335025243E+02  0.12896752687E+02 -0.34817758419E+01  0.37775825631E+02  0.51100000000E-03 0. -1.
         22    1    1    0    0    0 -0.20213965188E+02 -0.55257668354E+01  0.19831480463E+02  0.28851795526E+02  0.00000000000E+00 0.  1.
</event>
<event>
 5    1  0.8778488E-005  0.9118800E+02  0.7818608E-02  0.1130116E+00
         25   -1    0    0    0    0  0.00000000000E+00  0.00000000000E+00  0.99999998245E-14  0.12500000000E+03  0.12500000000E+03 0.  0.
        -11    1    3    3    0    0  0.79140705109E+01 -0.27223486224E+02  0.10946392380E+02  0.30390363944E+02  0.51100000000E-03 0. -1.
         23    2    1    0    0    0 -0.62670433439E+01  0.28197644601E+02 -0.14120136438E+02  0.92847842275E+02  0.87103160498E+02 0.  0.
         11    1    3    3    0    0 -0.14181113855E+02  0.55421130826E+02 -0.25066528818E+02  0.62457478331E+02  0.51100000000E-03 0.  1.
         22    1    1    0    0    0  0.62670433439E+01 -0.28197644601E+02  0.14120136438E+02  0.32152157725E+02  0.00000000000E+00 0.  1.
</event>
<event>
 5    1  0.8778488E-005  0.9118800E+02  0.7818608E-02  0.1130116E+00
         25   -1    0    0    0    0  0.00000000000E+00  0.00000000000E+00  0.99999998245E-14  0.12500000000E+03  0.12500000000E+03 0.  0.
        -11    1    3    3    0    0 -0.19991020572E+02  0.54812928496E+01 -0.36477209728E+02  0.41955599204E+02  0.51100000000E-03 0. -1.
         23    2    1    0    0    0  0.21574662738E+02  0.20618611392E+02 -0.99189708031E+01  0.93551960478E+02  0.88107832340E+02 0.  0.
         11    1    3    3    0    0  0.41565683310E+02  0.15137318542E+02  0.26558238925E+02  0.51596361274E+02  0.51100000000E-03 0.  1.
         22    1    1    0    0    0 -0.21574662738E+02 -0.20618611392E+02  0.99189708031E+01  0.31448039522E+02  0.00000000000E+00 0. -1.
</event>
<event>
 5    1  0.8778488E-005  0.9118800E+02  0.7818608E-02  0.1130116E+00
         25   -1    0    0    0    0  0.00000000000E+00  0.00000000000E+00  0.99999998245E-14  0.12500000000E+03  0.12500000000E+03 0.  0.
        -11    1    3    3    0    0  0.15806845698E+02 -0.27778832561E+02  0.20833346672E+02  0.38151647974E+02  0.51100000000E-03 0.  1.
         23    2    1    0    0    0  0.18088066186E+02  0.19538787912E+02 -0.12004827885E+02  0.95792838824E+02  0.91231626676E+02 0.  0.
         11    1    3    3    0    0  0.22812204875E+01  0.47317620472E+02 -0.32838174557E+02  0.57641190850E+02  0.51100000000E-03 0. -1.
         22    1    1    0    0    0 -0.18088066186E+02 -0.19538787912E+02  0.12004827885E+02  0.29207161176E+02  0.00000000000E+00 0. -1.
</event>
<event>
 5    1  0.8778488E-005  0.9118800E+02  0.7818608E-02  0.1130116E+00
         25   -1    0    0    0    0  0.00000000000E+00  0.00000000000E+00  0.99999998245E-14  0.12500000000E+03  0.12500000000E+03 0.  0.
        -11    1    3    3    0    0 -0.18711450813E+02 -0.13900435188E+02  0.25434977486E+02  0.34500414055E+02  0.51100000000E-03 0.  1.
         23    2    1    0    0    0  0.26645591246E+02  0.76385088088E+01 -0.95323984695E+01  0.95687869913E+02  0.91087691145E+02 0.  0.
         11    1    3    3    0    0  0.45357042060E+02  0.21538943997E+02 -0.34967375956E+02  0.61187455858E+02  0.51100000000E-03 0. -1.
         22    1    1    0    0    0 -0.26645591246E+02 -0.76385088088E+01  0.95323984695E+01  0.29312130087E+02  0.00000000000E+00 0. -1.
</event>
<event>
 5    1  0.8778488E-005  0.9118800E+02  0.7818608E-02  0.1130116E+00
         25   -1    0    0    0    0  0.00000000000E+00  0.00000000000E+00  0.99999998245E-14  0.12500000000E+03  0.12500000000E+03 0.  0.
        -11    1    3    3    0    0 -0.50993549821E+01 -0.25545959912E+02 -0.39175406659E+02  0.47045849724E+02  0.51100000000E-03 0.  1.
         23    2    1    0    0    0  0.25456655644E+02  0.28338952646E+01 -0.16750794280E+02  0.94395075756E+02  0.89295962613E+02 0.  0.
         11    1    3    3    0    0  0.30556010626E+02  0.28379855176E+02  0.22424612379E+02  0.47349226032E+02  0.51100000000E-03 0. -1.
         22    1    1    0    0    0 -0.25456655644E+02 -0.28338952646E+01  0.16750794280E+02  0.30604924244E+02  0.00000000000E+00 0. -1.
</event>
<event>
 5    1  0.8778488E-005  0.9118800E+02  0.7818608E-02  0.1130116E+00
         25   -1    0    0    0    0  0.00000000000E+00  0.00000000000E+00  0.99999998245E-14  0.12500000000E+03  0.12500000000E+03 0.  0.
        -11    1    3    3    0    0 -0.15328088686E+02 -0.19808154888E+02  0.45700385880E+02  0.52113708107E+02  0.51100000000E-03 0.  1.
         23    2    1    0    0    0 -0.18072500524E+02 -0.22911465793E+02  0.22816894731E+01  0.95729594351E+02  0.91144931773E+02 0.  0.
         11    1    3    3    0    0 -0.27444118379E+01 -0.31033109054E+01 -0.43418696407E+02  0.43615886244E+02  0.51100000000E-03 0. -1.
         22    1    1    0    0    0  0.18072500524E+02  0.22911465793E+02 -0.22816894731E+01  0.29270405649E+02  0.00000000000E+00 0.  1.
</event>
<event>
 5    1  0.8778488E-005  0.9118800E+02  0.7818608E-02  0.1130116E+00
         25   -1    0    0    0    0  0.00000000000E+00  0.00000000000E+00  0.99999998245E-14  0.12500000000E+03  0.12500000000E+03 0.  0.
        -11    1    3    3    0    0  0.36449059724E+01 -0.35583926505E+02 -0.32444266286E+02  0.48292148225E+02  0.51100000000E-03 0.  1.
         23    2    1    0    0    0  0.10490948621E+02 -0.24682828227E+02  0.12764306495E+02  0.95297651060E+02  0.90550608860E+02 0.  0.
         11    1    3    3    0    0  0.68460426487E+01  0.10901098278E+02  0.45208572781E+02  0.47005502835E+02  0.51100000000E-03 0. -1.
         22    1    1    0    0    0 -0.10490948621E+02  0.24682828227E+02 -0.12764306495E+02  0.29702348940E+02  0.00000000000E+00 0.  1.
</event>
<event>
 5    1  0.8778488E-005  0.9118800E+02  0.7818608E-02  0.1130116E+00
         25   -1    0    0    0    0  0.00000000000E+00  0.00000000000E+00  0.99999998245E-14  0.12500000000E+03  0.12500000000E+03 0.  0.
        -11    1    3    3    0    0 -0.38931314915E+02 -0.16549512587E+01  0.30311543911E+02  0.49367761132E+02  0.51100000000E-03 0. -1.
         23    2    1    0    0    0  0.70075198332E+01 -0.12835619206E+01  0.28798932084E+02  0.95332992153E+02  0.90599382108E+02 0.  0.
         11    1    3    3    0    0  0.45938834748E+02  0.37138933809E+00 -0.15126118267E+01  0.45965231021E+02  0.51100000000E-03 0.  1.
         22    1    1    0    0    0 -0.70075198332E+01  0.12835619206E+01 -0.28798932084E+02  0.29667007847E+02  0.00000000000E+00 0.  1.
</event>
<event>
 5    1  0.8778488E-005  0.9118800E+02  0.7818608E-02  0.1130116E+00
         25   -1    0    0    0    0  0.00000000000E+00  0.00000000000E+00  0.99999998245E-14  0.12500000000E+03  0.12500000000E+03 0.  0.
        -11    1    3    3    0    0  0.19415213101E+02  0.15049759677E+02 -0.40137303790E+02  0.47057931551E+02  0.51100000000E-03 0. -1.
         23    2    1    0    0    0 -0.16751302191E+02 -0.11713106387E+02 -0.20177012413E+02  0.96278669664E+02  0.91894871544E+02 0.  0.
         11    1    3    3    0    0 -0.36166515292E+02 -0.26762866064E+02  0.19960291376E+02  0.49220738113E+02  0.51100000000E-03 0.  1.
         22    1    1    0    0    0  0.16751302191E+02  0.11713106387E+02  0.20177012413E+02  0.28721330336E+02  0.00000000000E+00 0.  1.
</event>
<event>
 5    1  0.8778488E-005  0.9118800E+02  0.7818608E-02  0.1130116E+00
         25   -1    0    0    0    0  0.00000000000E+00  0.00000000000E+00  0.99999998245E-14  0.12500000000E+03  0.12500000000E+03 0.  0.
        -11    1    3    3    0    0  0.38945765808E+02  0.16601320768E+01  0.58321364593E+01  0.39415003855E+02  0.51100000000E-03 0.  1.
         23    2    1    0    0    0 -0.11992402946E+02 -0.24159383940E+02  0.88780138440E+01  0.96604354373E+02  0.92336821437E+02 0.  0.
         11    1    3    3    0    0 -0.50938168754E+02 -0.25819516017E+02  0.30458773846E+01  0.57189350518E+02  0.51100000000E-03 0. -1.
         22    1    1    0    0    0  0.11992402946E+02  0.24159383940E+02 -0.88780138440E+01  0.28395645627E+02  0.00000000000E+00 0. -1.
</event>
<event>
 5    1  0.8778488E-005  0.9118800E+02  0.7818608E-02  0.1130116E+00
         25   -1    0    0    0    0  0.00000000000E+00  0.00000000000E+00  0.99999998245E-14  0.12500000000E+03  0.12500000000E+03 0.  0.
        -11    1    3    3    0    0  0.16114065599E+01 -0.94076851836E+01 -0.60158124670E+02  0.60910599535E+02  0.51100000000E-03 0.  1.
         23    2    1    0    0    0  0.10446208944E+02 -0.24017223090E+01 -0.26181372155E+02  0.96709439750E+02  0.92478970245E+02 0.  0.
         11    1    3    3    0    0  0.88348023843E+01  0.70059628746E+01  0.33976752516E+02  0.35798840215E+02  0.51100000000E-03 0. -1.
         22    1    1    0    0    0 -0.10446208944E+02  0.24017223090E+01  0.26181372155E+02  0.28290560250E+02  0.00000000000E+00 0.  1.
</event>
<event>
 5    1  0.8778488E-005  0.9118800E+02  0.7818608E-02  0.1130116E+00
         25   -1    0    0    0    0  0.00000000000E+00  0.00000000000E+00  0.99999998245E-14  0.12500000000E+03  0.12500000000E+03 0.  0.
        -11    1    3    3    0    0  0.56447906240E+02 -0.17261825343E+02  0.12460138257E+02  0.60329029320E+02  0.51100000000E-03 0. -1.
         23    2    1    0    0    0  0.27591869114E+02  0.36293810699E+01  0.50576345202E+01  0.96714609512E+02  0.92485957734E+02 0.  0.
         11    1    3    3    0    0 -0.28856037127E+02  0.20891206412E+02 -0.74025037370E+01  0.36385580191E+02  0.51100000000E-03 0.  1.
         22    1    1    0    0    0 -0.27591869114E+02 -0.36293810699E+01 -0.50576345202E+01  0.28285390488E+02  0.00000000000E+00 0. -1.
</event>
<event>
 5    1  0.8778488E-005  0.9118800E+02  0.7818608E-02  0.1130116E+00
         25   -1    0    0    0    0  0.00000000000E+00  0.00000000000E+00  0.99999998245E-14  0.12500000000E+03  0.12500000000E+03 0.  0.
        -11    1    3    3    0    0  0.23546866619E+02  0.12643393051E+02 -0.55390511616E+02  0.61501374723E+02  0.51100000000E-03 0. -1.
         23    2    1    0    0    0  0.10541271114E+02 -0.18010626351E+01 -0.27476328196E+02  0.95515922357E+02  0.90851420403E+02 0.  0.
         11    1    3    3    0    0 -0.13005595506E+02 -0.14444455686E+02  0.27914183420E+02  0.34014547635E+02  0.51100000000E-03 0.  1.
         22    1    1    0    0    0 -0.10541271114E+02  0.18010626351E+01  0.27476328196E+02  0.29484077643E+02  0.00000000000E+00 0. -1.
</event>
<event>
 5    1  0.8778488E-005  0.9118800E+02  0.7818608E-02  0.1130116E+00
         25   -1    0    0    0    0  0.00000000000E+00  0.00000000000E+00  0.99999998245E-14  0.12500000000E+03  0.12500000000E+03 0.  0.
        -11    1    3    3    0    0  0.35057048712E+02  0.18667294387E+02  0.22304460598E+02  0.45551657565E+02  0.51100000000E-03 0. -1.
         23    2    1    0    0    0  0.48275467903E+01  0.28755445037E+02 -0.12968021759E+02  0.93088396850E+02  0.87447694152E+02 0.  0.
         11    1    3    3    0    0 -0.30229501921E+02  0.10088150650E+02 -0.35272482357E+02  0.47536739285E+02  0.51100000000E-03 0.  1.
         22    1    1    0    0    0 -0.48275467903E+01 -0.28755445037E+02  0.12968021759E+02  0.31911603150E+02  0.00000000000E+00 0. -1.
</event>
<event>
 5    1  0.8778488E-005  0.9118800E+02  0.7818608E-02  0.1130116E+00
         25   -1    0    0    0    0  0.00000000000E+00  0.00000000000E+00  0.99999998245E-14  0.12500000000E+03  0.12500000000E+03 0.  0.
        -11    1    3    3    0    0 -0.41826824481E+02 -0.14722312684E+02 -0.37860073228E+02  0.58306216496E+02  0.51100000000E-03 0.  1.
         23    2    1    0    0    0 -0.14864663137E+02  0.73508528960E+01 -0.24047444260E+02  0.95789165984E+02  0.91226594236E+02 0.  0.
         11    1    3    3    0    0  0.26962161344E+02  0.22073165580E+02  0.13812628968E+02  0.37482949488E+02  0.51100000000E-03 0. -1.
         22    1    1    0    0    0  0.14864663137E+02 -0.73508528960E+01  0.24047444260E+02  0.29210834016E+02  0.00000000000E+00 0.  1.
</event>
<event>
 5    1  0.8778488E-005  0.9118800E+02  0.7818608E-02  0.1130116E+00
         25   -1    0    0    0    0  0.00000000000E+00  0.00000000000E+00  0.99999998245E-14  0.12500000000E+03  0.12500000000E+03 0.  0.
        -11    1    3    3    0    0  0.32452478177E+02 -0.10707122343E+02 -0.21035020606E+02  0.40128268102E+02  0.51100000000E-03 0.  1.
         23    2    1    0    0    0  0.45730963035E-01 -0.12762552022E+02  0.25273353919E+02  0.96686977489E+02  0.92448603949E+02 0.  0.
         11    1    3    3    0    0 -0.32406747214E+02 -0.20554296784E+01  0.46308374524E+02  0.56558709387E+02  0.51100000000E-03 0. -1.
         22    1    1    0    0    0 -0.45730963035E-01  0.12762552022E+02 -0.25273353919E+02  0.28313022511E+02  0.00000000000E+00 0. -1.
</event>
<event>
 5    1  0.8778488E-005  0.9118800E+02  0.7818608E-02  0.1130116E+00
         25   -1    0    0    0    0  0.00000000000E+00  0.00000000000E+00  0.99999998245E-14  0.12500000000E+03  0.12500000000E+03 0.  0.
        -11    1    3    3    0    0  0.24773338018E+02  0.12038028598E+02 -0.41178227891E+02  0.49540678857E+02  0.51100000000E-03 0. -1.
         23    2    1    0    0    0  0.18484000872E+02 -0.21286141733E+02 -0.11689444489E+02  0.94481133203E+02  0.89416348062E+02 0.  0.
         11    1    3    3    0    0 -0.62893371467E+01 -0.33324170331E+02  0.29488783402E+02  0.44940454346E+02  0.51100000000E-03 0.  1.
         22    1    1    0    0    0 -0.18484000872E+02  0.21286141733E+02  0.11689444489E+02  0.30518866797E+02  0.00000000000E+00 0.  1.
</event>
<event>
 5    1  0.8778488E-005  0.9118800E+02  0.7818608E-02  0.1130116E+00
         25   -1    0    0    0    0  0.00000000000E+00  0.00000000000E+00  0.99999998245E-14  0.12500000000E+03  0.12500000000E+03 0.  0.
        -11    1    3    3    0    0 -0.12821772870E+02 -0.14804161843E+02 -0.57080029334E+02  0.60346423394E+02  0.51100000000E-03 0.  1.
         23    2    1    0    0    0  0.63007522949E+01 -0.77308257022E+01 -0.19071583398E+02  0.10347814044E+03  0.10121529089E+03 0.  0.
         11    1    3    3    0    0  0.19122525165E+02  0.70733361410E+01  0.38008445936E+02  0.43131717049E+02  0.51100000000E-03 0. -1.
         22    1    1    0    0    0 -0.63007522949E+01  0.77308257022E+01  0.19071583398E+02  0.21521859558E+02  0.00000000000E+00 0.  1.
</event>
<event>
 5    1  0.8778488E-005  0.9118800E+02  0.7818608E-02  0.1130116E+00
         25   -1    0    0    0    0  0.00000000000E+00  0.00000000000E+00  0.99999998245E-14  0.12500000000E+03  0.12500000000E+03 0.  0.
        -11    1    3    3    0    0  0.29733538257E+02 -0.31170818162E+01  0.46152514980E+02  0.54989582064E+02  0.51100000000E-03 0.  1.
         23    2    1    0    0    0  0.74743473828E+01  0.17960847236E+02  0.28888154160E+02  0.90172089454E+02  0.83174649765E+02 0.  0.
         11    1    3    3    0    0 -0.22259190874E+02  0.21077929052E+02 -0.17264360820E+02  0.35182507390E+02  0.51100000000E-03 0. -1.
         22    1    1    0    0    0 -0.74743473828E+01 -0.17960847236E+02 -0.28888154160E+02  0.34827910546E+02  0.00000000000E+00 0.  1.
</event>
<event>
 5    1  0.8778488E-005  0.9118800E+02  0.7818608E-02  0.1130116E+00
         25   -1    0    0    0    0  0.00000000000E+00  0.00000000000E+00  0.99999998245E-14  0.12500000000E+03  0.12500000000E+03 0.  0.
        -11    1    3    3    0    0 -0.49797399921E+02 -0.12347147235E+02  0.22674011110E+02  0.56092279895E+02  0.51100000000E-03 0. -1.
         23    2    1    0    0    0 -0.29134198042E+02 -0.24514641628E+01 -0.82896823217E+01  0.94610363525E+02  0.89596824058E+02 0.  0.
         11    1    3    3    0    0  0.20663201880E+02  0.98956830720E+01 -0.30963693431E+02  0.38518083630E+02  0.51100000000E-03 0.  1.
         22    1    1    0    0    0  0.29134198042E+02  0.24514641628E+01  0.82896823217E+01  0.30389636475E+02  0.00000000000E+00 0. -1.
</event>
<event>
 5    1  0.8778488E-005  0.9118800E+02  0.7818608E-02  0.1130116E+00
         25   -1    0    0    0    0  0.00000000000E+00  0.00000000000E+00  0.99999998245E-14  0.12500000000E+03  0.12500000000E+03 0.  0.
        -11    1    3    3    0    0 -0.15676868920E+02 -0.18312395191E+02  0.57848732036E+01  0.24790578755E+02  0.51100000000E-03 0. -1.
         23    2    1    0    0    0  0.19801977844E+02  0.20556403889E+01 -0.36373135496E+02  0.83534966903E+02  0.72517182279E+02 0.  0.
         11    1    3    3    0    0  0.35478846764E+02  0.20368035580E+02 -0.42158008700E+02  0.58744388148E+02  0.51100000000E-03 0.  1.
         22    1    1    0    0    0 -0.19801977844E+02 -0.20556403889E+01  0.36373135496E+02  0.41465033097E+02  0.00000000000E+00 0.  1.
</event>
<event>
 5    1  0.8778488E-005  0.9118800E+02  0.7818608E-02  0.1130116E+00
         25   -1    0    0    0    0  0.00000000000E+00  0.00000000000E+00  0.99999998245E-14  0.12500000000E+03  0.12500000000E+03 0.  0.
        -11    1    3    3    0    0  0.49570337913E+02  0.12249405570E+02  0.61545631386E+01  0.51430973015E+02  0.51100000000E-03 0.  1.
         23    2    1    0    0    0  0.10491222979E+02  0.22307931729E+02 -0.14119985617E+02  0.96590783688E+02  0.92318448438E+02 0.  0.
         11    1    3    3    0    0 -0.39079114933E+02  0.10058526160E+02 -0.20274548755E+02  0.45159810673E+02  0.51100000000E-03 0. -1.
         22    1    1    0    0    0 -0.10491222979E+02 -0.22307931729E+02  0.14119985617E+02  0.28409216312E+02  0.00000000000E+00 0.  1.
</event>
<event>
 5    1  0.8778488E-005  0.9118800E+02  0.7818608E-02  0.1130116E+00
         25   -1    0    0    0    0  0.00000000000E+00  0.00000000000E+00  0.99999998245E-14  0.12500000000E+03  0.12500000000E+03 0.  0.
        -11    1    3    3    0    0  0.62105573892E+01  0.13985588918E+02 -0.41893610620E+02  0.44600922989E+02  0.51100000000E-03 0. -1.
         23    2    1    0    0    0 -0.25051955227E+02 -0.11637795790E+02 -0.11962211561E+02  0.94897952611E+02  0.89997156360E+02 0.  0.
         11    1    3    3    0    0 -0.31262512616E+02 -0.25623384707E+02  0.29931399059E+02  0.50297029622E+02  0.51100000000E-03 0.  1.
         22    1    1    0    0    0  0.25051955227E+02  0.11637795790E+02  0.11962211561E+02  0.30102047389E+02  0.00000000000E+00 0.  1.
</event>
<event>
 5    1  0.8778488E-005  0.9118800E+02  0.7818608E-02  0.1130116E+00
         25   -1    0    0    0    0  0.00000000000E+00  0.00000000000E+00  0.99999998245E-14  0.12500000000E+03  0.12500000000E+03 0.  0.
        -11    1    3    3    0    0 -0.56508187170E+01 -0.21531007333E+02 -0.26188645636E+02  0.34370935243E+02  0.51100000000E-03 0. -1.
         23    2    1    0    0    0  0.11710933547E+02  0.43715524333E+01  0.26558949073E+02  0.95646393560E+02  0.91030755187E+02 0.  0.
         11    1    3    3    0    0  0.17361752264E+02  0.25902559766E+02  0.52747594709E+02  0.61275458317E+02  0.51100000000E-03 0.  1.
         22    1    1    0    0    0 -0.11710933547E+02 -0.43715524333E+01 -0.26558949073E+02  0.29353606440E+02  0.00000000000E+00 0.  1.
</event>
<event>
 5    1  0.8778488E-005  0.9118800E+02  0.7818608E-02  0.1130116E+00
         25   -1    0    0    0    0  0.00000000000E+00  0.00000000000E+00  0.99999998245E-14  0.12500000000E+03  0.12500000000E+03 0.  0.
        -11    1    3    3    0    0 -0.26373282533E+02 -0.23241870966E+02 -0.20223213733E+02  0.40555060985E+02  0.51100000000E-03 0. -1.
         23    2    1    0    0    0 -0.52069429549E+01  0.26793186249E+02 -0.10550869625E+02  0.95737260310E+02  0.91155444586E+02 0.  0.
         11    1    3    3    0    0  0.21166339578E+02  0.50035057214E+02  0.96723441077E+01  0.55182199325E+02  0.51100000000E-03 0.  1.
         22    1    1    0    0    0  0.52069429549E+01 -0.26793186249E+02  0.10550869625E+02  0.29262739690E+02  0.00000000000E+00 0.  1.
</event>
<event>
 5    1  0.8778488E-005  0.9118800E+02  0.7818608E-02  0.1130116E+00
         25   -1    0    0    0    0  0.00000000000E+00  0.00000000000E+00  0.99999998245E-14  0.12500000000E+03  0.12500000000E+03 0.  0.
        -11    1    3    3    0    0 -0.21808412034E+02  0.27383293741E+02 -0.10228065765E+02  0.36470055404E+02  0.51100000000E-03 0. -1.
         23    2    1    0    0    0  0.89280591196E+01 -0.26915128513E+01  0.28914178190E+02  0.94619345276E+02  0.89609353970E+02 0.  0.
         11    1    3    3    0    0  0.30736471154E+02 -0.30074806593E+02  0.39142243955E+02  0.58149289872E+02  0.51100000000E-03 0.  1.
         22    1    1    0    0    0 -0.89280591196E+01  0.26915128513E+01 -0.28914178190E+02  0.30380654724E+02  0.00000000000E+00 0.  1.
</event>
<event>
 5    1  0.8778488E-005  0.9118800E+02  0.7818608E-02  0.1130116E+00
         25   -1    0    0    0    0  0.00000000000E+00  0.00000000000E+00  0.99999998245E-14  0.12500000000E+03  0.12500000000E+03 0.  0.
        -11    1    3    3    0    0 -0.18720276490E+02 -0.25209512686E+02 -0.36339549446E+02  0.48026358762E+02  0.51100000000E-03 0. -1.
         23    2    1    0    0    0 -0.21802484089E+02  0.15069976456E+02 -0.82054559085E+01  0.97255054343E+02  0.93213537568E+02 0.  0.
         11    1    3    3    0    0 -0.30822075987E+01  0.40279489142E+02  0.28134093537E+02  0.49228695581E+02  0.51100000000E-03 0.  1.
         22    1    1    0    0    0  0.21802484089E+02 -0.15069976456E+02  0.82054559085E+01  0.27744945657E+02  0.00000000000E+00 0. -1.
</event>
<event>
 5    1  0.8778488E-005  0.9118800E+02  0.7818608E-02  0.1130116E+00
         25   -1    0    0    0    0  0.00000000000E+00  0.00000000000E+00  0.99999998245E-14  0.12500000000E+03  0.12500000000E+03 0.  0.
        -11    1    3    3    0    0 -0.46727456317E+02  0.21657501895E+01 -0.10752758325E+02  0.47997577643E+02  0.51100000000E-03 0.  1.
         23    2    1    0    0    0 -0.13069093405E+02  0.22350042470E+02  0.15132083407E+02  0.95011576415E+02  0.90154834057E+02 0.  0.
         11    1    3    3    0    0  0.33658362912E+02  0.20184292281E+02  0.25884841732E+02  0.47013998772E+02  0.51100000000E-03 0. -1.
         22    1    1    0    0    0  0.13069093405E+02 -0.22350042470E+02 -0.15132083407E+02  0.29988423585E+02  0.00000000000E+00 0.  1.
</event>
<event>
 5    1  0.8778488E-005  0.9118800E+02  0.7818608E-02  0.1130116E+00
         25   -1    0    0    0    0  0.00000000000E+00  0.00000000000E+00  0.99999998245E-14  0.12500000000E+03  0.12500000000E+03 0.  0.
        -11    1    3    3    0    0  0.28348286526E+00 -0.31614724372E+02  0.59068257023E+01  0.32163049448E+02  0.51100000000E-03 0.  1.
         23    2    1    0    0    0 -0.28486784594E+01  0.28228563470E+02 -0.11223759494E+02  0.94488698131E+02  0.89426922863E+02 0.  0.
         11    1    3    3    0    0 -0.31321613247E+01  0.59843287842E+02 -0.17130585196E+02  0.62325648683E+02  0.51100000000E-03 0. -1.
         22    1    1    0    0    0  0.28486784594E+01 -0.28228563470E+02  0.11223759494E+02  0.30511301869E+02  0.00000000000E+00 0. -1.
</event>
<event>
 5    1  0.8778488E-005  0.9118800E+02  0.7818608E-02  0.1130116E+00
         25   -1    0    0    0    0  0.00000000000E+00  0.00000000000E+00  0.99999998245E-14  0.12500000000E+03  0.12500000000E+03 0.  0.
        -11    1    3    3    0    0 -0.31531269605E+02  0.54773472368E+01  0.48092938867E+02  0.57768097293E+02  0.51100000000E-03 0.  1.
         23    2    1    0    0    0 -0.29039550298E+02  0.10109285057E+02  0.15908291570E+02  0.90379675528E+02  0.83486040043E+02 0.  0.
         11    1    3    3    0    0  0.24917193071E+01  0.46319378205E+01 -0.32184647297E+02  0.32611578235E+02  0.51100000000E-03 0. -1.
         22    1    1    0    0    0  0.29039550298E+02 -0.10109285057E+02 -0.15908291570E+02  0.34620324472E+02  0.00000000000E+00 0.  1.
</event>
<event>
 5    1  0.8778488E-005  0.9118800E+02  0.7818608E-02  0.1130116E+00
         25   -1    0    0    0    0  0.00000000000E+00  0.00000000000E+00  0.99999998245E-14  0.12500000000E+03  0.12500000000E+03 0.  0.
        -11    1    3    3    0    0 -0.29689300380E+02 -0.82219089881E+01 -0.22816033362E+02  0.38335697765E+02  0.51100000000E-03 0.  1.
         23    2    1    0    0    0  0.14950391422E+02 -0.24069526684E+02  0.88509589308E+01  0.95315057817E+02  0.90574634717E+02 0.  0.
         11    1    3    3    0    0  0.44639691802E+02 -0.15847617695E+02  0.31666992293E+02  0.56979360052E+02  0.51100000000E-03 0. -1.
         22    1    1    0    0    0 -0.14950391422E+02  0.24069526684E+02 -0.88509589308E+01  0.29684942183E+02  0.00000000000E+00 0. -1.
</event>
<event>
 5    1  0.8778488E-005  0.9118800E+02  0.7818608E-02  0.1130116E+00
         25   -1    0    0    0    0  0.00000000000E+00  0.00000000000E+00  0.99999998245E-14  0.12500000000E+03  0.12500000000E+03 0.  0.
        -11    1    3    3    0    0 -0.15946876665E+02  0.34316883833E+02  0.10558743106E+02  0.39286619193E+02  0.51100000000E-03 0.  1.
         23    2    1    0    0    0  0.65621824091E+01 -0.63903046988E+01  0.32870755383E+02  0.90876917027E+02  0.84227247710E+02 0.  0.
         11    1    3    3    0    0  0.22509059074E+02 -0.40707188531E+02  0.22312012277E+02  0.51590297834E+02  0.51100000000E-03 0. -1.
         22    1    1    0    0    0 -0.65621824091E+01  0.63903046988E+01 -0.32870755383E+02  0.34123082973E+02  0.00000000000E+00 0. -1.
</event>
<event>
 5    1  0.8778488E-005  0.9118800E+02  0.7818608E-02  0.1130116E+00
         25   -1    0    0    0    0  0.00000000000E+00  0.00000000000E+00  0.99999998245E-14  0.12500000000E+03  0.12500000000E+03 0.  0.
        -11    1    3    3    0    0  0.93575750762E+01  0.54852657341E+02  0.25574621364E+01  0.55703849432E+02  0.51100000000E-03 0.  1.
         23    2    1    0    0    0  0.22577099570E+02  0.16829791179E+02  0.63365101625E+01  0.96136205080E+02  0.91700879331E+02 0.  0.
         11    1    3    3    0    0  0.13219524494E+02 -0.38022866162E+02  0.37790480260E+01  0.40432355648E+02  0.51100000000E-03 0. -1.
         22    1    1    0    0    0 -0.22577099570E+02 -0.16829791179E+02 -0.63365101625E+01  0.28863794920E+02  0.00000000000E+00 0.  1.
</event>
<event>
 5    1  0.8778488E-005  0.9118800E+02  0.7818608E-02  0.1130116E+00
         25   -1    0    0    0    0  0.00000000000E+00  0.00000000000E+00  0.99999998245E-14  0.12500000000E+03  0.12500000000E+03 0.  0.
        -11    1    3    3    0    0  0.31498672415E+02 -0.30599625486E+02 -0.29319311889E+02  0.52802703470E+02  0.51100000000E-03 0.  1.
         23    2    1    0    0    0  0.47916533340E+01 -0.27516855757E+02  0.52340607115E+01  0.96582880442E+02  0.92307746752E+02 0.  0.
         11    1    3    3    0    0 -0.26707019081E+02  0.30827697290E+01  0.34553372600E+02  0.43780176972E+02  0.51100000000E-03 0. -1.
         22    1    1    0    0    0 -0.47916533340E+01  0.27516855757E+02 -0.52340607115E+01  0.28417119558E+02  0.00000000000E+00 0.  1.
</event>
<event>
 5    1  0.8778488E-005  0.9118800E+02  0.7818608E-02  0.1130116E+00
         25   -1    0    0    0    0  0.00000000000E+00  0.00000000000E+00  0.99999998245E-14  0.12500000000E+03  0.12500000000E+03 0.  0.
        -11    1    3    3    0    0  0.16205810809E+02  0.30934161372E+02 -0.37578725153E+02  0.51300206902E+02  0.51100000000E-03 0.  1.
         23    2    1    0    0    0 -0.16988507505E+02  0.80260169099E+01 -0.25352043965E+02  0.93444454245E+02  0.87955179275E+02 0.  0.
         11    1    3    3    0    0 -0.33194318314E+02 -0.22908144462E+02  0.12226681188E+02  0.42144247344E+02  0.51100000000E-03 0. -1.
         22    1    1    0    0    0  0.16988507505E+02 -0.80260169099E+01  0.25352043965E+02  0.31555545755E+02  0.00000000000E+00 0.  1.
</event>
<event>
 5    1  0.8778488E-005  0.9118800E+02  0.7818608E-02  0.1130116E+00
         25   -1    0    0    0    0  0.00000000000E+00  0.00000000000E+00  0.99999998245E-14  0.12500000000E+03  0.12500000000E+03 0.  0.
        -11    1    3    3    0    0 -0.10907897761E+02 -0.41862400668E+02  0.22011433440E+02  0.48538088401E+02  0.51100000000E-03 0.  1.
         23    2    1    0    0    0  0.36761291879E+01 -0.22638472524E+02 -0.18393867293E+02  0.95600191870E+02  0.90967290647E+02 0.  0.
         11    1    3    3    0    0  0.14584026949E+02  0.19223928144E+02 -0.40405300733E+02  0.47062103469E+02  0.51100000000E-03 0. -1.
         22    1    1    0    0    0 -0.36761291879E+01  0.22638472524E+02  0.18393867293E+02  0.29399808130E+02  0.00000000000E+00 0.  1.
</event>
<event>
 5    1  0.8778488E-005  0.9118800E+02  0.7818608E-02  0.1130116E+00
         25   -1    0    0    0    0  0.00000000000E+00  0.00000000000E+00  0.99999998245E-14  0.12500000000E+03  0.12500000000E+03 0.  0.
        -11    1    3    3    0    0 -0.55702975738E+01  0.46303615275E+02 -0.37068452923E+02  0.59574518085E+02  0.51100000000E-03 0.  1.
         23    2    1    0    0    0  0.10448497701E+02  0.23528444887E+02 -0.14244980065E+02  0.95577588813E+02  0.90936226023E+02 0.  0.
         11    1    3    3    0    0  0.16018795275E+02 -0.22775170389E+02  0.22823472859E+02  0.36003070729E+02  0.51100000000E-03 0. -1.
         22    1    1    0    0    0 -0.10448497701E+02 -0.23528444887E+02  0.14244980065E+02  0.29422411187E+02  0.00000000000E+00 0.  1.
</event>
<event>
 5    1  0.8778488E-005  0.9118800E+02  0.7818608E-02  0.1130116E+00
         25   -1    0    0    0    0  0.00000000000E+00  0.00000000000E+00  0.99999998245E-14  0.12500000000E+03  0.12500000000E+03 0.  0.
        -11    1    3    3    0    0  0.19255319739E+02 -0.51690641414E+02  0.14994919905E+02  0.57162377236E+02  0.51100000000E-03 0.  1.
         23    2    1    0    0    0 -0.24235593320E+01 -0.18556742552E+02  0.20617779199E+02  0.97155446618E+02  0.93079867073E+02 0.  0.
         11    1    3    3    0    0 -0.21678879072E+02  0.33133898863E+02  0.56228592938E+01  0.39993069381E+02  0.51100000000E-03 0. -1.
         22    1    1    0    0    0  0.24235593320E+01  0.18556742552E+02 -0.20617779199E+02  0.27844553382E+02  0.00000000000E+00 0.  1.
</event>
<event>
 5    1  0.8778488E-005  0.9118800E+02  0.7818608E-02  0.1130116E+00
         25   -1    0    0    0    0  0.00000000000E+00  0.00000000000E+00  0.99999998245E-14  0.12500000000E+03  0.12500000000E+03 0.  0.
        -11    1    3    3    0    0  0.55572433532E+02  0.14178430581E+02 -0.62629670224E+01  0.57693569994E+02  0.51100000000E-03 0.  1.
         23    2    1    0    0    0  0.30187028217E+02  0.22166995491E+01  0.13337550121E+02  0.91923412016E+02  0.85766269616E+02 0.  0.
         11    1    3    3    0    0 -0.25385405315E+02 -0.11961731032E+02  0.19600517143E+02  0.34229842022E+02  0.51100000000E-03 0. -1.
         22    1    1    0    0    0 -0.30187028217E+02 -0.22166995491E+01 -0.13337550121E+02  0.33076587984E+02  0.00000000000E+00 0.  1.
</event>
<event>
 4    1  0.8778488E-005  0.9118800E+02  0.7818608E-02  0.1130116E+00
         25   -1    0    0    0    0  0.00000000000E+00  0.00000000000E+00  0.99999998245E-14  0.12500000000E+03  0.12500000000E+03 0.  0.
        -11    1    1    0    0    0 -0.12582469062E+02  0.76443607425E+01 -0.39815915638E+02  0.42450699843E+02  0.51100000000E-03 0. -1.
         11    1    1    0    0    0 -0.28952383768E+02 -0.46719654060E+01  0.87746933279E+01  0.30611485261E+02  0.51100000000E-03 0.  1.
         22    1    1    0    0    0  0.41534852830E+02 -0.29723953365E+01  0.31041222310E+02  0.51937814896E+02  0.00000000000E+00 0.  1.
</event>
<event>
 5    1  0.8778488E-005  0.9118800E+02  0.7818608E-02  0.1130116E+00
         25   -1    0    0    0    0  0.00000000000E+00  0.00000000000E+00  0.99999998245E-14  0.12500000000E+03  0.12500000000E+03 0.  0.
        -11    1    3    3    0    0  0.25492503788E+02  0.28652103435E+02 -0.30746666606E+02  0.49154534768E+02  0.51100000000E-03 0.  1.
         23    2    1    0    0    0 -0.17178588221E+02  0.16858075833E+02 -0.17079469896E+02  0.95487173874E+02  0.90811857532E+02 0.  0.
         11    1    3    3    0    0 -0.42671092009E+02 -0.11794027602E+02  0.13667196710E+02  0.46332639106E+02  0.51100000000E-03 0. -1.
         22    1    1    0    0    0  0.17178588221E+02 -0.16858075833E+02  0.17079469896E+02  0.29512826126E+02  0.00000000000E+00 0.  1.
</event>
<event>
 5    1  0.8778488E-005  0.9118800E+02  0.7818608E-02  0.1130116E+00
         25   -1    0    0    0    0  0.00000000000E+00  0.00000000000E+00  0.99999998245E-14  0.12500000000E+03  0.12500000000E+03 0.  0.
        -11    1    3    3    0    0 -0.37895938664E+02  0.72505387436E+01  0.72056442109E+01  0.39250398572E+02  0.51100000000E-03 0.  1.
         23    2    1    0    0    0  0.13748937763E+02 -0.18642684043E+01  0.26465343245E+02  0.95118179785E+02  0.90302519047E+02 0.  0.
         11    1    3    3    0    0  0.51644876427E+02 -0.91148071479E+01  0.19259699034E+02  0.55867781213E+02  0.51100000000E-03 0. -1.
         22    1    1    0    0    0 -0.13748937763E+02  0.18642684043E+01 -0.26465343245E+02  0.29881820215E+02  0.00000000000E+00 0. -1.
</event>
<event>
 5    1  0.8778488E-005  0.9118800E+02  0.7818608E-02  0.1130116E+00
         25   -1    0    0    0    0  0.00000000000E+00  0.00000000000E+00  0.99999998245E-14  0.12500000000E+03  0.12500000000E+03 0.  0.
        -11    1    3    3    0    0 -0.54412696400E+02  0.15357893746E+01  0.27816757166E+02  0.61129961214E+02  0.51100000000E-03 0.  1.
         23    2    1    0    0    0 -0.24184514882E+02  0.98145427735E+01  0.14006332427E+02  0.95379173577E+02  0.90663076245E+02 0.  0.
         11    1    3    3    0    0  0.30228181518E+02  0.82787533990E+01 -0.13810424740E+02  0.34249212363E+02  0.51100000000E-03 0. -1.
         22    1    1    0    0    0  0.24184514882E+02 -0.98145427735E+01 -0.14006332427E+02  0.29620826423E+02  0.00000000000E+00 0.  1.
</event>
<event>
 5    1  0.8778488E-005  0.9118800E+02  0.7818608E-02  0.1130116E+00
         25   -1    0    0    0    0  0.00000000000E+00  0.00000000000E+00  0.99999998245E-14  0.12500000000E+03  0.12500000000E+03 0.  0.
        -11    1    3    3    0    0  0.17188441022E+02  0.33640494384E+02 -0.71990856815E+01  0.38457147607E+02  0.51100000000E-03 0. -1.
         23    2    1    0    0    0  0.19553942240E+02 -0.16153814095E+02  0.17593038228E+02  0.94132260189E+02  0.88927302036E+02 0.  0.
         11    1    3    3    0    0  0.23655012184E+01 -0.49794308478E+02  0.24792123909E+02  0.55675112582E+02  0.51100000000E-03 0.  1.
         22    1    1    0    0    0 -0.19553942240E+02  0.16153814095E+02 -0.17593038228E+02  0.30867739811E+02  0.00000000000E+00 0.  1.
</event>
<event>
 5    1  0.8778488E-005  0.9118800E+02  0.7818608E-02  0.1130116E+00
         25   -1    0    0    0    0  0.00000000000E+00  0.00000000000E+00  0.99999998245E-14  0.12500000000E+03  0.12500000000E+03 0.  0.
        -11    1    3    3    0    0 -0.30173952044E+02  0.15264582080E+00  0.90935631229E+01  0.31514815139E+02  0.51100000000E-03 0.  1.
         23    2    1    0    0    0  0.21608001085E+02 -0.96460654508E+01 -0.21987472184E+02  0.92698278334E+02  0.86888259181E+02 0.  0.
         11    1    3    3    0    0  0.51781953130E+02 -0.97987112716E+01 -0.31081035307E+02  0.61183463195E+02  0.51100000000E-03 0. -1.
         22    1    1    0    0    0 -0.21608001085E+02  0.96460654508E+01  0.21987472184E+02  0.32301721666E+02  0.00000000000E+00 0. -1.
</event>
<event>
 5    1  0.8778488E-005  0.9118800E+02  0.7818608E-02  0.1130116E+00
         25   -1    0    0    0    0  0.00000000000E+00  0.00000000000E+00  0.99999998245E-14  0.12500000000E+03  0.12500000000E+03 0.  0.
        -11    1    3    3    0    0 -0.30417765135E+02 -0.34576750929E+02  0.38619664526E+02  0.60102168255E+02  0.51100000000E-03 0.  1.
         23    2    1    0    0    0 -0.15848583990E+02 -0.54850993257E+01  0.23875318168E+02  0.95823044252E+02  0.91273002925E+02 0.  0.
         11    1    3    3    0    0  0.14569181145E+02  0.29091651603E+02 -0.14744346358E+02  0.35720875997E+02  0.51100000000E-03 0. -1.
         22    1    1    0    0    0  0.15848583990E+02  0.54850993257E+01 -0.23875318168E+02  0.29176955748E+02  0.00000000000E+00 0.  1.
</event>
<event>
 5    1  0.8778488E-005  0.9118800E+02  0.7818608E-02  0.1130116E+00
         25   -1    0    0    0    0  0.00000000000E+00  0.00000000000E+00  0.99999998245E-14  0.12500000000E+03  0.12500000000E+03 0.  0.
        -11    1    3    3    0    0  0.14596003486E+02  0.13946547533E+02  0.40018107840E+02  0.44821852496E+02  0.51100000000E-03 0.  1.
         23    2    1    0    0    0 -0.67506885121E+01  0.27720223455E+02 -0.45373487003E+01  0.96111072761E+02  0.91666614372E+02 0.  0.
         11    1    3    3    0    0 -0.21346691998E+02  0.13773675922E+02 -0.44555456540E+02  0.51289220265E+02  0.51100000000E-03 0. -1.
         22    1    1    0    0    0  0.67506885121E+01 -0.27720223455E+02  0.45373487003E+01  0.28888927239E+02  0.00000000000E+00 0.  1.
</event>
<event>
 5    1  0.8778488E-005  0.9118800E+02  0.7818608E-02  0.1130116E+00
         25   -1    0    0    0    0  0.00000000000E+00  0.00000000000E+00  0.99999998245E-14  0.12500000000E+03  0.12500000000E+03 0.  0.
        -11    1    3    3    0    0  0.43192963708E+02 -0.10572073900E+02  0.23930355090E+02  0.50498146059E+02  0.51100000000E-03 0.  1.
         23    2    1    0    0    0  0.33993099366E+01 -0.27043188222E+02  0.12222765028E+02  0.95128854689E+02  0.90317294426E+02 0.  0.
         11    1    3    3    0    0 -0.39793653772E+02 -0.16471114322E+02 -0.11707590062E+02  0.44630708630E+02  0.51100000000E-03 0. -1.
         22    1    1    0    0    0 -0.33993099366E+01  0.27043188222E+02 -0.12222765028E+02  0.29871145311E+02  0.00000000000E+00 0. -1.
</event>
<event>
 5    1  0.8778488E-005  0.9118800E+02  0.7818608E-02  0.1130116E+00
         25   -1    0    0    0    0  0.00000000000E+00  0.00000000000E+00  0.99999998245E-14  0.12500000000E+03  0.12500000000E+03 0.  0.
        -11    1    3    3    0    0  0.41700586229E+02  0.35074720986E+01  0.58590538989E+01  0.42256002712E+02  0.51100000000E-03 0. -1.
         23    2    1    0    0    0 -0.56102565629E+01  0.12722370358E+02  0.26799480078E+02  0.94808182918E+02  0.89872385801E+02 0.  0.
         11    1    3    3    0    0 -0.47310842792E+02  0.92148982597E+01  0.20940426179E+02  0.52552180206E+02  0.51100000000E-03 0.  1.
         22    1    1    0    0    0  0.56102565629E+01 -0.12722370358E+02 -0.26799480078E+02  0.30191817082E+02  0.00000000000E+00 0. -1.
</event>
<event>
 5    1  0.8778488E-005  0.9118800E+02  0.7818608E-02  0.1130116E+00
         25   -1    0    0    0    0  0.00000000000E+00  0.00000000000E+00  0.99999998245E-14  0.12500000000E+03  0.12500000000E+03 0.  0.
        -11    1    3    3    0    0  0.79548140137E+01 -0.23195905864E+02 -0.27349371282E+02  0.36733053571E+02  0.51100000000E-03 0.  1.
         23    2    1    0    0    0 -0.18980568909E+02 -0.26824730797E+01  0.21517096340E+02  0.96182590456E+02  0.91764086733E+02 0.  0.
         11    1    3    3    0    0 -0.26935382923E+02  0.20513432784E+02  0.48866467622E+02  0.59449536885E+02  0.51100000000E-03 0. -1.
         22    1    1    0    0    0  0.18980568909E+02  0.26824730797E+01 -0.21517096340E+02  0.28817409544E+02  0.00000000000E+00 0. -1.
</event>
